POPC + CLR bilayer in water
167640
    1POPC   CN1    1   0.475  16.213   6.501
    1POPC   CN2    2   0.597  16.378   6.381
    1POPC   CN3    3   0.402  16.437   6.509
    1POPC   NTM    4   0.522  16.352   6.505
    1POPC    CA    5   0.607  16.368   6.626
    1POPC    CB    6   0.678  16.502   6.659
    1POPC    OA    7   0.592  16.615   6.664
    1POPC     P    8   0.659  16.747   6.716
    1POPC    OB    9   0.547  16.841   6.734
    1POPC    OC   10   0.750  16.711   6.826
    1POPC    OD   11   0.739  16.787   6.587
    1POPC    CC   12   0.655  16.824   6.478
    1POPC    CD   13   0.721  16.905   6.365
    1POPC    OE   14   0.633  16.916   6.250
    1POPC   C1A   15   0.613   0.053   6.200
    1POPC    OF   16   0.619   0.151   6.275
    1POPC   C1B   17   0.545   0.052   6.069
    1POPC   C1C   18   0.642   0.040   5.952
    1POPC   C1D   19   0.562   0.050   5.822
    1POPC   C1E   20   0.653   0.050   5.699
    1POPC   C1F   21   0.573   0.097   5.578
    1POPC   C1G   22   0.665   0.122   5.458
    1POPC   C1H   23   0.589   0.198   5.350
    1POPC   C1I   24   0.682   0.231   5.233
    1POPC   C1J   25   0.633   0.252   5.112
    1POPC   C1K   26   0.482   0.247   5.087
    1POPC   C1L   27   0.448   0.179   4.954
    1POPC   C1M   28   0.494   0.257   4.831
    1POPC   C1N   29   0.461   0.179   4.704
    1POPC   C1O   30   0.511   0.253   4.579
    1POPC   C1P   31   0.478   0.178   4.450
    1POPC   C1Q   32   0.327   0.170   4.424
    1POPC   C1R   33   0.298   0.096   4.293
    1POPC    CE   34   0.857  16.840   6.334
    1POPC    OG   35   0.934  16.909   6.234
    1POPC   C2A   36   1.066  16.891   6.236
    1POPC    OH   37   1.122  16.844   6.335
    1POPC   C2B   38   1.133  16.955   6.121
    1POPC   C2C   39   1.139  16.862   5.999
    1POPC   C2D   40   1.186  16.938   5.875
    1POPC   C2E   41   1.183  16.845   5.753
    1POPC   C2F   42   1.208  16.921   5.622
    1POPC   C2G   43   1.195  16.825   5.504
    1POPC   C2H   44   1.207  16.894   5.369
    1POPC   C2I   45   1.191  16.790   5.258
    1POPC   C2J   46   1.196  16.850   5.118
    1POPC   C2K   47   1.184  16.738   5.014
    1POPC   C2L   48   1.187  16.788   4.869
    1POPC   C2M   49   1.061  16.866   4.832
    1POPC   C2N   50   1.064  16.908   4.685
    1POPC   C2O   51   0.937   0.002   4.649
    1POPC   C2P   52   0.938   0.045   4.502
    2POPC   CN1   53   1.046  15.546   6.872
    2POPC   CN2   54   1.233  15.688   6.911
    2POPC   CN3   55   1.262  15.491   6.781
    2POPC   NTM   56   1.169  15.601   6.812
    2POPC    CA   57   1.140  15.683   6.692
    2POPC    CB   58   1.082  15.618   6.564
    2POPC    OA   59   0.957  15.551   6.581
    2POPC     P   60   0.906  15.492   6.444
    2POPC    OB   61   1.021  15.442   6.367
    2POPC    OC   62   0.788  15.412   6.475
    2POPC    OD   63   0.860  15.627   6.384
    2POPC    CC   64   0.818  15.610   6.250
    2POPC    CD   65   0.804  15.747   6.181
    2POPC    OE   66   0.733  15.742   6.053
    2POPC   C1A   67   0.693  15.857   5.998
    2POPC    OF   68   0.689  15.960   6.066
    2POPC   C1B   69   0.639  15.839   5.861
    2POPC   C1C   70   0.668  15.960   5.772
    2POPC   C1D   71   0.616  15.940   5.629
    2POPC   C1E   72   0.630  16.070   5.551
    2POPC   C1F   73   0.574  16.061   5.409
    2POPC   C1G   74   0.667  15.986   5.314
    2POPC   C1H   75   0.606  15.981   5.173
    2POPC   C1I   76   0.707  15.928   5.071
    2POPC   C1J   77   0.701  15.963   4.943
    2POPC   C1K   78   0.593  16.058   4.889
    2POPC   C1L   79   0.646  16.201   4.872
    2POPC   C1M   80   0.542  16.295   4.812
    2POPC   C1N   81   0.418  16.314   4.901
    2POPC   C1O   82   0.320  16.417   4.846
    2POPC   C1P   83   0.258  16.374   4.712
    2POPC   C1Q   84   0.162  16.482   4.661
    2POPC   C1R   85   0.101  16.442   4.526
    2POPC    CE   86   0.945  15.810   6.187
    2POPC    OG   87   1.053  15.736   6.128
    2POPC   C2A   88   1.171  15.741   6.191
    2POPC    OH   89   1.184  15.802   6.298
    2POPC   C2B   90   1.277  15.670   6.117
    2POPC   C2C   91   1.361  15.768   6.036
    2POPC   C2D   92   1.456  15.702   5.936
    2POPC   C2E   93   1.386  15.663   5.805
    2POPC   C2F   94   1.490  15.617   5.703
    2POPC   C2G   95   1.431  15.596   5.563
    2POPC   C2H   96   1.544  15.564   5.464
    2POPC   C2I   97   1.497  15.550   5.319
    2POPC   C2J   98   1.415  15.423   5.296
    2POPC   C2K   99   1.391  15.399   5.147
    2POPC   C2L  100   1.313  15.269   5.125
    2POPC   C2M  101   1.305  15.233   4.977
    2POPC   C2N  102   1.232  15.099   4.958
    2POPC   C2O  103   1.231  15.051   4.813
    2POPC   C2P  104   1.148  15.142   4.721
    3POPC   CN1  105   2.315  16.758   6.737
    3POPC   CN2  106   2.207  16.740   6.524
    3POPC   CN3  107   2.082  16.709   6.724
    3POPC   NTM  108   2.192  16.786   6.663
    3POPC    CA  109   2.156  16.929   6.668
    3POPC    CB  110   2.250   0.056   6.611
    3POPC    OA  111   2.279   0.048   6.472
    3POPC     P  112   2.223   0.168   6.387
    3POPC    OB  113   2.235   0.285   6.475
    3POPC    OC  114   2.292   0.162   6.258
    3POPC    OD  115   2.074   0.121   6.378
    3POPC    CC  116   2.051   0.028   6.273
    3POPC    CD  117   1.921  16.932   6.291
    3POPC    OE  118   1.911  16.817   6.202
    3POPC   C1A  119   1.949  16.699   6.250
    3POPC    OF  120   1.930  16.674   6.370
    3POPC   C1B  121   1.982  16.599   6.147
    3POPC   C1C  122   1.880  16.484   6.138
    3POPC   C1D  123   1.929  16.373   6.045
    3POPC   C1E  124   1.944  16.421   5.900
    3POPC   C1F  125   2.003  16.312   5.810
    3POPC   C1G  126   2.037  16.369   5.672
    3POPC   C1H  127   1.913  16.401   5.587
    3POPC   C1I  128   1.949  16.497   5.473
    3POPC   C1J  129   1.975  16.459   5.349
    3POPC   C1K  130   1.967  16.314   5.302
    3POPC   C1L  131   1.957  16.309   5.149
    3POPC   C1M  132   1.942  16.165   5.099
    3POPC   C1N  133   1.940  16.156   4.946
    3POPC   C1O  134   2.075  16.193   4.885
    3POPC   C1P  135   2.079  16.164   4.735
    3POPC   C1Q  136   2.218  16.194   4.679
    3POPC   C1R  137   2.227  16.154   4.532
    3POPC    CE  138   1.804   0.048   6.294
    3POPC    OG  139   1.784   0.131   6.177
    3POPC   C2A  140   1.675   0.207   6.177
    3POPC    OH  141   1.584   0.186   6.258
    3POPC   C2B  142   1.663   0.296   6.060
    3POPC   C2C  143   1.566   0.238   5.956
    3POPC   C2D  144   1.578   0.309   5.822
    3POPC   C2E  145   1.508   0.231   5.711
    3POPC   C2F  146   1.543   0.291   5.575
    3POPC   C2G  147   1.498   0.203   5.458
    3POPC   C2H  148   1.555   0.261   5.329
    3POPC   C2I  149   1.527   0.172   5.207
    3POPC   C2J  150   1.608   0.224   5.088
    3POPC   C2K  151   1.597   0.132   4.966
    3POPC   C2L  152   1.693   0.183   4.859
    3POPC   C2M  153   1.695   0.091   4.736
    3POPC   C2N  154   1.798   0.142   4.635
    3POPC   C2O  155   1.809   0.049   4.515
    3POPC   C2P  156   1.917   0.099   4.419
    4POPC   CN1  157   3.313  15.902   6.866
    4POPC   CN2  158   3.461  15.750   6.978
    4POPC   CN3  159   3.227  15.721   6.993
    4POPC   NTM  160   3.335  15.761   6.903
    4POPC    CA  161   3.333  15.670   6.786
    4POPC    CB  162   3.442  15.679   6.676
    4POPC    OA  163   3.446  15.800   6.600
    4POPC     P  164   3.586  15.810   6.530
    4POPC    OB  165   3.673  15.840   6.644
    4POPC    OC  166   3.604  15.688   6.450
    4POPC    OD  167   3.561  15.939   6.446
    4POPC    CC  168   3.500  15.908   6.320
    4POPC    CD  169   3.483  16.030   6.228
    4POPC    OE  170   3.420  15.994   6.101
    4POPC   C1A  171   3.288  15.985   6.092
    4POPC    OF  172   3.215  16.009   6.189
    4POPC   C1B  173   3.244  15.945   5.956
    4POPC   C1C  174   3.115  16.015   5.912
    4POPC   C1D  175   3.089  15.989   5.763
    4POPC   C1E  176   2.964  16.062   5.716
    4POPC   C1F  177   2.948  16.058   5.563
    4POPC   C1G  178   2.914  15.919   5.509
    4POPC   C1H  179   2.908  15.921   5.356
    4POPC   C1I  180   2.857  15.788   5.302
    4POPC   C1J  181   2.897  15.741   5.184
    4POPC   C1K  182   2.997  15.817   5.098
    4POPC   C1L  183   3.075  15.719   5.010
    4POPC   C1M  184   3.178  15.790   4.923
    4POPC   C1N  185   3.255  15.690   4.836
    4POPC   C1O  186   3.358  15.757   4.746
    4POPC   C1P  187   3.474  15.819   4.825
    4POPC   C1Q  188   3.575  15.886   4.733
    4POPC   C1R  189   3.689  15.949   4.813
    4POPC    CE  190   3.623  16.093   6.215
    4POPC    OG  191   3.631  16.221   6.149
    4POPC   C2A  192   3.745  16.288   6.162
    4POPC    OH  193   3.823  16.263   6.255
    4POPC   C2B  194   3.749  16.408   6.076
    4POPC   C2C  195   3.885  16.428   6.009
    4POPC   C2D  196   3.875  16.543   5.909
    4POPC   C2E  197   4.006  16.564   5.833
    4POPC   C2F  198   3.988  16.671   5.725
    4POPC   C2G  199   4.115  16.693   5.643
    4POPC   C2H  200   4.225  16.764   5.724
    4POPC   C2I  201   4.352  16.787   5.640
    4POPC   C2J  202   4.331  16.883   5.523
    4POPC   C2K  203   4.307   0.045   5.569
    4POPC   C2L  204   4.272   0.137   5.451
    4POPC   C2M  205   4.389   0.152   5.353
    4POPC   C2N  206   4.354   0.239   5.232
    4POPC   C2O  207   4.251   0.174   5.140
    4POPC   C2P  208   4.222   0.264   5.020
    5POPC   CN1  209   5.648  16.401   5.880
    5POPC   CN2  210   5.716  16.620   5.938
    5POPC   CN3  211   5.488  16.562   5.952
    5POPC   NTM  212   5.624  16.512   5.973
    5POPC    CA  213   5.651  16.472   6.114
    5POPC    CB  214   5.565  16.364   6.183
    5POPC    OA  215   5.428  16.399   6.201
    5POPC     P  216   5.343  16.286   6.269
    5POPC    OB  217   5.426  16.215   6.367
    5POPC    OC  218   5.225  16.362   6.315
    5POPC    OD  219   5.312  16.200   6.140
    5POPC    CC  220   5.178  16.222   6.095
    5POPC    CD  221   5.135  16.170   5.958
    5POPC    OE  222   5.003  16.222   5.923
    5POPC   C1A  223   4.995  16.291   5.809
    5POPC    OF  224   5.098  16.329   5.754
    5POPC   C1B  225   4.858  16.339   5.777
    5POPC   C1C  226   4.839  16.350   5.626
    5POPC   C1D  227   4.723  16.442   5.588
    5POPC   C1E  228   4.715  16.453   5.436
    5POPC   C1F  229   4.622  16.567   5.393
    5POPC   C1G  230   4.622  16.577   5.240
    5POPC   C1H  231   4.549  16.701   5.188
    5POPC   C1I  232   4.625  16.831   5.219
    5POPC   C1J  233   4.648  16.919   5.123
    5POPC   C1K  234   4.600  16.892   4.980
    5POPC   C1L  235   4.579   0.038   4.902
    5POPC   C1M  236   4.524   0.009   4.762
    5POPC   C1N  237   4.502   0.136   4.680
    5POPC   C1O  238   4.633   0.203   4.639
    5POPC   C1P  239   4.606   0.333   4.564
    5POPC   C1Q  240   4.734   0.405   4.520
    5POPC   C1R  241   4.805   0.330   4.407
    5POPC    CE  242   5.146  16.016   5.960
    5POPC    OG  243   5.154  15.956   5.829
    5POPC   C2A  244   5.158  15.823   5.822
    5POPC    OH  245   5.163  15.754   5.924
    5POPC   C2B  246   5.170  15.772   5.684
    5POPC   C2C  247   5.090  15.643   5.663
    5POPC   C2D  248   5.128  15.570   5.534
    5POPC   C2E  249   5.100  15.650   5.406
    5POPC   C2F  250   5.139  15.567   5.283
    5POPC   C2G  251   5.130  15.645   5.152
    5POPC   C2H  252   5.230  15.761   5.148
    5POPC   C2I  253   5.237  15.829   5.011
    5POPC   C2J  254   5.307  15.742   4.907
    5POPC   C2K  255   5.327  15.816   4.774
    5POPC   C2L  256   5.197  15.848   4.699
    5POPC   C2M  257   5.175  15.759   4.576
    5POPC   C2N  258   5.132  15.616   4.611
    5POPC   C2O  259   5.120  15.530   4.485
    5POPC   C2P  260   5.075  15.388   4.519
    6POPC   CN1  261   6.616  16.880   6.289
    6POPC   CN2  262   6.489   0.046   6.428
    6POPC   CN3  263   6.546   0.107   6.205
    6POPC   NTM  264   6.506  16.978   6.291
    6POPC    CA  265   6.378  16.924   6.237
    6POPC    CB  266   6.308  16.805   6.306
    6POPC    OA  267   6.383  16.683   6.311
    6POPC     P  268   6.318  16.576   6.406
    6POPC    OB  269   6.408  16.461   6.422
    6POPC    OC  270   6.269  16.647   6.526
    6POPC    OD  271   6.193  16.536   6.322
    6POPC    CC  272   6.221  16.436   6.224
    6POPC    CD  273   6.099  16.402   6.137
    6POPC    OE  274   6.111  16.278   6.061
    6POPC   C1A  275   6.001  16.229   6.004
    6POPC    OF  276   5.891  16.279   6.026
    6POPC   C1B  277   6.024  16.113   5.915
    6POPC   C1C  278   6.038  16.160   5.770
    6POPC   C1D  279   6.036  16.043   5.672
    6POPC   C1E  280   6.047  16.094   5.529
    6POPC   C1F  281   6.020  15.984   5.426
    6POPC   C1G  282   6.020  16.043   5.285
    6POPC   C1H  283   5.973  15.944   5.177
    6POPC   C1I  284   5.825  15.909   5.192
    6POPC   C1J  285   5.749  15.884   5.085
    6POPC   C1K  286   5.809  15.893   4.945
    6POPC   C1L  287   5.736  15.798   4.849
    6POPC   C1M  288   5.787  15.810   4.705
    6POPC   C1N  289   5.753  15.946   4.642
    6POPC   C1O  290   5.808  15.955   4.500
    6POPC   C1P  291   5.776  16.091   4.437
    6POPC   C1Q  292   5.833  16.098   4.295
    6POPC   C1R  293   5.800  16.233   4.230
    6POPC    CE  294   6.071  16.531   6.057
    6POPC    OG  295   6.170  16.569   5.960
    6POPC   C2A  296   6.134  16.562   5.832
    6POPC    OH  297   6.016  16.548   5.799
    6POPC   C2B  298   6.244  16.592   5.738
    6POPC   C2C  299   6.249  16.489   5.626
    6POPC   C2D  300   6.360  16.519   5.525
    6POPC   C2E  301   6.367  16.406   5.422
    6POPC   C2F  302   6.477  16.431   5.319
    6POPC   C2G  303   6.491  16.310   5.227
    6POPC   C2H  304   6.605  16.327   5.126
    6POPC   C2I  305   6.572  16.427   5.015
    6POPC   C2J  306   6.689  16.440   4.918
    6POPC   C2K  307   6.655  16.532   4.801
    6POPC   C2L  308   6.775  16.545   4.706
    6POPC   C2M  309   6.744  16.630   4.583
    6POPC   C2N  310   6.644  16.562   4.490
    6POPC   C2O  311   6.613  16.645   4.365
    6POPC   C2P  312   6.734  16.659   4.271
    7POPC   CN1  313   6.831  16.059   6.392
    7POPC   CN2  314   6.751  16.083   6.168
    7POPC   CN3  315   6.608  15.997   6.335
    7POPC   NTM  316   6.714  16.094   6.310
    7POPC    CA  317   6.661  16.229   6.341
    7POPC    CB  318   6.755  16.352   6.348
    7POPC    OA  319   6.844  16.362   6.237
    7POPC     P  320   6.894  16.508   6.210
    7POPC    OB  321   6.928  16.562   6.343
    7POPC    OC  322   6.995  16.493   6.105
    7POPC    OD  323   6.760  16.568   6.154
    7POPC    CC  324   6.729  16.515   6.025
    7POPC    CD  325   6.578  16.510   5.998
    7POPC    OE  326   6.537  16.419   5.892
    7POPC   C1A  327   6.510  16.293   5.923
    7POPC    OF  328   6.517  16.253   6.039
    7POPC   C1B  329   6.466  16.213   5.806
    7POPC   C1C  330   6.482  16.062   5.829
    7POPC   C1D  331   6.429  15.982   5.710
    7POPC   C1E  332   6.524  15.988   5.590
    7POPC   C1F  333   6.458  15.925   5.468
    7POPC   C1G  334   6.556  15.912   5.352
    7POPC   C1H  335   6.483  15.874   5.223
    7POPC   C1I  336   6.580  15.846   5.109
    7POPC   C1J  337   6.556  15.895   4.987
    7POPC   C1K  338   6.435  15.985   4.963
    7POPC   C1L  339   6.369  15.956   4.828
    7POPC   C1M  340   6.259  16.058   4.798
    7POPC   C1N  341   6.176  16.019   4.675
    7POPC   C1O  342   6.255  16.013   4.543
    7POPC   C1P  343   6.299  16.151   4.494
    7POPC   C1Q  344   6.376  16.139   4.362
    7POPC   C1R  345   6.419  16.276   4.310
    7POPC    CE  346   6.527  16.654   5.989
    7POPC    OG  347   6.592  16.738   5.892
    7POPC   C2A  348   6.533  16.855   5.864
    7POPC    OH  349   6.436  16.894   5.929
    7POPC   C2B  350   6.601  16.931   5.758
    7POPC   C2C  351   6.568  16.876   5.619
    7POPC   C2D  352   6.640  16.958   5.511
    7POPC   C2E  353   6.633  16.894   5.372
    7POPC   C2F  354   6.491  16.886   5.316
    7POPC   C2G  355   6.494  16.829   5.174
    7POPC   C2H  356   6.354  16.824   5.113
    7POPC   C2I  357   6.355  16.786   4.965
    7POPC   C2J  358   6.430  16.891   4.881
    7POPC   C2K  359   6.409  16.871   4.731
    7POPC   C2L  360   6.484  16.982   4.655
    7POPC   C2M  361   6.452  16.979   4.506
    7POPC   C2N  362   6.533   0.104   4.434
    7POPC   C2O  363   6.507   0.109   4.283
    7POPC   C2P  364   6.367   0.161   4.251
    8POPC   CN1  365   7.286   0.747   6.587
    8POPC   CN2  366   7.161   0.946   6.619
    8POPC   CN3  367   7.062   0.765   6.503
    8POPC   NTM  368   7.151   0.800   6.615
    8POPC    CA  369   7.101   0.753   6.746
    8POPC    CB  370   7.080   0.602   6.775
    8POPC    OA  371   6.979   0.540   6.695
    8POPC     P  372   6.985   0.383   6.700
    8POPC    OB  373   7.031   0.341   6.834
    8POPC    OC  374   6.858   0.340   6.642
    8POPC    OD  375   7.104   0.367   6.600
    8POPC    CC  376   7.062   0.375   6.464
    8POPC    CD  377   7.179   0.367   6.364
    8POPC    OE  378   7.147   0.411   6.229
    8POPC   C1A  379   7.201   0.527   6.190
    8POPC    OF  380   7.253   0.602   6.272
    8POPC   C1B  381   7.191   0.552   6.044
    8POPC   C1C  382   7.076   0.646   6.008
    8POPC   C1D  383   7.064   0.667   5.857
    8POPC   C1E  384   7.186   0.736   5.797
    8POPC   C1F  385   7.170   0.752   5.646
    8POPC   C1G  386   7.300   0.805   5.584
    8POPC   C1H  387   7.291   0.818   5.432
    8POPC   C1I  388   7.208   0.939   5.387
    8POPC   C1J  389   7.231   0.992   5.267
    8POPC   C1K  390   7.340   0.931   5.178
    8POPC   C1L  391   7.305   0.945   5.030
    8POPC   C1M  392   7.407   0.872   4.944
    8POPC   C1N  393   7.371   0.884   4.795
    8POPC   C1O  394   7.467   0.801   4.710
    8POPC   C1P  395   7.432   0.816   4.561
    8POPC   C1Q  396   7.521   0.728   4.472
    8POPC   C1R  397   7.492   0.579   4.490
    8POPC    CE  398   7.241   0.227   6.376
    8POPC    OG  399   7.149   0.118   6.355
    8POPC   C2A  400   7.201  16.981   6.337
    8POPC    OH  401   7.324  16.966   6.326
    8POPC   C2B  402   7.099  16.874   6.332
    8POPC   C2C  403   7.007  16.880   6.210
    8POPC   C2D  404   7.071  16.827   6.081
    8POPC   C2E  405   6.966  16.827   5.970
    8POPC   C2F  406   7.011  16.752   5.844
    8POPC   C2G  407   7.127  16.821   5.774
    8POPC   C2H  408   7.168  16.750   5.645
    8POPC   C2I  409   7.281  16.828   5.576
    8POPC   C2J  410   7.322  16.763   5.445
    8POPC   C2K  411   7.430  16.847   5.376
    8POPC   C2L  412   7.480  16.782   5.246
    8POPC   C2M  413   7.562  16.656   5.273
    8POPC   C2N  414   7.614  16.597   5.142
    8POPC   C2O  415   7.700  16.473   5.166
    8POPC   C2P  416   7.749  16.417   5.033
    9POPC   CN1  417   7.303  16.213   5.924
    9POPC   CN2  418   7.471  16.375   5.966
    9POPC   CN3  419   7.254  16.444   5.894
    9POPC   NTM  420   7.327  16.347   5.977
    9POPC    CA  421   7.279  16.349   6.117
    9POPC    CB  422   7.297  16.476   6.204
    9POPC    OA  423   7.432  16.511   6.233
    9POPC     P  424   7.440  16.653   6.302
    9POPC    OB  425   7.330  16.659   6.399
    9POPC    OC  426   7.579  16.663   6.349
    9POPC    OD  427   7.419  16.737   6.171
    9POPC    CC  428   7.542  16.769   6.106
    9POPC    CD  429   7.526  16.852   5.977
    9POPC    OE  430   7.652  16.874   5.906
    9POPC   C1A  431   7.709  16.778   5.833
    9POPC    OF  432   7.671  16.661   5.844
    9POPC   C1B  433   7.832  16.821   5.764
    9POPC   C1C  434   7.840  16.761   5.623
    9POPC   C1D  435   7.985  16.741   5.580
    9POPC   C1E  436   7.992  16.685   5.438
    9POPC   C1F  437   8.131  16.626   5.409
    9POPC   C1G  438   8.143  16.580   5.263
    9POPC   C1H  439   8.167  16.695   5.165
    9POPC   C1I  440   8.309  16.751   5.176
    9POPC   C1J  441   8.362  16.823   5.078
    9POPC   C1K  442   8.281  16.857   4.953
    9POPC   C1L  443   8.325   0.010   4.898
    9POPC   C1M  444   8.238   0.059   4.781
    9POPC   C1N  445   8.252  16.954   4.657
    9POPC   C1O  446   8.172   0.030   4.540
    9POPC   C1P  447   8.185  16.926   4.415
    9POPC   C1Q  448   8.114   0.002   4.293
    9POPC   C1R  449   8.182   0.130   4.244
    9POPC    CE  450   7.460   0.001   6.022
    9POPC    OG  451   7.352   0.045   5.938
    9POPC   C2A  452   7.319   0.174   5.944
    9POPC    OH  453   7.388   0.256   6.005
    9POPC   C2B  454   7.199   0.206   5.864
    9POPC   C2C  455   7.232   0.222   5.715
    9POPC   C2D  456   7.102   0.225   5.634
    9POPC   C2E  457   7.128   0.208   5.484
    9POPC   C2F  458   6.995   0.197   5.410
    9POPC   C2G  459   7.013   0.179   5.259
    9POPC   C2H  460   6.876   0.187   5.191
    9POPC   C2I  461   6.882   0.168   5.040
    9POPC   C2J  462   6.909   0.022   5.000
    9POPC   C2K  463   6.915   0.005   4.848
    9POPC   C2L  464   7.039   0.073   4.788
    9POPC   C2M  465   7.044   0.062   4.635
    9POPC   C2N  466   6.932   0.142   4.567
    9POPC   C2O  467   6.944   0.141   4.414
    9POPC   C2P  468   6.925   0.002   4.354
   10POPC   CN1  469   8.798  16.511   6.669
   10POPC   CN2  470   8.716  16.439   6.459
   10POPC   CN3  471   8.911  16.337   6.554
   10POPC   NTM  472   8.779  16.393   6.584
   10POPC    CA  473   8.693  16.297   6.657
   10POPC    CB  474   8.669  16.155   6.600
   10POPC    OA  475   8.606  16.151   6.472
   10POPC     P  476   8.618  16.011   6.401
   10POPC    OB  477   8.644  15.908   6.502
   10POPC    OC  478   8.496  16.008   6.319
   10POPC    OD  479   8.750  16.043   6.321
   10POPC    CC  480   8.724  16.124   6.207
   10POPC    CD  481   8.849  16.179   6.136
   10POPC    OE  482   8.816  16.282   6.037
   10POPC   C1A  483   8.909  16.372   6.003
   10POPC    OF  484   9.005  16.393   6.077
   10POPC   C1B  485   8.883  16.440   5.874
   10POPC   C1C  486   8.961  16.364   5.766
   10POPC   C1D  487   8.932  16.412   5.623
   10POPC   C1E  488   8.991  16.309   5.526
   10POPC   C1F  489   8.948  16.333   5.381
   10POPC   C1G  490   8.981  16.209   5.298
   10POPC   C1H  491   8.934  16.217   5.153
   10POPC   C1I  492   9.029  16.297   5.064
   10POPC   C1J  493   9.038  16.267   4.935
   10POPC   C1K  494   8.954  16.153   4.876
   10POPC   C1L  495   8.915  16.184   4.731
   10POPC   C1M  496   8.828  16.075   4.667
   10POPC   C1N  497   8.905  15.944   4.648
   10POPC   C1O  498   8.831  15.842   4.561
   10POPC   C1P  499   8.704  15.786   4.626
   10POPC   C1Q  500   8.639  15.683   4.533
   10POPC   C1R  501   8.514  15.622   4.596
   10POPC    CE  502   8.921  16.057   6.076
   10POPC    OG  503   8.846  15.990   5.972
   10POPC   C2A  504   8.905  15.893   5.905
   10POPC    OH  505   9.020  15.856   5.928
   10POPC   C2B  506   8.817  15.835   5.801
   10POPC   C2C  507   8.827  15.908   5.667
   10POPC   C2D  508   8.721  15.852   5.573
   10POPC   C2E  509   8.718  15.923   5.438
   10POPC   C2F  510   8.607  15.861   5.352
   10POPC   C2G  511   8.594  15.930   5.216
   10POPC   C2H  512   8.486  15.861   5.134
   10POPC   C2I  513   8.466  15.927   4.998
   10POPC   C2J  514   8.356  15.855   4.921
   10POPC   C2K  515   8.327  15.921   4.787
   10POPC   C2L  516   8.211  15.849   4.717
   10POPC   C2M  517   8.173  15.918   4.586
   10POPC   C2N  518   8.055  15.846   4.521
   10POPC   C2O  519   8.007  15.920   4.397
   10POPC   C2P  520   7.885  15.851   4.336
   11POPC   CN1  521  10.099   0.228   6.177
   11POPC   CN2  522  10.262   0.055   6.155
   11POPC   CN3  523  10.297   0.234   6.307
   11POPC   NTM  524  10.195   0.145   6.251
   11POPC    CA  525  10.128   0.073   6.361
   11POPC    CB  526  10.040  16.932   6.335
   11POPC    OA  527   9.944  16.940   6.229
   11POPC     P  528   9.870  16.803   6.206
   11POPC    OB  529   9.849  16.740   6.338
   11POPC    OC  530   9.758  16.826   6.114
   11POPC    OD  531   9.985  16.724   6.134
   11POPC    CC  532  10.002  16.758   5.996
   11POPC    CD  533  10.130  16.701   5.934
   11POPC    OE  534  10.155  16.748   5.798
   11POPC   C1A  535  10.283  16.755   5.760
   11POPC    OF  536  10.373  16.763   5.844
   11POPC   C1B  537  10.304  16.767   5.614
   11POPC   C1C  538  10.335  16.629   5.555
   11POPC   C1D  539  10.395  16.638   5.415
   11POPC   C1E  540  10.423  16.497   5.362
   11POPC   C1F  541  10.499  16.495   5.229
   11POPC   C1G  542  10.421  16.560   5.114
   11POPC   C1H  543  10.489  16.536   4.979
   11POPC   C1I  544  10.472  16.391   4.931
   11POPC   C1J  545  10.492  16.355   4.805
   11POPC   C1K  546  10.536  16.455   4.698
   11POPC   C1L  547  10.421  16.497   4.605
   11POPC   C1M  548  10.471  16.586   4.492
   11POPC   C1N  549  10.554  16.507   4.390
   11POPC   C1O  550  10.620  16.597   4.284
   11POPC   C1P  551  10.522  16.670   4.191
   11POPC   C1Q  552  10.449  16.573   4.097
   11POPC   C1R  553  10.360  16.651   4.000
   11POPC    CE  554  10.124  16.548   5.954
   11POPC    OG  555  10.165  16.467   5.842
   11POPC   C2A  556  10.175  16.336   5.859
   11POPC    OH  557  10.179  16.285   5.971
   11POPC   C2B  558  10.201  16.266   5.731
   11POPC   C2C  559  10.143  16.124   5.727
   11POPC   C2D  560   9.991  16.120   5.710
   11POPC   C2E  561   9.948  15.974   5.695
   11POPC   C2F  562   9.812  15.964   5.626
   11POPC   C2G  563   9.790  15.821   5.576
   11POPC   C2H  564   9.678  15.818   5.472
   11POPC   C2I  565   9.676  15.685   5.397
   11POPC   C2J  566   9.580  15.695   5.279
   11POPC   C2K  567   9.590  15.571   5.190
   11POPC   C2L  568   9.500  15.582   5.066
   11POPC   C2M  569   9.552  15.690   4.969
   11POPC   C2N  570   9.460  15.708   4.848
   11POPC   C2O  571   9.325  15.769   4.887
   11POPC   C2P  572   9.235  15.787   4.765
   12POPC   CN1  573   9.576   0.621   6.753
   12POPC   CN2  574   9.704   0.424   6.786
   12POPC   CN3  575   9.474   0.408   6.721
   12POPC   NTM  576   9.599   0.485   6.703
   12POPC    CA  577   9.637   0.491   6.561
   12POPC    CB  578   9.683   0.364   6.485
   12POPC    OA  579   9.593   0.254   6.472
   12POPC     P  580   9.671   0.130   6.411
   12POPC    OB  581   9.797   0.120   6.488
   12POPC    OC  582   9.571   0.024   6.416
   12POPC    OD  583   9.695   0.183   6.265
   12POPC    CC  584   9.604   0.127   6.170
   12POPC    CD  585   9.627   0.177   6.026
   12POPC    OE  586   9.528   0.127   5.932
   12POPC   C1A  587   9.485   0.212   5.838
   12POPC    OF  588   9.492   0.334   5.858
   12POPC   C1B  589   9.408   0.148   5.729
   12POPC   C1C  590   9.489   0.133   5.600
   12POPC   C1D  591   9.521   0.268   5.535
   12POPC   C1E  592   9.586   0.256   5.396
   12POPC   C1F  593   9.725   0.192   5.400
   12POPC   C1G  594   9.801   0.210   5.268
   12POPC   C1H  595   9.734   0.142   5.147
   12POPC   C1I  596   9.820   0.163   5.022
   12POPC   C1J  597   9.767   0.165   4.900
   12POPC   C1K  598   9.616   0.148   4.878
   12POPC   C1L  599   9.568   0.218   4.751
   12POPC   C1M  600   9.612   0.147   4.622
   12POPC   C1N  601   9.560   0.224   4.500
   12POPC   C1O  602   9.592   0.153   4.369
   12POPC   C1P  603   9.542   0.235   4.250
   12POPC   C1Q  604   9.566   0.163   4.117
   12POPC   C1R  605   9.520   0.248   3.999
   12POPC    CE  606   9.773   0.138   5.991
   12POPC    OG  607   9.826   0.195   5.869
   12POPC   C2A  608   9.953   0.163   5.842
   12POPC    OH  609  10.018   0.089   5.916
   12POPC   C2B  610  10.003   0.230   5.720
   12POPC   C2C  611  10.114   0.150   5.650
   12POPC   C2D  612  10.165   0.220   5.525
   12POPC   C2E  613  10.279   0.140   5.463
   12POPC   C2F  614  10.345   0.211   5.344
   12POPC   C2G  615  10.263   0.206   5.215
   12POPC   C2H  616  10.258   0.066   5.153
   12POPC   C2I  617  10.187   0.071   5.018
   12POPC   C2J  618  10.166  16.915   4.960
   12POPC   C2K  619  10.083  16.924   4.832
   12POPC   C2L  620  10.035  16.786   4.787
   12POPC   C2M  621   9.936  16.796   4.671
   12POPC   C2N  622   9.999  16.833   4.536
   12POPC   C2O  623  10.084  16.718   4.481
   12POPC   C2P  624  10.143  16.754   4.344
   13POPC   CN1  625  10.813  16.455   6.486
   13POPC   CN2  626  10.874  16.587   6.295
   13POPC   CN3  627  11.026  16.429   6.383
   13POPC   NTM  628  10.884  16.454   6.358
   13POPC    CA  629  10.835  16.348   6.267
   13POPC    CB  630  10.684  16.328   6.240
   13POPC    OA  631  10.608  16.445   6.207
   13POPC     P  632  10.468  16.409   6.144
   13POPC    OB  633  10.416  16.298   6.226
   13POPC    OC  634  10.400  16.538   6.137
   13POPC    OD  635  10.521  16.360   6.004
   13POPC    CC  636  10.552  16.469   5.917
   13POPC    CD  637  10.645  16.430   5.800
   13POPC    OE  638  10.668  16.538   5.706
   13POPC   C1A  639  10.750  16.639   5.736
   13POPC    OF  640  10.809  16.645   5.844
   13POPC   C1B  641  10.762  16.734   5.623
   13POPC   C1C  642  10.905  16.742   5.569
   13POPC   C1D  643  10.910  16.814   5.435
   13POPC   C1E  644  10.867  16.723   5.319
   13POPC   C1F  645  10.873  16.797   5.186
   13POPC   C1G  646  10.878  16.699   5.069
   13POPC   C1H  647  10.886  16.772   4.935
   13POPC   C1I  648  10.927  16.677   4.822
   13POPC   C1J  649  10.875  16.687   4.700
   13POPC   C1K  650  10.768  16.793   4.668
   13POPC   C1L  651  10.819  16.909   4.582
   13POPC   C1M  652  10.846  16.872   4.437
   13POPC   C1N  653  10.880   0.014   4.357
   13POPC   C1O  654  10.896  16.972   4.207
   13POPC   C1P  655  11.021  16.889   4.174
   13POPC   C1Q  656  11.038  16.870   4.023
   13POPC   C1R  657  11.071   0.017   3.950
   13POPC    CE  658  10.579  16.307   5.735
   13POPC    OG  659  10.658  16.230   5.642
   13POPC   C2A  660  10.603  16.118   5.596
   13POPC    OH  661  10.493  16.079   5.635
   13POPC   C2B  662  10.692  16.043   5.505
   13POPC   C2C  663  10.677  16.077   5.357
   13POPC   C2D  664  10.546  16.026   5.295
   13POPC   C2E  665  10.561  16.023   5.143
   13POPC   C2F  666  10.433  15.977   5.073
   13POPC   C2G  667  10.462  15.950   4.925
   13POPC   C2H  668  10.336  15.926   4.840
   13POPC   C2I  669  10.255  16.055   4.825
   13POPC   C2J  670  10.153  16.045   4.712
   13POPC   C2K  671  10.084  16.181   4.694
   13POPC   C2L  672  10.005  16.187   4.564
   13POPC   C2M  673   9.941  16.325   4.548
   13POPC   C2N  674   9.877  16.346   4.411
   13POPC   C2O  675   9.982  16.356   4.300
   13POPC   C2P  676   9.917  16.388   4.166
   14POPC   CN1  677  12.410  15.609   6.524
   14POPC   CN2  678  12.362  15.833   6.597
   14POPC   CN3  679  12.380  15.656   6.754
   14POPC   NTM  680  12.435  15.709   6.629
   14POPC    CA  681  12.579  15.735   6.651
   14POPC    CB  682  12.669  15.791   6.538
   14POPC    OA  683  12.678  15.708   6.423
   14POPC     P  684  12.783  15.755   6.316
   14POPC    OB  685  12.893  15.821   6.388
   14POPC    OC  686  12.807  15.640   6.230
   14POPC    OD  687  12.701  15.867   6.244
   14POPC    CC  688  12.609  15.809   6.151
   14POPC    CD  689  12.531  15.910   6.065
   14POPC    OE  690  12.425  15.848   5.988
   14POPC   C1A  691  12.313  15.916   5.968
   14POPC    OF  692  12.284  16.011   6.042
   14POPC   C1B  693  12.228  15.860   5.861
   14POPC   C1C  694  12.267  15.921   5.726
   14POPC   C1D  695  12.196  15.852   5.610
   14POPC   C1E  696  12.242  15.911   5.476
   14POPC   C1F  697  12.180  15.834   5.360
   14POPC   C1G  698  12.223  15.889   5.225
   14POPC   C1H  699  12.164  15.802   5.113
   14POPC   C1I  700  12.198  15.856   4.974
   14POPC   C1J  701  12.117  15.827   4.873
   14POPC   C1K  702  11.993  15.741   4.899
   14POPC   C1L  703  11.959  15.652   4.779
   14POPC   C1M  704  11.840  15.562   4.811
   14POPC   C1N  705  11.815  15.461   4.699
   14POPC   C1O  706  11.699  15.369   4.736
   14POPC   C1P  707  11.672  15.266   4.625
   14POPC   C1Q  708  11.558  15.172   4.665
   14POPC   C1R  709  11.532  15.069   4.555
   14POPC    CE  710  12.635  15.984   5.978
   14POPC    OG  711  12.723  15.898   5.902
   14POPC   C2A  712  12.789  15.954   5.801
   14POPC    OH  713  12.762  16.067   5.762
   14POPC   C2B  714  12.877  15.857   5.731
   14POPC   C2C  715  13.010  15.922   5.688
   14POPC   C2D  716  13.090  15.836   5.590
   14POPC   C2E  717  13.020  15.827   5.454
   14POPC   C2F  718  13.110  15.763   5.348
   14POPC   C2G  719  13.039  15.761   5.212
   14POPC   C2H  720  13.135  15.720   5.100
   14POPC   C2I  721  13.063  15.719   4.965
   14POPC   C2J  722  13.162  15.692   4.852
   14POPC   C2K  723  13.092  15.692   4.715
   14POPC   C2L  724  13.191  15.679   4.599
   14POPC   C2M  725  13.262  15.543   4.596
   14POPC   C2N  726  13.369  15.537   4.486
   14POPC   C2O  727  13.310  15.544   4.345
   14POPC   C2P  728  13.421  15.548   4.240
   15POPC   CN1  729  13.488  16.500   6.480
   15POPC   CN2  730  13.309  16.553   6.631
   15POPC   CN3  731  13.394  16.716   6.480
   15POPC   NTM  732  13.361  16.574   6.495
   15POPC    CA  733  13.261  16.536   6.392
   15POPC    CB  734  13.204  16.392   6.384
   15POPC    OA  735  13.303  16.291   6.366
   15POPC     P  736  13.272  16.156   6.440
   15POPC    OB  737  13.396  16.078   6.450
   15POPC    OC  738  13.193  16.189   6.560
   15POPC    OD  739  13.168  16.089   6.345
   15POPC    CC  740  13.227  16.026   6.231
   15POPC    CD  741  13.123  15.941   6.155
   15POPC    OE  742  13.174  15.845   6.059
   15POPC   C1A  743  13.230  15.731   6.099
   15POPC    OF  744  13.256  15.711   6.218
   15POPC   C1B  745  13.256  15.637   5.987
   15POPC   C1C  746  13.385  15.558   6.006
   15POPC   C1D  747  13.403  15.449   5.900
   15POPC   C1E  748  13.541  15.385   5.913
   15POPC   C1F  749  13.566  15.268   5.817
   15POPC   C1G  750  13.552  15.309   5.670
   15POPC   C1H  751  13.609  15.206   5.572
   15POPC   C1I  752  13.540  15.069   5.575
   15POPC   C1J  753  13.532  14.998   5.463
   15POPC   C1K  754  13.586  15.056   5.332
   15POPC   C1L  755  13.527  14.983   5.211
   15POPC   C1M  756  13.573  15.047   5.080
   15POPC   C1N  757  13.524  14.965   4.961
   15POPC   C1O  758  13.571  15.023   4.827
   15POPC   C1P  759  13.496  15.151   4.789
   15POPC   C1Q  760  13.557  15.219   4.665
   15POPC   C1R  761  13.548  15.133   4.539
   15POPC    CE  762  13.015  16.038   6.105
   15POPC    OG  763  13.059  16.149   6.025
   15POPC   C2A  764  12.966  16.238   5.989
   15POPC    OH  765  12.849  16.228   6.027
   15POPC   C2B  766  13.018  16.347   5.904
   15POPC   C2C  767  13.013  16.313   5.754
   15POPC   C2D  768  13.054  16.436   5.673
   15POPC   C2E  769  13.063  16.409   5.523
   15POPC   C2F  770  13.101  16.539   5.451
   15POPC   C2G  771  13.147  16.516   5.308
   15POPC   C2H  772  13.195  16.649   5.249
   15POPC   C2I  773  13.282  16.632   5.124
   15POPC   C2J  774  13.206  16.589   4.998
   15POPC   C2K  775  13.304  16.586   4.881
   15POPC   C2L  776  13.237  16.557   4.747
   15POPC   C2M  777  13.341  16.562   4.634
   15POPC   C2N  778  13.280  16.536   4.496
   15POPC   C2O  779  13.189  16.649   4.446
   15POPC   C2P  780  13.266  16.778   4.416
   16POPC   CN1  781  14.498  16.386   6.696
   16POPC   CN2  782  14.457  16.619   6.710
   16POPC   CN3  783  14.540  16.528   6.507
   16POPC   NTM  784  14.451  16.503   6.621
   16POPC    CA  785  14.310  16.488   6.578
   16POPC    CB  786  14.263  16.369   6.492
   16POPC    OA  787  14.323  16.359   6.363
   16POPC     P  788  14.249  16.254   6.272
   16POPC    OB  789  14.323  16.231   6.148
   16POPC    OC  790  14.202  16.143   6.357
   16POPC    OD  791  14.119  16.335   6.240
   16POPC    CC  792  14.036  16.255   6.156
   16POPC    CD  793  13.885  16.283   6.172
   16POPC    OE  794  13.796  16.183   6.114
   16POPC   C1A  795  13.783  16.061   6.165
   16POPC    OF  796  13.849  16.022   6.262
   16POPC   C1B  797  13.682  15.980   6.093
   16POPC   C1C  798  13.743  15.911   5.972
   16POPC   C1D  799  13.634  15.854   5.882
   16POPC   C1E  800  13.696  15.798   5.754
   16POPC   C1F  801  13.588  15.764   5.651
   16POPC   C1G  802  13.654  15.726   5.519
   16POPC   C1H  803  13.555  15.711   5.403
   16POPC   C1I  804  13.472  15.583   5.410
   16POPC   C1J  805  13.448  15.520   5.295
   16POPC   C1K  806  13.511  15.579   5.169
   16POPC   C1L  807  13.528  15.475   5.058
   16POPC   C1M  808  13.615  15.529   4.943
   16POPC   C1N  809  13.556  15.653   4.876
   16POPC   C1O  810  13.649  15.705   4.767
   16POPC   C1P  811  13.595  15.834   4.706
   16POPC   C1Q  812  13.686  15.890   4.597
   16POPC   C1R  813  13.688  15.802   4.471
   16POPC    CE  814  13.860  16.426   6.120
   16POPC    OG  815  13.912  16.456   5.990
   16POPC   C2A  816  13.855  16.558   5.925
   16POPC    OH  817  13.750  16.609   5.964
   16POPC   C2B  818  13.924  16.591   5.798
   16POPC   C2C  819  13.885  16.495   5.685
   16POPC   C2D  820  13.966  16.527   5.559
   16POPC   C2E  821  13.935  16.429   5.446
   16POPC   C2F  822  14.018  16.464   5.323
   16POPC   C2G  823  13.995  16.369   5.205
   16POPC   C2H  824  13.853  16.377   5.148
   16POPC   C2I  825  13.845  16.301   5.015
   16POPC   C2J  826  13.704  16.309   4.956
   16POPC   C2K  827  13.700  16.256   4.812
   16POPC   C2L  828  13.776  16.348   4.716
   16POPC   C2M  829  13.781  16.294   4.573
   16POPC   C2N  830  13.643  16.293   4.506
   16POPC   C2O  831  13.653  16.236   4.364
   16POPC   C2P  832  13.516  16.233   4.296
   17POPC   CN1  833  15.407  16.836   6.856
   17POPC   CN2  834  15.245  16.664   6.859
   17POPC   CN3  835  15.179  16.891   6.893
   17POPC   NTM  836  15.269  16.802   6.818
   17POPC    CA  837  15.259  16.822   6.672
   17POPC    CB  838  15.126  16.806   6.594
   17POPC    OA  839  15.050  16.685   6.610
   17POPC     P  840  15.091  16.573   6.507
   17POPC    OB  841  15.236  16.550   6.517
   17POPC    OC  842  15.003  16.464   6.552
   17POPC    OD  843  15.042  16.629   6.369
   17POPC    CC  844  14.909  16.587   6.334
   17POPC    CD  845  14.857  16.620   6.193
   17POPC    OE  846  14.735  16.546   6.160
   17POPC   C1A  847  14.618  16.609   6.169
   17POPC    OF  848  14.608  16.713   6.233
   17POPC   C1B  849  14.505  16.530   6.113
   17POPC   C1C  850  14.393  16.620   6.061
   17POPC   C1D  851  14.279  16.542   5.994
   17POPC   C1E  852  14.317  16.482   5.858
   17POPC   C1F  853  14.348  16.591   5.754
   17POPC   C1G  854  14.379  16.534   5.615
   17POPC   C1H  855  14.504  16.445   5.612
   17POPC   C1I  856  14.536  16.404   5.469
   17POPC   C1J  857  14.548  16.276   5.433
   17POPC   C1K  858  14.530  16.165   5.536
   17POPC   C1L  859  14.602  16.038   5.492
   17POPC   C1M  860  14.592  15.929   5.598
   17POPC   C1N  861  14.662  15.801   5.551
   17POPC   C1O  862  14.664  15.691   5.658
   17POPC   C1P  863  14.524  15.640   5.693
   17POPC   C1Q  864  14.529  15.524   5.793
   17POPC   C1R  865  14.582  15.565   5.931
   17POPC    CE  866  14.973  16.597   6.095
   17POPC    OG  867  14.939  16.607   5.956
   17POPC   C2A  868  15.037  16.638   5.872
   17POPC    OH  869  15.154  16.645   5.908
   17POPC   C2B  870  14.991  16.643   5.731
   17POPC   C2C  871  15.031  16.516   5.656
   17POPC   C2D  872  14.962  16.506   5.520
   17POPC   C2E  873  15.029  16.396   5.438
   17POPC   C2F  874  14.956  16.368   5.307
   17POPC   C2G  875  15.038  16.268   5.224
   17POPC   C2H  876  14.960  16.210   5.106
   17POPC   C2I  877  14.847  16.119   5.155
   17POPC   C2J  878  14.779  16.047   5.038
   17POPC   C2K  879  14.667  15.958   5.092
   17POPC   C2L  880  14.601  15.876   4.981
   17POPC   C2M  881  14.478  15.801   5.032
   17POPC   C2N  882  14.512  15.693   5.136
   17POPC   C2O  883  14.387  15.622   5.188
   17POPC   C2P  884  14.318  15.540   5.079
   18POPC   CN1  885  15.842  16.471   6.391
   18POPC   CN2  886  16.049  16.586   6.400
   18POPC   CN3  887  15.871  16.670   6.264
   18POPC   NTM  888  15.903  16.604   6.391
   18POPC    CA  889  15.850  16.679   6.507
   18POPC    CB  890  15.879  16.830   6.521
   18POPC    OA  891  16.017  16.867   6.531
   18POPC     P  892  16.044   0.031   6.480
   18POPC    OB  893  15.922   0.112   6.498
   18POPC    OC  894  16.167   0.067   6.549
   18POPC    OD  895  16.067  16.983   6.329
   18POPC    CC  896  16.203  16.947   6.304
   18POPC    CD  897  16.236  16.925   6.156
   18POPC    OE  898  16.370  16.871   6.134
   18POPC   C1A  899  16.394  16.742   6.155
   18POPC    OF  900  16.313  16.670   6.216
   18POPC   C1B  901  16.529  16.699   6.110
   18POPC   C1C  902  16.527  16.629   5.974
   18POPC   C1D  903  16.482  16.718   5.859
   18POPC   C1E  904  16.494  16.643   5.726
   18POPC   C1F  905  16.441  16.726   5.609
   18POPC   C1G  906  16.463  16.648   5.479
   18POPC   C1H  907  16.404  16.719   5.358
   18POPC   C1I  908  16.443  16.643   5.231
   18POPC   C1J  909  16.361  16.637   5.126
   18POPC   C1K  910  16.223  16.704   5.131
   18POPC   C1L  911  16.182  16.763   4.996
   18POPC   C1M  912  16.163  16.658   4.886
   18POPC   C1N  913  16.126  16.726   4.754
   18POPC   C1O  914  16.106  16.622   4.644
   18POPC   C1P  915  16.067  16.686   4.510
   18POPC   C1Q  916  16.178  16.773   4.452
   18POPC   C1R  917  16.134  16.836   4.320
   18POPC    CE  918  16.210   0.076   6.085
   18POPC    OG  919  16.233   0.074   5.943
   18POPC   C2A  920  16.231   0.190   5.879
   18POPC    OH  921  16.202   0.296   5.935
   18POPC   C2B  922  16.271   0.178   5.736
   18POPC   C2C  923  16.152   0.161   5.642
   18POPC   C2D  924  16.202   0.162   5.497
   18POPC   C2E  925  16.087   0.143   5.398
   18POPC   C2F  926  16.136   0.159   5.254
   18POPC   C2G  927  16.021   0.133   5.156
   18POPC   C2H  928  16.062   0.158   5.010
   18POPC   C2I  929  15.944   0.122   4.920
   18POPC   C2J  930  15.971   0.148   4.771
   18POPC   C2K  931  15.847   0.108   4.691
   18POPC   C2L  932  15.860   0.141   4.543
   18POPC   C2M  933  15.730   0.103   4.471
   18POPC   C2N  934  15.727   0.147   4.324
   18POPC   C2O  935  15.826   0.069   4.237
   18POPC   C2P  936  15.818   0.115   4.091
   19POPC   CN1  937   0.144   0.079   6.818
   19POPC   CN2  938  16.907  16.972   6.790
   19POPC   CN3  939   0.042  16.940   6.994
   19POPC   NTM  940   0.016   0.052   6.885
   19POPC    CA  941  16.941   0.175   6.944
   19POPC    CB  942  16.895   0.291   6.853
   19POPC    OA  943   0.015   0.344   6.770
   19POPC     P  944  16.948   0.441   6.658
   19POPC    OB  945  16.831   0.513   6.711
   19POPC    OC  946   0.084   0.511   6.611
   19POPC    OD  947  16.900   0.328   6.559
   19POPC    CC  948   0.026   0.282   6.478
   19POPC    CD  949  16.969   0.166   6.385
   19POPC    OE  950   0.097   0.095   6.324
   19POPC   C1A  951   0.170   0.011   6.396
   19POPC    OF  952   0.138  16.965   6.512
   19POPC   C1B  953   0.278  16.928   6.320
   19POPC   C1C  954   0.226  16.802   6.251
   19POPC   C1D  955   0.341  16.721   6.190
   19POPC   C1E  956   0.288  16.609   6.100
   19POPC   C1F  957   0.232  16.666   5.969
   19POPC   C1G  958   0.162  16.557   5.888
   19POPC   C1H  959   0.115  16.612   5.754
   19POPC   C1I  960   0.034  16.505   5.681
   19POPC   C1J  961  16.929  16.537   5.587
   19POPC   C1K  962  16.911  16.683   5.543
   19POPC   C1L  963  16.835  16.693   5.411
   19POPC   C1M  964  16.912  16.637   5.291
   19POPC   C1N  965  16.816  16.622   5.172
   19POPC   C1O  966  16.888  16.574   5.046
   19POPC   C1P  967  16.789  16.535   4.936
   19POPC   C1Q  968  16.702  16.651   4.889
   19POPC   C1R  969  16.603  16.606   4.782
   19POPC    CE  970  16.862   0.224   6.291
   19POPC    OG  971  16.799   0.132   6.199
   19POPC   C2A  972  16.692   0.179   6.136
   19POPC    OH  973  16.622   0.267   6.189
   19POPC   C2B  974  16.651   0.099   6.019
   19POPC   C2C  975  16.688   0.173   5.890
   19POPC   C2D  976  16.655   0.088   5.766
   19POPC   C2E  977  16.691   0.164   5.638
   19POPC   C2F  978  16.657   0.082   5.514
   19POPC   C2G  979  16.692   0.160   5.387
   19POPC   C2H  980  16.658   0.080   5.262
   19POPC   C2I  981  16.692   0.161   5.136
   19POPC   C2J  982  16.659   0.087   5.006
   19POPC   C2K  983  16.508   0.064   4.989
   19POPC   C2L  984  16.476  16.979   4.856
   19POPC   C2M  985  16.494   0.088   4.736
   19POPC   C2N  986  16.473   0.012   4.605
   19POPC   C2O  987  16.481   0.107   4.486
   19POPC   C2P  988  16.477   0.031   4.353
   20POPC   CN1  989   0.271   0.756   6.813
   20POPC   CN2  990   0.039   0.803   6.835
   20POPC   CN3  991   0.191   0.983   6.799
   20POPC   NTM  992   0.162   0.843   6.766
   20POPC    CA  993   0.141   0.822   6.620
   20POPC    CB  994   0.240   0.883   6.518
   20POPC    OA  995   0.379   0.868   6.547
   20POPC     P  996   0.472   0.937   6.442
   20POPC    OB  997   0.409   1.067   6.413
   20POPC    OC  998   0.601   0.928   6.514
   20POPC    OD  999   0.452   0.831   6.329
   20POPC    CC 1000   0.539   0.720   6.346
   20POPC    CD 1001   0.515   0.603   6.248
   20POPC    OE 1002   0.557   0.630   6.112
   20POPC   C1A 1003   0.654   0.554   6.061
   20POPC    OF 1004   0.742   0.512   6.136
   20POPC   C1B 1005   0.663   0.565   5.913
   20POPC   C1C 1006   0.546   0.494   5.845
   20POPC   C1D 1007   0.535   0.529   5.696
   20POPC   C1E 1008   0.404   0.477   5.635
   20POPC   C1F 1009   0.282   0.550   5.692
   20POPC   C1G 1010   0.149   0.494   5.641
   20POPC   C1H 1011   0.126   0.526   5.493
   20POPC   C1I 1012  16.978   0.467   5.441
   20POPC   C1J 1013  16.965   0.446   5.310
   20POPC   C1K 1014   0.098   0.483   5.218
   20POPC   C1L 1015   0.101   0.404   5.087
   20POPC   C1M 1016  16.973   0.444   4.991
   20POPC   C1N 1017   0.002   0.367   4.860
   20POPC   C1O 1018  16.875   0.408   4.763
   20POPC   C1P 1019  16.887   0.333   4.631
   20POPC   C1Q 1020  16.777   0.378   4.534
   20POPC   C1R 1021  16.789   0.303   4.401
   20POPC    CE 1022   0.366   0.565   6.263
   20POPC    OG 1023   0.333   0.437   6.206
   20POPC   C2A 1024   0.265   0.436   6.092
   20POPC    OH 1025   0.239   0.540   6.030
   20POPC   C2B 1026   0.244   0.298   6.043
   20POPC   C2C 1027   0.110   0.276   5.974
   20POPC   C2D 1028   0.085   0.127   5.948
   20POPC   C2E 1029   0.165   0.067   5.833
   20POPC   C2F 1030   0.109   0.109   5.697
   20POPC   C2G 1031   0.179   0.035   5.582
   20POPC   C2H 1032   0.116   0.072   5.448
   20POPC   C2I 1033   0.177  16.974   5.334
   20POPC   C2J 1034   0.108   0.023   5.202
   20POPC   C2K 1035   0.163  16.920   5.088
   20POPC   C2L 1036   0.097  16.957   4.955
   20POPC   C2M 1037   0.157  16.873   4.841
   20POPC   C2N 1038   0.103  16.914   4.703
   20POPC   C2O 1039  16.937  16.883   4.687
   20POPC   C2P 1040  16.888  16.919   4.546
   21POPC   CN1 1041   1.400  16.562   6.687
   21POPC   CN2 1042   1.404  16.772   6.795
   21POPC   CN3 1043   1.330  16.759   6.571
   21POPC   NTM 1044   1.328  16.690   6.701
   21POPC    CA 1045   1.190  16.672   6.753
   21POPC    CB 1046   1.089  16.583   6.677
   21POPC    OA 1047   1.059  16.621   6.542
   21POPC     P 1048   1.017  16.502   6.450
   21POPC    OB 1049   0.957  16.396   6.534
   21POPC    OC 1050   0.949  16.547   6.328
   21POPC    OD 1051   1.162  16.451   6.418
   21POPC    CC 1052   1.218  16.517   6.304
   21POPC    CD 1053   1.359  16.465   6.266
   21POPC    OE 1054   1.422  16.533   6.155
   21POPC   C1A 1055   1.488  16.647   6.169
   21POPC    OF 1056   1.495  16.706   6.278
   21POPC   C1B 1057   1.552  16.685   6.041
   21POPC   C1C 1058   1.580  16.834   6.027
   21POPC   C1D 1059   1.636  16.868   5.889
   21POPC   C1E 1060   1.772  16.803   5.859
   21POPC   C1F 1061   1.829  16.848   5.724
   21POPC   C1G 1062   1.736  16.813   5.608
   21POPC   C1H 1063   1.794  16.859   5.474
   21POPC   C1I 1064   1.688  16.842   5.365
   21POPC   C1J 1065   1.720  16.811   5.240
   21POPC   C1K 1066   1.864  16.789   5.195
   21POPC   C1L 1067   1.873  16.812   5.044
   21POPC   C1M 1068   1.997  16.748   4.982
   21POPC   C1N 1069   1.985  16.756   4.830
   21POPC   C1O 1070   2.092  16.674   4.759
   21POPC   C1P 1071   2.069  16.677   4.608
   21POPC   C1Q 1072   2.172  16.592   4.534
   21POPC   C1R 1073   2.146  16.595   4.384
   21POPC    CE 1074   1.345  16.313   6.244
   21POPC    OG 1075   1.241  16.273   6.154
   21POPC   C2A 1076   1.226  16.143   6.133
   21POPC    OH 1077   1.300  16.061   6.186
   21POPC   C2B 1078   1.115  16.111   6.041
   21POPC   C2C 1079   1.165  16.079   5.900
   21POPC   C2D 1080   1.053  16.017   5.817
   21POPC   C2E 1081   1.102  15.972   5.679
   21POPC   C2F 1082   1.127  16.089   5.584
   21POPC   C2G 1083   1.177  16.037   5.449
   21POPC   C2H 1084   1.187  16.147   5.343
   21POPC   C2I 1085   1.049  16.200   5.302
   21POPC   C2J 1086   1.057  16.301   5.187
   21POPC   C2K 1087   1.101  16.236   5.055
   21POPC   C2L 1088   1.107  16.338   4.942
   21POPC   C2M 1089   1.155  16.272   4.812
   21POPC   C2N 1090   1.161  16.372   4.696
   21POPC   C2O 1091   1.023  16.418   4.647
   21POPC   C2P 1092   0.945  16.305   4.579
   22POPC   CN1 1093   2.700   0.520   6.408
   22POPC   CN2 1094   2.618   0.491   6.187
   22POPC   CN3 1095   2.788   0.346   6.268
   22POPC   NTM 1096   2.667   0.420   6.306
   22POPC    CA 1097   2.559   0.330   6.352
   22POPC    CB 1098   2.571   0.253   6.486
   22POPC    OA 1099   2.691   0.179   6.506
   22POPC     P 1100   2.681   0.080   6.627
   22POPC    OB 1101   2.821   0.048   6.660
   22POPC    OC 1102   2.590   0.137   6.728
   22POPC    OD 1103   2.619  16.939   6.553
   22POPC    CC 1104   2.712  16.883   6.460
   22POPC    CD 1105   2.673  16.749   6.396
   22POPC    OE 1106   2.782  16.697   6.315
   22POPC   C1A 1107   2.797  16.565   6.306
   22POPC    OF 1108   2.778  16.496   6.407
   22POPC   C1B 1109   2.879  16.524   6.190
   22POPC   C1C 1110   2.795  16.519   6.062
   22POPC   C1D 1111   2.882  16.487   5.940
   22POPC   C1E 1112   2.800  16.503   5.812
   22POPC   C1F 1113   2.884  16.472   5.687
   22POPC   C1G 1114   2.801  16.496   5.561
   22POPC   C1H 1115   2.880  16.461   5.435
   22POPC   C1I 1116   2.800  16.496   5.309
   22POPC   C1J 1117   2.809  16.420   5.201
   22POPC   C1K 1118   2.899  16.295   5.203
   22POPC   C1L 1119   2.959  16.260   5.067
   22POPC   C1M 1120   2.854  16.213   4.966
   22POPC   C1N 1121   2.921  16.167   4.836
   22POPC   C1O 1122   2.816  16.121   4.735
   22POPC   C1P 1123   2.878  16.063   4.608
   22POPC   C1Q 1124   2.950  15.930   4.633
   22POPC   C1R 1125   3.010  15.874   4.505
   22POPC    CE 1126   2.541  16.774   6.321
   22POPC    OG 1127   2.497  16.662   6.242
   22POPC   C2A 1128   2.379  16.671   6.181
   22POPC    OH 1129   2.292  16.747   6.223
   22POPC   C2B 1130   2.359  16.562   6.083
   22POPC   C2C 1131   2.398  16.600   5.940
   22POPC   C2D 1132   2.287  16.675   5.867
   22POPC   C2E 1133   2.327  16.699   5.721
   22POPC   C2F 1134   2.213  16.762   5.641
   22POPC   C2G 1135   2.256  16.799   5.499
   22POPC   C2H 1136   2.290  16.678   5.412
   22POPC   C2I 1137   2.334  16.724   5.273
   22POPC   C2J 1138   2.368  16.605   5.183
   22POPC   C2K 1139   2.425  16.653   5.050
   22POPC   C2L 1140   2.459  16.536   4.958
   22POPC   C2M 1141   2.531  16.585   4.832
   22POPC   C2N 1142   2.558  16.468   4.736
   22POPC   C2O 1143   2.641  16.510   4.614
   22POPC   C2P 1144   2.568  16.609   4.523
   23POPC   CN1 1145   3.067   0.370   7.036
   23POPC   CN2 1146   3.046   0.136   7.073
   23POPC   CN3 1147   2.890   0.252   6.934
   23POPC   NTM 1148   3.031   0.243   6.973
   23POPC    CA 1149   3.118   0.223   6.854
   23POPC    CB 1150   3.116   0.092   6.771
   23POPC    OA 1151   3.178  16.961   6.830
   23POPC     P 1152   3.281  16.896   6.729
   23POPC    OB 1153   3.353   0.022   6.664
   23POPC    OC 1154   3.357  16.792   6.799
   23POPC    OD 1155   3.186  16.830   6.623
   23POPC    CC 1156   3.265  16.752   6.534
   23POPC    CD 1157   3.196  16.705   6.405
   23POPC    OE 1158   3.287  16.632   6.319
   23POPC   C1A 1159   3.279  16.500   6.306
   23POPC    OF 1160   3.213  16.430   6.384
   23POPC   C1B 1161   3.364  16.448   6.196
   23POPC   C1C 1162   3.284  16.443   6.066
   23POPC   C1D 1163   3.369  16.393   5.949
   23POPC   C1E 1164   3.285  16.384   5.822
   23POPC   C1F 1165   3.366  16.327   5.706
   23POPC   C1G 1166   3.275  16.303   5.585
   23POPC   C1H 1167   3.353  16.238   5.471
   23POPC   C1I 1168   3.260  16.199   5.356
   23POPC   C1J 1169   3.301  16.109   5.267
   23POPC   C1K 1170   3.441  16.048   5.281
   23POPC   C1L 1171   3.454  15.908   5.220
   23POPC   C1M 1172   3.369  15.801   5.289
   23POPC   C1N 1173   3.410  15.777   5.434
   23POPC   C1O 1174   3.322  15.668   5.496
   23POPC   C1P 1175   3.362  15.642   5.641
   23POPC   C1Q 1176   3.279  15.528   5.700
   23POPC   C1R 1177   3.317  15.504   5.847
   23POPC    CE 1178   3.137  16.832   6.340
   23POPC    OG 1179   3.081  16.815   6.209
   23POPC   C2A 1180   3.019  16.920   6.155
   23POPC    OH 1181   2.992   0.037   6.222
   23POPC   C2B 1182   2.983  16.898   6.013
   23POPC   C2C 1183   3.092  16.953   5.920
   23POPC   C2D 1184   3.061  16.922   5.773
   23POPC   C2E 1185   3.161   0.011   5.682
   23POPC   C2F 1186   3.140  16.966   5.533
   23POPC   C2G 1187   3.178  16.822   5.496
   23POPC   C2H 1188   3.178  16.802   5.345
   23POPC   C2I 1189   3.229  16.662   5.310
   23POPC   C2J 1190   3.240  16.641   5.159
   23POPC   C2K 1191   3.298  16.502   5.131
   23POPC   C2L 1192   3.309  16.472   4.981
   23POPC   C2M 1193   3.358  16.328   4.960
   23POPC   C2N 1194   3.362  16.287   4.812
   23POPC   C2O 1195   3.472  16.361   4.735
   23POPC   C2P 1196   3.476  16.313   4.590
   24POPC   CN1 1197   4.607  16.518   6.582
   24POPC   CN2 1198   4.698  16.329   6.473
   24POPC   CN3 1199   4.663  16.324   6.708
   24POPC   NTM 1200   4.607  16.371   6.580
   24POPC    CA 1201   4.474  16.312   6.554
   24POPC    CB 1202   4.355  16.334   6.651
   24POPC    OA 1203   4.319  16.470   6.672
   24POPC     P 1204   4.214  16.493   6.787
   24POPC    OB 1205   4.192  16.367   6.861
   24POPC    OC 1206   4.267  16.611   6.856
   24POPC    OD 1207   4.092  16.533   6.696
   24POPC    CC 1208   4.099  16.672   6.661
   24POPC    CD 1209   4.017  16.719   6.539
   24POPC    OE 1210   3.873  16.732   6.560
   24POPC   C1A 1211   3.822  16.854   6.582
   24POPC    OF 1212   3.894  16.951   6.608
   24POPC   C1B 1213   3.674  16.855   6.585
   24POPC   C1C 1214   3.613  16.918   6.459
   24POPC   C1D 1215   3.630  16.832   6.333
   24POPC   C1E 1216   3.570  16.904   6.212
   24POPC   C1F 1217   3.593  16.824   6.084
   24POPC   C1G 1218   3.551  16.904   5.961
   24POPC   C1H 1219   3.594  16.832   5.833
   24POPC   C1I 1220   3.573  16.919   5.709
   24POPC   C1J 1221   3.564  16.862   5.590
   24POPC   C1K 1222   3.573  16.710   5.578
   24POPC   C1L 1223   3.632  16.666   5.443
   24POPC   C1M 1224   3.630  16.514   5.433
   24POPC   C1N 1225   3.679  16.461   5.298
   24POPC   C1O 1226   3.831  16.473   5.283
   24POPC   C1P 1227   3.875  16.414   5.148
   24POPC   C1Q 1228   4.028  16.417   5.135
   24POPC   C1R 1229   4.071  16.361   4.999
   24POPC    CE 1230   4.059  16.629   6.422
   24POPC    OG 1231   4.198  16.638   6.387
   24POPC   C2A 1232   4.244  16.540   6.309
   24POPC    OH 1233   4.182  16.434   6.300
   24POPC   C2B 1234   4.385  16.558   6.268
   24POPC   C2C 1235   4.403  16.639   6.139
   24POPC   C2D 1236   4.552  16.650   6.108
   24POPC   C2E 1237   4.579  16.725   5.977
   24POPC   C2F 1238   4.730  16.729   5.949
   24POPC   C2G 1239   4.764  16.798   5.817
   24POPC   C2H 1240   4.736  16.949   5.820
   24POPC   C2I 1241   4.786   0.033   5.692
   24POPC   C2J 1242   4.766   0.184   5.700
   24POPC   C2K 1243   4.833   0.258   5.584
   24POPC   C2L 1244   4.761   0.238   5.450
   24POPC   C2M 1245   4.829   0.321   5.341
   24POPC   C2N 1246   4.751   0.315   5.210
   24POPC   C2O 1247   4.818   0.401   5.102
   24POPC   C2P 1248   4.735   0.403   4.974
   25POPC   CN1 1249   4.773   0.410   6.557
   25POPC   CN2 1250   4.967   0.467   6.683
   25POPC   CN3 1251   4.898   0.242   6.672
   25POPC   NTM 1252   4.909   0.366   6.594
   25POPC    CA 1253   4.996   0.351   6.475
   25POPC    CB 1254   4.956   0.256   6.360
   25POPC    OA 1255   4.937   0.120   6.398
   25POPC     P 1256   4.846   0.043   6.296
   25POPC    OB 1257   4.891   0.072   6.160
   25POPC    OC 1258   4.827  16.890   6.348
   25POPC    OD 1259   4.712   0.118   6.324
   25POPC    CC 1260   4.609   0.065   6.240
   25POPC    CD 1261   4.471   0.118   6.278
   25POPC    OE 1262   4.361   0.044   6.219
   25POPC   C1A 1263   4.249   0.029   6.288
   25POPC    OF 1264   4.253   0.034   6.412
   25POPC   C1B 1265   4.138  16.955   6.208
   25POPC   C1C 1266   4.073   0.079   6.120
   25POPC   C1D 1267   3.964   0.019   6.031
   25POPC   C1E 1268   3.908   0.123   5.934
   25POPC   C1F 1269   4.012   0.162   5.827
   25POPC   C1G 1270   3.965   0.276   5.737
   25POPC   C1H 1271   3.845   0.237   5.650
   25POPC   C1I 1272   3.804   0.354   5.560
   25POPC   C1J 1273   3.751   0.332   5.440
   25POPC   C1K 1274   3.730   0.190   5.389
   25POPC   C1L 1275   3.823   0.159   5.271
   25POPC   C1M 1276   3.800   0.018   5.218
   25POPC   C1N 1277   3.897  16.971   5.104
   25POPC   C1O 1278   3.877  16.830   5.048
   25POPC   C1P 1279   3.980  16.797   4.940
   25POPC   C1Q 1280   4.122  16.788   4.997
   25POPC   C1R 1281   4.223  16.751   4.888
   25POPC    CE 1282   4.474   0.270   6.250
   25POPC    OG 1283   4.505   0.308   6.114
   25POPC   C2A 1284   4.524   0.437   6.089
   25POPC    OH 1285   4.527   0.520   6.181
   25POPC   C2B 1286   4.550   0.467   5.946
   25POPC   C2C 1287   4.419   0.488   5.871
   25POPC   C2D 1288   4.440   0.547   5.731
   25POPC   C2E 1289   4.303   0.570   5.665
   25POPC   C2F 1290   4.307   0.663   5.543
   25POPC   C2G 1291   4.366   0.598   5.418
   25POPC   C2H 1292   4.347   0.691   5.298
   25POPC   C2I 1293   4.391   0.626   5.168
   25POPC   C2J 1294   4.364   0.718   5.049
   25POPC   C2K 1295   4.403   0.650   4.918
   25POPC   C2L 1296   4.381   0.742   4.798
   25POPC   C2M 1297   4.416   0.671   4.668
   25POPC   C2N 1298   4.392   0.760   4.546
   25POPC   C2O 1299   4.421   0.682   4.417
   25POPC   C2P 1300   4.393   0.768   4.293
   26POPC   CN1 1301   5.905   0.656   6.164
   26POPC   CN2 1302   5.788   0.798   6.317
   26POPC   CN3 1303   5.694   0.747   6.107
   26POPC   NTM 1304   5.772   0.691   6.217
   26POPC    CA 1305   5.701   0.572   6.271
   26POPC    CB 1306   5.753   0.494   6.395
   26POPC    OA 1307   5.886   0.443   6.387
   26POPC     P 1308   5.920   0.340   6.501
   26POPC    OB 1309   6.065   0.319   6.517
   26POPC    OC 1310   5.834   0.363   6.618
   26POPC    OD 1311   5.862   0.212   6.431
   26POPC    CC 1312   5.944   0.174   6.320
   26POPC    CD 1313   5.884   0.066   6.229
   26POPC    OE 1314   5.976   0.026   6.123
   26POPC   C1A 1315   5.950  16.897   6.057
   26POPC    OF 1316   5.897  16.803   6.117
   26POPC   C1B 1317   6.009  16.892   5.921
   26POPC   C1C 1318   5.914  16.959   5.821
   26POPC   C1D 1319   5.938  16.922   5.674
   26POPC   C1E 1320   6.076  16.962   5.621
   26POPC   C1F 1321   6.084  16.943   5.469
   26POPC   C1G 1322   6.003   0.066   5.394
   26POPC   C1H 1323   6.000   0.042   5.243
   26POPC   C1I 1324   5.933   0.160   5.173
   26POPC   C1J 1325   5.942   0.179   5.042
   26POPC   C1K 1326   6.014   0.078   4.952
   26POPC   C1L 1327   6.117   0.145   4.859
   26POPC   C1M 1328   6.058   0.236   4.752
   26POPC   C1N 1329   6.171   0.302   4.674
   26POPC   C1O 1330   6.119   0.398   4.567
   26POPC   C1P 1331   6.236   0.471   4.500
   26POPC   C1Q 1332   6.191   0.573   4.395
   26POPC   C1R 1333   6.127   0.507   4.273
   26POPC    CE 1334   5.750   0.124   6.178
   26POPC    OG 1335   5.761   0.240   6.092
   26POPC   C2A 1336   5.667   0.250   5.998
   26POPC    OH 1337   5.599   0.152   5.967
   26POPC   C2B 1338   5.675   0.374   5.919
   26POPC   C2C 1339   5.754   0.351   5.789
   26POPC   C2D 1340   5.739   0.469   5.692
   26POPC   C2E 1341   5.813   0.441   5.562
   26POPC   C2F 1342   5.784   0.548   5.457
   26POPC   C2G 1343   5.861   0.520   5.328
   26POPC   C2H 1344   5.824   0.619   5.217
   26POPC   C2I 1345   5.902   0.587   5.089
   26POPC   C2J 1346   5.859   0.677   4.973
   26POPC   C2K 1347   5.937   0.639   4.847
   26POPC   C2L 1348   5.895   0.719   4.722
   26POPC   C2M 1349   5.751   0.688   4.679
   26POPC   C2N 1350   5.715   0.751   4.544
   26POPC   C2O 1351   5.787   0.681   4.428
   26POPC   C2P 1352   5.747   0.742   4.294
   27POPC   CN1 1353   6.379   0.377   6.942
   27POPC   CN2 1354   6.422   0.565   6.804
   27POPC   CN3 1355   6.355   0.358   6.707
   27POPC   NTM 1356   6.335   0.448   6.821
   27POPC    CA 1357   6.192   0.485   6.839
   27POPC    CB 1358   6.110   0.558   6.729
   27POPC    OA 1359   6.166   0.680   6.682
   27POPC     P 1360   6.069   0.760   6.588
   27POPC    OB 1361   5.931   0.748   6.637
   27POPC    OC 1362   6.132   0.892   6.575
   27POPC    OD 1363   6.084   0.681   6.453
   27POPC    CC 1364   6.198   0.717   6.374
   27POPC    CD 1365   6.320   0.626   6.391
   27POPC    OE 1366   6.441   0.680   6.333
   27POPC   C1A 1367   6.557   0.657   6.394
   27POPC    OF 1368   6.562   0.597   6.502
   27POPC   C1B 1369   6.675   0.707   6.319
   27POPC   C1C 1370   6.750   0.594   6.249
   27POPC   C1D 1371   6.680   0.537   6.124
   27POPC   C1E 1372   6.677   0.640   6.011
   27POPC   C1F 1373   6.642   0.577   5.876
   27POPC   C1G 1374   6.659   0.680   5.764
   27POPC   C1H 1375   6.647   0.621   5.623
   27POPC   C1I 1376   6.757   0.518   5.594
   27POPC   C1J 1377   6.811   0.502   5.473
   27POPC   C1K 1378   6.773   0.584   5.350
   27POPC   C1L 1379   6.889   0.677   5.311
   27POPC   C1M 1380   6.870   0.739   5.172
   27POPC   C1N 1381   6.896   0.642   5.057
   27POPC   C1O 1382   7.043   0.597   5.052
   27POPC   C1P 1383   7.073   0.507   4.932
   27POPC   C1Q 1384   7.073   0.583   4.800
   27POPC   C1R 1385   7.112   0.492   4.684
   27POPC    CE 1386   6.278   0.484   6.346
   27POPC    OG 1387   6.233   0.466   6.211
   27POPC   C2A 1388   6.225   0.340   6.169
   27POPC    OH 1389   6.263   0.246   6.239
   27POPC   C2B 1390   6.177   0.326   6.030
   27POPC   C2C 1391   6.293   0.319   5.931
   27POPC   C2D 1392   6.242   0.310   5.788
   27POPC   C2E 1393   6.357   0.322   5.687
   27POPC   C2F 1394   6.304   0.319   5.544
   27POPC   C2G 1395   6.416   0.335   5.442
   27POPC   C2H 1396   6.360   0.319   5.300
   27POPC   C2I 1397   6.469   0.332   5.194
   27POPC   C2J 1398   6.412   0.289   5.059
   27POPC   C2K 1399   6.514   0.292   4.945
   27POPC   C2L 1400   6.542   0.433   4.894
   27POPC   C2M 1401   6.627   0.427   4.768
   27POPC   C2N 1402   6.645   0.566   4.706
   27POPC   C2O 1403   6.724   0.562   4.575
   27POPC   C2P 1404   6.648   0.492   4.462
   28POPC   CN1 1405   8.081  16.495   6.476
   28POPC   CN2 1406   7.969  16.377   6.299
   28POPC   CN3 1407   7.869  16.397   6.513
   28POPC   NTM 1408   7.951  16.467   6.414
   28POPC    CA 1409   7.880  16.591   6.376
   28POPC    CB 1410   7.951  16.701   6.294
   28POPC    OA 1411   8.014  16.659   6.173
   28POPC     P 1412   8.097  16.779   6.112
   28POPC    OB 1413   7.995  16.883   6.092
   28POPC    OC 1414   8.211  16.798   6.204
   28POPC    OD 1415   8.133  16.705   5.979
   28POPC    CC 1416   8.251  16.626   5.993
   28POPC    CD 1417   8.289  16.538   5.873
   28POPC    OE 1418   8.349  16.610   5.761
   28POPC   C1A 1419   8.479  16.636   5.764
   28POPC    OF 1420   8.544  16.625   5.869
   28POPC   C1B 1421   8.530  16.694   5.638
   28POPC   C1C 1422   8.519  16.847   5.640
   28POPC   C1D 1423   8.550  16.907   5.503
   28POPC   C1E 1424   8.534   0.076   5.508
   28POPC   C1F 1425   8.554   0.140   5.370
   28POPC   C1G 1426   8.698   0.124   5.319
   28POPC   C1H 1427   8.713   0.184   5.180
   28POPC   C1I 1428   8.856   0.168   5.130
   28POPC   C1J 1429   8.880   0.153   5.000
   28POPC   C1K 1430   8.764   0.151   4.900
   28POPC   C1L 1431   8.802   0.072   4.775
   28POPC   C1M 1432   8.688   0.075   4.673
   28POPC   C1N 1433   8.729  16.983   4.546
   28POPC   C1O 1434   8.618   0.005   4.441
   28POPC   C1P 1435   8.658  16.909   4.317
   28POPC   C1Q 1436   8.548  16.914   4.211
   28POPC   C1R 1437   8.587  16.831   4.088
   28POPC    CE 1438   8.166  16.450   5.842
   28POPC    OG 1439   8.195  16.331   5.767
   28POPC   C2A 1440   8.126  16.221   5.793
   28POPC    OH 1441   8.057  16.213   5.896
   28POPC   C2B 1442   8.159  16.108   5.704
   28POPC   C2C 1443   8.084  16.112   5.571
   28POPC   C2D 1444   8.126  15.993   5.485
   28POPC   C2E 1445   8.061  15.992   5.346
   28POPC   C2F 1446   8.110  16.107   5.258
   28POPC   C2G 1447   8.051  16.094   5.117
   28POPC   C2H 1448   8.096  16.211   5.029
   28POPC   C2I 1449   8.042  16.194   4.886
   28POPC   C2J 1450   8.075  16.313   4.796
   28POPC   C2K 1451   8.225  16.331   4.772
   28POPC   C2L 1452   8.251  16.451   4.681
   28POPC   C2M 1453   8.401  16.475   4.664
   28POPC   C2N 1454   8.431  16.597   4.575
   28POPC   C2O 1455   8.401  16.572   4.427
   28POPC   C2P 1456   8.500  16.473   4.364
   29POPC   CN1 1457   8.583   0.500   5.797
   29POPC   CN2 1458   8.742   0.633   5.915
   29POPC   CN3 1459   8.598   0.735   5.755
   29POPC   NTM 1460   8.606   0.631   5.859
   29POPC    CA 1461   8.510   0.657   5.969
   29POPC    CB 1462   8.359   0.675   5.942
   29POPC    OA 1463   8.288   0.569   5.878
   29POPC     P 1464   8.137   0.614   5.863
   29POPC    OB 1465   8.098   0.633   6.004
   29POPC    OC 1466   8.146   0.722   5.765
   29POPC    OD 1467   8.080   0.478   5.808
   29POPC    CC 1468   8.088   0.466   5.666
   29POPC    CD 1469   8.052   0.324   5.618
   29POPC    OE 1470   8.086   0.296   5.479
   29POPC   C1A 1471   8.107   0.169   5.445
   29POPC    OF 1472   8.131   0.084   5.532
   29POPC   C1B 1473   8.102   0.143   5.300
   29POPC   C1C 1474   7.962   0.093   5.263
   29POPC   C1D 1475   7.946   0.063   5.114
   29POPC   C1E 1476   7.808   0.003   5.090
   29POPC   C1F 1477   7.781  16.950   4.943
   29POPC   C1G 1478   7.872  16.838   4.892
   29POPC   C1H 1479   7.826  16.792   4.753
   29POPC   C1I 1480   7.926  16.693   4.693
   29POPC   C1J 1481   7.885  16.585   4.626
   29POPC   C1K 1482   7.737  16.553   4.606
   29POPC   C1L 1483   7.721  16.453   4.491
   29POPC   C1M 1484   7.576  16.409   4.473
   29POPC   C1N 1485   7.567  16.301   4.365
   29POPC   C1O 1486   7.424  16.249   4.349
   29POPC   C1P 1487   7.414  16.136   4.246
   29POPC   C1Q 1488   7.486  16.009   4.291
   29POPC   C1R 1489   7.477  15.899   4.185
   29POPC    CE 1490   7.904   0.302   5.653
   29POPC    OG 1491   7.808   0.386   5.586
   29POPC   C2A 1492   7.680   0.360   5.609
   29POPC    OH 1493   7.646   0.299   5.710
   29POPC   C2B 1494   7.585   0.437   5.524
   29POPC   C2C 1495   7.553   0.368   5.392
   29POPC   C2D 1496   7.432   0.435   5.327
   29POPC   C2E 1497   7.399   0.381   5.187
   29POPC   C2F 1498   7.493   0.438   5.080
   29POPC   C2G 1499   7.450   0.400   4.938
   29POPC   C2H 1500   7.479   0.254   4.904
   29POPC   C2I 1501   7.434   0.222   4.762
   29POPC   C2J 1502   7.491   0.087   4.716
   29POPC   C2K 1503   7.445   0.050   4.575
   29POPC   C2L 1504   7.523  16.912   4.524
   29POPC   C2M 1505   7.471  16.860   4.390
   29POPC   C2N 1506   7.336  16.789   4.406
   29POPC   C2O 1507   7.291  16.726   4.274
   29POPC   C2P 1508   7.160  16.649   4.294
   30POPC   CN1 1509   9.683  15.808   6.890
   30POPC   CN2 1510   9.917  15.838   6.852
   30POPC   CN3 1511   9.839  15.689   7.022
   30POPC   NTM 1512   9.813  15.740   6.887
   30POPC    CA 1513   9.816  15.624   6.793
   30POPC    CB 1514   9.782  15.645   6.643
   30POPC    OA 1515   9.646  15.680   6.620
   30POPC     P 1516   9.629  15.775   6.495
   30POPC    OB 1517   9.729  15.737   6.394
   30POPC    OC 1518   9.485  15.775   6.464
   30POPC    OD 1519   9.674  15.909   6.565
   30POPC    CC 1520   9.594  16.019   6.521
   30POPC    CD 1521   9.674  16.143   6.477
   30POPC    OE 1522   9.587  16.256   6.444
   30POPC   C1A 1523   9.634  16.379   6.461
   30POPC    OF 1524   9.714  16.401   6.553
   30POPC   C1B 1525   9.556  16.484   6.391
   30POPC   C1C 1526   9.618  16.525   6.257
   30POPC   C1D 1527   9.601  16.420   6.146
   30POPC   C1E 1528   9.670  16.468   6.018
   30POPC   C1F 1529   9.634  16.377   5.900
   30POPC   C1G 1530   9.700  16.429   5.772
   30POPC   C1H 1531   9.649  16.355   5.648
   30POPC   C1I 1532   9.712  16.418   5.523
   30POPC   C1J 1533   9.707  16.361   5.403
   30POPC   C1K 1534   9.636  16.229   5.374
   30POPC   C1L 1535   9.499  16.253   5.310
   30POPC   C1M 1536   9.438  16.124   5.254
   30POPC   C1N 1537   9.508  16.076   5.126
   30POPC   C1O 1538   9.477  16.167   5.006
   30POPC   C1P 1539   9.548  16.117   4.880
   30POPC   C1Q 1540   9.510  16.201   4.759
   30POPC   C1R 1541   9.580  16.150   4.633
   30POPC    CE 1542   9.763  16.098   6.358
   30POPC    OG 1543   9.690  16.027   6.256
   30POPC   C2A 1544   9.744  16.017   6.136
   30POPC    OH 1545   9.846  16.080   6.105
   30POPC   C2B 1546   9.668  15.927   6.047
   30POPC   C2C 1547   9.565  15.998   5.959
   30POPC   C2D 1548   9.487  15.895   5.879
   30POPC   C2E 1549   9.401  15.959   5.770
   30POPC   C2F 1550   9.331  15.851   5.688
   30POPC   C2G 1551   9.266  15.909   5.563
   30POPC   C2H 1552   9.196  15.800   5.481
   30POPC   C2I 1553   9.146  15.858   5.349
   30POPC   C2J 1554   9.061  15.758   5.270
   30POPC   C2K 1555   9.015  15.823   5.139
   30POPC   C2L 1556   8.912  15.741   5.061
   30POPC   C2M 1557   8.968  15.608   5.009
   30POPC   C2N 1558   8.867  15.532   4.922
   30POPC   C2O 1559   8.744  15.486   5.001
   30POPC   C2P 1560   8.646  15.413   4.910
   31POPC   CN1 1561  10.358   1.333   5.995
   31POPC   CN2 1562  10.263   1.297   5.779
   31POPC   CN3 1563  10.458   1.178   5.842
   31POPC   NTM 1564  10.331   1.231   5.892
   31POPC    CA 1565  10.240   1.125   5.942
   31POPC    CB 1566  10.278   1.040   6.066
   31POPC    OA 1567  10.403   0.972   6.056
   31POPC     P 1568  10.404   0.830   6.124
   31POPC    OB 1569  10.540   0.776   6.137
   31POPC    OC 1570  10.310   0.833   6.238
   31POPC    OD 1571  10.325   0.748   6.017
   31POPC    CC 1572  10.393   0.736   5.893
   31POPC    CD 1573  10.313   0.663   5.783
   31POPC    OE 1574  10.184   0.721   5.750
   31POPC   C1A 1575  10.176   0.832   5.677
   31POPC    OF 1576  10.276   0.901   5.655
   31POPC   C1B 1577  10.037   0.874   5.646
   31POPC   C1C 1578   9.981   0.815   5.516
   31POPC   C1D 1579   9.944   0.667   5.530
   31POPC   C1E 1580   9.867   0.612   5.409
   31POPC   C1F 1581   9.732   0.681   5.392
   31POPC   C1G 1582   9.641   0.616   5.287
   31POPC   C1H 1583   9.700   0.619   5.146
   31POPC   C1I 1584   9.606   0.549   5.047
   31POPC   C1J 1585   9.612   0.580   4.918
   31POPC   C1K 1586   9.712   0.684   4.869
   31POPC   C1L 1587   9.773   0.648   4.733
   31POPC   C1M 1588   9.673   0.657   4.617
   31POPC   C1N 1589   9.740   0.611   4.488
   31POPC   C1O 1590   9.647   0.620   4.367
   31POPC   C1P 1591   9.616   0.765   4.328
   31POPC   C1Q 1592   9.532   0.774   4.200
   31POPC   C1R 1593   9.608   0.725   4.076
   31POPC    CE 1594  10.302   0.517   5.830
   31POPC    OG 1595  10.427   0.447   5.825
   31POPC   C2A 1596  10.429   0.324   5.875
   31POPC    OH 1597  10.334   0.279   5.938
   31POPC   C2B 1598  10.559   0.256   5.854
   31POPC   C2C 1599  10.563   0.180   5.722
   31POPC   C2D 1600  10.704   0.126   5.692
   31POPC   C2E 1601  10.807   0.235   5.656
   31POPC   C2F 1602  10.777   0.307   5.524
   31POPC   C2G 1603  10.785   0.214   5.403
   31POPC   C2H 1604  10.740   0.287   5.276
   31POPC   C2I 1605  10.722   0.187   5.162
   31POPC   C2J 1606  10.663   0.254   5.038
   31POPC   C2K 1607  10.621   0.148   4.936
   31POPC   C2L 1608  10.556   0.212   4.814
   31POPC   C2M 1609  10.503   0.104   4.719
   31POPC   C2N 1610  10.448   0.164   4.590
   31POPC   C2O 1611  10.402   0.054   4.495
   31POPC   C2P 1612  10.350   0.113   4.364
   32POPC   CN1 1613  11.013   1.047   6.259
   32POPC   CN2 1614  10.889   1.000   6.458
   32POPC   CN3 1615  10.789   1.120   6.281
   32POPC   NTM 1616  10.881   1.011   6.312
   32POPC    CA 1617  10.827   0.887   6.250
   32POPC    CB 1618  10.900   0.752   6.271
   32POPC    OA 1619  11.035   0.745   6.224
   32POPC     P 1620  11.125   0.656   6.318
   32POPC    OB 1621  11.263   0.683   6.275
   32POPC    OC 1622  11.085   0.683   6.457
   32POPC    OD 1623  11.079   0.513   6.275
   32POPC    CC 1624  11.143   0.469   6.155
   32POPC    CD 1625  11.087   0.339   6.096
   32POPC    OE 1626  11.168   0.284   5.989
   32POPC   C1A 1627  11.211   0.158   5.994
   32POPC    OF 1628  11.204   0.093   6.099
   32POPC   C1B 1629  11.281   0.112   5.871
   32POPC   C1C 1630  11.218   0.161   5.740
   32POPC   C1D 1631  11.309   0.133   5.620
   32POPC   C1E 1632  11.255   0.206   5.497
   32POPC   C1F 1633  11.350   0.193   5.378
   32POPC   C1G 1634  11.307   0.281   5.261
   32POPC   C1H 1635  11.180   0.231   5.192
   32POPC   C1I 1636  11.128   0.336   5.093
   32POPC   C1J 1637  11.132   0.320   4.961
   32POPC   C1K 1638  11.190   0.193   4.898
   32POPC   C1L 1639  11.109   0.154   4.774
   32POPC   C1M 1640  11.164   0.027   4.710
   32POPC   C1N 1641  11.291   0.050   4.627
   32POPC   C1O 1642  11.259   0.114   4.492
   32POPC   C1P 1643  11.386   0.125   4.408
   32POPC   C1Q 1644  11.356   0.183   4.269
   32POPC   C1R 1645  11.485   0.199   4.189
   32POPC    CE 1646  10.940   0.368   6.059
   32POPC    OG 1647  10.915   0.490   5.986
   32POPC   C2A 1648  10.789   0.533   5.980
   32POPC    OH 1649  10.700   0.477   6.045
   32POPC   C2B 1650  10.775   0.661   5.908
   32POPC   C2C 1651  10.751   0.646   5.757
   32POPC   C2D 1652  10.733   0.785   5.695
   32POPC   C2E 1653  10.709   0.783   5.543
   32POPC   C2F 1654  10.577   0.716   5.504
   32POPC   C2G 1655  10.552   0.727   5.353
   32POPC   C2H 1656  10.421   0.658   5.315
   32POPC   C2I 1657  10.397   0.668   5.165
   32POPC   C2J 1658  10.274   0.587   5.123
   32POPC   C2K 1659  10.260   0.588   4.970
   32POPC   C2L 1660  10.156   0.487   4.922
   32POPC   C2M 1661  10.158   0.480   4.769
   32POPC   C2N 1662  10.067   0.370   4.716
   32POPC   C2O 1663  10.073   0.364   4.563
   32POPC   C2P 1664   9.984   0.254   4.508
   33POPC   CN1 1665  12.282   0.058   6.544
   33POPC   CN2 1666  12.388  16.841   6.617
   33POPC   CN3 1667  12.164  16.837   6.528
   33POPC   NTM 1668  12.297  16.898   6.516
   33POPC    CA 1669  12.353  16.885   6.379
   33POPC    CB 1670  12.385  16.747   6.318
   33POPC    OA 1671  12.275  16.656   6.309
   33POPC     P 1672  12.304  16.541   6.205
   33POPC    OB 1673  12.447  16.508   6.214
   33POPC    OC 1674  12.202  16.436   6.224
   33POPC    OD 1675  12.274  16.618   6.072
   33POPC    CC 1676  12.135  16.633   6.049
   33POPC    CD 1677  12.096  16.676   5.906
   33POPC    OE 1678  12.118  16.572   5.806
   33POPC   C1A 1679  12.034  16.469   5.795
   33POPC    OF 1680  11.933  16.461   5.866
   33POPC   C1B 1681  12.079  16.369   5.695
   33POPC   C1C 1682  12.044  16.412   5.552
   33POPC   C1D 1683  12.108  16.321   5.448
   33POPC   C1E 1684  12.081  16.376   5.308
   33POPC   C1F 1685  12.151  16.296   5.198
   33POPC   C1G 1686  12.126  16.365   5.063
   33POPC   C1H 1687  12.197  16.296   4.946
   33POPC   C1I 1688  12.175  16.379   4.819
   33POPC   C1J 1689  12.178  16.324   4.698
   33POPC   C1K 1690  12.206  16.175   4.679
   33POPC   C1L 1691  12.140  16.124   4.551
   33POPC   C1M 1692  12.184  15.981   4.521
   33POPC   C1N 1693  12.122  15.926   4.391
   33POPC   C1O 1694  11.974  15.893   4.408
   33POPC   C1P 1695  11.916  15.841   4.276
   33POPC   C1Q 1696  11.771  15.794   4.290
   33POPC   C1R 1697  11.760  15.665   4.372
   33POPC    CE 1698  12.166  16.811   5.885
   33POPC    OG 1699  12.133  16.880   5.763
   33POPC   C2A 1700  12.221  16.871   5.664
   33POPC    OH 1701  12.334  16.827   5.684
   33POPC   C2B 1702  12.176  16.939   5.541
   33POPC   C2C 1703  12.208  16.857   5.416
   33POPC   C2D 1704  12.170  16.934   5.290
   33POPC   C2E 1705  12.192  16.847   5.166
   33POPC   C2F 1706  12.172  16.927   5.037
   33POPC   C2G 1707  12.192  16.833   4.917
   33POPC   C2H 1708  12.200  16.908   4.785
   33POPC   C2I 1709  12.224  16.806   4.673
   33POPC   C2J 1710  12.264  16.871   4.541
   33POPC   C2K 1711  12.297  16.766   4.435
   33POPC   C2L 1712  12.415  16.677   4.477
   33POPC   C2M 1713  12.438  16.563   4.378
   33POPC   C2N 1714  12.545  16.465   4.428
   33POPC   C2O 1715  12.684  16.527   4.435
   33POPC   C2P 1716  12.786  16.427   4.490
   34POPC   CN1 1717  12.453  16.533   5.734
   34POPC   CN2 1718  12.573  16.402   5.892
   34POPC   CN3 1719  12.690  16.545   5.738
   34POPC   NTM 1720  12.570  16.531   5.822
   34POPC    CA 1721  12.558  16.644   5.917
   34POPC    CB 1722  12.663  16.666   6.028
   34POPC    OA 1723  12.796  16.696   5.985
   34POPC     P 1724  12.892  16.701   6.108
   34POPC    OB 1725  12.829  16.785   6.211
   34POPC    OC 1726  12.939  16.566   6.138
   34POPC    OD 1727  13.010  16.788   6.053
   34POPC    CC 1728  13.082  16.726   5.948
   34POPC    CD 1729  13.222  16.787   5.936
   34POPC    OE 1730  13.273  16.802   5.801
   34POPC   C1A 1731  13.352  16.906   5.777
   34POPC    OF 1732  13.352   0.020   5.854
   34POPC   C1B 1733  13.425  16.898   5.649
   34POPC   C1C 1734  13.565  16.840   5.673
   34POPC   C1D 1735  13.644  16.823   5.543
   34POPC   C1E 1736  13.582  16.717   5.452
   34POPC   C1F 1737  13.662  16.696   5.323
   34POPC   C1G 1738  13.659  16.820   5.232
   34POPC   C1H 1739  13.734  16.797   5.101
   34POPC   C1I 1740  13.664  16.694   5.012
   34POPC   C1J 1741  13.667  16.703   4.880
   34POPC   C1K 1742  13.740  16.817   4.809
   34POPC   C1L 1743  13.749  16.784   4.660
   34POPC   C1M 1744  13.812  16.897   4.578
   34POPC   C1N 1745  13.809  16.863   4.429
   34POPC   C1O 1746  13.665  16.858   4.375
   34POPC   C1P 1747  13.656  16.796   4.235
   34POPC   C1Q 1748  13.686  16.646   4.237
   34POPC   C1R 1749  13.674  16.586   4.097
   34POPC    CE 1750  13.312  16.708   6.033
   34POPC    OG 1751  13.316  16.565   6.014
   34POPC   C2A 1752  13.418  16.500   6.068
   34POPC    OH 1753  13.489  16.555   6.153
   34POPC   C2B 1754  13.418  16.354   6.040
   34POPC   C2C 1755  13.509  16.313   5.924
   34POPC   C2D 1756  13.446  16.340   5.787
   34POPC   C2E 1757  13.533  16.282   5.676
   34POPC   C2F 1758  13.460  16.292   5.542
   34POPC   C2G 1759  13.543  16.231   5.428
   34POPC   C2H 1760  13.464  16.230   5.296
   34POPC   C2I 1761  13.349  16.129   5.299
   34POPC   C2J 1762  13.254  16.145   5.180
   34POPC   C2K 1763  13.319  16.114   5.044
   34POPC   C2L 1764  13.218  16.139   4.932
   34POPC   C2M 1765  13.279  16.109   4.795
   34POPC   C2N 1766  13.177  16.137   4.685
   34POPC   C2O 1767  13.232  16.102   4.547
   34POPC   C2P 1768  13.127  16.129   4.438
   35POPC   CN1 1769  14.575   0.038   6.300
   35POPC   CN2 1770  14.379  16.905   6.363
   35POPC   CN3 1771  14.372   0.159   6.328
   35POPC   NTM 1772  14.429   0.033   6.281
   35POPC    CA 1773  14.404   0.008   6.136
   35POPC    CB 1774  14.260   0.002   6.079
   35POPC    OA 1775  14.171  16.895   6.144
   35POPC     P 1776  14.039  16.869   6.064
   35POPC    OB 1777  14.067  16.870   5.921
   35POPC    OC 1778  13.961  16.763   6.130
   35POPC    OD 1779  13.972   0.023   6.100
   35POPC    CC 1780  13.853   0.045   6.025
   35POPC    CD 1781  13.842   0.191   5.977
   35POPC    OE 1782  13.708   0.230   5.933
   35POPC   C1A 1783  13.687   0.355   5.891
   35POPC    OF 1784  13.759   0.446   5.934
   35POPC   C1B 1785  13.561   0.375   5.815
   35POPC   C1C 1786  13.561   0.298   5.682
   35POPC   C1D 1787  13.664   0.351   5.582
   35POPC   C1E 1788  13.678   0.256   5.464
   35POPC   C1F 1789  13.769   0.313   5.356
   35POPC   C1G 1790  13.787   0.212   5.243
   35POPC   C1H 1791  13.865   0.270   5.125
   35POPC   C1I 1792  13.890   0.163   5.019
   35POPC   C1J 1793  13.892   0.195   4.890
   35POPC   C1K 1794  13.869   0.339   4.847
   35POPC   C1L 1795  13.924   0.362   4.706
   35POPC   C1M 1796  13.902   0.507   4.662
   35POPC   C1N 1797  13.946   0.531   4.517
   35POPC   C1O 1798  13.858   0.457   4.417
   35POPC   C1P 1799  13.906   0.479   4.273
   35POPC   C1Q 1800  13.820   0.404   4.172
   35POPC   C1R 1801  13.832   0.252   4.186
   35POPC    CE 1802  13.957   0.209   5.875
   35POPC    OG 1803  13.947   0.123   5.761
   35POPC   C2A 1804  14.061   0.080   5.707
   35POPC    OH 1805  14.169   0.129   5.740
   35POPC   C2B 1806  14.037  16.968   5.596
   35POPC   C2C 1807  14.143  16.977   5.487
   35POPC   C2D 1808  14.100  16.896   5.365
   35POPC   C2E 1809  14.205  16.907   5.254
   35POPC   C2F 1810  14.152  16.842   5.126
   35POPC   C2G 1811  14.257  16.847   5.014
   35POPC   C2H 1812  14.200  16.794   4.882
   35POPC   C2I 1813  14.161  16.646   4.891
   35POPC   C2J 1814  14.098  16.595   4.761
   35POPC   C2K 1815  14.198  16.593   4.645
   35POPC   C2L 1816  14.129  16.553   4.515
   35POPC   C2M 1817  14.229  16.555   4.400
   35POPC   C2N 1818  14.160  16.526   4.267
   35POPC   C2O 1819  14.261  16.531   4.153
   35POPC   C2P 1820  14.192  16.508   4.019
   36POPC   CN1 1821  14.907   0.393   6.227
   36POPC   CN2 1822  15.059   0.449   6.051
   36POPC   CN3 1823  14.923   0.617   6.150
   36POPC   NTM 1824  15.000   0.495   6.177
   36POPC    CA 1825  15.108   0.528   6.274
   36POPC    CB 1826  15.212   0.422   6.317
   36POPC    OA 1827  15.154   0.314   6.389
   36POPC     P 1828  15.240   0.181   6.390
   36POPC    OB 1829  15.373   0.225   6.434
   36POPC    OC 1830  15.152   0.098   6.473
   36POPC    OD 1831  15.229   0.150   6.236
   36POPC    CC 1832  15.122   0.062   6.201
   36POPC    CD 1833  15.116   0.037   6.049
   36POPC    OE 1834  14.994  16.958   6.003
   36POPC   C1A 1835  14.891   0.052   5.967
   36POPC    OF 1836  14.894   0.174   5.985
   36POPC   C1B 1837  14.779  16.962   5.903
   36POPC   C1C 1838  14.792  16.970   5.750
   36POPC   C1D 1839  14.679  16.900   5.675
   36POPC   C1E 1840  14.704  16.908   5.524
   36POPC   C1F 1841  14.586  16.853   5.444
   36POPC   C1G 1842  14.608  16.869   5.293
   36POPC   C1H 1843  14.704  16.768   5.230
   36POPC   C1I 1844  14.641  16.629   5.216
   36POPC   C1J 1845  14.664  16.554   5.109
   36POPC   C1K 1846  14.755  16.605   4.997
   36POPC   C1L 1847  14.693  16.591   4.858
   36POPC   C1M 1848  14.697  16.448   4.802
   36POPC   C1N 1849  14.631  16.447   4.664
   36POPC   C1O 1850  14.650  16.315   4.591
   36POPC   C1P 1851  14.581  16.320   4.455
   36POPC   C1Q 1852  14.608  16.195   4.369
   36POPC   C1R 1853  14.752  16.190   4.318
   36POPC    CE 1854  15.245  16.943   6.016
   36POPC    OG 1855  15.299  16.967   5.885
   36POPC   C2A 1856  15.407  16.897   5.852
   36POPC    OH 1857  15.457  16.814   5.929
   36POPC   C2B 1858  15.461  16.934   5.720
   36POPC   C2C 1859  15.517  16.814   5.642
   36POPC   C2D 1860  15.598  16.857   5.519
   36POPC   C2E 1861  15.512  16.929   5.414
   36POPC   C2F 1862  15.595  16.969   5.292
   36POPC   C2G 1863  15.505   0.047   5.185
   36POPC   C2H 1864  15.581   0.074   5.055
   36POPC   C2I 1865  15.489   0.119   4.942
   36POPC   C2J 1866  15.387   0.011   4.905
   36POPC   C2K 1867  15.288   0.055   4.797
   36POPC   C2L 1868  15.352   0.067   4.659
   36POPC   C2M 1869  15.245   0.099   4.554
   36POPC   C2N 1870  15.304   0.102   4.413
   36POPC   C2O 1871  15.195   0.125   4.309
   36POPC   C2P 1872  15.253   0.122   4.167
   37POPC   CN1 1873  15.505  16.357   6.096
   37POPC   CN2 1874  15.604  16.564   6.023
   37POPC   CN3 1875  15.410  16.482   5.918
   37POPC   NTM 1876  15.478  16.492   6.047
   37POPC    CA 1877  15.387  16.564   6.140
   37POPC    CB 1878  15.431  16.593   6.285
   37POPC    OA 1879  15.541  16.683   6.298
   37POPC     P 1880  15.506  16.797   6.400
   37POPC    OB 1881  15.368  16.839   6.373
   37POPC    OC 1882  15.548  16.740   6.529
   37POPC    OD 1883  15.609  16.904   6.351
   37POPC    CC 1884  15.562  16.961   6.229
   37POPC    CD 1885  15.624   0.112   6.189
   37POPC    OE 1886  15.566   0.159   6.064
   37POPC   C1A 1887  15.555   0.288   6.039
   37POPC    OF 1888  15.585   0.373   6.124
   37POPC   C1B 1889  15.500   0.316   5.904
   37POPC   C1C 1890  15.612   0.319   5.801
   37POPC   C1D 1891  15.561   0.342   5.659
   37POPC   C1E 1892  15.680   0.352   5.563
   37POPC   C1F 1893  15.636   0.392   5.422
   37POPC   C1G 1894  15.760   0.416   5.336
   37POPC   C1H 1895  15.724   0.468   5.197
   37POPC   C1I 1896  15.851   0.504   5.121
   37POPC   C1J 1897  15.847   0.533   4.991
   37POPC   C1K 1898  15.714   0.529   4.915
   37POPC   C1L 1899  15.739   0.519   4.765
   37POPC   C1M 1900  15.606   0.514   4.689
   37POPC   C1N 1901  15.631   0.511   4.538
   37POPC   C1O 1902  15.499   0.505   4.461
   37POPC   C1P 1903  15.526   0.500   4.311
   37POPC   C1Q 1904  15.396   0.494   4.232
   37POPC   C1R 1905  15.425   0.481   4.082
   37POPC    CE 1906  15.777   0.089   6.185
   37POPC    OG 1907  15.819  16.973   6.089
   37POPC   C2A 1908  15.842   0.036   5.967
   37POPC    OH 1909  15.881   0.151   5.947
   37POPC   C2B 1910  15.832  16.914   5.863
   37POPC   C2C 1911  15.962  16.835   5.844
   37POPC   C2D 1912  15.937  16.730   5.736
   37POPC   C2E 1913  16.058  16.642   5.712
   37POPC   C2F 1914  16.023  16.538   5.605
   37POPC   C2G 1915  16.139  16.443   5.577
   37POPC   C2H 1916  16.101  16.338   5.472
   37POPC   C2I 1917  16.073  16.399   5.334
   37POPC   C2J 1918  16.026  16.291   5.237
   37POPC   C2K 1919  15.991  16.350   5.101
   37POPC   C2L 1920  15.934  16.241   5.010
   37POPC   C2M 1921  15.888  16.298   4.876
   37POPC   C2N 1922  15.827  16.188   4.789
   37POPC   C2O 1923  15.773  16.240   4.656
   37POPC   C2P 1924  15.884  16.288   4.562
   38POPC   CN1 1925  16.563   0.507   6.492
   38POPC   CN2 1926  16.519   0.576   6.268
   38POPC   CN3 1927  16.398   0.672   6.447
   38POPC   NTM 1928  16.530   0.622   6.407
   38POPC    CA 1929  16.627   0.734   6.419
   38POPC    CB 1930  16.780   0.711   6.410
   38POPC    OA 1931  16.820   0.600   6.331
   38POPC     P 1932  16.958   0.619   6.258
   38POPC    OB 1933   0.053   0.723   6.326
   38POPC    OC 1934   0.024   0.483   6.236
   38POPC    OD 1935  16.901   0.676   6.123
   38POPC    CC 1936  16.832   0.579   6.045
   38POPC    CD 1937  16.740   0.644   5.941
   38POPC    OE 1938  16.654   0.548   5.873
   38POPC   C1A 1939  16.535   0.593   5.836
   38POPC    OF 1940  16.477   0.680   5.903
   38POPC   C1B 1941  16.471   0.513   5.729
   38POPC   C1C 1942  16.515   0.565   5.592
   38POPC   C1D 1943  16.441   0.495   5.478
   38POPC   C1E 1944  16.497   0.542   5.344
   38POPC   C1F 1945  16.417   0.485   5.227
   38POPC   C1G 1946  16.487   0.519   5.096
   38POPC   C1H 1947  16.410   0.466   4.975
   38POPC   C1I 1948  16.498   0.478   4.850
   38POPC   C1J 1949  16.445   0.496   4.730
   38POPC   C1K 1950  16.294   0.507   4.707
   38POPC   C1L 1951  16.262   0.459   4.565
   38POPC   C1M 1952  16.120   0.497   4.523
   38POPC   C1N 1953  16.100   0.459   4.376
   38POPC   C1O 1954  15.976   0.524   4.317
   38POPC   C1P 1955  15.969   0.497   4.167
   38POPC   C1Q 1956  15.853   0.573   4.102
   38POPC   C1R 1957  15.848   0.545   3.952
   38POPC    CE 1958  16.834   0.724   5.849
   38POPC    OG 1959  16.776   0.791   5.735
   38POPC   C2A 1960  16.856   0.872   5.666
   38POPC    OH 1961  16.965   0.907   5.712
   38POPC   C2B 1962  16.794   0.926   5.543
   38POPC   C2C 1963  16.832   0.844   5.420
   38POPC   C2D 1964  16.777   0.910   5.294
   38POPC   C2E 1965  16.819   0.835   5.167
   38POPC   C2F 1966  16.776   0.913   5.043
   38POPC   C2G 1967  16.821   0.846   4.914
   38POPC   C2H 1968  16.792   0.938   4.795
   38POPC   C2I 1969  16.836   0.878   4.661
   38POPC   C2J 1970  16.747   0.762   4.614
   38POPC   C2K 1971  16.607   0.808   4.569
   38POPC   C2L 1972  16.608   0.882   4.435
   38POPC   C2M 1973  16.625   0.789   4.314
   38POPC   C2N 1974  16.499   0.705   4.289
   38POPC   C2O 1975  16.519   0.615   4.167
   38POPC   C2P 1976  16.393   0.535   4.136
   39POPC   CN1 1977   0.237   1.071   5.928
   39POPC   CN2 1978   0.170   0.842   5.959
   39POPC   CN3 1979   0.386   0.911   6.023
   39POPC   NTM 1980   0.246   0.954   6.015
   39POPC    CA 1981   0.200   0.982   6.153
   39POPC    CB 1982   0.063   1.047   6.181
   39POPC    OA 1983  16.930   0.986   6.125
   39POPC     P 1984  16.797   1.042   6.188
   39POPC    OB 1985  16.689   0.943   6.181
   39POPC    OC 1986  16.825   1.117   6.313
   39POPC    OD 1987  16.772   1.153   6.081
   39POPC    CC 1988  16.704   1.105   5.965
   39POPC    CD 1989  16.693   1.212   5.856
   39POPC    OE 1990  16.596   1.180   5.752
   39POPC   C1A 1991  16.466   1.194   5.777
   39POPC    OF 1992  16.424   1.227   5.888
   39POPC   C1B 1993  16.379   1.164   5.661
   39POPC   C1C 1994  16.332   1.292   5.590
   39POPC   C1D 1995  16.442   1.359   5.506
   39POPC   C1E 1996  16.475   1.273   5.383
   39POPC   C1F 1997  16.579   1.342   5.295
   39POPC   C1G 1998  16.599   1.263   5.166
   39POPC   C1H 1999  16.701   1.328   5.072
   39POPC   C1I 2000  16.655   1.462   5.014
   39POPC   C1J 2001  16.630   1.474   4.884
   39POPC   C1K 2002  16.651   1.355   4.790
   39POPC   C1L 2003  16.674   1.403   4.647
   39POPC   C1M 2004  16.701   1.285   4.553
   39POPC   C1N 2005  16.714   1.329   4.407
   39POPC   C1O 2006  16.582   1.376   4.344
   39POPC   C1P 2007  16.480   1.262   4.331
   39POPC   C1Q 2008  16.350   1.307   4.265
   39POPC   C1R 2009  16.369   1.339   4.117
   39POPC    CE 2010  16.838   1.234   5.810
   39POPC    OG 2011  16.868   1.359   5.747
   39POPC   C2A 2012   0.012   1.379   5.714
   39POPC    OH 2013   0.099   1.296   5.743
   39POPC   C2B 2014   0.040   1.509   5.648
   39POPC   C2C 2015  16.932   1.544   5.530
   39POPC   C2D 2016  16.952   1.457   5.405
   39POPC   C2E 2017   0.112   1.464   5.352
   39POPC   C2F 2018   0.128   1.404   5.212
   39POPC   C2G 2019   0.079   1.259   5.199
   39POPC   C2H 2020   0.124   1.192   5.069
   39POPC   C2I 2021   0.088   1.270   4.942
   39POPC   C2J 2022   0.136   1.194   4.818
   39POPC   C2K 2023   0.134   1.279   4.691
   39POPC   C2L 2024   0.239   1.390   4.697
   39POPC   C2M 2025   0.248   1.465   4.564
   39POPC   C2N 2026   0.356   1.574   4.571
   39POPC   C2O 2027   0.377   1.645   4.437
   39POPC   C2P 2028   0.440   1.553   4.332
   40POPC   CN1 2029   1.219   0.475   6.589
   40POPC   CN2 2030   0.996   0.552   6.549
   40POPC   CN3 2031   1.038   0.387   6.715
   40POPC   NTM 2032   1.091   0.510   6.653
   40POPC    CA 2033   1.109   0.611   6.759
   40POPC    CB 2034   1.157   0.756   6.731
   40POPC    OA 2035   1.063   0.838   6.662
   40POPC     P 2036   1.122   0.982   6.641
   40POPC    OB 2037   1.127   1.036   6.778
   40POPC    OC 2038   1.243   0.957   6.562
   40POPC    OD 2039   0.997   1.033   6.563
   40POPC    CC 2040   1.000   0.996   6.426
   40POPC    CD 2041   0.867   1.019   6.351
   40POPC    OE 2042   0.866   0.955   6.220
   40POPC   C1A 2043   0.763   0.973   6.137
   40POPC    OF 2044   0.655   1.018   6.177
   40POPC   C1B 2045   0.788   0.919   6.001
   40POPC   C1C 2046   0.721   1.006   5.894
   40POPC   C1D 2047   0.723   0.938   5.757
   40POPC   C1E 2048   0.862   0.937   5.692
   40POPC   C1F 2049   0.865   0.857   5.562
   40POPC   C1G 2050   0.772   0.914   5.454
   40POPC   C1H 2051   0.782   0.837   5.321
   40POPC   C1I 2052   0.729   0.693   5.330
   40POPC   C1J 2053   0.688   0.632   5.219
   40POPC   C1K 2054   0.694   0.704   5.084
   40POPC   C1L 2055   0.721   0.605   4.971
   40POPC   C1M 2056   0.713   0.674   4.834
   40POPC   C1N 2057   0.743   0.574   4.722
   40POPC   C1O 2058   0.722   0.633   4.583
   40POPC   C1P 2059   0.823   0.745   4.551
   40POPC   C1Q 2060   0.799   0.800   4.410
   40POPC   C1R 2061   0.898   0.912   4.378
   40POPC    CE 2062   0.838   1.171   6.359
   40POPC    OG 2063   0.920   1.253   6.275
   40POPC   C2A 2064   0.861   1.360   6.222
   40POPC    OH 2065   0.744   1.389   6.247
   40POPC   C2B 2066   0.947   1.431   6.125
   40POPC   C2C 2067   0.916   1.379   5.984
   40POPC   C2D 2068   0.995   1.455   5.877
   40POPC   C2E 2069   0.955   1.404   5.739
   40POPC   C2F 2070   1.022   1.488   5.630
   40POPC   C2G 2071   0.974   1.449   5.490
   40POPC   C2H 2072   1.030   1.316   5.441
   40POPC   C2I 2073   0.977   1.287   5.300
   40POPC   C2J 2074   1.037   1.160   5.240
   40POPC   C2K 2075   0.973   1.131   5.104
   40POPC   C2L 2076   1.029   1.004   5.038
   40POPC   C2M 2077   1.171   1.022   4.983
   40POPC   C2N 2078   1.174   1.113   4.860
   40POPC   C2O 2079   1.317   1.126   4.806
   40POPC   C2P 2080   1.321   1.215   4.682
   41POPC   CN1 2081   1.609   0.115   7.065
   41POPC   CN2 2082   1.491   0.235   6.896
   41POPC   CN3 2083   1.471   0.301   7.123
   41POPC   NTM 2084   1.564   0.249   7.023
   41POPC    CA 2085   1.678   0.343   7.006
   41POPC    CB 2086   1.803   0.304   6.923
   41POPC    OA 2087   1.775   0.239   6.800
   41POPC     P 2088   1.902   0.208   6.712
   41POPC    OB 2089   2.015   0.190   6.804
   41POPC    OC 2090   1.860   0.100   6.621
   41POPC    OD 2091   1.911   0.347   6.639
   41POPC    CC 2092   1.808   0.365   6.543
   41POPC    CD 2093   1.801   0.512   6.499
   41POPC    OE 2094   1.675   0.549   6.434
   41POPC   C1A 2095   1.645   0.679   6.431
   41POPC    OF 2096   1.660   0.746   6.534
   41POPC   C1B 2097   1.552   0.712   6.320
   41POPC   C1C 2098   1.406   0.723   6.368
   41POPC   C1D 2099   1.308   0.728   6.250
   41POPC   C1E 2100   1.292   0.591   6.184
   41POPC   C1F 2101   1.194   0.597   6.067
   41POPC   C1G 2102   1.155   0.456   6.024
   41POPC   C1H 2103   1.050   0.458   5.913
   41POPC   C1I 2104   0.993   0.317   5.893
   41POPC   C1J 2105   0.945   0.275   5.776
   41POPC   C1K 2106   0.944   0.359   5.649
   41POPC   C1L 2107   1.051   0.311   5.551
   41POPC   C1M 2108   1.031   0.368   5.411
   41POPC   C1N 2109   1.148   0.325   5.321
   41POPC   C1O 2110   1.129   0.364   5.175
   41POPC   C1P 2111   1.032   0.272   5.102
   41POPC   C1Q 2112   1.016   0.308   4.954
   41POPC   C1R 2113   1.145   0.286   4.874
   41POPC    CE 2114   1.930   0.535   6.418
   41POPC    OG 2115   1.928   0.487   6.282
   41POPC   C2A 2116   2.032   0.523   6.208
   41POPC    OH 2117   2.133   0.574   6.257
   41POPC   C2B 2118   2.015   0.494   6.064
   41POPC   C2C 2119   2.050   0.350   6.029
   41POPC   C2D 2120   2.051   0.331   5.877
   41POPC   C2E 2121   2.069   0.184   5.840
   41POPC   C2F 2122   2.138   0.165   5.704
   41POPC   C2G 2123   2.059   0.216   5.583
   41POPC   C2H 2124   2.144   0.192   5.458
   41POPC   C2I 2125   2.074   0.233   5.328
   41POPC   C2J 2126   2.166   0.204   5.209
   41POPC   C2K 2127   2.102   0.245   5.077
   41POPC   C2L 2128   2.196   0.213   4.960
   41POPC   C2M 2129   2.136   0.256   4.827
   41POPC   C2N 2130   2.228   0.225   4.708
   41POPC   C2O 2131   2.244   0.075   4.685
   41POPC   C2P 2132   2.332   0.047   4.563
   42POPC   CN1 2133   2.384   1.078   6.799
   42POPC   CN2 2134   2.514   0.879   6.825
   42POPC   CN3 2135   2.287   0.881   6.891
   42POPC   NTM 2136   2.382   0.931   6.791
   42POPC    CA 2137   2.335   0.884   6.658
   42POPC    CB 2138   2.400   0.934   6.527
   42POPC    OA 2139   2.541   0.921   6.510
   42POPC     P 2140   2.567   0.937   6.356
   42POPC    OB 2141   2.506   0.819   6.295
   42POPC    OC 2142   2.531   1.073   6.318
   42POPC    OD 2143   2.721   0.913   6.355
   42POPC    CC 2144   2.766   0.928   6.221
   42POPC    CD 2145   2.917   0.905   6.204
   42POPC    OE 2146   2.967   0.964   6.081
   42POPC   C1A 2147   3.097   0.993   6.068
   42POPC    OF 2148   3.176   0.970   6.160
   42POPC   C1B 2149   3.129   1.054   5.938
   42POPC   C1C 2150   3.174   0.950   5.836
   42POPC   C1D 2151   3.191   1.011   5.697
   42POPC   C1E 2152   3.244   0.907   5.598
   42POPC   C1F 2153   3.252   0.963   5.456
   42POPC   C1G 2154   3.310   0.857   5.362
   42POPC   C1H 2155   3.306   0.902   5.216
   42POPC   C1I 2156   3.360   0.791   5.125
   42POPC   C1J 2157   3.406   0.818   5.004
   42POPC   C1K 2158   3.406   0.962   4.952
   42POPC   C1L 2159   3.523   0.986   4.858
   42POPC   C1M 2160   3.527   1.133   4.812
   42POPC   C1N 2161   3.649   1.165   4.726
   42POPC   C1O 2162   3.780   1.147   4.803
   42POPC   C1P 2163   3.903   1.196   4.726
   42POPC   C1Q 2164   3.904   1.349   4.711
   42POPC   C1R 2165   4.033   1.395   4.643
   42POPC    CE 2166   2.940   0.753   6.222
   42POPC    OG 2167   2.883   0.669   6.119
   42POPC   C2A 2168   2.962   0.644   6.015
   42POPC    OH 2169   3.085   0.646   6.027
   42POPC   C2B 2170   2.890   0.585   5.899
   42POPC   C2C 2171   2.946   0.641   5.768
   42POPC   C2D 2172   2.885   0.574   5.644
   42POPC   C2E 2173   2.952   0.631   5.518
   42POPC   C2F 2174   2.912   0.554   5.392
   42POPC   C2G 2175   2.993   0.603   5.273
   42POPC   C2H 2176   2.971   0.516   5.149
   42POPC   C2I 2177   3.064   0.557   5.035
   42POPC   C2J 2178   3.056   0.457   4.919
   42POPC   C2K 2179   3.153   0.493   4.805
   42POPC   C2L 2180   3.109   0.618   4.729
   42POPC   C2M 2181   3.205   0.650   4.614
   42POPC   C2N 2182   3.158   0.775   4.538
   42POPC   C2O 2183   3.250   0.810   4.420
   42POPC   C2P 2184   3.389   0.856   4.465
   43POPC   CN1 2185   3.849   0.557   6.679
   43POPC   CN2 2186   3.911   0.782   6.723
   43POPC   CN3 2187   3.712   0.736   6.601
   43POPC   NTM 2188   3.797   0.690   6.712
   43POPC    CA 2189   3.721   0.692   6.839
   43POPC    CB 2190   3.609   0.590   6.868
   43POPC    OA 2191   3.523   0.562   6.759
   43POPC     P 2192   3.393   0.485   6.800
   43POPC    OB 2193   3.435   0.375   6.890
   43POPC    OC 2194   3.299   0.586   6.852
   43POPC    OD 2195   3.349   0.422   6.664
   43POPC    CC 2196   3.440   0.322   6.620
   43POPC    CD 2197   3.446   0.293   6.469
   43POPC    OE 2198   3.513   0.396   6.393
   43POPC   C1A 2199   3.645   0.385   6.376
   43POPC    OF 2200   3.712   0.309   6.447
   43POPC   C1B 2201   3.698   0.484   6.280
   43POPC   C1C 2202   3.827   0.438   6.212
   43POPC   C1D 2203   3.870   0.543   6.109
   43POPC   C1E 2204   4.012   0.518   6.060
   43POPC   C1F 2205   4.052   0.620   5.953
   43POPC   C1G 2206   4.066   0.763   6.006
   43POPC   C1H 2207   4.097   0.857   5.889
   43POPC   C1I 2208   4.112   1.002   5.934
   43POPC   C1J 2209   4.184   1.085   5.859
   43POPC   C1K 2210   4.251   1.032   5.732
   43POPC   C1L 2211   4.252   1.136   5.620
   43POPC   C1M 2212   4.319   1.078   5.495
   43POPC   C1N 2213   4.317   1.177   5.379
   43POPC   C1O 2214   4.386   1.117   5.256
   43POPC   C1P 2215   4.382   1.211   5.135
   43POPC   C1Q 2216   4.242   1.229   5.076
   43POPC   C1R 2217   4.189   1.101   5.010
   43POPC    CE 2218   3.305   0.252   6.422
   43POPC    OG 2219   3.298   0.217   6.282
   43POPC   C2A 2220   3.250   0.311   6.201
   43POPC    OH 2221   3.175   0.399   6.243
   43POPC   C2B 2222   3.278   0.285   6.058
   43POPC   C2C 2223   3.412   0.347   6.018
   43POPC   C2D 2224   3.447   0.324   5.871
   43POPC   C2E 2225   3.356   0.402   5.776
   43POPC   C2F 2226   3.400   0.381   5.631
   43POPC   C2G 2227   3.315   0.464   5.535
   43POPC   C2H 2228   3.359   0.449   5.389
   43POPC   C2I 2229   3.335   0.308   5.334
   43POPC   C2J 2230   3.386   0.296   5.191
   43POPC   C2K 2231   3.373   0.152   5.141
   43POPC   C2L 2232   3.433   0.137   5.001
   43POPC   C2M 2233   3.428  16.974   4.956
   43POPC   C2N 2234   3.494  16.957   4.819
   43POPC   C2O 2235   3.493  16.810   4.777
   43POPC   C2P 2236   3.560  16.792   4.640
   44POPC   CN1 2237   3.864   1.754   6.901
   44POPC   CN2 2238   3.850   1.611   6.711
   44POPC   CN3 2239   4.058   1.641   6.824
   44POPC   NTM 2240   3.913   1.628   6.843
   44POPC    CA 2241   3.877   1.518   6.935
   44POPC    CB 2242   3.939   1.378   6.919
   44POPC    OA 2243   3.938   1.323   6.787
   44POPC     P 2244   4.022   1.192   6.774
   44POPC    OB 2245   4.007   1.116   6.899
   44POPC    OC 2246   3.995   1.130   6.644
   44POPC    OD 2247   4.168   1.250   6.776
   44POPC    CC 2248   4.201   1.317   6.654
   44POPC    CD 2249   4.331   1.399   6.666
   44POPC    OE 2250   4.344   1.501   6.565
   44POPC   C1A 2251   4.416   1.610   6.591
   44POPC    OF 2252   4.467   1.625   6.703
   44POPC   C1B 2253   4.420   1.707   6.479
   44POPC   C1C 2254   4.553   1.782   6.473
   44POPC   C1D 2255   4.557   1.885   6.359
   44POPC   C1E 2256   4.458   2.000   6.382
   44POPC   C1F 2257   4.466   2.100   6.267
   44POPC   C1G 2258   4.369   2.217   6.288
   44POPC   C1H 2259   4.380   2.316   6.172
   44POPC   C1I 2260   4.285   2.434   6.192
   44POPC   C1J 2261   4.233   2.496   6.087
   44POPC   C1K 2262   4.268   2.447   5.946
   44POPC   C1L 2263   4.153   2.476   5.849
   44POPC   C1M 2264   4.193   2.440   5.705
   44POPC   C1N 2265   4.079   2.471   5.609
   44POPC   C1O 2266   4.119   2.442   5.464
   44POPC   C1P 2267   4.000   2.464   5.370
   44POPC   C1Q 2268   4.034   2.436   5.224
   44POPC   C1R 2269   4.131   2.539   5.166
   44POPC    CE 2270   4.447   1.298   6.683
   44POPC    OG 2271   4.446   1.186   6.593
   44POPC   C2A 2272   4.547   1.099   6.602
   44POPC    OH 2273   4.631   1.111   6.691
   44POPC   C2B 2274   4.536   0.986   6.507
   44POPC   C2C 2275   4.603   1.015   6.373
   44POPC   C2D 2276   4.581   0.896   6.279
   44POPC   C2E 2277   4.656   0.911   6.146
   44POPC   C2F 2278   4.602   1.023   6.058
   44POPC   C2G 2279   4.684   1.032   5.929
   44POPC   C2H 2280   4.635   1.145   5.838
   44POPC   C2I 2281   4.724   1.152   5.713
   44POPC   C2J 2282   4.677   1.262   5.618
   44POPC   C2K 2283   4.762   1.263   5.491
   44POPC   C2L 2284   4.713   1.371   5.395
   44POPC   C2M 2285   4.791   1.366   5.263
   44POPC   C2N 2286   4.736   1.470   5.165
   44POPC   C2O 2287   4.808   1.465   5.029
   44POPC   C2P 2288   4.779   1.335   4.954
   45POPC   CN1 2289   5.318  16.697   6.429
   45POPC   CN2 2290   5.410  16.830   6.256
   45POPC   CN3 2291   5.176  16.838   6.299
   45POPC   NTM 2292   5.308  16.827   6.361
   45POPC    CA 2293   5.331  16.934   6.461
   45POPC    CB 2294   5.315   0.100   6.420
   45POPC    OA 2295   5.398   0.147   6.314
   45POPC     P 2296   5.360   0.294   6.269
   45POPC    OB 2297   5.305   0.364   6.386
   45POPC    OC 2298   5.472   0.351   6.193
   45POPC    OD 2299   5.237   0.256   6.178
   45POPC    CC 2300   5.275   0.233   6.043
   45POPC    CD 2301   5.163   0.173   5.956
   45POPC    OE 2302   5.207   0.138   5.822
   45POPC   C1A 2303   5.267   0.021   5.800
   45POPC    OF 2304   5.275  16.919   5.889
   45POPC   C1B 2305   5.318   0.008   5.662
   45POPC   C1C 2306   5.469   0.034   5.656
   45POPC   C1D 2307   5.527   0.021   5.515
   45POPC   C1E 2308   5.475   0.132   5.424
   45POPC   C1F 2309   5.544   0.132   5.287
   45POPC   C1G 2310   5.492   0.250   5.205
   45POPC   C1H 2311   5.571   0.269   5.076
   45POPC   C1I 2312   5.522   0.395   5.004
   45POPC   C1J 2313   5.546   0.414   4.875
   45POPC   C1K 2314   5.626   0.312   4.795
   45POPC   C1L 2315   5.576   0.308   4.651
   45POPC   C1M 2316   5.661   0.214   4.566
   45POPC   C1N 2317   5.601   0.202   4.426
   45POPC   C1O 2318   5.684   0.113   4.334
   45POPC   C1P 2319   5.814   0.180   4.288
   45POPC   C1Q 2320   5.887   0.090   4.189
   45POPC   C1R 2321   6.012   0.159   4.135
   45POPC    CE 2322   5.042   0.267   5.965
   45POPC    OG 2323   5.056   0.401   5.913
   45POPC   C2A 2324   4.960   0.488   5.944
   45POPC    OH 2325   4.883   0.468   6.038
   45POPC   C2B 2326   4.970   0.617   5.872
   45POPC   C2C 2327   4.884   0.622   5.745
   45POPC   C2D 2328   4.877   0.767   5.696
   45POPC   C2E 2329   4.783   0.787   5.576
   45POPC   C2F 2330   4.853   0.762   5.442
   45POPC   C2G 2331   4.762   0.807   5.327
   45POPC   C2H 2332   4.834   0.799   5.192
   45POPC   C2I 2333   4.743   0.849   5.080
   45POPC   C2J 2334   4.808   0.842   4.942
   45POPC   C2K 2335   4.924   0.942   4.926
   45POPC   C2L 2336   4.985   0.939   4.786
   45POPC   C2M 2337   5.056   0.807   4.755
   45POPC   C2N 2338   5.130   0.815   4.621
   45POPC   C2O 2339   5.204   0.685   4.592
   45POPC   C2P 2340   5.283   0.694   4.461
   46POPC   CN1 2341   7.024   1.455   6.251
   46POPC   CN2 2342   6.940   1.304   6.412
   46POPC   CN3 2343   6.898   1.538   6.435
   46POPC   NTM 2344   6.909   1.428   6.339
   46POPC    CA 2345   6.787   1.418   6.255
   46POPC    CB 2346   6.649   1.384   6.316
   46POPC    OA 2347   6.640   1.253   6.373
   46POPC     P 2348   6.501   1.221   6.438
   46POPC    OB 2349   6.521   1.098   6.517
   46POPC    OC 2350   6.449   1.343   6.501
   46POPC    OD 2351   6.415   1.197   6.310
   46POPC    CC 2352   6.432   1.069   6.250
   46POPC    CD 2353   6.347   1.050   6.123
   46POPC    OE 2354   6.359   0.917   6.068
   46POPC   C1A 2355   6.252   0.861   6.013
   46POPC    OF 2356   6.138   0.905   6.033
   46POPC   C1B 2357   6.283   0.729   5.952
   46POPC   C1C 2358   6.203   0.699   5.825
   46POPC   C1D 2359   6.248   0.781   5.704
   46POPC   C1E 2360   6.162   0.743   5.583
   46POPC   C1F 2361   6.193   0.824   5.457
   46POPC   C1G 2362   6.327   0.786   5.394
   46POPC   C1H 2363   6.339   0.855   5.257
   46POPC   C1I 2364   6.465   0.813   5.182
   46POPC   C1J 2365   6.456   0.787   5.052
   46POPC   C1K 2366   6.319   0.794   4.984
   46POPC   C1L 2367   6.325   0.841   4.838
   46POPC   C1M 2368   6.363   0.988   4.825
   46POPC   C1N 2369   6.362   1.033   4.678
   46POPC   C1O 2370   6.411   1.177   4.666
   46POPC   C1P 2371   6.416   1.220   4.519
   46POPC   C1Q 2372   6.479   1.359   4.502
   46POPC   C1R 2373   6.628   1.360   4.536
   46POPC    CE 2374   6.388   1.165   6.028
   46POPC    OG 2375   6.327   1.164   5.897
   46POPC   C2A 2376   6.365   1.255   5.810
   46POPC    OH 2377   6.440   1.348   5.842
   46POPC   C2B 2378   6.301   1.234   5.678
   46POPC   C2C 2379   6.382   1.291   5.560
   46POPC   C2D 2380   6.318   1.246   5.428
   46POPC   C2E 2381   6.379   1.318   5.308
   46POPC   C2F 2382   6.310   1.272   5.179
   46POPC   C2G 2383   6.347   1.358   5.057
   46POPC   C2H 2384   6.295   1.501   5.071
   46POPC   C2I 2385   6.314   1.585   4.944
   46POPC   C2J 2386   6.222   1.538   4.831
   46POPC   C2K 2387   6.234   1.628   4.708
   46POPC   C2L 2388   6.137   1.582   4.599
   46POPC   C2M 2389   6.141   1.672   4.475
   46POPC   C2N 2390   6.086   1.813   4.499
   46POPC   C2O 2391   5.935   1.813   4.525
   46POPC   C2P 2392   5.884   1.956   4.547
   47POPC   CN1 2393   7.747   0.283   6.006
   47POPC   CN2 2394   7.627   0.483   5.965
   47POPC   CN3 2395   7.610   0.373   6.177
   47POPC   NTM 2396   7.701   0.408   6.067
   47POPC    CA 2397   7.819   0.481   6.119
   47POPC    CB 2398   7.806   0.630   6.160
   47POPC    OA 2399   7.692   0.670   6.236
   47POPC     P 2400   7.694   0.827   6.254
   47POPC    OB 2401   7.601   0.849   6.365
   47POPC    OC 2402   7.833   0.873   6.264
   47POPC    OD 2403   7.633   0.870   6.116
   47POPC    CC 2404   7.491   0.857   6.104
   47POPC    CD 2405   7.407   0.982   6.134
   47POPC    OE 2406   7.265   0.954   6.134
   47POPC   C1A 2407   7.178   1.038   6.190
   47POPC    OF 2408   7.214   1.142   6.244
   47POPC   C1B 2409   7.038   0.990   6.183
   47POPC   C1C 2410   6.963   1.058   6.068
   47POPC   C1D 2411   6.828   0.989   6.048
   47POPC   C1E 2412   6.743   1.057   5.940
   47POPC   C1F 2413   6.809   1.059   5.802
   47POPC   C1G 2414   6.720   1.136   5.705
   47POPC   C1H 2415   6.790   1.167   5.573
   47POPC   C1I 2416   6.803   1.045   5.481
   47POPC   C1J 2417   6.812   1.066   5.350
   47POPC   C1K 2418   6.809   1.209   5.298
   47POPC   C1L 2419   6.910   1.233   5.185
   47POPC   C1M 2420   6.870   1.167   5.053
   47POPC   C1N 2421   6.977   1.195   4.947
   47POPC   C1O 2422   6.939   1.141   4.809
   47POPC   C1P 2423   6.935   0.988   4.805
   47POPC   C1Q 2424   6.902   0.934   4.665
   47POPC   C1R 2425   6.760   0.969   4.621
   47POPC    CE 2426   7.458   1.095   6.041
   47POPC    OG 2427   7.460   1.069   5.900
   47POPC   C2A 2428   7.504   1.168   5.823
   47POPC    OH 2429   7.534   1.278   5.871
   47POPC   C2B 2430   7.504   1.133   5.679
   47POPC   C2C 2431   7.607   1.212   5.598
   47POPC   C2D 2432   7.612   1.166   5.452
   47POPC   C2E 2433   7.710   1.253   5.374
   47POPC   C2F 2434   7.739   1.199   5.233
   47POPC   C2G 2435   7.840   1.291   5.165
   47POPC   C2H 2436   7.896   1.234   5.035
   47POPC   C2I 2437   7.999   1.331   4.976
   47POPC   C2J 2438   8.072   1.278   4.853
   47POPC   C2K 2439   8.167   1.161   4.882
   47POPC   C2L 2440   8.287   1.203   4.967
   47POPC   C2M 2441   8.383   1.086   4.995
   47POPC   C2N 2442   8.462   1.040   4.872
   47POPC   C2O 2443   8.566   1.144   4.829
   47POPC   C2P 2444   8.646   1.095   4.708
   48POPC   CN1 2445   8.151   1.224   6.335
   48POPC   CN2 2446   8.212   1.015   6.430
   48POPC   CN3 2447   8.144   1.192   6.573
   48POPC   NTM 2448   8.120   1.128   6.443
   48POPC    CA 2449   7.982   1.075   6.431
   48POPC    CB 2450   7.857   1.165   6.454
   48POPC    OA 2451   7.851   1.290   6.385
   48POPC     P 2452   7.764   1.287   6.254
   48POPC    OB 2453   7.645   1.204   6.277
   48POPC    OC 2454   7.746   1.428   6.215
   48POPC    OD 2455   7.863   1.214   6.157
   48POPC    CC 2456   7.837   1.245   6.020
   48POPC    CD 2457   7.943   1.188   5.925
   48POPC    OE 2458   7.946   1.258   5.797
   48POPC   C1A 2459   8.050   1.241   5.716
   48POPC    OF 2460   8.155   1.190   5.758
   48POPC   C1B 2461   8.031   1.302   5.583
   48POPC   C1C 2462   8.163   1.342   5.517
   48POPC   C1D 2463   8.142   1.413   5.384
   48POPC   C1E 2464   8.276   1.465   5.331
   48POPC   C1F 2465   8.258   1.533   5.195
   48POPC   C1G 2466   8.389   1.595   5.148
   48POPC   C1H 2467   8.376   1.654   5.008
   48POPC   C1I 2468   8.507   1.720   4.966
   48POPC   C1J 2469   8.553   1.706   4.842
   48POPC   C1K 2470   8.476   1.621   4.740
   48POPC   C1L 2471   8.573   1.555   4.642
   48POPC   C1M 2472   8.497   1.482   4.531
   48POPC   C1N 2473   8.592   1.413   4.432
   48POPC   C1O 2474   8.678   1.512   4.353
   48POPC   C1P 2475   8.772   1.443   4.253
   48POPC   C1Q 2476   8.881   1.357   4.320
   48POPC   C1R 2477   8.984   1.441   4.396
   48POPC    CE 2478   7.920   1.035   5.920
   48POPC    OG 2479   7.813   0.989   5.837
   48POPC   C2A 2480   7.804   0.858   5.821
   48POPC    OH 2481   7.862   0.778   5.896
   48POPC   C2B 2482   7.711   0.816   5.714
   48POPC   C2C 2483   7.785   0.760   5.592
   48POPC   C2D 2484   7.866   0.866   5.517
   48POPC   C2E 2485   7.930   0.807   5.391
   48POPC   C2F 2486   7.998   0.917   5.310
   48POPC   C2G 2487   8.060   0.867   5.179
   48POPC   C2H 2488   7.957   0.809   5.082
   48POPC   C2I 2489   8.023   0.775   4.948
   48POPC   C2J 2490   7.930   0.697   4.854
   48POPC   C2K 2491   7.905   0.555   4.905
   48POPC   C2L 2492   7.819   0.472   4.810
   48POPC   C2M 2493   7.888   0.440   4.677
   48POPC   C2N 2494   7.799   0.350   4.591
   48POPC   C2O 2495   7.864   0.320   4.456
   48POPC   C2P 2496   7.773   0.231   4.371
   49POPC   CN1 2497   9.284  16.743   6.232
   49POPC   CN2 2498   9.064  16.731   6.144
   49POPC   CN3 2499   9.117  16.891   6.315
   49POPC   NTM 2500   9.167  16.824   6.194
   49POPC    CA 2501   9.209  16.920   6.089
   49POPC    CB 2502   9.114   0.048   6.039
   49POPC    OA 2503   8.984   0.008   5.996
   49POPC     P 2504   8.967   0.015   5.839
   49POPC    OB 2505   9.094  16.958   5.778
   49POPC    OC 2506   8.838  16.939   5.807
   49POPC    OD 2507   8.953   0.170   5.826
   49POPC    CC 2508   8.917   0.199   5.691
   49POPC    CD 2509   8.933   0.347   5.656
   49POPC    OE 2510   8.852   0.385   5.542
   49POPC   C1A 2511   8.827   0.513   5.518
   49POPC    OF 2512   8.839   0.595   5.609
   49POPC   C1B 2513   8.757   0.534   5.389
   49POPC   C1C 2514   8.813   0.653   5.311
   49POPC   C1D 2515   8.747   0.658   5.174
   49POPC   C1E 2516   8.805   0.770   5.087
   49POPC   C1F 2517   8.761   0.755   4.941
   49POPC   C1G 2518   8.820   0.628   4.879
   49POPC   C1H 2519   8.769   0.604   4.737
   49POPC   C1I 2520   8.820   0.468   4.689
   49POPC   C1J 2521   8.817   0.434   4.560
   49POPC   C1K 2522   8.762   0.530   4.455
   49POPC   C1L 2523   8.685   0.451   4.349
   49POPC   C1M 2524   8.628   0.543   4.242
   49POPC   C1N 2525   8.535   0.469   4.145
   49POPC   C1O 2526   8.609   0.368   4.057
   49POPC   C1P 2527   8.509   0.299   3.964
   49POPC   C1Q 2528   8.578   0.198   3.872
   49POPC   C1R 2529   8.477   0.130   3.781
   49POPC    CE 2530   9.085   0.369   5.642
   49POPC    OG 2531   9.143   0.306   5.526
   49POPC   C2A 2532   9.171   0.387   5.424
   49POPC    OH 2533   9.183   0.509   5.442
   49POPC   C2B 2534   9.204   0.317   5.298
   49POPC   C2C 2535   9.179   0.408   5.177
   49POPC   C2D 2536   9.216   0.341   5.045
   49POPC   C2E 2537   9.193   0.440   4.931
   49POPC   C2F 2538   9.218   0.376   4.794
   49POPC   C2G 2539   9.202   0.481   4.684
   49POPC   C2H 2540   9.217   0.418   4.546
   49POPC   C2I 2541   9.195   0.523   4.437
   49POPC   C2J 2542   9.211   0.460   4.298
   49POPC   C2K 2543   9.192   0.565   4.189
   49POPC   C2L 2544   9.225   0.508   4.051
   49POPC   C2M 2545   9.224   0.620   3.946
   49POPC   C2N 2546   9.274   0.571   3.811
   49POPC   C2O 2547   9.284   0.685   3.709
   49POPC   C2P 2548   9.395   0.785   3.743
   50POPC   CN1 2549   9.346   1.052   5.750
   50POPC   CN2 2550   9.415   1.281   5.768
   50POPC   CN3 2551   9.275   1.185   5.933
   50POPC   NTM 2552   9.388   1.158   5.843
   50POPC    CA 2553   9.502   1.113   5.927
   50POPC    CB 2554   9.645   1.095   5.869
   50POPC    OA 2555   9.711   1.216   5.832
   50POPC     P 2556   9.848   1.185   5.761
   50POPC    OB 2557   9.931   1.119   5.862
   50POPC    OC 2558   9.811   1.122   5.635
   50POPC    OD 2559   9.894   1.333   5.740
   50POPC    CC 2560   9.817   1.394   5.635
   50POPC    CD 2561   9.880   1.517   5.569
   50POPC    OE 2562   9.782   1.594   5.494
   50POPC   C1A 2563   9.811   1.721   5.464
   50POPC    OF 2564   9.900   1.780   5.525
   50POPC   C1B 2565   9.711   1.783   5.374
   50POPC   C1C 2566   9.755   1.770   5.228
   50POPC   C1D 2567   9.648   1.825   5.134
   50POPC   C1E 2568   9.700   1.827   4.990
   50POPC   C1F 2569   9.592   1.874   4.893
   50POPC   C1G 2570   9.648   1.885   4.751
   50POPC   C1H 2571   9.538   1.915   4.650
   50POPC   C1I 2572   9.596   1.928   4.509
   50POPC   C1J 2573   9.530   1.999   4.417
   50POPC   C1K 2574   9.395   2.061   4.454
   50POPC   C1L 2575   9.382   2.208   4.412
   50POPC   C1M 2576   9.372   2.229   4.260
   50POPC   C1N 2577   9.357   2.378   4.231
   50POPC   C1O 2578   9.342   2.405   4.081
   50POPC   C1P 2579   9.314   2.553   4.057
   50POPC   C1Q 2580   9.286   2.581   3.909
   50POPC   C1R 2581   9.251   2.728   3.887
   50POPC    CE 2582  10.007   1.466   5.496
   50POPC    OG 2583   9.987   1.354   5.408
   50POPC   C2A 2584  10.090   1.274   5.384
   50POPC    OH 2585  10.193   1.280   5.451
   50POPC   C2B 2586  10.058   1.171   5.282
   50POPC   C2C 2587  10.183   1.108   5.219
   50POPC   C2D 2588  10.147   1.016   5.102
   50POPC   C2E 2589  10.103   1.095   4.979
   50POPC   C2F 2590  10.069   1.003   4.862
   50POPC   C2G 2591  10.044   1.086   4.736
   50POPC   C2H 2592  10.012   0.996   4.616
   50POPC   C2I 2593  10.008   1.078   4.488
   50POPC   C2J 2594   9.983   0.989   4.366
   50POPC   C2K 2595  10.010   1.063   4.235
   50POPC   C2L 2596   9.906   1.169   4.198
   50POPC   C2M 2597   9.778   1.107   4.143
   50POPC   C2N 2598   9.686   1.214   4.084
   50POPC   C2O 2599   9.566   1.149   4.016
   50POPC   C2P 2600   9.479   1.254   3.945
   51POPC   CN1 2601  11.469   0.542   6.588
   51POPC   CN2 2602  11.627   0.371   6.539
   51POPC   CN3 2603  11.406   0.360   6.449
   51POPC   NTM 2604  11.517   0.451   6.483
   51POPC    CA 2605  11.560   0.531   6.366
   51POPC    CB 2606  11.643   0.467   6.252
   51POPC    OA 2607  11.589   0.350   6.192
   51POPC     P 2608  11.681   0.291   6.079
   51POPC    OB 2609  11.817   0.287   6.137
   51POPC    OC 2610  11.609   0.167   6.047
   51POPC    OD 2611  11.660   0.406   5.974
   51POPC    CC 2612  11.539   0.393   5.899
   51POPC    CD 2613  11.493   0.520   5.824
   51POPC    OE 2614  11.359   0.509   5.770
   51POPC   C1A 2615  11.276   0.614   5.774
   51POPC    OF 2616  11.300   0.710   5.849
   51POPC   C1B 2617  11.153   0.592   5.696
   51POPC   C1C 2618  11.169   0.644   5.553
   51POPC   C1D 2619  11.047   0.611   5.466
   51POPC   C1E 2620  11.063   0.668   5.325
   51POPC   C1F 2621  10.943   0.634   5.236
   51POPC   C1G 2622  10.965   0.686   5.094
   51POPC   C1H 2623  10.850   0.649   5.001
   51POPC   C1I 2624  10.876   0.702   4.860
   51POPC   C1J 2625  10.778   0.732   4.775
   51POPC   C1K 2626  10.631   0.713   4.810
   51POPC   C1L 2627  10.567   0.595   4.734
   51POPC   C1M 2628  10.545   0.621   4.584
   51POPC   C1N 2629  10.434   0.723   4.557
   51POPC   C1O 2630  10.413   0.746   4.407
   51POPC   C1P 2631  10.358   0.623   4.335
   51POPC   C1Q 2632  10.343   0.645   4.184
   51POPC   C1R 2633  10.235   0.747   4.148
   51POPC    CE 2634  11.601   0.555   5.720
   51POPC    OG 2635  11.650   0.449   5.636
   51POPC   C2A 2636  11.743   0.484   5.547
   51POPC    OH 2637  11.758   0.601   5.511
   51POPC   C2B 2638  11.810   0.368   5.486
   51POPC   C2C 2639  11.757   0.335   5.347
   51POPC   C2D 2640  11.834   0.215   5.289
   51POPC   C2E 2641  11.800   0.193   5.142
   51POPC   C2F 2642  11.659   0.137   5.119
   51POPC   C2G 2643  11.616   0.152   4.973
   51POPC   C2H 2644  11.707   0.075   4.877
   51POPC   C2I 2645  11.683   0.121   4.733
   51POPC   C2J 2646  11.790   0.062   4.641
   51POPC   C2K 2647  11.786   0.132   4.505
   51POPC   C2L 2648  11.902   0.084   4.418
   51POPC   C2M 2649  11.914   0.170   4.292
   51POPC   C2N 2650  12.033   0.126   4.208
   51POPC   C2O 2651  12.058   0.221   4.090
   51POPC   C2P 2652  12.107   0.358   4.135
   52POPC   CN1 2653  12.316   1.075   6.076
   52POPC   CN2 2654  12.100   1.027   6.161
   52POPC   CN3 2655  12.138   1.038   5.925
   52POPC   NTM 2656  12.195   0.996   6.053
   52POPC    CA 2657  12.236   0.854   6.051
   52POPC    CB 2658  12.131   0.741   6.045
   52POPC    OA 2659  12.042   0.743   5.934
   52POPC     P 2660  11.917   0.650   5.955
   52POPC    OB 2661  11.870   0.677   6.093
   52POPC    OC 2662  11.838   0.687   5.838
   52POPC    OD 2663  11.990   0.511   5.945
   52POPC    CC 2664  12.013   0.469   5.811
   52POPC    CD 2665  12.098   0.340   5.799
   52POPC    OE 2666  12.141   0.310   5.663
   52POPC   C1A 2667  12.247   0.372   5.611
   52POPC    OF 2668  12.303   0.464   5.670
   52POPC   C1B 2669  12.282   0.321   5.476
   52POPC   C1C 2670  12.223   0.405   5.363
   52POPC   C1D 2671  12.255   0.348   5.225
   52POPC   C1E 2672  12.405   0.340   5.199
   52POPC   C1F 2673  12.437   0.293   5.056
   52POPC   C1G 2674  12.588   0.276   5.041
   52POPC   C1H 2675  12.629   0.248   4.897
   52POPC   C1I 2676  12.780   0.227   4.888
   52POPC   C1J 2677  12.850   0.276   4.785
   52POPC   C1K 2678  12.780   0.356   4.675
   52POPC   C1L 2679  12.876   0.456   4.611
   52POPC   C1M 2680  12.803   0.537   4.504
   52POPC   C1N 2681  12.895   0.641   4.440
   52POPC   C1O 2682  12.815   0.728   4.343
   52POPC   C1P 2683  12.902   0.838   4.281
   52POPC   C1Q 2684  12.816   0.927   4.191
   52POPC   C1R 2685  12.901   1.037   4.127
   52POPC    CE 2686  12.019   0.226   5.866
   52POPC    OG 2687  11.890   0.199   5.806
   52POPC   C2A 2688  11.831   0.084   5.836
   52POPC    OH 2689  11.865   0.015   5.933
   52POPC   C2B 2690  11.712   0.059   5.751
   52POPC   C2C 2691  11.749  16.965   5.624
   52POPC   C2D 2692  11.775  16.817   5.651
   52POPC   C2E 2693  11.836  16.744   5.532
   52POPC   C2F 2694  11.751  16.750   5.404
   52POPC   C2G 2695  11.824  16.678   5.291
   52POPC   C2H 2696  11.751  16.695   5.157
   52POPC   C2I 2697  11.831  16.629   5.045
   52POPC   C2J 2698  11.769  16.659   4.909
   52POPC   C2K 2699  11.854  16.601   4.796
   52POPC   C2L 2700  11.799  16.644   4.660
   52POPC   C2M 2701  11.891  16.601   4.546
   52POPC   C2N 2702  11.843  16.663   4.415
   52POPC   C2O 2703  11.938  16.631   4.300
   52POPC   C2P 2704  11.891  16.699   4.171
   53POPC   CN1 2705  12.813   0.312   6.032
   53POPC   CN2 2706  12.895   0.097   5.962
   53POPC   CN3 2707  13.004   0.215   6.136
   53POPC   NTM 2708  12.873   0.186   6.077
   53POPC    CA 2709  12.789   0.122   6.182
   53POPC    CB 2710  12.653   0.059   6.144
   53POPC    OA 2711  12.556   0.141   6.077
   53POPC     P 2712  12.456   0.050   5.994
   53POPC    OB 2713  12.443  16.905   6.063
   53POPC    OC 2714  12.338   0.134   5.972
   53POPC    OD 2715  12.548   0.033   5.868
   53POPC    CC 2716  12.528   0.136   5.771
   53POPC    CD 2717  12.621   0.125   5.648
   53POPC    OE 2718  12.613   0.242   5.563
   53POPC   C1A 2719  12.691   0.346   5.588
   53POPC    OF 2720  12.781   0.339   5.673
   53POPC   C1B 2721  12.670   0.460   5.496
   53POPC   C1C 2722  12.768   0.450   5.378
   53POPC   C1D 2723  12.760   0.571   5.285
   53POPC   C1E 2724  12.877   0.566   5.186
   53POPC   C1F 2725  12.891   0.695   5.106
   53POPC   C1G 2726  12.788   0.709   4.993
   53POPC   C1H 2727  12.809   0.844   4.923
   53POPC   C1I 2728  12.732   0.854   4.792
   53POPC   C1J 2729  12.785   0.927   4.694
   53POPC   C1K 2730  12.918   0.997   4.721
   53POPC   C1L 2731  12.944   1.112   4.624
   53POPC   C1M 2732  13.062   1.196   4.674
   53POPC   C1N 2733  13.102   1.308   4.578
   53POPC   C1O 2734  13.174   1.254   4.454
   53POPC   C1P 2735  13.225   1.368   4.366
   53POPC   C1Q 2736  13.309   1.318   4.248
   53POPC   C1R 2737  13.227   1.239   4.146
   53POPC    CE 2738  12.592  16.971   5.583
   53POPC    OG 2739  12.665  16.936   5.464
   53POPC   C2A 2740  12.654  16.810   5.424
   53POPC    OH 2741  12.608  16.722   5.498
   53POPC   C2B 2742  12.713  16.782   5.291
   53POPC   C2C 2743  12.601  16.769   5.186
   53POPC   C2D 2744  12.647  16.693   5.061
   53POPC   C2E 2745  12.743  16.772   4.972
   53POPC   C2F 2746  12.791  16.682   4.858
   53POPC   C2G 2747  12.879  16.755   4.756
   53POPC   C2H 2748  12.799  16.849   4.666
   53POPC   C2I 2749  12.890  16.907   4.557
   53POPC   C2J 2750  12.812   0.011   4.459
   53POPC   C2K 2751  12.907   0.069   4.353
   53POPC   C2L 2752  12.830   0.153   4.252
   53POPC   C2M 2753  12.922   0.208   4.143
   53POPC   C2N 2754  12.841   0.282   4.037
   53POPC   C2O 2755  12.930   0.331   3.923
   53POPC   C2P 2756  12.847   0.397   3.813
   54POPC   CN1 2757  14.335   1.019   5.911
   54POPC   CN2 2758  14.226   0.852   6.043
   54POPC   CN3 2759  14.358   1.023   6.144
   54POPC   NTM 2760  14.263   0.994   6.036
   54POPC    CA 2761  14.145   1.083   6.053
   54POPC    CB 2762  14.023   1.073   5.957
   54POPC    OA 2763  14.058   1.085   5.819
   54POPC     P 2764  13.938   1.067   5.720
   54POPC    OB 2765  13.824   1.147   5.771
   54POPC    OC 2766  13.997   1.090   5.588
   54POPC    OD 2767  13.906   0.915   5.742
   54POPC    CC 2768  13.991   0.827   5.667
   54POPC    CD 2769  13.931   0.686   5.654
   54POPC    OE 2770  14.017   0.585   5.595
   54POPC   C1A 2771  14.123   0.534   5.658
   54POPC    OF 2772  14.158   0.572   5.770
   54POPC   C1B 2773  14.189   0.428   5.578
   54POPC   C1C 2774  14.296   0.486   5.485
   54POPC   C1D 2775  14.348   0.379   5.387
   54POPC   C1E 2776  14.242   0.336   5.285
   54POPC   C1F 2777  14.209   0.444   5.182
   54POPC   C1G 2778  14.318   0.460   5.076
   54POPC   C1H 2779  14.324   0.341   4.980
   54POPC   C1I 2780  14.440   0.357   4.882
   54POPC   C1J 2781  14.431   0.310   4.758
   54POPC   C1K 2782  14.305   0.237   4.712
   54POPC   C1L 2783  14.338   0.149   4.591
   54POPC   C1M 2784  14.213   0.085   4.531
   54POPC   C1N 2785  14.246   0.007   4.404
   54POPC   C1O 2786  14.293   0.100   4.291
   54POPC   C1P 2787  14.345   0.020   4.172
   54POPC   C1Q 2788  14.396   0.113   4.062
   54POPC   C1R 2789  14.456   0.031   3.948
   54POPC    CE 2790  13.800   0.705   5.576
   54POPC    OG 2791  13.818   0.757   5.442
   54POPC   C2A 2792  13.711   0.765   5.365
   54POPC    OH 2793  13.597   0.742   5.407
   54POPC   C2B 2794  13.744   0.809   5.228
   54POPC   C2C 2795  13.759   0.690   5.132
   54POPC   C2D 2796  13.821   0.731   4.998
   54POPC   C2E 2797  13.733   0.828   4.918
   54POPC   C2F 2798  13.807   0.875   4.792
   54POPC   C2G 2799  13.726   0.976   4.710
   54POPC   C2H 2800  13.703   1.106   4.786
   54POPC   C2I 2801  13.616   1.202   4.703
   54POPC   C2J 2802  13.584   1.327   4.784
   54POPC   C2K 2803  13.491   1.420   4.706
   54POPC   C2L 2804  13.444   1.536   4.793
   54POPC   C2M 2805  13.344   1.623   4.717
   54POPC   C2N 2806  13.288   1.734   4.806
   54POPC   C2O 2807  13.182   1.818   4.735
   54POPC   C2P 2808  13.055   1.739   4.704
   55POPC   CN1 2809  15.109   1.511   6.469
   55POPC   CN2 2810  14.886   1.435   6.514
   55POPC   CN3 2811  14.933   1.667   6.495
   55POPC   NTM 2812  14.966   1.535   6.442
   55POPC    CA 2813  14.935   1.533   6.297
   55POPC    CB 2814  14.973   1.409   6.212
   55POPC    OA 2815  14.922   1.282   6.253
   55POPC     P 2816  15.028   1.167   6.231
   55POPC    OB 2817  15.158   1.223   6.271
   55POPC    OC 2818  14.974   1.046   6.295
   55POPC    OD 2819  15.021   1.159   6.075
   55POPC    CC 2820  15.007   1.025   6.031
   55POPC    CD 2821  14.998   1.006   5.878
   55POPC    OE 2822  14.967   0.870   5.840
   55POPC   C1A 2823  14.839   0.836   5.828
   55POPC    OF 2824  14.753   0.895   5.894
   55POPC   C1B 2825  14.819   0.706   5.760
   55POPC   C1C 2826  14.796   0.722   5.609
   55POPC   C1D 2827  14.784   0.583   5.546
   55POPC   C1E 2828  14.757   0.589   5.396
   55POPC   C1F 2829  14.754   0.447   5.340
   55POPC   C1G 2830  14.722   0.447   5.190
   55POPC   C1H 2831  14.719   0.306   5.132
   55POPC   C1I 2832  14.858   0.243   5.121
   55POPC   C1J 2833  14.880   0.145   5.033
   55POPC   C1K 2834  14.767   0.094   4.945
   55POPC   C1L 2835  14.822   0.035   4.815
   55POPC   C1M 2836  14.709  16.967   4.727
   55POPC   C1N 2837  14.766  16.907   4.598
   55POPC   C1O 2838  14.655  16.849   4.511
   55POPC   C1P 2839  14.714  16.789   4.383
   55POPC   C1Q 2840  14.604  16.727   4.297
   55POPC   C1R 2841  14.662  16.670   4.168
   55POPC    CE 2842  15.128   1.064   5.819
   55POPC    OG 2843  15.137   1.058   5.676
   55POPC   C2A 2844  15.253   1.092   5.622
   55POPC    OH 2845  15.344   1.141   5.689
   55POPC   C2B 2846  15.259   1.069   5.476
   55POPC   C2C 2847  15.240   1.195   5.392
   55POPC   C2D 2848  15.269   1.165   5.245
   55POPC   C2E 2849  15.269   1.292   5.158
   55POPC   C2F 2850  15.136   1.318   5.087
   55POPC   C2G 2851  15.114   1.219   4.972
   55POPC   C2H 2852  14.988   1.254   4.893
   55POPC   C2I 2853  14.955   1.150   4.785
   55POPC   C2J 2854  15.056   1.148   4.670
   55POPC   C2K 2855  15.028   1.033   4.573
   55POPC   C2L 2856  14.897   1.050   4.494
   55POPC   C2M 2857  14.859   0.923   4.417
   55POPC   C2N 2858  14.960   0.886   4.308
   55POPC   C2O 2859  14.924   0.752   4.243
   55POPC   C2P 2860  15.025   0.713   4.136
   56POPC   CN1 2861  15.824   0.828   6.127
   56POPC   CN2 2862  15.757   0.618   6.036
   56POPC   CN3 2863  15.915   0.626   6.213
   56POPC   NTM 2864  15.794   0.688   6.160
   56POPC    CA 2865  15.688   0.682   6.263
   56POPC    CB 2866  15.539   0.706   6.228
   56POPC    OA 2867  15.507   0.822   6.151
   56POPC     P 2868  15.353   0.829   6.122
   56POPC    OB 2869  15.277   0.769   6.233
   56POPC    OC 2870  15.313   0.959   6.067
   56POPC    OD 2871  15.347   0.725   6.003
   56POPC    CC 2872  15.393   0.784   5.881
   56POPC    CD 2873  15.392   0.693   5.758
   56POPC    OE 2874  15.435   0.766   5.640
   56POPC   C1A 2875  15.564   0.770   5.607
   56POPC    OF 2876  15.650   0.714   5.676
   56POPC   C1B 2877  15.591   0.863   5.495
   56POPC   C1C 2878  15.564   0.802   5.357
   56POPC   C1D 2879  15.583   0.909   5.250
   56POPC   C1E 2880  15.549   0.857   5.110
   56POPC   C1F 2881  15.564   0.970   5.007
   56POPC   C1G 2882  15.533   0.925   4.864
   56POPC   C1H 2883  15.386   0.889   4.845
   56POPC   C1I 2884  15.357   0.847   4.701
   56POPC   C1J 2885  15.276   0.744   4.679
   56POPC   C1K 2886  15.218   0.671   4.800
   56POPC   C1L 2887  15.206   0.520   4.775
   56POPC   C1M 2888  15.167   0.447   4.904
   56POPC   C1N 2889  15.283   0.447   5.005
   56POPC   C1O 2890  15.241   0.393   5.142
   56POPC   C1P 2891  15.152   0.491   5.219
   56POPC   C1Q 2892  15.230   0.615   5.265
   56POPC   C1R 2893  15.141   0.709   5.346
   56POPC    CE 2894  15.251   0.632   5.747
   56POPC    OG 2895  15.245   0.515   5.664
   56POPC   C2A 2896  15.135   0.441   5.665
   56POPC    OH 2897  15.042   0.462   5.744
   56POPC   C2B 2898  15.145   0.330   5.568
   56POPC   C2C 2899  15.107   0.194   5.629
   56POPC   C2D 2900  15.144   0.080   5.533
   56POPC   C2E 2901  15.063   0.082   5.403
   56POPC   C2F 2902  15.121  16.970   5.298
   56POPC   C2G 2903  15.110  16.823   5.339
   56POPC   C2H 2904  15.186  16.730   5.244
   56POPC   C2I 2905  15.128  16.728   5.102
   56POPC   C2J 2906  15.210  16.636   5.012
   56POPC   C2K 2907  15.159  16.638   4.868
   56POPC   C2L 2908  15.250  16.553   4.779
   56POPC   C2M 2909  15.206  16.552   4.633
   56POPC   C2N 2910  15.072  16.479   4.612
   56POPC   C2O 2911  15.035  16.469   4.464
   56POPC   C2P 2912  15.129  16.375   4.387
   57POPC   CN1 2913  16.521   1.458   6.088
   57POPC   CN2 2914  16.390   1.559   5.916
   57POPC   CN3 2915  16.286   1.446   6.098
   57POPC   NTM 2916  16.398   1.533   6.060
   57POPC    CA 2917  16.406   1.657   6.141
   57POPC    CB 2918  16.301   1.770   6.125
   57POPC    OA 2919  16.164   1.728   6.135
   57POPC     P 2920  16.068   1.841   6.083
   57POPC    OB 2921  16.015   1.911   6.201
   57POPC    OC 2922  16.132   1.915   5.974
   57POPC    OD 2923  15.954   1.750   6.027
   57POPC    CC 2924  15.991   1.685   5.905
   57POPC    CD 2925  15.881   1.594   5.849
   57POPC    OE 2926  15.931   1.502   5.748
   57POPC   C1A 2927  15.910   1.372   5.767
   57POPC    OF 2928  15.884   1.328   5.879
   57POPC   C1B 2929  15.932   1.290   5.646
   57POPC   C1C 2930  15.798   1.267   5.575
   57POPC   C1D 2931  15.801   1.312   5.429
   57POPC   C1E 2932  15.661   1.304   5.369
   57POPC   C1F 2933  15.660   1.334   5.218
   57POPC   C1G 2934  15.701   1.477   5.184
   57POPC   C1H 2935  15.683   1.508   5.034
   57POPC   C1I 2936  15.778   1.431   4.943
   57POPC   C1J 2937  15.730   1.362   4.840
   57POPC   C1K 2938  15.579   1.356   4.815
   57POPC   C1L 2939  15.541   1.346   4.667
   57POPC   C1M 2940  15.587   1.216   4.601
   57POPC   C1N 2941  15.536   1.207   4.457
   57POPC   C1O 2942  15.588   1.081   4.389
   57POPC   C1P 2943  15.533   1.065   4.247
   57POPC   C1Q 2944  15.383   1.033   4.244
   57POPC   C1R 2945  15.352   0.893   4.300
   57POPC    CE 2946  15.767   1.686   5.803
   57POPC    OG 2947  15.651   1.620   5.750
   57POPC   C2A 2948  15.554   1.699   5.703
   57POPC    OH 2949  15.552   1.819   5.730
   57POPC   C2B 2950  15.448   1.622   5.634
   57POPC   C2C 2951  15.388   1.699   5.516
   57POPC   C2D 2952  15.275   1.618   5.452
   57POPC   C2E 2953  15.218   1.685   5.327
   57POPC   C2F 2954  15.322   1.694   5.214
   57POPC   C2G 2955  15.258   1.736   5.082
   57POPC   C2H 2956  15.365   1.739   4.972
   57POPC   C2I 2957  15.303   1.755   4.833
   57POPC   C2J 2958  15.413   1.752   4.727
   57POPC   C2K 2959  15.358   1.751   4.584
   57POPC   C2L 2960  15.286   1.620   4.550
   57POPC   C2M 2961  15.237   1.620   4.405
   57POPC   C2N 2962  15.166   1.488   4.372
   57POPC   C2O 2963  15.114   1.490   4.228
   57POPC   C2P 2964  15.046   1.357   4.194
   58POPC   CN1 2965   0.447   1.742   6.328
   58POPC   CN2 2966   0.319   1.554   6.403
   58POPC   CN3 2967   0.515   1.621   6.520
   58POPC   NTM 2968   0.398   1.671   6.446
   58POPC    CA 2969   0.319   1.757   6.538
   58POPC    CB 2970   0.186   1.821   6.490
   58POPC    OA 2971   0.201   1.905   6.376
   58POPC     P 2972   0.067   1.961   6.318
   58POPC    OB 2973  16.958   1.986   6.429
   58POPC    OC 2974   0.113   2.069   6.230
   58POPC    OD 2975   0.024   1.831   6.241
   58POPC    CC 2976   0.094   1.816   6.117
   58POPC    CD 2977   0.073   1.681   6.048
   58POPC    OE 2978   0.170   1.653   5.943
   58POPC   C1A 2979   0.291   1.611   5.976
   58POPC    OF 2980   0.316   1.579   6.093
   58POPC   C1B 2981   0.385   1.598   5.862
   58POPC   C1C 2982   0.400   1.452   5.816
   58POPC   C1D 2983   0.500   1.441   5.702
   58POPC   C1E 2984   0.517   1.297   5.653
   58POPC   C1F 2985   0.393   1.247   5.577
   58POPC   C1G 2986   0.403   1.097   5.551
   58POPC   C1H 2987   0.278   1.045   5.479
   58POPC   C1I 2988   0.278   0.893   5.473
   58POPC   C1J 2989   0.307   0.824   5.362
   58POPC   C1K 2990   0.341   0.892   5.229
   58POPC   C1L 2991   0.289   0.807   5.113
   58POPC   C1M 2992   0.332   0.863   4.978
   58POPC   C1N 2993   0.272   0.782   4.863
   58POPC   C1O 2994   0.319   0.836   4.728
   58POPC   C1P 2995   0.251   0.765   4.610
   58POPC   C1Q 2996   0.290   0.617   4.599
   58POPC   C1R 2997   0.220   0.552   4.479
   58POPC    CE 2998  16.909   1.673   6.006
   58POPC    OG 2999  16.868   1.770   5.907
   58POPC   C2A 3000  16.746   1.754   5.856
   58POPC    OH 3001  16.668   1.670   5.901
   58POPC   C2B 3002  16.718   1.848   5.745
   58POPC   C2C 3003  16.641   1.783   5.631
   58POPC   C2D 3004  16.668   1.859   5.501
   58POPC   C2E 3005  16.598   1.798   5.380
   58POPC   C2F 3006  16.651   1.865   5.252
   58POPC   C2G 3007  16.577   1.825   5.124
   58POPC   C2H 3008  16.477   1.932   5.077
   58POPC   C2I 3009  16.344   1.927   5.152
   58POPC   C2J 3010  16.254   2.045   5.115
   58POPC   C2K 3011  16.115   2.029   5.178
   58POPC   C2L 3012  16.029   1.929   5.100
   58POPC   C2M 3013  15.907   1.879   5.179
   58POPC   C2N 3014  15.809   1.988   5.221
   58POPC   C2O 3015  15.696   1.927   5.304
   58POPC   C2P 3016  15.600   2.035   5.356
   59POPC   CN1 3017   0.648   1.138   7.053
   59POPC   CN2 3018   0.863   1.208   7.128
   59POPC   CN3 3019   0.809   0.978   7.122
   59POPC   NTM 3020   0.791   1.105   7.052
   59POPC    CA 3021   0.844   1.091   6.914
   59POPC    CB 3022   0.820   1.197   6.803
   59POPC    OA 3023   0.846   1.335   6.832
   59POPC     P 3024   0.856   1.419   6.699
   59POPC    OB 3025   0.772   1.359   6.594
   59POPC    OC 3026   0.848   1.561   6.734
   59POPC    OD 3027   1.007   1.390   6.670
   59POPC    CC 3028   1.041   1.444   6.542
   59POPC    CD 3029   1.191   1.473   6.523
   59POPC    OE 3030   1.218   1.541   6.398
   59POPC   C1A 3031   1.336   1.601   6.378
   59POPC    OF 3032   1.418   1.612   6.469
   59POPC   C1B 3033   1.354   1.652   6.240
   59POPC   C1C 3034   1.427   1.547   6.157
   59POPC   C1D 3035   1.450   1.590   6.012
   59POPC   C1E 3036   1.518   1.475   5.937
   59POPC   C1F 3037   1.543   1.511   5.791
   59POPC   C1G 3038   1.604   1.391   5.718
   59POPC   C1H 3039   1.629   1.426   5.571
   59POPC   C1I 3040   1.684   1.307   5.493
   59POPC   C1J 3041   1.658   1.300   5.362
   59POPC   C1K 3042   1.575   1.412   5.299
   59POPC   C1L 3043   1.629   1.453   5.163
   59POPC   C1M 3044   1.556   1.577   5.112
   59POPC   C1N 3045   1.616   1.632   4.983
   59POPC   C1O 3046   1.590   1.541   4.862
   59POPC   C1P 3047   1.650   1.599   4.734
   59POPC   C1Q 3048   1.583   1.729   4.691
   59POPC   C1R 3049   1.652   1.788   4.568
   59POPC    CE 3050   1.264   1.338   6.544
   59POPC    OG 3051   1.242   1.237   6.445
   59POPC   C2A 3052   1.343   1.215   6.361
   59POPC    OH 3053   1.451   1.273   6.372
   59POPC   C2B 3054   1.316   1.112   6.258
   59POPC   C2C 3055   1.284   1.174   6.122
   59POPC   C2D 3056   1.288   1.066   6.014
   59POPC   C2E 3057   1.275   1.124   5.873
   59POPC   C2F 3058   1.310   1.016   5.771
   59POPC   C2G 3059   1.302   1.068   5.627
   59POPC   C2H 3060   1.354   0.965   5.527
   59POPC   C2I 3061   1.269   0.837   5.523
   59POPC   C2J 3062   1.329   0.729   5.433
   59POPC   C2K 3063   1.327   0.768   5.285
   59POPC   C2L 3064   1.388   0.656   5.200
   59POPC   C2M 3065   1.382   0.691   5.051
   59POPC   C2N 3066   1.437   0.577   4.967
   59POPC   C2O 3067   1.430   0.611   4.818
   59POPC   C2P 3068   1.485   0.495   4.734
   60POPC   CN1 3069   1.772   1.845   6.852
   60POPC   CN2 3070   1.863   2.034   6.965
   60POPC   CN3 3071   1.895   1.818   7.053
   60POPC   NTM 3072   1.888   1.894   6.928
   60POPC    CA 3073   2.016   1.879   6.854
   60POPC    CB 3074   2.041   1.957   6.722
   60POPC    OA 3075   1.956   1.922   6.612
   60POPC     P 3076   1.934   2.049   6.522
   60POPC    OB 3077   1.851   2.135   6.606
   60POPC    OC 3078   2.069   2.088   6.478
   60POPC    OD 3079   1.852   1.978   6.409
   60POPC    CC 3080   1.934   1.915   6.311
   60POPC    CD 3081   1.865   1.803   6.232
   60POPC    OE 3082   1.953   1.738   6.137
   60POPC   C1A 3083   1.912   1.626   6.077
   60POPC    OF 3084   1.821   1.559   6.125
   60POPC   C1B 3085   1.996   1.588   5.961
   60POPC   C1C 3086   1.941   1.653   5.833
   60POPC   C1D 3087   2.026   1.613   5.712
   60POPC   C1E 3088   1.967   1.667   5.582
   60POPC   C1F 3089   2.044   1.611   5.462
   60POPC   C1G 3090   1.983   1.657   5.330
   60POPC   C1H 3091   2.053   1.596   5.208
   60POPC   C1I 3092   2.028   1.445   5.195
   60POPC   C1J 3093   2.018   1.389   5.074
   60POPC   C1K 3094   2.033   1.474   4.948
   60POPC   C1L 3095   2.061   1.384   4.827
   60POPC   C1M 3096   2.078   1.466   4.699
   60POPC   C1N 3097   2.093   1.372   4.578
   60POPC   C1O 3098   2.104   1.451   4.448
   60POPC   C1P 3099   2.104   1.360   4.324
   60POPC   C1Q 3100   2.231   1.277   4.308
   60POPC   C1R 3101   2.351   1.362   4.264
   60POPC    CE 3102   1.738   1.864   6.170
   60POPC    OG 3103   1.759   1.975   6.080
   60POPC   C2A 3104   1.651   2.028   6.024
   60POPC    OH 3105   1.541   2.011   6.076
   60POPC   C2B 3106   1.682   2.130   5.921
   60POPC   C2C 3107   1.608   2.101   5.790
   60POPC   C2D 3108   1.606   2.225   5.702
   60POPC   C2E 3109   1.538   2.201   5.567
   60POPC   C2F 3110   1.632   2.135   5.466
   60POPC   C2G 3111   1.561   2.113   5.333
   60POPC   C2H 3112   1.660   2.079   5.221
   60POPC   C2I 3113   1.587   2.057   5.088
   60POPC   C2J 3114   1.683   2.059   4.969
   60POPC   C2K 3115   1.738   2.200   4.942
   60POPC   C2L 3116   1.635   2.295   4.880
   60POPC   C2M 3117   1.615   2.272   4.730
   60POPC   C2N 3118   1.737   2.320   4.649
   60POPC   C2O 3119   1.721   2.299   4.498
   60POPC   C2P 3120   1.726   2.151   4.460
   61POPC   CN1 3121   1.934   1.328   6.315
   61POPC   CN2 3122   1.726   1.415   6.388
   61POPC   CN3 3123   1.729   1.255   6.215
   61POPC   NTM 3124   1.793   1.294   6.342
   61POPC    CA 3125   1.778   1.189   6.446
   61POPC    CB 3126   1.830   1.045   6.423
   61POPC    OA 3127   1.968   1.034   6.387
   61POPC     P 3128   2.009   0.885   6.356
   61POPC    OB 3129   2.033   0.827   6.488
   61POPC    OC 3130   1.904   0.836   6.264
   61POPC    OD 3131   2.141   0.923   6.281
   61POPC    CC 3132   2.114   0.962   6.147
   61POPC    CD 3133   2.237   1.012   6.069
   61POPC    OE 3134   2.203   1.074   5.941
   61POPC   C1A 3135   2.151   1.196   5.934
   61POPC    OF 3136   2.128   1.263   6.035
   61POPC   C1B 3137   2.122   1.236   5.795
   61POPC   C1C 3138   2.245   1.297   5.726
   61POPC   C1D 3139   2.250   1.256   5.578
   61POPC   C1E 3140   2.288   1.108   5.565
   61POPC   C1F 3141   2.285   1.056   5.421
   61POPC   C1G 3142   2.385   1.127   5.330
   61POPC   C1H 3143   2.390   1.066   5.189
   61POPC   C1I 3144   2.256   1.075   5.115
   61POPC   C1J 3145   2.254   1.095   4.984
   61POPC   C1K 3146   2.384   1.112   4.905
   61POPC   C1L 3147   2.366   1.066   4.761
   61POPC   C1M 3148   2.495   1.086   4.682
   61POPC   C1N 3149   2.480   1.030   4.540
   61POPC   C1O 3150   2.611   1.047   4.463
   61POPC   C1P 3151   2.600   0.985   4.323
   61POPC   C1Q 3152   2.729   0.998   4.243
   61POPC   C1R 3153   2.845   0.917   4.303
   61POPC    CE 3154   2.332   0.892   6.055
   61POPC    OG 3155   2.285   0.784   5.972
   61POPC   C2A 3156   2.376   0.698   5.931
   61POPC    OH 3157   2.489   0.691   5.981
   61POPC   C2B 3158   2.323   0.605   5.828
   61POPC   C2C 3159   2.414   0.590   5.705
   61POPC   C2D 3160   2.436   0.723   5.632
   61POPC   C2E 3161   2.513   0.707   5.501
   61POPC   C2F 3162   2.427   0.644   5.392
   61POPC   C2G 3163   2.494   0.658   5.255
   61POPC   C2H 3164   2.397   0.613   5.145
   61POPC   C2I 3165   2.450   0.649   5.006
   61POPC   C2J 3166   2.344   0.615   4.901
   61POPC   C2K 3167   2.384   0.654   4.759
   61POPC   C2L 3168   2.498   0.569   4.704
   61POPC   C2M 3169   2.527   0.606   4.559
   61POPC   C2N 3170   2.638   0.519   4.500
   61POPC   C2O 3171   2.666   0.550   4.352
   61POPC   C2P 3172   2.548   0.512   4.262
   62POPC   CN1 3173   3.076   1.452   6.504
   62POPC   CN2 3174   3.193   1.253   6.552
   62POPC   CN3 3175   3.304   1.437   6.445
   62POPC   NTM 3176   3.206   1.399   6.547
   62POPC    CA 3177   3.238   1.455   6.681
   62POPC    CB 3178   3.374   1.425   6.749
   62POPC    OA 3179   3.411   1.289   6.773
   62POPC     P 3180   3.561   1.282   6.821
   62POPC    OB 3181   3.588   1.394   6.913
   62POPC    OC 3182   3.587   1.144   6.865
   62POPC    OD 3183   3.627   1.308   6.681
   62POPC    CC 3184   3.650   1.188   6.607
   62POPC    CD 3185   3.694   1.207   6.460
   62POPC    OE 3186   3.721   1.083   6.388
   62POPC   C1A 3187   3.619   1.011   6.340
   62POPC    OF 3188   3.509   1.017   6.394
   62POPC   C1B 3189   3.661   0.909   6.241
   62POPC   C1C 3190   3.585   0.930   6.110
   62POPC   C1D 3191   3.637   0.837   6.000
   62POPC   C1E 3192   3.554   0.856   5.874
   62POPC   C1F 3193   3.604   0.772   5.756
   62POPC   C1G 3194   3.738   0.823   5.702
   62POPC   C1H 3195   3.775   0.747   5.575
   62POPC   C1I 3196   3.907   0.796   5.515
   62POPC   C1J 3197   3.918   0.807   5.383
   62POPC   C1K 3198   3.797   0.774   5.294
   62POPC   C1L 3199   3.821   0.657   5.197
   62POPC   C1M 3200   3.919   0.693   5.085
   62POPC   C1N 3201   3.935   0.579   4.983
   62POPC   C1O 3202   3.806   0.554   4.904
   62POPC   C1P 3203   3.823   0.446   4.797
   62POPC   C1Q 3204   3.846   0.307   4.857
   62POPC   C1R 3205   3.865   0.202   4.747
   62POPC    CE 3206   3.811   1.307   6.467
   62POPC    OG 3207   3.893   1.326   6.350
   62POPC   C2A 3208   3.991   1.414   6.362
   62POPC    OH 3209   4.001   1.488   6.461
   62POPC   C2B 3210   4.080   1.419   6.244
   62POPC   C2C 3211   4.197   1.321   6.258
   62POPC   C2D 3212   4.295   1.335   6.141
   62POPC   C2E 3213   4.371   1.468   6.145
   62POPC   C2F 3214   4.450   1.495   6.017
   62POPC   C2G 3215   4.355   1.517   5.898
   62POPC   C2H 3216   4.431   1.552   5.770
   62POPC   C2I 3217   4.333   1.567   5.654
   62POPC   C2J 3218   4.405   1.601   5.524
   62POPC   C2K 3219   4.304   1.607   5.409
   62POPC   C2L 3220   4.373   1.637   5.276
   62POPC   C2M 3221   4.270   1.639   5.163
   62POPC   C2N 3222   4.334   1.673   5.029
   62POPC   C2O 3223   4.227   1.672   4.919
   62POPC   C2P 3224   4.287   1.715   4.785
   63POPC   CN1 3225   5.129   1.857   7.385
   63POPC   CN2 3226   5.227   1.641   7.414
   63POPC   CN3 3227   5.010   1.660   7.319
   63POPC   NTM 3228   5.142   1.723   7.326
   63POPC    CA 3229   5.206   1.728   7.192
   63POPC    CB 3230   5.153   1.823   7.082
   63POPC    OA 3231   5.014   1.815   7.049
   63POPC     P 3232   4.976   1.927   6.946
   63POPC    OB 3233   4.832   1.919   6.921
   63POPC    OC 3234   5.039   2.053   6.989
   63POPC    OD 3235   5.049   1.871   6.819
   63POPC    CC 3236   5.009   1.943   6.703
   63POPC    CD 3237   5.028   1.863   6.573
   63POPC    OE 3238   4.997   1.940   6.453
   63POPC   C1A 3239   5.092   1.947   6.360
   63POPC    OF 3240   5.211   1.937   6.394
   63POPC   C1B 3241   5.044   1.996   6.229
   63POPC   C1C 3242   5.018   1.879   6.134
   63POPC   C1D 3243   4.958   1.922   6.000
   63POPC   C1E 3244   4.813   1.969   6.013
   63POPC   C1F 3245   4.750   1.994   5.876
   63POPC   C1G 3246   4.604   2.038   5.891
   63POPC   C1H 3247   4.532   2.059   5.757
   63POPC   C1I 3248   4.588   2.177   5.677
   63POPC   C1J 3249   4.568   2.187   5.546
   63POPC   C1K 3250   4.484   2.082   5.473
   63POPC   C1L 3251   4.424   2.141   5.345
   63POPC   C1M 3252   4.337   2.038   5.273
   63POPC   C1N 3253   4.278   2.092   5.142
   63POPC   C1O 3254   4.384   2.106   5.032
   63POPC   C1P 3255   4.321   2.155   4.902
   63POPC   C1Q 3256   4.426   2.165   4.791
   63POPC   C1R 3257   4.362   2.209   4.660
   63POPC    CE 3258   4.948   1.732   6.594
   63POPC    OG 3259   4.932   1.645   6.481
   63POPC   C2A 3260   4.881   1.524   6.504
   63POPC    OH 3261   4.860   1.486   6.620
   63POPC   C2B 3262   4.847   1.449   6.382
   63POPC   C2C 3263   4.969   1.385   6.316
   63POPC   C2D 3264   4.929   1.293   6.199
   63POPC   C2E 3265   4.866   1.366   6.081
   63POPC   C2F 3266   4.967   1.446   5.999
   63POPC   C2G 3267   4.901   1.505   5.874
   63POPC   C2H 3268   5.004   1.576   5.786
   63POPC   C2I 3269   4.941   1.630   5.658
   63POPC   C2J 3270   5.046   1.703   5.574
   63POPC   C2K 3271   4.992   1.760   5.443
   63POPC   C2L 3272   4.885   1.868   5.465
   63POPC   C2M 3273   4.854   1.947   5.337
   63POPC   C2N 3274   4.791   1.863   5.226
   63POPC   C2O 3275   4.768   1.948   5.101
   63POPC   C2P 3276   4.709   1.866   4.987
   64POPC   CN1 3277   5.003   1.119   6.984
   64POPC   CN2 3278   4.918   1.187   6.770
   64POPC   CN3 3279   4.773   1.171   6.959
   64POPC   NTM 3280   4.908   1.208   6.915
   64POPC    CA 3281   4.930   1.350   6.951
   64POPC    CB 3282   5.056   1.427   6.903
   64POPC    OA 3283   5.178   1.359   6.934
   64POPC     P 3284   5.307   1.436   6.894
   64POPC    OB 3285   5.289   1.576   6.935
   64POPC    OC 3286   5.407   1.348   6.955
   64POPC    OD 3287   5.295   1.422   6.738
   64POPC    CC 3288   5.347   1.299   6.689
   64POPC    CD 3289   5.317   1.278   6.540
   64POPC    OE 3290   5.366   1.151   6.489
   64POPC   C1A 3291   5.305   1.037   6.521
   64POPC    OF 3292   5.201   1.037   6.588
   64POPC   C1B 3293   5.367   0.919   6.457
   64POPC   C1C 3294   5.275   0.796   6.459
   64POPC   C1D 3295   5.315   0.691   6.355
   64POPC   C1E 3296   5.287   0.744   6.215
   64POPC   C1F 3297   5.328   0.646   6.105
   64POPC   C1G 3298   5.322   0.719   5.972
   64POPC   C1H 3299   5.370   0.633   5.855
   64POPC   C1I 3300   5.369   0.720   5.729
   64POPC   C1J 3301   5.333   0.669   5.612
   64POPC   C1K 3302   5.294   0.522   5.598
   64POPC   C1L 3303   5.291   0.482   5.450
   64POPC   C1M 3304   5.167   0.537   5.379
   64POPC   C1N 3305   5.190   0.559   5.229
   64POPC   C1O 3306   5.283   0.678   5.206
   64POPC   C1P 3307   5.307   0.702   5.057
   64POPC   C1Q 3308   5.405   0.817   5.037
   64POPC   C1R 3309   5.436   0.837   4.889
   64POPC    CE 3310   5.373   1.403   6.470
   64POPC    OG 3311   5.335   1.427   6.333
   64POPC   C2A 3312   5.382   1.539   6.278
   64POPC    OH 3313   5.444   1.622   6.344
   64POPC   C2B 3314   5.340   1.553   6.137
   64POPC   C2C 3315   5.432   1.647   6.058
   64POPC   C2D 3316   5.392   1.647   5.910
   64POPC   C2E 3317   5.475   1.746   5.830
   64POPC   C2F 3318   5.446   1.727   5.681
   64POPC   C2G 3319   5.524   1.826   5.594
   64POPC   C2H 3320   5.507   1.794   5.446
   64POPC   C2I 3321   5.581   1.665   5.408
   64POPC   C2J 3322   5.546   1.615   5.267
   64POPC   C2K 3323   5.589   1.710   5.155
   64POPC   C2L 3324   5.549   1.650   5.021
   64POPC   C2M 3325   5.580   1.743   4.904
   64POPC   C2N 3326   5.532   1.679   4.773
   64POPC   C2O 3327   5.551   1.775   4.656
   64POPC   C2P 3328   5.501   1.712   4.525
   65POPC   CN1 3329   6.076   1.115   6.834
   65POPC   CN2 3330   6.051   1.348   6.800
   65POPC   CN3 3331   6.267   1.249   6.793
   65POPC   NTM 3332   6.126   1.229   6.757
   65POPC    CA 3333   6.116   1.205   6.611
   65POPC    CB 3334   5.978   1.178   6.546
   65POPC    OA 3335   5.885   1.287   6.555
   65POPC     P 3336   5.736   1.242   6.535
   65POPC    OB 3337   5.719   1.127   6.624
   65POPC    OC 3338   5.665   1.368   6.562
   65POPC    OD 3339   5.738   1.206   6.382
   65POPC    CC 3340   5.723   1.321   6.298
   65POPC    CD 3341   5.756   1.295   6.150
   65POPC    OE 3342   5.754   1.413   6.065
   65POPC   C1A 3343   5.859   1.494   6.061
   65POPC    OF 3344   5.960   1.471   6.128
   65POPC   C1B 3345   5.843   1.610   5.969
   65POPC   C1C 3346   5.913   1.584   5.836
   65POPC   C1D 3347   5.901   1.704   5.742
   65POPC   C1E 3348   5.975   1.678   5.611
   65POPC   C1F 3349   5.949   1.790   5.510
   65POPC   C1G 3350   6.017   1.759   5.376
   65POPC   C1H 3351   5.974   1.861   5.270
   65POPC   C1I 3352   6.038   1.829   5.134
   65POPC   C1J 3353   6.041   1.919   5.035
   65POPC   C1K 3354   5.977   2.057   5.049
   65POPC   C1L 3355   5.840   2.063   4.981
   65POPC   C1M 3356   5.776   2.202   4.996
   65POPC   C1N 3357   5.635   2.207   4.938
   65POPC   C1O 3358   5.631   2.188   4.786
   65POPC   C1P 3359   5.487   2.188   4.735
   65POPC   C1Q 3360   5.482   2.168   4.583
   65POPC   C1R 3361   5.338   2.163   4.533
   65POPC    CE 3362   5.664   1.180   6.103
   65POPC    OG 3363   5.523   1.209   6.103
   65POPC   C2A 3364   5.442   1.107   6.078
   65POPC    OH 3365   5.484   0.991   6.072
   65POPC   C2B 3366   5.299   1.146   6.068
   65POPC   C2C 3367   5.238   1.121   5.930
   65POPC   C2D 3368   5.284   1.221   5.823
   65POPC   C2E 3369   5.221   1.188   5.688
   65POPC   C2F 3370   5.256   1.292   5.581
   65POPC   C2G 3371   5.204   1.250   5.443
   65POPC   C2H 3372   5.237   1.354   5.337
   65POPC   C2I 3373   5.198   1.305   5.197
   65POPC   C2J 3374   5.231   1.410   5.090
   65POPC   C2K 3375   5.208   1.362   4.947
   65POPC   C2L 3376   5.303   1.247   4.909
   65POPC   C2M 3377   5.289   1.202   4.763
   65POPC   C2N 3378   5.343   1.305   4.664
   65POPC   C2O 3379   5.335   1.250   4.521
   65POPC   C2P 3380   5.390   1.350   4.420
   66POPC   CN1 3381   6.486   1.639   5.971
   66POPC   CN2 3382   6.331   1.799   5.890
   66POPC   CN3 3383   6.255   1.609   6.012
   66POPC   NTM 3384   6.362   1.709   6.002
   66POPC    CA 3385   6.371   1.782   6.130
   66POPC    CB 3386   6.469   1.902   6.148
   66POPC    OA 3387   6.605   1.875   6.115
   66POPC     P 3388   6.700   1.849   6.237
   66POPC    OB 3389   6.748   1.980   6.285
   66POPC    OC 3390   6.630   1.754   6.324
   66POPC    OD 3391   6.816   1.772   6.163
   66POPC    CC 3392   6.878   1.853   6.063
   66POPC    CD 3393   6.995   1.784   5.991
   66POPC    OE 3394   7.056   1.869   5.890
   66POPC   C1A 3395   7.185   1.854   5.863
   66POPC    OF 3396   7.264   1.829   5.956
   66POPC   C1B 3397   7.219   1.904   5.728
   66POPC   C1C 3398   7.364   1.948   5.711
   66POPC   C1D 3399   7.389   2.005   5.571
   66POPC   C1E 3400   7.370   1.901   5.460
   66POPC   C1F 3401   7.398   1.963   5.323
   66POPC   C1G 3402   7.385   1.860   5.211
   66POPC   C1H 3403   7.417   1.926   5.076
   66POPC   C1I 3404   7.404   1.828   4.960
   66POPC   C1J 3405   7.477   1.846   4.851
   66POPC   C1K 3406   7.575   1.963   4.845
   66POPC   C1L 3407   7.598   2.018   4.704
   66POPC   C1M 3408   7.478   2.099   4.652
   66POPC   C1N 3409   7.506   2.157   4.513
   66POPC   C1O 3410   7.509   2.052   4.401
   66POPC   C1P 3411   7.371   1.993   4.374
   66POPC   C1Q 3412   7.376   1.890   4.261
   66POPC   C1R 3413   7.237   1.835   4.231
   66POPC    CE 3414   6.937   1.655   5.930
   66POPC    OG 3415   7.037   1.556   5.903
   66POPC   C2A 3416   7.008   1.458   5.819
   66POPC    OH 3417   6.894   1.442   5.777
   66POPC   C2B 3418   7.122   1.365   5.800
   66POPC   C2C 3419   7.224   1.414   5.697
   66POPC   C2D 3420   7.181   1.389   5.552
   66POPC   C2E 3421   7.290   1.436   5.455
   66POPC   C2F 3422   7.256   1.400   5.311
   66POPC   C2G 3423   7.374   1.430   5.218
   66POPC   C2H 3424   7.348   1.377   5.077
   66POPC   C2I 3425   7.474   1.387   4.991
   66POPC   C2J 3426   7.453   1.322   4.854
   66POPC   C2K 3427   7.586   1.306   4.780
   66POPC   C2L 3428   7.565   1.236   4.645
   66POPC   C2M 3429   7.697   1.202   4.575
   66POPC   C2N 3430   7.772   1.089   4.645
   66POPC   C2O 3431   7.903   1.052   4.575
   66POPC   C2P 3432   7.881   0.988   4.438
   67POPC   CN1 3433   8.288   2.051   6.729
   67POPC   CN2 3434   8.425   1.857   6.699
   67POPC   CN3 3435   8.263   1.863   6.871
   67POPC   NTM 3436   8.290   1.904   6.733
   67POPC    CA 3437   8.186   1.844   6.646
   67POPC    CB 3438   8.197   1.857   6.491
   67POPC    OA 3439   8.212   1.988   6.436
   67POPC     P 3440   8.075   2.055   6.394
   67POPC    OB 3441   7.975   2.015   6.493
   67POPC    OC 3442   8.109   2.195   6.372
   67POPC    OD 3443   8.044   1.977   6.262
   67POPC    CC 3444   8.112   2.024   6.146
   67POPC    CD 3445   8.111   1.919   6.034
   67POPC    OE 3446   8.191   1.958   5.919
   67POPC   C1A 3447   8.249   1.860   5.849
   67POPC    OF 3448   8.270   1.751   5.902
   67POPC   C1B 3449   8.311   1.904   5.722
   67POPC   C1C 3450   8.218   1.881   5.604
   67POPC   C1D 3451   8.292   1.905   5.472
   67POPC   C1E 3452   8.200   1.889   5.351
   67POPC   C1F 3453   8.102   2.006   5.334
   67POPC   C1G 3454   8.167   2.133   5.279
   67POPC   C1H 3455   8.215   2.115   5.135
   67POPC   C1I 3456   8.271   2.246   5.081
   67POPC   C1J 3457   8.321   2.254   4.958
   67POPC   C1K 3458   8.326   2.132   4.866
   67POPC   C1L 3459   8.305   2.175   4.721
   67POPC   C1M 3460   8.335   2.064   4.620
   67POPC   C1N 3461   8.485   2.039   4.606
   67POPC   C1O 3462   8.517   1.939   4.494
   67POPC   C1P 3463   8.481   1.995   4.356
   67POPC   C1Q 3464   8.506   1.890   4.247
   67POPC   C1R 3465   8.470   1.946   4.109
   67POPC    CE 3466   7.964   1.888   6.002
   67POPC    OG 3467   7.947   1.775   5.915
   67POPC   C2A 3468   7.823   1.735   5.888
   67POPC    OH 3469   7.726   1.800   5.927
   67POPC   C2B 3470   7.818   1.612   5.805
   67POPC   C2C 3471   7.690   1.600   5.721
   67POPC   C2D 3472   7.688   1.695   5.600
   67POPC   C2E 3473   7.774   1.644   5.485
   67POPC   C2F 3474   7.773   1.743   5.368
   67POPC   C2G 3475   7.841   1.682   5.245
   67POPC   C2H 3476   7.855   1.786   5.134
   67POPC   C2I 3477   7.915   1.724   5.008
   67POPC   C2J 3478   7.951   1.831   4.905
   67POPC   C2K 3479   7.985   1.772   4.768
   67POPC   C2L 3480   7.860   1.712   4.702
   67POPC   C2M 3481   7.886   1.671   4.557
   67POPC   C2N 3482   7.756   1.623   4.492
   67POPC   C2O 3483   7.777   1.588   4.345
   67POPC   C2P 3484   7.645   1.542   4.281
   68POPC   CN1 3485   8.869   1.227   6.504
   68POPC   CN2 3486   8.875   1.453   6.429
   68POPC   CN3 3487   9.078   1.325   6.448
   68POPC   NTM 3488   8.935   1.320   6.411
   68POPC    CA 3489   8.918   1.269   6.273
   68POPC    CB 3490   8.956   1.355   6.150
   68POPC    OA 3491   9.088   1.412   6.145
   68POPC     P 3492   9.092   1.528   6.037
   68POPC    OB 3493   8.971   1.609   6.053
   68POPC    OC 3494   9.228   1.583   6.034
   68POPC    OD 3495   9.076   1.443   5.907
   68POPC    CC 3496   9.079   1.528   5.793
   68POPC    CD 3497   9.035   1.456   5.664
   68POPC    OE 3498   9.063   1.530   5.542
   68POPC   C1A 3499   9.186   1.529   5.491
   68POPC    OF 3500   9.281   1.482   5.556
   68POPC   C1B 3501   9.195   1.596   5.360
   68POPC   C1C 3502   9.229   1.745   5.374
   68POPC   C1D 3503   9.229   1.813   5.237
   68POPC   C1E 3504   9.264   1.962   5.249
   68POPC   C1F 3505   9.258   2.030   5.113
   68POPC   C1G 3506   9.297   2.177   5.124
   68POPC   C1H 3507   9.283   2.250   4.990
   68POPC   C1I 3508   9.316   2.398   5.005
   68POPC   C1J 3509   9.346   2.473   4.899
   68POPC   C1K 3510   9.346   2.411   4.759
   68POPC   C1L 3511   9.325   2.514   4.648
   68POPC   C1M 3512   9.447   2.605   4.629
   68POPC   C1N 3513   9.438   2.689   4.501
   68POPC   C1O 3514   9.325   2.792   4.504
   68POPC   C1P 3515   9.317   2.867   4.370
   68POPC   C1Q 3516   9.205   2.971   4.372
   68POPC   C1R 3517   9.194   3.041   4.236
   68POPC    CE 3518   8.887   1.419   5.688
   68POPC    OG 3519   8.816   1.365   5.574
   68POPC   C2A 3520   8.731   1.450   5.517
   68POPC    OH 3521   8.668   1.529   5.588
   68POPC   C2B 3522   8.690   1.411   5.380
   68POPC   C2C 3523   8.795   1.449   5.276
   68POPC   C2D 3524   8.749   1.409   5.135
   68POPC   C2E 3525   8.857   1.427   5.028
   68POPC   C2F 3526   8.900   1.573   5.008
   68POPC   C2G 3527   8.998   1.584   4.890
   68POPC   C2H 3528   9.053   1.726   4.872
   68POPC   C2I 3529   8.947   1.829   4.831
   68POPC   C2J 3530   8.897   1.815   4.687
   68POPC   C2K 3531   9.004   1.853   4.584
   68POPC   C2L 3532   8.948   1.845   4.442
   68POPC   C2M 3533   9.056   1.878   4.339
   68POPC   C2N 3534   9.003   1.874   4.195
   68POPC   C2O 3535   8.903   1.986   4.168
   68POPC   C2P 3536   8.855   1.982   4.023
   69POPC   CN1 3537   8.364   1.480   5.784
   69POPC   CN2 3538   8.570   1.461   5.896
   69POPC   CN3 3539   8.376   1.348   5.980
   69POPC   NTM 3540   8.449   1.387   5.859
   69POPC    CA 3541   8.478   1.270   5.773
   69POPC    CB 3542   8.565   1.155   5.829
   69POPC    OA 3543   8.700   1.189   5.862
   69POPC     P 3544   8.783   1.063   5.907
   69POPC    OB 3545   8.918   1.107   5.947
   69POPC    OC 3546   8.699   0.987   6.000
   69POPC    OD 3547   8.789   0.986   5.771
   69POPC    CC 3548   8.883   1.040   5.679
   69POPC    CD 3549   8.868   0.992   5.534
   69POPC    OE 3550   8.975   1.029   5.444
   69POPC   C1A 3551   9.094   0.971   5.449
   69POPC    OF 3552   9.128   0.902   5.547
   69POPC   C1B 3553   9.179   1.008   5.334
   69POPC   C1C 3554   9.188   0.894   5.233
   69POPC   C1D 3555   9.232   0.946   5.095
   69POPC   C1E 3556   9.252   0.830   4.998
   69POPC   C1F 3557   9.250   0.875   4.851
   69POPC   C1G 3558   9.108   0.913   4.808
   69POPC   C1H 3559   9.095   0.947   4.659
   69POPC   C1I 3560   9.161   1.080   4.622
   69POPC   C1J 3561   9.200   1.104   4.497
   69POPC   C1K 3562   9.177   1.000   4.388
   69POPC   C1L 3563   9.176   1.066   4.249
   69POPC   C1M 3564   9.151   0.960   4.141
   69POPC   C1N 3565   9.165   1.015   3.999
   69POPC   C1O 3566   9.053   1.111   3.959
   69POPC   C1P 3567   9.072   1.155   3.813
   69POPC   C1Q 3568   8.960   1.248   3.764
   69POPC   C1R 3569   8.826   1.175   3.751
   69POPC    CE 3570   8.732   1.043   5.483
   69POPC    OG 3571   8.616   0.965   5.518
   69POPC   C2A 3572   8.500   1.011   5.471
   69POPC    OH 3573   8.486   1.130   5.444
   69POPC   C2B 3574   8.390   0.913   5.487
   69POPC   C2C 3575   8.413   0.789   5.401
   69POPC   C2D 3576   8.323   0.674   5.447
   69POPC   C2E 3577   8.353   0.543   5.375
   69POPC   C2F 3578   8.310   0.546   5.228
   69POPC   C2G 3579   8.343   0.414   5.158
   69POPC   C2H 3580   8.295   0.412   5.013
   69POPC   C2I 3581   8.372   0.511   4.926
   69POPC   C2J 3582   8.310   0.522   4.787
   69POPC   C2K 3583   8.382   0.632   4.708
   69POPC   C2L 3584   8.312   0.662   4.576
   69POPC   C2M 3585   8.390   0.771   4.502
   69POPC   C2N 3586   8.318   0.815   4.374
   69POPC   C2O 3587   8.399   0.919   4.296
   69POPC   C2P 3588   8.415   1.051   4.374
   70POPC   CN1 3589  11.254   1.053   5.742
   70POPC   CN2 3590  11.347   1.079   5.962
   70POPC   CN3 3591  11.479   0.992   5.786
   70POPC   NTM 3592  11.374   1.090   5.818
   70POPC    CA 3593  11.422   1.225   5.780
   70POPC    CB 3594  11.341   1.350   5.822
   70POPC    OA 3595  11.203   1.352   5.786
   70POPC     P 3596  11.123   1.465   5.858
   70POPC    OB 3597  10.979   1.454   5.832
   70POPC    OC 3598  11.169   1.470   5.999
   70POPC    OD 3599  11.182   1.592   5.787
   70POPC    CC 3600  11.106   1.636   5.673
   70POPC    CD 3601  11.188   1.673   5.549
   70POPC    OE 3602  11.114   1.750   5.451
   70POPC   C1A 3603  11.117   1.883   5.453
   70POPC    OF 3604  11.202   1.943   5.520
   70POPC   C1B 3605  11.023   1.944   5.356
   70POPC   C1C 3606  11.080   1.939   5.214
   70POPC   C1D 3607  10.978   1.991   5.112
   70POPC   C1E 3608  11.037   1.987   4.971
   70POPC   C1F 3609  10.937   2.042   4.869
   70POPC   C1G 3610  10.988   2.026   4.725
   70POPC   C1H 3611  11.109   2.114   4.690
   70POPC   C1I 3612  11.074   2.262   4.675
   70POPC   C1J 3613  11.146   2.340   4.595
   70POPC   C1K 3614  11.265   2.280   4.519
   70POPC   C1L 3615  11.302   2.362   4.395
   70POPC   C1M 3616  11.423   2.303   4.322
   70POPC   C1N 3617  11.550   2.310   4.408
   70POPC   C1O 3618  11.672   2.252   4.335
   70POPC   C1P 3619  11.794   2.254   4.427
   70POPC   C1Q 3620  11.917   2.197   4.356
   70POPC   C1R 3621  12.038   2.194   4.450
   70POPC    CE 3622  11.244   1.540   5.495
   70POPC    OG 3623  11.142   1.445   5.456
   70POPC   C2A 3624  11.181   1.323   5.421
   70POPC    OH 3625  11.295   1.282   5.443
   70POPC   C2B 3626  11.066   1.246   5.367
   70POPC   C2C 3627  11.106   1.148   5.257
   70POPC   C2D 3628  10.993   1.123   5.156
   70POPC   C2E 3629  10.865   1.066   5.218
   70POPC   C2F 3630  10.759   1.034   5.112
   70POPC   C2G 3631  10.704   1.158   5.041
   70POPC   C2H 3632  10.613   1.119   4.925
   70POPC   C2I 3633  10.556   1.243   4.856
   70POPC   C2J 3634  10.476   1.210   4.730
   70POPC   C2K 3635  10.566   1.159   4.617
   70POPC   C2L 3636  10.489   1.135   4.486
   70POPC   C2M 3637  10.439   1.266   4.423
   70POPC   C2N 3638  10.365   1.244   4.291
   70POPC   C2O 3639  10.457   1.195   4.180
   70POPC   C2P 3640  10.380   1.174   4.049
   71POPC   CN1 3641  12.015   1.312   5.686
   71POPC   CN2 3642  12.182   1.481   5.699
   71POPC   CN3 3643  12.048   1.466   5.505
   71POPC   NTM 3644  12.046   1.451   5.651
   71POPC    CA 3645  11.952   1.545   5.716
   71POPC    CB 3646  11.799   1.533   5.692
   71POPC    OA 3647  11.755   1.550   5.557
   71POPC     P 3648  11.603   1.517   5.538
   71POPC    OB 3649  11.531   1.553   5.661
   71POPC    OC 3650  11.564   1.582   5.412
   71POPC    OD 3651  11.615   1.361   5.524
   71POPC    CC 3652  11.650   1.328   5.390
   71POPC    CD 3653  11.690   1.182   5.363
   71POPC    OE 3654  11.730   1.168   5.223
   71POPC   C1A 3655  11.812   1.068   5.190
   71POPC    OF 3656  11.886   1.018   5.275
   71POPC   C1B 3657  11.820   1.048   5.043
   71POPC   C1C 3658  11.710   0.953   4.997
   71POPC   C1D 3659  11.694   0.945   4.845
   71POPC   C1E 3660  11.811   0.874   4.775
   71POPC   C1F 3661  11.780   0.856   4.627
   71POPC   C1G 3662  11.891   0.780   4.555
   71POPC   C1H 3663  11.856   0.761   4.408
   71POPC   C1I 3664  11.967   0.688   4.332
   71POPC   C1J 3665  11.989   0.716   4.204
   71POPC   C1K 3666  11.904   0.821   4.133
   71POPC   C1L 3667  11.989   0.941   4.089
   71POPC   C1M 3668  11.899   1.054   4.036
   71POPC   C1N 3669  11.980   1.178   3.999
   71POPC   C1O 3670  12.050   1.239   4.121
   71POPC   C1P 3671  12.140   1.356   4.080
   71POPC   C1Q 3672  12.221   1.406   4.199
   71POPC   C1R 3673  12.315   1.519   4.156
   71POPC    CE 3674  11.570   1.096   5.406
   71POPC    OG 3675  11.582   0.956   5.376
   71POPC   C2A 3676  11.482   0.876   5.409
   71POPC    OH 3677  11.396   0.911   5.491
   71POPC   C2B 3678  11.496   0.742   5.349
   71POPC   C2C 3679  11.432   0.741   5.210
   71POPC   C2D 3680  11.485   0.626   5.125
   71POPC   C2E 3681  11.424   0.633   4.985
   71POPC   C2F 3682  11.503   0.548   4.886
   71POPC   C2G 3683  11.444   0.559   4.746
   71POPC   C2H 3684  11.536   0.494   4.643
   71POPC   C2I 3685  11.476   0.493   4.503
   71POPC   C2J 3686  11.457   0.632   4.441
   71POPC   C2K 3687  11.399   0.617   4.300
   71POPC   C2L 3688  11.380   0.750   4.226
   71POPC   C2M 3689  11.514   0.820   4.200
   71POPC   C2N 3690  11.502   0.934   4.097
   71POPC   C2O 3691  11.480   0.879   3.956
   71POPC   C2P 3692  11.481   0.992   3.852
   72POPC   CN1 3693  12.944   0.878   5.717
   72POPC   CN2 3694  13.029   0.717   5.566
   72POPC   CN3 3695  12.871   0.877   5.490
   72POPC   NTM 3696  12.987   0.857   5.578
   72POPC    CA 3697  13.102   0.943   5.543
   72POPC    CB 3698  13.086   1.096   5.528
   72POPC    OA 3699  13.025   1.165   5.638
   72POPC     P 3700  13.020   1.320   5.612
   72POPC    OB 3701  12.974   1.374   5.741
   72POPC    OC 3702  13.154   1.355   5.563
   72POPC    OD 3703  12.906   1.330   5.505
   72POPC    CC 3704  12.776   1.302   5.558
   72POPC    CD 3705  12.660   1.302   5.457
   72POPC    OE 3706  12.664   1.194   5.359
   72POPC   C1A 3707  12.578   1.093   5.375
   72POPC    OF 3708  12.527   1.070   5.485
   72POPC   C1B 3709  12.566   1.005   5.256
   72POPC   C1C 3710  12.440   0.919   5.261
   72POPC   C1D 3711  12.418   0.841   5.131
   72POPC   C1E 3712  12.300   0.745   5.139
   72POPC   C1F 3713  12.166   0.814   5.168
   72POPC   C1G 3714  12.049   0.715   5.162
   72POPC   C1H 3715  12.026   0.666   5.019
   72POPC   C1I 3716  11.918   0.558   5.010
   72POPC   C1J 3717  11.932   0.467   4.914
   72POPC   C1K 3718  12.054   0.479   4.822
   72POPC   C1L 3719  12.033   0.410   4.687
   72POPC   C1M 3720  12.149   0.440   4.591
   72POPC   C1N 3721  12.283   0.386   4.642
   72POPC   C1O 3722  12.400   0.433   4.556
   72POPC   C1P 3723  12.403   0.372   4.415
   72POPC   C1Q 3724  12.440   0.223   4.418
   72POPC   C1R 3725  12.440   0.165   4.277
   72POPC    CE 3726  12.650   1.445   5.399
   72POPC    OG 3727  12.553   1.464   5.294
   72POPC   C2A 3728  12.424   1.470   5.325
   72POPC    OH 3729  12.385   1.495   5.439
   72POPC   C2B 3730  12.337   1.465   5.205
   72POPC   C2C 3731  12.307   1.320   5.166
   72POPC   C2D 3732  12.239   1.312   5.029
   72POPC   C2E 3733  12.234   1.167   4.980
   72POPC   C2F 3734  12.194   1.161   4.832
   72POPC   C2G 3735  12.233   1.027   4.771
   72POPC   C2H 3736  12.225   1.031   4.618
   72POPC   C2I 3737  12.294   0.908   4.558
   72POPC   C2J 3738  12.297   0.914   4.405
   72POPC   C2K 3739  12.376   0.796   4.350
   72POPC   C2L 3740  12.378   0.793   4.197
   72POPC   C2M 3741  12.461   0.674   4.149
   72POPC   C2N 3742  12.463   0.658   3.996
   72POPC   C2O 3743  12.327   0.614   3.941
   72POPC   C2P 3744  12.336   0.587   3.791
   73POPC   CN1 3745  14.443   1.309   5.683
   73POPC   CN2 3746  14.344   1.472   5.543
   73POPC   CN3 3747  14.215   1.369   5.719
   73POPC   NTM 3748  14.348   1.420   5.680
   73POPC    CA 3749  14.397   1.522   5.776
   73POPC    CB 3750  14.327   1.659   5.788
   73POPC    OA 3751  14.189   1.658   5.826
   73POPC     P 3752  14.130   1.803   5.825
   73POPC    OB 3753  14.005   1.790   5.903
   73POPC    OC 3754  14.236   1.892   5.875
   73POPC    OD 3755  14.104   1.819   5.671
   73POPC    CC 3756  13.972   1.779   5.633
   73POPC    CD 3757  13.947   1.768   5.481
   73POPC    OE 3758  13.992   1.642   5.423
   73POPC   C1A 3759  13.915   1.534   5.434
   73POPC    OF 3760  13.819   1.534   5.512
   73POPC   C1B 3761  13.969   1.415   5.364
   73POPC   C1C 3762  13.876   1.293   5.365
   73POPC   C1D 3763  13.755   1.309   5.272
   73POPC   C1E 3764  13.657   1.194   5.291
   73POPC   C1F 3765  13.544   1.199   5.187
   73POPC   C1G 3766  13.447   1.083   5.209
   73POPC   C1H 3767  13.348   1.071   5.092
   73POPC   C1I 3768  13.254   0.952   5.113
   73POPC   C1J 3769  13.226   0.870   5.012
   73POPC   C1K 3770  13.289   0.893   4.874
   73POPC   C1L 3771  13.313   0.761   4.801
   73POPC   C1M 3772  13.380   0.783   4.665
   73POPC   C1N 3773  13.284   0.845   4.563
   73POPC   C1O 3774  13.356   0.897   4.438
   73POPC   C1P 3775  13.426   0.786   4.358
   73POPC   C1Q 3776  13.499   0.842   4.235
   73POPC   C1R 3777  13.616   0.933   4.271
   73POPC    CE 3778  14.000   1.898   5.417
   73POPC    OG 3779  13.988   1.912   5.275
   73POPC   C2A 3780  14.044   2.019   5.219
   73POPC    OH 3781  14.095   2.108   5.287
   73POPC   C2B 3782  14.041   2.015   5.071
   73POPC   C2C 3783  14.036   2.153   5.004
   73POPC   C2D 3784  14.053   2.137   4.853
   73POPC   C2E 3785  14.035   2.269   4.778
   73POPC   C2F 3786  14.065   2.249   4.630
   73POPC   C2G 3787  14.035   2.374   4.548
   73POPC   C2H 3788  14.073   2.352   4.401
   73POPC   C2I 3789  14.033   2.471   4.314
   73POPC   C2J 3790  14.075   2.447   4.169
   73POPC   C2K 3791  14.023   2.554   4.072
   73POPC   C2L 3792  14.086   2.692   4.098
   73POPC   C2M 3793  14.031   2.796   4.001
   73POPC   C2N 3794  14.089   2.934   4.030
   73POPC   C2O 3795  14.029   3.039   3.936
   73POPC   C2P 3796  14.082   3.179   3.971
   74POPC   CN1 3797  15.479   2.863   6.256
   74POPC   CN2 3798  15.482   2.797   6.025
   74POPC   CN3 3799  15.283   2.774   6.151
   74POPC   NTM 3800  15.402   2.859   6.131
   74POPC    CA 3801  15.355   2.995   6.093
   74POPC    CB 3802  15.453   3.114   6.075
   74POPC    OA 3803  15.560   3.094   5.983
   74POPC     P 3804  15.563   3.202   5.868
   74POPC    OB 3805  15.501   3.326   5.916
   74POPC    OC 3806  15.703   3.198   5.823
   74POPC    OD 3807  15.469   3.127   5.768
   74POPC    CC 3808  15.536   3.017   5.707
   74POPC    CD 3809  15.444   2.934   5.616
   74POPC    OE 3810  15.491   2.798   5.592
   74POPC   C1A 3811  15.394   2.706   5.583
   74POPC    OF 3812  15.288   2.721   5.644
   74POPC   C1B 3813  15.440   2.579   5.522
   74POPC   C1C 3814  15.418   2.580   5.370
   74POPC   C1D 3815  15.466   2.448   5.310
   74POPC   C1E 3816  15.451   2.448   5.157
   74POPC   C1F 3817  15.506   2.318   5.099
   74POPC   C1G 3818  15.509   2.322   4.947
   74POPC   C1H 3819  15.579   2.197   4.893
   74POPC   C1I 3820  15.593   2.201   4.741
   74POPC   C1J 3821  15.699   2.147   4.680
   74POPC   C1K 3822  15.810   2.078   4.760
   74POPC   C1L 3823  15.803   1.925   4.756
   74POPC   C1M 3824  15.837   1.866   4.619
   74POPC   C1N 3825  15.836   1.713   4.627
   74POPC   C1O 3826  15.877   1.650   4.494
   74POPC   C1P 3827  15.890   1.498   4.510
   74POPC   C1Q 3828  15.927   1.427   4.379
   74POPC   C1R 3829  15.814   1.433   4.276
   74POPC    CE 3830  15.418   3.023   5.493
   74POPC    OG 3831  15.361   2.953   5.381
   74POPC   C2A 3832  15.317   3.025   5.278
   74POPC    OH 3833  15.295   3.145   5.293
   74POPC   C2B 3834  15.282   2.944   5.160
   74POPC   C2C 3835  15.407   2.911   5.079
   74POPC   C2D 3836  15.373   2.827   4.956
   74POPC   C2E 3837  15.501   2.782   4.885
   74POPC   C2F 3838  15.469   2.705   4.757
   74POPC   C2G 3839  15.598   2.659   4.689
   74POPC   C2H 3840  15.567   2.591   4.556
   74POPC   C2I 3841  15.695   2.545   4.486
   74POPC   C2J 3842  15.664   2.489   4.346
   74POPC   C2K 3843  15.620   2.600   4.250
   74POPC   C2L 3844  15.561   2.545   4.119
   74POPC   C2M 3845  15.424   2.479   4.137
   74POPC   C2N 3846  15.316   2.578   4.181
   74POPC   C2O 3847  15.182   2.507   4.203
   74POPC   C2P 3848  15.077   2.606   4.254
   75POPC   CN1 3849  15.625   1.132   5.996
   75POPC   CN2 3850  15.633   1.357   6.073
   75POPC   CN3 3851  15.556   1.306   5.852
   75POPC   NTM 3852  15.557   1.262   5.992
   75POPC    CA 3853  15.418   1.242   6.041
   75POPC    CB 3854  15.326   1.364   6.064
   75POPC    OA 3855  15.316   1.457   5.956
   75POPC     P 3856  15.227   1.581   5.985
   75POPC    OB 3857  15.232   1.609   6.130
   75POPC    OC 3858  15.273   1.682   5.890
   75POPC    OD 3859  15.085   1.527   5.949
   75POPC    CC 3860  15.070   1.505   5.809
   75POPC    CD 3861  14.932   1.446   5.775
   75POPC    OE 3862  14.932   1.383   5.644
   75POPC   C1A 3863  14.841   1.290   5.617
   75POPC    OF 3864  14.753   1.262   5.699
   75POPC   C1B 3865  14.857   1.233   5.481
   75POPC   C1C 3866  14.727   1.175   5.423
   75POPC   C1D 3867  14.748   1.118   5.282
   75POPC   C1E 3868  14.848   1.001   5.282
   75POPC   C1F 3869  14.870   0.944   5.141
   75POPC   C1G 3870  14.750   0.863   5.093
   75POPC   C1H 3871  14.774   0.812   4.951
   75POPC   C1I 3872  14.665   0.713   4.910
   75POPC   C1J 3873  14.688   0.625   4.813
   75POPC   C1K 3874  14.823   0.627   4.740
   75POPC   C1L 3875  14.820   0.553   4.606
   75POPC   C1M 3876  14.810   0.401   4.625
   75POPC   C1N 3877  14.824   0.325   4.492
   75POPC   C1O 3878  14.705   0.348   4.398
   75POPC   C1P 3879  14.721   0.269   4.267
   75POPC   C1Q 3880  14.837   0.319   4.182
   75POPC   C1R 3881  14.855   0.234   4.057
   75POPC    CE 3882  14.831   1.561   5.796
   75POPC    OG 3883  14.836   1.664   5.695
   75POPC   C2A 3884  14.754   1.645   5.591
   75POPC    OH 3885  14.648   1.585   5.605
   75POPC   C2B 3886  14.791   1.724   5.472
   75POPC   C2C 3887  14.784   1.634   5.349
   75POPC   C2D 3888  14.816   1.708   5.219
   75POPC   C2E 3889  14.803   1.616   5.097
   75POPC   C2F 3890  14.659   1.568   5.078
   75POPC   C2G 3891  14.643   1.466   4.964
   75POPC   C2H 3892  14.669   1.527   4.826
   75POPC   C2I 3893  14.641   1.422   4.718
   75POPC   C2J 3894  14.667   1.478   4.578
   75POPC   C2K 3895  14.631   1.375   4.472
   75POPC   C2L 3896  14.653   1.432   4.331
   75POPC   C2M 3897  14.613   1.332   4.222
   75POPC   C2N 3898  14.462   1.305   4.220
   75POPC   C2O 3899  14.425   1.206   4.110
   75POPC   C2P 3900  14.275   1.178   4.110
   76POPC   CN1 3901  15.962   2.459   5.968
   76POPC   CN2 3902  16.152   2.319   5.937
   76POPC   CN3 3903  16.129   2.450   6.134
   76POPC   NTM 3904  16.056   2.369   6.036
   76POPC    CA 3905  15.983   2.261   6.106
   76POPC    CB 3906  15.909   2.151   6.025
   76POPC    OA 3907  15.827   2.195   5.919
   76POPC     P 3908  15.746   2.080   5.849
   76POPC    OB 3909  15.692   1.998   5.959
   76POPC    OC 3910  15.660   2.158   5.759
   76POPC    OD 3911  15.865   2.009   5.775
   76POPC    CC 3912  15.888   2.064   5.645
   76POPC    CD 3913  16.036   2.091   5.614
   76POPC    OE 3914  16.058   2.178   5.499
   76POPC   C1A 3915  16.043   2.310   5.510
   76POPC    OF 3916  16.007   2.362   5.616
   76POPC   C1B 3917  16.071   2.382   5.385
   76POPC   C1C 3918  15.944   2.413   5.306
   76POPC   C1D 3919  15.978   2.477   5.172
   76POPC   C1E 3920  15.852   2.520   5.098
   76POPC   C1F 3921  15.881   2.578   4.959
   76POPC   C1G 3922  15.960   2.709   4.967
   76POPC   C1H 3923  15.987   2.766   4.828
   76POPC   C1I 3924  16.077   2.889   4.839
   76POPC   C1J 3925  16.153   2.928   4.737
   76POPC   C1K 3926  16.149   2.853   4.603
   76POPC   C1L 3927  16.201   2.945   4.492
   76POPC   C1M 3928  16.200   2.881   4.353
   76POPC   C1N 3929  16.058   2.867   4.298
   76POPC   C1O 3930  16.062   2.822   4.152
   76POPC   C1P 3931  15.921   2.816   4.092
   76POPC   C1Q 3932  15.923   2.784   3.942
   76POPC   C1R 3933  15.981   2.899   3.859
   76POPC    CE 3934  16.109   1.955   5.614
   76POPC    OG 3935  16.057   1.851   5.529
   76POPC   C2A 3936  16.113   1.731   5.543
   76POPC    OH 3937  16.191   1.706   5.635
   76POPC   C2B 3938  16.061   1.631   5.446
   76POPC   C2C 3939  16.163   1.600   5.337
   76POPC   C2D 3940  16.109   1.494   5.240
   76POPC   C2E 3941  16.215   1.447   5.140
   76POPC   C2F 3942  16.251   1.551   5.034
   76POPC   C2G 3943  16.146   1.560   4.924
   76POPC   C2H 3944  16.176   1.668   4.820
   76POPC   C2I 3945  16.308   1.644   4.745
   76POPC   C2J 3946  16.334   1.747   4.635
   76POPC   C2K 3947  16.341   1.891   4.687
   76POPC   C2L 3948  16.379   1.987   4.574
   76POPC   C2M 3949  16.369   2.134   4.615
   76POPC   C2N 3950  16.223   2.178   4.631
   76POPC   C2O 3951  16.215   2.328   4.663
   76POPC   C2P 3952  16.069   2.374   4.671
   77POPC   CN1 3953  16.575   2.372   6.350
   77POPC   CN2 3954  16.796   2.328   6.434
   77POPC   CN3 3955  16.616   2.367   6.584
   77POPC   NTM 3956  16.652   2.305   6.456
   77POPC    CA 3957  16.621   2.160   6.464
   77POPC    CB 3958  16.655   2.065   6.346
   77POPC    OA 3959  16.596   2.098   6.221
   77POPC     P 3960  16.642   2.002   6.105
   77POPC    OB 3961  16.650   1.868   6.164
   77POPC    OC 3962  16.551   2.024   5.992
   77POPC    OD 3963  16.784   2.066   6.083
   77POPC    CC 3964  16.780   2.169   5.983
   77POPC    CD 3965  16.907   2.253   5.969
   77POPC    OE 3966  16.888   2.362   5.875
   77POPC   C1A 3967  16.974   2.464   5.869
   77POPC    OF 3968   0.085   2.474   5.947
   77POPC   C1B 3969  16.944   2.556   5.757
   77POPC   C1C 3970   0.050   2.522   5.637
   77POPC   C1D 3971   0.019   2.608   5.515
   77POPC   C1E 3972   0.131   2.592   5.413
   77POPC   C1F 3973   0.119   2.686   5.294
   77POPC   C1G 3974   0.257   2.698   5.228
   77POPC   C1H 3975   0.260   2.797   5.112
   77POPC   C1I 3976   0.403   2.844   5.088
   77POPC   C1J 3977   0.484   2.793   4.996
   77POPC   C1K 3978   0.441   2.684   4.898
   77POPC   C1L 3979   0.536   2.683   4.778
   77POPC   C1M 3980   0.503   2.570   4.681
   77POPC   C1N 3981   0.611   2.561   4.573
   77POPC   C1O 3982   0.584   2.444   4.478
   77POPC   C1P 3983   0.697   2.423   4.377
   77POPC   C1Q 3984   0.826   2.376   4.443
   77POPC   C1R 3985   0.936   2.352   4.339
   77POPC    CE 3986   0.039   2.156   5.938
   77POPC    OG 3987   0.030   2.076   5.818
   77POPC   C2A 3988   0.132   1.994   5.793
   77POPC    OH 3989   0.238   2.004   5.855
   77POPC   C2B 3990   0.114   1.910   5.673
   77POPC   C2C 3991   0.190   1.967   5.553
   77POPC   C2D 3992   0.179   1.875   5.431
   77POPC   C2E 3993   0.261   1.933   5.315
   77POPC   C2F 3994   0.261   1.847   5.189
   77POPC   C2G 3995   0.122   1.838   5.124
   77POPC   C2H 3996   0.133   1.787   4.981
   77POPC   C2I 3997  16.978   1.784   4.915
   77POPC   C2J 3998   0.006   1.771   4.763
   77POPC   C2K 3999  16.851   1.775   4.699
   77POPC   C2L 4000  16.859   1.788   4.547
   77POPC   C2M 4001  16.718   1.788   4.488
   77POPC   C2N 4002  16.715   1.819   4.338
   77POPC   C2O 4003  16.753   1.965   4.309
   77POPC   C2P 4004  16.742   1.995   4.159
   78POPC   CN1 4005   0.815   2.524   5.944
   78POPC   CN2 4006   0.591   2.477   6.004
   78POPC   CN3 4007   0.751   2.301   6.005
   78POPC   NTM 4008   0.730   2.444   6.033
   78POPC    CA 4009   0.752   2.475   6.176
   78POPC    CB 4010   0.891   2.458   6.242
   78POPC    OA 4011   0.991   2.551   6.199
   78POPC     P 4012   1.122   2.537   6.284
   78POPC    OB 4013   1.181   2.671   6.292
   78POPC    OC 4014   1.097   2.461   6.406
   78POPC    OD 4015   1.202   2.447   6.184
   78POPC    CC 4016   1.286   2.524   6.098
   78POPC    CD 4017   1.340   2.446   5.977
   78POPC    OE 4018   1.458   2.507   5.917
   78POPC   C1A 4019   1.575   2.503   5.980
   78POPC    OF 4020   1.588   2.450   6.091
   78POPC   C1B 4021   1.681   2.571   5.902
   78POPC   C1C 4022   1.822   2.519   5.931
   78POPC   C1D 4023   1.923   2.566   5.825
   78POPC   C1E 4024   1.901   2.493   5.692
   78POPC   C1F 4025   1.997   2.537   5.582
   78POPC   C1G 4026   1.970   2.455   5.456
   78POPC   C1H 4027   2.058   2.491   5.336
   78POPC   C1I 4028   2.025   2.628   5.276
   78POPC   C1J 4029   2.027   2.644   5.143
   78POPC   C1K 4030   2.056   2.523   5.054
   78POPC   C1L 4031   1.985   2.532   4.919
   78POPC   C1M 4032   2.057   2.621   4.818
   78POPC   C1N 4033   1.976   2.632   4.689
   78POPC   C1O 4034   2.053   2.702   4.576
   78POPC   C1P 4035   2.163   2.616   4.513
   78POPC   C1Q 4036   2.106   2.500   4.430
   78POPC   C1R 4037   2.217   2.418   4.365
   78POPC    CE 4038   1.216   2.432   5.887
   78POPC    OG 4039   1.221   2.341   5.775
   78POPC   C2A 4040   1.107   2.320   5.710
   78POPC    OH 4041   1.000   2.364   5.752
   78POPC   C2B 4042   1.122   2.229   5.594
   78POPC   C2C 4043   1.140   2.304   5.461
   78POPC   C2D 4044   1.161   2.202   5.348
   78POPC   C2E 4045   1.166   2.267   5.210
   78POPC   C2F 4046   1.192   2.160   5.104
   78POPC   C2G 4047   1.186   2.216   4.962
   78POPC   C2H 4048   1.222   2.107   4.861
   78POPC   C2I 4049   1.211   2.159   4.718
   78POPC   C2J 4050   1.272   2.060   4.618
   78POPC   C2K 4051   1.272   2.118   4.477
   78POPC   C2L 4052   1.357   2.035   4.380
   78POPC   C2M 4053   1.296   1.898   4.349
   78POPC   C2N 4054   1.391   1.809   4.267
   78POPC   C2O 4055   1.425   1.868   4.129
   78POPC   C2P 4056   1.516   1.774   4.050
   79POPC   CN1 4057   1.405   2.284   6.399
   79POPC   CN2 4058   1.462   2.054   6.366
   79POPC   CN3 4059   1.625   2.224   6.337
   79POPC   NTM 4060   1.510   2.183   6.418
   79POPC    CA 4061   1.551   2.174   6.560
   79POPC    CB 4062   1.452   2.127   6.669
   79POPC    OA 4063   1.408   1.991   6.661
   79POPC     P 4064   1.284   1.965   6.757
   79POPC    OB 4065   1.257   1.820   6.769
   79POPC    OC 4066   1.295   2.048   6.877
   79POPC    OD 4067   1.171   2.028   6.669
   79POPC    CC 4068   1.126   1.941   6.565
   79POPC    CD 4069   1.002   1.993   6.489
   79POPC    OE 4070   0.955   1.895   6.392
   79POPC   C1A 4071   0.836   1.908   6.336
   79POPC    OF 4072   0.748   1.973   6.394
   79POPC   C1B 4073   0.817   1.820   6.219
   79POPC   C1C 4074   0.752   1.895   6.102
   79POPC   C1D 4075   0.750   1.810   5.976
   79POPC   C1E 4076   0.689   1.888   5.859
   79POPC   C1F 4077   0.688   1.804   5.731
   79POPC   C1G 4078   0.613   1.878   5.620
   79POPC   C1H 4079   0.594   1.793   5.493
   79POPC   C1I 4080   0.725   1.769   5.417
   79POPC   C1J 4081   0.728   1.685   5.314
   79POPC   C1K 4082   0.601   1.611   5.270
   79POPC   C1L 4083   0.637   1.478   5.203
   79POPC   C1M 4084   0.510   1.402   5.163
   79POPC   C1N 4085   0.538   1.266   5.100
   79POPC   C1O 4086   0.603   1.277   4.962
   79POPC   C1P 4087   0.623   1.138   4.900
   79POPC   C1Q 4088   0.693   1.143   4.764
   79POPC   C1R 4089   0.607   1.209   4.656
   79POPC    CE 4090   1.043   2.129   6.429
   79POPC    OG 4091   1.142   2.119   6.323
   79POPC   C2A 4092   1.094   2.116   6.199
   79POPC    OH 4093   0.980   2.156   6.173
   79POPC   C2B 4094   1.197   2.077   6.100
   79POPC   C2C 4095   1.136   1.999   5.983
   79POPC   C2D 4096   1.245   1.949   5.888
   79POPC   C2E 4097   1.182   1.890   5.762
   79POPC   C2F 4098   1.288   1.847   5.661
   79POPC   C2G 4099   1.224   1.832   5.523
   79POPC   C2H 4100   1.322   1.782   5.416
   79POPC   C2I 4101   1.262   1.791   5.275
   79POPC   C2J 4102   1.134   1.709   5.260
   79POPC   C2K 4103   1.065   1.727   5.125
   79POPC   C2L 4104   1.137   1.655   5.011
   79POPC   C2M 4105   1.055   1.670   4.883
   79POPC   C2N 4106   1.115   1.589   4.767
   79POPC   C2O 4107   1.030   1.600   4.640
   79POPC   C2P 4108   0.892   1.536   4.654
   80POPC   CN1 4109   2.771   2.690   6.461
   80POPC   CN2 4110   2.715   2.831   6.645
   80POPC   CN3 4111   2.648   2.603   6.647
   80POPC   NTM 4112   2.756   2.695   6.607
   80POPC    CA 4113   2.885   2.664   6.674
   80POPC    CB 4114   2.956   2.529   6.651
   80POPC    OA 4115   2.883   2.414   6.694
   80POPC     P 4116   2.892   2.294   6.593
   80POPC    OB 4117   2.999   2.315   6.494
   80POPC    OC 4118   2.870   2.168   6.665
   80POPC    OD 4119   2.759   2.325   6.516
   80POPC    CC 4120   2.740   2.224   6.418
   80POPC    CD 4121   2.607   2.228   6.340
   80POPC    OE 4122   2.596   2.121   6.242
   80POPC   C1A 4123   2.557   1.999   6.277
   80POPC    OF 4124   2.516   1.976   6.391
   80POPC   C1B 4125   2.565   1.899   6.168
   80POPC   C1C 4126   2.451   1.913   6.067
   80POPC   C1D 4127   2.451   1.802   5.961
   80POPC   C1E 4128   2.582   1.791   5.883
   80POPC   C1F 4129   2.573   1.690   5.769
   80POPC   C1G 4130   2.498   1.747   5.649
   80POPC   C1H 4131   2.482   1.643   5.537
   80POPC   C1I 4132   2.426   1.709   5.411
   80POPC   C1J 4133   2.444   1.651   5.293
   80POPC   C1K 4134   2.517   1.517   5.283
   80POPC   C1L 4135   2.607   1.506   5.159
   80POPC   C1M 4136   2.530   1.507   5.027
   80POPC   C1N 4137   2.627   1.499   4.909
   80POPC   C1O 4138   2.554   1.514   4.776
   80POPC   C1P 4139   2.655   1.514   4.661
   80POPC   C1Q 4140   2.586   1.538   4.526
   80POPC   C1R 4141   2.688   1.539   4.413
   80POPC    CE 4142   2.594   2.369   6.281
   80POPC    OG 4143   2.698   2.409   6.190
   80POPC   C2A 4144   2.688   2.528   6.133
   80POPC    OH 4145   2.615   2.615   6.181
   80POPC   C2B 4146   2.785   2.548   6.024
   80POPC   C2C 4147   2.727   2.501   5.890
   80POPC   C2D 4148   2.831   2.513   5.778
   80POPC   C2E 4149   2.778   2.459   5.645
   80POPC   C2F 4150   2.668   2.548   5.585
   80POPC   C2G 4151   2.614   2.485   5.456
   80POPC   C2H 4152   2.508   2.574   5.391
   80POPC   C2I 4153   2.445   2.509   5.268
   80POPC   C2J 4154   2.544   2.489   5.153
   80POPC   C2K 4155   2.475   2.420   5.035
   80POPC   C2L 4156   2.575   2.396   4.922
   80POPC   C2M 4157   2.508   2.323   4.805
   80POPC   C2N 4158   2.609   2.295   4.694
   80POPC   C2O 4159   2.543   2.221   4.578
   80POPC   C2P 4160   2.645   2.192   4.467
   81POPC   CN1 4161   2.671   1.865   7.171
   81POPC   CN2 4162   2.643   1.637   7.237
   81POPC   CN3 4163   2.454   1.778   7.201
   81POPC   NTM 4164   2.588   1.745   7.153
   81POPC    CA 4165   2.578   1.705   7.011
   81POPC    CB 4166   2.699   1.648   6.933
   81POPC    OA 4167   2.816   1.731   6.928
   81POPC     P 4168   2.936   1.658   6.857
   81POPC    OB 4169   3.059   1.738   6.872
   81POPC    OC 4170   2.934   1.516   6.894
   81POPC    OD 4171   2.893   1.669   6.707
   81POPC    CC 4172   2.899   1.801   6.652
   81POPC    CD 4173   2.904   1.803   6.498
   81POPC    OE 4174   2.935   1.932   6.440
   81POPC   C1A 4175   3.014   1.933   6.333
   81POPC    OF 4176   3.070   1.829   6.298
   81POPC   C1B 4177   3.040   2.068   6.277
   81POPC   C1C 4178   3.045   2.070   6.124
   81POPC   C1D 4179   3.062   2.214   6.075
   81POPC   C1E 4180   3.070   2.225   5.922
   81POPC   C1F 4181   3.198   2.162   5.866
   81POPC   C1G 4182   3.216   2.187   5.716
   81POPC   C1H 4183   3.108   2.120   5.630
   81POPC   C1I 4184   3.139   2.139   5.481
   81POPC   C1J 4185   3.044   2.130   5.389
   81POPC   C1K 4186   2.899   2.098   5.426
   81POPC   C1L 4187   2.799   2.172   5.336
   81POPC   C1M 4188   2.791   2.122   5.191
   81POPC   C1N 4189   2.725   1.984   5.181
   81POPC   C1O 4190   2.702   1.941   5.036
   81POPC   C1P 4191   2.833   1.914   4.961
   81POPC   C1Q 4192   2.806   1.873   4.817
   81POPC   C1R 4193   2.936   1.838   4.744
   81POPC    CE 4194   2.775   1.737   6.446
   81POPC    OG 4195   2.787   1.594   6.432
   81POPC   C2A 4196   2.683   1.528   6.384
   81POPC    OH 4197   2.577   1.585   6.358
   81POPC   C2B 4198   2.708   1.382   6.376
   81POPC   C2C 4199   2.760   1.336   6.240
   81POPC   C2D 4200   2.649   1.329   6.135
   81POPC   C2E 4201   2.694   1.244   6.016
   81POPC   C2F 4202   2.574   1.205   5.930
   81POPC   C2G 4203   2.607   1.094   5.829
   81POPC   C2H 4204   2.693   1.144   5.713
   81POPC   C2I 4205   2.716   1.033   5.611
   81POPC   C2J 4206   2.786   1.088   5.487
   81POPC   C2K 4207   2.795   0.983   5.376
   81POPC   C2L 4208   2.852   1.046   5.249
   81POPC   C2M 4209   2.857   0.947   5.133
   81POPC   C2N 4210   2.909   1.017   5.007
   81POPC   C2O 4211   2.922   0.922   4.888
   81POPC   C2P 4212   2.786   0.869   4.840
   82POPC   CN1 4213   5.535   2.731   6.511
   82POPC   CN2 4214   5.391   2.650   6.683
   82POPC   CN3 4215   5.619   2.695   6.730
   82POPC   NTM 4216   5.502   2.741   6.653
   82POPC    CA 4217   5.472   2.881   6.691
   82POPC    CB 4218   5.356   2.957   6.622
   82POPC    OA 4219   5.225   2.904   6.645
   82POPC     P 4220   5.138   2.905   6.512
   82POPC    OB 4221   5.001   2.871   6.553
   82POPC    OC 4222   5.170   3.026   6.436
   82POPC    OD 4223   5.204   2.780   6.442
   82POPC    CC 4224   5.173   2.778   6.303
   82POPC    CD 4225   5.208   2.644   6.236
   82POPC    OE 4226   5.227   2.650   6.092
   82POPC   C1A 4227   5.350   2.668   6.044
   82POPC    OF 4228   5.446   2.672   6.122
   82POPC   C1B 4229   5.359   2.668   5.896
   82POPC   C1C 4230   5.348   2.809   5.837
   82POPC   C1D 4231   5.373   2.811   5.685
   82POPC   C1E 4232   5.266   2.735   5.606
   82POPC   C1F 4233   5.294   2.742   5.455
   82POPC   C1G 4234   5.187   2.666   5.377
   82POPC   C1H 4235   5.205   2.671   5.225
   82POPC   C1I 4236   5.329   2.595   5.176
   82POPC   C1J 4237   5.326   2.524   5.064
   82POPC   C1K 4238   5.198   2.517   4.981
   82POPC   C1L 4239   5.227   2.480   4.835
   82POPC   C1M 4240   5.099   2.474   4.751
   82POPC   C1N 4241   5.005   2.361   4.795
   82POPC   C1O 4242   4.873   2.361   4.716
   82POPC   C1P 4243   4.890   2.317   4.570
   82POPC   C1Q 4244   4.917   2.167   4.554
   82POPC   C1R 4245   4.795   2.081   4.591
   82POPC    CE 4246   5.108   2.539   6.287
   82POPC    OG 4247   4.969   2.573   6.269
   82POPC   C2A 4248   4.878   2.481   6.300
   82POPC    OH 4249   4.911   2.371   6.346
   82POPC   C2B 4250   4.738   2.522   6.276
   82POPC   C2C 4251   4.714   2.601   6.146
   82POPC   C2D 4252   4.731   2.516   6.020
   82POPC   C2E 4253   4.710   2.602   5.895
   82POPC   C2F 4254   4.706   2.516   5.769
   82POPC   C2G 4255   4.676   2.596   5.642
   82POPC   C2H 4256   4.787   2.695   5.607
   82POPC   C2I 4257   4.753   2.773   5.480
   82POPC   C2J 4258   4.861   2.877   5.452
   82POPC   C2K 4259   4.830   2.967   5.331
   82POPC   C2L 4260   4.831   2.890   5.198
   82POPC   C2M 4261   4.832   2.988   5.080
   82POPC   C2N 4262   4.820   2.918   4.944
   82POPC   C2O 4263   4.934   2.820   4.913
   82POPC   C2P 4264   5.069   2.890   4.892
   83POPC   CN1 4265   5.738   1.789   6.594
   83POPC   CN2 4266   5.660   1.878   6.387
   83POPC   CN3 4267   5.633   2.001   6.589
   83POPC   NTM 4268   5.724   1.912   6.515
   83POPC    CA 4269   5.851   1.986   6.497
   83POPC    CB 4270   5.974   1.921   6.428
   83POPC    OA 4271   5.957   1.873   6.294
   83POPC     P 4272   6.029   1.962   6.184
   83POPC    OB 4273   6.158   1.998   6.243
   83POPC    OC 4274   6.021   1.883   6.061
   83POPC    OD 4275   5.928   2.082   6.185
   83POPC    CC 4276   5.825   2.070   6.087
   83POPC    CD 4277   5.707   2.165   6.115
   83POPC    OE 4278   5.588   2.130   6.039
   83POPC   C1A 4279   5.470   2.179   6.074
   83POPC    OF 4280   5.456   2.238   6.181
   83POPC   C1B 4281   5.361   2.144   5.979
   83POPC   C1C 4282   5.313   2.269   5.905
   83POPC   C1D 4283   5.201   2.236   5.806
   83POPC   C1E 4284   5.137   2.366   5.757
   83POPC   C1F 4285   5.020   2.345   5.661
   83POPC   C1G 4286   5.064   2.316   5.518
   83POPC   C1H 4287   4.943   2.319   5.424
   83POPC   C1I 4288   4.984   2.303   5.278
   83POPC   C1J 4289   4.908   2.353   5.181
   83POPC   C1K 4290   4.777   2.425   5.214
   83POPC   C1L 4291   4.672   2.399   5.107
   83POPC   C1M 4292   4.537   2.464   5.141
   83POPC   C1N 4293   4.536   2.617   5.122
   83POPC   C1O 4294   4.536   2.660   4.975
   83POPC   C1P 4295   4.404   2.627   4.904
   83POPC   C1Q 4296   4.403   2.674   4.758
   83POPC   C1R 4297   4.502   2.597   4.671
   83POPC    CE 4298   5.763   2.309   6.100
   83POPC    OG 4299   5.795   2.352   5.966
   83POPC   C2A 4300   5.842   2.476   5.954
   83POPC    OH 4301   5.860   2.548   6.052
   83POPC   C2B 4302   5.859   2.516   5.813
   83POPC   C2C 4303   5.748   2.612   5.772
   83POPC   C2D 4304   5.729   2.620   5.620
   83POPC   C2E 4305   5.673   2.488   5.566
   83POPC   C2F 4306   5.640   2.495   5.417
   83POPC   C2G 4307   5.591   2.360   5.363
   83POPC   C2H 4308   5.462   2.314   5.431
   83POPC   C2I 4309   5.413   2.178   5.380
   83POPC   C2J 4310   5.362   2.184   5.236
   83POPC   C2K 4311   5.306   2.049   5.192
   83POPC   C2L 4312   5.255   2.055   5.048
   83POPC   C2M 4313   5.202   1.919   5.003
   83POPC   C2N 4314   5.160   1.924   4.856
   83POPC   C2O 4315   5.113   1.786   4.809
   83POPC   C2P 4316   5.077   1.789   4.660
   84POPC   CN1 4317   6.196   2.729   6.433
   84POPC   CN2 4318   6.407   2.620   6.422
   84POPC   CN3 4319   6.373   2.805   6.570
   84POPC   NTM 4320   6.310   2.684   6.513
   84POPC    CA 4321   6.272   2.593   6.623
   84POPC    CB 4322   6.213   2.452   6.594
   84POPC    OA 4323   6.088   2.451   6.525
   84POPC     P 4324   6.056   2.310   6.460
   84POPC    OB 4325   6.101   2.206   6.554
   84POPC    OC 4326   5.914   2.319   6.424
   84POPC    OD 4327   6.151   2.322   6.337
   84POPC    CC 4328   6.100   2.404   6.232
   84POPC    CD 4329   6.206   2.440   6.127
   84POPC    OE 4330   6.167   2.552   6.043
   84POPC   C1A 4331   6.263   2.615   5.975
   84POPC    OF 4332   6.375   2.624   6.024
   84POPC   C1B 4333   6.212   2.693   5.860
   84POPC   C1C 4334   6.302   2.673   5.737
   84POPC   C1D 4335   6.246   2.731   5.607
   84POPC   C1E 4336   6.225   2.883   5.611
   84POPC   C1F 4337   6.203   2.938   5.471
   84POPC   C1G 4338   6.172   3.088   5.475
   84POPC   C1H 4339   6.167   3.150   5.335
   84POPC   C1I 4340   6.307   3.175   5.278
   84POPC   C1J 4341   6.325   3.263   5.180
   84POPC   C1K 4342   6.206   3.338   5.119
   84POPC   C1L 4343   6.243   3.387   4.979
   84POPC   C1M 4344   6.127   3.460   4.910
   84POPC   C1N 4345   6.171   3.521   4.776
   84POPC   C1O 4346   6.212   3.415   4.673
   84POPC   C1P 4347   6.271   3.476   4.546
   84POPC   C1Q 4348   6.169   3.555   4.465
   84POPC   C1R 4349   6.233   3.615   4.339
   84POPC    CE 4350   6.238   2.308   6.055
   84POPC    OG 4351   6.134   2.263   5.965
   84POPC   C2A 4352   6.163   2.160   5.886
   84POPC    OH 4353   6.266   2.095   5.900
   84POPC   C2B 4354   6.060   2.136   5.783
   84POPC   C2C 4355   6.097   2.209   5.653
   84POPC   C2D 4356   5.989   2.194   5.546
   84POPC   C2E 4357   6.027   2.261   5.414
   84POPC   C2F 4358   6.039   2.414   5.426
   84POPC   C2G 4359   6.065   2.482   5.291
   84POPC   C2H 4360   6.204   2.449   5.236
   84POPC   C2I 4361   6.233   2.518   5.102
   84POPC   C2J 4362   6.243   2.670   5.115
   84POPC   C2K 4363   6.287   2.733   4.983
   84POPC   C2L 4364   6.299   2.885   4.996
   84POPC   C2M 4365   6.352   2.951   4.868
   84POPC   C2N 4366   6.256   2.941   4.749
   84POPC   C2O 4367   6.128   3.023   4.769
   84POPC   C2P 4368   6.036   3.011   4.648
   85POPC   CN1 4369   7.389   2.555   6.229
   85POPC   CN2 4370   7.182   2.573   6.117
   85POPC   CN3 4371   7.236   2.375   6.240
   85POPC   NTM 4372   7.247   2.521   6.238
   85POPC    CA 4373   7.193   2.583   6.362
   85POPC    CB 4374   7.044   2.566   6.403
   85POPC    OA 4375   6.949   2.620   6.311
   85POPC     P 4376   6.800   2.602   6.357
   85POPC    OB 4377   6.797   2.611   6.505
   85POPC    OC 4378   6.721   2.696   6.277
   85POPC    OD 4379   6.777   2.453   6.311
   85POPC    CC 4380   6.765   2.448   6.169
   85POPC    CD 4381   6.805   2.311   6.110
   85POPC    OE 4382   6.894   2.325   5.996
   85POPC   C1A 4383   6.993   2.238   5.980
   85POPC    OF 4384   7.034   2.175   6.078
   85POPC   C1B 4385   7.068   2.259   5.854
   85POPC   C1C 4386   6.982   2.237   5.729
   85POPC   C1D 4387   7.059   2.271   5.601
   85POPC   C1E 4388   6.969   2.252   5.479
   85POPC   C1F 4389   7.042   2.283   5.348
   85POPC   C1G 4390   6.950   2.257   5.228
   85POPC   C1H 4391   7.012   2.294   5.093
   85POPC   C1I 4392   7.128   2.203   5.052
   85POPC   C1J 4393   7.152   2.180   4.923
   85POPC   C1K 4394   7.065   2.244   4.815
   85POPC   C1L 4395   7.062   2.159   4.688
   85POPC   C1M 4396   6.973   2.222   4.581
   85POPC   C1N 4397   6.968   2.134   4.455
   85POPC   C1O 4398   6.876   2.193   4.347
   85POPC   C1P 4399   6.931   2.323   4.287
   85POPC   C1Q 4400   6.837   2.385   4.184
   85POPC   C1R 4401   6.823   2.299   4.057
   85POPC    CE 4402   6.675   2.230   6.092
   85POPC    OG 4403   6.587   2.273   5.986
   85POPC   C2A 4404   6.595   2.203   5.873
   85POPC    OH 4405   6.654   2.095   5.868
   85POPC   C2B 4406   6.513   2.258   5.762
   85POPC   C2C 4407   6.578   2.227   5.627
   85POPC   C2D 4408   6.479   2.227   5.511
   85POPC   C2E 4409   6.547   2.168   5.387
   85POPC   C2F 4410   6.450   2.143   5.272
   85POPC   C2G 4411   6.524   2.078   5.156
   85POPC   C2H 4412   6.434   2.060   5.034
   85POPC   C2I 4413   6.516   2.008   4.915
   85POPC   C2J 4414   6.434   2.008   4.787
   85POPC   C2K 4415   6.521   1.971   4.667
   85POPC   C2L 4416   6.442   1.984   4.536
   85POPC   C2M 4417   6.527   1.955   4.412
   85POPC   C2N 4418   6.569   1.809   4.401
   85POPC   C2O 4419   6.652   1.787   4.274
   85POPC   C2P 4420   6.692   1.640   4.260
   86POPC   CN1 4421   7.627   2.296   6.807
   86POPC   CN2 4422   7.671   2.071   6.872
   86POPC   CN3 4423   7.572   2.113   6.662
   86POPC   NTM 4424   7.670   2.164   6.759
   86POPC    CA 4425   7.805   2.165   6.697
   86POPC    CB 4426   7.854   2.281   6.607
   86POPC    OA 4427   7.763   2.337   6.511
   86POPC     P 4428   7.803   2.488   6.481
   86POPC    OB 4429   7.684   2.552   6.423
   86POPC    OC 4430   7.861   2.544   6.604
   86POPC    OD 4431   7.914   2.475   6.371
   86POPC    CC 4432   7.869   2.417   6.248
   86POPC    CD 4433   7.960   2.448   6.127
   86POPC    OE 4434   7.929   2.372   6.008
   86POPC   C1A 4435   7.832   2.411   5.925
   86POPC    OF 4436   7.740   2.483   5.964
   86POPC   C1B 4437   7.840   2.346   5.792
   86POPC   C1C 4438   7.763   2.214   5.783
   86POPC   C1D 4439   7.779   2.152   5.644
   86POPC   C1E 4440   7.715   2.238   5.534
   86POPC   C1F 4441   7.749   2.184   5.395
   86POPC   C1G 4442   7.684   2.270   5.287
   86POPC   C1H 4443   7.730   2.225   5.148
   86POPC   C1I 4444   7.662   2.307   5.038
   86POPC   C1J 4445   7.729   2.335   4.927
   86POPC   C1K 4446   7.875   2.290   4.915
   86POPC   C1L 4447   7.949   2.361   4.802
   86POPC   C1M 4448   7.917   2.302   4.664
   86POPC   C1N 4449   7.998   2.371   4.555
   86POPC   C1O 4450   7.990   2.293   4.424
   86POPC   C1P 4451   8.076   2.360   4.315
   86POPC   C1Q 4452   8.086   2.275   4.188
   86POPC   C1R 4453   7.952   2.258   4.116
   86POPC    CE 4454   8.105   2.424   6.173
   86POPC    OG 4455   8.208   2.456   6.077
   86POPC   C2A 4456   8.313   2.374   6.074
   86POPC    OH 4457   8.332   2.289   6.161
   86POPC   C2B 4458   8.404   2.401   5.961
   86POPC   C2C 4459   8.369   2.312   5.841
   86POPC   C2D 4460   8.460   2.342   5.722
   86POPC   C2E 4461   8.411   2.265   5.598
   86POPC   C2F 4462   8.498   2.286   5.474
   86POPC   C2G 4463   8.498   2.431   5.425
   86POPC   C2H 4464   8.570   2.443   5.291
   86POPC   C2I 4465   8.580   2.591   5.251
   86POPC   C2J 4466   8.639   2.612   5.111
   86POPC   C2K 4467   8.543   2.563   5.001
   86POPC   C2L 4468   8.588   2.610   4.863
   86POPC   C2M 4469   8.490   2.563   4.756
   86POPC   C2N 4470   8.523   2.628   4.621
   86POPC   C2O 4471   8.430   2.581   4.508
   86POPC   C2P 4472   8.458   2.436   4.468
   87POPC   CN1 4473   9.180   2.529   6.023
   87POPC   CN2 4474   9.110   2.308   6.074
   87POPC   CN3 4475   9.256   2.349   5.888
   87POPC   NTM 4476   9.223   2.389   6.026
   87POPC    CA 4477   9.342   2.378   6.115
   87POPC    CB 4478   9.413   2.241   6.133
   87POPC    OA 4479   9.331   2.135   6.185
   87POPC     P 4480   9.399   1.994   6.168
   87POPC    OB 4481   9.538   2.008   6.216
   87POPC    OC 4482   9.306   1.904   6.238
   87POPC    OD 4483   9.385   1.980   6.012
   87POPC    CC 4484   9.268   1.906   5.975
   87POPC    CD 4485   9.190   1.948   5.848
   87POPC    OE 4486   9.069   1.872   5.828
   87POPC   C1A 4487   8.957   1.913   5.888
   87POPC    OF 4488   8.958   2.013   5.960
   87POPC   C1B 4489   8.838   1.828   5.862
   87POPC   C1C 4490   8.748   1.878   5.749
   87POPC   C1D 4491   8.813   1.867   5.611
   87POPC   C1E 4492   8.715   1.911   5.502
   87POPC   C1F 4493   8.784   1.919   5.366
   87POPC   C1G 4494   8.687   1.975   5.262
   87POPC   C1H 4495   8.763   2.015   5.135
   87POPC   C1I 4496   8.667   2.072   5.031
   87POPC   C1J 4497   8.704   2.173   4.953
   87POPC   C1K 4498   8.843   2.238   4.966
   87POPC   C1L 4499   8.922   2.233   4.835
   87POPC   C1M 4500   8.860   2.317   4.723
   87POPC   C1N 4501   8.939   2.300   4.593
   87POPC   C1O 4502   8.868   2.373   4.479
   87POPC   C1P 4503   8.944   2.351   4.347
   87POPC   C1Q 4504   8.867   2.414   4.231
   87POPC   C1R 4505   8.940   2.391   4.099
   87POPC    CE 4506   9.287   1.952   5.729
   87POPC    OG 4507   9.344   2.082   5.707
   87POPC   C2A 4508   9.438   2.094   5.614
   87POPC    OH 4509   9.494   1.994   5.567
   87POPC   C2B 4510   9.476   2.234   5.590
   87POPC   C2C 4511   9.523   2.263   5.448
   87POPC   C2D 4512   9.544   2.414   5.430
   87POPC   C2E 4513   9.592   2.449   5.289
   87POPC   C2F 4514   9.596   2.600   5.270
   87POPC   C2G 4515   9.639   2.638   5.128
   87POPC   C2H 4516   9.621   2.788   5.104
   87POPC   C2I 4517   9.662   2.830   4.963
   87POPC   C2J 4518   9.814   2.832   4.944
   87POPC   C2K 4519   9.856   2.875   4.804
   87POPC   C2L 4520   9.818   2.772   4.697
   87POPC   C2M 4521   9.866   2.812   4.557
   87POPC   C2N 4522   9.795   2.938   4.504
   87POPC   C2O 4523   9.839   2.975   4.362
   87POPC   C2P 4524   9.793   2.873   4.258
   88POPC   CN1 4525   9.891   1.977   5.764
   88POPC   CN2 4526   9.671   1.894   5.804
   88POPC   CN3 4527   9.861   1.771   5.878
   88POPC   NTM 4528   9.806   1.906   5.860
   88POPC    CA 4529   9.800   1.972   5.993
   88POPC    CB 4530   9.787   2.126   6.004
   88POPC    OA 4531   9.696   2.189   5.913
   88POPC     P 4532   9.698   2.345   5.928
   88POPC    OB 4533   9.590   2.400   5.845
   88POPC    OC 4534   9.703   2.376   6.072
   88POPC    OD 4535   9.838   2.377   5.863
   88POPC    CC 4536   9.834   2.378   5.720
   88POPC    CD 4537   9.962   2.434   5.656
   88POPC    OE 4538   9.945   2.469   5.516
   88POPC   C1A 4539  10.027   2.557   5.460
   88POPC    OF 4540  10.105   2.622   5.530
   88POPC   C1B 4541  10.001   2.576   5.316
   88POPC   C1C 4542  10.129   2.587   5.233
   88POPC   C1D 4543  10.097   2.600   5.084
   88POPC   C1E 4544  10.224   2.611   5.000
   88POPC   C1F 4545  10.188   2.628   4.853
   88POPC   C1G 4546  10.313   2.644   4.766
   88POPC   C1H 4547  10.273   2.672   4.621
   88POPC   C1I 4548  10.397   2.691   4.534
   88POPC   C1J 4549  10.390   2.675   4.402
   88POPC   C1K 4550  10.258   2.638   4.335
   88POPC   C1L 4551  10.250   2.699   4.195
   88POPC   C1M 4552  10.124   2.655   4.121
   88POPC   C1N 4553  10.109   2.725   3.985
   88POPC   C1O 4554  10.219   2.687   3.885
   88POPC   C1P 4555  10.200   2.763   3.754
   88POPC   C1Q 4556  10.311   2.731   3.654
   88POPC   C1R 4557  10.294   2.809   3.524
   88POPC    CE 4558  10.075   2.335   5.689
   88POPC    OG 4559  10.069   2.208   5.621
   88POPC   C2A 4560  10.140   2.197   5.509
   88POPC    OH 4561  10.229   2.278   5.481
   88POPC   C2B 4562  10.113   2.071   5.436
   88POPC   C2C 4563   9.987   2.078   5.350
   88POPC   C2D 4564  10.003   2.165   5.226
   88POPC   C2E 4565   9.871   2.172   5.149
   88POPC   C2F 4566   9.885   2.252   5.020
   88POPC   C2G 4567   9.748   2.270   4.954
   88POPC   C2H 4568   9.754   2.354   4.826
   88POPC   C2I 4569   9.815   2.278   4.708
   88POPC   C2J 4570   9.813   2.365   4.583
   88POPC   C2K 4571   9.855   2.287   4.458
   88POPC   C2L 4572   9.849   2.377   4.335
   88POPC   C2M 4573   9.876   2.301   4.205
   88POPC   C2N 4574   9.764   2.201   4.173
   88POPC   C2O 4575   9.784   2.129   4.039
   88POPC   C2P 4576   9.771   2.224   3.919
   89POPC   CN1 4577  10.614   1.715   6.001
   89POPC   CN2 4578  10.747   1.792   6.179
   89POPC   CN3 4579  10.838   1.792   5.961
   89POPC   NTM 4580  10.715   1.815   6.038
   89POPC    CA 4581  10.668   1.954   6.022
   89POPC    CB 4582  10.608   2.005   5.889
   89POPC    OA 4583  10.478   1.953   5.857
   89POPC     P 4584  10.404   2.044   5.753
   89POPC    OB 4585  10.268   1.990   5.737
   89POPC    OC 4586  10.424   2.182   5.801
   89POPC    OD 4587  10.490   2.019   5.625
   89POPC    CC 4588  10.451   1.905   5.547
   89POPC    CD 4589  10.537   1.879   5.421
   89POPC    OE 4590  10.649   1.787   5.437
   89POPC   C1A 4591  10.632   1.663   5.388
   89POPC    OF 4592  10.519   1.623   5.361
   89POPC   C1B 4593  10.754   1.579   5.389
   89POPC   C1C 4594  10.842   1.599   5.265
   89POPC   C1D 4595  10.773   1.565   5.133
   89POPC   C1E 4596  10.866   1.592   5.015
   89POPC   C1F 4597  10.798   1.575   4.879
   89POPC   C1G 4598  10.691   1.682   4.855
   89POPC   C1H 4599  10.630   1.668   4.715
   89POPC   C1I 4600  10.524   1.775   4.689
   89POPC   C1J 4601  10.540   1.864   4.592
   89POPC   C1K 4602  10.667   1.863   4.505
   89POPC   C1L 4603  10.693   2.002   4.445
   89POPC   C1M 4604  10.823   2.003   4.365
   89POPC   C1N 4605  10.849   2.142   4.306
   89POPC   C1O 4606  10.985   2.150   4.235
   89POPC   C1P 4607  10.995   2.066   4.107
   89POPC   C1Q 4608  10.908   2.121   3.994
   89POPC   C1R 4609  10.921   2.036   3.868
   89POPC    CE 4610  10.568   2.015   5.356
   89POPC    OG 4611  10.458   2.067   5.279
   89POPC   C2A 4612  10.470   2.191   5.234
   89POPC    OH 4613  10.555   2.268   5.278
   89POPC   C2B 4614  10.367   2.225   5.133
   89POPC   C2C 4615  10.420   2.195   4.993
   89POPC   C2D 4616  10.317   2.221   4.884
   89POPC   C2E 4617  10.386   2.206   4.748
   89POPC   C2F 4618  10.291   2.226   4.629
   89POPC   C2G 4619  10.375   2.229   4.502
   89POPC   C2H 4620  10.290   2.235   4.375
   89POPC   C2I 4621  10.383   2.251   4.253
   89POPC   C2J 4622  10.306   2.255   4.121
   89POPC   C2K 4623  10.250   2.117   4.083
   89POPC   C2L 4624  10.171   2.122   3.952
   89POPC   C2M 4625  10.258   2.157   3.831
   89POPC   C2N 4626  10.175   2.162   3.703
   89POPC   C2O 4627  10.264   2.193   3.583
   89POPC   C2P 4628  10.183   2.193   3.453
   90POPC   CN1 4629  11.672   1.974   5.217
   90POPC   CN2 4630  11.608   2.139   5.378
   90POPC   CN3 4631  11.446   1.994   5.285
   90POPC   NTM 4632  11.584   2.002   5.332
   90POPC    CA 4633  11.602   1.905   5.442
   90POPC    CB 4634  11.742   1.875   5.501
   90POPC    OA 4635  11.821   1.986   5.541
   90POPC     P 4636  11.931   1.946   5.646
   90POPC    OB 4637  12.003   2.065   5.693
   90POPC    OC 4638  11.870   1.857   5.746
   90POPC    OD 4639  12.027   1.858   5.558
   90POPC    CC 4640  12.127   1.935   5.492
   90POPC    CD 4641  12.219   1.853   5.399
   90POPC    OE 4642  12.347   1.915   5.373
   90POPC   C1A 4643  12.449   1.893   5.456
   90POPC    OF 4644  12.430   1.855   5.572
   90POPC   C1B 4645  12.577   1.946   5.402
   90POPC   C1C 4646  12.634   1.852   5.296
   90POPC   C1D 4647  12.753   1.915   5.223
   90POPC   C1E 4648  12.810   1.821   5.115
   90POPC   C1F 4649  12.716   1.798   4.996
   90POPC   C1G 4650  12.708   1.919   4.903
   90POPC   C1H 4651  12.615   1.896   4.783
   90POPC   C1I 4652  12.667   1.790   4.685
   90POPC   C1J 4653  12.640   1.796   4.555
   90POPC   C1K 4654  12.555   1.909   4.496
   90POPC   C1L 4655  12.474   1.861   4.376
   90POPC   C1M 4656  12.393   1.976   4.315
   90POPC   C1N 4657  12.302   1.931   4.200
   90POPC   C1O 4658  12.376   1.886   4.073
   90POPC   C1P 4659  12.445   2.002   4.001
   90POPC   C1Q 4660  12.509   1.954   3.871
   90POPC   C1R 4661  12.576   2.070   3.797
   90POPC    CE 4662  12.138   1.823   5.272
   90POPC    OG 4663  12.043   1.715   5.282
   90POPC   C2A 4664  11.945   1.717   5.192
   90POPC    OH 4665  11.921   1.817   5.125
   90POPC   C2B 4666  11.858   1.598   5.198
   90POPC   C2C 4667  11.897   1.491   5.095
   90POPC   C2D 4668  11.846   1.523   4.954
   90POPC   C2E 4669  11.886   1.411   4.859
   90POPC   C2F 4670  11.807   1.413   4.729
   90POPC   C2G 4671  11.844   1.291   4.644
   90POPC   C2H 4672  11.738   1.257   4.539
   90POPC   C2I 4673  11.729   1.358   4.425
   90POPC   C2J 4674  11.620   1.313   4.327
   90POPC   C2K 4675  11.614   1.403   4.204
   90POPC   C2L 4676  11.505   1.353   4.108
   90POPC   C2M 4677  11.503   1.435   3.979
   90POPC   C2N 4678  11.397   1.378   3.884
   90POPC   C2O 4679  11.398   1.452   3.750
   90POPC   C2P 4680  11.297   1.389   3.654
   91POPC   CN1 4681  13.268   1.814   5.862
   91POPC   CN2 4682  13.279   1.585   5.794
   91POPC   CN3 4683  13.277   1.641   6.024
   91POPC   NTM 4684  13.222   1.678   5.893
   91POPC    CA 4685  13.074   1.667   5.898
   91POPC    CB 4686  12.988   1.687   5.771
   91POPC    OA 4687  13.009   1.810   5.701
   91POPC     P 4688  12.962   1.799   5.550
   91POPC    OB 4689  12.826   1.744   5.554
   91POPC    OC 4690  12.993   1.933   5.498
   91POPC    OD 4691  13.066   1.692   5.502
   91POPC    CC 4692  13.136   1.729   5.384
   91POPC    CD 4693  13.238   1.623   5.338
   91POPC    OE 4694  13.338   1.671   5.244
   91POPC   C1A 4695  13.448   1.729   5.290
   91POPC    OF 4696  13.466   1.743   5.412
   91POPC   C1B 4697  13.542   1.773   5.184
   91POPC   C1C 4698  13.648   1.666   5.155
   91POPC   C1D 4699  13.749   1.717   5.053
   91POPC   C1E 4700  13.857   1.612   5.024
   91POPC   C1F 4701  13.964   1.670   4.931
   91POPC   C1G 4702  14.076   1.571   4.898
   91POPC   C1H 4703  14.026   1.455   4.811
   91POPC   C1I 4704  14.143   1.371   4.761
   91POPC   C1J 4705  14.133   1.308   4.645
   91POPC   C1K 4706  14.004   1.320   4.564
   91POPC   C1L 4707  14.031   1.314   4.413
   91POPC   C1M 4708  13.903   1.332   4.331
   91POPC   C1N 4709  13.842   1.471   4.349
   91POPC   C1O 4710  13.713   1.489   4.267
   91POPC   C1P 4711  13.740   1.489   4.116
   91POPC   C1Q 4712  13.611   1.507   4.035
   91POPC   C1R 4713  13.549   1.646   4.052
   91POPC    CE 4714  13.160   1.498   5.294
   91POPC    OG 4715  13.059   1.519   5.193
   91POPC   C2A 4716  13.007   1.410   5.138
   91POPC    OH 4717  13.039   1.296   5.174
   91POPC   C2B 4718  12.911   1.443   5.030
   91POPC   C2C 4719  12.804   1.336   5.008
   91POPC   C2D 4720  12.711   1.381   4.896
   91POPC   C2E 4721  12.619   1.267   4.851
   91POPC   C2F 4722  12.534   1.309   4.730
   91POPC   C2G 4723  12.620   1.344   4.609
   91POPC   C2H 4724  12.537   1.394   4.491
   91POPC   C2I 4725  12.627   1.459   4.387
   91POPC   C2J 4726  12.715   1.360   4.311
   91POPC   C2K 4727  12.836   1.429   4.246
   91POPC   C2L 4728  12.800   1.538   4.144
   91POPC   C2M 4729  12.747   1.480   4.012
   91POPC   C2N 4730  12.710   1.593   3.917
   91POPC   C2O 4731  12.670   1.542   3.778
   91POPC   C2P 4732  12.790   1.484   3.702
   92POPC   CN1 4733  13.692   2.458   5.712
   92POPC   CN2 4734  13.574   2.565   5.535
   92POPC   CN3 4735  13.514   2.607   5.760
   92POPC   NTM 4736  13.627   2.583   5.671
   92POPC    CA 4737  13.718   2.699   5.681
   92POPC    CB 4738  13.835   2.718   5.581
   92POPC    OA 4739  13.921   2.606   5.558
   92POPC     P 4740  14.026   2.640   5.445
   92POPC    OB 4741  14.077   2.774   5.477
   92POPC    OC 4742  14.115   2.523   5.447
   92POPC    OD 4743  13.928   2.639   5.323
   92POPC    CC 4744  13.913   2.510   5.262
   92POPC    CD 4745  13.784   2.498   5.178
   92POPC    OE 4746  13.756   2.365   5.126
   92POPC   C1A 4747  13.690   2.277   5.200
   92POPC    OF 4748  13.671   2.296   5.320
   92POPC   C1B 4749  13.658   2.152   5.126
   92POPC   C1C 4750  13.526   2.159   5.049
   92POPC   C1D 4751  13.403   2.158   5.141
   92POPC   C1E 4752  13.272   2.162   5.064
   92POPC   C1F 4753  13.248   2.297   4.996
   92POPC   C1G 4754  13.117   2.300   4.916
   92POPC   C1H 4755  13.123   2.210   4.792
   92POPC   C1I 4756  12.990   2.210   4.717
   92POPC   C1J 4757  12.986   2.187   4.586
   92POPC   C1K 4758  13.115   2.161   4.509
   92POPC   C1L 4759  13.090   2.067   4.390
   92POPC   C1M 4760  13.219   2.043   4.311
   92POPC   C1N 4761  13.198   1.947   4.194
   92POPC   C1O 4762  13.105   2.004   4.087
   92POPC   C1P 4763  13.087   1.905   3.972
   92POPC   C1Q 4764  12.990   1.959   3.867
   92POPC   C1R 4765  12.975   1.861   3.751
   92POPC    CE 4766  13.788   2.611   5.074
   92POPC    OG 4767  13.894   2.607   4.977
   92POPC   C2A 4768  13.912   2.718   4.906
   92POPC    OH 4769  13.870   2.827   4.946
   92POPC   C2B 4770  14.001   2.697   4.790
   92POPC   C2C 4771  14.090   2.818   4.761
   92POPC   C2D 4772  14.182   2.791   4.643
   92POPC   C2E 4773  14.276   2.910   4.622
   92POPC   C2F 4774  14.380   2.885   4.513
   92POPC   C2G 4775  14.321   2.886   4.372
   92POPC   C2H 4776  14.430   2.868   4.265
   92POPC   C2I 4777  14.529   2.986   4.264
   92POPC   C2J 4778  14.637   2.971   4.156
   92POPC   C2K 4779  14.585   2.991   4.013
   92POPC   C2L 4780  14.541   3.135   3.987
   92POPC   C2M 4781  14.492   3.152   3.844
   92POPC   C2N 4782  14.436   3.292   3.822
   92POPC   C2O 4783  14.385   3.308   3.678
   92POPC   C2P 4784  14.318   3.444   3.659
   93POPC   CN1 4785  15.275   2.002   5.751
   93POPC   CN2 4786  15.085   2.138   5.795
   93POPC   CN3 4787  15.058   1.911   5.724
   93POPC   NTM 4788  15.139   2.002   5.805
   93POPC    CA 4789  15.149   1.960   5.947
   93POPC    CB 4790  15.024   1.945   6.036
   93POPC    OA 4791  14.935   1.842   5.997
   93POPC     P 4792  14.800   1.841   6.078
   93POPC    OB 4793  14.731   1.713   6.060
   93POPC    OC 4794  14.825   1.893   6.214
   93POPC    OD 4795  14.726   1.956   6.001
   93POPC    CC 4796  14.675   1.912   5.876
   93POPC    CD 4797  14.584   2.014   5.806
   93POPC    OE 4798  14.519   1.955   5.690
   93POPC   C1A 4799  14.417   2.017   5.632
   93POPC    OF 4800  14.367   2.119   5.682
   93POPC   C1B 4801  14.367   1.946   5.513
   93POPC   C1C 4802  14.447   1.979   5.387
   93POPC   C1D 4803  14.392   1.900   5.269
   93POPC   C1E 4804  14.465   1.936   5.139
   93POPC   C1F 4805  14.396   1.868   5.021
   93POPC   C1G 4806  14.468   1.901   4.890
   93POPC   C1H 4807  14.390   1.848   4.770
   93POPC   C1I 4808  14.468   1.874   4.641
   93POPC   C1J 4809  14.437   1.807   4.530
   93POPC   C1K 4810  14.323   1.706   4.527
   93POPC   C1L 4811  14.248   1.709   4.393
   93POPC   C1M 4812  14.166   1.837   4.377
   93POPC   C1N 4813  14.114   1.853   4.234
   93POPC   C1O 4814  14.035   1.984   4.221
   93POPC   C1P 4815  13.999   2.016   4.076
   93POPC   C1Q 4816  14.122   2.054   3.993
   93POPC   C1R 4817  14.083   2.088   3.849
   93POPC    CE 4818  14.670   2.140   5.778
   93POPC    OG 4819  14.775   2.123   5.680
   93POPC   C2A 4820  14.770   2.205   5.576
   93POPC    OH 4821  14.718   2.316   5.586
   93POPC   C2B 4822  14.861   2.162   5.467
   93POPC   C2C 4823  14.798   2.177   5.328
   93POPC   C2D 4824  14.889   2.114   5.222
   93POPC   C2E 4825  14.825   2.118   5.083
   93POPC   C2F 4826  14.911   2.041   4.982
   93POPC   C2G 4827  14.844   2.037   4.845
   93POPC   C2H 4828  14.919   1.943   4.750
   93POPC   C2I 4829  14.848   1.931   4.616
   93POPC   C2J 4830  14.914   1.823   4.529
   93POPC   C2K 4831  14.839   1.796   4.399
   93POPC   C2L 4832  14.852   1.909   4.296
   93POPC   C2M 4833  14.771   1.882   4.169
   93POPC   C2N 4834  14.620   1.889   4.195
   93POPC   C2O 4835  14.536   1.866   4.069
   93POPC   C2P 4836  14.542   1.721   4.020
   94POPC   CN1 4837  15.763   2.921   5.331
   94POPC   CN2 4838  15.976   2.829   5.384
   94POPC   CN3 4839  15.963   3.017   5.239
   94POPC   NTM 4840  15.904   2.954   5.358
   94POPC    CA 4841  15.921   3.039   5.478
   94POPC    CB 4842  15.862   3.182   5.483
   94POPC    OA 4843  15.720   3.193   5.475
   94POPC     P 4844  15.674   3.343   5.488
   94POPC    OB 4845  15.534   3.346   5.531
   94POPC    OC 4846  15.774   3.426   5.556
   94POPC    OD 4847  15.679   3.377   5.335
   94POPC    CC 4848  15.562   3.330   5.268
   94POPC    CD 4849  15.565   3.339   5.115
   94POPC    OE 4850  15.435   3.310   5.056
   94POPC   C1A 4851  15.336   3.398   5.068
   94POPC    OF 4852  15.354   3.508   5.122
   94POPC   C1B 4853  15.208   3.351   5.010
   94POPC   C1C 4854  15.178   3.413   4.873
   94POPC   C1D 4855  15.268   3.361   4.761
   94POPC   C1E 4856  15.233   3.436   4.632
   94POPC   C1F 4857  15.306   3.380   4.510
   94POPC   C1G 4858  15.265   3.461   4.388
   94POPC   C1H 4859  15.314   3.399   4.258
   94POPC   C1I 4860  15.262   3.482   4.140
   94POPC   C1J 4861  15.325   3.486   4.023
   94POPC   C1K 4862  15.454   3.408   3.996
   94POPC   C1L 4863  15.573   3.502   3.971
   94POPC   C1M 4864  15.640   3.549   4.101
   94POPC   C1N 4865  15.728   3.438   4.160
   94POPC   C1O 4866  15.793   3.479   4.293
   94POPC   C1P 4867  15.692   3.483   4.407
   94POPC   C1Q 4868  15.760   3.517   4.539
   94POPC   C1R 4869  15.664   3.505   4.657
   94POPC    CE 4870  15.676   3.240   5.077
   94POPC    OG 4871  15.712   3.234   4.938
   94POPC   C2A 4872  15.762   3.119   4.896
   94POPC    OH 4873  15.788   3.028   4.975
   94POPC   C2B 4874  15.789   3.118   4.750
   94POPC   C2C 4875  15.665   3.078   4.670
   94POPC   C2D 4876  15.695   3.080   4.521
   94POPC   C2E 4877  15.573   3.040   4.439
   94POPC   C2F 4878  15.606   3.045   4.290
   94POPC   C2G 4879  15.488   2.996   4.206
   94POPC   C2H 4880  15.528   2.994   4.058
   94POPC   C2I 4881  15.420   2.927   3.973
   94POPC   C2J 4882  15.465   2.913   3.828
   94POPC   C2K 4883  15.463   3.045   3.752
   94POPC   C2L 4884  15.530   3.028   3.615
   94POPC   C2M 4885  15.509   3.148   3.523
   94POPC   C2N 4886  15.366   3.155   3.470
   94POPC   C2O 4887  15.350   3.268   3.368
   94POPC   C2P 4888  15.208   3.270   3.311
   95POPC   CN1 4889  16.695   3.522   5.842
   95POPC   CN2 4890  16.691   3.566   5.610
   95POPC   CN3 4891  16.839   3.400   5.694
   95POPC   NTM 4892  16.706   3.460   5.710
   95POPC    CA 4893  16.599   3.360   5.687
   95POPC    CB 4894  16.582   3.239   5.783
   95POPC    OA 4895  16.683   3.138   5.781
   95POPC     P 4896  16.651   3.020   5.880
   95POPC    OB 4897  16.754   2.917   5.872
   95POPC    OC 4898  16.616   3.081   6.010
   95POPC    OD 4899  16.518   2.959   5.822
   95POPC    CC 4900  16.540   2.895   5.695
   95POPC    CD 4901  16.411   2.854   5.621
   95POPC    OE 4902  16.439   2.795   5.492
   95POPC   C1A 4903  16.344   2.726   5.429
   95POPC    OF 4904  16.238   2.698   5.486
   95POPC   C1B 4905  16.381   2.687   5.291
   95POPC   C1C 4906  16.320   2.782   5.188
   95POPC   C1D 4907  16.381   2.768   5.049
   95POPC   C1E 4908  16.367   2.627   4.990
   95POPC   C1F 4909  16.399   2.624   4.840
   95POPC   C1G 4910  16.543   2.665   4.807
   95POPC   C1H 4911  16.567   2.668   4.656
   95POPC   C1I 4912  16.570   2.528   4.594
   95POPC   C1J 4913  16.619   2.506   4.472
   95POPC   C1K 4914  16.669   2.621   4.385
   95POPC   C1L 4915  16.570   2.649   4.271
   95POPC   C1M 4916  16.619   2.762   4.181
   95POPC   C1N 4917  16.521   2.788   4.066
   95POPC   C1O 4918  16.515   2.672   3.967
   95POPC   C1P 4919  16.410   2.698   3.859
   95POPC   C1Q 4920  16.405   2.582   3.759
   95POPC   C1R 4921  16.298   2.608   3.652
   95POPC    CE 4922  16.324   2.982   5.616
   95POPC    OG 4923  16.377   3.093   5.540
   95POPC   C2A 4924  16.332   3.104   5.415
   95POPC    OH 4925  16.232   3.042   5.378
   95POPC   C2B 4926  16.401   3.209   5.335
   95POPC   C2C 4927  16.400   3.173   5.186
   95POPC   C2D 4928  16.453   3.287   5.098
   95POPC   C2E 4929  16.445   3.250   4.950
   95POPC   C2F 4930  16.550   3.145   4.911
   95POPC   C2G 4931  16.532   3.087   4.770
   95POPC   C2H 4932  16.537   3.193   4.660
   95POPC   C2I 4933  16.540   3.129   4.521
   95POPC   C2J 4934  16.518   3.237   4.415
   95POPC   C2K 4935  16.543   3.189   4.272
   95POPC   C2L 4936  16.521   3.306   4.176
   95POPC   C2M 4937  16.572   3.281   4.034
   95POPC   C2N 4938  16.489   3.179   3.956
   95POPC   C2O 4939  16.545   3.162   3.815
   95POPC   C2P 4940  16.460   3.065   3.733
   96POPC   CN1 4941  16.862   2.931   6.405
   96POPC   CN2 4942   0.041   3.104   6.406
   96POPC   CN3 4943   0.065   2.917   6.261
   96POPC   NTM 4944  16.951   3.010   6.321
   96POPC    CA 4945  16.869   3.079   6.218
   96POPC    CB 4946  16.932   3.180   6.118
   96POPC    OA 4947   0.061   3.127   6.049
   96POPC     P 4948   0.122   3.214   5.934
   96POPC    OB 4949   0.086   3.354   5.955
   96POPC    OC 4950   0.263   3.172   5.922
   96POPC    OD 4951   0.043   3.161   5.810
   96POPC    CC 4952   0.067   3.021   5.791
   96POPC    CD 4953   0.060   2.968   5.646
   96POPC    OE 4954   0.176   3.004   5.564
   96POPC   C1A 4955   0.288   2.932   5.579
   96POPC    OF 4956   0.297   2.847   5.668
   96POPC   C1B 4957   0.396   2.971   5.485
   96POPC   C1C 4958   0.534   2.961   5.550
   96POPC   C1D 4959   0.648   2.978   5.450
   96POPC   C1E 4960   0.654   3.119   5.389
   96POPC   C1F 4961   0.766   3.131   5.285
   96POPC   C1G 4962   0.739   3.041   5.165
   96POPC   C1H 4963   0.849   3.046   5.058
   96POPC   C1I 4964   0.852   3.180   4.983
   96POPC   C1J 4965   0.846   3.181   4.850
   96POPC   C1K 4966   0.833   3.050   4.772
   96POPC   C1L 4967   0.890   3.067   4.631
   96POPC   C1M 4968   0.867   2.941   4.547
   96POPC   C1N 4969   0.929   2.956   4.408
   96POPC   C1O 4970   1.083   2.956   4.415
   96POPC   C1P 4971   1.149   2.989   4.281
   96POPC   C1Q 4972   1.128   3.135   4.242
   96POPC   C1R 4973   1.204   3.169   4.114
   96POPC    CE 4974  16.905   3.006   5.590
   96POPC    OG 4975  16.875   2.938   5.467
   96POPC   C2A 4976  16.767   2.974   5.399
   96POPC    OH 4977  16.705   3.077   5.429
   96POPC   C2B 4978  16.748   2.895   5.275
   96POPC   C2C 4979  16.821   2.962   5.159
   96POPC   C2D 4980  16.834   2.870   5.037
   96POPC   C2E 4981  16.894   2.949   4.920
   96POPC   C2F 4982  16.918   2.863   4.797
   96POPC   C2G 4983  16.933   2.954   4.675
   96POPC   C2H 4984  16.971   2.881   4.546
   96POPC   C2I 4985   0.137   2.846   4.541
   96POPC   C2J 4986   0.176   2.807   4.398
   96POPC   C2K 4987   0.329   2.799   4.384
   96POPC   C2L 4988   0.369   2.788   4.237
   96POPC   C2M 4989   0.521   2.802   4.222
   96POPC   C2N 4990   0.560   2.816   4.075
   96POPC   C2O 4991   0.709   2.846   4.060
   96POPC   C2P 4992   0.747   2.865   3.913
   97POPC   CN1 4993   0.927   2.867   6.745
   97POPC   CN2 4994   1.116   2.722   6.769
   97POPC   CN3 4995   0.926   2.647   6.649
   97POPC   NTM 4996   1.009   2.765   6.678
   97POPC    CA 4997   1.073   2.819   6.555
   97POPC    CB 4998   0.988   2.891   6.447
   97POPC    OA 4999   0.883   2.816   6.385
   97POPC     P 5000   0.804   2.907   6.283
   97POPC    OB 5001   0.708   2.815   6.220
   97POPC    OC 5002   0.758   3.022   6.363
   97POPC    OD 5003   0.915   2.951   6.181
   97POPC    CC 5004   0.947   2.852   6.084
   97POPC    CD 5005   1.036   2.905   5.969
   97POPC    OE 5006   1.064   2.805   5.866
   97POPC   C1A 5007   0.986   2.800   5.758
   97POPC    OF 5008   0.876   2.855   5.759
   97POPC   C1B 5009   1.039   2.712   5.652
   97POPC   C1C 5010   1.001   2.757   5.510
   97POPC   C1D 5011   1.088   2.684   5.407
   97POPC   C1E 5012   1.046   2.711   5.262
   97POPC   C1F 5013   0.916   2.638   5.226
   97POPC   C1G 5014   0.877   2.653   5.078
   97POPC   C1H 5015   0.976   2.585   4.983
   97POPC   C1I 5016   0.929   2.595   4.838
   97POPC   C1J 5017   1.019   2.602   4.740
   97POPC   C1K 5018   1.168   2.601   4.775
   97POPC   C1L 5019   1.259   2.540   4.668
   97POPC   C1M 5020   1.267   2.624   4.540
   97POPC   C1N 5021   1.376   2.570   4.447
   97POPC   C1O 5022   1.388   2.656   4.321
   97POPC   C1P 5023   1.507   2.615   4.234
   97POPC   C1Q 5024   1.641   2.648   4.300
   97POPC   C1R 5025   1.759   2.607   4.211
   97POPC    CE 5026   1.159   2.972   6.033
   97POPC    OG 5027   1.263   3.008   5.940
   97POPC   C2A 5028   1.363   2.920   5.933
   97POPC    OH 5029   1.395   2.853   6.032
   97POPC   C2B 5030   1.444   2.929   5.809
   97POPC   C2C 5031   1.409   2.811   5.718
   97POPC   C2D 5032   1.507   2.793   5.603
   97POPC   C2E 5033   1.486   2.656   5.538
   97POPC   C2F 5034   1.604   2.615   5.449
   97POPC   C2G 5035   1.601   2.673   5.308
   97POPC   C2H 5036   1.498   2.601   5.221
   97POPC   C2I 5037   1.512   2.634   5.072
   97POPC   C2J 5038   1.476   2.780   5.040
   97POPC   C2K 5039   1.488   2.805   4.889
   97POPC   C2L 5040   1.436   2.944   4.854
   97POPC   C2M 5041   1.429   2.968   4.703
   97POPC   C2N 5042   1.567   2.978   4.637
   97POPC   C2O 5043   1.558   3.010   4.488
   97POPC   C2P 5044   1.504   3.151   4.462
   98POPC   CN1 5045   1.793   3.206   6.406
   98POPC   CN2 5046   1.691   3.367   6.549
   98POPC   CN3 5047   1.697   3.140   6.614
   98POPC   NTM 5048   1.773   3.246   6.546
   98POPC    CA 5049   1.902   3.276   6.612
   98POPC    CB 5050   2.016   3.171   6.608
   98POPC    OA 5051   1.993   3.043   6.668
   98POPC     P 5052   2.091   2.936   6.607
   98POPC    OB 5053   2.222   2.997   6.581
   98POPC    OC 5054   2.081   2.820   6.695
   98POPC    OD 5055   2.008   2.912   6.477
   98POPC    CC 5056   2.052   2.801   6.399
   98POPC    CD 5057   1.936   2.714   6.346
   98POPC    OE 5058   1.972   2.595   6.271
   98POPC   C1A 5059   2.017   2.485   6.331
   98POPC    OF 5060   2.051   2.488   6.450
   98POPC   C1B 5061   2.023   2.367   6.242
   98POPC   C1C 5062   2.146   2.368   6.152
   98POPC   C1D 5063   2.132   2.262   6.042
   98POPC   C1E 5064   2.244   2.275   5.939
   98POPC   C1F 5065   2.217   2.187   5.817
   98POPC   C1G 5066   2.327   2.202   5.712
   98POPC   C1H 5067   2.297   2.120   5.587
   98POPC   C1I 5068   2.412   2.131   5.486
   98POPC   C1J 5069   2.391   2.123   5.355
   98POPC   C1K 5070   2.251   2.102   5.298
   98POPC   C1L 5071   2.259   2.025   5.165
   98POPC   C1M 5072   2.119   2.003   5.106
   98POPC   C1N 5073   2.122   1.916   4.980
   98POPC   C1O 5074   2.182   1.985   4.857
   98POPC   C1P 5075   2.091   2.096   4.803
   98POPC   C1Q 5076   2.141   2.156   4.672
   98POPC   C1R 5077   2.130   2.057   4.555
   98POPC    CE 5078   1.839   2.808   6.271
   98POPC    OG 5079   1.892   2.886   6.162
   98POPC   C2A 5080   1.808   2.971   6.103
   98POPC    OH 5081   1.697   2.994   6.150
   98POPC   C2B 5082   1.866   3.042   5.987
   98POPC   C2C 5083   1.836   2.972   5.854
   98POPC   C2D 5084   1.886   3.057   5.737
   98POPC   C2E 5085   1.862   2.988   5.603
   98POPC   C2F 5086   1.905   3.080   5.488
   98POPC   C2G 5087   1.883   3.013   5.352
   98POPC   C2H 5088   1.923   3.108   5.239
   98POPC   C2I 5089   1.905   3.040   5.103
   98POPC   C2J 5090   1.944   3.136   4.990
   98POPC   C2K 5091   1.934   3.066   4.854
   98POPC   C2L 5092   1.972   3.161   4.741
   98POPC   C2M 5093   1.967   3.089   4.606
   98POPC   C2N 5094   2.002   3.181   4.488
   98POPC   C2O 5095   1.896   3.288   4.464
   98POPC   C2P 5096   1.930   3.372   4.341
   99POPC   CN1 5097   2.305   3.336   7.409
   99POPC   CN2 5098   2.111   3.420   7.300
   99POPC   CN3 5099   2.328   3.508   7.248
   99POPC   NTM 5100   2.252   3.386   7.281
   99POPC    CA 5101   2.268   3.279   7.179
   99POPC    CB 5102   2.216   3.298   7.034
   99POPC    OA 5103   2.270   3.413   6.968
   99POPC     P 5104   2.183   3.460   6.845
   99POPC    OB 5105   2.042   3.431   6.879
   99POPC    OC 5106   2.233   3.596   6.825
   99POPC    OD 5107   2.237   3.358   6.740
   99POPC    CC 5108   2.365   3.397   6.691
   99POPC    CD 5109   2.425   3.301   6.588
   99POPC    OE 5110   2.567   3.321   6.569
   99POPC   C1A 5111   2.653   3.245   6.636
   99POPC    OF 5112   2.615   3.161   6.719
   99POPC   C1B 5113   2.795   3.273   6.605
   99POPC   C1C 5114   2.848   3.186   6.490
   99POPC   C1D 5115   2.799   3.235   6.353
   99POPC   C1E 5116   2.851   3.148   6.239
   99POPC   C1F 5117   2.777   3.015   6.226
   99POPC   C1G 5118   2.840   2.925   6.119
   99POPC   C1H 5119   2.834   2.984   5.978
   99POPC   C1I 5120   2.908   2.894   5.879
   99POPC   C1J 5121   2.882   2.899   5.749
   99POPC   C1K 5122   2.779   2.998   5.693
   99POPC   C1L 5123   2.807   3.036   5.547
   99POPC   C1M 5124   2.785   2.920   5.450
   99POPC   C1N 5125   2.814   2.963   5.305
   99POPC   C1O 5126   2.793   2.845   5.209
   99POPC   C1P 5127   2.825   2.887   5.066
   99POPC   C1Q 5128   2.809   2.769   4.970
   99POPC   C1R 5129   2.848   2.809   4.827
   99POPC    CE 5130   2.335   3.309   6.462
   99POPC    OG 5131   2.372   3.218   6.358
   99POPC   C2A 5132   2.282   3.197   6.262
   99POPC    OH 5133   2.164   3.233   6.274
   99POPC   C2B 5134   2.338   3.107   6.159
   99POPC   C2C 5135   2.237   3.007   6.102
   99POPC   C2D 5136   2.310   2.878   6.062
   99POPC   C2E 5137   2.231   2.793   5.962
   99POPC   C2F 5138   2.232   2.855   5.822
   99POPC   C2G 5139   2.374   2.855   5.763
   99POPC   C2H 5140   2.386   2.943   5.638
   99POPC   C2I 5141   2.316   2.886   5.515
   99POPC   C2J 5142   2.353   2.969   5.393
   99POPC   C2K 5143   2.307   2.905   5.263
   99POPC   C2L 5144   2.360   2.985   5.144
   99POPC   C2M 5145   2.329   2.915   5.012
   99POPC   C2N 5146   2.388   2.994   4.895
   99POPC   C2O 5147   2.366   2.925   4.760
   99POPC   C2P 5148   2.444   2.794   4.749
  100POPC   CN1 5149   3.155   2.103   7.090
  100POPC   CN2 5150   2.940   2.038   7.012
  100POPC   CN3 5151   3.006   2.263   6.987
  100POPC   NTM 5152   3.055   2.124   6.984
  100POPC    CA 5153   3.109   2.084   6.851
  100POPC    CB 5154   3.232   2.158   6.792
  100POPC    OA 5155   3.207   2.296   6.768
  100POPC     P 5156   3.336   2.384   6.759
  100POPC    OB 5157   3.286   2.521   6.753
  100POPC    OC 5158   3.421   2.342   6.873
  100POPC    OD 5159   3.392   2.338   6.619
  100POPC    CC 5160   3.321   2.394   6.509
  100POPC    CD 5161   3.385   2.365   6.372
  100POPC    OE 5162   3.315   2.428   6.260
  100POPC   C1A 5163   3.365   2.540   6.209
  100POPC    OF 5164   3.435   2.612   6.280
  100POPC   C1B 5165   3.299   2.582   6.083
  100POPC   C1C 5166   3.393   2.662   5.993
  100POPC   C1D 5167   3.324   2.713   5.867
  100POPC   C1E 5168   3.286   2.601   5.770
  100POPC   C1F 5169   3.225   2.659   5.642
  100POPC   C1G 5170   3.187   2.548   5.544
  100POPC   C1H 5171   3.132   2.607   5.414
  100POPC   C1I 5172   3.091   2.496   5.317
  100POPC   C1J 5173   3.107   2.513   5.186
  100POPC   C1K 5174   3.167   2.644   5.134
  100POPC   C1L 5175   3.239   2.623   5.001
  100POPC   C1M 5176   3.299   2.755   4.953
  100POPC   C1N 5177   3.375   2.741   4.821
  100POPC   C1O 5178   3.283   2.711   4.703
  100POPC   C1P 5179   3.361   2.687   4.573
  100POPC   C1Q 5180   3.437   2.812   4.527
  100POPC   C1R 5181   3.515   2.783   4.399
  100POPC    CE 5182   3.399   2.212   6.362
  100POPC    OG 5183   3.478   2.163   6.252
  100POPC   C2A 5184   3.495   2.031   6.245
  100POPC    OH 5185   3.440   1.955   6.325
  100POPC   C2B 5186   3.578   1.987   6.131
  100POPC   C2C 5187   3.493   1.950   6.010
  100POPC   C2D 5188   3.581   1.898   5.895
  100POPC   C2E 5189   3.498   1.862   5.772
  100POPC   C2F 5190   3.589   1.801   5.665
  100POPC   C2G 5191   3.516   1.765   5.535
  100POPC   C2H 5192   3.474   1.890   5.457
  100POPC   C2I 5193   3.420   1.853   5.318
  100POPC   C2J 5194   3.380   1.980   5.244
  100POPC   C2K 5195   3.327   1.953   5.103
  100POPC   C2L 5196   3.283   2.085   5.040
  100POPC   C2M 5197   3.238   2.067   4.895
  100POPC   C2N 5198   3.198   2.202   4.836
  100POPC   C2O 5199   3.158   2.188   4.689
  100POPC   C2P 5200   3.122   2.325   4.630
  101POPC   CN1 5201   4.627   2.137   6.724
  101POPC   CN2 5202   4.743   2.337   6.778
  101POPC   CN3 5203   4.561   2.347   6.627
  101POPC   NTM 5204   4.611   2.282   6.749
  101POPC    CA 5205   4.523   2.308   6.866
  101POPC    CB 5206   4.375   2.263   6.870
  101POPC    OA 5207   4.358   2.123   6.852
  101POPC     P 5208   4.221   2.070   6.908
  101POPC    OB 5209   4.225   1.923   6.908
  101POPC    OC 5210   4.178   2.144   7.027
  101POPC    OD 5211   4.124   2.118   6.795
  101POPC    CC 5212   4.131   2.037   6.678
  101POPC    CD 5213   4.020   2.062   6.575
  101POPC    OE 5214   4.040   1.972   6.463
  101POPC   C1A 5215   3.940   1.895   6.420
  101POPC    OF 5216   3.835   1.886   6.484
  101POPC   C1B 5217   3.981   1.808   6.307
  101POPC   C1C 5218   4.002   1.885   6.176
  101POPC   C1D 5219   4.077   1.796   6.076
  101POPC   C1E 5220   4.119   1.871   5.950
  101POPC   C1F 5221   4.004   1.894   5.852
  101POPC   C1G 5222   4.055   1.972   5.731
  101POPC   C1H 5223   3.948   1.984   5.622
  101POPC   C1I 5224   3.999   2.076   5.510
  101POPC   C1J 5225   3.963   2.059   5.383
  101POPC   C1K 5226   3.869   1.947   5.339
  101POPC   C1L 5227   3.904   1.893   5.200
  101POPC   C1M 5228   3.883   1.996   5.087
  101POPC   C1N 5229   3.931   1.938   4.954
  101POPC   C1O 5230   3.917   2.040   4.841
  101POPC   C1P 5231   3.965   1.981   4.708
  101POPC   C1Q 5232   3.953   2.082   4.594
  101POPC   C1R 5233   4.001   2.023   4.462
  101POPC    CE 5234   4.026   2.212   6.539
  101POPC    OG 5235   3.923   2.264   6.453
  101POPC   C2A 5236   3.953   2.373   6.383
  101POPC    OH 5237   4.047   2.447   6.416
  101POPC   C2B 5238   3.848   2.409   6.286
  101POPC   C2C 5239   3.862   2.334   6.153
  101POPC   C2D 5240   3.750   2.374   6.058
  101POPC   C2E 5241   3.765   2.301   5.924
  101POPC   C2F 5242   3.658   2.347   5.824
  101POPC   C2G 5243   3.683   2.279   5.689
  101POPC   C2H 5244   3.591   2.334   5.579
  101POPC   C2I 5245   3.634   2.276   5.445
  101POPC   C2J 5246   3.562   2.342   5.328
  101POPC   C2K 5247   3.624   2.296   5.196
  101POPC   C2L 5248   3.565   2.372   5.077
  101POPC   C2M 5249   3.629   2.325   4.946
  101POPC   C2N 5250   3.576   2.406   4.828
  101POPC   C2O 5251   3.632   2.359   4.694
  101POPC   C2P 5252   3.580   2.221   4.654
  102POPC   CN1 5253   4.083   3.574   6.299
  102POPC   CN2 5254   4.147   3.764   6.427
  102POPC   CN3 5255   3.917   3.725   6.374
  102POPC   NTM 5256   4.044   3.661   6.411
  102POPC    CA 5257   4.018   3.587   6.536
  102POPC    CB 5258   4.128   3.503   6.604
  102POPC    OA 5259   4.176   3.394   6.527
  102POPC     P 5260   4.299   3.324   6.595
  102POPC    OB 5261   4.295   3.340   6.741
  102POPC    OC 5262   4.312   3.190   6.535
  102POPC    OD 5263   4.415   3.413   6.540
  102POPC    CC 5264   4.429   3.399   6.399
  102POPC    CD 5265   4.546   3.475   6.336
  102POPC    OE 5266   4.534   3.492   6.191
  102POPC   C1A 5267   4.441   3.572   6.140
  102POPC    OF 5268   4.374   3.645   6.213
  102POPC   C1B 5269   4.435   3.569   5.992
  102POPC   C1C 5270   4.291   3.577   5.941
  102POPC   C1D 5271   4.286   3.578   5.788
  102POPC   C1E 5272   4.141   3.583   5.739
  102POPC   C1F 5273   4.134   3.586   5.586
  102POPC   C1G 5274   3.989   3.579   5.540
  102POPC   C1H 5275   3.977   3.575   5.387
  102POPC   C1I 5276   3.830   3.551   5.350
  102POPC   C1J 5277   3.780   3.575   5.229
  102POPC   C1K 5278   3.862   3.625   5.110
  102POPC   C1L 5279   3.785   3.593   4.982
  102POPC   C1M 5280   3.853   3.644   4.855
  102POPC   C1N 5281   3.768   3.602   4.734
  102POPC   C1O 5282   3.827   3.642   4.599
  102POPC   C1P 5283   3.818   3.793   4.573
  102POPC   C1Q 5284   3.863   3.823   4.430
  102POPC   C1R 5285   3.858   3.973   4.400
  102POPC    CE 5286   4.672   3.401   6.383
  102POPC    OG 5287   4.677   3.262   6.343
  102POPC   C2A 5288   4.774   3.186   6.394
  102POPC    OH 5289   4.848   3.228   6.484
  102POPC   C2B 5290   4.768   3.046   6.347
  102POPC   C2C 5291   4.875   3.011   6.243
  102POPC   C2D 5292   4.844   3.064   6.103
  102POPC   C2E 5293   4.963   3.039   6.010
  102POPC   C2F 5294   4.939   3.095   5.870
  102POPC   C2G 5295   5.070   3.098   5.791
  102POPC   C2H 5296   5.049   3.149   5.648
  102POPC   C2I 5297   5.181   3.149   5.571
  102POPC   C2J 5298   5.159   3.166   5.421
  102POPC   C2K 5299   5.290   3.144   5.346
  102POPC   C2L 5300   5.272   3.126   5.195
  102POPC   C2M 5301   5.230   3.254   5.122
  102POPC   C2N 5302   5.224   3.226   4.972
  102POPC   C2O 5303   5.186   3.351   4.892
  102POPC   C2P 5304   5.179   3.318   4.742
  103POPC   CN1 5305   4.806   4.128   6.818
  103POPC   CN2 5306   4.966   4.030   6.968
  103POPC   CN3 5307   4.744   4.081   7.041
  103POPC   NTM 5308   4.824   4.032   6.928
  103POPC    CA 5309   4.773   3.898   6.894
  103POPC    CB 5310   4.842   3.807   6.790
  103POPC    OA 5311   4.852   3.854   6.655
  103POPC     P 5312   4.912   3.735   6.571
  103POPC    OB 5313   5.041   3.708   6.636
  103POPC    OC 5314   4.802   3.638   6.567
  103POPC    OD 5315   4.934   3.815   6.439
  103POPC    CC 5316   4.827   3.798   6.348
  103POPC    CD 5317   4.840   3.883   6.222
  103POPC    OE 5318   4.718   3.884   6.143
  103POPC   C1A 5319   4.698   3.988   6.062
  103POPC    OF 5320   4.742   4.098   6.095
  103POPC   C1B 5321   4.589   3.967   5.964
  103POPC   C1C 5322   4.644   3.908   5.835
  103POPC   C1D 5323   4.531   3.886   5.734
  103POPC   C1E 5324   4.587   3.829   5.604
  103POPC   C1F 5325   4.476   3.811   5.500
  103POPC   C1G 5326   4.538   3.763   5.369
  103POPC   C1H 5327   4.437   3.749   5.255
  103POPC   C1I 5328   4.347   3.626   5.266
  103POPC   C1J 5329   4.314   3.564   5.154
  103POPC   C1K 5330   4.375   3.619   5.025
  103POPC   C1L 5331   4.277   3.620   4.907
  103POPC   C1M 5332   4.340   3.709   4.799
  103POPC   C1N 5333   4.255   3.722   4.673
  103POPC   C1O 5334   4.320   3.831   4.587
  103POPC   C1P 5335   4.253   3.848   4.451
  103POPC   C1Q 5336   4.309   3.970   4.377
  103POPC   C1R 5337   4.459   3.957   4.346
  103POPC    CE 5338   4.970   3.835   6.154
  103POPC    OG 5339   5.002   3.896   6.028
  103POPC   C2A 5340   5.113   3.857   5.967
  103POPC    OH 5341   5.188   3.772   6.016
  103POPC   C2B 5342   5.134   3.925   5.837
  103POPC   C2C 5343   5.063   3.852   5.724
  103POPC   C2D 5344   5.065   3.935   5.595
  103POPC   C2E 5345   4.984   3.868   5.485
  103POPC   C2F 5346   4.968   3.962   5.365
  103POPC   C2G 5347   4.881   3.898   5.257
  103POPC   C2H 5348   4.852   3.998   5.144
  103POPC   C2I 5349   4.762   3.941   5.035
  103POPC   C2J 5350   4.829   3.827   4.957
  103POPC   C2K 5351   4.739   3.775   4.844
  103POPC   C2L 5352   4.725   3.872   4.726
  103POPC   C2M 5353   4.855   3.885   4.647
  103POPC   C2N 5354   4.838   3.981   4.529
  103POPC   C2O 5355   4.968   3.996   4.448
  103POPC   C2P 5356   5.076   4.072   4.526
  104POPC   CN1 5357   4.968   3.371   6.836
  104POPC   CN2 5358   5.187   3.440   6.899
  104POPC   CN3 5359   5.149   3.220   6.813
  104POPC   NTM 5360   5.110   3.361   6.802
  104POPC    CA 5361   5.128   3.412   6.664
  104POPC    CB 5362   5.270   3.426   6.602
  104POPC    OA 5363   5.344   3.305   6.593
  104POPC     P 5364   5.479   3.322   6.515
  104POPC    OB 5365   5.544   3.442   6.569
  104POPC    OC 5366   5.550   3.193   6.519
  104POPC    OD 5367   5.425   3.349   6.370
  104POPC    CC 5368   5.376   3.230   6.308
  104POPC    CD 5369   5.291   3.250   6.181
  104POPC    OE 5370   5.363   3.292   6.061
  104POPC   C1A 5371   5.430   3.199   5.992
  104POPC    OF 5372   5.476   3.100   6.051
  104POPC   C1B 5373   5.467   3.239   5.854
  104POPC   C1C 5374   5.591   3.164   5.806
  104POPC   C1D 5375   5.617   3.175   5.655
  104POPC   C1E 5376   5.741   3.092   5.621
  104POPC   C1F 5377   5.769   3.082   5.470
  104POPC   C1G 5378   5.663   3.001   5.396
  104POPC   C1H 5379   5.705   2.973   5.252
  104POPC   C1I 5380   5.591   2.905   5.176
  104POPC   C1J 5381   5.613   2.808   5.088
  104POPC   C1K 5382   5.753   2.756   5.057
  104POPC   C1L 5383   5.753   2.686   4.921
  104POPC   C1M 5384   5.886   2.618   4.892
  104POPC   C1N 5385   5.879   2.540   4.760
  104POPC   C1O 5386   6.006   2.459   4.737
  104POPC   C1P 5387   5.992   2.372   4.611
  104POPC   C1Q 5388   6.114   2.283   4.587
  104POPC   C1R 5389   6.239   2.363   4.548
  104POPC    CE 5390   5.174   3.342   6.225
  104POPC    OG 5391   5.066   3.353   6.132
  104POPC   C2A 5392   4.976   3.448   6.154
  104POPC    OH 5393   4.982   3.523   6.251
  104POPC   C2B 5394   4.868   3.450   6.052
  104POPC   C2C 5395   4.914   3.506   5.918
  104POPC   C2D 5396   4.808   3.482   5.811
  104POPC   C2E 5397   4.866   3.505   5.672
  104POPC   C2F 5398   4.769   3.459   5.563
  104POPC   C2G 5399   4.836   3.467   5.426
  104POPC   C2H 5400   4.742   3.419   5.316
  104POPC   C2I 5401   4.813   3.424   5.181
  104POPC   C2J 5402   4.717   3.386   5.068
  104POPC   C2K 5403   4.790   3.388   4.933
  104POPC   C2L 5404   4.694   3.362   4.818
  104POPC   C2M 5405   4.768   3.367   4.684
  104POPC   C2N 5406   4.673   3.352   4.565
  104POPC   C2O 5407   4.580   3.473   4.548
  104POPC   C2P 5408   4.484   3.454   4.431
  105POPC   CN1 5409   6.833   3.237   6.219
  105POPC   CN2 5410   6.654   3.147   6.355
  105POPC   CN3 5411   6.658   3.114   6.120
  105POPC   NTM 5412   6.742   3.123   6.240
  105POPC    CA 5413   6.816   2.995   6.252
  105POPC    CB 5414   6.913   2.964   6.369
  105POPC    OA 5415   7.024   3.053   6.388
  105POPC     P 5416   7.152   2.978   6.442
  105POPC    OB 5417   7.243   3.080   6.496
  105POPC    OC 5418   7.110   2.865   6.526
  105POPC    OD 5419   7.204   2.921   6.305
  105POPC    CC 5420   7.282   3.014   6.229
  105POPC    CD 5421   7.304   2.970   6.083
  105POPC    OE 5422   7.414   3.037   6.014
  105POPC   C1A 5423   7.480   2.965   5.922
  105POPC    OF 5424   7.454   2.845   5.904
  105POPC   C1B 5425   7.588   3.039   5.853
  105POPC   C1C 5426   7.532   3.118   5.735
  105POPC   C1D 5427   7.640   3.203   5.667
  105POPC   C1E 5428   7.712   3.132   5.552
  105POPC   C1F 5429   7.619   3.114   5.431
  105POPC   C1G 5430   7.699   3.075   5.307
  105POPC   C1H 5431   7.606   3.059   5.186
  105POPC   C1I 5432   7.686   3.047   5.056
  105POPC   C1J 5433   7.631   3.085   4.942
  105POPC   C1K 5434   7.487   3.137   4.943
  105POPC   C1L 5435   7.464   3.244   4.837
  105POPC   C1M 5436   7.318   3.291   4.841
  105POPC   C1N 5437   7.294   3.407   4.745
  105POPC   C1O 5438   7.150   3.456   4.755
  105POPC   C1P 5439   7.129   3.581   4.670
  105POPC   C1Q 5440   6.986   3.634   4.684
  105POPC   C1R 5441   6.971   3.766   4.610
  105POPC    CE 5442   7.167   2.986   6.013
  105POPC    OG 5443   7.088   2.866   6.004
  105POPC   C2A 5444   6.969   2.880   5.948
  105POPC    OH 5445   6.913   2.990   5.944
  105POPC   C2B 5446   6.907   2.749   5.913
  105POPC   C2C 5447   6.755   2.755   5.894
  105POPC   C2D 5448   6.701   2.622   5.841
  105POPC   C2E 5449   6.744   2.591   5.697
  105POPC   C2F 5450   6.670   2.679   5.596
  105POPC   C2G 5451   6.712   2.647   5.453
  105POPC   C2H 5452   6.629   2.732   5.355
  105POPC   C2I 5453   6.668   2.708   5.209
  105POPC   C2J 5454   6.636   2.566   5.162
  105POPC   C2K 5455   6.675   2.549   5.015
  105POPC   C2L 5456   6.633   2.411   4.963
  105POPC   C2M 5457   6.673   2.390   4.816
  105POPC   C2N 5458   6.599   2.485   4.722
  105POPC   C2O 5459   6.644   2.462   4.577
  105POPC   C2P 5460   6.576   2.561   4.483
  106POPC   CN1 5461   8.291   2.920   6.494
  106POPC   CN2 5462   8.389   2.712   6.559
  106POPC   CN3 5463   8.156   2.725   6.524
  106POPC   NTM 5464   8.286   2.775   6.476
  106POPC    CA 5465   8.298   2.739   6.333
  106POPC    CB 5466   8.426   2.777   6.255
  106POPC    OA 5467   8.544   2.707   6.297
  106POPC     P 5468   8.675   2.795   6.279
  106POPC    OB 5469   8.640   2.922   6.344
  106POPC    OC 5470   8.775   2.701   6.332
  106POPC    OD 5471   8.665   2.799   6.123
  106POPC    CC 5472   8.747   2.705   6.056
  106POPC    CD 5473   8.714   2.690   5.906
  106POPC    OE 5474   8.807   2.602   5.837
  106POPC   C1A 5475   8.799   2.470   5.852
  106POPC    OF 5476   8.728   2.420   5.940
  106POPC   C1B 5477   8.904   2.395   5.779
  106POPC   C1C 5478   8.868   2.359   5.635
  106POPC   C1D 5479   8.988   2.286   5.572
  106POPC   C1E 5480   8.970   2.260   5.422
  106POPC   C1F 5481   8.965   2.389   5.340
  106POPC   C1G 5482   9.097   2.466   5.341
  106POPC   C1H 5483   9.080   2.599   5.269
  106POPC   C1I 5484   9.212   2.676   5.262
  106POPC   C1J 5485   9.231   2.762   5.163
  106POPC   C1K 5486   9.119   2.781   5.060
  106POPC   C1L 5487   9.122   2.922   5.000
  106POPC   C1M 5488   9.005   2.947   4.905
  106POPC   C1N 5489   9.010   2.860   4.780
  106POPC   C1O 5490   8.896   2.898   4.685
  106POPC   C1P 5491   8.898   2.813   4.558
  106POPC   C1Q 5492   8.792   2.864   4.460
  106POPC   C1R 5493   8.793   2.781   4.331
  106POPC    CE 5494   8.705   2.834   5.851
  106POPC    OG 5495   8.638   2.852   5.725
  106POPC   C2A 5496   8.597   2.975   5.696
  106POPC    OH 5497   8.592   3.062   5.783
  106POPC   C2B 5498   8.551   2.996   5.557
  106POPC   C2C 5499   8.644   2.935   5.452
  106POPC   C2D 5500   8.639   3.008   5.317
  106POPC   C2E 5501   8.504   2.998   5.245
  106POPC   C2F 5502   8.506   3.073   5.112
  106POPC   C2G 5503   8.604   3.011   5.011
  106POPC   C2H 5504   8.605   3.086   4.877
  106POPC   C2I 5505   8.474   3.070   4.800
  106POPC   C2J 5506   8.481   3.139   4.665
  106POPC   C2K 5507   8.347   3.131   4.593
  106POPC   C2L 5508   8.353   3.199   4.456
  106POPC   C2M 5509   8.214   3.200   4.391
  106POPC   C2N 5510   8.220   3.263   4.252
  106POPC   C2O 5511   8.083   3.272   4.185
  106POPC   C2P 5512   8.026   3.134   4.149
  107POPC   CN1 5513  10.047   2.744   6.212
  107POPC   CN2 5514   9.883   2.881   6.108
  107POPC   CN3 5515   9.911   2.653   6.041
  107POPC   NTM 5516   9.911   2.744   6.156
  107POPC    CA 5517   9.816   2.699   6.260
  107POPC    CB 5518   9.664   2.688   6.232
  107POPC    OA 5519   9.605   2.811   6.191
  107POPC     P 5520   9.455   2.804   6.150
  107POPC    OB 5521   9.387   2.718   6.249
  107POPC    OC 5522   9.416   2.944   6.128
  107POPC    OD 5523   9.474   2.728   6.014
  107POPC    CC 5524   9.527   2.811   5.911
  107POPC    CD 5525   9.558   2.736   5.780
  107POPC    OE 5526   9.629   2.812   5.678
  107POPC   C1A 5527   9.761   2.827   5.685
  107POPC    OF 5528   9.825   2.790   5.783
  107POPC   C1B 5529   9.819   2.891   5.564
  107POPC   C1C 5530   9.826   3.044   5.576
  107POPC   C1D 5531   9.879   3.105   5.446
  107POPC   C1E 5532   9.868   3.257   5.447
  107POPC   C1F 5533   9.924   3.321   5.319
  107POPC   C1G 5534   9.850   3.275   5.193
  107POPC   C1H 5535   9.909   3.341   5.068
  107POPC   C1I 5536   9.846   3.283   4.941
  107POPC   C1J 5537   9.831   3.357   4.832
  107POPC   C1K 5538   9.876   3.503   4.830
  107POPC   C1L 5539   9.789   3.586   4.736
  107POPC   C1M 5540   9.828   3.734   4.739
  107POPC   C1N 5541   9.733   3.815   4.650
  107POPC   C1O 5542   9.759   3.966   4.655
  107POPC   C1P 5543   9.891   4.005   4.588
  107POPC   C1Q 5544   9.916   4.156   4.592
  107POPC   C1R 5545   9.816   4.236   4.508
  107POPC    CE 5546   9.425   2.674   5.733
  107POPC    OG 5547   9.316   2.767   5.725
  107POPC   C2A 5548   9.194   2.719   5.701
  107POPC    OH 5549   9.174   2.598   5.698
  107POPC   C2B 5550   9.092   2.825   5.692
  107POPC   C2C 5551   9.091   2.893   5.554
  107POPC   C2D 5552   9.016   3.026   5.559
  107POPC   C2E 5553   9.025   3.101   5.426
  107POPC   C2F 5554   8.971   3.243   5.444
  107POPC   C2G 5555   8.984   3.331   5.320
  107POPC   C2H 5556   8.880   3.299   5.211
  107POPC   C2I 5557   8.864   3.417   5.116
  107POPC   C2J 5558   8.978   3.434   5.015
  107POPC   C2K 5559   8.958   3.343   4.894
  107POPC   C2L 5560   9.066   3.368   4.788
  107POPC   C2M 5561   9.039   3.292   4.658
  107POPC   C2N 5562   8.916   3.345   4.585
  107POPC   C2O 5563   8.892   3.269   4.454
  107POPC   C2P 5564   8.769   3.324   4.381
  108POPC   CN1 5565  10.432   2.520   5.426
  108POPC   CN2 5566  10.613   2.628   5.538
  108POPC   CN3 5567  10.395   2.634   5.631
  108POPC   NTM 5568  10.490   2.551   5.557
  108POPC    CA 5569  10.508   2.426   5.635
  108POPC    CB 5570  10.612   2.320   5.592
  108POPC    OA 5571  10.746   2.363   5.612
  108POPC     P 5572  10.852   2.251   5.586
  108POPC    OB 5573  10.963   2.317   5.656
  108POPC    OC 5574  10.800   2.123   5.634
  108POPC    OD 5575  10.862   2.261   5.430
  108POPC    CC 5576  10.951   2.363   5.386
  108POPC    CD 5577  10.974   2.363   5.234
  108POPC    OE 5578  11.094   2.434   5.193
  108POPC   C1A 5579  11.212   2.373   5.201
  108POPC    OF 5580  11.223   2.266   5.260
  108POPC   C1B 5581  11.324   2.453   5.147
  108POPC   C1C 5582  11.441   2.366   5.099
  108POPC   C1D 5583  11.407   2.289   4.971
  108POPC   C1E 5584  11.520   2.194   4.931
  108POPC   C1F 5585  11.481   2.123   4.801
  108POPC   C1G 5586  11.578   2.013   4.759
  108POPC   C1H 5587  11.527   1.954   4.627
  108POPC   C1I 5588  11.605   1.830   4.581
  108POPC   C1J 5589  11.540   1.738   4.511
  108POPC   C1K 5590  11.391   1.761   4.481
  108POPC   C1L 5591  11.342   1.679   4.362
  108POPC   C1M 5592  11.194   1.708   4.336
  108POPC   C1N 5593  11.138   1.620   4.225
  108POPC   C1O 5594  10.991   1.654   4.200
  108POPC   C1P 5595  10.925   1.565   4.094
  108POPC   C1Q 5596  10.907   1.421   4.143
  108POPC   C1R 5597  10.837   1.335   4.037
  108POPC    CE 5598  10.841   2.407   5.171
  108POPC    OG 5599  10.830   2.388   5.028
  108POPC   C2A 5600  10.723   2.436   4.968
  108POPC    OH 5601  10.639   2.504   5.028
  108POPC   C2B 5602  10.719   2.405   4.823
  108POPC   C2C 5603  10.755   2.527   4.737
  108POPC   C2D 5604  10.760   2.488   4.590
  108POPC   C2E 5605  10.795   2.609   4.502
  108POPC   C2F 5606  10.817   2.566   4.357
  108POPC   C2G 5607  10.851   2.687   4.270
  108POPC   C2H 5608  10.888   2.648   4.127
  108POPC   C2I 5609  11.022   2.573   4.121
  108POPC   C2J 5610  11.060   2.539   3.977
  108POPC   C2K 5611  11.195   2.466   3.974
  108POPC   C2L 5612  11.240   2.436   3.831
  108POPC   C2M 5613  11.377   2.367   3.827
  108POPC   C2N 5614  11.488   2.459   3.878
  108POPC   C2O 5615  11.623   2.386   3.881
  108POPC   C2P 5616  11.733   2.478   3.936
  109POPC   CN1 5617  12.561   2.024   5.820
  109POPC   CN2 5618  12.510   2.229   5.931
  109POPC   CN3 5619  12.574   2.226   5.700
  109POPC   NTM 5620  12.498   2.155   5.804
  109POPC    CA 5621  12.356   2.135   5.767
  109POPC    CB 5622  12.261   2.256   5.750
  109POPC    OA 5623  12.306   2.351   5.653
  109POPC     P 5624  12.228   2.486   5.657
  109POPC    OB 5625  12.208   2.522   5.798
  109POPC    OC 5626  12.308   2.572   5.567
  109POPC    OD 5627  12.093   2.439   5.591
  109POPC    CC 5628  12.097   2.447   5.449
  109POPC    CD 5629  11.985   2.371   5.377
  109POPC    OE 5630  11.997   2.384   5.233
  109POPC   C1A 5631  11.924   2.309   5.151
  109POPC    OF 5632  11.835   2.237   5.196
  109POPC   C1B 5633  11.951   2.335   5.007
  109POPC   C1C 5634  11.949   2.208   4.922
  109POPC   C1D 5635  12.072   2.120   4.944
  109POPC   C1E 5636  12.065   1.992   4.862
  109POPC   C1F 5637  12.193   1.910   4.877
  109POPC   C1G 5638  12.185   1.773   4.809
  109POPC   C1H 5639  12.168   1.784   4.657
  109POPC   C1I 5640  12.160   1.645   4.592
  109POPC   C1J 5641  12.078   1.625   4.489
  109POPC   C1K 5642  11.993   1.740   4.436
  109POPC   C1L 5643  11.927   1.705   4.302
  109POPC   C1M 5644  11.838   1.820   4.256
  109POPC   C1N 5645  11.751   1.780   4.136
  109POPC   C1O 5646  11.651   1.892   4.106
  109POPC   C1P 5647  11.549   1.848   4.001
  109POPC   C1Q 5648  11.443   1.956   3.981
  109POPC   C1R 5649  11.334   1.908   3.885
  109POPC    CE 5650  11.852   2.420   5.441
  109POPC    OG 5651  11.822   2.560   5.427
  109POPC   C2A 5652  11.696   2.588   5.393
  109POPC    OH 5653  11.607   2.504   5.402
  109POPC   C2B 5654  11.674   2.731   5.362
  109POPC   C2C 5655  11.643   2.753   5.213
  109POPC   C2D 5656  11.766   2.740   5.122
  109POPC   C2E 5657  11.727   2.751   4.975
  109POPC   C2F 5658  11.665   2.620   4.925
  109POPC   C2G 5659  11.574   2.638   4.803
  109POPC   C2H 5660  11.645   2.676   4.674
  109POPC   C2I 5661  11.539   2.687   4.564
  109POPC   C2J 5662  11.595   2.727   4.427
  109POPC   C2K 5663  11.478   2.744   4.331
  109POPC   C2L 5664  11.523   2.792   4.193
  109POPC   C2M 5665  11.400   2.816   4.104
  109POPC   C2N 5666  11.441   2.867   3.966
  109POPC   C2O 5667  11.318   2.891   3.878
  109POPC   C2P 5668  11.360   2.940   3.740
  110POPC   CN1 5669  12.517   4.464   5.762
  110POPC   CN2 5670  12.558   4.427   5.993
  110POPC   CN3 5671  12.432   4.268   5.865
  110POPC   NTM 5672  12.546   4.361   5.862
  110POPC    CA 5673  12.671   4.294   5.821
  110POPC    CB 5674  12.739   4.186   5.910
  110POPC    OA 5675  12.652   4.083   5.956
  110POPC     P 5676  12.726   3.960   6.019
  110POPC    OB 5677  12.855   4.003   6.074
  110POPC    OC 5678  12.622   3.895   6.100
  110POPC    OD 5679  12.748   3.878   5.887
  110POPC    CC 5680  12.627   3.819   5.838
  110POPC    CD 5681  12.644   3.742   5.706
  110POPC    OE 5682  12.522   3.700   5.638
  110POPC   C1A 5683  12.446   3.788   5.573
  110POPC    OF 5684  12.443   3.906   5.609
  110POPC   C1B 5685  12.350   3.727   5.479
  110POPC   C1C 5686  12.420   3.686   5.349
  110POPC   C1D 5687  12.323   3.635   5.243
  110POPC   C1E 5688  12.401   3.565   5.132
  110POPC   C1F 5689  12.309   3.525   5.016
  110POPC   C1G 5690  12.384   3.435   4.917
  110POPC   C1H 5691  12.298   3.406   4.794
  110POPC   C1I 5692  12.362   3.296   4.708
  110POPC   C1J 5693  12.353   3.296   4.575
  110POPC   C1K 5694  12.280   3.405   4.497
  110POPC   C1L 5695  12.151   3.352   4.433
  110POPC   C1M 5696  12.095   3.455   4.334
  110POPC   C1N 5697  11.965   3.405   4.270
  110POPC   C1O 5698  11.918   3.496   4.156
  110POPC   C1P 5699  11.877   3.636   4.205
  110POPC   C1Q 5700  11.841   3.730   4.089
  110POPC   C1R 5701  11.713   3.689   4.016
  110POPC    CE 5702  12.743   3.628   5.742
  110POPC    OG 5703  12.786   3.539   5.638
  110POPC   C2A 5704  12.882   3.580   5.555
  110POPC    OH 5705  12.939   3.688   5.570
  110POPC   C2B 5706  12.915   3.479   5.453
  110POPC   C2C 5707  12.831   3.497   5.327
  110POPC   C2D 5708  12.868   3.391   5.223
  110POPC   C2E 5709  12.788   3.412   5.094
  110POPC   C2F 5710  12.811   3.300   4.992
  110POPC   C2G 5711  12.953   3.297   4.935
  110POPC   C2H 5712  12.965   3.182   4.835
  110POPC   C2I 5713  13.099   3.183   4.761
  110POPC   C2J 5714  13.098   3.077   4.651
  110POPC   C2K 5715  13.220   3.089   4.560
  110POPC   C2L 5716  13.203   3.000   4.438
  110POPC   C2M 5717  13.309   3.031   4.332
  110POPC   C2N 5718  13.276   2.956   4.202
  110POPC   C2O 5719  13.372   2.996   4.090
  110POPC   C2P 5720  13.331   2.926   3.959
  111POPC   CN1 5721  12.983   2.921   5.758
  111POPC   CN2 5722  12.747   2.946   5.755
  111POPC   CN3 5723  12.871   3.024   5.943
  111POPC   NTM 5724  12.873   3.010   5.797
  111POPC    CA 5725  12.881   3.141   5.727
  111POPC    CB 5726  12.993   3.243   5.760
  111POPC    OA 5727  13.128   3.194   5.764
  111POPC     P 5728  13.229   3.295   5.697
  111POPC    OB 5729  13.189   3.428   5.746
  111POPC    OC 5730  13.356   3.235   5.738
  111POPC    OD 5731  13.191   3.267   5.547
  111POPC    CC 5732  13.276   3.168   5.490
  111POPC    CD 5733  13.268   3.148   5.338
  111POPC    OE 5734  13.331   3.250   5.256
  111POPC   C1A 5735  13.464   3.248   5.243
  111POPC    OF 5736  13.532   3.157   5.293
  111POPC   C1B 5737  13.518   3.359   5.161
  111POPC   C1C 5738  13.577   3.311   5.028
  111POPC   C1D 5739  13.469   3.266   4.929
  111POPC   C1E 5740  13.530   3.207   4.801
  111POPC   C1F 5741  13.588   3.066   4.817
  111POPC   C1G 5742  13.479   2.963   4.848
  111POPC   C1H 5743  13.534   2.820   4.841
  111POPC   C1I 5744  13.425   2.719   4.878
  111POPC   C1J 5745  13.417   2.602   4.816
  111POPC   C1K 5746  13.516   2.565   4.705
  111POPC   C1L 5747  13.512   2.415   4.675
  111POPC   C1M 5748  13.603   2.380   4.557
  111POPC   C1N 5749  13.587   2.235   4.513
  111POPC   C1O 5750  13.646   2.134   4.612
  111POPC   C1P 5751  13.618   1.991   4.565
  111POPC   C1Q 5752  13.688   1.886   4.651
  111POPC   C1R 5753  13.840   1.886   4.630
  111POPC    CE 5754  13.123   3.110   5.307
  111POPC    OG 5755  13.101   2.970   5.330
  111POPC   C2A 5756  12.983   2.932   5.378
  111POPC    OH 5757  12.914   3.012   5.441
  111POPC   C2B 5758  12.963   2.785   5.377
  111POPC   C2C 5759  12.894   2.733   5.250
  111POPC   C2D 5760  12.984   2.743   5.126
  111POPC   C2E 5761  12.912   2.689   5.002
  111POPC   C2F 5762  13.001   2.703   4.878
  111POPC   C2G 5763  12.928   2.653   4.754
  111POPC   C2H 5764  13.015   2.667   4.629
  111POPC   C2I 5765  12.939   2.621   4.505
  111POPC   C2J 5766  13.021   2.633   4.376
  111POPC   C2K 5767  13.140   2.537   4.375
  111POPC   C2L 5768  13.213   2.541   4.240
  111POPC   C2M 5769  13.328   2.440   4.239
  111POPC   C2N 5770  13.396   2.436   4.102
  111POPC   C2O 5771  13.508   2.332   4.101
  111POPC   C2P 5772  13.575   2.325   3.964
  112POPC   CN1 5773  13.816   2.973   5.252
  112POPC   CN2 5774  14.022   3.018   5.144
  112POPC   CN3 5775  13.888   3.199   5.223
  112POPC   NTM 5776  13.933   3.062   5.252
  112POPC    CA 5777  14.010   3.054   5.378
  112POPC    CB 5778  13.954   3.110   5.512
  112POPC    OA 5779  13.822   3.067   5.542
  112POPC     P 5780  13.769   3.114   5.682
  112POPC    OB 5781  13.643   3.039   5.688
  112POPC    OC 5782  13.873   3.098   5.784
  112POPC    OD 5783  13.750   3.268   5.662
  112POPC    CC 5784  13.641   3.304   5.577
  112POPC    CD 5785  13.606   3.454   5.587
  112POPC    OE 5786  13.484   3.486   5.513
  112POPC   C1A 5787  13.422   3.602   5.534
  112POPC    OF 5788  13.463   3.682   5.619
  112POPC   C1B 5789  13.294   3.615   5.461
  112POPC   C1C 5790  13.311   3.672   5.320
  112POPC   C1D 5791  13.174   3.699   5.259
  112POPC   C1E 5792  13.182   3.750   5.115
  112POPC   C1F 5793  13.214   3.639   5.014
  112POPC   C1G 5794  13.232   3.701   4.876
  112POPC   C1H 5795  13.261   3.597   4.767
  112POPC   C1I 5796  13.307   3.669   4.641
  112POPC   C1J 5797  13.277   3.624   4.519
  112POPC   C1K 5798  13.193   3.499   4.500
  112POPC   C1L 5799  13.127   3.500   4.362
  112POPC   C1M 5800  13.049   3.371   4.338
  112POPC   C1N 5801  12.995   3.363   4.195
  112POPC   C1O 5802  12.928   3.228   4.172
  112POPC   C1P 5803  12.878   3.216   4.028
  112POPC   C1Q 5804  12.811   3.081   4.000
  112POPC   C1R 5805  12.908   2.964   4.009
  112POPC    CE 5806  13.735   3.534   5.557
  112POPC    OG 5807  13.806   3.509   5.435
  112POPC   C2A 5808  13.916   3.582   5.415
  112POPC    OH 5809  13.954   3.665   5.499
  112POPC   C2B 5810  13.981   3.553   5.286
  112POPC   C2C 5811  14.052   3.673   5.224
  112POPC   C2D 5812  14.093   3.645   5.079
  112POPC   C2E 5813  14.202   3.537   5.068
  112POPC   C2F 5814  14.217   3.486   4.925
  112POPC   C2G 5815  14.097   3.400   4.884
  112POPC   C2H 5816  14.110   3.351   4.740
  112POPC   C2I 5817  13.991   3.263   4.702
  112POPC   C2J 5818  14.002   3.214   4.558
  112POPC   C2K 5819  13.884   3.124   4.522
  112POPC   C2L 5820  13.895   3.075   4.377
  112POPC   C2M 5821  13.777   2.985   4.337
  112POPC   C2N 5822  13.778   2.851   4.412
  112POPC   C2O 5823  13.661   2.762   4.372
  112POPC   C2P 5824  13.670   2.714   4.226
  113POPC   CN1 5825  14.821   3.365   6.059
  113POPC   CN2 5826  14.858   3.239   6.253
  113POPC   CN3 5827  14.641   3.327   6.213
  113POPC   NTM 5828  14.759   3.267   6.149
  113POPC    CA 5829  14.725   3.140   6.081
  113POPC    CB 5830  14.634   3.139   5.955
  113POPC    OA 5831  14.693   3.200   5.840
  113POPC     P 5832  14.587   3.251   5.735
  113POPC    OB 5833  14.474   3.300   5.817
  113POPC    OC 5834  14.669   3.341   5.654
  113POPC    OD 5835  14.561   3.111   5.670
  113POPC    CC 5836  14.656   3.084   5.568
  113POPC    CD 5837  14.644   2.941   5.515
  113POPC    OE 5838  14.770   2.887   5.464
  113POPC   C1A 5839  14.861   2.838   5.547
  113POPC    OF 5840  14.846   2.843   5.670
  113POPC   C1B 5841  14.985   2.792   5.479
  113POPC   C1C 5842  14.987   2.643   5.443
  113POPC   C1D 5843  14.887   2.602   5.334
  113POPC   C1E 5844  14.913   2.673   5.200
  113POPC   C1F 5845  15.029   2.616   5.119
  113POPC   C1G 5846  14.991   2.484   5.051
  113POPC   C1H 5847  15.094   2.436   4.949
  113POPC   C1I 5848  15.101   2.527   4.825
  113POPC   C1J 5849  15.121   2.476   4.704
  113POPC   C1K 5850  15.137   2.325   4.684
  113POPC   C1L 5851  15.211   2.294   4.554
  113POPC   C1M 5852  15.222   2.143   4.533
  113POPC   C1N 5853  15.289   2.105   4.401
  113POPC   C1O 5854  15.437   2.146   4.396
  113POPC   C1P 5855  15.509   2.095   4.271
  113POPC   C1Q 5856  15.529   1.943   4.274
  113POPC   C1R 5857  15.606   1.895   4.150
  113POPC    CE 5858  14.519   2.938   5.425
  113POPC    OG 5859  14.517   3.032   5.315
  113POPC   C2A 5860  14.409   3.030   5.237
  113POPC    OH 5861  14.316   2.952   5.256
  113POPC   C2B 5862  14.415   3.127   5.126
  113POPC   C2C 5863  14.476   3.067   4.999
  113POPC   C2D 5864  14.493   3.174   4.892
  113POPC   C2E 5865  14.574   3.119   4.774
  113POPC   C2F 5866  14.605   3.224   4.667
  113POPC   C2G 5867  14.480   3.267   4.590
  113POPC   C2H 5868  14.520   3.361   4.476
  113POPC   C2I 5869  14.400   3.400   4.390
  113POPC   C2J 5870  14.446   3.493   4.277
  113POPC   C2K 5871  14.331   3.536   4.187
  113POPC   C2L 5872  14.381   3.633   4.080
  113POPC   C2M 5873  14.266   3.686   3.995
  113POPC   C2N 5874  14.316   3.789   3.894
  113POPC   C2O 5875  14.202   3.850   3.812
  113POPC   C2P 5876  14.112   3.941   3.896
  114POPC   CN1 5877  16.002   3.628   5.995
  114POPC   CN2 5878  15.894   3.442   6.103
  114POPC   CN3 5879  15.768   3.631   6.033
  114POPC   NTM 5880  15.881   3.544   5.998
  114POPC    CA 5881  15.855   3.485   5.865
  114POPC    CB 5882  15.948   3.374   5.810
  114POPC    OA 5883  16.088   3.400   5.819
  114POPC     P 5884  16.173   3.304   5.729
  114POPC    OB 5885  16.305   3.346   5.776
  114POPC    OC 5886  16.119   3.168   5.749
  114POPC    OD 5887  16.140   3.362   5.588
  114POPC    CC 5888  16.199   3.490   5.564
  114POPC    CD 5889  16.184   3.534   5.418
  114POPC    OE 5890  16.254   3.657   5.383
  114POPC   C1A 5891  16.385   3.656   5.363
  114POPC    OF 5892  16.455   3.559   5.394
  114POPC   C1B 5893  16.437   3.782   5.305
  114POPC   C1C 5894  16.461   3.770   5.154
  114POPC   C1D 5895  16.331   3.753   5.075
  114POPC   C1E 5896  16.353   3.717   4.928
  114POPC   C1F 5897  16.414   3.831   4.846
  114POPC   C1G 5898  16.427   3.788   4.700
  114POPC   C1H 5899  16.487   3.895   4.608
  114POPC   C1I 5900  16.394   4.016   4.589
  114POPC   C1J 5901  16.441   4.124   4.528
  114POPC   C1K 5902  16.584   4.126   4.474
  114POPC   C1L 5903  16.597   4.227   4.360
  114POPC   C1M 5904  16.739   4.233   4.302
  114POPC   C1N 5905  16.775   4.108   4.222
  114POPC   C1O 5906  16.916   4.118   4.161
  114POPC   C1P 5907  16.926   4.229   4.056
  114POPC   C1Q 5908   0.085   4.239   4.001
  114POPC   C1R 5909   0.096   4.352   3.898
  114POPC    CE 5910  16.032   3.537   5.391
  114POPC    OG 5911  15.993   3.551   5.253
  114POPC   C2A 5912  15.998   3.443   5.176
  114POPC    OH 5913  15.995   3.329   5.225
  114POPC   C2B 5914  15.985   3.475   5.033
  114POPC   C2C 5915  16.065   3.378   4.945
  114POPC   C2D 5916  16.060   3.422   4.799
  114POPC   C2E 5917  16.128   3.320   4.708
  114POPC   C2F 5918  16.123   3.362   4.561
  114POPC   C2G 5919  16.219   3.477   4.530
  114POPC   C2H 5920  16.199   3.528   4.388
  114POPC   C2I 5921  16.312   3.622   4.347
  114POPC   C2J 5922  16.282   3.688   4.213
  114POPC   C2K 5923  16.404   3.764   4.160
  114POPC   C2L 5924  16.366   3.849   4.039
  114POPC   C2M 5925  16.488   3.904   3.965
  114POPC   C2N 5926  16.556   3.794   3.883
  114POPC   C2O 5927  16.676   3.849   3.806
  114POPC   C2P 5928  16.733   3.743   3.711
  115POPC   CN1 5929   0.370   3.583   5.521
  115POPC   CN2 5930   0.143   3.516   5.494
  115POPC   CN3 5931   0.307   3.363   5.576
  115POPC   NTM 5932   0.262   3.503   5.579
  115POPC    CA 5933   0.237   3.539   5.721
  115POPC    CB 5934   0.175   3.675   5.759
  115POPC    OA 5935   0.037   3.693   5.725
  115POPC     P 5936  16.975   3.840   5.754
  115POPC    OB 5937  16.828   3.847   5.757
  115POPC    OC 5938   0.066   3.894   5.869
  115POPC    OD 5939   0.046   3.906   5.624
  115POPC    CC 5940  16.936   3.899   5.516
  115POPC    CD 5941   0.006   3.926   5.374
  115POPC    OE 5942   0.057   3.813   5.297
  115POPC   C1A 5943  16.951   3.728   5.246
  115POPC    OF 5944  16.852   3.694   5.312
  115POPC   C1B 5945   0.014   3.663   5.122
  115POPC   C1C 5946  16.881   3.649   5.024
  115POPC   C1D 5947  16.928   3.616   4.883
  115POPC   C1E 5948  16.806   3.598   4.792
  115POPC   C1F 5949  16.846   3.583   4.646
  115POPC   C1G 5950  16.721   3.552   4.563
  115POPC   C1H 5951  16.750   3.541   4.413
  115POPC   C1I 5952  16.768   3.677   4.346
  115POPC   C1J 5953  16.837   3.684   4.233
  115POPC   C1K 5954  16.900   3.557   4.176
  115POPC   C1L 5955  16.889   3.555   4.023
  115POPC   C1M 5956  16.968   3.438   3.963
  115POPC   C1N 5957  16.947   3.435   3.812
  115POPC   C1O 5958   0.052   3.329   3.746
  115POPC   C1P 5959   0.023   3.315   3.596
  115POPC   C1Q 5960   0.061   3.441   3.517
  115POPC   C1R 5961   0.023   3.426   3.370
  115POPC    CE 5962   0.093   4.053   5.382
  115POPC    OG 5963   0.009   4.170   5.384
  115POPC   C2A 5964   0.065   4.287   5.413
  115POPC    OH 5965   0.183   4.298   5.445
  115POPC   C2B 5966  16.951   4.398   5.402
  115POPC   C2C 5967  16.958   4.466   5.265
  115POPC   C2D 5968  16.850   4.574   5.251
  115POPC   C2E 5969  16.874   4.665   5.130
  115POPC   C2F 5970  16.856   4.597   4.994
  115POPC   C2G 5971  16.888   4.697   4.882
  115POPC   C2H 5972  16.847   4.643   4.745
  115POPC   C2I 5973  16.870   4.750   4.637
  115POPC   C2J 5974  16.799   4.715   4.506
  115POPC   C2K 5975  16.862   4.599   4.429
  115POPC   C2L 5976   0.002   4.640   4.348
  115POPC   C2M 5977  16.948   4.727   4.228
  115POPC   C2N 5978   0.087   4.758   4.141
  115POPC   C2O 5979   0.053   4.844   4.019
  115POPC   C2P 5980  16.946   4.772   3.919
  116POPC   CN1 5981   0.398   4.355   5.888
  116POPC   CN2 5982   0.183   4.382   5.982
  116POPC   CN3 5983   0.213   4.418   5.750
  116POPC   NTM 5984   0.254   4.335   5.863
  116POPC    CA 5985   0.219   4.192   5.844
  116POPC    CB 5986   0.275   4.105   5.729
  116POPC    OA 5987   0.417   4.083   5.725
  116POPC     P 5988   0.448   3.951   5.644
  116POPC    OB 5989   0.462   3.847   5.748
  116POPC    OC 5990   0.359   3.937   5.529
  116POPC    OD 5991   0.592   3.985   5.595
  116POPC    CC 5992   0.595   4.082   5.491
  116POPC    CD 5993   0.725   4.074   5.407
  116POPC    OE 5994   0.757   4.190   5.325
  116POPC   C1A 5995   0.813   4.298   5.379
  116POPC    OF 5996   0.841   4.301   5.500
  116POPC   C1B 5997   0.839   4.406   5.281
  116POPC   C1C 5998   0.723   4.506   5.278
  116POPC   C1D 5999   0.726   4.592   5.152
  116POPC   C1E 6000   0.837   4.697   5.151
  116POPC   C1F 6001   0.843   4.764   5.013
  116POPC   C1G 6002   0.940   4.882   5.011
  116POPC   C1H 6003   0.960   4.935   4.868
  116POPC   C1I 6004   1.067   4.854   4.793
  116POPC   C1J 6005   1.047   4.813   4.668
  116POPC   C1K 6006   0.917   4.840   4.593
  116POPC   C1L 6007   0.885   4.723   4.499
  116POPC   C1M 6008   0.755   4.746   4.423
  116POPC   C1N 6009   0.715   4.626   4.336
  116POPC   C1O 6010   0.813   4.601   4.221
  116POPC   C1P 6011   0.769   4.480   4.139
  116POPC   C1Q 6012   0.865   4.454   4.023
  116POPC   C1R 6013   0.822   4.331   3.942
  116POPC    CE 6014   0.716   3.940   5.332
  116POPC    OG 6015   0.598   3.924   5.251
  116POPC   C2A 6016   0.539   3.805   5.250
  116POPC    OH 6017   0.581   3.712   5.320
  116POPC   C2B 6018   0.422   3.800   5.160
  116POPC   C2C 6019   0.466   3.772   5.017
  116POPC   C2D 6020   0.351   3.786   4.917
  116POPC   C2E 6021   0.404   3.766   4.775
  116POPC   C2F 6022   0.296   3.791   4.670
  116POPC   C2G 6023   0.355   3.773   4.530
  116POPC   C2H 6024   0.253   3.805   4.421
  116POPC   C2I 6025   0.315   3.785   4.283
  116POPC   C2J 6026   0.216   3.825   4.173
  116POPC   C2K 6027   0.273   3.799   4.034
  116POPC   C2L 6028   0.172   3.840   3.927
  116POPC   C2M 6029   0.226   3.815   3.786
  116POPC   C2N 6030   0.123   3.857   3.682
  116POPC   C2O 6031   0.174   3.831   3.540
  116POPC   C2P 6032   0.067   3.867   3.437
  117POPC   CN1 6033   0.966   3.999   5.713
  117POPC   CN2 6034   1.088   4.186   5.636
  117POPC   CN3 6035   0.966   4.205   5.837
  117POPC   NTM 6036   1.047   4.113   5.756
  117POPC    CA 6037   1.170   4.073   5.829
  117POPC    CB 6038   1.161   3.999   5.964
  117POPC    OA 6039   1.111   3.865   5.962
  117POPC     P 6040   1.223   3.757   5.996
  117POPC    OB 6041   1.352   3.825   6.009
  117POPC    OC 6042   1.161   3.690   6.111
  117POPC    OD 6043   1.208   3.675   5.864
  117POPC    CC 6044   1.097   3.585   5.867
  117POPC    CD 6045   1.069   3.509   5.735
  117POPC    OE 6046   1.143   3.385   5.719
  117POPC   C1A 6047   1.084   3.289   5.648
  117POPC    OF 6048   0.961   3.279   5.648
  117POPC   C1B 6049   1.177   3.179   5.611
  117POPC   C1C 6050   1.165   3.137   5.464
  117POPC   C1D 6051   1.213   3.247   5.368
  117POPC   C1E 6052   1.200   3.198   5.224
  117POPC   C1F 6053   1.241   3.305   5.123
  117POPC   C1G 6054   1.221   3.249   4.982
  117POPC   C1H 6055   1.253   3.350   4.872
  117POPC   C1I 6056   1.228   3.284   4.737
  117POPC   C1J 6057   1.202   3.354   4.627
  117POPC   C1K 6058   1.199   3.507   4.630
  117POPC   C1L 6059   1.249   3.568   4.498
  117POPC   C1M 6060   1.155   3.541   4.381
  117POPC   C1N 6061   1.210   3.603   4.252
  117POPC   C1O 6062   1.118   3.574   4.134
  117POPC   C1P 6063   1.174   3.635   4.005
  117POPC   C1Q 6064   1.086   3.605   3.883
  117POPC   C1R 6065   1.087   3.456   3.846
  117POPC    CE 6066   1.083   3.617   5.626
  117POPC    OG 6067   1.065   3.581   5.488
  117POPC   C2A 6068   1.042   3.681   5.404
  117POPC    OH 6069   1.033   3.798   5.443
  117POPC   C2B 6070   1.030   3.638   5.263
  117POPC   C2C 6071   0.890   3.585   5.232
  117POPC   C2D 6072   0.872   3.543   5.086
  117POPC   C2E 6073   0.866   3.662   4.990
  117POPC   C2F 6074   0.845   3.611   4.847
  117POPC   C2G 6075   0.828   3.726   4.748
  117POPC   C2H 6076   0.809   3.671   4.607
  117POPC   C2I 6077   0.787   3.781   4.503
  117POPC   C2J 6078   0.770   3.718   4.365
  117POPC   C2K 6079   0.745   3.823   4.256
  117POPC   C2L 6080   0.727   3.754   4.121
  117POPC   C2M 6081   0.699   3.855   4.009
  117POPC   C2N 6082   0.675   3.781   3.877
  117POPC   C2O 6083   0.640   3.879   3.765
  117POPC   C2P 6084   0.609   3.804   3.636
  118POPC   CN1 6085   2.591   3.847   6.364
  118POPC   CN2 6086   2.590   3.622   6.444
  118POPC   CN3 6087   2.723   3.784   6.551
  118POPC   NTM 6088   2.594   3.763   6.485
  118POPC    CA 6089   2.485   3.799   6.579
  118POPC    CB 6090   2.337   3.791   6.534
  118POPC    OA 6091   2.293   3.662   6.491
  118POPC     P 6092   2.142   3.661   6.449
  118POPC    OB 6093   2.101   3.520   6.445
  118POPC    OC 6094   2.067   3.757   6.531
  118POPC    OD 6095   2.162   3.722   6.306
  118POPC    CC 6096   2.179   3.623   6.205
  118POPC    CD 6097   2.280   3.661   6.094
  118POPC    OE 6098   2.418   3.623   6.120
  118POPC   C1A 6099   2.455   3.501   6.081
  118POPC    OF 6100   2.372   3.420   6.038
  118POPC   C1B 6101   2.599   3.473   6.104
  118POPC   C1C 6102   2.667   3.407   5.984
  118POPC   C1D 6103   2.687   3.505   5.868
  118POPC   C1E 6104   2.757   3.436   5.751
  118POPC   C1F 6105   2.781   3.535   5.637
  118POPC   C1G 6106   2.846   3.466   5.516
  118POPC   C1H 6107   2.870   3.563   5.400
  118POPC   C1I 6108   2.739   3.614   5.339
  118POPC   C1J 6109   2.733   3.653   5.212
  118POPC   C1K 6110   2.856   3.648   5.121
  118POPC   C1L 6111   2.817   3.645   4.973
  118POPC   C1M 6112   2.760   3.778   4.924
  118POPC   C1N 6113   2.703   3.770   4.782
  118POPC   C1O 6114   2.809   3.743   4.676
  118POPC   C1P 6115   2.744   3.734   4.537
  118POPC   C1Q 6116   2.848   3.704   4.429
  118POPC   C1R 6117   2.781   3.698   4.291
  118POPC    CE 6118   2.254   3.806   6.050
  118POPC    OG 6119   2.141   3.821   5.962
  118POPC   C2A 6120   2.120   3.943   5.913
  118POPC    OH 6121   2.199   4.035   5.934
  118POPC   C2B 6122   2.005   3.949   5.820
  118POPC   C2C 6123   2.050   3.931   5.675
  118POPC   C2D 6124   1.931   3.930   5.578
  118POPC   C2E 6125   1.980   3.914   5.435
  118POPC   C2F 6126   1.864   3.915   5.334
  118POPC   C2G 6127   1.913   3.897   5.190
  118POPC   C2H 6128   2.000   4.015   5.144
  118POPC   C2I 6129   2.062   3.993   5.006
  118POPC   C2J 6130   1.960   3.993   4.893
  118POPC   C2K 6131   2.031   3.984   4.758
  118POPC   C2L 6132   1.932   3.996   4.642
  118POPC   C2M 6133   2.006   4.001   4.508
  118POPC   C2N 6134   1.909   4.024   4.392
  118POPC   C2O 6135   1.983   4.040   4.260
  118POPC   C2P 6136   1.885   4.062   4.144
  119POPC   CN1 6137   2.740   4.124   6.901
  119POPC   CN2 6138   2.732   4.356   6.956
  119POPC   CN3 6139   2.902   4.220   7.050
  119POPC   NTM 6140   2.822   4.243   6.929
  119POPC    CA 6141   2.908   4.279   6.814
  119POPC    CB 6142   3.006   4.174   6.754
  119POPC    OA 6143   3.111   4.127   6.838
  119POPC     P 6144   3.164   3.986   6.793
  119POPC    OB 6145   3.289   3.961   6.866
  119POPC    OC 6146   3.051   3.892   6.805
  119POPC    OD 6147   3.197   4.013   6.642
  119POPC    CC 6148   3.193   3.894   6.564
  119POPC    CD 6149   3.143   3.920   6.421
  119POPC    OE 6150   3.109   3.797   6.350
  119POPC   C1A 6151   3.014   3.807   6.257
  119POPC    OF 6152   2.918   3.882   6.278
  119POPC   C1B 6153   3.015   3.699   6.156
  119POPC   C1C 6154   3.106   3.737   6.040
  119POPC   C1D 6155   3.106   3.630   5.931
  119POPC   C1E 6156   3.214   3.659   5.827
  119POPC   C1F 6157   3.215   3.552   5.718
  119POPC   C1G 6158   3.327   3.578   5.617
  119POPC   C1H 6159   3.326   3.471   5.507
  119POPC   C1I 6160   3.439   3.493   5.406
  119POPC   C1J 6161   3.413   3.535   5.282
  119POPC   C1K 6162   3.269   3.564   5.238
  119POPC   C1L 6163   3.260   3.648   5.110
  119POPC   C1M 6164   3.302   3.568   4.986
  119POPC   C1N 6165   3.266   3.642   4.858
  119POPC   C1O 6166   3.300   3.556   4.736
  119POPC   C1P 6167   3.246   3.615   4.605
  119POPC   C1Q 6168   3.316   3.745   4.566
  119POPC   C1R 6169   3.257   3.801   4.436
  119POPC    CE 6170   3.250   4.010   6.358
  119POPC    OG 6171   3.217   4.064   6.229
  119POPC   C2A 6172   3.304   4.149   6.175
  119POPC    OH 6173   3.395   4.200   6.240
  119POPC   C2B 6174   3.263   4.192   6.039
  119POPC   C2C 6175   3.298   4.089   5.931
  119POPC   C2D 6176   3.247   4.137   5.796
  119POPC   C2E 6177   3.259   4.028   5.689
  119POPC   C2F 6178   3.195   4.075   5.558
  119POPC   C2G 6179   3.185   3.961   5.457
  119POPC   C2H 6180   3.114   4.005   5.328
  119POPC   C2I 6181   3.196   4.107   5.249
  119POPC   C2J 6182   3.130   4.150   5.117
  119POPC   C2K 6183   3.107   4.032   5.021
  119POPC   C2L 6184   3.081   4.077   4.876
  119POPC   C2M 6185   2.958   4.165   4.860
  119POPC   C2N 6186   2.941   4.206   4.713
  119POPC   C2O 6187   2.823   4.301   4.696
  119POPC   C2P 6188   2.804   4.338   4.548
  120POPC   CN1 6189   3.593   3.669   6.979
  120POPC   CN2 6190   3.479   3.459   6.965
  120POPC   CN3 6191   3.360   3.656   7.025
  120POPC   NTM 6192   3.467   3.604   6.939
  120POPC    CA 6193   3.434   3.636   6.799
  120POPC    CB 6194   3.529   3.590   6.685
  120POPC    OA 6195   3.530   3.451   6.653
  120POPC     P 6196   3.658   3.412   6.568
  120POPC    OB 6197   3.770   3.455   6.652
  120POPC    OC 6198   3.639   3.271   6.531
  120POPC    OD 6199   3.641   3.506   6.443
  120POPC    CC 6200   3.552   3.452   6.346
  120POPC    CD 6201   3.445   3.551   6.295
  120POPC    OE 6202   3.341   3.488   6.215
  120POPC   C1A 6203   3.258   3.398   6.266
  120POPC    OF 6204   3.248   3.383   6.389
  120POPC   C1B 6205   3.175   3.332   6.164
  120POPC   C1C 6206   3.258   3.235   6.080
  120POPC   C1D 6207   3.183   3.199   5.952
  120POPC   C1E 6208   3.279   3.133   5.853
  120POPC   C1F 6209   3.210   3.113   5.718
  120POPC   C1G 6210   3.311   3.060   5.616
  120POPC   C1H 6211   3.244   3.039   5.480
  120POPC   C1I 6212   3.349   2.989   5.381
  120POPC   C1J 6213   3.333   3.007   5.250
  120POPC   C1K 6214   3.208   3.075   5.194
  120POPC   C1L 6215   3.239   3.131   5.055
  120POPC   C1M 6216   3.110   3.158   4.977
  120POPC   C1N 6217   3.143   3.195   4.832
  120POPC   C1O 6218   3.017   3.199   4.745
  120POPC   C1P 6219   2.921   3.312   4.784
  120POPC   C1Q 6220   2.795   3.313   4.696
  120POPC   C1R 6221   2.707   3.190   4.717
  120POPC    CE 6222   3.522   3.664   6.225
  120POPC    OG 6223   3.589   3.630   6.102
  120POPC   C2A 6224   3.679   3.717   6.058
  120POPC    OH 6225   3.735   3.795   6.134
  120POPC   C2B 6226   3.716   3.697   5.916
  120POPC   C2C 6227   3.653   3.807   5.829
  120POPC   C2D 6228   3.685   3.785   5.681
  120POPC   C2E 6229   3.629   3.897   5.594
  120POPC   C2F 6230   3.652   3.866   5.446
  120POPC   C2G 6231   3.597   3.975   5.353
  120POPC   C2H 6232   3.612   3.933   5.207
  120POPC   C2I 6233   3.556   4.042   5.114
  120POPC   C2J 6234   3.558   4.000   4.967
  120POPC   C2K 6235   3.496   4.112   4.883
  120POPC   C2L 6236   3.486   4.079   4.734
  120POPC   C2M 6237   3.414   4.194   4.663
  120POPC   C2N 6238   3.388   4.168   4.514
  120POPC   C2O 6239   3.517   4.169   4.432
  120POPC   C2P 6240   3.487   4.146   4.283
  121POPC   CN1 6241   3.501   2.870   6.887
  121POPC   CN2 6242   3.650   2.758   6.738
  121POPC   CN3 6243   3.441   2.836   6.660
  121POPC   NTM 6244   3.553   2.868   6.750
  121POPC    CA 6245   3.610   2.998   6.710
  121POPC    CB 6246   3.733   3.062   6.781
  121POPC    OA 6247   3.857   2.992   6.770
  121POPC     P 6248   3.981   3.090   6.780
  121POPC    OB 6249   3.953   3.186   6.888
  121POPC    OC 6250   4.093   2.995   6.787
  121POPC    OD 6251   3.970   3.155   6.638
  121POPC    CC 6252   4.018   3.069   6.536
  121POPC    CD 6253   3.917   3.049   6.422
  121POPC    OE 6254   3.945   2.930   6.342
  121POPC   C1A 6255   3.839   2.879   6.280
  121POPC    OF 6256   3.731   2.874   6.340
  121POPC   C1B 6257   3.876   2.798   6.161
  121POPC   C1C 6258   3.777   2.825   6.048
  121POPC   C1D 6259   3.826   2.767   5.915
  121POPC   C1E 6260   3.722   2.793   5.807
  121POPC   C1F 6261   3.770   2.745   5.670
  121POPC   C1G 6262   3.658   2.760   5.567
  121POPC   C1H 6263   3.705   2.719   5.428
  121POPC   C1I 6264   3.589   2.716   5.329
  121POPC   C1J 6265   3.610   2.745   5.201
  121POPC   C1K 6266   3.751   2.781   5.153
  121POPC   C1L 6267   3.768   2.752   5.005
  121POPC   C1M 6268   3.901   2.809   4.956
  121POPC   C1N 6269   3.925   2.786   4.807
  121POPC   C1O 6270   3.958   2.640   4.774
  121POPC   C1P 6271   3.994   2.626   4.626
  121POPC   C1Q 6272   4.038   2.483   4.594
  121POPC   C1R 6273   4.081   2.473   4.448
  121POPC    CE 6274   3.908   3.184   6.348
  121POPC    OG 6275   3.825   3.181   6.231
  121POPC   C2A 6276   3.812   3.293   6.160
  121POPC    OH 6277   3.868   3.397   6.194
  121POPC   C2B 6278   3.727   3.277   6.040
  121POPC   C2C 6279   3.809   3.244   5.916
  121POPC   C2D 6280   3.717   3.232   5.794
  121POPC   C2E 6281   3.796   3.202   5.666
  121POPC   C2F 6282   3.701   3.197   5.547
  121POPC   C2G 6283   3.775   3.174   5.415
  121POPC   C2H 6284   3.677   3.182   5.299
  121POPC   C2I 6285   3.746   3.175   5.162
  121POPC   C2J 6286   3.640   3.189   5.052
  121POPC   C2K 6287   3.702   3.188   4.912
  121POPC   C2L 6288   3.592   3.211   4.808
  121POPC   C2M 6289   3.650   3.225   4.667
  121POPC   C2N 6290   3.541   3.265   4.568
  121POPC   C2O 6291   3.599   3.295   4.430
  121POPC   C2P 6292   3.491   3.343   4.334
  122POPC   CN1 6293   5.329   4.561   6.254
  122POPC   CN2 6294   5.524   4.423   6.236
  122POPC   CN3 6295   5.502   4.569   6.419
  122POPC   NTM 6296   5.426   4.480   6.330
  122POPC    CA 6297   5.357   4.380   6.415
  122POPC    CB 6298   5.288   4.256   6.352
  122POPC    OA 6299   5.380   4.165   6.291
  122POPC     P 6300   5.309   4.045   6.220
  122POPC    OB 6301   5.269   3.960   6.333
  122POPC    OC 6302   5.214   4.110   6.127
  122POPC    OD 6303   5.440   3.996   6.149
  122POPC    CC 6304   5.458   4.063   6.023
  122POPC    CD 6305   5.599   4.054   5.959
  122POPC    OE 6306   5.617   4.140   5.843
  122POPC   C1A 6307   5.644   4.269   5.861
  122POPC    OF 6308   5.647   4.317   5.974
  122POPC   C1B 6309   5.671   4.342   5.735
  122POPC   C1C 6310   5.808   4.410   5.744
  122POPC   C1D 6311   5.848   4.490   5.620
  122POPC   C1E 6312   5.762   4.613   5.594
  122POPC   C1F 6313   5.827   4.699   5.486
  122POPC   C1G 6314   5.748   4.827   5.455
  122POPC   C1H 6315   5.617   4.797   5.381
  122POPC   C1I 6316   5.543   4.925   5.344
  122POPC   C1J 6317   5.529   4.961   5.217
  122POPC   C1K 6318   5.587   4.874   5.105
  122POPC   C1L 6319   5.503   4.890   4.978
  122POPC   C1M 6320   5.557   4.807   4.862
  122POPC   C1N 6321   5.468   4.828   4.740
  122POPC   C1O 6322   5.520   4.755   4.616
  122POPC   C1P 6323   5.433   4.791   4.496
  122POPC   C1Q 6324   5.483   4.724   4.368
  122POPC   C1R 6325   5.400   4.769   4.247
  122POPC    CE 6326   5.632   3.905   5.938
  122POPC    OG 6327   5.536   3.829   5.863
  122POPC   C2A 6328   5.561   3.699   5.850
  122POPC    OH 6329   5.658   3.644   5.903
  122POPC   C2B 6330   5.460   3.630   5.764
  122POPC   C2C 6331   5.507   3.625   5.619
  122POPC   C2D 6332   5.403   3.557   5.530
  122POPC   C2E 6333   5.449   3.542   5.384
  122POPC   C2F 6334   5.570   3.448   5.372
  122POPC   C2G 6335   5.608   3.415   5.227
  122POPC   C2H 6336   5.657   3.536   5.148
  122POPC   C2I 6337   5.705   3.496   5.008
  122POPC   C2J 6338   5.591   3.446   4.918
  122POPC   C2K 6339   5.640   3.407   4.778
  122POPC   C2L 6340   5.731   3.283   4.776
  122POPC   C2M 6341   5.659   3.152   4.810
  122POPC   C2N 6342   5.559   3.111   4.701
  122POPC   C2O 6343   5.487   2.981   4.739
  122POPC   C2P 6344   5.386   2.942   4.631
  123POPC   CN1 6345   6.581   3.827   6.568
  123POPC   CN2 6346   6.792   3.722   6.521
  123POPC   CN3 6347   6.645   3.630   6.684
  123POPC   NTM 6348   6.650   3.698   6.554
  123POPC    CA 6349   6.584   3.611   6.454
  123POPC    CB 6350   6.563   3.660   6.309
  123POPC    OA 6351   6.681   3.697   6.237
  123POPC     P 6352   6.645   3.783   6.110
  123POPC    OB 6353   6.535   3.873   6.148
  123POPC    OC 6354   6.778   3.837   6.080
  123POPC    OD 6355   6.604   3.666   6.015
  123POPC    CC 6356   6.702   3.644   5.913
  123POPC    CD 6357   6.699   3.502   5.853
  123POPC    OE 6358   6.821   3.462   5.785
  123POPC   C1A 6359   6.930   3.428   5.854
  123POPC    OF 6360   6.935   3.438   5.978
  123POPC   C1B 6361   7.041   3.376   5.771
  123POPC   C1C 6362   7.145   3.484   5.741
  123POPC   C1D 6363   7.277   3.422   5.693
  123POPC   C1E 6364   7.275   3.363   5.551
  123POPC   C1F 6365   7.291   3.471   5.444
  123POPC   C1G 6366   7.330   3.413   5.308
  123POPC   C1H 6367   7.222   3.329   5.239
  123POPC   C1I 6368   7.107   3.414   5.186
  123POPC   C1J 6369   6.997   3.356   5.140
  123POPC   C1K 6370   6.987   3.203   5.138
  123POPC   C1L 6371   6.845   3.151   5.165
  123POPC   C1M 6372   6.797   3.173   5.309
  123POPC   C1N 6373   6.877   3.089   5.409
  123POPC   C1O 6374   6.837   3.118   5.554
  123POPC   C1P 6375   6.693   3.077   5.585
  123POPC   C1Q 6376   6.661   3.105   5.732
  123POPC   C1R 6377   6.520   3.059   5.766
  123POPC    CE 6378   6.567   3.487   5.775
  123POPC    OG 6379   6.532   3.587   5.677
  123POPC   C2A 6380   6.416   3.569   5.615
  123POPC    OH 6381   6.349   3.467   5.632
  123POPC   C2B 6382   6.380   3.680   5.523
  123POPC   C2C 6383   6.270   3.641   5.422
  123POPC   C2D 6384   6.237   3.758   5.330
  123POPC   C2E 6385   6.117   3.729   5.240
  123POPC   C2F 6386   6.086   3.849   5.150
  123POPC   C2G 6387   5.955   3.828   5.074
  123POPC   C2H 6388   5.921   3.951   4.988
  123POPC   C2I 6389   5.778   3.944   4.932
  123POPC   C2J 6390   5.760   3.840   4.820
  123POPC   C2K 6391   5.817   3.889   4.687
  123POPC   C2L 6392   5.799   3.782   4.578
  123POPC   C2M 6393   5.843   3.835   4.442
  123POPC   C2N 6394   5.840   3.728   4.332
  123POPC   C2O 6395   5.699   3.675   4.303
  123POPC   C2P 6396   5.703   3.565   4.197
  124POPC   CN1 6397   7.472   3.572   6.626
  124POPC   CN2 6398   7.563   3.365   6.554
  124POPC   CN3 6399   7.445   3.500   6.399
  124POPC   NTM 6400   7.537   3.504   6.514
  124POPC    CA 6401   7.667   3.567   6.480
  124POPC    CB 6402   7.676   3.717   6.440
  124POPC    OA 6403   7.600   3.751   6.325
  124POPC     P 6404   7.617   3.901   6.285
  124POPC    OB 6405   7.533   3.975   6.381
  124POPC    OC 6406   7.762   3.925   6.279
  124POPC    OD 6407   7.554   3.899   6.143
  124POPC    CC 6408   7.417   3.858   6.139
  124POPC    CD 6409   7.370   3.813   6.000
  124POPC    OE 6410   7.227   3.824   5.976
  124POPC   C1A 6411   7.177   3.942   5.940
  124POPC    OF 6412   7.246   4.045   5.942
  124POPC   C1B 6413   7.031   3.939   5.912
  124POPC   C1C 6414   6.995   3.967   5.766
  124POPC   C1D 6415   7.028   3.849   5.674
  124POPC   C1E 6416   6.996   3.883   5.529
  124POPC   C1F 6417   7.031   3.767   5.435
  124POPC   C1G 6418   6.930   3.652   5.439
  124POPC   C1H 6419   6.802   3.686   5.363
  124POPC   C1I 6420   6.708   3.566   5.358
  124POPC   C1J 6421   6.630   3.547   5.252
  124POPC   C1K 6422   6.635   3.645   5.134
  124POPC   C1L 6423   6.588   3.581   5.003
  124POPC   C1M 6424   6.683   3.473   4.951
  124POPC   C1N 6425   6.623   3.398   4.832
  124POPC   C1O 6426   6.716   3.284   4.787
  124POPC   C1P 6427   6.652   3.198   4.677
  124POPC   C1Q 6428   6.635   3.274   4.546
  124POPC   C1R 6429   6.566   3.186   4.441
  124POPC    CE 6430   7.434   3.675   5.975
  124POPC    OG 6431   7.566   3.683   5.921
  124POPC   C2A 6432   7.645   3.576   5.924
  124POPC    OH 6433   7.616   3.475   5.990
  124POPC   C2B 6434   7.770   3.599   5.849
  124POPC   C2C 6435   7.755   3.561   5.701
  124POPC   C2D 6436   7.873   3.613   5.619
  124POPC   C2E 6437   7.886   3.543   5.483
  124POPC   C2F 6438   7.772   3.570   5.385
  124POPC   C2G 6439   7.788   3.478   5.263
  124POPC   C2H 6440   7.681   3.501   5.156
  124POPC   C2I 6441   7.707   3.629   5.076
  124POPC   C2J 6442   7.588   3.666   4.986
  124POPC   C2K 6443   7.471   3.717   5.070
  124POPC   C2L 6444   7.355   3.763   4.982
  124POPC   C2M 6445   7.241   3.815   5.069
  124POPC   C2N 6446   7.126   3.867   4.982
  124POPC   C2O 6447   7.013   3.923   5.068
  124POPC   C2P 6448   6.898   3.972   4.980
  125POPC   CN1 6449   8.716   3.318   5.888
  125POPC   CN2 6450   8.856   3.409   6.055
  125POPC   CN3 6451   8.633   3.488   6.033
  125POPC   NTM 6452   8.718   3.368   6.026
  125POPC    CA 6453   8.681   3.261   6.122
  125POPC    CB 6454   8.540   3.198   6.124
  125POPC    OA 6455   8.438   3.288   6.169
  125POPC     P 6456   8.293   3.229   6.149
  125POPC    OB 6457   8.294   3.084   6.171
  125POPC    OC 6458   8.204   3.318   6.226
  125POPC    OD 6459   8.280   3.258   5.995
  125POPC    CC 6460   8.236   3.391   5.968
  125POPC    CD 6461   8.240   3.434   5.821
  125POPC    OE 6462   8.180   3.565   5.804
  125POPC   C1A 6463   8.247   3.675   5.839
  125POPC    OF 6464   8.360   3.667   5.887
  125POPC   C1B 6465   8.168   3.799   5.827
  125POPC   C1C 6466   8.184   3.867   5.691
  125POPC   C1D 6467   8.089   3.986   5.684
  125POPC   C1E 6468   8.095   4.055   5.548
  125POPC   C1F 6469   7.988   4.164   5.541
  125POPC   C1G 6470   7.991   4.239   5.408
  125POPC   C1H 6471   7.954   4.152   5.287
  125POPC   C1I 6472   7.805   4.120   5.281
  125POPC   C1J 6473   7.752   4.094   5.161
  125POPC   C1K 6474   7.844   4.098   5.039
  125POPC   C1L 6475   7.800   3.995   4.935
  125POPC   C1M 6476   7.905   3.984   4.825
  125POPC   C1N 6477   7.864   3.881   4.720
  125POPC   C1O 6478   7.971   3.871   4.611
  125POPC   C1P 6479   7.931   3.766   4.507
  125POPC   C1Q 6480   8.039   3.753   4.400
  125POPC   C1R 6481   8.002   3.642   4.301
  125POPC    CE 6482   8.171   3.322   5.741
  125POPC    OG 6483   8.177   3.331   5.598
  125POPC   C2A 6484   8.112   3.238   5.529
  125POPC    OH 6485   8.054   3.145   5.586
  125POPC   C2B 6486   8.111   3.264   5.384
  125POPC   C2C 6487   8.109   3.136   5.301
  125POPC   C2D 6488   8.069   3.159   5.155
  125POPC   C2E 6489   8.167   3.246   5.076
  125POPC   C2F 6490   8.132   3.250   4.927
  125POPC   C2G 6491   8.001   3.323   4.899
  125POPC   C2H 6492   7.963   3.312   4.751
  125POPC   C2I 6493   7.837   3.393   4.722
  125POPC   C2J 6494   7.792   3.375   4.578
  125POPC   C2K 6495   7.673   3.467   4.549
  125POPC   C2L 6496   7.622   3.450   4.405
  125POPC   C2M 6497   7.515   3.554   4.375
  125POPC   C2N 6498   7.457   3.534   4.234
  125POPC   C2O 6499   7.359   3.645   4.196
  125POPC   C2P 6500   7.234   3.649   4.285
  126POPC   CN1 6501   9.155   2.870   6.663
  126POPC   CN2 6502   8.988   2.993   6.547
  126POPC   CN3 6503   9.220   3.023   6.492
  126POPC   NTM 6504   9.118   2.925   6.532
  126POPC    CA 6505   9.107   2.813   6.435
  126POPC    CB 6506   9.089   2.844   6.284
  126POPC    OA 6507   8.982   2.931   6.249
  126POPC     P 6508   8.989   2.971   6.097
  126POPC    OB 6509   9.048   2.859   6.022
  126POPC    OC 6510   8.864   3.033   6.054
  126POPC    OD 6511   9.091   3.089   6.113
  126POPC    CC 6512   9.157   3.107   5.988
  126POPC    CD 6513   9.237   3.237   5.975
  126POPC    OE 6514   9.158   3.347   5.919
  126POPC   C1A 6515   9.211   3.466   5.894
  126POPC    OF 6516   9.328   3.491   5.927
  126POPC   C1B 6517   9.116   3.563   5.835
  126POPC   C1C 6518   9.173   3.637   5.713
  126POPC   C1D 6519   9.196   3.541   5.596
  126POPC   C1E 6520   9.239   3.613   5.468
  126POPC   C1F 6521   9.127   3.699   5.410
  126POPC   C1G 6522   9.169   3.753   5.274
  126POPC   C1H 6523   9.059   3.840   5.213
  126POPC   C1I 6524   9.101   3.890   5.074
  126POPC   C1J 6525   9.008   3.917   4.983
  126POPC   C1K 6526   8.861   3.897   5.020
  126POPC   C1L 6527   8.769   4.004   4.959
  126POPC   C1M 6528   8.793   4.143   5.019
  126POPC   C1N 6529   8.695   4.247   4.964
  126POPC   C1O 6530   8.708   4.267   4.813
  126POPC   C1P 6531   8.610   4.373   4.764
  126POPC   C1Q 6532   8.609   4.387   4.611
  126POPC   C1R 6533   8.545   4.265   4.543
  126POPC    CE 6534   9.365   3.196   5.900
  126POPC    OG 6535   9.351   3.149   5.765
  126POPC   C2A 6536   9.461   3.151   5.690
  126POPC    OH 6537   9.562   3.213   5.727
  126POPC   C2B 6538   9.443   3.090   5.556
  126POPC   C2C 6539   9.430   3.195   5.446
  126POPC   C2D 6540   9.429   3.126   5.309
  126POPC   C2E 6541   9.425   3.227   5.195
  126POPC   C2F 6542   9.437   3.155   5.061
  126POPC   C2G 6543   9.440   3.252   4.943
  126POPC   C2H 6544   9.461   3.177   4.811
  126POPC   C2I 6545   9.468   3.275   4.694
  126POPC   C2J 6546   9.492   3.199   4.563
  126POPC   C2K 6547   9.494   3.293   4.441
  126POPC   C2L 6548   9.617   3.384   4.438
  126POPC   C2M 6549   9.609   3.482   4.322
  126POPC   C2N 6550   9.731   3.574   4.317
  126POPC   C2O 6551   9.720   3.681   4.209
  126POPC   C2P 6552   9.614   3.786   4.242
  127POPC   CN1 6553  11.206   2.747   5.716
  127POPC   CN2 6554  11.306   2.807   5.926
  127POPC   CN3 6555  11.378   2.908   5.724
  127POPC   NTM 6556  11.261   2.857   5.796
  127POPC    CA 6557  11.162   2.967   5.811
  127POPC    CB 6558  11.037   2.946   5.901
  127POPC    OA 6559  10.958   2.832   5.869
  127POPC     P 6560  10.846   2.798   5.972
  127POPC    OB 6561  10.802   2.667   5.923
  127POPC    OC 6562  10.910   2.813   6.105
  127POPC    OD 6563  10.752   2.919   5.936
  127POPC    CC 6564  10.654   2.881   5.839
  127POPC    CD 6565  10.590   2.995   5.758
  127POPC    OE 6566  10.467   2.954   5.691
  127POPC   C1A 6567  10.384   3.047   5.644
  127POPC    OF 6568  10.406   3.167   5.661
  127POPC   C1B 6569  10.259   2.991   5.587
  127POPC   C1C 6570  10.269   2.945   5.441
  127POPC   C1D 6571  10.274   3.060   5.340
  127POPC   C1E 6572  10.258   3.001   5.199
  127POPC   C1F 6573  10.254   3.107   5.090
  127POPC   C1G 6574  10.231   3.038   4.955
  127POPC   C1H 6575  10.233   3.135   4.837
  127POPC   C1I 6576  10.208   3.057   4.708
  127POPC   C1J 6577  10.163   3.115   4.597
  127POPC   C1K 6578  10.136   3.266   4.592
  127POPC   C1L 6579  10.160   3.317   4.450
  127POPC   C1M 6580  10.132   3.467   4.438
  127POPC   C1N 6581  10.161   3.515   4.295
  127POPC   C1O 6582  10.131   3.664   4.274
  127POPC   C1P 6583  10.223   3.755   4.356
  127POPC   C1Q 6584  10.189   3.902   4.330
  127POPC   C1R 6585  10.276   3.995   4.414
  127POPC    CE 6586  10.704   3.049   5.670
  127POPC    OG 6587  10.764   2.953   5.581
  127POPC   C2A 6588  10.883   2.984   5.531
  127POPC    OH 6589  10.951   3.075   5.580
  127POPC   C2B 6590  10.929   2.888   5.428
  127POPC   C2C 6591  10.999   2.960   5.312
  127POPC   C2D 6592  11.042   2.864   5.202
  127POPC   C2E 6593  11.108   2.944   5.089
  127POPC   C2F 6594  11.166   2.856   4.978
  127POPC   C2G 6595  11.059   2.791   4.890
  127POPC   C2H 6596  11.121   2.712   4.775
  127POPC   C2I 6597  11.189   2.800   4.669
  127POPC   C2J 6598  11.089   2.877   4.583
  127POPC   C2K 6599  11.160   2.962   4.477
  127POPC   C2L 6600  11.058   3.027   4.383
  127POPC   C2M 6601  11.127   3.109   4.274
  127POPC   C2N 6602  11.026   3.167   4.173
  127POPC   C2O 6603  10.935   3.275   4.231
  127POPC   C2P 6604  11.010   3.405   4.262
  128POPC   CN1 6605  10.826   3.859   6.025
  128POPC   CN2 6606  10.808   3.818   5.790
  128POPC   CN3 6607  10.958   3.980   5.871
  128POPC   NTM 6608  10.901   3.848   5.899
  128POPC    CA 6609  11.011   3.749   5.907
  128POPC    CB 6610  10.988   3.600   5.944
  128POPC    OA 6611  10.888   3.530   5.870
  128POPC     P 6612  10.918   3.376   5.847
  128POPC    OB 6613  10.964   3.323   5.977
  128POPC    OC 6614  10.799   3.322   5.784
  128POPC    OD 6615  11.037   3.389   5.744
  128POPC    CC 6616  10.988   3.421   5.613
  128POPC    CD 6617  11.096   3.438   5.505
  128POPC    OE 6618  11.045   3.487   5.377
  128POPC   C1A 6619  11.021   3.616   5.359
  128POPC    OF 6620  11.002   3.692   5.455
  128POPC   C1B 6621  10.999   3.652   5.216
  128POPC   C1C 6622  11.075   3.781   5.183
  128POPC   C1D 6623  11.055   3.826   5.038
  128POPC   C1E 6624  11.138   3.952   5.014
  128POPC   C1F 6625  11.119   4.010   4.873
  128POPC   C1G 6626  11.202   4.138   4.859
  128POPC   C1H 6627  11.179   4.213   4.728
  128POPC   C1I 6628  11.233   4.138   4.605
  128POPC   C1J 6629  11.209   4.182   4.482
  128POPC   C1K 6630  11.132   4.311   4.454
  128POPC   C1L 6631  11.227   4.427   4.422
  128POPC   C1M 6632  11.154   4.554   4.377
  128POPC   C1N 6633  11.091   4.537   4.239
  128POPC   C1O 6634  11.033   4.669   4.188
  128POPC   C1P 6635  10.971   4.651   4.049
  128POPC   C1Q 6636  10.918   4.782   3.990
  128POPC   C1R 6637  11.031   4.878   3.952
  128POPC    CE 6638  11.165   3.301   5.497
  128POPC    OG 6639  11.287   3.295   5.421
  128POPC   C2A 6640  11.345   3.175   5.411
  128POPC    OH 6641  11.308   3.080   5.479
  128POPC   C2B 6642  11.461   3.174   5.319
  128POPC   C2C 6643  11.416   3.151   5.175
  128POPC   C2D 6644  11.534   3.140   5.078
  128POPC   C2E 6645  11.484   3.129   4.934
  128POPC   C2F 6646  11.601   3.125   4.835
  128POPC   C2G 6647  11.548   3.127   4.691
  128POPC   C2H 6648  11.663   3.120   4.590
  128POPC   C2I 6649  11.613   3.127   4.446
  128POPC   C2J 6650  11.564   3.267   4.408
  128POPC   C2K 6651  11.503   3.268   4.267
  128POPC   C2L 6652  11.467   3.411   4.226
  128POPC   C2M 6653  11.390   3.419   4.094
  128POPC   C2N 6654  11.469   3.365   3.974
  128POPC   C2O 6655  11.395   3.386   3.841
  128POPC   C2P 6656  11.263   3.309   3.834
  129POPC   CN1 6657  12.295   2.875   6.174
  129POPC   CN2 6658  12.303   3.082   6.293
  129POPC   CN3 6659  12.497   2.997   6.181
  129POPC   NTM 6660  12.351   3.011   6.174
  129POPC    CA 6661  12.305   3.077   6.050
  129POPC    CB 6662  12.356   3.218   6.010
  129POPC    OA 6663  12.493   3.219   5.971
  129POPC     P 6664  12.535   3.354   5.903
  129POPC    OB 6665  12.482   3.467   5.981
  129POPC    OC 6666  12.679   3.338   5.877
  129POPC    OD 6667  12.449   3.341   5.773
  129POPC    CC 6668  12.523   3.306   5.656
  129POPC    CD 6669  12.436   3.247   5.544
  129POPC    OE 6670  12.513   3.217   5.424
  129POPC   C1A 6671  12.567   3.095   5.414
  129POPC    OF 6672  12.561   3.015   5.507
  129POPC   C1B 6673  12.633   3.071   5.284
  129POPC   C1C 6674  12.540   2.997   5.187
  129POPC   C1D 6675  12.612   2.970   5.055
  129POPC   C1E 6676  12.519   2.896   4.958
  129POPC   C1F 6677  12.584   2.871   4.821
  129POPC   C1G 6678  12.611   3.002   4.746
  129POPC   C1H 6679  12.662   2.974   4.605
  129POPC   C1I 6680  12.689   3.106   4.533
  129POPC   C1J 6681  12.650   3.122   4.407
  129POPC   C1K 6682  12.578   3.009   4.333
  129POPC   C1L 6683  12.478   3.065   4.232
  129POPC   C1M 6684  12.422   2.954   4.144
  129POPC   C1N 6685  12.327   3.013   4.038
  129POPC   C1O 6686  12.284   2.908   3.935
  129POPC   C1P 6687  12.397   2.864   3.841
  129POPC   C1Q 6688  12.441   2.977   3.747
  129POPC   C1R 6689  12.557   2.931   3.657
  129POPC    CE 6690  12.317   3.342   5.525
  129POPC    OG 6691  12.217   3.300   5.430
  129POPC   C2A 6692  12.099   3.359   5.435
  129POPC    OH 6693  12.069   3.435   5.528
  129POPC   C2B 6694  12.009   3.316   5.325
  129POPC   C2C 6695  11.906   3.423   5.289
  129POPC   C2D 6696  11.815   3.376   5.175
  129POPC   C2E 6697  11.879   3.386   5.036
  129POPC   C2F 6698  11.888   3.532   4.990
  129POPC   C2G 6699  11.933   3.543   4.845
  129POPC   C2H 6700  11.932   3.689   4.801
  129POPC   C2I 6701  11.983   3.706   4.658
  129POPC   C2J 6702  11.976   3.854   4.617
  129POPC   C2K 6703  12.035   3.879   4.478
  129POPC   C2L 6704  12.187   3.857   4.474
  129POPC   C2M 6705  12.246   3.884   4.335
  129POPC   C2N 6706  12.237   4.032   4.296
  129POPC   C2O 6707  12.295   4.055   4.157
  129POPC   C2P 6708  12.286   4.202   4.117
  130POPC   CN1 6709  13.239   3.938   5.682
  130POPC   CN2 6710  13.004   3.972   5.706
  130POPC   CN3 6711  13.109   3.790   5.813
  130POPC   NTM 6712  13.126   3.930   5.775
  130POPC    CA 6713  13.150   4.007   5.900
  130POPC    CB 6714  13.168   4.161   5.898
  130POPC    OA 6715  13.053   4.234   5.858
  130POPC     P 6716  13.071   4.389   5.872
  130POPC    OB 6717  12.936   4.444   5.886
  130POPC    OC 6718  13.173   4.424   5.973
  130POPC    OD 6719  13.133   4.422   5.733
  130POPC    CC 6720  13.036   4.420   5.629
  130POPC    CD 6721  13.100   4.426   5.490
  130POPC    OE 6722  13.007   4.457   5.382
  130POPC   C1A 6723  12.971   4.584   5.361
  130POPC    OF 6724  12.976   4.666   5.453
  130POPC   C1B 6725  12.899   4.602   5.233
  130POPC   C1C 6726  12.978   4.693   5.138
  130POPC   C1D 6727  12.906   4.708   5.003
  130POPC   C1E 6728  12.915   4.583   4.916
  130POPC   C1F 6729  13.054   4.569   4.852
  130POPC   C1G 6730  13.069   4.439   4.771
  130POPC   C1H 6731  12.975   4.427   4.650
  130POPC   C1I 6732  13.005   4.528   4.539
  130POPC   C1J 6733  12.995   4.492   4.412
  130POPC   C1K 6734  12.956   4.348   4.376
  130POPC   C1L 6735  12.883   4.342   4.242
  130POPC   C1M 6736  12.841   4.199   4.211
  130POPC   C1N 6737  12.759   4.191   4.083
  130POPC   C1O 6738  12.717   4.046   4.055
  130POPC   C1P 6739  12.630   4.033   3.930
  130POPC   C1Q 6740  12.708   4.065   3.801
  130POPC   C1R 6741  12.617   4.049   3.679
  130POPC    CE 6742  13.175   4.292   5.476
  130POPC    OG 6743  13.258   4.276   5.359
  130POPC   C2A 6744  13.287   4.151   5.325
  130POPC    OH 6745  13.255   4.056   5.395
  130POPC   C2B 6746  13.364   4.141   5.199
  130POPC   C2C 6747  13.271   4.136   5.077
  130POPC   C2D 6748  13.351   4.112   4.949
  130POPC   C2E 6749  13.257   4.105   4.829
  130POPC   C2F 6750  13.333   4.068   4.701
  130POPC   C2G 6751  13.239   4.065   4.581
  130POPC   C2H 6752  13.313   4.016   4.456
  130POPC   C2I 6753  13.223   4.022   4.333
  130POPC   C2J 6754  13.293   3.965   4.210
  130POPC   C2K 6755  13.207   3.985   4.085
  130POPC   C2L 6756  13.264   3.917   3.960
  130POPC   C2M 6757  13.400   3.972   3.917
  130POPC   C2N 6758  13.443   3.907   3.785
  130POPC   C2O 6759  13.583   3.951   3.740
  130POPC   C2P 6760  13.693   3.892   3.828
  131POPC   CN1 6761  13.521   4.799   5.828
  131POPC   CN2 6762  13.473   4.823   5.596
  131POPC   CN3 6763  13.655   4.688   5.664
  131POPC   NTM 6764  13.518   4.728   5.699
  131POPC    CA 6765  13.424   4.614   5.701
  131POPC    CB 6766  13.444   4.497   5.801
  131POPC    OA 6767  13.564   4.422   5.783
  131POPC     P 6768  13.537   4.268   5.764
  131POPC    OB 6769  13.584   4.205   5.888
  131POPC    OC 6770  13.401   4.247   5.714
  131POPC    OD 6771  13.641   4.240   5.650
  131POPC    CC 6772  13.590   4.282   5.524
  131POPC    CD 6773  13.693   4.310   5.414
  131POPC    OE 6774  13.632   4.364   5.294
  131POPC   C1A 6775  13.579   4.486   5.293
  131POPC    OF 6776  13.610   4.569   5.379
  131POPC   C1B 6777  13.493   4.512   5.176
  131POPC   C1C 6778  13.569   4.577   5.061
  131POPC   C1D 6779  13.479   4.585   4.938
  131POPC   C1E 6780  13.547   4.663   4.826
  131POPC   C1F 6781  13.466   4.661   4.696
  131POPC   C1G 6782  13.468   4.524   4.628
  131POPC   C1H 6783  13.386   4.529   4.499
  131POPC   C1I 6784  13.394   4.395   4.426
  131POPC   C1J 6785  13.376   4.390   4.295
  131POPC   C1K 6786  13.342   4.518   4.219
  131POPC   C1L 6787  13.419   4.526   4.086
  131POPC   C1M 6788  13.378   4.651   4.010
  131POPC   C1N 6789  13.463   4.672   3.885
  131POPC   C1O 6790  13.413   4.790   3.802
  131POPC   C1P 6791  13.422   4.923   3.878
  131POPC   C1Q 6792  13.359   5.038   3.798
  131POPC   C1R 6793  13.208   5.022   3.780
  131POPC    CE 6794  13.771   4.179   5.393
  131POPC    OG 6795  13.692   4.066   5.353
  131POPC   C2A 6796  13.757   3.953   5.327
  131POPC    OH 6797  13.871   3.934   5.369
  131POPC   C2B 6798  13.675   3.851   5.259
  131POPC   C2C 6799  13.696   3.860   5.108
  131POPC   C2D 6800  13.618   3.749   5.036
  131POPC   C2E 6801  13.638   3.753   4.884
  131POPC   C2F 6802  13.781   3.717   4.842
  131POPC   C2G 6803  13.796   3.709   4.690
  131POPC   C2H 6804  13.719   3.589   4.633
  131POPC   C2I 6805  13.722   3.590   4.480
  131POPC   C2J 6806  13.639   3.473   4.425
  131POPC   C2K 6807  13.623   3.477   4.273
  131POPC   C2L 6808  13.543   3.600   4.227
  131POPC   C2M 6809  13.508   3.596   4.078
  131POPC   C2N 6810  13.404   3.488   4.047
  131POPC   C2O 6811  13.364   3.491   3.899
  131POPC   C2P 6812  13.260   3.383   3.869
  132POPC   CN1 6813  14.427   3.675   5.717
  132POPC   CN2 6814  14.237   3.803   5.783
  132POPC   CN3 6815  14.258   3.732   5.559
  132POPC   NTM 6816  14.282   3.692   5.698
  132POPC    CA 6817  14.206   3.571   5.734
  132POPC    CB 6818  14.234   3.435   5.665
  132POPC    OA 6819  14.215   3.429   5.524
  132POPC     P 6820  14.279   3.300   5.461
  132POPC    OB 6821  14.262   3.189   5.556
  132POPC    OC 6822  14.220   3.290   5.327
  132POPC    OD 6823  14.426   3.354   5.456
  132POPC    CC 6824  14.446   3.439   5.343
  132POPC    CD 6825  14.568   3.532   5.351
  132POPC    OE 6826  14.558   3.646   5.262
  132POPC   C1A 6827  14.524   3.764   5.313
  132POPC    OF 6828  14.537   3.783   5.435
  132POPC   C1B 6829  14.487   3.865   5.212
  132POPC   C1C 6830  14.369   3.950   5.260
  132POPC   C1D 6831  14.314   4.040   5.150
  132POPC   C1E 6832  14.190   4.115   5.198
  132POPC   C1F 6833  14.122   4.197   5.088
  132POPC   C1G 6834  14.063   4.108   4.977
  132POPC   C1H 6835  13.998   4.189   4.865
  132POPC   C1I 6836  13.864   4.251   4.905
  132POPC   C1J 6837  13.772   4.278   4.813
  132POPC   C1K 6838  13.799   4.247   4.665
  132POPC   C1L 6839  13.719   4.125   4.617
  132POPC   C1M 6840  13.755   4.085   4.473
  132POPC   C1N 6841  13.715   4.191   4.371
  132POPC   C1O 6842  13.762   4.153   4.230
  132POPC   C1P 6843  13.718   4.259   4.129
  132POPC   C1Q 6844  13.777   4.233   3.991
  132POPC   C1R 6845  13.730   4.338   3.890
  132POPC    CE 6846  14.694   3.444   5.344
  132POPC    OG 6847  14.710   3.362   5.226
  132POPC   C2A 6848  14.822   3.293   5.216
  132POPC    OH 6849  14.913   3.304   5.299
  132POPC   C2B 6850  14.829   3.212   5.092
  132POPC   C2C 6851  14.900   3.078   5.112
  132POPC   C2D 6852  14.898   2.992   4.985
  132POPC   C2E 6853  14.980   3.054   4.871
  132POPC   C2F 6854  14.964   2.975   4.741
  132POPC   C2G 6855  15.035   3.047   4.627
  132POPC   C2H 6856  15.003   2.985   4.491
  132POPC   C2I 6857  15.065   3.069   4.379
  132POPC   C2J 6858  15.020   3.021   4.241
  132POPC   C2K 6859  15.072   3.115   4.132
  132POPC   C2L 6860  15.013   3.079   3.995
  132POPC   C2M 6861  15.063   3.175   3.887
  132POPC   C2N 6862  14.998   3.149   3.751
  132POPC   C2O 6863  15.039   3.013   3.692
  132POPC   C2P 6864  14.973   2.991   3.556
  133POPC   CN1 6865  15.202   3.410   5.414
  133POPC   CN2 6866  15.027   3.455   5.566
  133POPC   CN3 6867  15.098   3.233   5.534
  133POPC   NTM 6868  15.145   3.371   5.544
  133POPC    CA 6869  15.245   3.379   5.653
  133POPC    CB 6870  15.314   3.513   5.689
  133POPC    OA 6871  15.225   3.615   5.735
  133POPC     P 6872  15.297   3.752   5.766
  133POPC    OB 6873  15.201   3.816   5.858
  133POPC    OC 6874  15.435   3.723   5.807
  133POPC    OD 6875  15.294   3.812   5.622
  133POPC    CC 6876  15.168   3.871   5.593
  133POPC    CD 6877  15.149   3.930   5.452
  133POPC    OE 6878  15.146   3.832   5.345
  133POPC   C1A 6879  15.034   3.763   5.323
  133POPC    OF 6880  14.956   3.740   5.416
  133POPC   C1B 6881  15.032   3.696   5.191
  133POPC   C1C 6882  14.897   3.717   5.122
  133POPC   C1D 6883  14.894   3.657   4.982
  133POPC   C1E 6884  14.757   3.678   4.917
  133POPC   C1F 6885  14.748   3.624   4.774
  133POPC   C1G 6886  14.836   3.702   4.675
  133POPC   C1H 6887  14.813   3.660   4.530
  133POPC   C1I 6888  14.868   3.520   4.498
  133POPC   C1J 6889  14.891   3.485   4.372
  133POPC   C1K 6890  14.863   3.583   4.258
  133POPC   C1L 6891  14.832   3.509   4.128
  133POPC   C1M 6892  14.796   3.608   4.017
  133POPC   C1N 6893  14.768   3.536   3.885
  133POPC   C1O 6894  14.733   3.637   3.776
  133POPC   C1P 6895  14.714   3.567   3.641
  133POPC   C1Q 6896  14.687   3.666   3.527
  133POPC   C1R 6897  14.549   3.732   3.539
  133POPC    CE 6898  15.257   4.038   5.435
  133POPC    OG 6899  15.222   4.142   5.343
  133POPC   C2A 6900  15.318   4.196   5.267
  133POPC    OH 6901  15.434   4.154   5.269
  133POPC   C2B 6902  15.268   4.302   5.177
  133POPC   C2C 6903  15.210   4.240   5.049
  133POPC   C2D 6904  15.164   4.343   4.946
  133POPC   C2E 6905  15.283   4.405   4.872
  133POPC   C2F 6906  15.238   4.498   4.759
  133POPC   C2G 6907  15.360   4.552   4.685
  133POPC   C2H 6908  15.326   4.656   4.578
  133POPC   C2I 6909  15.259   4.596   4.455
  133POPC   C2J 6910  15.238   4.705   4.350
  133POPC   C2K 6911  15.177   4.648   4.221
  133POPC   C2L 6912  15.158   4.758   4.115
  133POPC   C2M 6913  15.292   4.813   4.065
  133POPC   C2N 6914  15.270   4.926   3.964
  133POPC   C2O 6915  15.403   4.979   3.913
  133POPC   C2P 6916  15.383   5.091   3.811
  134POPC   CN1 6917  15.587   3.900   5.344
  134POPC   CN2 6918  15.470   3.694   5.348
  134POPC   CN3 6919  15.704   3.698   5.306
  134POPC   NTM 6920  15.596   3.759   5.384
  134POPC    CA 6921  15.615   3.743   5.531
  134POPC    CB 6922  15.727   3.820   5.604
  134POPC    OA 6923  15.861   3.792   5.562
  134POPC     P 6924  15.966   3.900   5.607
  134POPC    OB 6925  15.908   3.970   5.724
  134POPC    OC 6926  16.098   3.837   5.614
  134POPC    OD 6927  15.955   3.993   5.480
  134POPC    CC 6928  16.024   3.934   5.370
  134POPC    CD 6929  16.023   4.020   5.242
  134POPC    OE 6930  16.031   3.945   5.118
  134POPC   C1A 6931  15.916   3.911   5.059
  134POPC    OF 6932  15.808   3.946   5.108
  134POPC   C1B 6933  15.934   3.832   4.935
  134POPC   C1C 6934  15.964   3.924   4.817
  134POPC   C1D 6935  15.968   3.851   4.682
  134POPC   C1E 6936  15.993   3.955   4.574
  134POPC   C1F 6937  15.983   3.903   4.431
  134POPC   C1G 6938  16.008   4.020   4.335
  134POPC   C1H 6939  16.000   3.984   4.187
  134POPC   C1I 6940  15.858   3.953   4.139
  134POPC   C1J 6941  15.841   3.878   4.030
  134POPC   C1K 6942  15.965   3.826   3.957
  134POPC   C1L 6943  15.937   3.692   3.887
  134POPC   C1M 6944  16.068   3.629   3.841
  134POPC   C1N 6945  16.044   3.493   3.775
  134POPC   C1O 6946  16.175   3.420   3.743
  134POPC   C1P 6947  16.261   3.489   3.637
  134POPC   C1Q 6948  16.198   3.481   3.498
  134POPC   C1R 6949  16.284   3.553   3.394
  134POPC    CE 6950  16.116   4.141   5.263
  134POPC    OG 6951  16.248   4.114   5.315
  134POPC   C2A 6952  16.286   4.183   5.422
  134POPC    OH 6953  16.204   4.249   5.488
  134POPC   C2B 6954  16.427   4.161   5.462
  134POPC   C2C 6955  16.520   4.274   5.417
  134POPC   C2D 6956  16.560   4.270   5.269
  134POPC   C2E 6957  16.653   4.151   5.240
  134POPC   C2F 6958  16.732   4.168   5.111
  134POPC   C2G 6959  16.648   4.156   4.983
  134POPC   C2H 6960  16.733   4.173   4.857
  134POPC   C2I 6961  16.842   4.066   4.844
  134POPC   C2J 6962  16.923   4.076   4.714
  134POPC   C2K 6963   0.018   4.207   4.700
  134POPC   C2L 6964   0.103   4.205   4.573
  134POPC   C2M 6965   0.170   4.339   4.542
  134POPC   C2N 6966   0.276   4.380   4.644
  134POPC   C2O 6967   0.337   4.515   4.607
  134POPC   C2P 6968   0.444   4.559   4.707
  135POPC   CN1 6969  16.561   3.977   6.025
  135POPC   CN2 6970  16.614   4.160   6.170
  135POPC   CN3 6971  16.657   3.936   6.239
  135POPC   NTM 6972  16.658   4.028   6.124
  135POPC    CA 6973  16.796   4.033   6.070
  135POPC    CB 6974  16.827   4.112   5.941
  135POPC    OA 6975  16.800   4.252   5.938
  135POPC     P 6976  16.778   4.289   5.787
  135POPC    OB 6977  16.901   4.259   5.715
  135POPC    OC 6978  16.648   4.230   5.752
  135POPC    OD 6979  16.762   4.443   5.803
  135POPC    CC 6980  16.717   4.498   5.679
  135POPC    CD 6981  16.678   4.647   5.684
  135POPC    OE 6982  16.587   4.688   5.579
  135POPC   C1A 6983  16.457   4.663   5.593
  135POPC    OF 6984  16.415   4.595   5.687
  135POPC   C1B 6985  16.371   4.723   5.489
  135POPC   C1C 6986  16.339   4.623   5.378
  135POPC   C1D 6987  16.237   4.683   5.281
  135POPC   C1E 6988  16.204   4.586   5.167
  135POPC   C1F 6989  16.317   4.568   5.066
  135POPC   C1G 6990  16.338   4.694   4.981
  135POPC   C1H 6991  16.446   4.672   4.875
  135POPC   C1I 6992  16.466   4.798   4.790
  135POPC   C1J 6993  16.432   4.801   4.661
  135POPC   C1K 6994  16.374   4.678   4.592
  135POPC   C1L 6995  16.405   4.682   4.442
  135POPC   C1M 6996  16.353   4.557   4.371
  135POPC   C1N 6997  16.383   4.562   4.221
  135POPC   C1O 6998  16.333   4.435   4.152
  135POPC   C1P 6999  16.365   4.437   4.003
  135POPC   C1Q 7000  16.314   4.309   3.935
  135POPC   C1R 7001  16.347   4.310   3.786
  135POPC    CE 7002  16.807   4.729   5.699
  135POPC    OG 7003  16.915   4.701   5.606
  135POPC   C2A 7004   0.040   4.777   5.617
  135POPC    OH 7005   0.051   4.864   5.704
  135POPC   C2B 7006   0.146   4.743   5.520
  135POPC   C2C 7007   0.140   4.830   5.394
  135POPC   C2D 7008   0.260   4.801   5.303
  135POPC   C2E 7009   0.249   4.881   5.174
  135POPC   C2F 7010   0.373   4.867   5.086
  135POPC   C2G 7011   0.356   4.951   4.959
  135POPC   C2H 7012   0.482   4.953   4.873
  135POPC   C2I 7013   0.457   5.039   4.749
  135POPC   C2J 7014   0.581   5.050   4.661
  135POPC   C2K 7015   0.548   5.132   4.536
  135POPC   C2L 7016   0.669   5.147   4.443
  135POPC   C2M 7017   0.631   5.226   4.318
  135POPC   C2N 7018   0.748   5.241   4.222
  135POPC   C2O 7019   0.706   5.318   4.097
  135POPC   C2P 7020   0.821   5.326   3.996
  136POPC   CN1 7021   1.541   4.227   6.731
  136POPC   CN2 7022   1.529   4.025   6.606
  136POPC   CN3 7023   1.387   4.207   6.547
  136POPC   NTM 7024   1.521   4.172   6.596
  136POPC    CA 7025   1.628   4.215   6.503
  136POPC    CB 7026   1.660   4.365   6.480
  136POPC    OA 7027   1.548   4.445   6.441
  136POPC     P 7028   1.590   4.574   6.359
  136POPC    OB 7029   1.464   4.648   6.341
  136POPC    OC 7030   1.707   4.630   6.429
  136POPC    OD 7031   1.635   4.505   6.225
  136POPC    CC 7032   1.524   4.472   6.141
  136POPC    CD 7033   1.560   4.449   5.992
  136POPC    OE 7034   1.625   4.323   5.958
  136POPC   C1A 7035   1.549   4.217   5.931
  136POPC    OF 7036   1.428   4.220   5.956
  136POPC   C1B 7037   1.629   4.100   5.889
  136POPC   C1C 7038   1.556   3.996   5.804
  136POPC   C1D 7039   1.530   4.038   5.659
  136POPC   C1E 7040   1.490   3.913   5.579
  136POPC   C1F 7041   1.460   3.941   5.432
  136POPC   C1G 7042   1.325   4.011   5.414
  136POPC   C1H 7043   1.292   4.031   5.266
  136POPC   C1I 7044   1.153   4.093   5.251
  136POPC   C1J 7045   1.082   4.069   5.141
  136POPC   C1K 7046   1.140   3.981   5.030
  136POPC   C1L 7047   1.105   4.038   4.893
  136POPC   C1M 7048   1.163   3.955   4.779
  136POPC   C1N 7049   1.143   4.028   4.646
  136POPC   C1O 7050   1.198   3.948   4.529
  136POPC   C1P 7051   1.195   4.026   4.397
  136POPC   C1Q 7052   1.053   4.061   4.352
  136POPC   C1R 7053   1.056   4.139   4.220
  136POPC    CE 7054   1.631   4.577   5.946
  136POPC    OG 7055   1.538   4.685   5.925
  136POPC   C2A 7056   1.587   4.808   5.917
  136POPC    OH 7057   1.699   4.834   5.961
  136POPC   C2B 7058   1.488   4.906   5.867
  136POPC   C2C 7059   1.554   5.013   5.780
  136POPC   C2D 7060   1.454   5.094   5.697
  136POPC   C2E 7061   1.388   5.008   5.589
  136POPC   C2F 7062   1.308   5.093   5.491
  136POPC   C2G 7063   1.238   5.006   5.387
  136POPC   C2H 7064   1.164   5.089   5.281
  136POPC   C2I 7065   1.261   5.169   5.194
  136POPC   C2J 7066   1.188   5.243   5.082
  136POPC   C2K 7067   1.288   5.320   4.995
  136POPC   C2L 7068   1.224   5.389   4.875
  136POPC   C2M 7069   1.168   5.290   4.773
  136POPC   C2N 7070   1.116   5.362   4.648
  136POPC   C2O 7071   1.049   5.267   4.548
  136POPC   C2P 7072   1.148   5.169   4.484
  137POPC   CN1 7073   2.282   4.471   6.173
  137POPC   CN2 7074   2.364   4.602   6.354
  137POPC   CN3 7075   2.248   4.705   6.172
  137POPC   NTM 7076   2.254   4.587   6.258
  137POPC    CA 7077   2.122   4.572   6.325
  137POPC    CB 7078   2.099   4.467   6.437
  137POPC    OA 7079   2.151   4.337   6.410
  137POPC     P 7080   2.103   4.226   6.510
  137POPC    OB 7081   2.204   4.121   6.494
  137POPC    OC 7082   2.075   4.294   6.639
  137POPC    OD 7083   1.971   4.196   6.429
  137POPC    CC 7084   1.995   4.103   6.322
  137POPC    CD 7085   1.880   4.102   6.221
  137POPC    OE 7086   1.873   3.982   6.138
  137POPC   C1A 7087   1.809   3.876   6.185
  137POPC    OF 7088   1.723   3.889   6.274
  137POPC   C1B 7089   1.830   3.753   6.106
  137POPC   C1C 7090   1.717   3.729   6.006
  137POPC   C1D 7091   1.741   3.601   5.926
  137POPC   C1E 7092   1.628   3.575   5.827
  137POPC   C1F 7093   1.648   3.440   5.758
  137POPC   C1G 7094   1.544   3.414   5.648
  137POPC   C1H 7095   1.559   3.506   5.526
  137POPC   C1I 7096   1.687   3.477   5.446
  137POPC   C1J 7097   1.690   3.499   5.315
  137POPC   C1K 7098   1.566   3.553   5.244
  137POPC   C1L 7099   1.606   3.627   5.116
  137POPC   C1M 7100   1.482   3.680   5.043
  137POPC   C1N 7101   1.518   3.747   4.910
  137POPC   C1O 7102   1.574   3.647   4.808
  137POPC   C1P 7103   1.606   3.717   4.676
  137POPC   C1Q 7104   1.661   3.617   4.574
  137POPC   C1R 7105   1.689   3.686   4.440
  137POPC    CE 7106   1.884   4.237   6.147
  137POPC    OG 7107   1.993   4.257   6.056
  137POPC   C2A 7108   1.990   4.367   5.983
  137POPC    OH 7109   1.943   4.471   6.030
  137POPC   C2B 7110   2.082   4.360   5.867
  137POPC   C2C 7111   2.024   4.422   5.739
  137POPC   C2D 7112   1.913   4.337   5.676
  137POPC   C2E 7113   1.884   4.389   5.535
  137POPC   C2F 7114   1.777   4.307   5.463
  137POPC   C2G 7115   1.767   4.353   5.317
  137POPC   C2H 7116   1.670   4.266   5.237
  137POPC   C2I 7117   1.680   4.299   5.088
  137POPC   C2J 7118   1.592   4.205   5.005
  137POPC   C2K 7119   1.615   4.225   4.855
  137POPC   C2L 7120   1.529   4.126   4.777
  137POPC   C2M 7121   1.565   4.116   4.629
  137POPC   C2N 7122   1.528   4.240   4.547
  137POPC   C2O 7123   1.561   4.216   4.399
  137POPC   C2P 7124   1.517   4.333   4.312
  138POPC   CN1 7125   2.867   5.161   6.477
  138POPC   CN2 7126   2.900   5.088   6.699
  138POPC   CN3 7127   2.685   5.159   6.631
  138POPC   NTM 7128   2.805   5.087   6.588
  138POPC    CA 7129   2.774   4.946   6.553
  138POPC    CB 7130   2.674   4.912   6.440
  138POPC    OA 7131   2.713   4.955   6.309
  138POPC     P 7132   2.599   4.938   6.202
  138POPC    OB 7133   2.469   4.962   6.267
  138POPC    OC 7134   2.640   5.016   6.086
  138POPC    OD 7135   2.611   4.784   6.175
  138POPC    CC 7136   2.722   4.752   6.092
  138POPC    CD 7137   2.764   4.605   6.103
  138POPC    OE 7138   2.899   4.574   6.061
  138POPC   C1A 7139   3.002   4.604   6.140
  138POPC    OF 7140   2.982   4.662   6.248
  138POPC   C1B 7141   3.133   4.557   6.089
  138POPC   C1C 7142   3.205   4.660   6.001
  138POPC   C1D 7143   3.142   4.682   5.863
  138POPC   C1E 7144   3.149   4.558   5.774
  138POPC   C1F 7145   3.089   4.587   5.636
  138POPC   C1G 7146   3.090   4.462   5.548
  138POPC   C1H 7147   3.031   4.486   5.409
  138POPC   C1I 7148   3.124   4.569   5.319
  138POPC   C1J 7149   3.074   4.644   5.221
  138POPC   C1K 7150   2.923   4.650   5.196
  138POPC   C1L 7151   2.883   4.786   5.140
  138POPC   C1M 7152   2.732   4.797   5.114
  138POPC   C1N 7153   2.686   4.707   4.999
  138POPC   C1O 7154   2.534   4.719   4.978
  138POPC   C1P 7155   2.483   4.632   4.863
  138POPC   C1Q 7156   2.531   4.683   4.727
  138POPC   C1R 7157   2.478   4.594   4.614
  138POPC    CE 7158   2.652   4.519   6.041
  138POPC    OG 7159   2.622   4.550   5.904
  138POPC   C2A 7160   2.532   4.476   5.841
  138POPC    OH 7161   2.465   4.391   5.901
  138POPC   C2B 7162   2.524   4.513   5.698
  138POPC   C2C 7163   2.388   4.492   5.633
  138POPC   C2D 7164   2.392   4.548   5.491
  138POPC   C2E 7165   2.262   4.527   5.414
  138POPC   C2F 7166   2.271   4.599   5.279
  138POPC   C2G 7167   2.151   4.573   5.187
  138POPC   C2H 7168   2.147   4.428   5.138
  138POPC   C2I 7169   2.050   4.408   5.021
  138POPC   C2J 7170   2.100   4.474   4.893
  138POPC   C2K 7171   2.008   4.443   4.775
  138POPC   C2L 7172   2.066   4.502   4.646
  138POPC   C2M 7173   1.982   4.464   4.524
  138POPC   C2N 7174   2.048   4.517   4.397
  138POPC   C2O 7175   1.970   4.479   4.270
  138POPC   C2P 7176   1.834   4.550   4.262
  139POPC   CN1 7177   3.568   4.419   6.639
  139POPC   CN2 7178   3.368   4.463   6.760
  139POPC   CN3 7179   3.357   4.336   6.559
  139POPC   NTM 7180   3.438   4.363   6.679
  139POPC    CA 7181   3.453   4.241   6.762
  139POPC    CB 7182   3.538   4.122   6.713
  139POPC    OA 7183   3.502   4.065   6.588
  139POPC     P 7184   3.587   3.937   6.554
  139POPC    OB 7185   3.635   3.876   6.679
  139POPC    OC 7186   3.509   3.858   6.459
  139POPC    OD 7187   3.709   4.009   6.488
  139POPC    CC 7188   3.688   4.040   6.350
  139POPC    CD 7189   3.775   4.158   6.303
  139POPC    OE 7190   3.753   4.191   6.163
  139POPC   C1A 7191   3.774   4.316   6.122
  139POPC    OF 7192   3.777   4.407   6.205
  139POPC   C1B 7193   3.762   4.331   5.975
  139POPC   C1C 7194   3.615   4.350   5.935
  139POPC   C1D 7195   3.595   4.365   5.784
  139POPC   C1E 7196   3.644   4.500   5.732
  139POPC   C1F 7197   3.603   4.522   5.586
  139POPC   C1G 7198   3.681   4.434   5.488
  139POPC   C1H 7199   3.623   4.449   5.348
  139POPC   C1I 7200   3.711   4.386   5.240
  139POPC   C1J 7201   3.689   4.421   5.114
  139POPC   C1K 7202   3.576   4.520   5.088
  139POPC   C1L 7203   3.505   4.493   4.955
  139POPC   C1M 7204   3.378   4.579   4.947
  139POPC   C1N 7205   3.302   4.555   4.817
  139POPC   C1O 7206   3.173   4.638   4.816
  139POPC   C1P 7207   3.100   4.628   4.682
  139POPC   C1Q 7208   2.975   4.716   4.684
  139POPC   C1R 7209   2.905   4.713   4.548
  139POPC    CE 7210   3.922   4.122   6.338
  139POPC    OG 7211   3.984   4.016   6.262
  139POPC   C2A 7212   4.039   4.052   6.146
  139POPC    OH 7213   4.077   4.168   6.129
  139POPC   C2B 7214   4.080   3.934   6.066
  139POPC   C2C 7215   4.066   3.952   5.914
  139POPC   C2D 7216   4.172   4.046   5.855
  139POPC   C2E 7217   4.163   4.059   5.703
  139POPC   C2F 7218   4.030   4.120   5.655
  139POPC   C2G 7219   4.034   4.152   5.506
  139POPC   C2H 7220   4.048   4.028   5.417
  139POPC   C2I 7221   4.064   4.072   5.271
  139POPC   C2J 7222   4.073   3.951   5.177
  139POPC   C2K 7223   4.094   3.994   5.031
  139POPC   C2L 7224   3.976   4.075   4.977
  139POPC   C2M 7225   4.005   4.125   4.835
  139POPC   C2N 7226   3.893   4.218   4.788
  139POPC   C2O 7227   3.926   4.275   4.650
  139POPC   C2P 7228   3.816   4.370   4.604
  140POPC   CN1 7229   4.274   4.735   6.382
  140POPC   CN2 7230   4.504   4.796   6.363
  140POPC   CN3 7231   4.361   4.807   6.172
  140POPC   NTM 7232   4.368   4.828   6.318
  140POPC    CA 7233   4.339   4.968   6.357
  140POPC    CB 7234   4.217   5.044   6.299
  140POPC    OA 7235   4.093   4.974   6.292
  140POPC     P 7236   3.987   5.063   6.215
  140POPC    OB 7237   3.926   5.141   6.323
  140POPC    OC 7238   4.057   5.122   6.100
  140POPC    OD 7239   3.895   4.943   6.175
  140POPC    CC 7240   3.944   4.873   6.061
  140POPC    CD 7241   3.884   4.732   6.047
  140POPC    OE 7242   3.951   4.647   5.950
  140POPC   C1A 7243   4.067   4.589   5.981
  140POPC    OF 7244   4.110   4.592   6.097
  140POPC   C1B 7245   4.124   4.505   5.873
  140POPC   C1C 7246   4.217   4.581   5.777
  140POPC   C1D 7247   4.147   4.644   5.656
  140POPC   C1E 7248   4.068   4.541   5.574
  140POPC   C1F 7249   4.044   4.582   5.428
  140POPC   C1G 7250   4.169   4.556   5.343
  140POPC   C1H 7251   4.142   4.568   5.192
  140POPC   C1I 7252   4.123   4.712   5.145
  140POPC   C1J 7253   4.083   4.737   5.021
  140POPC   C1K 7254   4.053   4.622   4.923
  140POPC   C1L 7255   4.104   4.648   4.781
  140POPC   C1M 7256   4.036   4.768   4.714
  140POPC   C1N 7257   4.091   4.798   4.574
  140POPC   C1O 7258   4.053   4.691   4.471
  140POPC   C1P 7259   4.100   4.733   4.332
  140POPC   C1Q 7260   4.062   4.629   4.226
  140POPC   C1R 7261   4.106   4.675   4.087
  140POPC    CE 7262   3.732   4.748   6.035
  140POPC    OG 7263   3.682   4.840   5.936
  140POPC   C2A 7264   3.554   4.876   5.948
  140POPC    OH 7265   3.487   4.842   6.045
  140POPC   C2B 7266   3.509   4.969   5.842
  140POPC   C2C 7267   3.452   4.894   5.722
  140POPC   C2D 7268   3.405   4.992   5.615
  140POPC   C2E 7269   3.364   4.920   5.487
  140POPC   C2F 7270   3.329   5.022   5.378
  140POPC   C2G 7271   3.304   4.955   5.244
  140POPC   C2H 7272   3.282   5.060   5.134
  140POPC   C2I 7273   3.264   4.992   4.999
  140POPC   C2J 7274   3.249   5.095   4.886
  140POPC   C2K 7275   3.240   5.024   4.751
  140POPC   C2L 7276   3.230   5.123   4.636
  140POPC   C2M 7277   3.233   5.049   4.502
  140POPC   C2N 7278   3.232   5.147   4.385
  140POPC   C2O 7279   3.241   5.077   4.249
  140POPC   C2P 7280   3.376   5.008   4.227
  141POPC   CN1 7281   4.859   5.539   6.909
  141POPC   CN2 7282   4.926   5.328   6.823
  141POPC   CN3 7283   4.697   5.366   6.880
  141POPC   NTM 7284   4.817   5.428   6.823
  141POPC    CA 7285   4.793   5.483   6.687
  141POPC    CB 7286   4.730   5.395   6.576
  141POPC    OA 7287   4.798   5.273   6.546
  141POPC     P 7288   4.732   5.211   6.419
  141POPC    OB 7289   4.599   5.160   6.454
  141POPC    OC 7290   4.750   5.308   6.311
  141POPC    OD 7291   4.834   5.094   6.404
  141POPC    CC 7292   4.822   5.044   6.272
  141POPC    CD 7293   4.949   4.977   6.217
  141POPC    OE 7294   4.943   4.959   6.073
  141POPC   C1A 7295   5.056   4.961   6.003
  141POPC    OF 7296   5.160   5.002   6.056
  141POPC   C1B 7297   5.039   4.922   5.861
  141POPC   C1C 7298   5.140   4.993   5.771
  141POPC   C1D 7299   5.135   4.946   5.626
  141POPC   C1E 7300   5.006   4.988   5.555
  141POPC   C1F 7301   5.005   4.941   5.409
  141POPC   C1G 7302   5.109   5.014   5.323
  141POPC   C1H 7303   5.110   4.963   5.178
  141POPC   C1I 7304   4.982   5.001   5.102
  141POPC   C1J 7305   4.979   4.992   4.969
  141POPC   C1K 7306   5.100   4.938   4.892
  141POPC   C1L 7307   5.060   4.883   4.755
  141POPC   C1M 7308   5.033   4.996   4.654
  141POPC   C1N 7309   4.984   4.939   4.521
  141POPC   C1O 7310   4.968   5.047   4.414
  141POPC   C1P 7311   5.103   5.097   4.363
  141POPC   C1Q 7312   5.085   5.206   4.257
  141POPC   C1R 7313   5.221   5.249   4.201
  141POPC    CE 7314   4.970   4.848   6.297
  141POPC    OG 7315   4.866   4.750   6.278
  141POPC   C2A 7316   4.907   4.625   6.257
  141POPC    OH 7317   5.014   4.586   6.304
  141POPC   C2B 7318   4.800   4.537   6.206
  141POPC   C2C 7319   4.792   4.539   6.053
  141POPC   C2D 7320   4.679   4.447   6.006
  141POPC   C2E 7321   4.665   4.442   5.854
  141POPC   C2F 7322   4.549   4.348   5.818
  141POPC   C2G 7323   4.525   4.333   5.667
  141POPC   C2H 7324   4.640   4.260   5.596
  141POPC   C2I 7325   4.603   4.216   5.454
  141POPC   C2J 7326   4.577   4.334   5.360
  141POPC   C2K 7327   4.532   4.284   5.222
  141POPC   C2L 7328   4.508   4.403   5.129
  141POPC   C2M 7329   4.455   4.362   4.991
  141POPC   C2N 7330   4.558   4.284   4.909
  141POPC   C2O 7331   4.512   4.261   4.764
  141POPC   C2P 7332   4.388   4.173   4.754
  142POPC   CN1 7333   6.603   5.516   5.976
  142POPC   CN2 7334   6.572   5.309   5.872
  142POPC   CN3 7335   6.707   5.325   6.070
  142POPC   NTM 7336   6.586   5.373   6.003
  142POPC    CA 7337   6.463   5.356   6.085
  142POPC    CB 7338   6.428   5.220   6.152
  142POPC    OA 7339   6.426   5.099   6.076
  142POPC     P 7340   6.364   4.984   6.164
  142POPC    OB 7341   6.383   4.858   6.091
  142POPC    OC 7342   6.414   4.996   6.302
  142POPC    OD 7343   6.213   5.026   6.164
  142POPC    CC 7344   6.132   4.946   6.077
  142POPC    CD 7345   5.992   5.003   6.047
  142POPC    OE 7346   5.902   4.911   5.979
  142POPC   C1A 7347   5.848   4.808   6.044
  142POPC    OF 7348   5.882   4.779   6.159
  142POPC   C1B 7349   5.753   4.729   5.962
  142POPC   C1C 7350   5.606   4.748   6.002
  142POPC   C1D 7351   5.553   4.891   5.983
  142POPC   C1E 7352   5.557   4.936   5.837
  142POPC   C1F 7353   5.511   5.081   5.824
  142POPC   C1G 7354   5.532   5.129   5.681
  142POPC   C1H 7355   5.490   5.275   5.662
  142POPC   C1I 7356   5.339   5.292   5.640
  142POPC   C1J 7357   5.297   5.336   5.522
  142POPC   C1K 7358   5.401   5.372   5.415
  142POPC   C1L 7359   5.351   5.340   5.274
  142POPC   C1M 7360   5.457   5.374   5.171
  142POPC   C1N 7361   5.406   5.349   5.029
  142POPC   C1O 7362   5.512   5.389   4.926
  142POPC   C1P 7363   5.464   5.369   4.782
  142POPC   C1Q 7364   5.442   5.221   4.747
  142POPC   C1R 7365   5.400   5.205   4.601
  142POPC    CE 7366   6.019   5.133   5.969
  142POPC    OG 7367   6.095   5.114   5.847
  142POPC   C2A 7368   6.186   5.206   5.818
  142POPC    OH 7369   6.218   5.292   5.899
  142POPC   C2B 7370   6.258   5.172   5.692
  142POPC   C2C 7371   6.291   5.292   5.602
  142POPC   C2D 7372   6.348   5.240   5.471
  142POPC   C2E 7373   6.380   5.353   5.373
  142POPC   C2F 7374   6.424   5.294   5.239
  142POPC   C2G 7375   6.464   5.405   5.141
  142POPC   C2H 7376   6.506   5.352   5.004
  142POPC   C2I 7377   6.389   5.298   4.922
  142POPC   C2J 7378   6.440   5.248   4.787
  142POPC   C2K 7379   6.325   5.202   4.696
  142POPC   C2L 7380   6.380   5.151   4.563
  142POPC   C2M 7381   6.268   5.110   4.468
  142POPC   C2N 7382   6.320   5.055   4.335
  142POPC   C2O 7383   6.392   5.161   4.251
  142POPC   C2P 7384   6.443   5.101   4.119
  143POPC   CN1 7385   5.870   3.626   6.153
  143POPC   CN2 7386   5.708   3.455   6.176
  143POPC   CN3 7387   5.875   3.434   6.010
  143POPC   NTM 7388   5.850   3.481   6.147
  143POPC    CA 7389   5.934   3.408   6.246
  143POPC    CB 7390   6.088   3.426   6.248
  143POPC    OA 7391   6.158   3.394   6.127
  143POPC     P 7392   6.305   3.453   6.125
  143POPC    OB 7393   6.360   3.443   6.261
  143POPC    OC 7394   6.372   3.392   6.009
  143POPC    OD 7395   6.265   3.602   6.096
  143POPC    CC 7396   6.247   3.629   5.957
  143POPC    CD 7397   6.184   3.766   5.930
  143POPC    OE 7398   6.114   3.770   5.802
  143POPC   C1A 7399   6.033   3.871   5.774
  143POPC    OF 7400   6.006   3.956   5.860
  143POPC   C1B 7401   5.981   3.866   5.635
  143POPC   C1C 7402   5.844   3.931   5.621
  143POPC   C1D 7403   5.795   3.921   5.476
  143POPC   C1E 7404   5.655   3.981   5.461
  143POPC   C1F 7405   5.610   3.967   5.316
  143POPC   C1G 7406   5.468   4.018   5.294
  143POPC   C1H 7407   5.431   3.999   5.147
  143POPC   C1I 7408   5.286   4.039   5.119
  143POPC   C1J 7409   5.220   3.973   5.024
  143POPC   C1K 7410   5.293   3.860   4.950
  143POPC   C1L 7411   5.239   3.842   4.809
  143POPC   C1M 7412   5.319   3.736   4.734
  143POPC   C1N 7413   5.263   3.713   4.594
  143POPC   C1O 7414   5.348   3.611   4.518
  143POPC   C1P 7415   5.294   3.581   4.378
  143POPC   C1Q 7416   5.303   3.702   4.284
  143POPC   C1R 7417   5.259   3.664   4.143
  143POPC    CE 7418   6.293   3.872   5.955
  143POPC    OG 7419   6.401   3.874   5.859
  143POPC   C2A 7420   6.437   3.993   5.813
  143POPC    OH 7421   6.370   4.094   5.837
  143POPC   C2B 7422   6.553   3.987   5.721
  143POPC   C2C 7423   6.515   4.045   5.584
  143POPC   C2D 7424   6.630   4.040   5.483
  143POPC   C2E 7425   6.593   4.111   5.352
  143POPC   C2F 7426   6.480   4.039   5.277
  143POPC   C2G 7427   6.419   4.126   5.166
  143POPC   C2H 7428   6.511   4.147   5.045
  143POPC   C2I 7429   6.524   4.025   4.954
  143POPC   C2J 7430   6.395   3.996   4.876
  143POPC   C2K 7431   6.413   3.884   4.774
  143POPC   C2L 7432   6.509   3.923   4.662
  143POPC   C2M 7433   6.522   3.812   4.558
  143POPC   C2N 7434   6.617   3.855   4.446
  143POPC   C2O 7435   6.626   3.752   4.333
  143POPC   C2P 7436   6.693   3.621   4.376
  144POPC   CN1 7437   6.155   4.359   6.207
  144POPC   CN2 7438   6.315   4.360   6.030
  144POPC   CN3 7439   6.106   4.466   6.000
  144POPC   NTM 7440   6.212   4.439   6.098
  144POPC    CA 7441   6.263   4.570   6.145
  144POPC    CB 7442   6.364   4.583   6.262
  144POPC    OA 7443   6.475   4.492   6.258
  144POPC     P 7444   6.613   4.556   6.299
  144POPC    OB 7445   6.585   4.663   6.396
  144POPC    OC 7446   6.696   4.441   6.335
  144POPC    OD 7447   6.654   4.622   6.162
  144POPC    CC 7448   6.677   4.528   6.058
  144POPC    CD 7449   6.649   4.591   5.920
  144POPC    OE 7450   6.605   4.496   5.819
  144POPC   C1A 7451   6.537   4.543   5.715
  144POPC    OF 7452   6.494   4.659   5.717
  144POPC   C1B 7453   6.503   4.445   5.609
  144POPC   C1C 7454   6.354   4.410   5.610
  144POPC   C1D 7455   6.307   4.382   5.467
  144POPC   C1E 7456   6.163   4.331   5.465
  144POPC   C1F 7457   6.106   4.334   5.324
  144POPC   C1G 7458   5.964   4.276   5.321
  144POPC   C1H 7459   5.891   4.301   5.189
  144POPC   C1I 7460   5.848   4.447   5.172
  144POPC   C1J 7461   5.740   4.476   5.100
  144POPC   C1K 7462   5.660   4.362   5.037
  144POPC   C1L 7463   5.619   4.396   4.894
  144POPC   C1M 7464   5.553   4.275   4.827
  144POPC   C1N 7465   5.532   4.300   4.678
  144POPC   C1O 7466   5.489   4.171   4.608
  144POPC   C1P 7467   5.490   4.189   4.457
  144POPC   C1Q 7468   5.463   4.056   4.387
  144POPC   C1R 7469   5.474   4.070   4.236
  144POPC    CE 7470   6.769   4.684   5.888
  144POPC    OG 7471   6.899   4.622   5.881
  144POPC   C2A 7472   7.004   4.704   5.885
  144POPC    OH 7473   6.992   4.825   5.906
  144POPC   C2B 7474   7.132   4.631   5.872
  144POPC   C2C 7475   7.251   4.715   5.825
  144POPC   C2D 7476   7.238   4.775   5.684
  144POPC   C2E 7477   7.231   4.668   5.574
  144POPC   C2F 7478   7.230   4.737   5.438
  144POPC   C2G 7479   7.208   4.638   5.324
  144POPC   C2H 7480   7.208   4.715   5.192
  144POPC   C2I 7481   7.175   4.626   5.072
  144POPC   C2J 7482   7.173   4.711   4.945
  144POPC   C2K 7483   7.132   4.628   4.824
  144POPC   C2L 7484   7.128   4.715   4.699
  144POPC   C2M 7485   7.084   4.633   4.578
  144POPC   C2N 7486   7.087   4.717   4.450
  144POPC   C2O 7487   7.043   4.632   4.331
  144POPC   C2P 7488   7.053   4.712   4.201
  145POPC   CN1 7489   7.240   4.179   6.244
  145POPC   CN2 7490   7.434   4.231   6.120
  145POPC   CN3 7491   7.276   4.403   6.177
  145POPC   NTM 7492   7.344   4.281   6.224
  145POPC    CA 7493   7.413   4.303   6.354
  145POPC    CB 7494   7.530   4.404   6.366
  145POPC    OA 7495   7.641   4.378   6.280
  145POPC     P 7496   7.771   4.455   6.322
  145POPC    OB 7497   7.766   4.584   6.253
  145POPC    OC 7498   7.785   4.447   6.468
  145POPC    OD 7499   7.874   4.356   6.256
  145POPC    CC 7500   7.887   4.385   6.117
  145POPC    CD 7501   7.998   4.309   6.043
  145POPC    OE 7502   8.043   4.386   5.929
  145POPC   C1A 7503   8.172   4.408   5.909
  145POPC    OF 7504   8.259   4.340   5.967
  145POPC   C1B 7505   8.197   4.523   5.818
  145POPC   C1C 7506   8.182   4.489   5.670
  145POPC   C1D 7507   8.173   4.619   5.589
  145POPC   C1E 7508   8.151   4.593   5.440
  145POPC   C1F 7509   8.116   4.722   5.366
  145POPC   C1G 7510   8.098   4.694   5.216
  145POPC   C1H 7511   8.042   4.813   5.138
  145POPC   C1I 7512   7.894   4.837   5.169
  145POPC   C1J 7513   7.833   4.949   5.130
  145POPC   C1K 7514   7.910   5.056   5.053
  145POPC   C1L 7515   7.822   5.132   4.953
  145POPC   C1M 7516   7.787   5.050   4.829
  145POPC   C1N 7517   7.711   5.135   4.727
  145POPC   C1O 7518   7.679   5.054   4.601
  145POPC   C1P 7519   7.608   5.141   4.497
  145POPC   C1Q 7520   7.574   5.064   4.369
  145POPC   C1R 7521   7.466   4.958   4.391
  145POPC    CE 7522   7.947   4.166   6.018
  145POPC    OG 7523   7.821   4.159   5.949
  145POPC   C2A 7524   7.782   4.040   5.904
  145POPC    OH 7525   7.849   3.938   5.924
  145POPC   C2B 7526   7.652   4.049   5.833
  145POPC   C2C 7527   7.647   3.963   5.706
  145POPC   C2D 7528   7.508   3.968   5.642
  145POPC   C2E 7529   7.480   4.100   5.569
  145POPC   C2F 7530   7.333   4.104   5.524
  145POPC   C2G 7531   7.305   4.207   5.414
  145POPC   C2H 7532   7.375   4.166   5.284
  145POPC   C2I 7533   7.325   4.243   5.162
  145POPC   C2J 7534   7.402   4.195   5.040
  145POPC   C2K 7535   7.343   4.243   4.907
  145POPC   C2L 7536   7.426   4.186   4.793
  145POPC   C2M 7537   7.362   4.213   4.656
  145POPC   C2N 7538   7.447   4.159   4.541
  145POPC   C2O 7539   7.456   4.006   4.541
  145POPC   C2P 7540   7.546   3.957   4.427
  146POPC   CN1 7541  10.145   3.531   6.040
  146POPC   CN2 7542  10.254   3.500   6.248
  146POPC   CN3 7543  10.308   3.691   6.118
  146POPC   NTM 7544  10.198   3.601   6.158
  146POPC    CA 7545  10.093   3.675   6.231
  146POPC    CB 7546  10.001   3.776   6.157
  146POPC    OA 7547  10.068   3.882   6.088
  146POPC     P 7548   9.967   3.965   6.000
  146POPC    OB 7549   9.850   3.987   6.087
  146POPC    OC 7550  10.039   4.080   5.945
  146POPC    OD 7551   9.934   3.859   5.889
  146POPC    CC 7552  10.027   3.860   5.781
  146POPC    CD 7553   9.995   3.755   5.674
  146POPC    OE 7554  10.099   3.738   5.574
  146POPC   C1A 7555  10.170   3.626   5.578
  146POPC    OF 7556  10.189   3.568   5.685
  146POPC   C1B 7557  10.238   3.599   5.449
  146POPC   C1C 7558  10.381   3.546   5.461
  146POPC   C1D 7559  10.436   3.525   5.320
  146POPC   C1E 7560  10.582   3.479   5.314
  146POPC   C1F 7561  10.603   3.339   5.373
  146POPC   C1G 7562  10.735   3.279   5.325
  146POPC   C1H 7563  10.731   3.234   5.179
  146POPC   C1I 7564  10.646   3.107   5.162
  146POPC   C1J 7565  10.648   3.037   5.049
  146POPC   C1K 7566  10.732   3.081   4.930
  146POPC   C1L 7567  10.664   3.038   4.800
  146POPC   C1M 7568  10.752   3.070   4.678
  146POPC   C1N 7569  10.686   3.024   4.548
  146POPC   C1O 7570  10.569   3.115   4.507
  146POPC   C1P 7571  10.492   3.060   4.387
  146POPC   C1Q 7572  10.578   3.049   4.260
  146POPC   C1R 7573  10.493   3.000   4.143
  146POPC    CE 7574   9.856   3.792   5.619
  146POPC    OG 7575   9.798   3.698   5.526
  146POPC   C2A 7576   9.667   3.705   5.505
  146POPC    OH 7577   9.596   3.782   5.569
  146POPC   C2B 7578   9.620   3.617   5.396
  146POPC   C2C 7579   9.606   3.699   5.267
  146POPC   C2D 7580   9.536   3.620   5.156
  146POPC   C2E 7581   9.507   3.711   5.037
  146POPC   C2F 7582   9.420   3.642   4.932
  146POPC   C2G 7583   9.389   3.739   4.817
  146POPC   C2H 7584   9.299   3.677   4.710
  146POPC   C2I 7585   9.270   3.779   4.600
  146POPC   C2J 7586   9.175   3.727   4.492
  146POPC   C2K 7587   9.237   3.615   4.408
  146POPC   C2L 7588   9.144   3.576   4.293
  146POPC   C2M 7589   9.205   3.461   4.211
  146POPC   C2N 7590   9.121   3.425   4.088
  146POPC   C2O 7591   9.126   3.533   3.980
  146POPC   C2P 7592   9.044   3.493   3.857
  147POPC   CN1 7593  10.532   4.101   5.629
  147POPC   CN2 7594  10.434   4.168   5.424
  147POPC   CN3 7595  10.356   3.973   5.533
  147POPC   NTM 7596  10.405   4.109   5.555
  147POPC    CA 7597  10.300   4.182   5.631
  147POPC    CB 7598  10.315   4.333   5.663
  147POPC    OA 7599  10.433   4.372   5.735
  147POPC     P 7600  10.449   4.528   5.742
  147POPC    OB 7601  10.319   4.585   5.782
  147POPC    OC 7602  10.573   4.553   5.819
  147POPC    OD 7603  10.473   4.562   5.592
  147POPC    CC 7604  10.606   4.535   5.548
  147POPC    CD 7605  10.632   4.563   5.399
  147POPC    OE 7606  10.762   4.522   5.347
  147POPC   C1A 7607  10.790   4.393   5.330
  147POPC    OF 7608  10.736   4.306   5.400
  147POPC   C1B 7609  10.911   4.371   5.247
  147POPC   C1C 7610  10.908   4.240   5.169
  147POPC   C1D 7611  10.803   4.234   5.057
  147POPC   C1E 7612  10.835   4.331   4.943
  147POPC   C1F 7613  10.741   4.314   4.822
  147POPC   C1G 7614  10.762   4.181   4.749
  147POPC   C1H 7615  10.675   4.165   4.624
  147POPC   C1I 7616  10.711   4.266   4.514
  147POPC   C1J 7617  10.699   4.235   4.385
  147POPC   C1K 7618  10.650   4.098   4.339
  147POPC   C1L 7619  10.710   4.065   4.203
  147POPC   C1M 7620  10.666   3.927   4.152
  147POPC   C1N 7621  10.740   3.893   4.022
  147POPC   C1O 7622  10.701   3.754   3.972
  147POPC   C1P 7623  10.778   3.709   3.847
  147POPC   C1Q 7624  10.908   3.631   3.875
  147POPC   C1R 7625  11.027   3.717   3.917
  147POPC    CE 7626  10.605   4.713   5.381
  147POPC    OG 7627  10.480   4.745   5.316
  147POPC   C2A 7628  10.447   4.874   5.308
  147POPC    OH 7629  10.507   4.961   5.371
  147POPC   C2B 7630  10.329   4.896   5.223
  147POPC   C2C 7631  10.370   4.914   5.076
  147POPC   C2D 7632  10.249   4.916   4.983
  147POPC   C2E 7633  10.294   4.929   4.837
  147POPC   C2F 7634  10.174   4.922   4.743
  147POPC   C2G 7635  10.217   4.934   4.596
  147POPC   C2H 7636  10.096   4.915   4.504
  147POPC   C2I 7637  10.133   4.921   4.355
  147POPC   C2J 7638  10.167   5.063   4.309
  147POPC   C2K 7639  10.196   5.065   4.159
  147POPC   C2L 7640  10.215   5.208   4.109
  147POPC   C2M 7641  10.244   5.210   3.959
  147POPC   C2N 7642  10.262   5.351   3.903
  147POPC   C2O 7643  10.131   5.430   3.902
  147POPC   C2P 7644  10.151   5.568   3.839
  148POPC   CN1 7645  11.812   3.508   6.306
  148POPC   CN2 7646  11.746   3.335   6.457
  148POPC   CN3 7647  11.605   3.525   6.417
  148POPC   NTM 7648  11.698   3.430   6.355
  148POPC    CA 7649  11.626   3.360   6.246
  148POPC    CB 7650  11.695   3.248   6.164
  148POPC    OA 7651  11.813   3.288   6.095
  148POPC     P 7652  11.914   3.170   6.073
  148POPC    OB 7653  12.042   3.236   6.046
  148POPC    OC 7654  11.901   3.075   6.185
  148POPC    OD 7655  11.851   3.109   5.943
  148POPC    CC 7656  11.924   3.140   5.823
  148POPC    CD 7657  11.868   3.070   5.698
  148POPC    OE 7658  11.960   3.057   5.586
  148POPC   C1A 7659  12.055   2.964   5.589
  148POPC    OF 7660  12.060   2.883   5.682
  148POPC   C1B 7661  12.137   2.959   5.466
  148POPC   C1C 7662  12.095   2.840   5.379
  148POPC   C1D 7663  12.157   2.843   5.239
  148POPC   C1E 7664  12.093   2.949   5.150
  148POPC   C1F 7665  12.140   2.931   5.005
  148POPC   C1G 7666  12.061   3.019   4.908
  148POPC   C1H 7667  12.099   2.993   4.761
  148POPC   C1I 7668  12.062   2.851   4.715
  148POPC   C1J 7669  12.040   2.823   4.587
  148POPC   C1K 7670  12.049   2.932   4.480
  148POPC   C1L 7671  11.966   2.893   4.358
  148POPC   C1M 7672  11.970   3.002   4.251
  148POPC   C1N 7673  11.887   2.961   4.129
  148POPC   C1O 7674  11.886   3.072   4.023
  148POPC   C1P 7675  11.805   3.030   3.901
  148POPC   C1Q 7676  11.803   3.141   3.796
  148POPC   C1R 7677  11.722   3.100   3.673
  148POPC    CE 7678  11.731   3.135   5.668
  148POPC    OG 7679  11.732   3.277   5.651
  148POPC   C2A 7680  11.616   3.341   5.659
  148POPC    OH 7681  11.511   3.282   5.684
  148POPC   C2B 7682  11.629   3.487   5.639
  148POPC   C2C 7683  11.565   3.534   5.508
  148POPC   C2D 7684  11.588   3.684   5.489
  148POPC   C2E 7685  11.513   3.742   5.368
  148POPC   C2F 7686  11.564   3.687   5.235
  148POPC   C2G 7687  11.493   3.756   5.119
  148POPC   C2H 7688  11.540   3.701   4.984
  148POPC   C2I 7689  11.472   3.775   4.870
  148POPC   C2J 7690  11.511   3.718   4.733
  148POPC   C2K 7691  11.431   3.789   4.624
  148POPC   C2L 7692  11.453   3.726   4.487
  148POPC   C2M 7693  11.358   3.785   4.382
  148POPC   C2N 7694  11.212   3.752   4.414
  148POPC   C2O 7695  11.116   3.818   4.315
  148POPC   C2P 7696  10.971   3.790   4.355
  149POPC   CN1 7697  12.264   4.855   5.395
  149POPC   CN2 7698  12.432   4.694   5.449
  149POPC   CN3 7699  12.486   4.926   5.446
  149POPC   NTM 7700  12.381   4.829   5.480
  149POPC    CA 7701  12.348   4.846   5.623
  149POPC    CB 7702  12.235   4.762   5.689
  149POPC    OA 7703  12.256   4.621   5.683
  149POPC     P 7704  12.133   4.541   5.739
  149POPC    OB 7705  12.151   4.544   5.885
  149POPC    OC 7706  12.015   4.597   5.673
  149POPC    OD 7707  12.177   4.402   5.681
  149POPC    CC 7708  12.158   4.396   5.540
  149POPC    CD 7709  12.251   4.293   5.474
  149POPC    OE 7710  12.284   4.325   5.336
  149POPC   C1A 7711  12.399   4.278   5.287
  149POPC    OF 7712  12.490   4.247   5.365
  149POPC   C1B 7713  12.412   4.288   5.140
  149POPC   C1C 7714  12.501   4.403   5.093
  149POPC   C1D 7715  12.429   4.537   5.094
  149POPC   C1E 7716  12.519   4.647   5.037
  149POPC   C1F 7717  12.444   4.778   5.012
  149POPC   C1G 7718  12.339   4.761   4.901
  149POPC   C1H 7719  12.267   4.891   4.864
  149POPC   C1I 7720  12.186   4.953   4.979
  149POPC   C1J 7721  12.148   5.080   4.973
  149POPC   C1K 7722  12.178   5.166   4.850
  149POPC   C1L 7723  12.056   5.181   4.760
  149POPC   C1M 7724  12.094   5.254   4.632
  149POPC   C1N 7725  11.975   5.269   4.537
  149POPC   C1O 7726  12.019   5.339   4.409
  149POPC   C1P 7727  11.903   5.367   4.313
  149POPC   C1Q 7728  11.844   5.238   4.254
  149POPC   C1R 7729  11.732   5.273   4.156
  149POPC    CE 7730  12.188   4.155   5.501
  149POPC    OG 7731  12.065   4.129   5.431
  149POPC   C2A 7732  12.010   4.009   5.448
  149POPC    OH 7733  12.049   3.933   5.537
  149POPC   C2B 7734  11.896   3.981   5.357
  149POPC   C2C 7735  11.944   3.931   5.220
  149POPC   C2D 7736  11.984   4.048   5.130
  149POPC   C2E 7737  12.073   4.005   5.014
  149POPC   C2F 7738  12.103   4.127   4.926
  149POPC   C2G 7739  12.218   4.104   4.829
  149POPC   C2H 7740  12.243   4.232   4.749
  149POPC   C2I 7741  12.374   4.225   4.671
  149POPC   C2J 7742  12.399   4.356   4.596
  149POPC   C2K 7743  12.538   4.357   4.532
  149POPC   C2L 7744  12.564   4.485   4.452
  149POPC   C2M 7745  12.480   4.492   4.324
  149POPC   C2N 7746  12.514   4.617   4.243
  149POPC   C2O 7747  12.431   4.621   4.115
  149POPC   C2P 7748  12.463   4.747   4.034
  150POPC   CN1 7749  13.059   5.559   6.157
  150POPC   CN2 7750  13.035   5.393   6.324
  150POPC   CN3 7751  12.898   5.588   6.331
  150POPC   NTM 7752  12.961   5.490   6.242
  150POPC    CA 7753  12.860   5.414   6.163
  150POPC    CB 7754  12.760   5.486   6.070
  150POPC    OA 7755  12.818   5.565   5.966
  150POPC     P 7756  12.711   5.658   5.897
  150POPC    OB 7757  12.611   5.697   5.997
  150POPC    OC 7758  12.783   5.759   5.819
  150POPC    OD 7759  12.642   5.554   5.803
  150POPC    CC 7760  12.716   5.532   5.683
  150POPC    CD 7761  12.681   5.399   5.614
  150POPC    OE 7762  12.787   5.353   5.526
  150POPC   C1A 7763  12.791   5.225   5.489
  150POPC    OF 7764  12.722   5.141   5.548
  150POPC   C1B 7765  12.902   5.196   5.395
  150POPC   C1C 7766  12.868   5.096   5.284
  150POPC   C1D 7767  12.763   5.149   5.185
  150POPC   C1E 7768  12.774   5.073   5.053
  150POPC   C1F 7769  12.665   5.117   4.953
  150POPC   C1G 7770  12.701   5.071   4.812
  150POPC   C1H 7771  12.590   5.106   4.712
  150POPC   C1I 7772  12.639   5.087   4.568
  150POPC   C1J 7773  12.562   5.033   4.475
  150POPC   C1K 7774  12.420   4.986   4.508
  150POPC   C1L 7775  12.335   4.973   4.382
  150POPC   C1M 7776  12.197   4.915   4.416
  150POPC   C1N 7777  12.115   4.890   4.290
  150POPC   C1O 7778  11.977   4.830   4.322
  150POPC   C1P 7779  11.984   4.688   4.381
  150POPC   C1Q 7780  12.031   4.584   4.279
  150POPC   C1R 7781  12.040   4.445   4.344
  150POPC    CE 7782  12.540   5.415   5.555
  150POPC    OG 7783  12.523   5.518   5.455
  150POPC   C2A 7784  12.427   5.497   5.366
  150POPC    OH 7785  12.371   5.387   5.356
  150POPC   C2B 7786  12.406   5.612   5.274
  150POPC   C2C 7787  12.388   5.569   5.128
  150POPC   C2D 7788  12.519   5.518   5.066
  150POPC   C2E 7789  12.496   5.454   4.929
  150POPC   C2F 7790  12.462   5.553   4.818
  150POPC   C2G 7791  12.435   5.478   4.688
  150POPC   C2H 7792  12.406   5.573   4.572
  150POPC   C2I 7793  12.367   5.500   4.442
  150POPC   C2J 7794  12.480   5.418   4.379
  150POPC   C2K 7795  12.592   5.507   4.325
  150POPC   C2L 7796  12.706   5.428   4.260
  150POPC   C2M 7797  12.664   5.365   4.127
  150POPC   C2N 7798  12.784   5.298   4.059
  150POPC   C2O 7799  12.744   5.239   3.924
  150POPC   C2P 7800  12.866   5.181   3.853
  151POPC   CN1 7801  14.164   4.352   6.019
  151POPC   CN2 7802  14.372   4.445   6.086
  151POPC   CN3 7803  14.364   4.296   5.901
  151POPC   NTM 7804  14.292   4.404   5.970
  151POPC    CA 7805  14.272   4.522   5.883
  151POPC    CB 7806  14.172   4.516   5.765
  151POPC    OA 7807  14.194   4.415   5.665
  151POPC     P 7808  14.058   4.375   5.597
  151POPC    OB 7809  14.087   4.272   5.497
  151POPC    OC 7810  13.965   4.345   5.707
  151POPC    OD 7811  14.021   4.511   5.529
  151POPC    CC 7812  14.074   4.522   5.397
  151POPC    CD 7813  14.057   4.661   5.333
  151POPC    OE 7814  14.072   4.652   5.189
  151POPC   C1A 7815  13.999   4.731   5.111
  151POPC    OF 7816  13.911   4.803   5.158
  151POPC   C1B 7817  14.032   4.706   4.969
  151POPC   C1C 7818  13.927   4.756   4.869
  151POPC   C1D 7819  13.957   4.696   4.732
  151POPC   C1E 7820  13.866   4.755   4.624
  151POPC   C1F 7821  13.870   4.668   4.498
  151POPC   C1G 7822  13.789   4.732   4.386
  151POPC   C1H 7823  13.770   4.640   4.265
  151POPC   C1I 7824  13.900   4.596   4.195
  151POPC   C1J 7825  13.946   4.658   4.087
  151POPC   C1K 7826  13.873   4.777   4.026
  151POPC   C1L 7827  13.902   4.790   3.877
  151POPC   C1M 7828  13.851   4.925   3.825
  151POPC   C1N 7829  13.887   4.945   3.678
  151POPC   C1O 7830  13.860   5.089   3.632
  151POPC   C1P 7831  13.711   5.126   3.633
  151POPC   C1Q 7832  13.686   5.271   3.590
  151POPC   C1R 7833  13.742   5.373   3.691
  151POPC    CE 7834  14.155   4.755   5.407
  151POPC    OG 7835  14.175   4.885   5.347
  151POPC   C2A 7836  14.301   4.920   5.325
  151POPC    OH 7837  14.394   4.870   5.388
  151POPC   C2B 7838  14.313   5.031   5.227
  151POPC   C2C 7839  14.304   4.975   5.085
  151POPC   C2D 7840  14.292   5.083   4.979
  151POPC   C2E 7841  14.253   5.019   4.846
  151POPC   C2F 7842  14.238   5.121   4.733
  151POPC   C2G 7843  14.187   5.060   4.602
  151POPC   C2H 7844  14.278   4.948   4.549
  151POPC   C2I 7845  14.239   4.903   4.408
  151POPC   C2J 7846  14.273   5.010   4.304
  151POPC   C2K 7847  14.240   4.962   4.163
  151POPC   C2L 7848  14.278   5.069   4.060
  151POPC   C2M 7849  14.247   5.026   3.916
  151POPC   C2N 7850  14.333   4.908   3.870
  151POPC   C2O 7851  14.298   4.862   3.728
  151POPC   C2P 7852  14.335   4.967   3.622
  152POPC   CN1 7853  14.987   4.141   6.210
  152POPC   CN2 7854  15.057   4.015   6.397
  152POPC   CN3 7855  15.157   4.225   6.356
  152POPC   NTM 7856  15.030   4.151   6.350
  152POPC    CA 7857  14.927   4.210   6.439
  152POPC    CB 7858  14.877   4.355   6.419
  152POPC    OA 7859  14.805   4.380   6.298
  152POPC     P 7860  14.776   4.534   6.280
  152POPC    OB 7861  14.675   4.561   6.384
  152POPC    OC 7862  14.907   4.599   6.281
  152POPC    OD 7863  14.715   4.527   6.137
  152POPC    CC 7864  14.813   4.498   6.038
  152POPC    CD 7865  14.751   4.446   5.908
  152POPC    OE 7866  14.843   4.364   5.831
  152POPC   C1A 7867  14.794   4.253   5.777
  152POPC    OF 7868  14.693   4.200   5.824
  152POPC   C1B 7869  14.889   4.186   5.685
  152POPC   C1C 7870  14.871   4.229   5.538
  152POPC   C1D 7871  14.738   4.182   5.477
  152POPC   C1E 7872  14.732   4.214   5.327
  152POPC   C1F 7873  14.823   4.121   5.245
  152POPC   C1G 7874  14.834   4.163   5.098
  152POPC   C1H 7875  14.703   4.154   5.020
  152POPC   C1I 7876  14.724   4.192   4.874
  152POPC   C1J 7877  14.641   4.147   4.780
  152POPC   C1K 7878  14.525   4.056   4.821
  152POPC   C1L 7879  14.474   3.971   4.705
  152POPC   C1M 7880  14.362   3.879   4.753
  152POPC   C1N 7881  14.300   3.796   4.640
  152POPC   C1O 7882  14.221   3.883   4.541
  152POPC   C1P 7883  14.147   3.795   4.441
  152POPC   C1Q 7884  14.068   3.881   4.341
  152POPC   C1R 7885  13.985   3.794   4.247
  152POPC    CE 7886  14.691   4.568   5.836
  152POPC    OG 7887  14.604   4.535   5.727
  152POPC   C2A 7888  14.572   4.633   5.643
  152POPC    OH 7889  14.605   4.749   5.666
  152POPC   C2B 7890  14.485   4.587   5.533
  152POPC   C2C 7891  14.559   4.574   5.399
  152POPC   C2D 7892  14.459   4.531   5.292
  152POPC   C2E 7893  14.515   4.533   5.150
  152POPC   C2F 7894  14.403   4.498   5.053
  152POPC   C2G 7895  14.447   4.494   4.907
  152POPC   C2H 7896  14.328   4.454   4.820
  152POPC   C2I 7897  14.367   4.436   4.673
  152POPC   C2J 7898  14.245   4.388   4.593
  152POPC   C2K 7899  14.282   4.358   4.448
  152POPC   C2L 7900  14.161   4.307   4.369
  152POPC   C2M 7901  14.195   4.270   4.225
  152POPC   C2N 7902  14.236   4.391   4.141
  152POPC   C2O 7903  14.263   4.351   3.996
  152POPC   C2P 7904  14.300   4.473   3.911
  153POPC   CN1 7905  15.819   4.490   5.911
  153POPC   CN2 7906  16.008   4.360   5.971
  153POPC   CN3 7907  15.797   4.309   6.067
  153POPC   NTM 7908  15.864   4.354   5.944
  153POPC    CA 7909  15.842   4.260   5.831
  153POPC    CB 7910  15.701   4.236   5.770
  153POPC    OA 7911  15.596   4.197   5.860
  153POPC     P 7912  15.459   4.186   5.783
  153POPC    OB 7913  15.473   4.116   5.656
  153POPC    OC 7914  15.360   4.148   5.885
  153POPC    OD 7915  15.433   4.339   5.764
  153POPC    CC 7916  15.318   4.357   5.679
  153POPC    CD 7917  15.275   4.504   5.663
  153POPC    OE 7918  15.151   4.519   5.588
  153POPC   C1A 7919  15.087   4.635   5.590
  153POPC    OF 7920  15.121   4.724   5.668
  153POPC   C1B 7921  14.975   4.641   5.493
  153POPC   C1C 7922  15.025   4.693   5.358
  153POPC   C1D 7923  14.919   4.681   5.249
  153POPC   C1E 7924  14.975   4.732   5.116
  153POPC   C1F 7925  14.875   4.713   5.001
  153POPC   C1G 7926  14.932   4.770   4.871
  153POPC   C1H 7927  14.838   4.747   4.753
  153POPC   C1I 7928  14.894   4.813   4.626
  153POPC   C1J 7929  14.874   4.758   4.507
  153POPC   C1K 7930  14.794   4.629   4.494
  153POPC   C1L 7931  14.732   4.616   4.354
  153POPC   C1M 7932  14.651   4.487   4.338
  153POPC   C1N 7933  14.739   4.361   4.343
  153POPC   C1O 7934  14.653   4.235   4.332
  153POPC   C1P 7935  14.740   4.109   4.338
  153POPC   C1Q 7936  14.656   3.980   4.334
  153POPC   C1R 7937  14.585   3.960   4.200
  153POPC    CE 7938  15.398   4.577   5.607
  153POPC    OG 7939  15.446   4.532   5.479
  153POPC   C2A 7940  15.564   4.578   5.440
  153POPC    OH 7941  15.638   4.640   5.517
  153POPC   C2B 7942  15.597   4.540   5.301
  153POPC   C2C 7943  15.559   4.653   5.205
  153POPC   C2D 7944  15.579   4.610   5.060
  153POPC   C2E 7945  15.551   4.722   4.960
  153POPC   C2F 7946  15.656   4.833   4.964
  153POPC   C2G 7947  15.631   4.938   4.856
  153POPC   C2H 7948  15.658   4.886   4.714
  153POPC   C2I 7949  15.638   4.998   4.613
  153POPC   C2J 7950  15.676   4.955   4.471
  153POPC   C2K 7951  15.666   5.074   4.376
  153POPC   C2L 7952  15.714   5.039   4.235
  153POPC   C2M 7953  15.712   5.163   4.146
  153POPC   C2N 7954  15.766   5.131   4.006
  153POPC   C2O 7955  15.765   5.256   3.918
  153POPC   C2P 7956  15.818   5.224   3.778
  154POPC   CN1 7957  15.699   5.163   6.391
  154POPC   CN2 7958  15.859   5.313   6.292
  154POPC   CN3 7959  15.900   5.079   6.291
  154POPC   NTM 7960  15.795   5.181   6.281
  154POPC    CA 7961  15.730   5.162   6.150
  154POPC    CB 7962  15.609   5.250   6.108
  154POPC    OA 7963  15.637   5.389   6.097
  154POPC     P 7964  15.532   5.466   6.009
  154POPC    OB 7965  15.401   5.417   6.053
  154POPC    OC 7966  15.576   5.605   6.028
  154POPC    OD 7967  15.570   5.409   5.867
  154POPC    CC 7968  15.700   5.450   5.822
  154POPC    CD 7969  15.739   5.388   5.687
  154POPC    OE 7970  15.881   5.391   5.655
  154POPC   C1A 7971  15.963   5.296   5.700
  154POPC    OF 7972  15.932   5.228   5.799
  154POPC   C1B 7973  16.094   5.299   5.633
  154POPC   C1C 7974  16.211   5.246   5.717
  154POPC   C1D 7975  16.342   5.248   5.639
  154POPC   C1E 7976  16.342   5.149   5.523
  154POPC   C1F 7977  16.468   5.163   5.437
  154POPC   C1G 7978  16.468   5.060   5.323
  154POPC   C1H 7979  16.585   5.075   5.226
  154POPC   C1I 7980  16.722   5.050   5.290
  154POPC   C1J 7981  16.832   5.092   5.227
  154POPC   C1K 7982  16.818   5.162   5.091
  154POPC   C1L 7983  16.928   5.118   4.995
  154POPC   C1M 7984  16.906   5.177   4.856
  154POPC   C1N 7985   0.029   5.127   4.759
  154POPC   C1O 7986   0.004   5.178   4.617
  154POPC   C1P 7987   0.110   5.124   4.521
  154POPC   C1Q 7988   0.083   5.172   4.378
  154POPC   C1R 7989   0.193   5.123   4.283
  154POPC    CE 7990  15.647   5.455   5.584
  154POPC    OG 7991  15.669   5.420   5.447
  154POPC   C2A 7992  15.592   5.476   5.355
  154POPC    OH 7993  15.483   5.526   5.386
  154POPC   C2B 7994  15.641   5.454   5.218
  154POPC   C2C 7995  15.573   5.333   5.153
  154POPC   C2D 7996  15.638   5.292   5.020
  154POPC   C2E 7997  15.626   5.394   4.906
  154POPC   C2F 7998  15.481   5.422   4.864
  154POPC   C2G 7999  15.471   5.487   4.726
  154POPC   C2H 8000  15.503   5.385   4.616
  154POPC   C2I 8001  15.492   5.441   4.474
  154POPC   C2J 8002  15.602   5.541   4.441
  154POPC   C2K 8003  15.606   5.571   4.291
  154POPC   C2L 8004  15.721   5.666   4.258
  154POPC   C2M 8005  15.744   5.676   4.108
  154POPC   C2N 8006  15.865   5.765   4.078
  154POPC   C2O 8007  15.902   5.767   3.930
  154POPC   C2P 8008  15.955   5.632   3.881
  155POPC   CN1 8009   0.731   5.098   6.287
  155POPC   CN2 8010   0.708   5.002   6.503
  155POPC   CN3 8011   0.713   4.860   6.314
  155POPC   NTM 8012   0.769   4.983   6.371
  155POPC    CA 8013   0.915   4.973   6.390
  155POPC    CB 8014   1.010   4.975   6.268
  155POPC    OA 8015   0.985   4.877   6.168
  155POPC     P 8016   1.055   4.923   6.036
  155POPC    OB 8017   0.961   5.020   5.981
  155POPC    OC 8018   1.196   4.950   6.066
  155POPC    OD 8019   1.039   4.787   5.961
  155POPC    CC 8020   1.113   4.798   5.839
  155POPC    CD 8021   1.092   4.681   5.742
  155POPC    OE 8022   1.187   4.678   5.633
  155POPC   C1A 8023   1.242   4.562   5.598
  155POPC    OF 8024   1.222   4.461   5.667
  155POPC   C1B 8025   1.329   4.570   5.479
  155POPC   C1C 8026   1.262   4.509   5.355
  155POPC   C1D 8027   1.349   4.537   5.233
  155POPC   C1E 8028   1.309   4.458   5.107
  155POPC   C1F 8029   1.172   4.493   5.051
  155POPC   C1G 8030   1.156   4.427   4.914
  155POPC   C1H 8031   1.016   4.448   4.854
  155POPC   C1I 8032   1.014   4.401   4.709
  155POPC   C1J 8033   0.905   4.349   4.652
  155POPC   C1K 8034   0.773   4.329   4.728
  155POPC   C1L 8035   0.750   4.180   4.759
  155POPC   C1M 8036   0.609   4.151   4.812
  155POPC   C1N 8037   0.580   4.214   4.948
  155POPC   C1O 8038   0.437   4.180   4.991
  155POPC   C1P 8039   0.397   4.240   5.126
  155POPC   C1Q 8040   0.383   4.393   5.123
  155POPC   C1R 8041   0.267   4.440   5.035
  155POPC    CE 8042   0.944   4.684   5.701
  155POPC    OG 8043   0.896   4.813   5.657
  155POPC   C2A 8044   0.766   4.821   5.629
  155POPC    OH 8045   0.692   4.724   5.639
  155POPC   C2B 8046   0.726   4.956   5.584
  155POPC   C2C 8047   0.724   4.964   5.431
  155POPC   C2D 8048   0.711   5.109   5.385
  155POPC   C2E 8049   0.713   5.117   5.232
  155POPC   C2F 8050   0.733   5.261   5.185
  155POPC   C2G 8051   0.733   5.269   5.033
  155POPC   C2H 8052   0.764   5.412   4.988
  155POPC   C2I 8053   0.753   5.426   4.836
  155POPC   C2J 8054   0.792   5.568   4.794
  155POPC   C2K 8055   0.771   5.591   4.645
  155POPC   C2L 8056   0.816   5.733   4.609
  155POPC   C2M 8057   0.783   5.774   4.465
  155POPC   C2N 8058   0.864   5.698   4.360
  155POPC   C2O 8059   0.835   5.756   4.222
  155POPC   C2P 8060   0.918   5.688   4.113
  156POPC   CN1 8061   1.290   5.852   6.559
  156POPC   CN2 8062   1.341   5.684   6.400
  156POPC   CN3 8063   1.384   5.645   6.633
  156POPC   NTM 8064   1.291   5.706   6.537
  156POPC    CA 8065   1.153   5.656   6.557
  156POPC    CB 8066   1.121   5.505   6.542
  156POPC    OA 8067   1.138   5.453   6.411
  156POPC     P 8068   1.173   5.299   6.415
  156POPC    OB 8069   1.312   5.291   6.465
  156POPC    OC 8070   1.065   5.230   6.487
  156POPC    OD 8071   1.168   5.270   6.261
  156POPC    CC 8072   1.272   5.337   6.189
  156POPC    CD 8073   1.282   5.301   6.039
  156POPC    OE 8074   1.392   5.369   5.970
  156POPC   C1A 8075   1.390   5.500   5.942
  156POPC    OF 8076   1.316   5.578   6.002
  156POPC   C1B 8077   1.494   5.538   5.845
  156POPC   C1C 8078   1.438   5.534   5.702
  156POPC   C1D 8079   1.547   5.559   5.598
  156POPC   C1E 8080   1.488   5.550   5.457
  156POPC   C1F 8081   1.595   5.561   5.348
  156POPC   C1G 8082   1.658   5.700   5.340
  156POPC   C1H 8083   1.759   5.705   5.224
  156POPC   C1I 8084   1.813   5.847   5.204
  156POPC   C1J 8085   1.837   5.890   5.080
  156POPC   C1K 8086   1.812   5.797   4.961
  156POPC   C1L 8087   1.881   5.845   4.833
  156POPC   C1M 8088   1.810   5.967   4.774
  156POPC   C1N 8089   1.883   6.020   4.650
  156POPC   C1O 8090   1.812   6.141   4.590
  156POPC   C1P 8091   1.682   6.102   4.518
  156POPC   C1Q 8092   1.600   6.224   4.474
  156POPC   C1R 8093   1.672   6.312   4.372
  156POPC    CE 8094   1.141   5.315   5.978
  156POPC    OG 8095   1.128   5.280   5.839
  156POPC   C2A 8096   1.013   5.308   5.781
  156POPC    OH 8097   0.920   5.361   5.843
  156POPC   C2B 8098   1.006   5.268   5.638
  156POPC   C2C 8099   0.964   5.385   5.548
  156POPC   C2D 8100   1.074   5.491   5.540
  156POPC   C2E 8101   1.026   5.623   5.480
  156POPC   C2F 8102   1.004   5.621   5.329
  156POPC   C2G 8103   0.971   5.763   5.284
  156POPC   C2H 8104   0.958   5.777   5.133
  156POPC   C2I 8105   0.934   5.924   5.097
  156POPC   C2J 8106   0.921   5.945   4.947
  156POPC   C2K 8107   0.897   6.093   4.916
  156POPC   C2L 8108   0.873   6.116   4.767
  156POPC   C2M 8109   0.837   6.262   4.740
  156POPC   C2N 8110   0.798   6.282   4.593
  156POPC   C2O 8111   0.750   6.425   4.568
  156POPC   C2P 8112   0.706   6.443   4.423
  157POPC   CN1 8113   1.649   5.133   6.155
  157POPC   CN2 8114   1.869   5.079   6.081
  157POPC   CN3 8115   1.754   5.267   5.989
  157POPC   NTM 8116   1.777   5.189   6.112
  157POPC    CA 8117   1.826   5.278   6.220
  157POPC    CB 8118   1.974   5.325   6.224
  157POPC    OA 8119   2.031   5.374   6.103
  157POPC     P 8120   2.175   5.434   6.126
  157POPC    OB 8121   2.197   5.545   6.032
  157POPC    OC 8122   2.201   5.452   6.269
  157POPC    OD 8123   2.256   5.305   6.083
  157POPC    CC 8124   2.296   5.311   5.946
  157POPC    CD 8125   2.421   5.228   5.913
  157POPC    OE 8126   2.493   5.276   5.796
  157POPC   C1A 8127   2.580   5.376   5.808
  157POPC    OF 8128   2.614   5.418   5.918
  157POPC   C1B 8129   2.638   5.420   5.679
  157POPC   C1C 8130   2.559   5.536   5.616
  157POPC   C1D 8131   2.438   5.487   5.537
  157POPC   C1E 8132   2.363   5.604   5.474
  157POPC   C1F 8133   2.257   5.557   5.374
  157POPC   C1G 8134   2.323   5.496   5.249
  157POPC   C1H 8135   2.221   5.444   5.146
  157POPC   C1I 8136   2.145   5.556   5.075
  157POPC   C1J 8137   2.118   5.544   4.946
  157POPC   C1K 8138   2.165   5.419   4.870
  157POPC   C1L 8139   2.097   5.400   4.734
  157POPC   C1M 8140   2.136   5.510   4.635
  157POPC   C1N 8141   2.076   5.484   4.496
  157POPC   C1O 8142   2.109   5.597   4.397
  157POPC   C1P 8143   2.258   5.611   4.365
  157POPC   C1Q 8144   2.313   5.492   4.286
  157POPC   C1R 8145   2.462   5.509   4.258
  157POPC    CE 8146   2.380   5.080   5.913
  157POPC    OG 8147   2.283   5.042   5.813
  157POPC   C2A 8148   2.260   4.911   5.800
  157POPC    OH 8149   2.295   4.830   5.886
  157POPC   C2B 8150   2.180   4.879   5.679
  157POPC   C2C 8151   2.032   4.856   5.710
  157POPC   C2D 8152   1.958   4.816   5.583
  157POPC   C2E 8153   1.811   4.786   5.613
  157POPC   C2F 8154   1.732   4.741   5.489
  157POPC   C2G 8155   1.715   4.853   5.386
  157POPC   C2H 8156   1.632   4.805   5.267
  157POPC   C2I 8157   1.610   4.920   5.168
  157POPC   C2J 8158   1.524   4.881   5.047
  157POPC   C2K 8159   1.590   4.777   4.957
  157POPC   C2L 8160   1.508   4.758   4.829
  157POPC   C2M 8161   1.572   4.654   4.737
  157POPC   C2N 8162   1.503   4.647   4.601
  157POPC   C2O 8163   1.359   4.596   4.610
  157POPC   C2P 8164   1.291   4.594   4.473
  158POPC   CN1 8165   2.803   5.604   6.107
  158POPC   CN2 8166   2.874   5.647   5.882
  158POPC   CN3 8167   2.674   5.743   5.966
  158POPC   NTM 8168   2.811   5.706   6.002
  158POPC    CA 8169   2.883   5.828   6.048
  158POPC    CB 8170   3.035   5.823   6.074
  158POPC    OA 8171   3.078   5.719   6.163
  158POPC     P 8172   3.234   5.705   6.167
  158POPC    OB 8173   3.291   5.840   6.166
  158POPC    OC 8174   3.257   5.614   6.280
  158POPC    OD 8175   3.257   5.634   6.029
  158POPC    CC 8176   3.235   5.494   6.041
  158POPC    CD 8177   3.231   5.416   5.910
  158POPC    OE 8178   3.146   5.298   5.919
  158POPC   C1A 8179   3.055   5.284   5.822
  158POPC    OF 8180   3.011   5.385   5.766
  158POPC   C1B 8181   2.997   5.148   5.817
  158POPC   C1C 8182   2.963   5.107   5.674
  158POPC   C1D 8183   2.932   4.958   5.661
  158POPC   C1E 8184   2.806   4.913   5.737
  158POPC   C1F 8185   2.675   4.960   5.672
  158POPC   C1G 8186   2.650   4.894   5.536
  158POPC   C1H 8187   2.515   4.933   5.476
  158POPC   C1I 8188   2.508   5.080   5.433
  158POPC   C1J 8189   2.423   5.118   5.339
  158POPC   C1K 8190   2.330   5.014   5.274
  158POPC   C1L 8191   2.295   5.056   5.131
  158POPC   C1M 8192   2.195   4.959   5.068
  158POPC   C1N 8193   2.156   5.008   4.928
  158POPC   C1O 8194   2.047   4.919   4.867
  158POPC   C1P 8195   2.004   4.975   4.732
  158POPC   C1Q 8196   1.894   4.889   4.670
  158POPC   C1R 8197   1.849   4.946   4.535
  158POPC    CE 8198   3.378   5.393   5.869
  158POPC    OG 8199   3.403   5.340   5.737
  158POPC   C2A 8200   3.423   5.428   5.640
  158POPC    OH 8201   3.420   5.549   5.661
  158POPC   C2B 8202   3.459   5.367   5.510
  158POPC   C2C 8203   3.612   5.356   5.498
  158POPC   C2D 8204   3.660   5.300   5.364
  158POPC   C2E 8205   3.631   5.391   5.245
  158POPC   C2F 8206   3.705   5.336   5.123
  158POPC   C2G 8207   3.678   5.411   4.992
  158POPC   C2H 8208   3.535   5.387   4.941
  158POPC   C2I 8209   3.519   5.423   4.793
  158POPC   C2J 8210   3.601   5.329   4.703
  158POPC   C2K 8211   3.560   5.337   4.556
  158POPC   C2L 8212   3.596   5.469   4.488
  158POPC   C2M 8213   3.544   5.467   4.344
  158POPC   C2N 8214   3.584   5.594   4.268
  158POPC   C2O 8215   3.528   5.596   4.126
  158POPC   C2P 8216   3.588   5.488   4.036
  159POPC   CN1 8217   3.307   4.971   6.377
  159POPC   CN2 8218   3.305   5.126   6.201
  159POPC   CN3 8219   3.363   5.196   6.424
  159POPC   NTM 8220   3.376   5.089   6.324
  159POPC    CA 8221   3.519   5.056   6.298
  159POPC    CB 8222   3.619   5.168   6.261
  159POPC    OA 8223   3.578   5.257   6.157
  159POPC     P 8224   3.666   5.388   6.154
  159POPC    OB 8225   3.585   5.487   6.080
  159POPC    OC 8226   3.715   5.418   6.289
  159POPC    OD 8227   3.787   5.340   6.066
  159POPC    CC 8228   3.760   5.347   5.926
  159POPC    CD 8229   3.887   5.356   5.840
  159POPC    OE 8230   3.874   5.434   5.719
  159POPC   C1A 8231   3.875   5.567   5.723
  159POPC    OF 8232   3.883   5.629   5.830
  159POPC   C1B 8233   3.852   5.626   5.589
  159POPC   C1C 8234   3.928   5.757   5.565
  159POPC   C1D 8235   3.885   5.824   5.434
  159POPC   C1E 8236   3.926   5.746   5.309
  159POPC   C1F 8237   3.868   5.811   5.183
  159POPC   C1G 8238   3.915   5.737   5.058
  159POPC   C1H 8239   3.851   5.793   4.931
  159POPC   C1I 8240   3.905   5.720   4.808
  159POPC   C1J 8241   3.889   5.768   4.685
  159POPC   C1K 8242   3.813   5.898   4.657
  159POPC   C1L 8243   3.744   5.887   4.520
  159POPC   C1M 8244   3.663   6.012   4.484
  159POPC   C1N 8245   3.587   5.987   4.353
  159POPC   C1O 8246   3.497   6.104   4.311
  159POPC   C1P 8247   3.578   6.222   4.258
  159POPC   C1Q 8248   3.485   6.335   4.211
  159POPC   C1R 8249   3.565   6.452   4.155
  159POPC    CE 8250   3.943   5.213   5.824
  159POPC    OG 8251   3.862   5.121   5.748
  159POPC   C2A 8252   3.921   5.009   5.707
  159POPC    OH 8253   4.034   4.978   5.746
  159POPC   C2B 8254   3.838   4.930   5.614
  159POPC   C2C 8255   3.867   4.970   5.469
  159POPC   C2D 8256   3.775   4.900   5.370
  159POPC   C2E 8257   3.804   4.951   5.229
  159POPC   C2F 8258   3.708   4.892   5.124
  159POPC   C2G 8259   3.739   4.951   4.986
  159POPC   C2H 8260   3.649   4.891   4.878
  159POPC   C2I 8261   3.687   4.947   4.741
  159POPC   C2J 8262   3.609   4.883   4.625
  159POPC   C2K 8263   3.638   4.733   4.612
  159POPC   C2L 8264   3.577   4.670   4.487
  159POPC   C2M 8265   3.646   4.717   4.359
  159POPC   C2N 8266   3.594   4.640   4.238
  159POPC   C2O 8267   3.663   4.687   4.109
  159POPC   C2P 8268   3.612   4.607   3.989
  160POPC   CN1 8269   4.072   5.547   6.107
  160POPC   CN2 8270   4.175   5.722   6.234
  160POPC   CN3 8271   3.951   5.746   6.161
  160POPC   NTM 8272   4.050   5.649   6.211
  160POPC    CA 8273   3.995   5.588   6.335
  160POPC    CB 8274   4.074   5.477   6.409
  160POPC    OA 8275   4.202   5.514   6.463
  160POPC     P 8276   4.294   5.389   6.491
  160POPC    OB 8277   4.406   5.440   6.572
  160POPC    OC 8278   4.209   5.278   6.535
  160POPC    OD 8279   4.337   5.366   6.342
  160POPC    CC 8280   4.443   5.452   6.300
  160POPC    CD 8281   4.485   5.440   6.152
  160POPC    OE 8282   4.399   5.514   6.060
  160POPC   C1A 8283   4.461   5.574   5.959
  160POPC    OF 8284   4.569   5.631   5.981
  160POPC   C1B 8285   4.372   5.603   5.844
  160POPC   C1C 8286   4.364   5.481   5.751
  160POPC   C1D 8287   4.274   5.505   5.630
  160POPC   C1E 8288   4.271   5.380   5.542
  160POPC   C1F 8289   4.186   5.401   5.416
  160POPC   C1G 8290   4.190   5.276   5.328
  160POPC   C1H 8291   4.108   5.296   5.200
  160POPC   C1I 8292   4.113   5.171   5.112
  160POPC   C1J 8293   4.092   5.180   4.981
  160POPC   C1K 8294   4.062   5.316   4.916
  160POPC   C1L 8295   4.096   5.321   4.767
  160POPC   C1M 8296   4.003   5.235   4.681
  160POPC   C1N 8297   4.038   5.246   4.533
  160POPC   C1O 8298   3.945   5.162   4.447
  160POPC   C1P 8299   3.981   5.173   4.299
  160POPC   C1Q 8300   3.893   5.087   4.209
  160POPC   C1R 8301   3.748   5.137   4.204
  160POPC    CE 8302   4.497   5.288   6.128
  160POPC    OG 8303   4.538   5.238   5.999
  160POPC   C2A 8304   4.558   5.107   5.993
  160POPC    OH 8305   4.554   5.037   6.094
  160POPC   C2B 8306   4.592   5.059   5.856
  160POPC   C2C 8307   4.570   4.909   5.840
  160POPC   C2D 8308   4.591   4.860   5.696
  160POPC   C2E 8309   4.479   4.905   5.602
  160POPC   C2F 8310   4.496   4.846   5.462
  160POPC   C2G 8311   4.616   4.907   5.388
  160POPC   C2H 8312   4.648   4.835   5.257
  160POPC   C2I 8313   4.539   4.850   5.151
  160POPC   C2J 8314   4.580   4.780   5.022
  160POPC   C2K 8315   4.467   4.786   4.919
  160POPC   C2L 8316   4.499   4.709   4.790
  160POPC   C2M 8317   4.610   4.775   4.708
  160POPC   C2N 8318   4.637   4.698   4.578
  160POPC   C2O 8319   4.517   4.700   4.483
  160POPC   C2P 8320   4.548   4.624   4.354
  161POPC   CN1 8321   5.501   5.588   6.498
  161POPC   CN2 8322   5.673   5.709   6.382
  161POPC   CN3 8323   5.671   5.701   6.619
  161POPC   NTM 8324   5.644   5.623   6.498
  161POPC    CA 8325   5.729   5.501   6.502
  161POPC    CB 8326   5.748   5.416   6.374
  161POPC    OA 8327   5.631   5.377   6.301
  161POPC     P 8328   5.671   5.309   6.164
  161POPC    OB 8329   5.793   5.231   6.187
  161POPC    OC 8330   5.545   5.251   6.117
  161POPC    OD 8331   5.706   5.441   6.086
  161POPC    CC 8332   5.612   5.473   5.983
  161POPC    CD 8333   5.658   5.588   5.891
  161POPC    OE 8334   5.563   5.630   5.789
  161POPC   C1A 8335   5.454   5.701   5.816
  161POPC    OF 8336   5.412   5.711   5.932
  161POPC   C1B 8337   5.391   5.749   5.691
  161POPC   C1C 8338   5.244   5.791   5.703
  161POPC   C1D 8339   5.198   5.844   5.567
  161POPC   C1E 8340   5.061   5.913   5.575
  161POPC   C1F 8341   5.021   5.977   5.442
  161POPC   C1G 8342   4.983   5.873   5.336
  161POPC   C1H 8343   4.957   5.938   5.200
  161POPC   C1I 8344   4.910   5.834   5.099
  161POPC   C1J 8345   4.945   5.842   4.971
  161POPC   C1K 8346   5.037   5.955   4.924
  161POPC   C1L 8347   5.084   5.939   4.779
  161POPC   C1M 8348   5.178   5.820   4.758
  161POPC   C1N 8349   5.218   5.809   4.611
  161POPC   C1O 8350   5.306   5.687   4.586
  161POPC   C1P 8351   5.336   5.674   4.436
  161POPC   C1Q 8352   5.419   5.550   4.402
  161POPC   C1R 8353   5.563   5.561   4.452
  161POPC    CE 8354   5.791   5.541   5.829
  161POPC    OG 8355   5.783   5.423   5.747
  161POPC   C2A 8356   5.896   5.381   5.692
  161POPC    OH 8357   6.005   5.425   5.729
  161POPC   C2B 8358   5.879   5.272   5.593
  161POPC   C2C 8359   5.887   5.328   5.451
  161POPC   C2D 8360   5.867   5.218   5.346
  161POPC   C2E 8361   5.891   5.275   5.206
  161POPC   C2F 8362   5.865   5.170   5.098
  161POPC   C2G 8363   5.895   5.228   4.959
  161POPC   C2H 8364   5.855   5.130   4.849
  161POPC   C2I 8365   5.882   5.191   4.712
  161POPC   C2J 8366   5.827   5.103   4.599
  161POPC   C2K 8367   5.853   5.169   4.464
  161POPC   C2L 8368   5.789   5.089   4.350
  161POPC   C2M 8369   5.817   5.152   4.213
  161POPC   C2N 8370   5.754   5.291   4.197
  161POPC   C2O 8371   5.783   5.354   4.061
  161POPC   C2P 8372   5.710   5.282   3.947
  162POPC   CN1 8373   7.197   5.405   6.460
  162POPC   CN2 8374   6.990   5.439   6.573
  162POPC   CN3 8375   7.164   5.599   6.596
  162POPC   NTM 8376   7.099   5.507   6.502
  162POPC    CA 8377   7.040   5.582   6.388
  162POPC    CB 8378   7.132   5.659   6.290
  162POPC    OA 8379   7.215   5.576   6.211
  162POPC     P 8380   7.307   5.661   6.116
  162POPC    OB 8381   7.357   5.780   6.186
  162POPC    OC 8382   7.400   5.567   6.053
  162POPC    OD 8383   7.202   5.713   6.012
  162POPC    CC 8384   7.175   5.621   5.907
  162POPC    CD 8385   7.069   5.671   5.807
  162POPC    OE 8386   7.021   5.573   5.711
  162POPC   C1A 8387   6.940   5.474   5.751
  162POPC    OF 8388   6.909   5.462   5.870
  162POPC   C1B 8389   6.894   5.389   5.640
  162POPC   C1C 8390   6.911   5.240   5.672
  162POPC   C1D 8391   6.846   5.154   5.564
  162POPC   C1E 8392   6.870   5.006   5.592
  162POPC   C1F 8393   6.804   4.918   5.486
  162POPC   C1G 8394   6.838   4.772   5.510
  162POPC   C1H 8395   6.775   4.681   5.403
  162POPC   C1I 8396   6.819   4.537   5.426
  162POPC   C1J 8397   6.817   4.450   5.325
  162POPC   C1K 8398   6.772   4.493   5.186
  162POPC   C1L 8399   6.830   4.400   5.079
  162POPC   C1M 8400   6.779   4.436   4.940
  162POPC   C1N 8401   6.827   4.334   4.838
  162POPC   C1O 8402   6.771   4.363   4.698
  162POPC   C1P 8403   6.810   4.255   4.597
  162POPC   C1Q 8404   6.960   4.251   4.568
  162POPC   C1R 8405   6.993   4.143   4.464
  162POPC    CE 8406   7.121   5.802   5.747
  162POPC    OG 8407   7.260   5.807   5.709
  162POPC   C2A 8408   7.308   5.925   5.672
  162POPC    OH 8409   7.234   6.024   5.659
  162POPC   C2B 8410   7.455   5.926   5.653
  162POPC   C2C 8411   7.501   5.903   5.509
  162POPC   C2D 8412   7.484   5.758   5.460
  162POPC   C2E 8413   7.520   5.747   5.312
  162POPC   C2F 8414   7.493   5.606   5.260
  162POPC   C2G 8415   7.498   5.603   5.107
  162POPC   C2H 8416   7.447   5.469   5.054
  162POPC   C2I 8417   7.431   5.473   4.902
  162POPC   C2J 8418   7.355   5.351   4.850
  162POPC   C2K 8419   7.331   5.365   4.700
  162POPC   C2L 8420   7.242   5.252   4.647
  162POPC   C2M 8421   7.218   5.270   4.497
  162POPC   C2N 8422   7.121   5.165   4.443
  162POPC   C2O 8423   7.096   5.186   4.294
  162POPC   C2P 8424   6.990   5.089   4.242
  163POPC   CN1 8425   8.202   5.124   6.024
  163POPC   CN2 8426   8.090   5.326   6.077
  163POPC   CN3 8427   7.996   5.175   5.918
  163POPC   NTM 8428   8.070   5.184   6.044
  163POPC    CA 8429   8.002   5.111   6.154
  163POPC    CB 8430   7.856   5.147   6.192
  163POPC    OA 8431   7.835   5.282   6.233
  163POPC     P 8432   7.682   5.322   6.236
  163POPC    OB 8433   7.618   5.209   6.304
  163POPC    OC 8434   7.687   5.455   6.296
  163POPC    OD 8435   7.658   5.324   6.080
  163POPC    CC 8436   7.691   5.451   6.022
  163POPC    CD 8437   7.683   5.455   5.868
  163POPC    OE 8438   7.743   5.574   5.809
  163POPC   C1A 8439   7.874   5.576   5.788
  163POPC    OF 8440   7.948   5.502   5.855
  163POPC   C1B 8441   7.920   5.694   5.712
  163POPC   C1C 8442   8.035   5.656   5.618
  163POPC   C1D 8443   8.108   5.779   5.562
  163POPC   C1E 8444   8.220   5.735   5.468
  163POPC   C1F 8445   8.323   5.846   5.445
  163POPC   C1G 8446   8.274   5.965   5.362
  163POPC   C1H 8447   8.276   5.936   5.211
  163POPC   C1I 8448   8.247   6.064   5.133
  163POPC   C1J 8449   8.224   6.059   5.002
  163POPC   C1K 8450   8.227   5.926   4.926
  163POPC   C1L 8451   8.143   5.930   4.798
  163POPC   C1M 8452   8.206   6.019   4.690
  163POPC   C1N 8453   8.118   6.029   4.564
  163POPC   C1O 8454   7.989   6.107   4.589
  163POPC   C1P 8455   7.901   6.117   4.464
  163POPC   C1Q 8456   7.966   6.199   4.352
  163POPC   C1R 8457   7.877   6.203   4.228
  163POPC    CE 8458   7.535   5.426   5.836
  163POPC    OG 8459   7.497   5.408   5.698
  163POPC   C2A 8460   7.372   5.368   5.676
  163POPC    OH 8461   7.304   5.316   5.764
  163POPC   C2B 8462   7.337   5.379   5.533
  163POPC   C2C 8463   7.273   5.253   5.474
  163POPC   C2D 8464   7.281   5.264   5.321
  163POPC   C2E 8465   7.221   5.146   5.244
  163POPC   C2F 8466   7.069   5.154   5.234
  163POPC   C2G 8467   7.019   5.049   5.135
  163POPC   C2H 8468   6.867   5.052   5.118
  163POPC   C2I 8469   6.826   4.946   5.016
  163POPC   C2J 8470   6.674   4.941   4.998
  163POPC   C2K 8471   6.633   4.838   4.893
  163POPC   C2L 8472   6.675   4.879   4.751
  163POPC   C2M 8473   6.637   4.771   4.650
  163POPC   C2N 8474   6.674   4.814   4.508
  163POPC   C2O 8475   6.644   4.706   4.404
  163POPC   C2P 8476   6.494   4.678   4.389
  164POPC   CN1 8477   7.318   5.191   6.115
  164POPC   CN2 8478   7.113   5.273   6.027
  164POPC   CN3 8479   7.208   5.077   5.937
  164POPC   NTM 8480   7.187   5.151   6.061
  164POPC    CA 8481   7.106   5.073   6.158
  164POPC    CB 8482   7.153   4.935   6.209
  164POPC    OA 8483   7.277   4.935   6.279
  164POPC     P 8484   7.317   4.796   6.337
  164POPC    OB 8485   7.412   4.817   6.448
  164POPC    OC 8486   7.200   4.709   6.355
  164POPC    OD 8487   7.393   4.738   6.212
  164POPC    CC 8488   7.522   4.799   6.197
  164POPC    CD 8489   7.590   4.779   6.061
  164POPC    OE 8490   7.563   4.885   5.966
  164POPC   C1A 8491   7.668   4.943   5.910
  164POPC    OF 8492   7.783   4.920   5.950
  164POPC   C1B 8493   7.634   5.037   5.800
  164POPC   C1C 8494   7.639   4.966   5.665
  164POPC   C1D 8495   7.627   5.062   5.546
  164POPC   C1E 8496   7.747   5.156   5.535
  164POPC   C1F 8497   7.738   5.243   5.410
  164POPC   C1G 8498   7.858   5.337   5.401
  164POPC   C1H 8499   7.855   5.418   5.271
  164POPC   C1I 8500   7.972   5.516   5.265
  164POPC   C1J 8501   8.027   5.550   5.149
  164POPC   C1K 8502   7.975   5.489   5.019
  164POPC   C1L 8503   8.081   5.493   4.909
  164POPC   C1M 8504   8.031   5.424   4.782
  164POPC   C1N 8505   8.137   5.428   4.672
  164POPC   C1O 8506   8.097   5.347   4.549
  164POPC   C1P 8507   7.979   5.409   4.472
  164POPC   C1Q 8508   7.946   5.324   4.350
  164POPC   C1R 8509   7.834   5.386   4.266
  164POPC    CE 8510   7.564   4.634   6.016
  164POPC    OG 8511   7.636   4.589   5.899
  164POPC   C2A 8512   7.589   4.480   5.838
  164POPC    OH 8513   7.489   4.420   5.879
  164POPC   C2B 8514   7.665   4.444   5.716
  164POPC   C2C 8515   7.606   4.516   5.595
  164POPC   C2D 8516   7.669   4.472   5.463
  164POPC   C2E 8517   7.608   4.553   5.349
  164POPC   C2F 8518   7.655   4.509   5.211
  164POPC   C2G 8519   7.593   4.603   5.107
  164POPC   C2H 8520   7.632   4.571   4.963
  164POPC   C2I 8521   7.587   4.687   4.875
  164POPC   C2J 8522   7.625   4.671   4.728
  164POPC   C2K 8523   7.525   4.588   4.648
  164POPC   C2L 8524   7.562   4.595   4.500
  164POPC   C2M 8525   7.457   4.534   4.408
  164POPC   C2N 8526   7.498   4.554   4.262
  164POPC   C2O 8527   7.391   4.503   4.165
  164POPC   C2P 8528   7.434   4.525   4.020
  165POPC   CN1 8529   8.811   4.377   6.205
  165POPC   CN2 8530   8.724   4.227   6.045
  165POPC   CN3 8531   8.851   4.416   5.974
  165POPC   NTM 8532   8.840   4.312   6.077
  165POPC    CA 8533   8.966   4.236   6.092
  165POPC    CB 8534   9.024   4.154   5.974
  165POPC    OA 8535   8.935   4.053   5.926
  165POPC     P 8536   8.990   3.970   5.805
  165POPC    OB 8537   9.136   3.960   5.816
  165POPC    OC 8538   8.899   3.854   5.799
  165POPC    OD 8539   8.957   4.075   5.693
  165POPC    CC 8540   8.820   4.075   5.653
  165POPC    CD 8541   8.780   4.200   5.573
  165POPC    OE 8542   8.643   4.191   5.525
  165POPC   C1A 8543   8.570   4.302   5.524
  165POPC    OF 8544   8.594   4.393   5.604
  165POPC   C1B 8545   8.445   4.288   5.445
  165POPC   C1C 8546   8.460   4.349   5.305
  165POPC   C1D 8547   8.339   4.317   5.218
  165POPC   C1E 8548   8.343   4.396   5.087
  165POPC   C1F 8549   8.229   4.355   4.992
  165POPC   C1G 8550   8.231   4.444   4.868
  165POPC   C1H 8551   8.135   4.398   4.757
  165POPC   C1I 8552   7.987   4.412   4.793
  165POPC   C1J 8553   7.895   4.361   4.711
  165POPC   C1K 8554   7.941   4.288   4.584
  165POPC   C1L 8555   7.841   4.309   4.470
  165POPC   C1M 8556   7.895   4.248   4.340
  165POPC   C1N 8557   7.814   4.297   4.220
  165POPC   C1O 8558   7.880   4.253   4.089
  165POPC   C1P 8559   7.820   4.329   3.971
  165POPC   C1Q 8560   7.895   4.295   3.842
  165POPC   C1R 8561   7.850   4.386   3.727
  165POPC    CE 8562   8.885   4.213   5.461
  165POPC    OG 8563   8.879   4.329   5.377
  165POPC   C2A 8564   8.985   4.350   5.300
  165POPC    OH 8565   9.081   4.272   5.300
  165POPC   C2B 8566   8.974   4.471   5.215
  165POPC   C2C 8567   9.111   4.536   5.195
  165POPC   C2D 8568   9.105   4.658   5.102
  165POPC   C2E 8569   9.243   4.723   5.093
  165POPC   C2F 8570   9.243   4.839   4.994
  165POPC   C2G 8571   9.382   4.901   4.981
  165POPC   C2H 8572   9.384   5.007   4.870
  165POPC   C2I 8573   9.373   4.944   4.731
  165POPC   C2J 8574   9.334   5.044   4.622
  165POPC   C2K 8575   9.191   5.095   4.643
  165POPC   C2L 8576   9.137   5.175   4.525
  165POPC   C2M 8577   9.114   5.087   4.401
  165POPC   C2N 8578   9.036   5.160   4.291
  165POPC   C2O 8579   9.111   5.280   4.234
  165POPC   C2P 8580   9.025   5.353   4.130
  166POPC   CN1 8581   9.548   4.413   5.961
  166POPC   CN2 8582   9.590   4.456   5.733
  166POPC   CN3 8583   9.759   4.501   5.896
  166POPC   NTM 8584   9.652   4.408   5.857
  166POPC    CA 8585   9.700   4.268   5.847
  166POPC    CB 8586   9.814   4.231   5.749
  166POPC    OA 8587   9.786   4.259   5.612
  166POPC     P 8588   9.911   4.232   5.520
  166POPC    OB 8589   9.987   4.119   5.575
  166POPC    OC 8590   9.859   4.231   5.383
  166POPC    OD 8591   9.991   4.365   5.549
  166POPC    CC 8592   9.932   4.476   5.481
  166POPC    CD 8593  10.011   4.608   5.494
  166POPC    OE 8594   9.935   4.721   5.445
  166POPC   C1A 8595   9.982   4.845   5.456
  166POPC    OF 8596  10.082   4.868   5.526
  166POPC   C1B 8597   9.900   4.948   5.389
  166POPC   C1C 8598   9.933   4.954   5.239
  166POPC   C1D 8599   9.847   5.056   5.164
  166POPC   C1E 8600   9.868   5.037   5.014
  166POPC   C1F 8601   9.795   5.143   4.931
  166POPC   C1G 8602   9.813   5.113   4.782
  166POPC   C1H 8603   9.758   5.226   4.695
  166POPC   C1I 8604   9.772   5.192   4.546
  166POPC   C1J 8605   9.809   5.285   4.459
  166POPC   C1K 8606   9.842   5.427   4.509
  166POPC   C1L 8607   9.943   5.501   4.421
  166POPC   C1M 8608  10.084   5.438   4.418
  166POPC   C1N 8609  10.150   5.435   4.556
  166POPC   C1O 8610  10.286   5.366   4.551
  166POPC   C1P 8611  10.344   5.352   4.692
  166POPC   C1Q 8612  10.479   5.281   4.688
  166POPC   C1R 8613  10.536   5.266   4.830
  166POPC    CE 8614  10.147   4.581   5.426
  166POPC    OG 8615  10.140   4.542   5.288
  166POPC   C2A 8616  10.245   4.479   5.238
  166POPC    OH 8617  10.326   4.424   5.314
  166POPC   C2B 8618  10.234   4.453   5.093
  166POPC   C2C 8619  10.370   4.457   5.023
  166POPC   C2D 8620  10.363   4.402   4.880
  166POPC   C2E 8621  10.277   4.487   4.786
  166POPC   C2F 8622  10.273   4.423   4.647
  166POPC   C2G 8623  10.185   4.505   4.553
  166POPC   C2H 8624  10.181   4.441   4.414
  166POPC   C2I 8625  10.095   4.525   4.319
  166POPC   C2J 8626  10.095   4.464   4.178
  166POPC   C2K 8627  10.020   4.554   4.079
  166POPC   C2L 8628  10.025   4.492   3.940
  166POPC   C2M 8629   9.954   4.579   3.836
  166POPC   C2N 8630   9.961   4.511   3.699
  166POPC   C2O 8631   9.885   4.591   3.593
  166POPC   C2P 8632   9.893   4.523   3.457
  167POPC   CN1 8633  10.980   4.988   6.129
  167POPC   CN2 8634  10.989   5.098   5.918
  167POPC   CN3 8635  11.177   4.973   5.993
  167POPC   NTM 8636  11.030   4.978   5.992
  167POPC    CA 8637  10.970   4.862   5.922
  167POPC    CB 8638  10.983   4.718   5.978
  167POPC    OA 8639  11.117   4.671   5.987
  167POPC     P 8640  11.128   4.525   6.044
  167POPC    OB 8641  11.273   4.505   6.059
  167POPC    OC 8642  11.035   4.519   6.158
  167POPC    OD 8643  11.070   4.449   5.918
  167POPC    CC 8644  11.171   4.432   5.817
  167POPC    CD 8645  11.125   4.352   5.694
  167POPC    OE 8646  11.235   4.293   5.618
  167POPC   C1A 8647  11.209   4.196   5.530
  167POPC    OF 8648  11.102   4.136   5.535
  167POPC   C1B 8649  11.327   4.149   5.454
  167POPC   C1C 8650  11.356   4.232   5.330
  167POPC   C1D 8651  11.458   4.159   5.241
  167POPC   C1E 8652  11.506   4.246   5.125
  167POPC   C1F 8653  11.578   4.160   5.021
  167POPC   C1G 8654  11.645   4.248   4.915
  167POPC   C1H 8655  11.694   4.163   4.797
  167POPC   C1I 8656  11.789   4.245   4.709
  167POPC   C1J 8657  11.785   4.237   4.576
  167POPC   C1K 8658  11.680   4.153   4.504
  167POPC   C1L 8659  11.667   4.200   4.359
  167POPC   C1M 8660  11.558   4.124   4.283
  167POPC   C1N 8661  11.557   4.166   4.136
  167POPC   C1O 8662  11.442   4.101   4.057
  167POPC   C1P 8663  11.306   4.160   4.095
  167POPC   C1Q 8664  11.194   4.099   4.011
  167POPC   C1R 8665  11.060   4.163   4.047
  167POPC    CE 8666  11.024   4.443   5.621
  167POPC    OG 8667  11.073   4.571   5.579
  167POPC   C2A 8668  10.989   4.674   5.590
  167POPC    OH 8669  10.885   4.664   5.654
  167POPC   C2B 8670  11.044   4.801   5.537
  167POPC   C2C 8671  10.991   4.829   5.397
  167POPC   C2D 8672  11.040   4.965   5.346
  167POPC   C2E 8673  10.984   4.995   5.207
  167POPC   C2F 8674  10.833   5.018   5.210
  167POPC   C2G 8675  10.774   5.033   5.070
  167POPC   C2H 8676  10.774   4.901   4.994
  167POPC   C2I 8677  10.721   4.921   4.852
  167POPC   C2J 8678  10.711   4.789   4.775
  167POPC   C2K 8679  10.663   4.817   4.633
  167POPC   C2L 8680  10.651   4.688   4.551
  167POPC   C2M 8681  10.611   4.722   4.407
  167POPC   C2N 8682  10.595   4.596   4.322
  167POPC   C2O 8683  10.563   4.628   4.175
  167POPC   C2P 8684  10.426   4.696   4.158
  168POPC   CN1 8685  11.739   4.178   6.209
  168POPC   CN2 8686  11.843   4.077   6.021
  168POPC   CN3 8687  11.608   4.111   6.024
  168POPC   NTM 8688  11.737   4.170   6.062
  168POPC    CA 8689  11.756   4.306   6.007
  168POPC    CB 8690  11.787   4.329   5.857
  168POPC    OA 8691  11.694   4.278   5.760
  168POPC     P 8692  11.771   4.227   5.630
  168POPC    OB 8693  11.891   4.159   5.680
  168POPC    OC 8694  11.667   4.157   5.554
  168POPC    OD 8695  11.803   4.369   5.572
  168POPC    CC 8696  11.709   4.417   5.476
  168POPC    CD 8697  11.722   4.568   5.450
  168POPC    OE 8698  11.618   4.626   5.366
  168POPC   C1A 8699  11.498   4.655   5.416
  168POPC    OF 8700  11.474   4.640   5.536
  168POPC   C1B 8701  11.409   4.720   5.317
  168POPC   C1C 8702  11.343   4.621   5.221
  168POPC   C1D 8703  11.262   4.698   5.116
  168POPC   C1E 8704  11.201   4.605   5.010
  168POPC   C1F 8705  11.121   4.684   4.906
  168POPC   C1G 8706  11.210   4.779   4.824
  168POPC   C1H 8707  11.129   4.868   4.730
  168POPC   C1I 8708  11.223   4.965   4.658
  168POPC   C1J 8709  11.191   5.021   4.542
  168POPC   C1K 8710  11.057   4.998   4.473
  168POPC   C1L 8711  11.030   5.110   4.373
  168POPC   C1M 8712  10.897   5.096   4.299
  168POPC   C1N 8713  10.777   5.124   4.390
  168POPC   C1O 8714  10.644   5.114   4.315
  168POPC   C1P 8715  10.621   5.227   4.214
  168POPC   C1Q 8716  10.598   5.362   4.282
  168POPC   C1R 8717  10.571   5.472   4.179
  168POPC    CE 8718  11.866   4.590   5.398
  168POPC    OG 8719  11.900   4.519   5.277
  168POPC   C2A 8720  12.017   4.546   5.222
  168POPC    OH 8721  12.098   4.623   5.274
  168POPC   C2B 8722  12.037   4.476   5.093
  168POPC   C2C 8723  12.005   4.564   4.971
  168POPC   C2D 8724  11.855   4.596   4.957
  168POPC   C2E 8725  11.830   4.696   4.844
  168POPC   C2F 8726  11.681   4.730   4.833
  168POPC   C2G 8727  11.597   4.617   4.772
  168POPC   C2H 8728  11.611   4.608   4.620
  168POPC   C2I 8729  11.536   4.722   4.550
  168POPC   C2J 8730  11.555   4.718   4.399
  168POPC   C2K 8731  11.467   4.824   4.332
  168POPC   C2L 8732  11.490   4.830   4.181
  168POPC   C2M 8733  11.394   4.928   4.112
  168POPC   C2N 8734  11.410   5.072   4.161
  168POPC   C2O 8735  11.319   5.170   4.087
  168POPC   C2P 8736  11.363   5.192   3.942
  169POPC   CN1 8737  11.685   5.843   6.047
  169POPC   CN2 8738  11.783   5.698   6.207
  169POPC   CN3 8739  11.559   5.767   6.238
  169POPC   NTM 8740  11.658   5.729   6.136
  169POPC    CA 8741  11.617   5.609   6.060
  169POPC    CB 8742  11.481   5.605   5.986
  169POPC    OA 8743  11.453   5.710   5.892
  169POPC     P 8744  11.463   5.659   5.743
  169POPC    OB 8745  11.400   5.527   5.737
  169POPC    OC 8746  11.411   5.770   5.661
  169POPC    OD 8747  11.618   5.649   5.731
  169POPC    CC 8748  11.662   5.686   5.601
  169POPC    CD 8749  11.812   5.718   5.598
  169POPC    OE 8750  11.851   5.804   5.488
  169POPC   C1A 8751  11.966   5.870   5.495
  169POPC    OF 8752  12.039   5.855   5.593
  169POPC   C1B 8753  11.995   5.957   5.378
  169POPC   C1C 8754  12.088   5.889   5.278
  169POPC   C1D 8755  12.099   5.974   5.151
  169POPC   C1E 8756  12.192   5.909   5.048
  169POPC   C1F 8757  12.189   5.988   4.917
  169POPC   C1G 8758  12.282   5.925   4.814
  169POPC   C1H 8759  12.273   5.999   4.680
  169POPC   C1I 8760  12.368   5.936   4.578
  169POPC   C1J 8761  12.408   6.004   4.471
  169POPC   C1K 8762  12.357   6.146   4.448
  169POPC   C1L 8763  12.459   6.229   4.369
  169POPC   C1M 8764  12.405   6.370   4.348
  169POPC   C1N 8765  12.505   6.458   4.273
  169POPC   C1O 8766  12.445   6.597   4.251
  169POPC   C1P 8767  12.546   6.690   4.185
  169POPC   C1Q 8768  12.486   6.828   4.160
  169POPC   C1R 8769  12.590   6.923   4.101
  169POPC    CE 8770  11.884   5.582   5.610
  169POPC    OG 8771  11.870   5.500   5.493
  169POPC   C2A 8772  11.982   5.464   5.432
  169POPC    OH 8773  12.091   5.470   5.489
  169POPC   C2B 8774  11.960   5.412   5.295
  169POPC   C2C 8775  11.952   5.530   5.198
  169POPC   C2D 8776  11.930   5.487   5.053
  169POPC   C2E 8777  11.922   5.613   4.968
  169POPC   C2F 8778  11.912   5.583   4.819
  169POPC   C2G 8779  11.915   5.714   4.741
  169POPC   C2H 8780  11.922   5.689   4.590
  169POPC   C2I 8781  11.941   5.822   4.516
  169POPC   C2J 8782  11.969   5.795   4.368
  169POPC   C2K 8783  12.005   5.925   4.295
  169POPC   C2L 8784  12.055   5.899   4.153
  169POPC   C2M 8785  12.186   5.820   4.152
  169POPC   C2N 8786  12.233   5.791   4.009
  169POPC   C2O 8787  12.361   5.706   4.007
  169POPC   C2P 8788  12.482   5.780   4.064
  170POPC   CN1 8789  13.313   5.395   5.690
  170POPC   CN2 8790  13.322   5.614   5.783
  170POPC   CN3 8791  13.382   5.423   5.915
  170POPC   NTM 8792  13.389   5.483   5.781
  170POPC    CA 8793  13.529   5.489   5.734
  170POPC    CB 8794  13.632   5.580   5.805
  170POPC    OA 8795  13.614   5.720   5.785
  170POPC     P 8796  13.713   5.807   5.871
  170POPC    OB 8797  13.681   5.951   5.856
  170POPC    OC 8798  13.724   5.746   6.003
  170POPC    OD 8799  13.848   5.773   5.797
  170POPC    CC 8800  13.868   5.851   5.678
  170POPC    CD 8801  13.978   5.792   5.588
  170POPC    OE 8802  14.047   5.888   5.504
  170POPC   C1A 8803  14.156   5.947   5.551
  170POPC    OF 8804  14.200   5.919   5.663
  170POPC   C1B 8805  14.219   6.040   5.455
  170POPC   C1C 8806  14.322   5.966   5.369
  170POPC   C1D 8807  14.392   6.061   5.273
  170POPC   C1E 8808  14.499   5.987   5.194
  170POPC   C1F 8809  14.573   6.081   5.099
  170POPC   C1G 8810  14.675   6.003   5.016
  170POPC   C1H 8811  14.749   6.094   4.919
  170POPC   C1I 8812  14.840   6.012   4.828
  170POPC   C1J 8813  14.869   6.054   4.705
  170POPC   C1K 8814  14.813   6.186   4.652
  170POPC   C1L 8815  14.796   6.178   4.500
  170POPC   C1M 8816  14.752   6.313   4.442
  170POPC   C1N 8817  14.736   6.301   4.291
  170POPC   C1O 8818  14.702   6.435   4.224
  170POPC   C1P 8819  14.819   6.534   4.231
  170POPC   C1Q 8820  14.790   6.664   4.156
  170POPC   C1R 8821  14.784   6.643   4.004
  170POPC    CE 8822  13.918   5.669   5.516
  170POPC    OG 8823  13.799   5.693   5.438
  170POPC   C2A 8824  13.767   5.600   5.348
  170POPC    OH 8825  13.831   5.495   5.341
  170POPC   C2B 8826  13.650   5.634   5.265
  170POPC   C2C 8827  13.555   5.515   5.250
  170POPC   C2D 8828  13.447   5.537   5.144
  170POPC   C2E 8829  13.505   5.538   5.002
  170POPC   C2F 8830  13.395   5.543   4.896
  170POPC   C2G 8831  13.455   5.535   4.756
  170POPC   C2H 8832  13.346   5.527   4.649
  170POPC   C2I 8833  13.411   5.508   4.511
  170POPC   C2J 8834  13.307   5.492   4.401
  170POPC   C2K 8835  13.377   5.474   4.266
  170POPC   C2L 8836  13.278   5.457   4.151
  170POPC   C2M 8837  13.353   5.454   4.018
  170POPC   C2N 8838  13.259   5.433   3.900
  170POPC   C2O 8839  13.336   5.439   3.768
  170POPC   C2P 8840  13.244   5.408   3.649
  171POPC   CN1 8841  14.055   5.202   6.256
  171POPC   CN2 8842  14.208   5.238   6.080
  171POPC   CN3 8843  14.289   5.171   6.294
  171POPC   NTM 8844  14.180   5.153   6.197
  171POPC    CA 8845  14.161   5.011   6.158
  171POPC    CB 8846  14.278   4.925   6.103
  171POPC    OA 8847  14.355   4.986   6.000
  171POPC     P 8848  14.406   4.879   5.897
  171POPC    OB 8849  14.499   4.795   5.972
  171POPC    OC 8850  14.283   4.826   5.837
  171POPC    OD 8851  14.477   4.989   5.810
  171POPC    CC 8852  14.390   5.043   5.711
  171POPC    CD 8853  14.452   5.155   5.626
  171POPC    OE 8854  14.359   5.203   5.525
  171POPC   C1A 8855  14.272   5.299   5.554
  171POPC    OF 8856  14.278   5.360   5.662
  171POPC   C1B 8857  14.178   5.328   5.444
  171POPC   C1C 8858  14.229   5.439   5.353
  171POPC   C1D 8859  14.147   5.446   5.223
  171POPC   C1E 8860  14.190   5.560   5.131
  171POPC   C1F 8861  14.336   5.549   5.086
  171POPC   C1G 8862  14.377   5.662   4.992
  171POPC   C1H 8863  14.337   5.640   4.846
  171POPC   C1I 8864  14.419   5.528   4.781
  171POPC   C1J 8865  14.383   5.478   4.663
  171POPC   C1K 8866  14.261   5.534   4.590
  171POPC   C1L 8867  14.274   5.515   4.439
  171POPC   C1M 8868  14.158   5.578   4.362
  171POPC   C1N 8869  14.023   5.509   4.386
  171POPC   C1O 8870  14.017   5.369   4.323
  171POPC   C1P 8871  13.881   5.304   4.350
  171POPC   C1Q 8872  13.868   5.166   4.283
  171POPC   C1R 8873  13.863   5.176   4.131
  171POPC    CE 8874  14.585   5.098   5.573
  171POPC    OG 8875  14.669   5.189   5.498
  171POPC   C2A 8876  14.796   5.154   5.480
  171POPC    OH 8877  14.851   5.074   5.556
  171POPC   C2B 8878  14.865   5.238   5.380
  171POPC   C2C 8879  14.866   5.176   5.239
  171POPC   C2D 8880  14.725   5.163   5.179
  171POPC   C2E 8881  14.727   5.113   5.035
  171POPC   C2F 8882  14.783   5.218   4.939
  171POPC   C2G 8883  14.777   5.174   4.792
  171POPC   C2H 8884  14.633   5.160   4.742
  171POPC   C2I 8885  14.626   5.116   4.596
  171POPC   C2J 8886  14.668   5.226   4.498
  171POPC   C2K 8887  14.654   5.176   4.355
  171POPC   C2L 8888  14.694   5.283   4.253
  171POPC   C2M 8889  14.682   5.232   4.109
  171POPC   C2N 8890  14.782   5.120   4.079
  171POPC   C2O 8891  14.762   5.066   3.937
  171POPC   C2P 8892  14.861   4.953   3.909
  172POPC   CN1 8893  14.866   6.513   6.011
  172POPC   CN2 8894  14.898   6.305   6.118
  172POPC   CN3 8895  14.742   6.325   5.938
  172POPC   NTM 8896  14.873   6.369   5.988
  172POPC    CA 8897  14.982   6.342   5.891
  172POPC    CB 8898  15.029   6.197   5.862
  172POPC    OA 8899  14.925   6.108   5.825
  172POPC     P 8900  14.973   5.959   5.822
  172POPC    OB 8901  15.055   5.942   5.702
  172POPC    OC 8902  15.028   5.930   5.956
  172POPC    OD 8903  14.832   5.893   5.812
  172POPC    CC 8904  14.789   5.878   5.677
  172POPC    CD 8905  14.638   5.849   5.666
  172POPC    OE 8906  14.600   5.781   5.544
  172POPC   C1A 8907  14.623   5.650   5.533
  172POPC    OF 8908  14.643   5.582   5.634
  172POPC   C1B 8909  14.607   5.600   5.395
  172POPC   C1C 8910  14.737   5.617   5.317
  172POPC   C1D 8911  14.719   5.589   5.168
  172POPC   C1E 8912  14.848   5.616   5.090
  172POPC   C1F 8913  14.825   5.602   4.940
  172POPC   C1G 8914  14.954   5.627   4.862
  172POPC   C1H 8915  14.930   5.617   4.712
  172POPC   C1I 8916  15.058   5.648   4.634
  172POPC   C1J 8917  15.051   5.705   4.514
  172POPC   C1K 8918  14.915   5.741   4.454
  172POPC   C1L 8919  14.922   5.745   4.301
  172POPC   C1M 8920  14.787   5.784   4.241
  172POPC   C1N 8921  14.793   5.798   4.089
  172POPC   C1O 8922  14.813   5.663   4.018
  172POPC   C1P 8923  14.827   5.683   3.867
  172POPC   C1Q 8924  14.845   5.551   3.791
  172POPC   C1R 8925  14.717   5.467   3.790
  172POPC    CE 8926  14.568   5.983   5.696
  172POPC    OG 8927  14.599   6.091   5.605
  172POPC   C2A 8928  14.549   6.210   5.636
  172POPC    OH 8929  14.502   6.232   5.747
  172POPC   C2B 8930  14.563   6.312   5.529
  172POPC   C2C 8931  14.692   6.395   5.539
  172POPC   C2D 8932  14.812   6.332   5.467
  172POPC   C2E 8933  14.800   6.336   5.314
  172POPC   C2F 8934  14.808   6.479   5.257
  172POPC   C2G 8935  14.798   6.479   5.105
  172POPC   C2H 8936  14.802   6.622   5.050
  172POPC   C2I 8937  14.784   6.624   4.897
  172POPC   C2J 8938  14.773   6.767   4.845
  172POPC   C2K 8939  14.731   6.771   4.697
  172POPC   C2L 8940  14.843   6.735   4.599
  172POPC   C2M 8941  14.941   6.850   4.579
  172POPC   C2N 8942  15.045   6.816   4.472
  172POPC   C2O 8943  15.141   6.933   4.449
  172POPC   C2P 8944  15.247   6.898   4.345
  173POPC   CN1 8945  15.147   5.050   5.703
  173POPC   CN2 8946  15.262   5.259   5.736
  173POPC   CN3 8947  15.032   5.235   5.793
  173POPC   NTM 8948  15.162   5.167   5.792
  173POPC    CA 8949  15.196   5.130   5.931
  173POPC    CB 8950  15.332   5.062   5.962
  173POPC    OA 8951  15.353   4.936   5.899
  173POPC     P 8952  15.505   4.895   5.892
  173POPC    OB 8953  15.574   4.943   6.012
  173POPC    OC 8954  15.506   4.753   5.856
  173POPC    OD 8955  15.549   4.986   5.772
  173POPC    CC 8956  15.508   4.930   5.648
  173POPC    CD 8957  15.559   5.003   5.523
  173POPC    OE 8958  15.486   4.962   5.404
  173POPC   C1A 8959  15.376   5.029   5.370
  173POPC    OF 8960  15.331   5.120   5.441
  173POPC   C1B 8961  15.317   4.975   5.246
  173POPC   C1C 8962  15.269   5.086   5.151
  173POPC   C1D 8963  15.245   5.030   5.011
  173POPC   C1E 8964  15.202   5.142   4.917
  173POPC   C1F 8965  15.193   5.095   4.772
  173POPC   C1G 8966  15.141   5.210   4.686
  173POPC   C1H 8967  15.126   5.174   4.538
  173POPC   C1I 8968  15.053   5.287   4.467
  173POPC   C1J 8969  15.078   5.320   4.341
  173POPC   C1K 8970  15.182   5.247   4.257
  173POPC   C1L 8971  15.253   5.343   4.160
  173POPC   C1M 8972  15.160   5.401   4.053
  173POPC   C1N 8973  15.224   5.517   3.976
  173POPC   C1O 8974  15.245   5.640   4.065
  173POPC   C1P 8975  15.305   5.756   3.985
  173POPC   C1Q 8976  15.328   5.878   4.074
  173POPC   C1R 8977  15.389   5.993   3.995
  173POPC    CE 8978  15.712   4.982   5.521
  173POPC    OG 8979  15.780   5.052   5.415
  173POPC   C2A 8980  15.912   5.046   5.412
  173POPC    OH 8981  15.978   4.996   5.504
  173POPC   C2B 8982  15.969   5.112   5.293
  173POPC   C2C 8983  15.986   5.013   5.177
  173POPC   C2D 8984  16.025   5.086   5.049
  173POPC   C2E 8985  16.039   4.991   4.931
  173POPC   C2F 8986  16.060   5.073   4.803
  173POPC   C2G 8987  16.078   4.988   4.678
  173POPC   C2H 8988  16.096   5.081   4.558
  173POPC   C2I 8989  16.122   5.005   4.428
  173POPC   C2J 8990  16.137   5.105   4.313
  173POPC   C2K 8991  16.169   5.036   4.181
  173POPC   C2L 8992  16.183   5.141   4.071
  173POPC   C2M 8993  16.222   5.078   3.937
  173POPC   C2N 8994  16.236   5.186   3.829
  173POPC   C2O 8995  16.280   5.129   3.693
  173POPC   C2P 8996  16.172   5.041   3.629
  174POPC   CN1 8997  16.728   5.497   6.300
  174POPC   CN2 8998  16.590   5.349   6.177
  174POPC   CN3 8999  16.781   5.449   6.073
  174POPC   NTM 9000  16.730   5.392   6.198
  174POPC    CA 9001  16.815   5.280   6.246
  174POPC    CB 9002  16.856   5.166   6.150
  174POPC    OA 9003  16.751   5.120   6.065
  174POPC     P 9004  16.798   5.015   5.959
  174POPC    OB 9005  16.897   4.925   6.021
  174POPC    OC 9006  16.682   4.964   5.886
  174POPC    OD 9007  16.879   5.114   5.869
  174POPC    CC 9008  16.803   5.173   5.764
  174POPC    CD 9009  16.887   5.271   5.679
  174POPC    OE 9010  16.810   5.336   5.574
  174POPC   C1A 9011  16.736   5.442   5.602
  174POPC    OF 9012  16.719   5.480   5.719
  174POPC   C1B 9013  16.669   5.497   5.482
  174POPC   C1C 9014  16.608   5.637   5.498
  174POPC   C1D 9015  16.713   5.745   5.524
  174POPC   C1E 9016  16.652   5.885   5.525
  174POPC   C1F 9017  16.609   5.928   5.385
  174POPC   C1G 9018  16.553   6.071   5.386
  174POPC   C1H 9019  16.523   6.123   5.246
  174POPC   C1I 9020  16.650   6.145   5.164
  174POPC   C1J 9021  16.645   6.153   5.031
  174POPC   C1K 9022  16.512   6.144   4.957
  174POPC   C1L 9023  16.534   6.091   4.815
  174POPC   C1M 9024  16.403   6.092   4.736
  174POPC   C1N 9025  16.427   6.044   4.592
  174POPC   C1O 9026  16.299   6.052   4.509
  174POPC   C1P 9027  16.325   6.008   4.365
  174POPC   C1Q 9028  16.199   6.020   4.280
  174POPC   C1R 9029  16.225   5.974   4.137
  174POPC    CE 9030   0.025   5.189   5.630
  174POPC    OG 9031   0.123   5.260   5.553
  174POPC   C2A 9032   0.235   5.194   5.523
  174POPC    OH 9033   0.265   5.087   5.579
  174POPC   C2B 9034   0.321   5.268   5.429
  174POPC   C2C 9035   0.266   5.256   5.286
  174POPC   C2D 9036   0.341   5.350   5.191
  174POPC   C2E 9037   0.283   5.344   5.049
  174POPC   C2F 9038   0.354   5.447   4.961
  174POPC   C2G 9039   0.298   5.452   4.819
  174POPC   C2H 9040   0.367   5.566   4.744
  174POPC   C2I 9041   0.317   5.586   4.601
  174POPC   C2J 9042   0.359   5.472   4.508
  174POPC   C2K 9043   0.325   5.499   4.361
  174POPC   C2L 9044   0.408   5.614   4.303
  174POPC   C2M 9045   0.380   5.631   4.154
  174POPC   C2N 9046   0.462   5.746   4.096
  174POPC   C2O 9047   0.444   5.762   3.945
  174POPC   C2P 9048   0.302   5.806   3.908
  175POPC   CN1 9049   0.036   6.020   5.598
  175POPC   CN2 9050   0.102   5.875   5.775
  175POPC   CN3 9051   0.259   5.940   5.607
  175POPC   NTM 9052   0.146   5.986   5.689
  175POPC    CA 9053   0.181   6.109   5.766
  175POPC    CB 9054   0.289   6.109   5.877
  175POPC    OA 9055   0.416   6.052   5.845
  175POPC     P 9056   0.524   6.083   5.954
  175POPC    OB 9057   0.604   6.194   5.902
  175POPC    OC 9058   0.461   6.095   6.087
  175POPC    OD 9059   0.609   5.951   5.953
  175POPC    CC 9060   0.691   5.946   5.836
  175POPC    CD 9061   0.781   5.822   5.822
  175POPC    OE 9062   0.895   5.843   5.734
  175POPC   C1A 9063   1.002   5.907   5.778
  175POPC    OF 9064   1.018   5.926   5.899
  175POPC   C1B 9065   1.100   5.938   5.671
  175POPC   C1C 9066   1.242   5.961   5.722
  175POPC   C1D 9067   1.334   5.990   5.603
  175POPC   C1E 9068   1.471   6.041   5.647
  175POPC   C1F 9069   1.552   6.076   5.522
  175POPC   C1G 9070   1.684   6.145   5.556
  175POPC   C1H 9071   1.756   6.181   5.426
  175POPC   C1I 9072   1.885   6.260   5.451
  175POPC   C1J 9073   1.927   6.343   5.356
  175POPC   C1K 9074   1.844   6.357   5.228
  175POPC   C1L 9075   1.866   6.494   5.162
  175POPC   C1M 9076   1.766   6.520   5.049
  175POPC   C1N 9077   1.781   6.425   4.930
  175POPC   C1O 9078   1.676   6.453   4.822
  175POPC   C1P 9079   1.536   6.410   4.864
  175POPC   C1Q 9080   1.435   6.441   4.753
  175POPC   C1R 9081   1.296   6.388   4.788
  175POPC    CE 9082   0.690   5.703   5.787
  175POPC    OG 9083   0.604   5.723   5.672
  175POPC   C2A 9084   0.555   5.614   5.614
  175POPC    OH 9085   0.578   5.500   5.655
  175POPC   C2B 9086   0.467   5.648   5.499
  175POPC   C2C 9087   0.547   5.675   5.371
  175POPC   C2D 9088   0.455   5.739   5.267
  175POPC   C2E 9089   0.530   5.776   5.139
  175POPC   C2F 9090   0.439   5.852   5.043
  175POPC   C2G 9091   0.513   5.885   4.914
  175POPC   C2H 9092   0.423   5.959   4.814
  175POPC   C2I 9093   0.497   5.972   4.681
  175POPC   C2J 9094   0.416   6.045   4.574
  175POPC   C2K 9095   0.499   6.054   4.445
  175POPC   C2L 9096   0.437   6.142   4.336
  175POPC   C2M 9097   0.313   6.081   4.272
  175POPC   C2N 9098   0.267   6.169   4.156
  175POPC   C2O 9099   0.143   6.111   4.087
  175POPC   C2P 9100   0.106   6.194   3.964
  176POPC   CN1 9101   1.984   5.937   6.416
  176POPC   CN2 9102   2.202   5.850   6.461
  176POPC   CN3 9103   2.016   5.703   6.457
  176POPC   NTM 9104   2.074   5.823   6.394
  176POPC    CA 9105   2.101   5.802   6.250
  176POPC    CB 9106   1.983   5.785   6.150
  176POPC    OA 9107   1.895   5.678   6.182
  176POPC     P 9108   1.773   5.658   6.086
  176POPC    OB 9109   1.679   5.573   6.161
  176POPC    OC 9110   1.729   5.790   6.038
  176POPC    OD 9111   1.837   5.576   5.968
  176POPC    CC 9112   1.856   5.647   5.846
  176POPC    CD 9113   1.988   5.614   5.775
  176POPC    OE 9114   2.008   5.694   5.655
  176POPC   C1A 9115   2.059   5.816   5.663
  176POPC    OF 9116   2.103   5.860   5.770
  176POPC   C1B 9117   2.053   5.886   5.533
  176POPC   C1C 9118   2.176   5.970   5.501
  176POPC   C1D 9119   2.168   6.012   5.354
  176POPC   C1E 9120   2.292   6.090   5.310
  176POPC   C1F 9121   2.295   6.111   5.158
  176POPC   C1G 9122   2.306   5.979   5.082
  176POPC   C1H 9123   2.325   6.003   4.932
  176POPC   C1I 9124   2.332   5.870   4.856
  176POPC   C1J 9125   2.313   5.869   4.725
  176POPC   C1K 9126   2.287   6.001   4.652
  176POPC   C1L 9127   2.351   6.002   4.514
  176POPC   C1M 9128   2.335   6.137   4.443
  176POPC   C1N 9129   2.192   6.165   4.396
  176POPC   C1O 9130   2.151   6.077   4.278
  176POPC   C1P 9131   2.012   6.113   4.227
  176POPC   C1Q 9132   1.970   6.030   4.106
  176POPC   C1R 9133   1.952   5.881   4.139
  176POPC    CE 9134   1.993   5.462   5.755
  176POPC    OG 9135   1.903   5.408   5.657
  176POPC   C2A 9136   1.903   5.276   5.644
  176POPC    OH 9137   1.927   5.202   5.739
  176POPC   C2B 9138   1.849   5.231   5.513
  176POPC   C2C 9139   1.964   5.216   5.414
  176POPC   C2D 9140   1.919   5.174   5.274
  176POPC   C2E 9141   1.844   5.286   5.200
  176POPC   C2F 9142   1.811   5.240   5.058
  176POPC   C2G 9143   1.738   5.349   4.979
  176POPC   C2H 9144   1.707   5.298   4.838
  176POPC   C2I 9145   1.635   5.404   4.755
  176POPC   C2J 9146   1.601   5.347   4.617
  176POPC   C2K 9147   1.522   5.447   4.533
  176POPC   C2L 9148   1.483   5.384   4.399
  176POPC   C2M 9149   1.395   5.479   4.317
  176POPC   C2N 9150   1.352   5.412   4.186
  176POPC   C2O 9151   1.263   5.505   4.104
  176POPC   C2P 9152   1.217   5.437   3.975
  177POPC   CN1 9153   3.129   6.173   6.550
  177POPC   CN2 9154   3.357   6.133   6.606
  177POPC   CN3 9155   3.231   5.961   6.499
  177POPC   NTM 9156   3.253   6.107   6.505
  177POPC    CA 9157   3.299   6.163   6.376
  177POPC    CB 9158   3.224   6.132   6.244
  177POPC    OA 9159   3.081   6.146   6.243
  177POPC     P 9160   3.034   6.247   6.131
  177POPC    OB 9161   2.888   6.230   6.125
  177POPC    OC 9162   3.098   6.374   6.166
  177POPC    OD 9163   3.098   6.180   6.004
  177POPC    CC 9164   3.104   6.274   5.897
  177POPC    CD 9165   3.159   6.214   5.767
  177POPC    OE 9166   3.183   6.316   5.666
  177POPC   C1A 9167   3.282   6.297   5.579
  177POPC    OF 9168   3.358   6.200   5.588
  177POPC   C1B 9169   3.294   6.408   5.482
  177POPC   C1C 9170   3.318   6.358   5.339
  177POPC   C1D 9171   3.342   6.475   5.242
  177POPC   C1E 9172   3.371   6.427   5.100
  177POPC   C1F 9173   3.249   6.362   5.034
  177POPC   C1G 9174   3.279   6.310   4.893
  177POPC   C1H 9175   3.306   6.423   4.792
  177POPC   C1I 9176   3.350   6.366   4.657
  177POPC   C1J 9177   3.477   6.376   4.618
  177POPC   C1K 9178   3.579   6.448   4.706
  177POPC   C1L 9179   3.719   6.385   4.702
  177POPC   C1M 9180   3.792   6.408   4.569
  177POPC   C1N 9181   3.935   6.355   4.576
  177POPC   C1O 9182   4.012   6.375   4.445
  177POPC   C1P 9183   3.959   6.286   4.333
  177POPC   C1Q 9184   4.040   6.305   4.204
  177POPC   C1R 9185   3.988   6.213   4.094
  177POPC    CE 9186   3.060   6.101   5.728
  177POPC    OG 9187   2.924   6.144   5.714
  177POPC   C2A 9188   2.830   6.050   5.709
  177POPC    OH 9189   2.853   5.934   5.744
  177POPC   C2B 9190   2.697   6.105   5.675
  177POPC   C2C 9191   2.634   6.031   5.556
  177POPC   C2D 9192   2.712   6.054   5.426
  177POPC   C2E 9193   2.664   5.955   5.319
  177POPC   C2F 9194   2.748   5.963   5.191
  177POPC   C2G 9195   2.713   6.083   5.103
  177POPC   C2H 9196   2.791   6.073   4.972
  177POPC   C2I 9197   2.749   6.182   4.874
  177POPC   C2J 9198   2.831   6.172   4.745
  177POPC   C2K 9199   2.795   6.285   4.649
  177POPC   C2L 9200   2.880   6.275   4.522
  177POPC   C2M 9201   2.851   6.393   4.428
  177POPC   C2N 9202   2.937   6.389   4.301
  177POPC   C2O 9203   3.087   6.408   4.327
  177POPC   C2P 9204   3.121   6.549   4.376
  178POPC   CN1 9205   3.567   5.778   5.783
  178POPC   CN2 9206   3.718   5.940   5.863
  178POPC   CN3 9207   3.482   5.978   5.876
  178POPC   NTM 9208   3.588   5.877   5.888
  178POPC    CA 9209   3.584   5.805   6.018
  178POPC    CB 9210   3.589   5.884   6.151
  178POPC    OA 9211   3.703   5.967   6.169
  178POPC     P 9212   3.666   6.087   6.263
  178POPC    OB 9213   3.566   6.165   6.188
  178POPC    OC 9214   3.633   6.027   6.393
  178POPC    OD 9215   3.805   6.160   6.266
  178POPC    CC 9216   3.839   6.213   6.138
  178POPC    CD 9217   3.983   6.267   6.128
  178POPC    OE 9218   4.008   6.331   6.000
  178POPC   C1A 9219   3.999   6.463   5.990
  178POPC    OF 9220   3.998   6.534   6.091
  178POPC   C1B 9221   4.011   6.513   5.851
  178POPC   C1C 9222   4.157   6.523   5.804
  178POPC   C1D 9223   4.242   6.620   5.887
  178POPC   C1E 9224   4.388   6.622   5.841
  178POPC   C1F 9225   4.408   6.696   5.708
  178POPC   C1G 9226   4.384   6.846   5.723
  178POPC   C1H 9227   4.417   6.919   5.592
  178POPC   C1I 9228   4.399   7.070   5.610
  178POPC   C1J 9229   4.372   7.148   5.505
  178POPC   C1K 9230   4.360   7.091   5.364
  178POPC   C1L 9231   4.487   7.116   5.282
  178POPC   C1M 9232   4.465   7.079   5.135
  178POPC   C1N 9233   4.587   7.116   5.051
  178POPC   C1O 9234   4.567   7.085   4.903
  178POPC   C1P 9235   4.457   7.171   4.839
  178POPC   C1Q 9236   4.444   7.141   4.690
  178POPC   C1R 9237   4.335   7.228   4.627
  178POPC    CE 9238   4.078   6.150   6.161
  178POPC    OG 9239   4.085   6.042   6.065
  178POPC   C2A 9240   4.174   6.055   5.968
  178POPC    OH 9241   4.276   6.123   5.982
  178POPC   C2B 9242   4.157   5.953   5.862
  178POPC   C2C 9243   4.182   6.010   5.722
  178POPC   C2D 9244   4.073   6.109   5.680
  178POPC   C2E 9245   4.094   6.163   5.539
  178POPC   C2F 9246   4.211   6.262   5.530
  178POPC   C2G 9247   4.209   6.332   5.394
  178POPC   C2H 9248   4.314   6.443   5.387
  178POPC   C2I 9249   4.302   6.517   5.254
  178POPC   C2J 9250   4.405   6.629   5.243
  178POPC   C2K 9251   4.393   6.704   5.110
  178POPC   C2L 9252   4.428   6.617   4.989
  178POPC   C2M 9253   4.412   6.696   4.859
  178POPC   C2N 9254   4.449   6.612   4.736
  178POPC   C2O 9255   4.352   6.497   4.713
  178POPC   C2P 9256   4.390   6.420   4.586
  179POPC   CN1 9257   5.241   5.490   6.235
  179POPC   CN2 9258   5.144   5.583   6.039
  179POPC   CN3 9259   5.190   5.350   6.049
  179POPC   NTM 9260   5.145   5.466   6.127
  179POPC    CA 9261   5.010   5.435   6.181
  179POPC    CB 9262   4.926   5.546   6.250
  179POPC    OA 9263   4.987   5.615   6.359
  179POPC     P 9264   4.923   5.756   6.378
  179POPC    OB 9265   4.776   5.743   6.375
  179POPC    OC 9266   4.993   5.816   6.492
  179POPC    OD 9267   4.975   5.822   6.246
  179POPC    CC 9268   4.919   5.951   6.226
  179POPC    CD 9269   4.970   6.023   6.100
  179POPC    OE 9270   4.906   5.976   5.977
  179POPC   C1A 9271   4.801   6.044   5.931
  179POPC    OF 9272   4.748   6.136   5.995
  179POPC   C1B 9273   4.759   5.996   5.797
  179POPC   C1C 9274   4.607   5.988   5.779
  179POPC   C1D 9275   4.569   5.957   5.634
  179POPC   C1E 9276   4.603   6.075   5.542
  179POPC   C1F 9277   4.570   6.047   5.396
  179POPC   C1G 9278   4.607   6.169   5.312
  179POPC   C1H 9279   4.576   6.149   5.163
  179POPC   C1I 9280   4.610   6.276   5.085
  179POPC   C1J 9281   4.652   6.269   4.959
  179POPC   C1K 9282   4.666   6.133   4.890
  179POPC   C1L 9283   4.664   6.150   4.738
  179POPC   C1M 9284   4.672   6.014   4.668
  179POPC   C1N 9285   4.672   6.027   4.515
  179POPC   C1O 9286   4.540   6.082   4.458
  179POPC   C1P 9287   4.423   5.985   4.474
  179POPC   C1Q 9288   4.293   6.047   4.423
  179POPC   C1R 9289   4.176   5.951   4.440
  179POPC    CE 9290   5.124   6.020   6.107
  179POPC    OG 9291   5.194   6.104   6.014
  179POPC   C2A 9292   5.327   6.113   6.025
  179POPC    OH 9293   5.387   6.066   6.123
  179POPC   C2B 9294   5.393   6.194   5.920
  179POPC   C2C 9295   5.341   6.168   5.778
  179POPC   C2D 9296   5.419   6.249   5.674
  179POPC   C2E 9297   5.368   6.219   5.533
  179POPC   C2F 9298   5.453   6.289   5.427
  179POPC   C2G 9299   5.403   6.262   5.285
  179POPC   C2H 9300   5.268   6.329   5.257
  179POPC   C2I 9301   5.223   6.304   5.113
  179POPC   C2J 9302   5.089   6.373   5.086
  179POPC   C2K 9303   5.037   6.346   4.945
  179POPC   C2L 9304   5.121   6.413   4.836
  179POPC   C2M 9305   5.072   6.371   4.697
  179POPC   C2N 9306   5.154   6.439   4.587
  179POPC   C2O 9307   5.117   6.389   4.447
  179POPC   C2P 9308   4.974   6.426   4.406
  180POPC   CN1 9309   6.212   5.749   6.723
  180POPC   CN2 9310   6.420   5.852   6.766
  180POPC   CN3 9311   6.408   5.615   6.758
  180POPC   NTM 9312   6.356   5.739   6.698
  180POPC    CA 9313   6.385   5.749   6.552
  180POPC    CB 9314   6.351   5.632   6.457
  180POPC    OA 9315   6.218   5.580   6.467
  180POPC     P 9316   6.199   5.445   6.389
  180POPC    OB 9317   6.324   5.368   6.403
  180POPC    OC 9318   6.068   5.393   6.432
  180POPC    OD 9319   6.195   5.502   6.243
  180POPC    CC 9320   6.071   5.563   6.210
  180POPC    CD 9321   6.084   5.672   6.103
  180POPC    OE 9322   5.959   5.742   6.077
  180POPC   C1A 9323   5.925   5.846   6.153
  180POPC    OF 9324   5.976   5.864   6.264
  180POPC   C1B 9325   5.813   5.922   6.095
  180POPC   C1C 9326   5.867   6.047   6.025
  180POPC   C1D 9327   5.788   6.082   5.899
  180POPC   C1E 9328   5.828   5.993   5.781
  180POPC   C1F 9329   5.774   6.052   5.650
  180POPC   C1G 9330   5.830   5.976   5.529
  180POPC   C1H 9331   5.797   6.042   5.395
  180POPC   C1I 9332   5.865   6.179   5.377
  180POPC   C1J 9333   5.921   6.214   5.261
  180POPC   C1K 9334   5.921   6.121   5.140
  180POPC   C1L 9335   5.830   6.174   5.028
  180POPC   C1M 9336   5.815   6.074   4.913
  180POPC   C1N 9337   5.742   5.945   4.953
  180POPC   C1O 9338   5.597   5.971   4.996
  180POPC   C1P 9339   5.532   5.843   5.050
  180POPC   C1Q 9340   5.393   5.873   5.106
  180POPC   C1R 9341   5.328   5.747   5.163
  180POPC    CE 9342   6.151   5.606   5.981
  180POPC    OG 9343   6.172   5.690   5.866
  180POPC   C2A 9344   6.253   5.640   5.774
  180POPC    OH 9345   6.344   5.563   5.806
  180POPC   C2B 9346   6.250   5.714   5.645
  180POPC   C2C 9347   6.133   5.668   5.558
  180POPC   C2D 9348   6.143   5.721   5.415
  180POPC   C2E 9349   6.018   5.681   5.336
  180POPC   C2F 9350   6.029   5.714   5.187
  180POPC   C2G 9351   6.125   5.618   5.115
  180POPC   C2H 9352   6.140   5.651   4.966
  180POPC   C2I 9353   6.013   5.625   4.886
  180POPC   C2J 9354   6.034   5.666   4.740
  180POPC   C2K 9355   5.906   5.645   4.658
  180POPC   C2L 9356   5.920   5.694   4.514
  180POPC   C2M 9357   5.935   5.847   4.506
  180POPC   C2N 9358   5.943   5.893   4.360
  180POPC   C2O 9359   5.963   6.044   4.352
  180POPC   C2P 9360   5.966   6.091   4.206
  181POPC   CN1 9361   6.730   6.318   6.186
  181POPC   CN2 9362   6.652   6.370   6.402
  181POPC   CN3 9363   6.534   6.209   6.274
  181POPC   NTM 9364   6.668   6.261   6.306
  181POPC    CA 9365   6.752   6.155   6.368
  181POPC    CB 9366   6.791   6.027   6.288
  181POPC    OA 9367   6.875   6.054   6.176
  181POPC     P 9368   6.892   5.929   6.082
  181POPC    OB 9369   6.994   5.970   5.983
  181POPC    OC 9370   6.902   5.810   6.167
  181POPC    OD 9371   6.750   5.926   6.016
  181POPC    CC 9372   6.732   6.020   5.911
  181POPC    CD 9373   6.595   6.005   5.843
  181POPC    OE 9374   6.478   6.031   5.925
  181POPC   C1A 9375   6.438   6.157   5.941
  181POPC    OF 9376   6.521   6.247   5.955
  181POPC   C1B 9377   6.293   6.167   5.971
  181POPC   C1C 9378   6.224   6.280   5.893
  181POPC   C1D 9379   6.251   6.275   5.742
  181POPC   C1E 9380   6.195   6.151   5.672
  181POPC   C1F 9381   6.266   6.124   5.539
  181POPC   C1G 9382   6.257   6.244   5.444
  181POPC   C1H 9383   6.342   6.226   5.318
  181POPC   C1I 9384   6.344   6.360   5.244
  181POPC   C1J 9385   6.365   6.369   5.113
  181POPC   C1K 9386   6.389   6.247   5.025
  181POPC   C1L 9387   6.342   6.281   4.884
  181POPC   C1M 9388   6.391   6.179   4.780
  181POPC   C1N 9389   6.346   6.226   4.642
  181POPC   C1O 9390   6.409   6.143   4.530
  181POPC   C1P 9391   6.363   6.192   4.392
  181POPC   C1Q 9392   6.412   6.333   4.362
  181POPC   C1R 9393   6.351   6.385   4.232
  181POPC    CE 9394   6.592   5.863   5.783
  181POPC    OG 9395   6.672   5.847   5.665
  181POPC   C2A 9396   6.676   5.724   5.615
  181POPC    OH 9397   6.632   5.627   5.677
  181POPC   C2B 9398   6.746   5.715   5.484
  181POPC   C2C 9399   6.651   5.703   5.364
  181POPC   C2D 9400   6.572   5.831   5.336
  181POPC   C2E 9401   6.491   5.820   5.206
  181POPC   C2F 9402   6.579   5.819   5.081
  181POPC   C2G 9403   6.495   5.792   4.956
  181POPC   C2H 9404   6.580   5.793   4.829
  181POPC   C2I 9405   6.498   5.749   4.707
  181POPC   C2J 9406   6.583   5.757   4.580
  181POPC   C2K 9407   6.513   5.697   4.457
  181POPC   C2L 9408   6.389   5.775   4.413
  181POPC   C2M 9409   6.329   5.723   4.282
  181POPC   C2N 9410   6.269   5.583   4.296
  181POPC   C2O 9411   6.210   5.532   4.164
  181POPC   C2P 9412   6.088   5.613   4.118
  182POPC   CN1 9413   7.706   5.920   6.009
  182POPC   CN2 9414   7.754   6.151   5.964
  182POPC   CN3 9415   7.612   6.092   6.143
  182POPC   NTM 9416   7.732   6.051   6.070
  182POPC    CA 9417   7.842   6.046   6.168
  182POPC    CB 9418   7.985   6.002   6.126
  182POPC    OA 9419   8.048   6.082   6.028
  182POPC     P 9420   8.190   6.024   5.995
  182POPC    OB 9421   8.264   6.027   6.121
  182POPC    OC 9422   8.164   5.898   5.924
  182POPC    OD 9423   8.236   6.140   5.901
  182POPC    CC 9424   8.177   6.132   5.772
  182POPC    CD 9425   8.187   6.262   5.690
  182POPC    OE 9426   8.110   6.258   5.566
  182POPC   C1A 9427   7.977   6.261   5.571
  182POPC    OF 9428   7.917   6.279   5.677
  182POPC   C1B 9429   7.915   6.252   5.437
  182POPC   C1C 9430   7.898   6.108   5.388
  182POPC   C1D 9431   7.847   6.111   5.245
  182POPC   C1E 9432   7.840   5.971   5.184
  182POPC   C1F 9433   7.792   5.977   5.040
  182POPC   C1G 9434   7.786   5.836   4.982
  182POPC   C1H 9435   7.731   5.833   4.839
  182POPC   C1I 9436   7.717   5.687   4.796
  182POPC   C1J 9437   7.715   5.648   4.669
  182POPC   C1K 9438   7.724   5.748   4.553
  182POPC   C1L 9439   7.647   5.692   4.434
  182POPC   C1M 9440   7.670   5.774   4.307
  182POPC   C1N 9441   7.598   5.707   4.190
  182POPC   C1O 9442   7.630   5.776   4.057
  182POPC   C1P 9443   7.560   5.704   3.942
  182POPC   C1Q 9444   7.597   5.767   3.808
  182POPC   C1R 9445   7.526   5.696   3.693
  182POPC    CE 9446   8.338   6.291   5.675
  182POPC    OG 9447   8.374   6.401   5.589
  182POPC   C2A 9448   8.505   6.416   5.566
  182POPC    OH 9449   8.590   6.357   5.633
  182POPC   C2B 9450   8.535   6.517   5.462
  182POPC   C2C 9451   8.552   6.453   5.324
  182POPC   C2D 9452   8.604   6.557   5.225
  182POPC   C2E 9453   8.624   6.503   5.083
  182POPC   C2F 9454   8.492   6.472   5.012
  182POPC   C2G 9455   8.515   6.442   4.863
  182POPC   C2H 9456   8.382   6.412   4.794
  182POPC   C2I 9457   8.393   6.393   4.643
  182POPC   C2J 9458   8.436   6.520   4.570
  182POPC   C2K 9459   8.413   6.507   4.419
  182POPC   C2L 9460   8.460   6.633   4.345
  182POPC   C2M 9461   8.419   6.633   4.197
  182POPC   C2N 9462   8.489   6.523   4.116
  182POPC   C2O 9463   8.440   6.524   3.971
  182POPC   C2P 9464   8.507   6.414   3.889
  183POPC   CN1 9465   8.502   5.617   6.695
  183POPC   CN2 9466   8.643   5.803   6.744
  183POPC   CN3 9467   8.721   5.633   6.598
  183POPC   NTM 9468   8.602   5.709   6.639
  183POPC    CA 9469   8.543   5.788   6.528
  183POPC    CB 9470   8.497   5.724   6.394
  183POPC    OA 9471   8.600   5.668   6.311
  183POPC     P 9472   8.659   5.771   6.208
  183POPC    OB 9473   8.666   5.903   6.272
  183POPC    OC 9474   8.780   5.707   6.157
  183POPC    OD 9475   8.549   5.773   6.097
  183POPC    CC 9476   8.557   5.662   6.006
  183POPC    CD 9477   8.445   5.663   5.900
  183POPC    OE 9478   8.444   5.551   5.807
  183POPC   C1A 9479   8.398   5.432   5.845
  183POPC    OF 9480   8.367   5.410   5.963
  183POPC   C1B 9481   8.389   5.334   5.735
  183POPC   C1C 9482   8.247   5.330   5.677
  183POPC   C1D 9483   8.233   5.231   5.561
  183POPC   C1E 9484   8.302   5.282   5.433
  183POPC   C1F 9485   8.282   5.182   5.319
  183POPC   C1G 9486   8.339   5.237   5.189
  183POPC   C1H 9487   8.324   5.135   5.076
  183POPC   C1I 9488   8.381   5.189   4.946
  183POPC   C1J 9489   8.351   5.132   4.829
  183POPC   C1K 9490   8.256   5.013   4.824
  183POPC   C1L 9491   8.212   4.986   4.681
  183POPC   C1M 9492   8.111   4.871   4.675
  183POPC   C1N 9493   8.071   4.842   4.531
  183POPC   C1O 9494   7.961   4.735   4.528
  183POPC   C1P 9495   7.924   4.691   4.386
  183POPC   C1Q 9496   7.860   4.802   4.302
  183POPC   C1R 9497   7.821   4.749   4.164
  183POPC    CE 9498   8.454   5.800   5.830
  183POPC    OG 9499   8.575   5.829   5.758
  183POPC   C2A 9500   8.583   5.949   5.701
  183POPC    OH 9501   8.519   6.043   5.749
  183POPC   C2B 9502   8.692   5.961   5.603
  183POPC   C2C 9503   8.649   6.045   5.483
  183POPC   C2D 9504   8.744   6.024   5.365
  183POPC   C2E 9505   8.690   6.087   5.236
  183POPC   C2F 9506   8.775   6.039   5.118
  183POPC   C2G 9507   8.725   6.093   4.984
  183POPC   C2H 9508   8.805   6.026   4.872
  183POPC   C2I 9509   8.770   6.080   4.733
  183POPC   C2J 9510   8.820   6.223   4.711
  183POPC   C2K 9511   8.797   6.272   4.568
  183POPC   C2L 9512   8.882   6.194   4.467
  183POPC   C2M 9513   8.856   6.240   4.324
  183POPC   C2N 9514   8.943   6.161   4.227
  183POPC   C2O 9515   8.918   6.204   4.082
  183POPC   C2P 9516   9.010   6.127   3.988
  184POPC   CN1 9517   8.922   4.779   6.264
  184POPC   CN2 9518   9.027   4.830   6.471
  184POPC   CN3 9519   9.047   4.981   6.290
  184POPC   NTM 9520   8.955   4.888   6.357
  184POPC    CA 9521   8.832   4.952   6.408
  184POPC    CB 9522   8.750   5.048   6.319
  184POPC    OA 9523   8.716   5.003   6.187
  184POPC     P 9524   8.641   5.121   6.115
  184POPC    OB 9525   8.516   5.134   6.191
  184POPC    OC 9526   8.740   5.230   6.115
  184POPC    OD 9527   8.624   5.055   5.974
  184POPC    CC 9528   8.747   5.057   5.901
  184POPC    CD 9529   8.735   5.076   5.748
  184POPC    OE 9530   8.708   5.212   5.705
  184POPC   C1A 9531   8.797   5.310   5.720
  184POPC    OF 9532   8.906   5.290   5.775
  184POPC   C1B 9533   8.755   5.437   5.657
  184POPC   C1C 9534   8.827   5.454   5.523
  184POPC   C1D 9535   8.759   5.558   5.435
  184POPC   C1E 9536   8.837   5.570   5.303
  184POPC   C1F 9537   8.764   5.653   5.198
  184POPC   C1G 9538   8.643   5.579   5.141
  184POPC   C1H 9539   8.580   5.659   5.027
  184POPC   C1I 9540   8.471   5.578   4.958
  184POPC   C1J 9541   8.456   5.587   4.826
  184POPC   C1K 9542   8.547   5.680   4.746
  184POPC   C1L 9543   8.493   5.709   4.606
  184POPC   C1M 9544   8.501   5.587   4.514
  184POPC   C1N 9545   8.459   5.616   4.369
  184POPC   C1O 9546   8.310   5.645   4.355
  184POPC   C1P 9547   8.274   5.664   4.207
  184POPC   C1Q 9548   8.124   5.684   4.184
  184POPC   C1R 9549   8.073   5.817   4.239
  184POPC    CE 9550   8.631   4.973   5.701
  184POPC    OG 9551   8.663   4.902   5.579
  184POPC   C2A 9552   8.570   4.821   5.531
  184POPC    OH 9553   8.455   4.822   5.576
  184POPC   C2B 9554   8.615   4.744   5.413
  184POPC   C2C 9555   8.564   4.805   5.282
  184POPC   C2D 9556   8.638   4.746   5.162
  184POPC   C2E 9557   8.582   4.800   5.031
  184POPC   C2F 9558   8.671   4.764   4.912
  184POPC   C2G 9559   8.602   4.803   4.781
  184POPC   C2H 9560   8.691   4.781   4.659
  184POPC   C2I 9561   8.607   4.793   4.532
  184POPC   C2J 9562   8.690   4.780   4.404
  184POPC   C2K 9563   8.595   4.774   4.284
  184POPC   C2L 9564   8.667   4.769   4.149
  184POPC   C2M 9565   8.727   4.904   4.110
  184POPC   C2N 9566   8.783   4.899   3.968
  184POPC   C2O 9567   8.838   5.035   3.925
  184POPC   C2P 9568   8.890   5.030   3.782
  185POPC   CN1 9569   9.322   4.100   5.360
  185POPC   CN2 9570   9.542   4.061   5.440
  185POPC   CN3 9571   9.465   4.282   5.414
  185POPC   NTM 9572   9.423   4.147   5.454
  185POPC    CA 9573   9.374   4.139   5.594
  185POPC    CB 9574   9.258   4.228   5.645
  185POPC    OA 9575   9.286   4.368   5.641
  185POPC     P 9576   9.178   4.448   5.721
  185POPC    OB 9577   9.047   4.425   5.659
  185POPC    OC 9578   9.201   4.414   5.862
  185POPC    OD 9579   9.231   4.593   5.694
  185POPC    CC 9580   9.186   4.637   5.566
  185POPC    CD 9581   9.222   4.781   5.527
  185POPC    OE 9582   9.140   4.836   5.421
  185POPC   C1A 9583   9.041   4.919   5.454
  185POPC    OF 9584   9.027   4.954   5.572
  185POPC   C1B 9585   8.958   4.960   5.338
  185POPC   C1C 9586   8.903   5.103   5.352
  185POPC   C1D 9587   8.802   5.139   5.242
  185POPC   C1E 9588   8.865   5.150   5.103
  185POPC   C1F 9589   8.760   5.187   4.999
  185POPC   C1G 9590   8.822   5.208   4.861
  185POPC   C1H 9591   8.716   5.243   4.757
  185POPC   C1I 9592   8.781   5.278   4.623
  185POPC   C1J 9593   8.724   5.251   4.506
  185POPC   C1K 9594   8.587   5.184   4.497
  185POPC   C1L 9595   8.527   5.206   4.357
  185POPC   C1M 9596   8.394   5.132   4.341
  185POPC   C1N 9597   8.338   5.155   4.201
  185POPC   C1O 9598   8.205   5.082   4.183
  185POPC   C1P 9599   8.143   5.117   4.047
  185POPC   C1Q 9600   8.003   5.057   4.033
  185POPC   C1R 9601   7.937   5.100   3.902
  185POPC    CE 9602   9.373   4.786   5.504
  185POPC    OG 9603   9.430   4.686   5.417
  185POPC   C2A 9604   9.557   4.704   5.382
  185POPC    OH 9605   9.627   4.783   5.445
  185POPC   C2B 9606   9.606   4.598   5.291
  185POPC   C2C 9607   9.696   4.652   5.179
  185POPC   C2D 9608   9.758   4.536   5.102
  185POPC   C2E 9609   9.836   4.581   4.978
  185POPC   C2F 9610   9.745   4.647   4.875
  185POPC   C2G 9611   9.812   4.656   4.738
  185POPC   C2H 9612   9.715   4.719   4.638
  185POPC   C2I 9613   9.754   4.681   4.495
  185POPC   C2J 9614   9.649   4.732   4.396
  185POPC   C2K 9615   9.656   4.656   4.263
  185POPC   C2L 9616   9.616   4.509   4.281
  185POPC   C2M 9617   9.614   4.429   4.151
  185POPC   C2N 9618   9.506   4.479   4.055
  185POPC   C2O 9619   9.491   4.389   3.932
  185POPC   C2P 9620   9.614   4.390   3.842
  186POPC   CN1 9621  11.081   5.682   5.841
  186POPC   CN2 9622  10.892   5.764   5.724
  186POPC   CN3 9623  10.977   5.544   5.679
  186POPC   NTM 9624  10.952   5.644   5.783
  186POPC    CA 9625  10.868   5.590   5.893
  186POPC    CB 9626  10.717   5.559   5.873
  186POPC    OA 9627  10.683   5.476   5.762
  186POPC     P 9628  10.529   5.488   5.735
  186POPC    OB 9629  10.463   5.433   5.854
  186POPC    OC 9630  10.505   5.628   5.695
  186POPC    OD 9631  10.517   5.392   5.612
  186POPC    CC 9632  10.576   5.451   5.497
  186POPC    CD 9633  10.617   5.353   5.385
  186POPC    OE 9634  10.718   5.407   5.295
  186POPC   C1A 9635  10.845   5.408   5.333
  186POPC    OF 9636  10.878   5.365   5.444
  186POPC   C1B 9637  10.936   5.479   5.239
  186POPC   C1C 9638  10.982   5.390   5.123
  186POPC   C1D 9639  11.087   5.463   5.039
  186POPC   C1E 9640  11.139   5.379   4.922
  186POPC   C1F 9641  11.044   5.374   4.802
  186POPC   C1G 9642  11.034   5.511   4.734
  186POPC   C1H 9643  10.957   5.503   4.602
  186POPC   C1I 9644  10.944   5.642   4.539
  186POPC   C1J 9645  10.963   5.660   4.409
  186POPC   C1K 9646  10.998   5.541   4.318
  186POPC   C1L 9647  10.969   5.575   4.172
  186POPC   C1M 9648  11.004   5.457   4.081
  186POPC   C1N 9649  10.980   5.492   3.934
  186POPC   C1O 9650  11.012   5.375   3.840
  186POPC   C1P 9651  10.913   5.258   3.852
  186POPC   C1Q 9652  10.772   5.291   3.799
  186POPC   C1R 9653  10.771   5.314   3.648
  186POPC    CE 9654  10.488   5.298   5.322
  186POPC    OG 9655  10.396   5.397   5.273
  186POPC   C2A 9656  10.275   5.355   5.238
  186POPC    OH 9657  10.234   5.245   5.276
  186POPC   C2B 9658  10.193   5.460   5.173
  186POPC   C2C 9659  10.115   5.401   5.055
  186POPC   C2D 9660  10.021   5.501   4.987
  186POPC   C2E 9661  10.094   5.618   4.922
  186POPC   C2F 9662  10.000   5.689   4.825
  186POPC   C2G 9663  10.066   5.809   4.756
  186POPC   C2H 9664   9.986   5.856   4.634
  186POPC   C2I 9665   9.844   5.902   4.669
  186POPC   C2J 9666   9.759   5.925   4.543
  186POPC   C2K 9667   9.802   6.049   4.463
  186POPC   C2L 9668   9.716   6.068   4.338
  186POPC   C2M 9669   9.749   5.968   4.227
  186POPC   C2N 9670   9.884   6.000   4.161
  186POPC   C2O 9671   9.923   5.895   4.056
  186POPC   C2P 9672   9.960   5.761   4.120
  187POPC   CN1 9673  12.089   5.175   6.172
  187POPC   CN2 9674  12.077   4.967   6.285
  187POPC   CN3 9675  11.894   5.117   6.297
  187POPC   NTM 9676  11.999   5.065   6.209
  187POPC    CA 9677  11.942   4.996   6.091
  187POPC    CB 9678  11.847   5.072   5.996
  187POPC    OA 9679  11.903   5.188   5.933
  187POPC     P 9680  11.796   5.303   5.914
  187POPC    OB 9681  11.715   5.307   6.036
  187POPC    OC 9682  11.874   5.420   5.872
  187POPC    OD 9683  11.711   5.237   5.801
  187POPC    CC 9684  11.772   5.243   5.673
  187POPC    CD 9685  11.716   5.137   5.576
  187POPC    OE 9686  11.789   5.124   5.452
  187POPC   C1A 9687  11.899   5.049   5.445
  187POPC    OF 9688  11.956   5.010   5.547
  187POPC   C1B 9689  11.952   5.039   5.306
  187POPC   C1C 9690  11.891   4.926   5.222
  187POPC   C1D 9691  11.744   4.944   5.183
  187POPC   C1E 9692  11.719   5.068   5.097
  187POPC   C1F 9693  11.573   5.074   5.052
  187POPC   C1G 9694  11.537   5.205   4.982
  187POPC   C1H 9695  11.609   5.231   4.849
  187POPC   C1I 9696  11.566   5.136   4.737
  187POPC   C1J 9697  11.547   5.184   4.614
  187POPC   C1K 9698  11.564   5.334   4.588
  187POPC   C1L 9699  11.477   5.382   4.472
  187POPC   C1M 9700  11.487   5.534   4.459
  187POPC   C1N 9701  11.407   5.590   4.341
  187POPC   C1O 9702  11.473   5.558   4.207
  187POPC   C1P 9703  11.396   5.623   4.091
  187POPC   C1Q 9704  11.464   5.593   3.957
  187POPC   C1R 9705  11.388   5.658   3.842
  187POPC    CE 9706  11.566   5.169   5.560
  187POPC    OG 9707  11.535   5.300   5.510
  187POPC   C2A 9708  11.410   5.321   5.469
  187POPC    OH 9709  11.326   5.231   5.475
  187POPC   C2B 9710  11.388   5.457   5.417
  187POPC   C2C 9711  11.446   5.471   5.276
  187POPC   C2D 9712  11.424   5.611   5.218
  187POPC   C2E 9713  11.485   5.619   5.078
  187POPC   C2F 9714  11.452   5.750   5.008
  187POPC   C2G 9715  11.512   5.749   4.867
  187POPC   C2H 9716  11.471   5.873   4.788
  187POPC   C2I 9717  11.535   5.869   4.649
  187POPC   C2J 9718  11.490   5.986   4.562
  187POPC   C2K 9719  11.555   5.977   4.424
  187POPC   C2L 9720  11.506   6.090   4.333
  187POPC   C2M 9721  11.567   6.078   4.193
  187POPC   C2N 9722  11.516   6.187   4.098
  187POPC   C2O 9723  11.367   6.172   4.067
  187POPC   C2P 9724  11.318   6.285   3.976
  188POPC   CN1 9725  11.958   6.720   6.158
  188POPC   CN2 9726  12.116   6.649   5.995
  188POPC   CN3 9727  12.185   6.703   6.218
  188POPC   NTM 9728  12.079   6.641   6.137
  188POPC    CA 9729  12.050   6.502   6.181
  188POPC    CB 9730  12.154   6.389   6.158
  188POPC    OA 9731  12.282   6.416   6.213
  188POPC     P 9732  12.393   6.316   6.168
  188POPC    OB 9733  12.496   6.345   6.270
  188POPC    OC 9734  12.331   6.182   6.157
  188POPC    OD 9735  12.421   6.385   6.030
  188POPC    CC 9736  12.510   6.497   6.045
  188POPC    CD 9737  12.543   6.578   5.919
  188POPC    OE 9738  12.437   6.669   5.877
  188POPC   C1A 9739  12.474   6.774   5.805
  188POPC    OF 9740  12.582   6.828   5.831
  188POPC   C1B 9741  12.363   6.837   5.731
  188POPC   C1C 9742  12.413   6.898   5.600
  188POPC   C1D 9743  12.300   6.941   5.507
  188POPC   C1E 9744  12.222   6.820   5.453
  188POPC   C1F 9745  12.125   6.863   5.343
  188POPC   C1G 9746  12.050   6.744   5.286
  188POPC   C1H 9747  11.972   6.784   5.160
  188POPC   C1I 9748  11.898   6.663   5.103
  188POPC   C1J 9749  11.884   6.650   4.971
  188POPC   C1K 9750  11.942   6.754   4.875
  188POPC   C1L 9751  11.859   6.760   4.747
  188POPC   C1M 9752  11.919   6.855   4.644
  188POPC   C1N 9753  11.833   6.856   4.517
  188POPC   C1O 9754  11.890   6.952   4.413
  188POPC   C1P 9755  11.803   6.952   4.286
  188POPC   C1Q 9756  11.855   7.049   4.179
  188POPC   C1R 9757  11.839   7.195   4.220
  188POPC    CE 9758  12.586   6.474   5.813
  188POPC    OG 9759  12.634   6.530   5.690
  188POPC   C2A 9760  12.654   6.446   5.589
  188POPC    OH 9761  12.619   6.328   5.596
  188POPC   C2B 9762  12.713   6.511   5.469
  188POPC   C2C 9763  12.607   6.580   5.382
  188POPC   C2D 9764  12.667   6.617   5.246
  188POPC   C2E 9765  12.567   6.688   5.154
  188POPC   C2F 9766  12.563   6.839   5.179
  188POPC   C2G 9767  12.462   6.908   5.087
  188POPC   C2H 9768  12.477   7.060   5.095
  188POPC   C2I 9769  12.366   7.137   5.022
  188POPC   C2J 9770  12.233   7.123   5.097
  188POPC   C2K 9771  12.122   7.216   5.046
  188POPC   C2L 9772  12.071   7.181   4.906
  188POPC   C2M 9773  11.953   7.272   4.872
  188POPC   C2N 9774  11.893   7.238   4.736
  188POPC   C2O 9775  11.770   7.324   4.709
  188POPC   C2P 9776  11.705   7.289   4.575
  189POPC   CN1 9777  12.482   5.896   5.701
  189POPC   CN2 9778  12.416   6.124   5.735
  189POPC   CN3 9779  12.263   5.949   5.772
  189POPC   NTM 9780  12.404   5.987   5.786
  189POPC    CA 9781  12.436   5.975   5.930
  189POPC    CB 9782  12.576   6.010   5.984
  189POPC    OA 9783  12.617   6.144   5.960
  189POPC     P 9784  12.758   6.176   6.022
  189POPC    OB 9785  12.774   6.321   6.012
  189POPC    OC 9786  12.769   6.102   6.149
  189POPC    OD 9787  12.843   6.104   5.910
  189POPC    CC 9788  12.849   6.181   5.790
  189POPC    CD 9789  12.941   6.117   5.685
  189POPC    OE 9790  12.978   6.205   5.576
  189POPC   C1A 9791  13.107   6.213   5.543
  189POPC    OF 9792  13.192   6.166   5.620
  189POPC   C1B 9793  13.132   6.282   5.415
  189POPC   C1C 9794  13.136   6.434   5.425
  189POPC   C1D 9795  13.155   6.499   5.287
  189POPC   C1E 9796  13.295   6.475   5.232
  189POPC   C1F 9797  13.304   6.490   5.080
  189POPC   C1G 9798  13.292   6.633   5.028
  189POPC   C1H 9799  13.302   6.630   4.875
  189POPC   C1I 9800  13.297   6.769   4.811
  189POPC   C1J 9801  13.339   6.784   4.686
  189POPC   C1K 9802  13.392   6.664   4.608
  189POPC   C1L 9803  13.349   6.668   4.461
  189POPC   C1M 9804  13.401   6.546   4.385
  189POPC   C1N 9805  13.339   6.537   4.245
  189POPC   C1O 9806  13.392   6.415   4.170
  189POPC   C1P 9807  13.319   6.398   4.037
  189POPC   C1Q 9808  13.372   6.280   3.954
  189POPC   C1R 9809  13.513   6.303   3.902
  189POPC    CE 9810  12.873   5.986   5.643
  189POPC    OG 9811  12.959   5.893   5.574
  189POPC   C2A 9812  12.896   5.800   5.503
  189POPC    OH 9813  12.774   5.805   5.483
  189POPC   C2B 9814  12.990   5.702   5.443
  189POPC   C2C 9815  12.940   5.650   5.308
  189POPC   C2D 9816  13.040   5.550   5.249
  189POPC   C2E 9817  12.993   5.494   5.115
  189POPC   C2F 9818  12.989   5.600   5.005
  189POPC   C2G 9819  12.950   5.538   4.871
  189POPC   C2H 9820  12.949   5.644   4.761
  189POPC   C2I 9821  12.913   5.580   4.627
  189POPC   C2J 9822  12.907   5.682   4.512
  189POPC   C2K 9823  12.794   5.784   4.530
  189POPC   C2L 9824  12.770   5.867   4.404
  189POPC   C2M 9825  12.887   5.959   4.369
  189POPC   C2N 9826  12.855   6.041   4.244
  189POPC   C2O 9827  12.969   6.136   4.210
  189POPC   C2P 9828  12.937   6.216   4.083
  190POPC   CN1 9829  14.082   7.297   6.513
  190POPC   CN2 9830  14.123   7.120   6.363
  190POPC   CN3 9831  14.206   7.340   6.315
  190POPC   NTM 9832  14.183   7.241   6.421
  190POPC    CA 9833  14.306   7.211   6.499
  190POPC    CB 9834  14.437   7.165   6.429
  190POPC    OA 9835  14.429   7.047   6.348
  190POPC     P 9836  14.562   7.025   6.264
  190POPC    OB 9837  14.678   7.064   6.345
  190POPC    OC 9838  14.548   6.887   6.214
  190POPC    OD 9839  14.532   7.127   6.150
  190POPC    CC 9840  14.434   7.079   6.059
  190POPC    CD 9841  14.382   7.184   5.961
  190POPC    OE 9842  14.263   7.138   5.894
  190POPC   C1A 9843  14.178   7.230   5.848
  190POPC    OF 9844  14.174   7.342   5.900
  190POPC   C1B 9845  14.080   7.173   5.752
  190POPC   C1C 9846  14.134   7.180   5.609
  190POPC   C1D 9847  14.054   7.093   5.512
  190POPC   C1E 9848  14.115   7.106   5.372
  190POPC   C1F 9849  14.063   6.999   5.276
  190POPC   C1G 9850  14.121   7.023   5.136
  190POPC   C1H 9851  14.089   6.908   5.041
  190POPC   C1I 9852  14.135   6.943   4.899
  190POPC   C1J 9853  14.182   6.852   4.814
  190POPC   C1K 9854  14.199   6.705   4.851
  190POPC   C1L 9855  14.347   6.672   4.875
  190POPC   C1M 9856  14.371   6.522   4.899
  190POPC   C1N 9857  14.352   6.439   4.772
  190POPC   C1O 9858  14.380   6.291   4.801
  190POPC   C1P 9859  14.365   6.205   4.675
  190POPC   C1Q 9860  14.390   6.058   4.708
  190POPC   C1R 9861  14.385   5.971   4.582
  190POPC    CE 9862  14.502   7.219   5.870
  190POPC    OG 9863  14.469   7.300   5.756
  190POPC   C2A 9864  14.537   7.277   5.644
  190POPC    OH 9865  14.625   7.191   5.640
  190POPC   C2B 9866  14.489   7.354   5.526
  190POPC   C2C 9867  14.445   7.499   5.554
  190POPC   C2D 9868  14.381   7.560   5.430
  190POPC   C2E 9869  14.241   7.502   5.405
  190POPC   C2F 9870  14.187   7.544   5.268
  190POPC   C2G 9871  14.042   7.499   5.251
  190POPC   C2H 9872  13.989   7.536   5.112
  190POPC   C2I 9873  14.044   7.445   5.003
  190POPC   C2J 9874  14.004   7.496   4.864
  190POPC   C2K 9875  14.032   7.396   4.752
  190POPC   C2L 9876  14.180   7.359   4.737
  190POPC   C2M 9877  14.197   7.256   4.626
  190POPC   C2N 9878  14.341   7.207   4.617
  190POPC   C2O 9879  14.355   7.100   4.508
  190POPC   C2P 9880  14.496   7.042   4.505
  191POPC   CN1 9881  13.610   6.433   6.015
  191POPC   CN2 9882  13.840   6.480   6.057
  191POPC   CN3 9883  13.735   6.554   5.855
  191POPC   NTM 9884  13.716   6.534   5.999
  191POPC    CA 9885  13.673   6.660   6.064
  191POPC    CB 9886  13.766   6.784   6.062
  191POPC    OA 9887  13.891   6.769   6.132
  191POPC     P 9888  14.006   6.849   6.059
  191POPC    OB 9889  13.957   6.983   6.027
  191POPC    OC 9890  14.130   6.828   6.135
  191POPC    OD 9891  14.018   6.761   5.931
  191POPC    CC 9892  14.122   6.812   5.849
  191POPC    CD 9893  14.159   6.722   5.731
  191POPC    OE 9894  14.274   6.775   5.660
  191POPC   C1A 9895  14.363   6.689   5.611
  191POPC    OF 9896  14.373   6.577   5.661
  191POPC   C1B 9897  14.464   6.754   5.525
  191POPC   C1C 9898  14.419   6.760   5.379
  191POPC   C1D 9899  14.512   6.848   5.294
  191POPC   C1E 9900  14.507   6.994   5.340
  191POPC   C1F 9901  14.601   7.085   5.261
  191POPC   C1G 9902  14.556   7.106   5.116
  191POPC   C1H 9903  14.654   7.200   5.045
  191POPC   C1I 9904  14.619   7.219   4.898
  191POPC   C1J 9905  14.665   7.326   4.834
  191POPC   C1K 9906  14.750   7.429   4.909
  191POPC   C1L 9907  14.870   7.478   4.828
  191POPC   C1M 9908  14.831   7.555   4.701
  191POPC   C1N 9909  14.955   7.599   4.623
  191POPC   C1O 9910  14.919   7.660   4.488
  191POPC   C1P 9911  14.845   7.794   4.501
  191POPC   C1Q 9912  14.805   7.847   4.363
  191POPC   C1R 9913  14.735   7.982   4.373
  191POPC    CE 9914  14.032   6.709   5.644
  191POPC    OG 9915  14.044   6.624   5.529
  191POPC   C2A 9916  14.010   6.496   5.540
  191POPC    OH 9917  13.942   6.457   5.635
  191POPC   C2B 9918  14.048   6.411   5.424
  191POPC   C2C 9919  14.030   6.481   5.288
  191POPC   C2D 9920  14.085   6.400   5.170
  191POPC   C2E 9921  14.004   6.274   5.139
  191POPC   C2F 9922  14.051   6.215   5.006
  191POPC   C2G 9923  13.969   6.095   4.960
  191POPC   C2H 9924  14.003   5.966   5.036
  191POPC   C2I 9925  13.924   5.846   4.980
  191POPC   C2J 9926  13.960   5.818   4.834
  191POPC   C2K 9927  13.878   5.704   4.773
  191POPC   C2L 9928  13.920   5.567   4.827
  191POPC   C2M 9929  13.842   5.455   4.757
  191POPC   C2N 9930  13.886   5.316   4.802
  191POPC   C2O 9931  13.856   5.289   4.949
  191POPC   C2P 9932  13.896   5.146   4.987
  192POPC   CN1 9933  15.395   5.901   6.004
  192POPC   CN2 9934  15.476   6.114   5.937
  192POPC   CN3 9935  15.453   6.065   6.167
  192POPC   NTM 9936  15.491   6.008   6.037
  192POPC    CA 9937  15.628   5.953   6.048
  192POPC    CB 9938  15.696   5.880   5.929
  192POPC    OA 9939  15.723   5.961   5.814
  192POPC     P 9940  15.772   5.868   5.697
  192POPC    OB 9941  15.903   5.819   5.741
  192POPC    OC 9942  15.661   5.778   5.666
  192POPC    OD 9943  15.790   5.981   5.591
  192POPC    CC 9944  15.665   6.026   5.539
  192POPC    CD 9945  15.676   6.165   5.473
  192POPC    OE 9946  15.548   6.232   5.456
  192POPC   C1A 9947  15.491   6.291   5.561
  192POPC    OF 9948  15.556   6.316   5.663
  192POPC   C1B 9949  15.351   6.333   5.537
  192POPC   C1C 9950  15.345   6.464   5.458
  192POPC   C1D 9951  15.199   6.506   5.434
  192POPC   C1E 9952  15.188   6.623   5.336
  192POPC   C1F 9953  15.230   6.581   5.195
  192POPC   C1G 9954  15.207   6.693   5.094
  192POPC   C1H 9955  15.248   6.646   4.954
  192POPC   C1I 9956  15.216   6.751   4.847
  192POPC   C1J 9957  15.313   6.819   4.787
  192POPC   C1K 9958  15.460   6.796   4.823
  192POPC   C1L 9959  15.555   6.811   4.704
  192POPC   C1M 9960  15.557   6.953   4.646
  192POPC   C1N 9961  15.661   6.964   4.535
  192POPC   C1O 9962  15.657   7.103   4.470
  192POPC   C1P 9963  15.774   7.127   4.375
  192POPC   C1Q 9964  15.906   7.142   4.451
  192POPC   C1R 9965  16.022   7.172   4.355
  192POPC    CE 9966  15.764   6.147   5.348
  192POPC    OG 9967  15.715   6.054   5.250
  192POPC   C2A 9968  15.790   6.034   5.142
  192POPC    OH 9969  15.902   6.085   5.133
  192POPC   C2B 9970  15.724   5.945   5.044
  192POPC   C2C 9971  15.771   5.964   4.899
  192POPC   C2D 9972  15.906   5.896   4.871
  192POPC   C2E 9973  15.893   5.743   4.868
  192POPC   C2F 9974  15.879   5.686   4.726
  192POPC   C2G 9975  16.011   5.701   4.649
  192POPC   C2H 9976  16.012   5.625   4.517
  192POPC   C2I 9977  16.149   5.638   4.451
  192POPC   C2J 9978  16.155   5.569   4.315
  192POPC   C2K 9979  16.293   5.592   4.252
  192POPC   C2L 9980  16.299   5.539   4.109
  192POPC   C2M 9981  16.433   5.575   4.044
  192POPC   C2N 9982  16.442   5.530   3.898
  192POPC   C2O 9983  16.347   5.604   3.803
  192POPC   C2P 9984  16.383   5.752   3.787
  193POPC   CN1 9985  16.225   6.222   6.011
  193POPC   CN2 9986  16.188   5.993   5.946
  193POPC   CN3 9987  16.044   6.166   5.869
  193POPC   NTM 9988  16.183   6.134   5.901
  193POPC    CA 9989  16.262   6.158   5.779
  193POPC    CB 9990  16.409   6.110   5.773
  193POPC    OA 9991  16.489   6.155   5.882
  193POPC     P 9992  16.631   6.091   5.887
  193POPC    OB 9993  16.679   6.134   6.019
  193POPC    OC 9994  16.616   5.948   5.856
  193POPC    OD 9995  16.699   6.171   5.770
  193POPC    CC 9996  16.733   6.305   5.805
  193POPC    CD 9997  16.770   6.393   5.684
  193POPC    OE 9998  16.841   6.516   5.718
  193POPC   C1A 9999  16.971   6.512   5.750
  193POPC    OF10000   0.041   6.406   5.785
  193POPC   C1B10001   0.047   6.647   5.764
  193POPC   C1C10002   0.101   6.696   5.630
  193POPC   C1D10003   0.154   6.840   5.638
  193POPC   C1E10004   0.211   6.887   5.503
  193POPC   C1F10005   0.348   6.825   5.474
  193POPC   C1G10006   0.395   6.856   5.331
  193POPC   C1H10007   0.317   6.775   5.228
  193POPC   C1I10008   0.357   6.807   5.084
  193POPC   C1J10009   0.436   6.726   5.013
  193POPC   C1K10010   0.493   6.598   5.076
  193POPC   C1L10011   0.500   6.483   4.975
  193POPC   C1M10012   0.584   6.367   5.029
  193POPC   C1N10013   0.526   6.301   5.154
  193POPC   C1O10014   0.628   6.206   5.216
  193POPC   C1P10015   0.572   6.140   5.342
  193POPC   C1Q10016   0.678   6.058   5.417
  193POPC   C1R10017   0.787   6.146   5.479
  193POPC    CE10018  16.637   6.411   5.609
  193POPC    OG10019  16.638   6.459   5.473
  193POPC   C2A10020  16.519   6.464   5.413
  193POPC    OH10021  16.419   6.414   5.465
  193POPC   C2B10022  16.527   6.515   5.274
  193POPC   C2C10023  16.394   6.578   5.229
  193POPC   C2D10024  16.387   6.610   5.080
  193POPC   C2E10025  16.486   6.719   5.037
  193POPC   C2F10026  16.456   6.767   4.895
  193POPC   C2G10027  16.553   6.878   4.855
  193POPC   C2H10028  16.503   6.960   4.735
  193POPC   C2I10029  16.504   6.886   4.602
  193POPC   C2J10030  16.441   6.975   4.495
  193POPC   C2K10031  16.447   6.913   4.355
  193POPC   C2L10032  16.368   7.000   4.257
  193POPC   C2M10033  16.373   6.947   4.114
  193POPC   C2N10034  16.508   6.975   4.047
  193POPC   C2O10035  16.514   6.922   3.904
  193POPC   C2P10036  16.522   6.769   3.899
  194POPC   CN110037   0.865   6.471   6.357
  194POPC   CN210038   0.632   6.484   6.399
  194POPC   CN310039   0.741   6.652   6.269
  194POPC   NTM10040   0.736   6.508   6.299
  194POPC    CA10041   0.716   6.427   6.176
  194POPC    CB10042   0.579   6.428   6.103
  194POPC    OA10043   0.527   6.555   6.061
  194POPC     P10044   0.379   6.542   6.009
  194POPC    OB10045   0.308   6.453   6.103
  194POPC    OC10046   0.336   6.681   5.989
  194POPC    OD10047   0.403   6.465   5.875
  194POPC    CC10048   0.448   6.548   5.769
  194POPC    CD10049   0.518   6.470   5.656
  194POPC    OE10050   0.589   6.554   5.561
  194POPC   C1A10051   0.720   6.569   5.574
  194POPC    OF10052   0.783   6.507   5.660
  194POPC   C1B10053   0.779   6.661   5.474
  194POPC   C1C10054   0.822   6.586   5.348
  194POPC   C1D10055   0.878   6.683   5.244
  194POPC   C1E10056   0.915   6.608   5.116
  194POPC   C1F10057   0.961   6.707   5.009
  194POPC   C1G10058   0.991   6.637   4.877
  194POPC   C1H10059   1.032   6.739   4.771
  194POPC   C1I10060   1.059   6.674   4.635
  194POPC   C1J10061   1.035   6.744   4.525
  194POPC   C1K10062   0.978   6.885   4.540
  194POPC   C1L10063   0.905   6.935   4.415
  194POPC   C1M10064   1.001   6.976   4.303
  194POPC   C1N10065   0.926   7.050   4.193
  194POPC   C1O10066   1.024   7.107   4.090
  194POPC   C1P10067   0.953   7.201   3.993
  194POPC   C1Q10068   1.053   7.268   3.899
  194POPC   C1R10069   0.984   7.371   3.809
  194POPC    CE10070   0.416   6.373   5.594
  194POPC    OG10071   0.302   6.431   5.527
  194POPC   C2A10072   0.227   6.348   5.454
  194POPC    OH10073   0.241   6.226   5.463
  194POPC   C2B10074   0.118   6.416   5.382
  194POPC   C2C10075   0.110   6.373   5.235
  194POPC   C2D10076  16.972   6.438   5.167
  194POPC   C2E10077  16.970   6.407   5.017
  194POPC   C2F10078  16.843   6.463   4.952
  194POPC   C2G10079  16.844   6.436   4.801
  194POPC   C2H10080  16.712   6.476   4.736
  194POPC   C2I10081  16.718   6.450   4.585
  194POPC   C2J10082  16.581   6.468   4.518
  194POPC   C2K10083  16.586   6.443   4.367
  194POPC   C2L10084  16.628   6.300   4.332
  194POPC   C2M10085  16.633   6.278   4.181
  194POPC   C2N10086  16.686   6.138   4.149
  194POPC   C2O10087  16.699   6.112   3.999
  194POPC   C2P10088  16.563   6.096   3.931
  195POPC   CN110089   1.377   6.536   6.157
  195POPC   CN210090   1.555   6.532   6.314
  195POPC   CN310091   1.598   6.606   6.092
  195POPC   NTM10092   1.499   6.607   6.201
  195POPC    CA10093   1.469   6.745   6.247
  195POPC    CB10094   1.403   6.849   6.153
  195POPC    OA10095   1.473   6.879   6.032
  195POPC     P10096   1.404   6.997   5.951
  195POPC    OB10097   1.356   7.092   6.051
  195POPC    OC10098   1.499   7.035   5.846
  195POPC    OD10099   1.282   6.916   5.893
  195POPC    CC10100   1.318   6.838   5.778
  195POPC    CD10101   1.199   6.761   5.718
  195POPC    OE10102   1.236   6.656   5.624
  195POPC   C1A10103   1.246   6.531   5.666
  195POPC    OF10104   1.245   6.505   5.787
  195POPC   C1B10105   1.273   6.433   5.558
  195POPC   C1C10106   1.144   6.388   5.489
  195POPC   C1D10107   1.166   6.284   5.379
  195POPC   C1E10108   1.258   6.336   5.267
  195POPC   C1F10109   1.267   6.241   5.147
  195POPC   C1G10110   1.324   6.102   5.181
  195POPC   C1H10111   1.345   6.022   5.053
  195POPC   C1I10112   1.382   5.876   5.081
  195POPC   C1J10113   1.361   5.784   4.987
  195POPC   C1K10114   1.304   5.826   4.851
  195POPC   C1L10115   1.408   5.809   4.739
  195POPC   C1M10116   1.367   5.884   4.612
  195POPC   C1N10117   1.244   5.825   4.542
  195POPC   C1O10118   1.200   5.912   4.423
  195POPC   C1P10119   1.141   6.046   4.469
  195POPC   C1Q10120   1.096   6.134   4.352
  195POPC   C1R10121   1.214   6.191   4.273
  195POPC    CE10122   1.099   6.865   5.665
  195POPC    OG10123   1.147   6.951   5.560
  195POPC   C2A10124   1.061   7.039   5.511
  195POPC    OH10125   0.946   7.050   5.555
  195POPC   C2B10126   1.115   7.122   5.400
  195POPC   C2C10127   1.074   7.066   5.263
  195POPC   C2D10128   1.098   7.173   5.157
  195POPC   C2E10129   1.058   7.128   5.017
  195POPC   C2F10130   1.057   7.251   4.925
  195POPC   C2G10131   1.026   7.219   4.779
  195POPC   C2H10132   1.011   7.351   4.704
  195POPC   C2I10133   1.000   7.335   4.553
  195POPC   C2J10134   0.991   7.474   4.491
  195POPC   C2K10135   1.012   7.474   4.340
  195POPC   C2L10136   1.022   7.619   4.292
  195POPC   C2M10137   1.075   7.629   4.149
  195POPC   C2N10138   1.102   7.775   4.114
  195POPC   C2O10139   1.173   7.788   3.980
  195POPC   C2P10140   1.205   7.935   3.950
  196POPC   CN110141   2.502   6.462   6.705
  196POPC   CN210142   2.541   6.541   6.485
  196POPC   CN310143   2.322   6.555   6.579
  196POPC   NTM10144   2.466   6.567   6.609
  196POPC    CA10145   2.502   6.698   6.668
  196POPC    CB10146   2.463   6.831   6.598
  196POPC    OA10147   2.505   6.842   6.462
  196POPC     P10148   2.427   6.958   6.390
  196POPC    OB10149   2.284   6.926   6.406
  196POPC    OC10150   2.485   7.079   6.448
  196POPC    OD10151   2.473   6.923   6.244
  196POPC    CC10152   2.417   6.798   6.202
  196POPC    CD10153   2.445   6.752   6.057
  196POPC    OE10154   2.583   6.716   6.030
  196POPC   C1A10155   2.633   6.603   6.080
  196POPC    OF10156   2.567   6.529   6.153
  196POPC   C1B10157   2.775   6.578   6.044
  196POPC   C1C10158   2.793   6.491   5.919
  196POPC   C1D10159   2.771   6.568   5.789
  196POPC   C1E10160   2.817   6.484   5.670
  196POPC   C1F10161   2.809   6.562   5.539
  196POPC   C1G10162   2.852   6.472   5.423
  196POPC   C1H10163   2.833   6.540   5.288
  196POPC   C1I10164   2.865   6.440   5.177
  196POPC   C1J10165   2.897   6.478   5.053
  196POPC   C1K10166   2.900   6.625   5.012
  196POPC   C1L10167   2.886   6.636   4.860
  196POPC   C1M10168   2.898   6.780   4.813
  196POPC   C1N10169   2.892   6.788   4.660
  196POPC   C1O10170   2.914   6.932   4.613
  196POPC   C1P10171   2.909   6.945   4.461
  196POPC   C1Q10172   2.768   6.918   4.405
  196POPC   C1R10173   2.764   6.938   4.254
  196POPC    CE10174   2.386   6.866   5.971
  196POPC    OG10175   2.336   6.829   5.842
  196POPC   C2A10176   2.260   6.919   5.780
  196POPC    OH10177   2.208   7.011   5.844
  196POPC   C2B10178   2.227   6.884   5.641
  196POPC   C2C10179   2.081   6.839   5.627
  196POPC   C2D10180   2.046   6.796   5.484
  196POPC   C2E10181   2.057   6.910   5.383
  196POPC   C2F10182   2.009   6.865   5.245
  196POPC   C2G10183   2.026   6.977   5.143
  196POPC   C2H10184   1.965   6.940   5.007
  196POPC   C2I10185   1.985   7.055   4.908
  196POPC   C2J10186   1.918   7.027   4.774
  196POPC   C2K10187   1.943   7.143   4.677
  196POPC   C2L10188   1.873   7.120   4.544
  196POPC   C2M10189   1.900   7.235   4.447
  196POPC   C2N10190   1.834   7.208   4.312
  196POPC   C2O10191   1.864   7.320   4.213
  196POPC   C2P10192   1.803   7.290   4.076
  197POPC   CN110193   3.624   6.942   6.800
  197POPC   CN210194   3.738   6.737   6.819
  197POPC   CN310195   3.498   6.746   6.836
  197POPC   NTM10196   3.616   6.799   6.766
  197POPC    CA10197   3.603   6.785   6.619
  197POPC    CB10198   3.600   6.642   6.559
  197POPC    OA10199   3.588   6.633   6.417
  197POPC     P10200   3.634   6.488   6.372
  197POPC    OB10201   3.775   6.486   6.414
  197POPC    OC10202   3.530   6.404   6.433
  197POPC    OD10203   3.615   6.507   6.218
  197POPC    CC10204   3.481   6.484   6.175
  197POPC    CD10205   3.463   6.509   6.025
  197POPC    OE10206   3.326   6.535   5.984
  197POPC   C1A10207   3.284   6.661   5.983
  197POPC    OF10208   3.345   6.750   6.043
  197POPC   C1B10209   3.149   6.675   5.923
  197POPC   C1C10210   3.142   6.784   5.816
  197POPC   C1D10211   3.207   6.744   5.683
  197POPC   C1E10212   3.171   6.846   5.575
  197POPC   C1F10213   3.222   6.802   5.438
  197POPC   C1G10214   3.168   6.893   5.327
  197POPC   C1H10215   3.215   6.847   5.189
  197POPC   C1I10216   3.151   6.933   5.079
  197POPC   C1J10217   3.209   6.947   4.960
  197POPC   C1K10218   3.342   6.879   4.926
  197POPC   C1L10219   3.356   6.846   4.777
  197POPC   C1M10220   3.358   6.972   4.689
  197POPC   C1N10221   3.375   6.941   4.540
  197POPC   C1O10222   3.519   6.904   4.505
  197POPC   C1P10223   3.535   6.883   4.354
  197POPC   C1Q10224   3.680   6.863   4.311
  197POPC   C1R10225   3.740   6.733   4.365
  197POPC    CE10226   3.537   6.396   5.951
  197POPC    OG10227   3.576   6.434   5.818
  197POPC   C2A10228   3.649   6.348   5.747
  197POPC    OH10229   3.695   6.246   5.798
  197POPC   C2B10230   3.676   6.402   5.611
  197POPC   C2C10231   3.733   6.300   5.513
  197POPC   C2D10232   3.739   6.360   5.372
  197POPC   C2E10233   3.815   6.270   5.275
  197POPC   C2F10234   3.795   6.317   5.130
  197POPC   C2G10235   3.885   6.240   5.032
  197POPC   C2H10236   4.027   6.296   5.031
  197POPC   C2I10237   4.120   6.218   4.937
  197POPC   C2J10238   4.158   6.081   4.996
  197POPC   C2K10239   4.249   6.003   4.901
  197POPC   C2L10240   4.295   5.873   4.967
  197POPC   C2M10241   4.385   5.789   4.876
  197POPC   C2N10242   4.309   5.726   4.759
  197POPC   C2O10243   4.403   5.642   4.672
  197POPC   C2P10244   4.328   5.581   4.554
  198POPC   CN110245   4.532   6.858   6.454
  198POPC   CN210246   4.464   6.894   6.682
  198POPC   CN310247   4.635   6.737   6.629
  198POPC   NTM10248   4.578   6.868   6.593
  198POPC    CA10249   4.684   6.970   6.610
  198POPC    CB10250   4.654   7.119   6.578
  198POPC    OA10251   4.626   7.146   6.442
  198POPC     P10252   4.519   7.260   6.420
  198POPC    OB10253   4.435   7.271   6.541
  198POPC    OC10254   4.597   7.372   6.367
  198POPC    OD10255   4.445   7.181   6.306
  198POPC    CC10256   4.510   7.195   6.180
  198POPC    CD10257   4.474   7.091   6.073
  198POPC    OE10258   4.559   7.098   5.955
  198POPC   C1A10259   4.669   7.024   5.947
  198POPC    OF10260   4.697   6.943   6.036
  198POPC   C1B10261   4.744   7.052   5.823
  198POPC   C1C10262   4.896   7.038   5.836
  198POPC   C1D10263   4.970   7.113   5.724
  198POPC   C1E10264   4.936   7.064   5.583
  198POPC   C1F10265   5.004   7.151   5.477
  198POPC   C1G10266   4.965   7.105   5.336
  198POPC   C1H10267   5.024   7.196   5.228
  198POPC   C1I10268   4.978   7.149   5.089
  198POPC   C1J10269   5.045   7.180   4.978
  198POPC   C1K10270   5.170   7.268   4.981
  198POPC   C1L10271   5.266   7.228   4.869
  198POPC   C1M10272   5.389   7.320   4.866
  198POPC   C1N10273   5.501   7.265   4.777
  198POPC   C1O10274   5.470   7.263   4.627
  198POPC   C1P10275   5.469   7.403   4.566
  198POPC   C1Q10276   5.448   7.396   4.414
  198POPC   C1R10277   5.448   7.535   4.351
  198POPC    CE10278   4.323   7.102   6.044
  198POPC    OG10279   4.276   7.228   5.994
  198POPC   C2A10280   4.151   7.232   5.950
  198POPC    OH10281   4.075   7.136   5.962
  198POPC   C2B10282   4.113   7.365   5.897
  198POPC   C2C10283   4.056   7.359   5.755
  198POPC   C2D10284   4.000   7.496   5.718
  198POPC   C2E10285   3.931   7.498   5.581
  198POPC   C2F10286   3.847   7.625   5.571
  198POPC   C2G10287   3.768   7.635   5.440
  198POPC   C2H10288   3.852   7.691   5.325
  198POPC   C2I10289   3.762   7.720   5.205
  198POPC   C2J10290   3.838   7.794   5.096
  198POPC   C2K10291   3.744   7.839   4.984
  198POPC   C2L10292   3.820   7.917   4.877
  198POPC   C2M10293   3.726   7.962   4.766
  198POPC   C2N10294   3.800   8.042   4.659
  198POPC   C2O10295   3.708   8.090   4.546
  198POPC   C2P10296   3.652   7.974   4.463
  199POPC   CN110297   5.492   6.783   6.952
  199POPC   CN210298   5.380   6.927   6.799
  199POPC   CN310299   5.614   6.880   6.774
  199POPC   NTM10300   5.484   6.823   6.811
  199POPC    CA10301   5.449   6.703   6.731
  199POPC    CB10302   5.417   6.717   6.580
  199POPC    OA10303   5.521   6.775   6.501
  199POPC     P10304   5.463   6.865   6.385
  199POPC    OB10305   5.342   6.932   6.435
  199POPC    OC10306   5.580   6.942   6.341
  199POPC    OD10307   5.420   6.746   6.294
  199POPC    CC10308   5.504   6.720   6.182
  199POPC    CD10309   5.531   6.570   6.158
  199POPC    OE10310   5.590   6.546   6.028
  199POPC   C1A10311   5.684   6.453   6.015
  199POPC    OF10312   5.712   6.377   6.109
  199POPC   C1B10313   5.734   6.442   5.876
  199POPC   C1C10314   5.852   6.534   5.847
  199POPC   C1D10315   5.901   6.513   5.704
  199POPC   C1E10316   6.016   6.608   5.669
  199POPC   C1F10317   6.073   6.585   5.529
  199POPC   C1G10318   5.971   6.616   5.418
  199POPC   C1H10319   6.026   6.590   5.278
  199POPC   C1I10320   6.132   6.692   5.235
  199POPC   C1J10321   6.154   6.714   5.106
  199POPC   C1K10322   6.075   6.638   5.000
  199POPC   C1L10323   6.064   6.720   4.872
  199POPC   C1M10324   5.989   6.649   4.759
  199POPC   C1N10325   6.064   6.525   4.708
  199POPC   C1O10326   6.000   6.465   4.582
  199POPC   C1P10327   6.020   6.556   4.460
  199POPC   C1Q10328   5.961   6.492   4.334
  199POPC   C1R10329   5.984   6.581   4.212
  199POPC    CE10330   5.399   6.493   6.183
  199POPC    OG10331   5.287   6.518   6.094
  199POPC   C2A10332   5.173   6.459   6.128
  199POPC    OH10333   5.168   6.373   6.217
  199POPC   C2B10334   5.057   6.499   6.045
  199POPC   C2C10335   5.049   6.419   5.915
  199POPC   C2D10336   4.922   6.455   5.837
  199POPC   C2E10337   4.926   6.399   5.695
  199POPC   C2F10338   4.795   6.426   5.619
  199POPC   C2G10339   4.763   6.575   5.602
  199POPC   C2H10340   4.848   6.646   5.495
  199POPC   C2I10341   4.802   6.612   5.353
  199POPC   C2J10342   4.877   6.697   5.251
  199POPC   C2K10343   4.818   6.678   5.111
  199POPC   C2L10344   4.888   6.770   5.010
  199POPC   C2M10345   4.820   6.762   4.874
  199POPC   C2N10346   4.884   6.859   4.775
  199POPC   C2O10347   4.809   6.866   4.641
  199POPC   C2P10348   4.815   6.734   4.563
  200POPC   CN110349   7.278   6.456   6.110
  200POPC   CN210350   7.502   6.447   6.185
  200POPC   CN310351   7.455   6.557   5.982
  200POPC   NTM10352   7.404   6.532   6.118
  200POPC    CA10353   7.388   6.656   6.198
  200POPC    CB10354   7.306   6.776   6.143
  200POPC    OA10355   7.172   6.752   6.097
  200POPC     P10356   7.124   6.889   6.034
  200POPC    OB10357   7.104   6.978   6.149
  200POPC    OC10358   7.217   6.918   5.924
  200POPC    OD10359   6.982   6.850   5.980
  200POPC    CC10360   6.992   6.767   5.865
  200POPC    CD10361   6.872   6.775   5.769
  200POPC    OE10362   6.876   6.673   5.665
  200POPC   C1A10363   6.830   6.551   5.691
  200POPC    OF10364   6.791   6.522   5.804
  200POPC   C1B10365   6.844   6.459   5.576
  200POPC   C1C10366   6.734   6.352   5.573
  200POPC   C1D10367   6.751   6.256   5.455
  200POPC   C1E10368   6.877   6.170   5.467
  200POPC   C1F10369   6.889   6.075   5.348
  200POPC   C1G10370   7.010   5.983   5.362
  200POPC   C1H10371   7.010   5.878   5.251
  200POPC   C1I10372   7.128   5.782   5.267
  200POPC   C1J10373   7.119   5.654   5.230
  200POPC   C1K10374   6.989   5.598   5.173
  200POPC   C1L10375   7.010   5.533   5.036
  200POPC   C1M10376   6.882   5.462   4.992
  200POPC   C1N10377   6.890   5.406   4.849
  200POPC   C1O10378   6.886   5.518   4.745
  200POPC   C1P10379   6.881   5.465   4.601
  200POPC   C1Q10380   6.751   5.388   4.572
  200POPC   C1R10381   6.744   5.345   4.426
  200POPC    CE10382   6.868   6.922   5.722
  200POPC    OG10383   6.781   6.957   5.613
  200POPC   C2A10384   6.763   7.086   5.589
  200POPC    OH10385   6.779   7.169   5.678
  200POPC   C2B10386   6.697   7.111   5.459
  200POPC   C2C10387   6.754   7.232   5.385
  200POPC   C2D10388   6.689   7.248   5.248
  200POPC   C2E10389   6.738   7.146   5.144
  200POPC   C2F10390   6.870   7.192   5.080
  200POPC   C2G10391   6.927   7.092   4.979
  200POPC   C2H10392   6.833   7.060   4.863
  200POPC   C2I10393   6.906   6.983   4.753
  200POPC   C2J10394   6.808   6.927   4.649
  200POPC   C2K10395   6.882   6.874   4.526
  200POPC   C2L10396   6.786   6.803   4.431
  200POPC   C2M10397   6.850   6.772   4.295
  200POPC   C2N10398   6.864   6.899   4.210
  200POPC   C2O10399   6.923   6.873   4.071
  200POPC   C2P10400   7.071   6.834   4.077
  201POPC   CN110401   8.037   6.861   5.711
  201POPC   CN210402   7.932   6.661   5.631
  201POPC   CN310403   8.164   6.665   5.677
  201POPC   NTM10404   8.034   6.714   5.722
  201POPC    CA10405   8.011   6.668   5.861
  201POPC    CB10406   7.878   6.698   5.935
  201POPC    OA10407   7.846   6.837   5.940
  201POPC     P10408   7.716   6.875   6.018
  201POPC    OB10409   7.707   6.787   6.135
  201POPC    OC10410   7.731   7.020   6.034
  201POPC    OD10411   7.607   6.836   5.912
  201POPC    CC10412   7.600   6.932   5.806
  201POPC    CD10413   7.559   6.868   5.672
  201POPC    OE10414   7.592   6.950   5.557
  201POPC   C1A10415   7.631   6.885   5.448
  201POPC    OF10416   7.686   6.775   5.459
  201POPC   C1B10417   7.630   6.967   5.325
  201POPC   C1C10418   7.492   6.964   5.258
  201POPC   C1D10419   7.493   7.040   5.126
  201POPC   C1E10420   7.350   7.054   5.073
  201POPC   C1F10421   7.339   7.126   4.938
  201POPC   C1G10422   7.397   7.268   4.942
  201POPC   C1H10423   7.355   7.351   4.821
  201POPC   C1I10424   7.215   7.411   4.839
  201POPC   C1J10425   7.185   7.526   4.780
  201POPC   C1K10426   7.288   7.594   4.689
  201POPC   C1L10427   7.219   7.689   4.591
  201POPC   C1M10428   7.313   7.737   4.480
  201POPC   C1N10429   7.347   7.624   4.382
  201POPC   C1O10430   7.434   7.672   4.265
  201POPC   C1P10431   7.361   7.765   4.168
  201POPC   C1Q10432   7.253   7.693   4.087
  201POPC   C1R10433   7.181   7.789   3.992
  201POPC    CE10434   7.413   6.822   5.688
  201POPC    OG10435   7.351   6.772   5.568
  201POPC   C2A10436   7.246   6.693   5.581
  201POPC    OH10437   7.224   6.633   5.686
  201POPC   C2B10438   7.182   6.661   5.451
  201POPC   C2C10439   7.089   6.773   5.402
  201POPC   C2D10440   7.028   6.739   5.266
  201POPC   C2E10441   7.135   6.738   5.156
  201POPC   C2F10442   7.077   6.695   5.021
  201POPC   C2G10443   7.186   6.700   4.913
  201POPC   C2H10444   7.135   6.649   4.779
  201POPC   C2I10445   7.247   6.657   4.674
  201POPC   C2J10446   7.199   6.608   4.537
  201POPC   C2K10447   7.311   6.621   4.434
  201POPC   C2L10448   7.266   6.581   4.293
  201POPC   C2M10449   7.241   6.431   4.275
  201POPC   C2N10450   7.371   6.350   4.280
  201POPC   C2O10451   7.343   6.201   4.256
  201POPC   C2P10452   7.472   6.119   4.265
  202POPC   CN110453   8.724   6.272   5.911
  202POPC   CN210454   8.779   6.055   5.985
  202POPC   CN310455   8.778   6.234   6.142
  202POPC   NTM10456   8.710   6.178   6.024
  202POPC    CA10457   8.568   6.146   6.054
  202POPC    CB10458   8.472   6.256   6.106
  202POPC    OA10459   8.468   6.371   6.023
  202POPC     P10460   8.371   6.483   6.070
  202POPC    OB10461   8.257   6.487   5.977
  202POPC    OC10462   8.351   6.478   6.216
  202POPC    OD10463   8.470   6.602   6.038
  202POPC    CC10464   8.479   6.622   5.896
  202POPC    CD10465   8.555   6.747   5.848
  202POPC    OE10466   8.537   6.772   5.705
  202POPC   C1A10467   8.541   6.897   5.662
  202POPC    OF10468   8.511   6.989   5.738
  202POPC   C1B10469   8.565   6.912   5.516
  202POPC   C1C10470   8.436   6.905   5.433
  202POPC   C1D10471   8.470   6.933   5.287
  202POPC   C1E10472   8.355   6.897   5.193
  202POPC   C1F10473   8.394   6.926   5.048
  202POPC   C1G10474   8.294   6.862   4.951
  202POPC   C1H10475   8.330   6.897   4.807
  202POPC   C1I10476   8.241   6.821   4.708
  202POPC   C1J10477   8.211   6.872   4.589
  202POPC   C1K10478   8.261   7.011   4.549
  202POPC   C1L10479   8.325   7.007   4.409
  202POPC   C1M10480   8.360   7.149   4.363
  202POPC   C1N10481   8.442   7.149   4.234
  202POPC   C1O10482   8.585   7.102   4.257
  202POPC   C1P10483   8.670   7.119   4.131
  202POPC   C1Q10484   8.816   7.081   4.153
  202POPC   C1R10485   8.888   7.176   4.250
  202POPC    CE10486   8.703   6.725   5.889
  202POPC    OG10487   8.767   6.612   5.827
  202POPC   C2A10488   8.842   6.635   5.720
  202POPC    OH10489   8.865   6.750   5.680
  202POPC   C2B10490   8.892   6.510   5.658
  202POPC   C2C10491   9.033   6.521   5.599
  202POPC   C2D10492   9.080   6.386   5.543
  202POPC   C2E10493   9.013   6.347   5.410
  202POPC   C2F10494   9.071   6.424   5.291
  202POPC   C2G10495   9.003   6.380   5.161
  202POPC   C2H10496   9.061   6.449   5.037
  202POPC   C2I10497   9.202   6.398   5.004
  202POPC   C2J10498   9.261   6.467   4.880
  202POPC   C2K10499   9.299   6.613   4.906
  202POPC   C2L10500   9.365   6.679   4.785
  202POPC   C2M10501   9.267   6.705   4.670
  202POPC   C2N10502   9.336   6.764   4.546
  202POPC   C2O10503   9.394   6.904   4.567
  202POPC   C2P10504   9.286   7.011   4.586
  203POPC   CN110505   9.280   5.627   6.173
  203POPC   CN210506   9.387   5.666   5.966
  203POPC   CN310507   9.279   5.846   6.079
  203POPC   NTM10508   9.359   5.725   6.098
  203POPC    CA10509   9.483   5.755   6.175
  203POPC    CB10510   9.583   5.862   6.124
  203POPC    OA10511   9.640   5.835   5.997
  203POPC     P10512   9.722   5.958   5.940
  203POPC    OB10513   9.786   6.028   6.053
  203POPC    OC10514   9.800   5.905   5.828
  203POPC    OD10515   9.597   6.039   5.888
  203POPC    CC10516   9.557   5.998   5.758
  203POPC    CD10517   9.416   6.043   5.717
  203POPC    OE10518   9.366   5.976   5.599
  203POPC   C1A10519   9.293   5.865   5.613
  203POPC    OF10520   9.258   5.828   5.726
  203POPC   C1B10521   9.247   5.811   5.484
  203POPC   C1C10522   9.123   5.887   5.437
  203POPC   C1D10523   9.100   5.877   5.286
  203POPC   C1E10524   9.212   5.945   5.206
  203POPC   C1F10525   9.177   5.953   5.058
  203POPC   C1G10526   9.300   5.991   4.976
  203POPC   C1H10527   9.268   6.003   4.827
  203POPC   C1I10528   9.398   6.000   4.747
  203POPC   C1J10529   9.413   6.071   4.636
  203POPC   C1K10530   9.304   6.165   4.584
  203POPC   C1L10531   9.364   6.251   4.472
  203POPC   C1M10532   9.264   6.354   4.418
  203POPC   C1N10533   9.321   6.424   4.294
  203POPC   C1O10534   9.325   6.329   4.173
  203POPC   C1P10535   9.402   6.387   4.054
  203POPC   C1Q10536   9.552   6.393   4.082
  203POPC   C1R10537   9.629   6.446   3.961
  203POPC    CE10538   9.412   6.197   5.712
  203POPC    OG10539   9.474   6.265   5.602
  203POPC   C2A10540   9.451   6.396   5.595
  203POPC    OH10541   9.395   6.457   5.686
  203POPC   C2B10542   9.491   6.455   5.465
  203POPC   C2C10543   9.538   6.600   5.477
  203POPC   C2D10544   9.546   6.663   5.339
  203POPC   C2E10545   9.605   6.804   5.346
  203POPC   C2F10546   9.598   6.875   5.210
  203POPC   C2G10547   9.457   6.925   5.179
  203POPC   C2H10548   9.454   6.992   5.041
  203POPC   C2I10549   9.318   7.057   5.010
  203POPC   C2J10550   9.293   7.182   5.094
  203POPC   C2K10551   9.162   7.250   5.051
  203POPC   C2L10552   9.139   7.382   5.126
  203POPC   C2M10553   9.103   7.364   5.273
  203POPC   C2N10554   8.959   7.314   5.292
  203POPC   C2O10555   8.925   7.302   5.440
  203POPC   C2P10556   8.782   7.252   5.459
  204POPC   CN110557  10.222   5.136   5.566
  204POPC   CN210558  10.067   5.318   5.552
  204POPC   CN310559  10.026   5.135   5.701
  204POPC   NTM10560  10.130   5.221   5.643
  204POPC    CA10561  10.211   5.286   5.747
  204POPC    CB10562  10.149   5.394   5.839
  204POPC    OA10563  10.035   5.355   5.916
  204POPC     P10564   9.964   5.483   5.974
  204POPC    OB10565   9.854   5.424   6.053
  204POPC    OC10566  10.071   5.563   6.036
  204POPC    OD10567   9.912   5.546   5.840
  204POPC    CC10568   9.771   5.565   5.841
  204POPC    CD10569   9.701   5.547   5.705
  204POPC    OE10570   9.707   5.411   5.653
  204POPC   C1A10571   9.630   5.315   5.705
  204POPC    OF10572   9.553   5.337   5.799
  204POPC   C1B10573   9.645   5.185   5.635
  204POPC   C1C10574   9.526   5.151   5.546
  204POPC   C1D10575   9.512   5.244   5.425
  204POPC   C1E10576   9.388   5.209   5.343
  204POPC   C1F10577   9.372   5.306   5.226
  204POPC   C1G10578   9.246   5.272   5.145
  204POPC   C1H10579   9.223   5.368   5.028
  204POPC   C1I10580   9.181   5.508   5.074
  204POPC   C1J10581   9.104   5.584   4.996
  204POPC   C1K10582   9.060   5.534   4.859
  204POPC   C1L10583   9.027   5.651   4.766
  204POPC   C1M10584   8.985   5.598   4.628
  204POPC   C1N10585   8.946   5.712   4.534
  204POPC   C1O10586   8.904   5.654   4.398
  204POPC   C1P10587   8.860   5.764   4.302
  204POPC   C1Q10588   8.817   5.704   4.168
  204POPC   C1R10589   8.772   5.812   4.070
  204POPC    CE10590   9.762   5.654   5.613
  204POPC    OG10591   9.668   5.715   5.523
  204POPC   C2A10592   9.717   5.790   5.425
  204POPC    OH10593   9.839   5.797   5.404
  204POPC   C2B10594   9.613   5.860   5.347
  204POPC   C2C10595   9.635   5.855   5.195
  204POPC   C2D10596   9.596   5.720   5.136
  204POPC   C2E10597   9.609   5.724   4.983
  204POPC   C2F10598   9.543   5.603   4.917
  204POPC   C2G10599   9.543   5.620   4.765
  204POPC   C2H10600   9.457   5.514   4.697
  204POPC   C2I10601   9.450   5.534   4.545
  204POPC   C2J10602   9.381   5.666   4.507
  204POPC   C2K10603   9.382   5.687   4.356
  204POPC   C2L10604   9.318   5.822   4.320
  204POPC   C2M10605   9.320   5.849   4.169
  204POPC   C2N10606   9.230   5.753   4.091
  204POPC   C2O10607   9.233   5.785   3.942
  204POPC   C2P10608   9.139   5.693   3.865
  205POPC   CN110609  10.275   6.099   5.876
  205POPC   CN210610  10.200   5.914   6.008
  205POPC   CN310611  10.143   5.927   5.778
  205POPC   NTM10612  10.249   5.954   5.876
  205POPC    CA10613  10.369   5.877   5.835
  205POPC    CB10614  10.498   5.876   5.921
  205POPC    OA10615  10.556   6.002   5.954
  205POPC     P10616  10.705   5.987   6.004
  205POPC    OB10617  10.737   6.099   6.094
  205POPC    OC10618  10.734   5.848   6.042
  205POPC    OD10619  10.769   6.011   5.863
  205POPC    CC10620  10.782   6.150   5.831
  205POPC    CD10621  10.807   6.184   5.683
  205POPC    OE10622  10.843   6.323   5.659
  205POPC   C1A10623  10.970   6.360   5.672
  205POPC    OF10624  11.057   6.279   5.707
  205POPC   C1B10625  10.992   6.505   5.650
  205POPC   C1C10626  11.063   6.541   5.519
  205POPC   C1D10627  10.978   6.521   5.393
  205POPC   C1E10628  11.048   6.587   5.274
  205POPC   C1F10629  10.971   6.571   5.143
  205POPC   C1G10630  11.033   6.660   5.035
  205POPC   C1H10631  10.960   6.647   4.901
  205POPC   C1I10632  11.013   6.749   4.801
  205POPC   C1J10633  11.008   6.726   4.670
  205POPC   C1K10634  10.951   6.595   4.615
  205POPC   C1L10635  10.969   6.580   4.464
  205POPC   C1M10636  10.873   6.669   4.384
  205POPC   C1N10637  10.893   6.657   4.233
  205POPC   C1O10638  11.024   6.721   4.187
  205POPC   C1P10639  11.052   6.700   4.038
  205POPC   C1Q10640  10.954   6.775   3.948
  205POPC   C1R10641  10.983   6.749   3.800
  205POPC    CE10642  10.681   6.140   5.606
  205POPC    OG10643  10.681   6.003   5.562
  205POPC   C2A10644  10.565   5.958   5.516
  205POPC    OH10645  10.458   6.014   5.542
  205POPC   C2B10646  10.577   5.830   5.441
  205POPC   C2C10647  10.594   5.859   5.292
  205POPC   C2D10648  10.587   5.731   5.209
  205POPC   C2E10649  10.602   5.761   5.060
  205POPC   C2F10650  10.600   5.632   4.979
  205POPC   C2G10651  10.626   5.655   4.830
  205POPC   C2H10652  10.513   5.731   4.760
  205POPC   C2I10653  10.542   5.741   4.610
  205POPC   C2J10654  10.433   5.818   4.535
  205POPC   C2K10655  10.470   5.828   4.387
  205POPC   C2L10656  10.368   5.912   4.309
  205POPC   C2M10657  10.413   5.928   4.164
  205POPC   C2N10658  10.317   6.019   4.087
  205POPC   C2O10659  10.366   6.040   3.943
  205POPC   C2P10660  10.272   6.135   3.868
  206POPC   CN110661  11.188   6.494   6.485
  206POPC   CN210662  11.420   6.466   6.516
  206POPC   CN310663  11.273   6.277   6.532
  206POPC   NTM10664  11.300   6.402   6.460
  206POPC    CA10665  11.311   6.381   6.313
  206POPC    CB10666  11.422   6.289   6.255
  206POPC    OA10667  11.556   6.333   6.283
  206POPC     P10668  11.657   6.213   6.295
  206POPC    OB10669  11.780   6.272   6.350
  206POPC    OC10670  11.588   6.103   6.363
  206POPC    OD10671  11.678   6.181   6.142
  206POPC    CC10672  11.760   6.278   6.078
  206POPC    CD10673  11.805   6.241   5.936
  206POPC    OE10674  11.905   6.331   5.882
  206POPC   C1A10675  12.012   6.274   5.827
  206POPC    OF10676  12.050   6.164   5.867
  206POPC   C1B10677  12.092   6.362   5.739
  206POPC   C1C10678  12.067   6.324   5.593
  206POPC   C1D10679  12.165   6.393   5.498
  206POPC   C1E10680  12.137   6.348   5.354
  206POPC   C1F10681  12.239   6.404   5.256
  206POPC   C1G10682  12.204   6.359   5.114
  206POPC   C1H10683  12.304   6.412   5.011
  206POPC   C1I10684  12.268   6.362   4.871
  206POPC   C1J10685  12.295   6.435   4.764
  206POPC   C1K10686  12.364   6.570   4.778
  206POPC   C1L10687  12.317   6.667   4.669
  206POPC   C1M10688  12.393   6.799   4.679
  206POPC   C1N10689  12.351   6.895   4.567
  206POPC   C1O10690  12.440   7.019   4.561
  206POPC   C1P10691  12.584   6.984   4.525
  206POPC   C1Q10692  12.674   7.107   4.509
  206POPC   C1R10693  12.638   7.189   4.385
  206POPC    CE10694  11.675   6.229   5.854
  206POPC    OG10695  11.688   6.161   5.728
  206POPC   C2A10696  11.577   6.142   5.658
  206POPC    OH10697  11.470   6.192   5.694
  206POPC   C2B10698  11.597   6.066   5.533
  206POPC   C2C10699  11.619   6.160   5.414
  206POPC   C2D10700  11.650   6.082   5.287
  206POPC   C2E10701  11.675   6.177   5.170
  206POPC   C2F10702  11.725   6.102   5.047
  206POPC   C2G10703  11.743   6.197   4.929
  206POPC   C2H10704  11.807   6.124   4.811
  206POPC   C2I10705  11.814   6.210   4.684
  206POPC   C2J10706  11.904   6.333   4.701
  206POPC   C2K10707  11.917   6.412   4.570
  206POPC   C2L10708  11.996   6.334   4.464
  206POPC   C2M10709  12.017   6.414   4.335
  206POPC   C2N10710  11.887   6.434   4.257
  206POPC   C2O10711  11.911   6.507   4.124
  206POPC   C2P10712  11.990   6.422   4.024
  207POPC   CN110713  12.280   7.102   6.715
  207POPC   CN210714  12.248   6.867   6.723
  207POPC   CN310715  12.117   7.008   6.864
  207POPC   NTM10716  12.179   6.997   6.731
  207POPC    CA10717  12.079   7.001   6.622
  207POPC    CB10718  11.976   7.115   6.609
  207POPC    OA10719  12.022   7.251   6.604
  207POPC     P10720  11.899   7.348   6.590
  207POPC    OB10721  11.786   7.300   6.671
  207POPC    OC10722  11.957   7.481   6.615
  207POPC    OD10723  11.869   7.326   6.438
  207POPC    CC10724  11.914   7.433   6.355
  207POPC    CD10725  11.956   7.395   6.212
  207POPC    OE10726  12.010   7.511   6.141
  207POPC   C1A10727  12.060   7.497   6.018
  207POPC    OF10728  12.069   7.386   5.964
  207POPC   C1B10729  12.111   7.625   5.962
  207POPC   C1C10730  12.099   7.636   5.809
  207POPC   C1D10731  11.955   7.658   5.762
  207POPC   C1E10732  11.946   7.669   5.609
  207POPC   C1F10733  11.976   7.535   5.541
  207POPC   C1G10734  11.960   7.541   5.389
  207POPC   C1H10735  12.077   7.614   5.322
  207POPC   C1I10736  12.055   7.621   5.170
  207POPC   C1J10737  12.157   7.604   5.086
  207POPC   C1K10738  12.297   7.574   5.139
  207POPC   C1L10739  12.402   7.572   5.027
  207POPC   C1M10740  12.429   7.711   4.968
  207POPC   C1N10741  12.513   7.800   5.061
  207POPC   C1O10742  12.661   7.759   5.066
  207POPC   C1P10743  12.731   7.789   4.934
  207POPC   C1Q10744  12.880   7.753   4.941
  207POPC   C1R10745  12.947   7.780   4.806
  207POPC    CE10746  11.835   7.322   6.150
  207POPC    OG10747  11.722   7.405   6.118
  207POPC   C2A10748  11.619   7.344   6.060
  207POPC    OH10749  11.620   7.222   6.041
  207POPC   C2B10750  11.513   7.437   6.015
  207POPC   C2C10751  11.438   7.378   5.896
  207POPC   C2D10752  11.339   7.477   5.834
  207POPC   C2E10753  11.263   7.406   5.722
  207POPC   C2F10754  11.179   7.505   5.641
  207POPC   C2G10755  11.094   7.432   5.538
  207POPC   C2H10756  11.014   7.530   5.452
  207POPC   C2I10757  11.098   7.582   5.336
  207POPC   C2J10758  11.040   7.714   5.285
  207POPC   C2K10759  11.099   7.753   5.150
  207POPC   C2L10760  11.080   7.903   5.127
  207POPC   C2M10761  11.086   7.939   4.978
  207POPC   C2N10762  10.951   7.919   4.909
  207POPC   C2O10763  10.847   8.020   4.959
  207POPC   C2P10764  10.711   7.996   4.893
  208POPC   CN110765  12.859   6.901   6.159
  208POPC   CN210766  12.972   6.787   5.985
  208POPC   CN310767  12.980   7.026   5.996
  208POPC   NTM10768  12.980   6.902   6.076
  208POPC    CA10769  13.098   6.891   6.164
  208POPC    CB10770  13.241   6.909   6.107
  208POPC    OA10771  13.283   6.824   6.001
  208POPC     P10772  13.404   6.884   5.920
  208POPC    OB10773  13.494   6.943   6.021
  208POPC    OC10774  13.449   6.770   5.839
  208POPC    OD10775  13.322   6.989   5.836
  208POPC    CC10776  13.288   6.937   5.707
  208POPC    CD10777  13.193   7.022   5.620
  208POPC    OE10778  13.149   6.947   5.504
  208POPC   C1A10779  13.022   6.951   5.465
  208POPC    OF10780  12.937   7.007   5.535
  208POPC   C1B10781  12.994   6.863   5.348
  208POPC   C1C10782  13.023   6.928   5.213
  208POPC   C1D10783  12.920   7.034   5.174
  208POPC   C1E10784  12.948   7.088   5.033
  208POPC   C1F10785  12.843   7.191   4.993
  208POPC   C1G10786  12.874   7.252   4.856
  208POPC   C1H10787  12.774   7.363   4.822
  208POPC   C1I10788  12.812   7.432   4.691
  208POPC   C1J10789  12.719   7.495   4.619
  208POPC   C1K10790  12.574   7.494   4.665
  208POPC   C1L10791  12.479   7.532   4.552
  208POPC   C1M10792  12.333   7.526   4.598
  208POPC   C1N10793  12.235   7.574   4.490
  208POPC   C1O10794  12.232   7.481   4.368
  208POPC   C1P10795  12.140   7.538   4.260
  208POPC   C1Q10796  12.144   7.451   4.134
  208POPC   C1R10797  12.055   7.511   4.024
  208POPC    CE10798  13.263   7.156   5.591
  208POPC    OG10799  13.388   7.149   5.518
  208POPC   C2A10800  13.441   7.264   5.478
  208POPC    OH10801  13.386   7.372   5.499
  208POPC   C2B10802  13.565   7.246   5.400
  208POPC   C2C10803  13.533   7.226   5.252
  208POPC   C2D10804  13.657   7.197   5.168
  208POPC   C2E10805  13.617   7.169   5.023
  208POPC   C2F10806  13.737   7.131   4.936
  208POPC   C2G10807  13.691   7.098   4.794
  208POPC   C2H10808  13.808   7.060   4.704
  208POPC   C2I10809  13.760   7.035   4.561
  208POPC   C2J10810  13.877   7.005   4.465
  208POPC   C2K10811  13.942   6.869   4.492
  208POPC   C2L10812  14.062   6.849   4.400
  208POPC   C2M10813  14.128   6.713   4.425
  208POPC   C2N10814  14.258   6.695   4.345
  208POPC   C2O10815  14.235   6.692   4.194
  208POPC   C2P10816  14.367   6.675   4.118
  209POPC   CN110817  13.570   7.768   6.266
  209POPC   CN210818  13.524   7.688   6.049
  209POPC   CN310819  13.661   7.559   6.197
  209POPC   NTM10820  13.543   7.647   6.188
  209POPC    CA10821  13.421   7.582   6.242
  209POPC    CB10822  13.375   7.445   6.187
  209POPC    OA10823  13.346   7.437   6.047
  209POPC     P10824  13.326   7.288   5.999
  209POPC    OB10825  13.264   7.217   6.112
  209POPC    OC10826  13.255   7.306   5.872
  209POPC    OD10827  13.478   7.252   5.985
  209POPC    CC10828  13.535   7.293   5.861
  209POPC    CD10829  13.684   7.259   5.851
  209POPC    OE10830  13.758   7.335   5.751
  209POPC   C1A10831  13.808   7.455   5.782
  209POPC    OF10832  13.794   7.503   5.895
  209POPC   C1B10833  13.887   7.513   5.671
  209POPC   C1C10834  13.838   7.651   5.625
  209POPC   C1D10835  13.700   7.644   5.560
  209POPC   C1E10836  13.660   7.782   5.507
  209POPC   C1F10837  13.523   7.782   5.439
  209POPC   C1G10838  13.519   7.694   5.313
  209POPC   C1H10839  13.380   7.701   5.250
  209POPC   C1I10840  13.365   7.602   5.135
  209POPC   C1J10841  13.246   7.547   5.115
  209POPC   C1K10842  13.131   7.585   5.209
  209POPC   C1L10843  13.029   7.472   5.223
  209POPC   C1M10844  12.921   7.512   5.323
  209POPC   C1N10845  12.811   7.406   5.332
  209POPC   C1O10846  12.706   7.445   5.436
  209POPC   C1P10847  12.592   7.343   5.439
  209POPC   C1Q10848  12.489   7.374   5.548
  209POPC   C1R10849  12.414   7.505   5.524
  209POPC    CE10850  13.698   7.106   5.838
  209POPC    OG10851  13.639   7.047   5.721
  209POPC   C2A10852  13.685   6.929   5.682
  209POPC    OH10853  13.762   6.863   5.752
  209POPC   C2B10854  13.636   6.890   5.548
  209POPC   C2C10855  13.642   6.739   5.518
  209POPC   C2D10856  13.620   6.712   5.369
  209POPC   C2E10857  13.733   6.773   5.285
  209POPC   C2F10858  13.708   6.771   5.134
  209POPC   C2G10859  13.730   6.635   5.069
  209POPC   C2H10860  13.728   6.653   4.917
  209POPC   C2I10861  13.758   6.523   4.842
  209POPC   C2J10862  13.760   6.552   4.691
  209POPC   C2K10863  13.783   6.428   4.605
  209POPC   C2L10864  13.924   6.370   4.619
  209POPC   C2M10865  13.948   6.253   4.523
  209POPC   C2N10866  13.862   6.131   4.557
  209POPC   C2O10867  13.879   6.017   4.456
  209POPC   C2P10868  14.020   5.957   4.455
  210POPC   CN110869  15.153   7.716   5.840
  210POPC   CN210870  15.145   7.873   6.018
  210POPC   CN310871  14.948   7.758   5.954
  210POPC   NTM10872  15.093   7.744   5.970
  210POPC    CA10873  15.129   7.638   6.069
  210POPC    CB10874  15.096   7.489   6.044
  210POPC    OA10875  14.957   7.460   6.028
  210POPC     P10876  14.933   7.309   5.991
  210POPC    OB10877  15.026   7.228   6.071
  210POPC    OC10878  14.790   7.278   5.997
  210POPC    OD10879  14.979   7.310   5.841
  210POPC    CC10880  14.890   7.379   5.753
  210POPC    CD10881  14.938   7.377   5.606
  210POPC    OE10882  14.849   7.441   5.511
  210POPC   C1A10883  14.845   7.573   5.496
  210POPC    OF10884  14.876   7.648   5.588
  210POPC   C1B10885  14.773   7.612   5.373
  210POPC   C1C10886  14.864   7.668   5.263
  210POPC   C1D10887  14.868   7.821   5.269
  210POPC   C1E10888  14.940   7.887   5.151
  210POPC   C1F10889  14.884   7.844   5.014
  210POPC   C1G10890  14.902   7.948   4.903
  210POPC   C1H10891  15.047   7.988   4.877
  210POPC   C1I10892  15.058   8.082   4.757
  210POPC   C1J10893  15.062   8.215   4.768
  210POPC   C1K10894  15.058   8.285   4.904
  210POPC   C1L10895  14.989   8.422   4.897
  210POPC   C1M10896  15.066   8.528   4.818
  210POPC   C1N10897  15.195   8.570   4.889
  210POPC   C1O10898  15.268   8.680   4.811
  210POPC   C1P10899  15.392   8.727   4.887
  210POPC   C1Q10900  15.469   8.836   4.812
  210POPC   C1R10901  15.537   8.783   4.685
  210POPC    CE10902  14.959   7.227   5.576
  210POPC    OG10903  15.026   7.192   5.454
  210POPC   C2A10904  15.009   7.067   5.410
  210POPC    OH10905  14.936   6.987   5.470
  210POPC   C2B10906  15.083   7.040   5.285
  210POPC   C2C10907  14.997   7.070   5.162
  210POPC   C2D10908  15.081   7.075   5.034
  210POPC   C2E10909  15.178   7.194   5.037
  210POPC   C2F10910  15.270   7.203   4.916
  210POPC   C2G10911  15.197   7.238   4.787
  210POPC   C2H10912  15.300   7.275   4.680
  210POPC   C2I10913  15.237   7.304   4.544
  210POPC   C2J10914  15.346   7.344   4.445
  210POPC   C2K10915  15.296   7.340   4.301
  210POPC   C2L10916  15.410   7.371   4.204
  210POPC   C2M10917  15.370   7.345   4.058
  210POPC   C2N10918  15.260   7.439   4.009
  210POPC   C2O10919  15.213   7.404   3.867
  210POPC   C2P10920  15.135   7.273   3.863
  211POPC   CN110921  15.357   6.846   6.294
  211POPC   CN210922  15.131   6.927   6.286
  211POPC   CN310923  15.213   6.816   6.479
  211POPC   NTM10924  15.249   6.909   6.372
  211POPC    CA10925  15.289   7.038   6.432
  211POPC    CB10926  15.338   7.155   6.343
  211POPC    OA10927  15.462   7.130   6.276
  211POPC     P10928  15.521   7.255   6.204
  211POPC    OB10929  15.489   7.372   6.287
  211POPC    OC10930  15.661   7.225   6.172
  211POPC    OD10931  15.432   7.251   6.075
  211POPC    CC10932  15.480   7.153   5.982
  211POPC    CD10933  15.373   7.085   5.896
  211POPC    OE10934  15.429   6.977   5.815
  211POPC   C1A10935  15.348   6.902   5.740
  211POPC    OF10936  15.228   6.893   5.768
  211POPC   C1B10937  15.416   6.816   5.640
  211POPC   C1C10938  15.506   6.891   5.540
  211POPC   C1D10939  15.430   6.996   5.458
  211POPC   C1E10940  15.522   7.063   5.356
  211POPC   C1F10941  15.544   6.975   5.233
  211POPC   C1G10942  15.665   7.019   5.150
  211POPC   C1H10943  15.657   7.162   5.096
  211POPC   C1I10944  15.787   7.196   5.025
  211POPC   C1J10945  15.792   7.290   4.930
  211POPC   C1K10946  15.666   7.368   4.892
  211POPC   C1L10947  15.662   7.402   4.742
  211POPC   C1M10948  15.772   7.499   4.698
  211POPC   C1N10949  15.764   7.523   4.548
  211POPC   C1O10950  15.875   7.615   4.496
  211POPC   C1P10951  15.859   7.759   4.545
  211POPC   C1Q10952  15.964   7.852   4.483
  211POPC   C1R10953  15.941   7.871   4.333
  211POPC    CE10954  15.301   7.199   5.821
  211POPC    OG10955  15.382   7.268   5.724
  211POPC   C2A10956  15.339   7.387   5.685
  211POPC    OH10957  15.249   7.445   5.744
  211POPC   C2B10958  15.421   7.445   5.576
  211POPC   C2C10959  15.355   7.432   5.438
  211POPC   C2D10960  15.450   7.488   5.332
  211POPC   C2E10961  15.395   7.487   5.190
  211POPC   C2F10962  15.278   7.585   5.170
  211POPC   C2G10963  15.243   7.603   5.022
  211POPC   C2H10964  15.355   7.674   4.946
  211POPC   C2I10965  15.324   7.687   4.796
  211POPC   C2J10966  15.439   7.758   4.725
  211POPC   C2K10967  15.420   7.766   4.573
  211POPC   C2L10968  15.305   7.859   4.533
  211POPC   C2M10969  15.295   7.868   4.381
  211POPC   C2N10970  15.181   7.959   4.334
  211POPC   C2O10971  15.202   8.105   4.372
  211POPC   C2P10972  15.086   8.192   4.323
  212POPC   CN110973  16.842   6.753   6.119
  212POPC   CN210974  16.660   6.876   6.213
  212POPC   CN310975  16.841   6.993   6.118
  212POPC   NTM10976  16.758   6.873   6.103
  212POPC    CA10977  16.695   6.876   5.969
  212POPC    CB10978  16.608   6.758   5.918
  212POPC    OA10979  16.495   6.723   5.997
  212POPC     P10980  16.404   6.615   5.926
  212POPC    OB10981  16.486   6.527   5.842
  212POPC    OC10982  16.310   6.566   6.026
  212POPC    OD10983  16.324   6.715   5.834
  212POPC    CC10984  16.291   6.660   5.706
  212POPC    CD10985  16.242   6.767   5.606
  212POPC    OE10986  16.183   6.718   5.483
  212POPC   C1A10987  16.054   6.686   5.477
  212POPC    OF10988  15.985   6.682   5.580
  212POPC   C1B10989  16.012   6.641   5.342
  212POPC   C1C10990  15.876   6.697   5.301
  212POPC   C1D10991  15.832   6.647   5.163
  212POPC   C1E10992  15.790   6.499   5.166
  212POPC   C1F10993  15.755   6.445   5.027
  212POPC   C1G10994  15.879   6.433   4.938
  212POPC   C1H10995  15.848   6.378   4.798
  212POPC   C1I10996  15.767   6.475   4.712
  212POPC   C1J10997  15.722   6.438   4.593
  212POPC   C1K10998  15.751   6.298   4.539
  212POPC   C1L10999  15.745   6.295   4.386
  212POPC   C1M11000  15.766   6.153   4.334
  212POPC   C1N11001  15.750   6.142   4.182
  212POPC   C1O11002  15.860   6.216   4.105
  212POPC   C1P11003  15.855   6.187   3.954
  212POPC   C1Q11004  15.732   6.246   3.883
  212POPC   C1R11005  15.741   6.398   3.870
  212POPC    CE11006  16.361   6.864   5.589
  212POPC    OG11007  16.482   6.807   5.537
  212POPC   C2A11008  16.595   6.874   5.557
  212POPC    OH11009  16.601   6.962   5.644
  212POPC   C2B11010  16.711   6.819   5.484
  212POPC   C2C11011  16.723   6.886   5.347
  212POPC   C2D11012  16.839   6.829   5.265
  212POPC   C2E11013  16.844   6.896   5.127
  212POPC   C2F11014  16.952   6.832   5.040
  212POPC   C2G11015  16.951   6.890   4.898
  212POPC   C2H11016   0.076   6.824   4.813
  212POPC   C2I11017   0.084   6.882   4.672
  212POPC   C2J11018  16.951   6.841   4.582
  212POPC   C2K11019  16.967   6.906   4.444
  212POPC   C2L11020  16.858   6.865   4.344
  212POPC   C2M11021  16.872   6.722   4.291
  212POPC   C2N11022   0.013   6.704   4.204
  212POPC   C2O11023   0.021   6.565   4.139
  212POPC   C2P11024  16.898   6.546   4.031
  213POPC   CN111025   0.912   7.231   6.219
  213POPC   CN211026   0.716   7.210   6.090
  213POPC   CN311027   0.703   7.194   6.328
  213POPC   NTM11028   0.769   7.263   6.216
  213POPC    CA11029   0.756   7.411   6.225
  213POPC    CB11030   0.616   7.478   6.220
  213POPC    OA11031   0.544   7.460   6.098
  213POPC     P11032   0.390   7.480   6.121
  213POPC    OB11033   0.352   7.421   6.250
  213POPC    OC11034   0.338   7.608   6.074
  213POPC    OD11035   0.342   7.369   6.021
  213POPC    CC11036   0.359   7.407   5.884
  213POPC    CD11037   0.375   7.287   5.790
  213POPC    OE11038   0.400   7.324   5.651
  213POPC   C1A11039   0.526   7.342   5.612
  213POPC    OF11040   0.619   7.324   5.691
  213POPC   C1B11041   0.541   7.380   5.470
  213POPC   C1C11042   0.567   7.258   5.381
  213POPC   C1D11043   0.577   7.299   5.234
  213POPC   C1E11044   0.604   7.178   5.145
  213POPC   C1F11045   0.605   7.219   4.997
  213POPC   C1G11046   0.632   7.098   4.907
  213POPC   C1H11047   0.627   7.133   4.758
  213POPC   C1I11048   0.484   7.164   4.711
  213POPC   C1J11049   0.446   7.130   4.588
  213POPC   C1K11050   0.544   7.063   4.491
  213POPC   C1L11051   0.481   6.945   4.416
  213POPC   C1M11052   0.459   6.825   4.509
  213POPC   C1N11053   0.382   6.713   4.439
  213POPC   C1O11054   0.347   6.604   4.539
  213POPC   C1P11055   0.253   6.501   4.477
  213POPC   C1Q11056   0.206   6.400   4.582
  213POPC   C1R11057   0.104   6.304   4.522
  213POPC    CE11058   0.255   7.194   5.812
  213POPC    OG11059   0.125   7.250   5.785
  213POPC   C2A11060   0.022   7.165   5.793
  213POPC    OH11061   0.033   7.058   5.855
  213POPC   C2B11062  16.880   7.216   5.733
  213POPC   C2C11063  16.872   7.193   5.581
  213POPC   C2D11064  16.966   7.287   5.504
  213POPC   C2E11065   0.002   7.245   5.359
  213POPC   C2F11066   0.114   7.329   5.298
  213POPC   C2G11067   0.158   7.280   5.160
  213POPC   C2H11068   0.058   7.313   5.048
  213POPC   C2I11069   0.122   7.277   4.914
  213POPC   C2J11070   0.033   7.314   4.795
  213POPC   C2K11071   0.108   7.283   4.666
  213POPC   C2L11072   0.027   7.316   4.540
  213POPC   C2M11073   0.111   7.287   4.416
  213POPC   C2N11074   0.038   7.325   4.288
  213POPC   C2O11075   0.127   7.300   4.166
  213POPC   C2P11076   0.061   7.348   4.037
  214POPC   CN111077   1.952   7.177   5.969
  214POPC   CN211078   1.798   7.108   6.138
  214POPC   CN311079   1.843   6.970   5.946
  214POPC   NTM11080   1.902   7.061   6.045
  214POPC    CA11081   2.018   7.002   6.117
  214POPC    CB11082   2.005   6.871   6.198
  214POPC    OA11083   1.962   6.761   6.118
  214POPC     P11084   2.003   6.623   6.178
  214POPC    OB11085   2.150   6.624   6.189
  214POPC    OC11086   1.915   6.607   6.295
  214POPC    OD11087   1.955   6.533   6.060
  214POPC    CC11088   2.036   6.554   5.944
  214POPC    CD11089   2.016   6.451   5.831
  214POPC    OE11090   2.117   6.465   5.727
  214POPC   C1A11091   2.218   6.379   5.724
  214POPC    OF11092   2.210   6.273   5.786
  214POPC   C1B11093   2.334   6.420   5.641
  214POPC   C1C11094   2.301   6.478   5.503
  214POPC   C1D11095   2.423   6.554   5.452
  214POPC   C1E11096   2.409   6.612   5.311
  214POPC   C1F11097   2.417   6.503   5.204
  214POPC   C1G11098   2.439   6.564   5.066
  214POPC   C1H11099   2.457   6.455   4.960
  214POPC   C1I11100   2.503   6.513   4.826
  214POPC   C1J11101   2.423   6.515   4.720
  214POPC   C1K11102   2.281   6.459   4.726
  214POPC   C1L11103   2.191   6.531   4.627
  214POPC   C1M11104   2.051   6.469   4.625
  214POPC   C1N11105   1.961   6.532   4.518
  214POPC   C1O11106   1.922   6.677   4.550
  214POPC   C1P11107   1.831   6.737   4.443
  214POPC   C1Q11108   1.904   6.758   4.310
  214POPC   C1R11109   1.812   6.822   4.206
  214POPC    CE11110   1.870   6.457   5.785
  214POPC    OG11111   1.824   6.580   5.725
  214POPC   C2A11112   1.705   6.576   5.666
  214POPC    OH11113   1.625   6.487   5.695
  214POPC   C2B11114   1.675   6.696   5.585
  214POPC   C2C11115   1.594   6.660   5.460
  214POPC   C2D11116   1.580   6.780   5.367
  214POPC   C2E11117   1.502   6.744   5.240
  214POPC   C2F11118   1.512   6.856   5.137
  214POPC   C2G11119   1.448   6.813   5.005
  214POPC   C2H11120   1.476   6.914   4.893
  214POPC   C2I11121   1.424   6.859   4.760
  214POPC   C2J11122   1.462   6.949   4.642
  214POPC   C2K11123   1.416   6.884   4.511
  214POPC   C2L11124   1.459   6.963   4.387
  214POPC   C2M11125   1.387   7.098   4.374
  214POPC   C2N11126   1.429   7.168   4.245
  214POPC   C2O11127   1.357   7.302   4.230
  214POPC   C2P11128   1.399   7.373   4.102
  215POPC   CN111129   1.198   7.818   5.965
  215POPC   CN211130   1.174   8.043   6.032
  215POPC   CN311131   1.067   7.872   6.158
  215POPC   NTM11132   1.189   7.906   6.082
  215POPC    CA11133   1.311   7.899   6.166
  215POPC    CB11134   1.350   7.769   6.239
  215POPC    OA11135   1.359   7.654   6.156
  215POPC     P11136   1.447   7.541   6.221
  215POPC    OB11137   1.569   7.604   6.273
  215POPC    OC11138   1.353   7.472   6.310
  215POPC    OD11139   1.476   7.452   6.097
  215POPC    CC11140   1.548   7.523   5.997
  215POPC    CD11141   1.592   7.436   5.879
  215POPC    OE11142   1.686   7.503   5.789
  215POPC   C1A11143   1.813   7.516   5.829
  215POPC    OF11144   1.851   7.458   5.932
  215POPC   C1B11145   1.904   7.599   5.745
  215POPC   C1C11146   1.876   7.602   5.595
  215POPC   C1D11147   1.989   7.675   5.523
  215POPC   C1E11148   1.957   7.696   5.375
  215POPC   C1F11149   2.076   7.754   5.297
  215POPC   C1G11150   2.123   7.890   5.348
  215POPC   C1H11151   2.234   7.949   5.260
  215POPC   C1I11152   2.180   8.002   5.127
  215POPC   C1J11153   2.247   7.985   5.013
  215POPC   C1K11154   2.380   7.910   5.012
  215POPC   C1L11155   2.469   7.947   4.893
  215POPC   C1M11156   2.414   7.894   4.760
  215POPC   C1N11157   2.514   7.922   4.647
  215POPC   C1O11158   2.467   7.860   4.515
  215POPC   C1P11159   2.574   7.875   4.407
  215POPC   C1Q11160   2.531   7.806   4.278
  215POPC   C1R11161   2.641   7.814   4.172
  215POPC    CE11162   1.464   7.375   5.819
  215POPC    OG11163   1.363   7.465   5.769
  215POPC   C2A11164   1.249   7.409   5.731
  215POPC    OH11165   1.227   7.288   5.746
  215POPC   C2B11166   1.152   7.504   5.672
  215POPC   C2C11167   1.164   7.507   5.520
  215POPC   C2D11168   1.040   7.572   5.457
  215POPC   C2E11169   1.048   7.571   5.305
  215POPC   C2F11170   0.912   7.610   5.245
  215POPC   C2G11171   0.913   7.609   5.092
  215POPC   C2H11172   0.984   7.731   5.032
  215POPC   C2I11173   0.972   7.730   4.880
  215POPC   C2J11174   1.017   7.862   4.819
  215POPC   C2K11175   0.994   7.861   4.667
  215POPC   C2L11176   1.023   7.999   4.606
  215POPC   C2M11177   0.999   8.002   4.455
  215POPC   C2N11178   0.852   7.983   4.415
  215POPC   C2O11179   0.765   8.103   4.455
  215POPC   C2P11180   0.618   8.078   4.417
  216POPC   CN111181   3.413   7.302   6.237
  216POPC   CN211182   3.278   7.120   6.316
  216POPC   CN311183   3.497   7.150   6.398
  216POPC   NTM11184   3.376   7.222   6.355
  216POPC    CA11185   3.329   7.305   6.467
  216POPC    CB11186   3.209   7.402   6.450
  216POPC    OA11187   3.085   7.343   6.411
  216POPC     P11188   2.980   7.454   6.374
  216POPC    OB11189   2.960   7.521   6.504
  216POPC    OC11190   3.044   7.519   6.258
  216POPC    OD11191   2.869   7.351   6.340
  216POPC    CC11192   2.876   7.306   6.205
  216POPC    CD11193   2.801   7.175   6.180
  216POPC    OE11194   2.837   7.115   6.052
  216POPC   C1A11195   2.821   6.984   6.039
  216POPC    OF11196   2.847   6.913   6.137
  216POPC   C1B11197   2.817   6.934   5.898
  216POPC   C1C11198   2.766   7.032   5.792
  216POPC   C1D11199   2.758   6.963   5.656
  216POPC   C1E11200   2.744   7.065   5.542
  216POPC   C1F11201   2.732   6.994   5.407
  216POPC   C1G11202   2.751   7.094   5.292
  216POPC   C1H11203   2.732   7.028   5.156
  216POPC   C1I11204   2.776   7.121   5.044
  216POPC   C1J11205   2.712   7.125   4.927
  216POPC   C1K11206   2.588   7.039   4.902
  216POPC   C1L11207   2.497   7.106   4.799
  216POPC   C1M11208   2.364   7.033   4.779
  216POPC   C1N11209   2.377   6.899   4.705
  216POPC   C1O11210   2.409   6.913   4.556
  216POPC   C1P11211   2.293   6.972   4.476
  216POPC   C1Q11212   2.331   6.984   4.328
  216POPC   C1R11213   2.216   7.043   4.246
  216POPC    CE11214   2.651   7.203   6.203
  216POPC    OG11215   2.588   7.295   6.112
  216POPC   C2A11216   2.456   7.309   6.121
  216POPC    OH11217   2.389   7.255   6.209
  216POPC   C2B11218   2.400   7.397   6.017
  216POPC   C2C11219   2.357   7.317   5.893
  216POPC   C2D11220   2.270   7.405   5.803
  216POPC   C2E11221   2.221   7.336   5.675
  216POPC   C2F11222   2.331   7.322   5.569
  216POPC   C2G11223   2.269   7.294   5.432
  216POPC   C2H11224   2.375   7.289   5.322
  216POPC   C2I11225   2.315   7.290   5.181
  216POPC   C2J11226   2.247   7.424   5.150
  216POPC   C2K11227   2.185   7.430   5.009
  216POPC   C2L11228   2.291   7.436   4.899
  216POPC   C2M11229   2.226   7.441   4.761
  216POPC   C2N11230   2.333   7.445   4.651
  216POPC   C2O11231   2.269   7.443   4.512
  216POPC   C2P11232   2.376   7.442   4.403
  217POPC   CN111233   3.730   6.776   6.057
  217POPC   CN211234   3.949   6.865   6.042
  217POPC   CN311235   3.776   6.989   6.150
  217POPC   NTM11236   3.831   6.854   6.129
  217POPC    CA11237   3.860   6.783   6.255
  217POPC    CB11238   3.977   6.829   6.346
  217POPC    OA11239   3.973   6.966   6.385
  217POPC     P11240   4.116   7.019   6.424
  217POPC    OB11241   4.131   6.957   6.556
  217POPC    OC11242   4.197   6.982   6.308
  217POPC    OD11243   4.075   7.169   6.433
  217POPC    CC11244   4.049   7.226   6.305
  217POPC    CD11245   3.987   7.367   6.315
  217POPC    OE11246   3.922   7.416   6.195
  217POPC   C1A11247   3.796   7.383   6.169
  217POPC    OF11248   3.732   7.311   6.246
  217POPC   C1B11249   3.743   7.450   6.048
  217POPC   C1C11250   3.654   7.358   5.964
  217POPC   C1D11251   3.600   7.432   5.842
  217POPC   C1E11252   3.512   7.340   5.758
  217POPC   C1F11253   3.476   7.405   5.624
  217POPC   C1G11254   3.401   7.306   5.535
  217POPC   C1H11255   3.383   7.362   5.394
  217POPC   C1I11256   3.316   7.258   5.304
  217POPC   C1J11257   3.354   7.244   5.177
  217POPC   C1K11258   3.464   7.332   5.118
  217POPC   C1L11259   3.569   7.248   5.044
  217POPC   C1M11260   3.670   7.337   4.971
  217POPC   C1N11261   3.609   7.398   4.844
  217POPC   C1O11262   3.699   7.503   4.779
  217POPC   C1P11263   3.834   7.448   4.731
  217POPC   C1Q11264   3.919   7.560   4.670
  217POPC   C1R11265   4.055   7.507   4.626
  217POPC    CE11266   4.097   7.457   6.372
  217POPC    OG11267   4.214   7.476   6.290
  217POPC   C2A11268   4.293   7.578   6.319
  217POPC    OH11269   4.276   7.641   6.424
  217POPC   C2B11270   4.408   7.599   6.229
  217POPC   C2C11271   4.396   7.553   6.083
  217POPC   C2D11272   4.535   7.561   6.020
  217POPC   C2E11273   4.544   7.499   5.880
  217POPC   C2F11274   4.691   7.504   5.837
  217POPC   C2G11275   4.719   7.442   5.700
  217POPC   C2H11276   4.659   7.522   5.584
  217POPC   C2I11277   4.726   7.480   5.453
  217POPC   C2J11278   4.668   7.552   5.331
  217POPC   C2K11279   4.534   7.491   5.289
  217POPC   C2L11280   4.478   7.562   5.165
  217POPC   C2M11281   4.365   7.483   5.098
  217POPC   C2N11282   4.243   7.463   5.188
  217POPC   C2O11283   4.135   7.382   5.114
  217POPC   C2P11284   4.015   7.356   5.205
  218POPC   CN111285   4.887   7.126   6.249
  218POPC   CN211286   5.103   7.199   6.183
  218POPC   CN311287   4.958   7.346   6.304
  218POPC   NTM11288   5.002   7.207   6.290
  218POPC    CA11289   5.052   7.155   6.419
  218POPC    CB11290   5.187   7.202   6.478
  218POPC    OA11291   5.213   7.342   6.483
  218POPC     P11292   5.326   7.375   6.587
  218POPC    OB11293   5.329   7.520   6.613
  218POPC    OC11294   5.312   7.285   6.701
  218POPC    OD11295   5.452   7.338   6.500
  218POPC    CC11296   5.483   7.442   6.406
  218POPC    CD11297   5.587   7.404   6.298
  218POPC    OE11298   5.613   7.513   6.206
  218POPC   C1A11299   5.716   7.595   6.224
  218POPC    OF11300   5.804   7.573   6.307
  218POPC   C1B11301   5.721   7.704   6.123
  218POPC   C1C11302   5.821   7.670   6.013
  218POPC   C1D11303   5.830   7.780   5.908
  218POPC   C1E11304   5.945   7.750   5.812
  218POPC   C1F11305   5.964   7.856   5.703
  218POPC   C1G11306   5.849   7.859   5.602
  218POPC   C1H11307   5.889   7.931   5.472
  218POPC   C1I11308   5.988   7.847   5.391
  218POPC   C1J11309   6.018   7.874   5.265
  218POPC   C1K11310   5.957   7.993   5.191
  218POPC   C1L11311   5.954   7.966   5.041
  218POPC   C1M11312   5.900   8.087   4.964
  218POPC   C1N11313   5.886   8.054   4.815
  218POPC   C1O11314   5.828   8.173   4.739
  218POPC   C1P11315   5.800   8.135   4.594
  218POPC   C1Q11316   5.744   8.254   4.516
  218POPC   C1R11317   5.709   8.213   4.373
  218POPC    CE11318   5.527   7.279   6.231
  218POPC    OG11319   5.613   7.205   6.143
  218POPC   C2A11320   5.558   7.102   6.079
  218POPC    OH11321   5.436   7.080   6.085
  218POPC   C2B11322   5.654   7.026   5.996
  218POPC   C2C11323   5.664   7.082   5.854
  218POPC   C2D11324   5.767   7.002   5.774
  218POPC   C2E11325   5.792   7.063   5.636
  218POPC   C2F11326   5.907   6.987   5.569
  218POPC   C2G11327   5.952   7.051   5.438
  218POPC   C2H11328   5.854   7.032   5.322
  218POPC   C2I11329   5.914   7.093   5.195
  218POPC   C2J11330   5.833   7.058   5.070
  218POPC   C2K11331   5.905   7.109   4.945
  218POPC   C2L11332   5.841   7.053   4.818
  218POPC   C2M11333   5.925   7.089   4.696
  218POPC   C2N11334   5.874   7.017   4.571
  218POPC   C2O11335   5.966   7.045   4.452
  218POPC   C2P11336   5.921   6.967   4.328
  219POPC   CN111337   6.118   7.165   6.358
  219POPC   CN211338   5.943   7.270   6.477
  219POPC   CN311339   5.905   7.185   6.257
  219POPC   NTM11340   5.974   7.160   6.385
  219POPC    CA11341   5.932   7.033   6.448
  219POPC    CB11342   5.914   6.904   6.366
  219POPC    OA11343   6.022   6.862   6.282
  219POPC     P11344   5.973   6.738   6.197
  219POPC    OB11345   5.970   6.631   6.298
  219POPC    OC11346   5.849   6.782   6.133
  219POPC    OD11347   6.093   6.729   6.096
  219POPC    CC11348   6.074   6.820   5.987
  219POPC    CD11349   6.160   6.947   5.993
  219POPC    OE11350   6.101   7.059   5.922
  219POPC   C1A11351   6.145   7.182   5.950
  219POPC    OF11352   6.226   7.200   6.040
  219POPC   C1B11353   6.085   7.288   5.865
  219POPC   C1C11354   6.174   7.314   5.743
  219POPC   C1D11355   6.119   7.430   5.659
  219POPC   C1E11356   6.208   7.459   5.537
  219POPC   C1F11357   6.198   7.349   5.431
  219POPC   C1G11358   6.289   7.378   5.312
  219POPC   C1H11359   6.268   7.279   5.197
  219POPC   C1I11360   6.316   7.137   5.228
  219POPC   C1J11361   6.335   7.052   5.127
  219POPC   C1K11362   6.306   7.100   4.985
  219POPC   C1L11363   6.379   7.016   4.880
  219POPC   C1M11364   6.346   7.069   4.740
  219POPC   C1N11365   6.406   6.986   4.627
  219POPC   C1O11366   6.344   6.846   4.618
  219POPC   C1P11367   6.396   6.767   4.497
  219POPC   C1Q11368   6.349   6.828   4.365
  219POPC   C1R11369   6.409   6.755   4.245
  219POPC    CE11370   6.303   6.904   5.953
  219POPC    OG11371   6.316   6.856   5.818
  219POPC   C2A11372   6.434   6.873   5.760
  219POPC    OH11373   6.531   6.918   5.823
  219POPC   C2B11374   6.434   6.840   5.615
  219POPC   C2C11375   6.482   6.698   5.585
  219POPC   C2D11376   6.490   6.672   5.434
  219POPC   C2E11377   6.595   6.760   5.366
  219POPC   C2F11378   6.594   6.753   5.213
  219POPC   C2G11379   6.652   6.623   5.158
  219POPC   C2H11380   6.657   6.628   5.005
  219POPC   C2I11381   6.719   6.501   4.948
  219POPC   C2J11382   6.727   6.509   4.795
  219POPC   C2K11383   6.788   6.381   4.737
  219POPC   C2L11384   6.796   6.389   4.585
  219POPC   C2M11385   6.850   6.258   4.526
  219POPC   C2N11386   6.857   6.265   4.373
  219POPC   C2O11387   6.903   6.133   4.311
  219POPC   C2P11388   6.800   6.021   4.328
  220POPC   CN111389   6.826   7.179   6.024
  220POPC   CN211390   6.772   7.379   5.907
  220POPC   CN311391   6.602   7.228   5.966
  220POPC   NTM11392   6.728   7.287   6.012
  220POPC    CA11393   6.707   7.353   6.143
  220POPC    CB11394   6.810   7.454   6.201
  220POPC    OA11395   6.949   7.420   6.189
  220POPC     P11396   7.044   7.535   6.240
  220POPC    OB11397   6.994   7.580   6.370
  220POPC    OC11398   7.179   7.480   6.226
  220POPC    OD11399   7.018   7.648   6.135
  220POPC    CC11400   7.067   7.619   6.005
  220POPC    CD11401   7.000   7.712   5.903
  220POPC    OE11402   6.968   7.648   5.777
  220POPC   C1A11403   6.845   7.664   5.731
  220POPC    OF11404   6.754   7.699   5.808
  220POPC   C1B11405   6.823   7.603   5.598
  220POPC   C1C11406   6.845   7.701   5.483
  220POPC   C1D11407   6.816   7.631   5.350
  220POPC   C1E11408   6.842   7.722   5.231
  220POPC   C1F11409   6.807   7.650   5.101
  220POPC   C1G11410   6.834   7.738   4.979
  220POPC   C1H11411   6.785   7.669   4.852
  220POPC   C1I11412   6.816   7.753   4.728
  220POPC   C1J11413   6.825   7.692   4.610
  220POPC   C1K11414   6.800   7.542   4.600
  220POPC   C1L11415   6.890   7.477   4.495
  220POPC   C1M11416   6.855   7.330   4.476
  220POPC   C1N11417   6.953   7.258   4.383
  220POPC   C1O11418   7.089   7.239   4.450
  220POPC   C1P11419   7.185   7.162   4.358
  220POPC   C1Q11420   7.319   7.134   4.426
  220POPC   C1R11421   7.307   7.034   4.542
  220POPC    CE11422   7.081   7.844   5.903
  220POPC    OG11423   7.037   7.945   5.810
  220POPC   C2A11424   6.930   8.017   5.841
  220POPC    OH11425   6.887   8.021   5.956
  220POPC   C2B11426   6.888   8.104   5.729
  220POPC   C2C11427   6.738   8.132   5.727
  220POPC   C2D11428   6.700   8.223   5.610
  220POPC   C2E11429   6.717   8.153   5.475
  220POPC   C2F11430   6.698   8.250   5.359
  220POPC   C2G11431   6.710   8.175   5.226
  220POPC   C2H11432   6.718   8.271   5.107
  220POPC   C2I11433   6.730   8.190   4.978
  220POPC   C2J11434   6.754   8.281   4.858
  220POPC   C2K11435   6.759   8.197   4.730
  220POPC   C2L11436   6.789   8.283   4.607
  220POPC   C2M11437   6.780   8.203   4.477
  220POPC   C2N11438   6.887   8.094   4.466
  220POPC   C2O11439   6.868   8.014   4.337
  220POPC   C2P11440   6.976   7.906   4.323
  221POPC   CN111441   7.936   7.088   6.488
  221POPC   CN211442   7.903   6.888   6.612
  221POPC   CN311443   7.759   7.074   6.648
  221POPC   NTM11444   7.834   6.999   6.546
  221POPC    CA11445   7.746   6.941   6.442
  221POPC    CB11446   7.669   7.031   6.343
  221POPC    OA11447   7.576   7.125   6.398
  221POPC     P11448   7.426   7.084   6.371
  221POPC    OB11449   7.417   6.940   6.397
  221POPC    OC11450   7.353   7.183   6.452
  221POPC    OD11451   7.418   7.116   6.217
  221POPC    CC11452   7.411   7.256   6.190
  221POPC    CD11453   7.417   7.293   6.041
  221POPC    OE11454   7.434   7.437   6.019
  221POPC   C1A11455   7.520   7.472   5.923
  221POPC    OF11456   7.621   7.404   5.907
  221POPC   C1B11457   7.503   7.610   5.872
  221POPC   C1C11458   7.407   7.614   5.753
  221POPC   C1D11459   7.407   7.751   5.685
  221POPC   C1E11460   7.295   7.758   5.581
  221POPC   C1F11461   7.302   7.886   5.498
  221POPC   C1G11462   7.181   7.897   5.405
  221POPC   C1H11463   7.199   8.006   5.299
  221POPC   C1I11464   7.072   8.023   5.216
  221POPC   C1J11465   7.077   8.038   5.084
  221POPC   C1K11466   7.209   8.037   5.007
  221POPC   C1L11467   7.191   8.097   4.867
  221POPC   C1M11468   7.323   8.092   4.789
  221POPC   C1N11469   7.305   8.143   4.646
  221POPC   C1O11470   7.437   8.136   4.570
  221POPC   C1P11471   7.421   8.176   4.424
  221POPC   C1Q11472   7.555   8.166   4.350
  221POPC   C1R11473   7.540   8.201   4.202
  221POPC    CE11474   7.289   7.233   5.980
  221POPC    OG11475   7.287   7.226   5.837
  221POPC   C2A11476   7.175   7.180   5.782
  221POPC    OH11477   7.070   7.170   5.846
  221POPC   C2B11478   7.188   7.154   5.637
  221POPC   C2C11479   7.169   7.280   5.552
  221POPC   C2D11480   7.176   7.244   5.404
  221POPC   C2E11481   7.177   7.366   5.311
  221POPC   C2F11482   7.309   7.443   5.321
  221POPC   C2G11483   7.318   7.550   5.212
  221POPC   C2H11484   7.451   7.626   5.220
  221POPC   C2I11485   7.468   7.719   5.100
  221POPC   C2J11486   7.597   7.800   5.111
  221POPC   C2K11487   7.628   7.876   4.982
  221POPC   C2L11488   7.667   7.780   4.869
  221POPC   C2M11489   7.689   7.854   4.737
  221POPC   C2N11490   7.729   7.755   4.627
  221POPC   C2O11491   7.741   7.820   4.489
  221POPC   C2P11492   7.855   7.921   4.480
  222POPC   CN111493  10.072   7.284   6.268
  222POPC   CN211494   9.984   7.072   6.204
  222POPC   CN311495   9.840   7.243   6.292
  222POPC   NTM11496   9.957   7.217   6.207
  222POPC    CA11497   9.940   7.275   6.071
  222POPC    CB11498   9.826   7.226   5.978
  222POPC    OA11499   9.693   7.241   6.028
  222POPC     P11500   9.588   7.162   5.943
  222POPC    OB11501   9.647   7.031   5.910
  222POPC    OC11502   9.459   7.165   6.012
  222POPC    OD11503   9.579   7.250   5.814
  222POPC    CC11504   9.528   7.177   5.702
  222POPC    CD11505   9.374   7.170   5.693
  222POPC    OE11506   9.326   7.065   5.606
  222POPC   C1A11507   9.220   6.994   5.643
  222POPC    OF11508   9.161   7.017   5.749
  222POPC   C1B11509   9.185   6.889   5.544
  222POPC   C1C11510   9.089   6.944   5.439
  222POPC   C1D11511   9.059   6.843   5.328
  222POPC   C1E11512   8.962   6.904   5.227
  222POPC   C1F11513   8.937   6.812   5.108
  222POPC   C1G11514   8.840   6.877   5.010
  222POPC   C1H11515   8.814   6.788   4.888
  222POPC   C1I11516   8.713   6.855   4.796
  222POPC   C1J11517   8.709   6.830   4.665
  222POPC   C1K11518   8.802   6.727   4.600
  222POPC   C1L11519   8.844   6.775   4.461
  222POPC   C1M11520   8.904   6.663   4.378
  222POPC   C1N11521   8.951   6.718   4.243
  222POPC   C1O11522   8.980   6.606   4.143
  222POPC   C1P11523   9.034   6.658   4.009
  222POPC   C1Q11524   8.938   6.750   3.933
  222POPC   C1R11525   8.813   6.677   3.883
  222POPC    CE11526   9.323   7.313   5.671
  222POPC    OG11527   9.391   7.391   5.571
  222POPC   C2A11528   9.390   7.523   5.585
  222POPC    OH11529   9.357   7.572   5.693
  222POPC   C2B11530   9.455   7.600   5.475
  222POPC   C2C11531   9.453   7.534   5.337
  222POPC   C2D11532   9.513   7.627   5.231
  222POPC   C2E11533   9.525   7.556   5.096
  222POPC   C2F11534   9.574   7.651   4.986
  222POPC   C2G11535   9.465   7.749   4.942
  222POPC   C2H11536   9.365   7.688   4.844
  222POPC   C2I11537   9.422   7.682   4.702
  222POPC   C2J11538   9.322   7.628   4.600
  222POPC   C2K11539   9.295   7.478   4.618
  222POPC   C2L11540   9.193   7.426   4.516
  222POPC   C2M11541   9.049   7.473   4.545
  222POPC   C2N11542   8.987   7.404   4.667
  222POPC   C2O11543   8.961   7.255   4.641
  222POPC   C2P11544   8.902   7.188   4.765
  223POPC   CN111545   9.292   6.703   6.206
  223POPC   CN211546   9.394   6.716   6.421
  223POPC   CN311547   9.159   6.743   6.398
  223POPC   NTM11548   9.276   6.669   6.348
  223POPC    CA11549   9.251   6.525   6.372
  223POPC    CB11550   9.345   6.415   6.316
  223POPC    OA11551   9.338   6.397   6.175
  223POPC     P11552   9.421   6.274   6.122
  223POPC    OB11553   9.425   6.173   6.229
  223POPC    OC11554   9.352   6.246   5.997
  223POPC    OD11555   9.561   6.343   6.105
  223POPC    CC11556   9.571   6.419   5.985
  223POPC    CD11557   9.710   6.482   5.967
  223POPC    OE11558   9.714   6.592   5.871
  223POPC   C1A11559   9.824   6.667   5.868
  223POPC    OF11560   9.883   6.688   5.974
  223POPC   C1B11561   9.837   6.745   5.741
  223POPC   C1C11562   9.899   6.884   5.752
  223POPC   C1D11563  10.048   6.884   5.789
  223POPC   C1E11564  10.114   7.018   5.755
  223POPC   C1F11565  10.125   7.034   5.603
  223POPC   C1G11566  10.186   7.168   5.561
  223POPC   C1H11567  10.194   7.171   5.409
  223POPC   C1I11568  10.252   7.302   5.355
  223POPC   C1J11569  10.322   7.298   5.242
  223POPC   C1K11570  10.346   7.161   5.177
  223POPC   C1L11571  10.319   7.158   5.026
  223POPC   C1M11572  10.419   7.242   4.945
  223POPC   C1N11573  10.392   7.231   4.795
  223POPC   C1O11574  10.258   7.293   4.754
  223POPC   C1P11575  10.224   7.264   4.607
  223POPC   C1Q11576  10.192   7.116   4.585
  223POPC   C1R11577  10.161   7.088   4.438
  223POPC    CE11578   9.807   6.365   5.937
  223POPC    OG11579   9.786   6.298   5.812
  223POPC   C2A11580   9.888   6.232   5.760
  223POPC    OH11581   9.997   6.224   5.817
  223POPC   C2B11582   9.857   6.171   5.629
  223POPC   C2C11583   9.872   6.271   5.514
  223POPC   C2D11584   9.806   6.215   5.388
  223POPC   C2E11585   9.813   6.314   5.273
  223POPC   C2F11586   9.730   6.264   5.154
  223POPC   C2G11587   9.742   6.359   5.035
  223POPC   C2H11588   9.654   6.313   4.919
  223POPC   C2I11589   9.677   6.398   4.794
  223POPC   C2J11590   9.815   6.369   4.733
  223POPC   C2K11591   9.849   6.460   4.615
  223POPC   C2L11592   9.755   6.442   4.495
  223POPC   C2M11593   9.800   6.524   4.374
  223POPC   C2N11594   9.792   6.674   4.398
  223POPC   C2O11595   9.845   6.751   4.276
  223POPC   C2P11596   9.840   6.902   4.301
  224POPC   CN111597  10.723   7.399   6.586
  224POPC   CN211598  10.682   7.325   6.367
  224POPC   CN311599  10.853   7.220   6.498
  224POPC   NTM11600  10.718   7.279   6.502
  224POPC    CA11601  10.617   7.185   6.556
  224POPC    CB11602  10.602   7.042   6.497
  224POPC    OA11603  10.572   7.032   6.357
  224POPC     P11604  10.651   6.914   6.289
  224POPC    OB11605  10.690   6.814   6.390
  224POPC    OC11606  10.575   6.879   6.169
  224POPC    OD11607  10.778   6.998   6.254
  224POPC    CC11608  10.766   7.060   6.125
  224POPC    CD11609  10.893   7.053   6.037
  224POPC    OE11610  10.875   7.116   5.908
  224POPC   C1A11611  10.879   7.248   5.896
  224POPC    OF11612  10.938   7.317   5.979
  224POPC   C1B11613  10.827   7.291   5.764
  224POPC   C1C11614  10.674   7.290   5.766
  224POPC   C1D11615  10.615   7.232   5.637
  224POPC   C1E11616  10.641   7.082   5.622
  224POPC   C1F11617  10.576   7.032   5.493
  224POPC   C1G11618  10.610   6.885   5.465
  224POPC   C1H11619  10.549   6.844   5.332
  224POPC   C1I11620  10.587   6.701   5.294
  224POPC   C1J11621  10.599   6.668   5.166
  224POPC   C1K11622  10.575   6.773   5.056
  224POPC   C1L11623  10.516   6.706   4.932
  224POPC   C1M11624  10.487   6.803   4.817
  224POPC   C1N11625  10.614   6.856   4.750
  224POPC   C1O11626  10.577   6.938   4.627
  224POPC   C1P11627  10.701   6.995   4.556
  224POPC   C1Q11628  10.663   7.077   4.432
  224POPC   C1R11629  10.601   6.992   4.321
  224POPC    CE11630  10.933   6.905   6.028
  224POPC    OG11631  10.826   6.815   5.990
  224POPC   C2A11632  10.845   6.686   6.013
  224POPC    OH11633  10.945   6.648   6.075
  224POPC   C2B11634  10.733   6.596   5.973
  224POPC   C2C11635  10.660   6.636   5.844
  224POPC   C2D11636  10.553   6.532   5.809
  224POPC   C2E11637  10.475   6.571   5.683
  224POPC   C2F11638  10.379   6.458   5.642
  224POPC   C2G11639  10.296   6.492   5.518
  224POPC   C2H11640  10.188   6.597   5.545
  224POPC   C2I11641  10.096   6.619   5.424
  224POPC   C2J11642  10.166   6.692   5.310
  224POPC   C2K11643  10.077   6.698   5.186
  224POPC   C2L11644  10.148   6.773   5.073
  224POPC   C2M11645  10.077   6.760   4.937
  224POPC   C2N11646   9.939   6.826   4.934
  224POPC   C2O11647   9.879   6.817   4.794
  224POPC   C2P11648   9.741   6.882   4.788
  225POPC   CN111649  11.369   6.942   6.846
  225POPC   CN211650  11.360   6.871   6.622
  225POPC   CN311651  11.319   7.100   6.675
  225POPC   NTM11652  11.400   6.982   6.709
  225POPC    CA11653  11.545   7.012   6.701
  225POPC    CB11654  11.607   7.060   6.568
  225POPC    OA11655  11.598   6.970   6.458
  225POPC     P11656  11.638   7.042   6.325
  225POPC    OB11657  11.555   7.164   6.321
  225POPC    OC11658  11.785   7.038   6.319
  225POPC    OD11659  11.572   6.935   6.232
  225POPC    CC11660  11.647   6.922   6.112
  225POPC    CD11661  11.575   6.848   6.000
  225POPC    OE11662  11.666   6.797   5.899
  225POPC   C1A11663  11.670   6.666   5.878
  225POPC    OF11664  11.627   6.588   5.964
  225POPC   C1B11665  11.749   6.629   5.759
  225POPC   C1C11666  11.656   6.602   5.640
  225POPC   C1D11667  11.735   6.576   5.512
  225POPC   C1E11668  11.643   6.535   5.397
  225POPC   C1F11669  11.549   6.647   5.352
  225POPC   C1G11670  11.443   6.597   5.253
  225POPC   C1H11671  11.501   6.548   5.120
  225POPC   C1I11672  11.390   6.487   5.034
  225POPC   C1J11673  11.399   6.481   4.902
  225POPC   C1K11674  11.521   6.535   4.827
  225POPC   C1L11675  11.482   6.645   4.727
  225POPC   C1M11676  11.404   6.596   4.605
  225POPC   C1N11677  11.493   6.520   4.506
  225POPC   C1O11678  11.416   6.481   4.379
  225POPC   C1P11679  11.371   6.602   4.296
  225POPC   C1Q11680  11.484   6.674   4.223
  225POPC   C1R11681  11.534   6.595   4.102
  225POPC    CE11682  11.462   6.942   5.953
  225POPC    OG11683  11.383   6.893   5.843
  225POPC   C2A11684  11.279   6.966   5.806
  225POPC    OH11685  11.238   7.059   5.876
  225POPC   C2B11686  11.213   6.914   5.684
  225POPC   C2C11687  11.140   7.024   5.606
  225POPC   C2D11688  11.085   6.973   5.473
  225POPC   C2E11689  11.000   7.082   5.408
  225POPC   C2F11690  10.950   7.041   5.269
  225POPC   C2G11691  10.844   7.140   5.220
  225POPC   C2H11692  10.791   7.104   5.081
  225POPC   C2I11693  10.883   7.151   4.968
  225POPC   C2J11694  10.874   7.303   4.950
  225POPC   C2K11695  10.970   7.350   4.841
  225POPC   C2L11696  10.958   7.501   4.819
  225POPC   C2M11697  11.063   7.553   4.720
  225POPC   C2N11698  11.204   7.547   4.781
  225POPC   C2O11699  11.310   7.591   4.681
  225POPC   C2P11700  11.449   7.583   4.745
  226POPC   CN111701  12.744   8.385   6.787
  226POPC   CN211702  12.606   8.514   6.641
  226POPC   CN311703  12.790   8.388   6.556
  226POPC   NTM11704  12.681   8.388   6.654
  226POPC    CA11705  12.593   8.270   6.641
  226POPC    CB11706  12.540   8.228   6.501
  226POPC    OA11707  12.475   8.329   6.425
  226POPC     P11708  12.495   8.306   6.270
  226POPC    OB11709  12.434   8.422   6.207
  226POPC    OC11710  12.636   8.269   6.250
  226POPC    OD11711  12.411   8.177   6.243
  226POPC    CC11712  12.419   8.154   6.102
  226POPC    CD11713  12.389   8.012   6.050
  226POPC    OE11714  12.433   7.999   5.912
  226POPC   C1A11715  12.432   7.881   5.852
  226POPC    OF11716  12.430   7.777   5.918
  226POPC   C1B11717  12.458   7.890   5.707
  226POPC   C1C11718  12.328   7.920   5.632
  226POPC   C1D11719  12.356   7.943   5.483
  226POPC   C1E11720  12.228   7.980   5.408
  226POPC   C1F11721  12.264   8.007   5.262
  226POPC   C1G11722  12.142   8.040   5.175
  226POPC   C1H11723  12.191   8.065   5.033
  226POPC   C1I11724  12.078   8.104   4.938
  226POPC   C1J11725  12.091   8.079   4.808
  226POPC   C1K11726  12.217   8.008   4.758
  226POPC   C1L11727  12.258   8.059   4.620
  226POPC   C1M11728  12.383   7.986   4.572
  226POPC   C1N11729  12.431   8.045   4.439
  226POPC   C1O11730  12.553   7.970   4.386
  226POPC   C1P11731  12.601   8.034   4.255
  226POPC   C1Q11732  12.728   7.968   4.201
  226POPC   C1R11733  12.703   7.826   4.150
  226POPC    CE11734  12.239   7.985   6.075
  226POPC    OG11735  12.148   8.067   6.000
  226POPC   C2A11736  12.021   8.026   5.991
  226POPC    OH11737  11.982   7.926   6.051
  226POPC   C2B11738  11.935   8.116   5.911
  226POPC   C2C11739  11.941   8.084   5.761
  226POPC   C2D11740  11.852   8.183   5.685
  226POPC   C2E11741  11.870   8.171   5.533
  226POPC   C2F11742  11.792   8.283   5.464
  226POPC   C2G11743  11.825   8.291   5.315
  226POPC   C2H11744  11.759   8.415   5.254
  226POPC   C2I11745  11.802   8.439   5.108
  226POPC   C2J11746  11.746   8.335   5.011
  226POPC   C2K11747  11.791   8.367   4.869
  226POPC   C2L11748  11.739   8.263   4.770
  226POPC   C2M11749  11.795   8.289   4.630
  226POPC   C2N11750  11.748   8.183   4.530
  226POPC   C2O11751  11.807   8.209   4.392
  226POPC   C2P11752  11.762   8.103   4.292
  227POPC   CN111753  12.809   7.542   6.101
  227POPC   CN211754  12.749   7.521   5.871
  227POPC   CN311755  12.738   7.734   5.978
  227POPC   NTM11756  12.814   7.609   5.970
  227POPC    CA11757  12.954   7.631   5.926
  227POPC    CB11758  13.052   7.713   6.013
  227POPC    OA11759  13.018   7.850   6.035
  227POPC     P11760  13.116   7.918   6.138
  227POPC    OB11761  13.049   8.045   6.171
  227POPC    OC11762  13.148   7.816   6.240
  227POPC    OD11763  13.237   7.936   6.040
  227POPC    CC11764  13.226   8.053   5.959
  227POPC    CD11765  13.329   8.052   5.844
  227POPC    OE11766  13.358   8.184   5.789
  227POPC   C1A11767  13.443   8.265   5.852
  227POPC    OF11768  13.495   8.231   5.959
  227POPC   C1B11769  13.456   8.395   5.782
  227POPC   C1C11770  13.501   8.510   5.874
  227POPC   C1D11771  13.486   8.646   5.806
  227POPC   C1E11772  13.578   8.665   5.685
  227POPC   C1F11773  13.560   8.803   5.621
  227POPC   C1G11774  13.429   8.816   5.543
  227POPC   C1H11775  13.432   8.749   5.405
  227POPC   C1I11776  13.520   8.826   5.307
  227POPC   C1J11777  13.572   8.768   5.199
  227POPC   C1K11778  13.542   8.622   5.163
  227POPC   C1L11779  13.567   8.597   5.014
  227POPC   C1M11780  13.533   8.454   4.972
  227POPC   C1N11781  13.382   8.429   4.973
  227POPC   C1O11782  13.350   8.284   4.934
  227POPC   C1P11783  13.199   8.260   4.934
  227POPC   C1Q11784  13.163   8.114   4.904
  227POPC   C1R11785  13.203   8.019   5.017
  227POPC    CE11786  13.281   7.947   5.742
  227POPC    OG11787  13.159   7.977   5.671
  227POPC   C2A11788  13.143   7.912   5.556
  227POPC    OH11789  13.200   7.806   5.534
  227POPC   C2B11790  13.041   7.973   5.467
  227POPC   C2C11791  12.910   7.895   5.461
  227POPC   C2D11792  12.815   7.962   5.361
  227POPC   C2E11793  12.759   8.095   5.414
  227POPC   C2F11794  12.689   8.176   5.305
  227POPC   C2G11795  12.790   8.247   5.214
  227POPC   C2H11796  12.718   8.333   5.109
  227POPC   C2I11797  12.666   8.250   4.991
  227POPC   C2J11798  12.770   8.240   4.880
  227POPC   C2K11799  12.720   8.152   4.765
  227POPC   C2L11800  12.811   8.158   4.642
  227POPC   C2M11801  12.795   8.291   4.567
  227POPC   C2N11802  12.875   8.290   4.436
  227POPC   C2O11803  12.844   8.415   4.354
  227POPC   C2P11804  12.919   8.413   4.221
  228POPC   CN111805  14.612   8.632   6.664
  228POPC   CN211806  14.651   8.407   6.597
  228POPC   CN311807  14.428   8.495   6.606
  228POPC   NTM11808  14.568   8.526   6.572
  228POPC    CA11809  14.581   8.575   6.432
  228POPC    CB11810  14.557   8.479   6.313
  228POPC    OA11811  14.431   8.412   6.316
  228POPC     P11812  14.419   8.296   6.211
  228POPC    OB11813  14.545   8.222   6.214
  228POPC    OC11814  14.294   8.227   6.248
  228POPC    OD11815  14.402   8.374   6.076
  228POPC    CC11816  14.278   8.444   6.070
  228POPC    CD11817  14.238   8.489   5.928
  228POPC    OE11818  14.170   8.385   5.852
  228POPC   C1A11819  14.041   8.366   5.875
  228POPC    OF11820  13.978   8.444   5.948
  228POPC   C1B11821  13.985   8.253   5.798
  228POPC   C1C11822  13.832   8.258   5.786
  228POPC   C1D11823  13.784   8.154   5.685
  228POPC   C1E11824  13.817   8.198   5.542
  228POPC   C1F11825  13.709   8.286   5.479
  228POPC   C1G11826  13.588   8.202   5.440
  228POPC   C1H11827  13.478   8.289   5.379
  228POPC   C1I11828  13.362   8.202   5.331
  228POPC   C1J11829  13.237   8.249   5.333
  228POPC   C1K11830  13.206   8.388   5.388
  228POPC   C1L11831  13.126   8.379   5.518
  228POPC   C1M11832  13.098   8.519   5.572
  228POPC   C1N11833  13.015   8.519   5.701
  228POPC   C1O11834  12.873   8.464   5.680
  228POPC   C1P11835  12.779   8.505   5.794
  228POPC   C1Q11836  12.820   8.450   5.930
  228POPC   C1R11837  12.729   8.506   6.040
  228POPC    CE11838  14.362   8.555   5.866
  228POPC    OG11839  14.351   8.606   5.732
  228POPC   C2A11840  14.378   8.521   5.634
  228POPC    OH11841  14.447   8.421   5.656
  228POPC   C2B11842  14.343   8.571   5.499
  228POPC   C2C11843  14.296   8.457   5.409
  228POPC   C2D11844  14.268   8.504   5.267
  228POPC   C2E11845  14.220   8.388   5.180
  228POPC   C2F11846  14.183   8.432   5.038
  228POPC   C2G11847  14.304   8.468   4.951
  228POPC   C2H11848  14.387   8.345   4.912
  228POPC   C2I11849  14.498   8.384   4.814
  228POPC   C2J11850  14.576   8.261   4.767
  228POPC   C2K11851  14.680   8.297   4.660
  228POPC   C2L11852  14.615   8.344   4.529
  228POPC   C2M11853  14.722   8.375   4.424
  228POPC   C2N11854  14.657   8.415   4.291
  228POPC   C2O11855  14.763   8.439   4.184
  228POPC   C2P11856  14.699   8.479   4.051
  229POPC   CN111857  14.310   8.130   5.612
  229POPC   CN211858  14.189   7.944   5.697
  229POPC   CN311859  14.400   7.908   5.599
  229POPC   NTM11860  14.323   8.001   5.683
  229POPC    CA11861  14.384   8.019   5.817
  229POPC    CB11862  14.523   8.087   5.830
  229POPC    OA11863  14.629   8.022   5.759
  229POPC     P11864  14.748   8.122   5.732
  229POPC    OB11865  14.762   8.206   5.851
  229POPC    OC11866  14.857   8.037   5.687
  229POPC    OD11867  14.682   8.199   5.612
  229POPC    CC11868  14.694   8.129   5.487
  229POPC    CD11869  14.625   8.199   5.369
  229POPC    OE11870  14.622   8.117   5.249
  229POPC   C1A11871  14.518   8.037   5.227
  229POPC    OF11872  14.426   8.027   5.309
  229POPC   C1B11873  14.530   7.961   5.100
  229POPC   C1C11874  14.459   7.826   5.104
  229POPC   C1D11875  14.479   7.742   4.978
  229POPC   C1E11876  14.442   7.817   4.850
  229POPC   C1F11877  14.449   7.726   4.726
  229POPC   C1G11878  14.452   7.807   4.596
  229POPC   C1H11879  14.328   7.894   4.576
  229POPC   C1I11880  14.345   7.986   4.454
  229POPC   C1J11881  14.290   8.107   4.454
  229POPC   C1K11882  14.209   8.154   4.574
  229POPC   C1L11883  14.093   8.245   4.531
  229POPC   C1M11884  14.004   8.277   4.651
  229POPC   C1N11885  13.876   8.351   4.609
  229POPC   C1O11886  13.896   8.500   4.580
  229POPC   C1P11887  13.918   8.579   4.709
  229POPC   C1Q11888  13.926   8.729   4.680
  229POPC   C1R11889  13.944   8.809   4.810
  229POPC    CE11890  14.695   8.335   5.357
  229POPC    OG11891  14.632   8.437   5.276
  229POPC   C2A11892  14.675   8.561   5.295
  229POPC    OH11893  14.745   8.591   5.392
  229POPC   C2B11894  14.615   8.658   5.201
  229POPC   C2C11895  14.704   8.682   5.079
  229POPC   C2D11896  14.630   8.772   4.981
  229POPC   C2E11897  14.717   8.807   4.860
  229POPC   C2F11898  14.635   8.885   4.756
  229POPC   C2G11899  14.533   8.794   4.686
  229POPC   C2H11900  14.441   8.875   4.595
  229POPC   C2I11901  14.347   8.781   4.518
  229POPC   C2J11902  14.249   8.862   4.433
  229POPC   C2K11903  14.167   8.774   4.339
  229POPC   C2L11904  14.255   8.712   4.229
  229POPC   C2M11905  14.171   8.636   4.127
  229POPC   C2N11906  14.262   8.583   4.015
  229POPC   C2O11907  14.179   8.521   3.903
  229POPC   C2P11908  14.271   8.473   3.790
  230POPC   CN111909  15.758   7.758   6.019
  230POPC   CN211910  15.535   7.802   6.081
  230POPC   CN311911  15.601   7.580   6.016
  230POPC   NTM11912  15.642   7.701   6.089
  230POPC    CA11913  15.671   7.675   6.232
  230POPC    CB11914  15.774   7.567   6.274
  230POPC    OA11915  15.902   7.580   6.213
  230POPC     P11916  16.017   7.498   6.281
  230POPC    OB11917  16.102   7.598   6.346
  230POPC    OC11918  15.961   7.388   6.362
  230POPC    OD11919  16.093   7.444   6.156
  230POPC    CC11920  16.015   7.354   6.077
  230POPC    CD11921  16.031   7.377   5.926
  230POPC    OE11922  15.960   7.275   5.850
  230POPC   C1A11923  15.848   7.307   5.785
  230POPC    OF11924  15.794   7.416   5.802
  230POPC   C1B11925  15.797   7.196   5.700
  230POPC   C1C11926  15.861   7.192   5.560
  230POPC   C1D11927  16.009   7.150   5.565
  230POPC   C1E11928  16.083   7.174   5.433
  230POPC   C1F11929  16.050   7.069   5.326
  230POPC   C1G11930  16.127   7.102   5.197
  230POPC   C1H11931  16.109   6.992   5.092
  230POPC   C1I11932  16.168   7.036   4.959
  230POPC   C1J11933  16.118   6.989   4.845
  230POPC   C1K11934  16.004   6.887   4.849
  230POPC   C1L11935  15.980   6.819   4.714
  230POPC   C1M11936  16.093   6.726   4.668
  230POPC   C1N11937  16.062   6.664   4.532
  230POPC   C1O11938  16.066   6.768   4.419
  230POPC   C1P11939  16.014   6.713   4.286
  230POPC   C1Q11940  15.863   6.691   4.289
  230POPC   C1R11941  15.811   6.644   4.153
  230POPC    CE11942  16.182   7.377   5.899
  230POPC    OG11943  16.229   7.471   5.800
  230POPC   C2A11944  16.360   7.486   5.788
  230POPC    OH11945  16.438   7.444   5.875
  230POPC   C2B11946  16.398   7.575   5.677
  230POPC   C2C11947  16.502   7.515   5.582
  230POPC   C2D11948  16.452   7.392   5.506
  230POPC   C2E11949  16.545   7.360   5.389
  230POPC   C2F11950  16.498   7.236   5.314
  230POPC   C2G11951  16.575   7.212   5.184
  230POPC   C2H11952  16.543   7.318   5.078
  230POPC   C2I11953  16.610   7.288   4.944
  230POPC   C2J11954  16.569   7.392   4.840
  230POPC   C2K11955  16.622   7.357   4.701
  230POPC   C2L11956  16.579   7.463   4.599
  230POPC   C2M11957  16.622   7.424   4.458
  230POPC   C2N11958  16.582   7.529   4.354
  230POPC   C2O11959  16.430   7.540   4.337
  230POPC   C2P11960  16.393   7.649   4.236
  231POPC   CN111961  15.866   7.676   6.905
  231POPC   CN211962  15.993   7.478   6.857
  231POPC   CN311963  15.755   7.477   6.840
  231POPC   NTM11964  15.875   7.558   6.818
  231POPC    CA11965  15.878   7.591   6.674
  231POPC    CB11966  15.991   7.677   6.613
  231POPC    OA11967  16.010   7.811   6.659
  231POPC     P11968  15.913   7.918   6.594
  231POPC    OB11969  15.776   7.869   6.616
  231POPC    OC11970  15.961   8.041   6.659
  231POPC    OD11971  15.955   7.910   6.443
  231POPC    CC11972  16.060   8.000   6.408
  231POPC    CD11973  16.081   8.023   6.257
  231POPC    OE11974  15.972   8.097   6.194
  231POPC   C1A11975  15.980   8.230   6.182
  231POPC    OF11976  16.068   8.294   6.241
  231POPC   C1B11977  15.865   8.291   6.112
  231POPC   C1C11978  15.909   8.409   6.025
  231POPC   C1D11979  15.791   8.503   5.997
  231POPC   C1E11980  15.828   8.614   5.899
  231POPC   C1F11981  15.940   8.707   5.948
  231POPC   C1G11982  15.982   8.808   5.840
  231POPC   C1H11983  16.040   8.744   5.713
  231POPC   C1I11984  16.171   8.669   5.740
  231POPC   C1J11985  16.258   8.645   5.642
  231POPC   C1K11986  16.234   8.692   5.499
  231POPC   C1L11987  16.299   8.596   5.399
  231POPC   C1M11988  16.295   8.650   5.256
  231POPC   C1N11989  16.397   8.762   5.234
  231POPC   C1O11990  16.387   8.824   5.095
  231POPC   C1P11991  16.427   8.727   4.984
  231POPC   C1Q11992  16.416   8.795   4.847
  231POPC   C1R11993  16.454   8.698   4.735
  231POPC    CE11994  16.112   7.886   6.194
  231POPC    OG11995  16.198   7.891   6.078
  231POPC   C2A11996  16.140   7.904   5.959
  231POPC    OH11997  16.020   7.888   5.944
  231POPC   C2B11998  16.235   7.927   5.848
  231POPC   C2C11999  16.240   8.076   5.811
  231POPC   C2D12000  16.318   8.105   5.682
  231POPC   C2E12001  16.467   8.074   5.694
  231POPC   C2F12002  16.547   8.115   5.569
  231POPC   C2G12003  16.511   8.031   5.446
  231POPC   C2H12004  16.604   8.059   5.328
  231POPC   C2I12005  16.582   8.196   5.262
  231POPC   C2J12006  16.688   8.217   5.154
  231POPC   C2K12007  16.667   8.346   5.076
  231POPC   C2L12008  16.787   8.370   4.983
  231POPC   C2M12009  16.771   8.499   4.902
  231POPC   C2N12010  16.904   8.534   4.834
  231POPC   C2O12011  16.895   8.658   4.744
  231POPC   C2P12012  16.813   8.632   4.618
  232POPC   CN112013  16.411   7.612   6.145
  232POPC   CN212014  16.422   7.388   6.226
  232POPC   CN312015  16.604   7.534   6.265
  232POPC   NTM12016  16.457   7.527   6.256
  232POPC    CA12017  16.396   7.564   6.386
  232POPC    CB12018  16.395   7.712   6.434
  232POPC    OA12019  16.523   7.774   6.440
  232POPC     P12020  16.517   7.928   6.470
  232POPC    OB12021  16.399   7.962   6.551
  232POPC    OC12022  16.653   7.965   6.512
  232POPC    OD12023  16.490   7.983   6.326
  232POPC    CC12024  16.607   7.972   6.245
  232POPC    CD12025  16.590   8.021   6.100
  232POPC    OE12026  16.701   7.988   6.012
  232POPC   C1A12027  16.710   7.866   5.959
  232POPC    OF12028  16.668   7.769   6.023
  232POPC   C1B12029  16.809   7.861   5.849
  232POPC   C1C12030  16.764   7.775   5.731
  232POPC   C1D12031  16.857   7.796   5.612
  232POPC   C1E12032  16.807   7.717   5.490
  232POPC   C1F12033  16.876   7.763   5.362
  232POPC   C1G12034  16.817   7.693   5.240
  232POPC   C1H12035  16.867   7.757   5.110
  232POPC   C1I12036  16.804   7.691   4.988
  232POPC   C1J12037  16.862   7.702   4.869
  232POPC   C1K12038   0.007   7.784   4.853
  232POPC   C1L12039   0.096   7.732   4.740
  232POPC   C1M12040   0.039   7.762   4.601
  232POPC   C1N12041   0.127   7.700   4.492
  232POPC   C1O12042   0.074   7.726   4.351
  232POPC   C1P12043   0.099   7.869   4.302
  232POPC   C1Q12044   0.247   7.895   4.275
  232POPC   C1R12045   0.269   8.037   4.224
  232POPC    CE12046  16.563   8.172   6.115
  232POPC    OG12047  16.524   8.242   5.996
  232POPC   C2A12048  16.496   8.371   6.009
  232POPC    OH12049  16.456   8.415   6.117
  232POPC   C2B12050  16.483   8.440   5.879
  232POPC   C2C12051  16.620   8.479   5.824
  232POPC   C2D12052  16.607   8.537   5.683
  232POPC   C2E12053  16.745   8.562   5.621
  232POPC   C2F12054  16.731   8.608   5.476
  232POPC   C2G12055  16.869   8.614   5.410
  232POPC   C2H12056  16.861   8.649   5.261
  232POPC   C2I12057  16.839   8.798   5.231
  232POPC   C2J12058  16.961   8.881   5.274
  232POPC   C2K12059  16.965   9.016   5.204
  232POPC   C2L12060   0.102   9.097   5.252
  232POPC   C2M12061   0.129   9.220   5.165
  232POPC   C2N12062   0.186   9.181   5.029
  232POPC   C2O12063   0.216   9.305   4.944
  232POPC   C2P12064   0.280   9.267   4.811
  233POPC   CN112065   0.231   8.128   6.299
  233POPC   CN212066   0.133   8.023   6.492
  233POPC   CN312067   0.019   8.030   6.282
  233POPC   NTM12068   0.150   8.015   6.346
  233POPC    CA12069   0.208   7.886   6.304
  233POPC    CB12070   0.348   7.838   6.349
  233POPC    OA12071   0.456   7.928   6.324
  233POPC     P12072   0.596   7.856   6.323
  233POPC    OB12073   0.704   7.955   6.340
  233POPC    OC12074   0.589   7.741   6.415
  233POPC    OD12075   0.595   7.799   6.177
  233POPC    CC12076   0.637   7.895   6.080
  233POPC    CD12077   0.639   7.843   5.934
  233POPC    OE12078   0.705   7.934   5.843
  233POPC   C1A12079   0.836   7.926   5.826
  233POPC    OF12080   0.904   7.848   5.894
  233POPC   C1B12081   0.887   8.016   5.720
  233POPC   C1C12082   1.007   7.955   5.647
  233POPC   C1D12083   1.046   8.041   5.527
  233POPC   C1E12084   1.170   7.986   5.457
  233POPC   C1F12085   1.202   8.062   5.328
  233POPC   C1G12086   1.234   8.210   5.354
  233POPC   C1H12087   1.269   8.286   5.225
  233POPC   C1I12088   1.150   8.302   5.130
  233POPC   C1J12089   1.170   8.289   5.000
  233POPC   C1K12090   1.312   8.259   4.950
  233POPC   C1L12091   1.308   8.164   4.829
  233POPC   C1M12092   1.448   8.126   4.781
  233POPC   C1N12093   1.524   8.245   4.720
  233POPC   C1O12094   1.664   8.202   4.678
  233POPC   C1P12095   1.738   8.317   4.609
  233POPC   C1Q12096   1.879   8.276   4.567
  233POPC   C1R12097   1.950   8.392   4.499
  233POPC    CE12098   0.493   7.812   5.897
  233POPC    OG12099   0.470   7.755   5.766
  233POPC   C2A12100   0.348   7.768   5.716
  233POPC    OH12101   0.256   7.819   5.780
  233POPC   C2B12102   0.333   7.715   5.578
  233POPC   C2C12103   0.335   7.830   5.477
  233POPC   C2D12104   0.281   7.790   5.339
  233POPC   C2E12105   0.377   7.707   5.254
  233POPC   C2F12106   0.307   7.671   5.123
  233POPC   C2G12107   0.397   7.602   5.020
  233POPC   C2H12108   0.501   7.698   4.962
  233POPC   C2I12109   0.583   7.634   4.849
  233POPC   C2J12110   0.500   7.611   4.722
  233POPC   C2K12111   0.586   7.551   4.611
  233POPC   C2L12112   0.504   7.528   4.484
  233POPC   C2M12113   0.590   7.463   4.376
  233POPC   C2N12114   0.509   7.436   4.249
  233POPC   C2O12115   0.595   7.366   4.144
  233POPC   C2P12116   0.515   7.340   4.017
  234POPC   CN112117   1.888   7.720   6.664
  234POPC   CN212118   1.746   7.563   6.772
  234POPC   CN312119   1.712   7.795   6.808
  234POPC   NTM12120   1.750   7.694   6.708
  234POPC    CA12121   1.658   7.691   6.592
  234POPC    CB12122   1.621   7.823   6.519
  234POPC    OA12123   1.731   7.907   6.488
  234POPC     P12124   1.690   8.029   6.400
  234POPC    OB12125   1.560   8.075   6.452
  234POPC    OC12126   1.806   8.119   6.405
  234POPC    OD12127   1.678   7.952   6.264
  234POPC    CC12128   1.805   7.941   6.200
  234POPC    CD12129   1.809   7.863   6.068
  234POPC    OE12130   1.933   7.885   5.996
  234POPC   C1A12131   2.047   7.825   6.030
  234POPC    OF12132   2.051   7.744   6.123
  234POPC   C1B12133   2.159   7.868   5.944
  234POPC   C1C12134   2.274   7.767   5.935
  234POPC   C1D12135   2.372   7.803   5.823
  234POPC   C1E12136   2.448   7.934   5.848
  234POPC   C1F12137   2.527   7.980   5.725
  234POPC   C1G12138   2.643   7.886   5.689
  234POPC   C1H12139   2.716   7.930   5.562
  234POPC   C1I12140   2.633   7.908   5.435
  234POPC   C1J12141   2.647   7.987   5.329
  234POPC   C1K12142   2.748   8.103   5.329
  234POPC   C1L12143   2.863   8.083   5.229
  234POPC   C1M12144   2.817   8.090   5.083
  234POPC   C1N12145   2.936   8.063   4.990
  234POPC   C1O12146   2.896   8.058   4.842
  234POPC   C1P12147   2.861   8.196   4.786
  234POPC   C1Q12148   2.831   8.186   4.636
  234POPC   C1R12149   2.803   8.324   4.577
  234POPC    CE12150   1.685   7.907   5.988
  234POPC    OG12151   1.671   7.850   5.856
  234POPC   C2A12152   1.559   7.878   5.790
  234POPC    OH12153   1.459   7.921   5.848
  234POPC   C2B12154   1.564   7.842   5.647
  234POPC   C2C12155   1.601   7.966   5.565
  234POPC   C2D12156   1.605   7.937   5.414
  234POPC   C2E12157   1.631   8.067   5.338
  234POPC   C2F12158   1.632   8.048   5.186
  234POPC   C2G12159   1.755   7.970   5.138
  234POPC   C2H12160   1.754   7.957   4.985
  234POPC   C2I12161   1.877   7.881   4.936
  234POPC   C2J12162   1.873   7.865   4.784
  234POPC   C2K12163   1.996   7.789   4.734
  234POPC   C2L12164   1.987   7.757   4.584
  234POPC   C2M12165   1.995   7.883   4.497
  234POPC   C2N12166   1.974   7.847   4.350
  234POPC   C2O12167   1.986   7.969   4.257
  234POPC   C2P12168   2.130   8.022   4.251
  235POPC   CN112169   2.929   7.894   6.521
  235POPC   CN212170   2.839   8.032   6.692
  235POPC   CN312171   2.723   8.013   6.486
  235POPC   NTM12172   2.804   7.939   6.584
  235POPC    CA12173   2.731   7.825   6.643
  235POPC    CB12174   2.691   7.701   6.559
  235POPC    OA12175   2.599   7.723   6.452
  235POPC     P12176   2.587   7.596   6.358
  235POPC    OB12177   2.598   7.477   6.445
  235POPC    OC12178   2.465   7.623   6.281
  235POPC    OD12179   2.718   7.622   6.274
  235POPC    CC12180   2.696   7.720   6.172
  235POPC    CD12181   2.824   7.771   6.105
  235POPC    OE12182   2.806   7.895   6.032
  235POPC   C1A12183   2.824   8.011   6.096
  235POPC    OF12184   2.868   8.013   6.211
  235POPC   C1B12185   2.795   8.129   6.013
  235POPC   C1C12186   2.918   8.174   5.934
  235POPC   C1D12187   2.889   8.297   5.848
  235POPC   C1E12188   2.864   8.422   5.933
  235POPC   C1F12189   2.844   8.547   5.847
  235POPC   C1G12190   2.970   8.583   5.767
  235POPC   C1H12191   2.945   8.704   5.677
  235POPC   C1I12192   3.065   8.734   5.587
  235POPC   C1J12193   3.062   8.708   5.457
  235POPC   C1K12194   2.938   8.647   5.390
  235POPC   C1L12195   2.961   8.504   5.340
  235POPC   C1M12196   3.058   8.496   5.221
  235POPC   C1N12197   2.999   8.559   5.095
  235POPC   C1O12198   3.101   8.557   4.981
  235POPC   C1P12199   3.042   8.617   4.854
  235POPC   C1Q12200   3.147   8.618   4.742
  235POPC   C1R12201   3.088   8.673   4.612
  235POPC    CE12202   2.885   7.654   6.025
  235POPC    OG12203   2.801   7.597   5.923
  235POPC   C2A12204   2.852   7.496   5.853
  235POPC    OH12205   2.961   7.446   5.881
  235POPC   C2B12206   2.766   7.456   5.739
  235POPC   C2C12207   2.826   7.506   5.608
  235POPC   C2D12208   2.730   7.485   5.491
  235POPC   C2E12209   2.795   7.529   5.359
  235POPC   C2F12210   2.691   7.528   5.247
  235POPC   C2G12211   2.752   7.565   5.112
  235POPC   C2H12212   2.640   7.584   5.010
  235POPC   C2I12213   2.691   7.619   4.869
  235POPC   C2J12214   2.748   7.497   4.796
  235POPC   C2K12215   2.784   7.534   4.652
  235POPC   C2L12216   2.840   7.413   4.578
  235POPC   C2M12217   2.884   7.450   4.437
  235POPC   C2N12218   2.954   7.331   4.371
  235POPC   C2O12219   3.003   7.365   4.230
  235POPC   C2P12220   3.077   7.247   4.169
  236POPC   CN112221   4.057   7.564   7.085
  236POPC   CN212222   3.893   7.391   7.117
  236POPC   CN312223   3.894   7.582   7.258
  236POPC   NTM12224   3.917   7.537   7.120
  236POPC    CA12225   3.823   7.613   7.034
  236POPC    CB12226   3.820   7.589   6.881
  236POPC    OA12227   3.785   7.457   6.841
  236POPC     P12228   3.805   7.436   6.686
  236POPC    OB12229   3.918   7.517   6.640
  236POPC    OC12230   3.795   7.293   6.658
  236POPC    OD12231   3.673   7.510   6.644
  236POPC    CC12232   3.667   7.531   6.503
  236POPC    CD12233   3.583   7.656   6.472
  236POPC    OE12234   3.491   7.640   6.360
  236POPC   C1A12235   3.390   7.727   6.348
  236POPC    OF12236   3.359   7.797   6.445
  236POPC   C1B12237   3.313   7.713   6.223
  236POPC   C1C12238   3.364   7.808   6.114
  236POPC   C1D12239   3.289   7.782   5.983
  236POPC   C1E12240   3.334   7.873   5.868
  236POPC   C1F12241   3.482   7.853   5.831
  236POPC   C1G12242   3.517   7.923   5.699
  236POPC   C1H12243   3.455   7.849   5.580
  236POPC   C1I12244   3.493   7.914   5.446
  236POPC   C1J12245   3.422   7.885   5.338
  236POPC   C1K12246   3.302   7.789   5.351
  236POPC   C1L12247   3.206   7.801   5.233
  236POPC   C1M12248   3.257   7.728   5.108
  236POPC   C1N12249   3.162   7.749   4.990
  236POPC   C1O12250   3.200   7.665   4.868
  236POPC   C1P12251   3.167   7.517   4.890
  236POPC   C1Q12252   3.201   7.434   4.766
  236POPC   C1R12253   3.161   7.288   4.787
  236POPC    CE12254   3.681   7.776   6.473
  236POPC    OG12255   3.789   7.765   6.380
  236POPC   C2A12256   3.868   7.870   6.363
  236POPC    OH12257   3.867   7.965   6.442
  236POPC   C2B12258   3.965   7.850   6.252
  236POPC   C2C12259   3.896   7.863   6.116
  236POPC   C2D12260   3.980   7.809   5.999
  236POPC   C2E12261   4.098   7.899   5.961
  236POPC   C2F12262   4.179   7.835   5.848
  236POPC   C2G12263   4.300   7.921   5.809
  236POPC   C2H12264   4.398   7.844   5.720
  236POPC   C2I12265   4.358   7.831   5.573
  236POPC   C2J12266   4.378   7.961   5.495
  236POPC   C2K12267   4.369   7.939   5.344
  236POPC   C2L12268   4.229   7.900   5.298
  236POPC   C2M12269   4.223   7.858   5.150
  236POPC   C2N12270   4.252   7.971   5.051
  236POPC   C2O12271   4.242   7.918   4.908
  236POPC   C2P12272   4.265   8.028   4.805
  237POPC   CN112273   5.116   7.806   6.712
  237POPC   CN212274   5.204   7.825   6.933
  237POPC   CN312275   4.970   7.798   6.903
  237POPC   NTM12276   5.102   7.759   6.851
  237POPC    CA12277   5.124   7.612   6.858
  237POPC    CB12278   5.042   7.515   6.770
  237POPC    OA12279   4.901   7.513   6.792
  237POPC     P12280   4.832   7.417   6.687
  237POPC    OB12281   4.920   7.302   6.663
  237POPC    OC12282   4.699   7.395   6.745
  237POPC    OD12283   4.832   7.516   6.566
  237POPC    CC12284   4.711   7.590   6.560
  237POPC    CD12285   4.713   7.719   6.477
  237POPC    OE12286   4.584   7.785   6.485
  237POPC   C1A12287   4.577   7.918   6.484
  237POPC    OF12288   4.677   7.985   6.514
  237POPC   C1B12289   4.436   7.965   6.489
  237POPC   C1C12290   4.413   8.098   6.417
  237POPC   C1D12291   4.405   8.083   6.265
  237POPC   C1E12292   4.377   8.221   6.205
  237POPC   C1F12293   4.334   8.217   6.058
  237POPC   C1G12294   4.292   8.357   6.015
  237POPC   C1H12295   4.233   8.360   5.874
  237POPC   C1I12296   4.191   8.503   5.839
  237POPC   C1J12297   4.190   8.546   5.714
  237POPC   C1K12298   4.227   8.456   5.597
  237POPC   C1L12299   4.292   8.537   5.485
  237POPC   C1M12300   4.313   8.452   5.359
  237POPC   C1N12301   4.386   8.532   5.252
  237POPC   C1O12302   4.390   8.456   5.120
  237POPC   C1P12303   4.470   8.532   5.014
  237POPC   C1Q12304   4.455   8.473   4.874
  237POPC   C1R12305   4.508   8.330   4.863
  237POPC    CE12306   4.760   7.680   6.336
  237POPC    OG12307   4.776   7.790   6.244
  237POPC   C2A12308   4.837   7.766   6.129
  237POPC    OH12309   4.888   7.656   6.105
  237POPC   C2B12310   4.847   7.886   6.042
  237POPC   C2C12311   4.724   7.906   5.954
  237POPC   C2D12312   4.728   8.039   5.878
  237POPC   C2E12313   4.838   8.048   5.771
  237POPC   C2F12314   4.812   7.954   5.653
  237POPC   C2G12315   4.914   7.975   5.541
  237POPC   C2H12316   4.890   7.878   5.426
  237POPC   C2I12317   4.985   7.903   5.310
  237POPC   C2J12318   4.969   7.794   5.204
  237POPC   C2K12319   5.062   7.819   5.084
  237POPC   C2L12320   5.063   7.701   4.986
  237POPC   C2M12321   4.930   7.680   4.915
  237POPC   C2N12322   4.938   7.558   4.822
  237POPC   C2O12323   4.809   7.533   4.744
  237POPC   C2P12324   4.693   7.492   4.835
  238POPC   CN112325   6.087   7.955   7.060
  238POPC   CN212326   5.903   7.822   6.988
  238POPC   CN312327   5.894   8.061   6.975
  238POPC   NTM12328   5.981   7.944   6.960
  238POPC    CA12329   6.044   7.940   6.826
  238POPC    CB12330   5.958   7.909   6.700
  238POPC    OA12331   5.848   7.995   6.669
  238POPC     P12332   5.891   8.096   6.557
  238POPC    OB12333   5.957   8.206   6.629
  238POPC    OC12334   5.952   8.014   6.452
  238POPC    OD12335   5.746   8.142   6.520
  238POPC    CC12336   5.709   8.103   6.388
  238POPC    CD12337   5.558   8.087   6.367
  238POPC    OE12338   5.527   8.027   6.239
  238POPC   C1A12339   5.412   7.963   6.223
  238POPC    OF12340   5.337   7.945   6.320
  238POPC   C1B12341   5.389   7.917   6.085
  238POPC   C1C12342   5.310   8.020   6.004
  238POPC   C1D12343   5.302   7.985   5.855
  238POPC   C1E12344   5.438   7.996   5.786
  238POPC   C1F12345   5.432   7.975   5.635
  238POPC   C1G12346   5.351   8.084   5.564
  238POPC   C1H12347   5.362   8.080   5.411
  238POPC   C1I12348   5.500   8.127   5.363
  238POPC   C1J12349   5.547   8.089   5.244
  238POPC   C1K12350   5.463   7.999   5.153
  238POPC   C1L12351   5.506   8.015   5.008
  238POPC   C1M12352   5.427   7.921   4.916
  238POPC   C1N12353   5.480   7.928   4.773
  238POPC   C1O12354   5.406   7.833   4.678
  238POPC   C1P12355   5.261   7.875   4.656
  238POPC   C1Q12356   5.191   7.781   4.557
  238POPC   C1R12357   5.047   7.826   4.533
  238POPC    CE12358   5.492   8.223   6.398
  238POPC    OG12359   5.538   8.338   6.324
  238POPC   C2A12360   5.448   8.434   6.303
  238POPC    OH12361   5.331   8.420   6.339
  238POPC   C2B12362   5.499   8.555   6.233
  238POPC   C2C12363   5.607   8.531   6.127
  238POPC   C2D12364   5.654   8.663   6.068
  238POPC   C2E12365   5.785   8.645   5.991
  238POPC   C2F12366   5.835   8.779   5.937
  238POPC   C2G12367   5.978   8.767   5.884
  238POPC   C2H12368   6.030   8.902   5.832
  238POPC   C2I12369   5.980   8.937   5.692
  238POPC   C2J12370   6.051   8.852   5.585
  238POPC   C2K12371   6.011   8.899   5.445
  238POPC   C2L12372   6.094   8.828   5.338
  238POPC   C2M12373   6.063   8.887   5.200
  238POPC   C2N12374   6.151   8.823   5.092
  238POPC   C2O12375   6.125   8.888   4.956
  238POPC   C2P12376   6.211   8.824   4.847
  239POPC   CN112377   6.616   7.838   6.322
  239POPC   CN212378   6.831   7.905   6.248
  239POPC   CN312379   6.639   8.008   6.154
  239POPC   NTM12380   6.696   7.953   6.278
  239POPC    CA12381   6.706   8.057   6.384
  239POPC    CB12382   6.578   8.132   6.431
  239POPC    OA12383   6.474   8.049   6.483
  239POPC     P12384   6.336   8.123   6.493
  239POPC    OB12385   6.255   8.039   6.583
  239POPC    OC12386   6.362   8.266   6.521
  239POPC    OD12387   6.289   8.108   6.344
  239POPC    CC12388   6.253   7.974   6.309
  239POPC    CD12389   6.186   7.957   6.171
  239POPC    OE12390   6.273   7.967   6.055
  239POPC   C1A12391   6.339   7.861   6.009
  239POPC    OF12392   6.374   7.770   6.085
  239POPC   C1B12393   6.395   7.884   5.874
  239POPC   C1C12394   6.387   7.759   5.786
  239POPC   C1D12395   6.442   7.782   5.645
  239POPC   C1E12396   6.357   7.882   5.565
  239POPC   C1F12397   6.409   7.905   5.423
  239POPC   C1G12398   6.385   7.784   5.332
  239POPC   C1H12399   6.431   7.813   5.189
  239POPC   C1I12400   6.397   7.696   5.097
  239POPC   C1J12401   6.391   7.712   4.965
  239POPC   C1K12402   6.421   7.849   4.903
  239POPC   C1L12403   6.381   7.851   4.755
  239POPC   C1M12404   6.420   7.983   4.690
  239POPC   C1N12405   6.386   7.987   4.540
  239POPC   C1O12406   6.235   7.986   4.514
  239POPC   C1P12407   6.205   7.989   4.364
  239POPC   C1Q12408   6.055   7.988   4.340
  239POPC   C1R12409   6.022   7.995   4.191
  239POPC    CE12410   6.071   8.060   6.173
  239POPC    OG12411   5.978   8.067   6.063
  239POPC   C2A12412   5.893   8.169   6.065
  239POPC    OH12413   5.892   8.250   6.158
  239POPC   C2B12414   5.800   8.174   5.951
  239POPC   C2C12415   5.854   8.265   5.840
  239POPC   C2D12416   5.742   8.304   5.743
  239POPC   C2E12417   5.793   8.396   5.632
  239POPC   C2F12418   5.675   8.460   5.559
  239POPC   C2G12419   5.718   8.545   5.439
  239POPC   C2H12420   5.764   8.459   5.321
  239POPC   C2I12421   5.792   8.544   5.197
  239POPC   C2J12422   5.827   8.454   5.079
  239POPC   C2K12423   5.848   8.529   4.947
  239POPC   C2L12424   5.719   8.597   4.898
  239POPC   C2M12425   5.725   8.635   4.750
  239POPC   C2N12426   5.832   8.739   4.717
  239POPC   C2O12427   5.833   8.769   4.567
  239POPC   C2P12428   5.944   8.867   4.531
  240POPC   CN112429   8.659   7.742   6.048
  240POPC   CN212430   8.546   7.537   6.096
  240POPC   CN312431   8.762   7.577   6.185
  240POPC   NTM12432   8.634   7.641   6.152
  240POPC    CA12433   8.578   7.699   6.276
  240POPC    CB12434   8.451   7.788   6.273
  240POPC    OA12435   8.336   7.733   6.209
  240POPC     P12436   8.228   7.845   6.186
  240POPC    OB12437   8.176   7.861   6.323
  240POPC    OC12438   8.301   7.951   6.115
  240POPC    OD12439   8.134   7.755   6.098
  240POPC    CC12440   8.182   7.745   5.964
  240POPC    CD12441   8.115   7.631   5.884
  240POPC    OE12442   8.189   7.591   5.765
  240POPC   C1A12443   8.297   7.515   5.779
  240POPC    OF12444   8.325   7.466   5.889
  240POPC   C1B12445   8.369   7.487   5.652
  240POPC   C1C12446   8.326   7.352   5.594
  240POPC   C1D12447   8.397   7.317   5.463
  240POPC   C1E12448   8.368   7.417   5.350
  240POPC   C1F12449   8.416   7.364   5.215
  240POPC   C1G12450   8.385   7.466   5.105
  240POPC   C1H12451   8.408   7.412   4.963
  240POPC   C1I12452   8.555   7.385   4.930
  240POPC   C1J12453   8.602   7.421   4.811
  240POPC   C1K12454   8.508   7.491   4.712
  240POPC   C1L12455   8.551   7.469   4.567
  240POPC   C1M12456   8.461   7.553   4.475
  240POPC   C1N12457   8.496   7.534   4.328
  240POPC   C1O12458   8.409   7.625   4.241
  240POPC   C1P12459   8.435   7.601   4.092
  240POPC   C1Q12460   8.361   7.702   4.003
  240POPC   C1R12461   8.209   7.690   4.013
  240POPC    CE12462   7.969   7.673   5.863
  240POPC    OG12463   7.952   7.787   5.778
  240POPC   C2A12464   7.837   7.853   5.783
  240POPC    OH12465   7.757   7.834   5.875
  240POPC   C2B12466   7.821   7.958   5.679
  240POPC   C2C12467   7.944   8.049   5.665
  240POPC   C2D12468   7.928   8.141   5.545
  240POPC   C2E12469   8.054   8.224   5.521
  240POPC   C2F12470   8.044   8.311   5.396
  240POPC   C2G12471   8.037   8.227   5.268
  240POPC   C2H12472   8.018   8.315   5.145
  240POPC   C2I12473   7.996   8.228   5.021
  240POPC   C2J12474   7.965   8.313   4.899
  240POPC   C2K12475   7.931   8.223   4.779
  240POPC   C2L12476   7.890   8.303   4.655
  240POPC   C2M12477   8.004   8.387   4.598
  240POPC   C2N12478   7.962   8.462   4.471
  240POPC   C2O12479   7.934   8.366   4.355
  240POPC   C2P12480   7.886   8.443   4.232
  241POPC   CN112481   8.448   8.379   6.364
  241POPC   CN212482   8.257   8.292   6.246
  241POPC   CN312483   8.352   8.503   6.189
  241POPC   NTM12484   8.383   8.366   6.232
  241POPC    CA12485   8.467   8.304   6.127
  241POPC    CB12486   8.555   8.181   6.158
  241POPC    OA12487   8.680   8.216   6.220
  241POPC     P12488   8.766   8.089   6.259
  241POPC    OB12489   8.891   8.141   6.316
  241POPC    OC12490   8.676   8.000   6.335
  241POPC    OD12491   8.791   8.028   6.117
  241POPC    CC12492   8.900   8.090   6.049
  241POPC    CD12493   8.916   8.050   5.901
  241POPC    OE12494   9.040   8.094   5.839
  241POPC   C1A12495   9.155   8.032   5.865
  241POPC    OF12496   9.163   7.950   5.957
  241POPC   C1B12497   9.269   8.086   5.788
  241POPC   C1C12498   9.374   7.980   5.755
  241POPC   C1D12499   9.486   8.039   5.669
  241POPC   C1E12500   9.587   7.931   5.632
  241POPC   C1F12501   9.689   7.983   5.531
  241POPC   C1G12502   9.791   7.874   5.500
  241POPC   C1H12503   9.901   7.921   5.403
  241POPC   C1I12504  10.018   7.822   5.405
  241POPC   C1J12505  10.045   7.740   5.304
  241POPC   C1K12506   9.964   7.740   5.175
  241POPC   C1L12507  10.051   7.692   5.059
  241POPC   C1M12508   9.977   7.705   4.925
  241POPC   C1N12509  10.068   7.664   4.810
  241POPC   C1O12510   9.999   7.685   4.675
  241POPC   C1P12511  10.091   7.646   4.559
  241POPC   C1Q12512  10.020   7.668   4.426
  241POPC   C1R12513  10.110   7.627   4.309
  241POPC    CE12514   8.791   8.105   5.829
  241POPC    OG12515   8.676   8.018   5.823
  241POPC   C2A12516   8.560   8.079   5.797
  241POPC    OH12517   8.545   8.198   5.826
  241POPC   C2B12518   8.451   7.989   5.754
  241POPC   C2C12519   8.452   7.976   5.601
  241POPC   C2D12520   8.327   7.907   5.547
  241POPC   C2E12521   8.340   7.891   5.395
  241POPC   C2F12522   8.206   7.855   5.331
  241POPC   C2G12523   8.222   7.829   5.181
  241POPC   C2H12524   8.085   7.820   5.113
  241POPC   C2I12525   8.091   7.766   4.970
  241POPC   C2J12526   8.174   7.850   4.872
  241POPC   C2K12527   8.162   7.793   4.731
  241POPC   C2L12528   8.249   7.863   4.627
  241POPC   C2M12529   8.215   8.011   4.609
  241POPC   C2N12530   8.293   8.077   4.495
  241POPC   C2O12531   8.252   8.024   4.358
  241POPC   C2P12532   8.325   8.097   4.246
  242POPC   CN112533   9.337   7.534   6.018
  242POPC   CN212534   9.520   7.509   6.168
  242POPC   CN312535   9.557   7.572   5.940
  242POPC   NTM12536   9.468   7.588   6.056
  242POPC    CA12537   9.451   7.731   6.091
  242POPC    CB12538   9.566   7.813   6.155
  242POPC    OA12539   9.692   7.814   6.087
  242POPC     P12540   9.784   7.920   6.157
  242POPC    OB12541   9.721   8.052   6.142
  242POPC    OC12542   9.816   7.865   6.289
  242POPC    OD12543   9.912   7.914   6.068
  242POPC    CC12544   9.888   7.966   5.937
  242POPC    CD12545  10.013   7.971   5.848
  242POPC    OE12546  10.000   8.064   5.736
  242POPC   C1A12547  10.042   8.189   5.754
  242POPC    OF12548  10.099   8.223   5.858
  242POPC   C1B12549  10.008   8.281   5.643
  242POPC   C1C12550  10.100   8.268   5.521
  242POPC   C1D12551  10.065   8.376   5.418
  242POPC   C1E12552  10.135   8.352   5.285
  242POPC   C1F12553  10.111   8.467   5.186
  242POPC   C1G12554  10.160   8.436   5.044
  242POPC   C1H12555  10.311   8.409   5.033
  242POPC   C1I12556  10.399   8.533   5.048
  242POPC   C1J12557  10.517   8.534   4.986
  242POPC   C1K12558  10.558   8.413   4.903
  242POPC   C1L12559  10.654   8.452   4.790
  242POPC   C1M12560  10.686   8.331   4.702
  242POPC   C1N12561  10.793   8.361   4.596
  242POPC   C1O12562  10.746   8.463   4.492
  242POPC   C1P12563  10.853   8.491   4.386
  242POPC   C1Q12564  10.976   8.562   4.444
  242POPC   C1R12565  11.081   8.586   4.336
  242POPC    CE12566  10.058   7.827   5.820
  242POPC    OG12567   9.957   7.734   5.776
  242POPC   C2A12568   9.994   7.606   5.774
  242POPC    OH12569  10.105   7.567   5.810
  242POPC   C2B12570   9.888   7.515   5.724
  242POPC   C2C12571   9.904   7.494   5.573
  242POPC   C2D12572   9.818   7.378   5.524
  242POPC   C2E12573   9.828   7.367   5.372
  242POPC   C2F12574   9.771   7.234   5.322
  242POPC   C2G12575   9.768   7.225   5.170
  242POPC   C2H12576   9.906   7.241   5.104
  242POPC   C2I12577   9.902   7.223   4.952
  242POPC   C2J12578   9.808   7.322   4.883
  242POPC   C2K12579   9.812   7.305   4.731
  242POPC   C2L12580   9.707   7.396   4.666
  242POPC   C2M12581   9.718   7.400   4.513
  242POPC   C2N12582   9.689   7.264   4.448
  242POPC   C2O12583   9.701   7.271   4.295
  242POPC   C2P12584   9.844   7.299   4.248
  243POPC   CN112585  10.363   8.071   6.269
  243POPC   CN212586  10.217   8.217   6.383
  243POPC   CN312587  10.152   8.130   6.173
  243POPC   NTM12588  10.221   8.097   6.298
  243POPC    CA12589  10.156   7.984   6.368
  243POPC    CB12590  10.142   7.846   6.298
  243POPC    OA12591  10.265   7.783   6.264
  243POPC     P12592  10.251   7.669   6.157
  243POPC    OB12593  10.362   7.579   6.190
  243POPC    OC12594  10.111   7.623   6.151
  243POPC    OD12595  10.288   7.753   6.029
  243POPC    CC12596  10.425   7.791   6.024
  243POPC    CD12597  10.482   7.827   5.885
  243POPC    OE12598  10.425   7.945   5.820
  243POPC   C1A12599  10.460   8.068   5.855
  243POPC    OF12600  10.503   8.092   5.969
  243POPC   C1B12601  10.424   8.168   5.752
  243POPC   C1C12602  10.520   8.287   5.753
  243POPC   C1D12603  10.510   8.370   5.625
  243POPC   C1E12604  10.595   8.496   5.636
  243POPC   C1F12605  10.629   8.555   5.498
  243POPC   C1G12606  10.737   8.474   5.427
  243POPC   C1H12607  10.773   8.531   5.291
  243POPC   C1I12608  10.884   8.448   5.227
  243POPC   C1J12609  10.962   8.495   5.130
  243POPC   C1K12610  10.944   8.635   5.071
  243POPC   C1L12611  10.976   8.631   4.921
  243POPC   C1M12612  10.963   8.766   4.850
  243POPC   C1N12613  11.075   8.863   4.888
  243POPC   C1O12614  11.073   8.985   4.796
  243POPC   C1P12615  11.192   9.077   4.824
  243POPC   C1Q12616  11.199   9.195   4.726
  243POPC   C1R12617  11.233   9.150   4.584
  243POPC    CE12618  10.467   7.699   5.801
  243POPC    OG12619  10.548   7.694   5.682
  243POPC   C2A12620  10.524   7.594   5.598
  243POPC    OH12621  10.440   7.508   5.623
  243POPC   C2B12622  10.610   7.596   5.477
  243POPC   C2C12623  10.526   7.615   5.351
  243POPC   C2D12624  10.609   7.606   5.223
  243POPC   C2E12625  10.515   7.631   5.104
  243POPC   C2F12626  10.582   7.614   4.968
  243POPC   C2G12627  10.477   7.645   4.860
  243POPC   C2H12628  10.519   7.609   4.718
  243POPC   C2I12629  10.634   7.693   4.662
  243POPC   C2J12630  10.648   7.673   4.511
  243POPC   C2K12631  10.693   7.531   4.472
  243POPC   C2L12632  10.662   7.502   4.325
  243POPC   C2M12633  10.511   7.478   4.305
  243POPC   C2N12634  10.470   7.480   4.158
  243POPC   C2O12635  10.476   7.621   4.100
  243POPC   C2P12636  10.425   7.624   3.956
  244POPC   CN112637  11.374   8.482   6.865
  244POPC   CN212638  11.299   8.288   6.751
  244POPC   CN312639  11.146   8.467   6.796
  244POPC   NTM12640  11.285   8.434   6.759
  244POPC    CA12641  11.326   8.503   6.634
  244POPC    CB12642  11.248   8.480   6.502
  244POPC    OA12643  11.237   8.346   6.453
  244POPC     P12644  11.115   8.342   6.355
  244POPC    OB12645  11.000   8.373   6.440
  244POPC    OC12646  11.158   8.428   6.244
  244POPC    OD12647  11.118   8.187   6.321
  244POPC    CC12648  11.185   8.162   6.198
  244POPC    CD12649  11.226   8.016   6.172
  244POPC    OE12650  11.321   8.005   6.062
  244POPC   C1A12651  11.406   7.903   6.056
  244POPC    OF12652  11.399   7.810   6.137
  244POPC   C1B12653  11.513   7.918   5.954
  244POPC   C1C12654  11.490   7.844   5.822
  244POPC   C1D12655  11.389   7.913   5.729
  244POPC   C1E12656  11.378   7.842   5.594
  244POPC   C1F12657  11.504   7.857   5.508
  244POPC   C1G12658  11.493   7.775   5.379
  244POPC   C1H12659  11.615   7.792   5.287
  244POPC   C1I12660  11.615   7.927   5.215
  244POPC   C1J12661  11.680   7.943   5.099
  244POPC   C1K12662  11.758   7.827   5.037
  244POPC   C1L12663  11.774   7.844   4.886
  244POPC   C1M12664  11.866   7.735   4.830
  244POPC   C1N12665  11.893   7.748   4.680
  244POPC   C1O12666  11.769   7.720   4.596
  244POPC   C1P12667  11.803   7.713   4.447
  244POPC   C1Q12668  11.680   7.675   4.365
  244POPC   C1R12669  11.714   7.659   4.217
  244POPC    CE12670  11.097   7.933   6.164
  244POPC    OG12671  11.007   7.964   6.055
  244POPC   C2A12672  11.003   7.875   5.956
  244POPC    OH12673  11.053   7.763   5.968
  244POPC   C2B12674  10.915   7.918   5.844
  244POPC   C2C12675  10.972   7.874   5.709
  244POPC   C2D12676  10.878   7.900   5.591
  244POPC   C2E12677  10.853   8.049   5.566
  244POPC   C2F12678  10.771   8.074   5.439
  244POPC   C2G12679  10.630   8.014   5.446
  244POPC   C2H12680  10.545   8.053   5.326
  244POPC   C2I12681  10.409   7.984   5.332
  244POPC   C2J12682  10.314   8.027   5.220
  244POPC   C2K12683  10.364   7.992   5.080
  244POPC   C2L12684  10.262   8.034   4.974
  244POPC   C2M12685  10.315   8.012   4.833
  244POPC   C2N12686  10.215   8.061   4.729
  244POPC   C2O12687  10.269   8.040   4.587
  244POPC   C2P12688  10.168   8.087   4.483
  245POPC   CN112689  11.801   7.824   6.801
  245POPC   CN212690  11.678   7.732   6.621
  245POPC   CN312691  11.735   7.962   6.614
  245POPC   NTM12692  11.783   7.829   6.655
  245POPC    CA12693  11.908   7.790   6.584
  245POPC    CB12694  12.041   7.867   6.606
  245POPC    OA12695  12.040   8.005   6.570
  245POPC     P12696  12.164   8.039   6.477
  245POPC    OB12697  12.274   8.056   6.574
  245POPC    OC12698  12.164   7.933   6.375
  245POPC    OD12699  12.107   8.178   6.430
  245POPC    CC12700  12.010   8.161   6.326
  245POPC    CD12701  11.915   8.280   6.302
  245POPC    OE12702  11.799   8.240   6.224
  245POPC   C1A12703  11.688   8.312   6.232
  245POPC    OF12704  11.675   8.397   6.320
  245POPC   C1B12705  11.580   8.260   6.145
  245POPC   C1C12706  11.494   8.368   6.078
  245POPC   C1D12707  11.549   8.416   5.943
  245POPC   C1E12708  11.662   8.519   5.954
  245POPC   C1F12709  11.712   8.555   5.815
  245POPC   C1G12710  11.813   8.669   5.818
  245POPC   C1H12711  11.863   8.698   5.676
  245POPC   C1I12712  11.958   8.818   5.673
  245POPC   C1J12713  11.977   8.884   5.559
  245POPC   C1K12714  11.907   8.839   5.431
  245POPC   C1L12715  11.991   8.875   5.308
  245POPC   C1M12716  11.925   8.824   5.180
  245POPC   C1N12717  12.009   8.858   5.057
  245POPC   C1O12718  11.945   8.802   4.930
  245POPC   C1P12719  12.028   8.835   4.807
  245POPC   C1Q12720  11.965   8.775   4.681
  245POPC   C1R12721  12.047   8.810   4.557
  245POPC    CE12722  11.998   8.398   6.247
  245POPC    OG12723  12.078   8.372   6.130
  245POPC   C2A12724  12.149   8.473   6.081
  245POPC    OH12725  12.137   8.588   6.126
  245POPC   C2B12726  12.230   8.437   5.962
  245POPC   C2C12727  12.156   8.462   5.830
  245POPC   C2D12728  12.245   8.425   5.712
  245POPC   C2E12729  12.176   8.459   5.579
  245POPC   C2F12730  12.268   8.429   5.460
  245POPC   C2G12731  12.201   8.467   5.328
  245POPC   C2H12732  12.296   8.440   5.211
  245POPC   C2I12733  12.231   8.476   5.077
  245POPC   C2J12734  12.331   8.452   4.964
  245POPC   C2K12735  12.272   8.483   4.826
  245POPC   C2L12736  12.379   8.463   4.718
  245POPC   C2M12737  12.325   8.494   4.579
  245POPC   C2N12738  12.437   8.480   4.474
  245POPC   C2O12739  12.388   8.508   4.332
  245POPC   C2P12740  12.291   8.401   4.280
  246POPC   CN112741  13.337   9.259   6.553
  246POPC   CN212742  13.153   9.410   6.532
  246POPC   CN312743  13.208   9.320   6.743
  246POPC   NTM12744  13.265   9.370   6.618
  246POPC    CA12745  13.355   9.483   6.651
  246POPC    CB12746  13.419   9.570   6.539
  246POPC    OA12747  13.500   9.502   6.442
  246POPC     P12748  13.524   9.597   6.318
  246POPC    OB12749  13.536   9.734   6.366
  246POPC    OC12750  13.634   9.533   6.244
  246POPC    OD12751  13.384   9.570   6.252
  246POPC    CC12752  13.384   9.456   6.167
  246POPC    CD12753  13.241   9.417   6.125
  246POPC    OE12754  13.230   9.286   6.065
  246POPC   C1A12755  13.204   9.179   6.140
  246POPC    OF12756  13.173   9.191   6.259
  246POPC   C1B12757  13.193   9.055   6.060
  246POPC   C1C12758  13.051   9.041   6.007
  246POPC   C1D12759  13.046   8.945   5.888
  246POPC   C1E12760  12.908   8.946   5.822
  246POPC   C1F12761  12.912   8.887   5.681
  246POPC   C1G12762  12.997   8.973   5.588
  246POPC   C1H12763  13.015   8.909   5.450
  246POPC   C1I12764  13.115   8.993   5.370
  246POPC   C1J12765  13.123   8.989   5.237
  246POPC   C1K12766  13.037   8.899   5.148
  246POPC   C1L12767  13.119   8.781   5.095
  246POPC   C1M12768  13.056   8.718   4.970
  246POPC   C1N12769  13.068   8.813   4.851
  246POPC   C1O12770  13.007   8.753   4.724
  246POPC   C1P12771  13.023   8.850   4.607
  246POPC   C1Q12772  12.961   8.796   4.477
  246POPC   C1R12773  12.808   8.787   4.485
  246POPC    CE12774  13.183   9.535   6.044
  246POPC    OG12775  13.258   9.576   5.928
  246POPC   C2A12776  13.209   9.678   5.858
  246POPC    OH12777  13.106   9.736   5.893
  246POPC   C2B12778  13.289   9.705   5.736
  246POPC   C2C12779  13.281   9.849   5.683
  246POPC   C2D12780  13.147   9.881   5.615
  246POPC   C2E12781  13.124   9.803   5.486
  246POPC   C2F12782  12.991   9.845   5.423
  246POPC   C2G12783  12.962   9.776   5.289
  246POPC   C2H12784  13.065   9.811   5.182
  246POPC   C2I12785  13.021   9.760   5.044
  246POPC   C2J12786  13.127   9.793   4.939
  246POPC   C2K12787  13.075   9.764   4.798
  246POPC   C2L12788  13.183   9.790   4.693
  246POPC   C2M12789  13.292   9.682   4.689
  246POPC   C2N12790  13.239   9.551   4.630
  246POPC   C2O12791  13.347   9.443   4.628
  246POPC   C2P12792  13.297   9.318   4.557
  247POPC   CN112793  14.385   9.180   6.418
  247POPC   CN212794  14.566   9.284   6.302
  247POPC   CN312795  14.583   9.244   6.533
  247POPC   NTM12796  14.531   9.189   6.408
  247POPC    CA12797  14.596   9.057   6.386
  247POPC    CB12798  14.566   8.970   6.262
  247POPC    OA12799  14.434   8.918   6.249
  247POPC     P12800  14.426   8.823   6.123
  247POPC    OB12801  14.548   8.742   6.113
  247POPC    OC12802  14.294   8.759   6.133
  247POPC    OD12803  14.425   8.928   6.006
  247POPC    CC12804  14.294   8.978   5.975
  247POPC    CD12805  14.283   9.063   5.848
  247POPC    OE12806  14.144   9.094   5.818
  247POPC   C1A12807  14.089   9.205   5.865
  247POPC    OF12808  14.157   9.289   5.925
  247POPC   C1B12809  13.943   9.220   5.839
  247POPC   C1C12810  13.863   9.090   5.840
  247POPC   C1D12811  13.712   9.112   5.863
  247POPC   C1E12812  13.651   9.210   5.763
  247POPC   C1F12813  13.500   9.224   5.785
  247POPC   C1G12814  13.441   9.338   5.701
  247POPC   C1H12815  13.463   9.318   5.551
  247POPC   C1I12816  13.412   9.437   5.470
  247POPC   C1J12817  13.379   9.417   5.343
  247POPC   C1K12818  13.395   9.277   5.286
  247POPC   C1L12819  13.408   9.280   5.134
  247POPC   C1M12820  13.431   9.139   5.079
  247POPC   C1N12821  13.436   9.140   4.927
  247POPC   C1O12822  13.462   9.000   4.872
  247POPC   C1P12823  13.471   9.005   4.720
  247POPC   C1Q12824  13.502   8.867   4.661
  247POPC   C1R12825  13.519   8.878   4.509
  247POPC    CE12826  14.354   8.985   5.736
  247POPC    OG12827  14.382   9.060   5.616
  247POPC   C2A12828  14.450   8.999   5.520
  247POPC    OH12829  14.503   8.889   5.539
  247POPC   C2B12830  14.465   9.082   5.399
  247POPC   C2C12831  14.408   9.011   5.276
  247POPC   C2D12832  14.415   9.096   5.149
  247POPC   C2E12833  14.322   9.217   5.154
  247POPC   C2F12834  14.326   9.294   5.021
  247POPC   C2G12835  14.237   9.418   5.027
  247POPC   C2H12836  14.246   9.498   4.897
  247POPC   C2I12837  14.159   9.624   4.905
  247POPC   C2J12838  14.164   9.710   4.778
  247POPC   C2K12839  14.105   9.639   4.655
  247POPC   C2L12840  14.094   9.735   4.537
  247POPC   C2M12841  14.035   9.666   4.414
  247POPC   C2N12842  14.007   9.763   4.299
  247POPC   C2O12843  14.134   9.825   4.241
  247POPC   C2P12844  14.100   9.922   4.127
  248POPC   CN112845  15.059   8.349   6.510
  248POPC   CN212846  15.136   8.514   6.668
  248POPC   CN312847  15.285   8.352   6.575
  248POPC   NTM12848  15.170   8.438   6.547
  248POPC    CA12849  15.209   8.529   6.436
  248POPC    CB12850  15.101   8.613   6.364
  248POPC    OA12851  15.011   8.692   6.443
  248POPC     P12852  14.895   8.743   6.349
  248POPC    OB12853  14.849   8.632   6.267
  248POPC    OC12854  14.800   8.816   6.433
  248POPC    OD12855  14.977   8.848   6.268
  248POPC    CC12856  14.916   8.876   6.143
  248POPC    CD12857  14.978   9.000   6.076
  248POPC    OE12858  14.897   9.056   5.970
  248POPC   C1A12859  14.804   9.145   6.005
  248POPC    OF12860  14.793   9.179   6.124
  248POPC   C1B12861  14.718   9.192   5.894
  248POPC   C1C12862  14.673   9.337   5.919
  248POPC   C1D12863  14.556   9.378   5.829
  248POPC   C1E12864  14.512   9.519   5.866
  248POPC   C1F12865  14.385   9.566   5.793
  248POPC   C1G12866  14.403   9.572   5.642
  248POPC   C1H12867  14.278   9.631   5.576
  248POPC   C1I12868  14.281   9.613   5.424
  248POPC   C1J12869  14.312   9.713   5.341
  248POPC   C1K12870  14.346   9.854   5.387
  248POPC   C1L12871  14.293   9.953   5.284
  248POPC   C1M12872  14.335  10.099   5.309
  248POPC   C1N12873  14.268  10.193   5.209
  248POPC   C1O12874  14.303  10.158   5.064
  248POPC   C1P12875  14.210  10.226   4.964
  248POPC   C1Q12876  14.233  10.172   4.824
  248POPC   C1R12877  14.133  10.229   4.724
  248POPC    CE12878  15.126   8.966   6.048
  248POPC    OG12879  15.150   8.852   5.963
  248POPC   C2A12880  15.273   8.802   5.967
  248POPC    OH12881  15.359   8.844   6.045
  248POPC   C2B12882  15.290   8.693   5.867
  248POPC   C2C12883  15.428   8.696   5.801
  248POPC   C2D12884  15.432   8.597   5.684
  248POPC   C2E12885  15.575   8.585   5.630
  248POPC   C2F12886  15.584   8.484   5.516
  248POPC   C2G12887  15.571   8.547   5.377
  248POPC   C2H12888  15.697   8.627   5.342
  248POPC   C2I12889  15.698   8.665   5.194
  248POPC   C2J12890  15.820   8.752   5.163
  248POPC   C2K12891  15.826   8.789   5.015
  248POPC   C2L12892  15.933   8.895   4.991
  248POPC   C2M12893  15.945   8.937   4.845
  248POPC   C2N12894  16.015   8.830   4.760
  248POPC   C2O12895  16.038   8.881   4.618
  248POPC   C2P12896  16.123   8.782   4.537
  249POPC   CN112897  14.686   8.718   5.728
  249POPC   CN212898  14.787   8.507   5.684
  249POPC   CN312899  14.919   8.691   5.761
  249POPC   NTM12900  14.789   8.624   5.774
  249POPC    CA12901  14.760   8.584   5.914
  249POPC    CB12902  14.846   8.477   5.985
  249POPC    OA12903  14.987   8.503   5.987
  249POPC     P12904  15.064   8.398   6.073
  249POPC    OB12905  15.192   8.460   6.112
  249POPC    OC12906  14.976   8.336   6.174
  249POPC    OD12907  15.085   8.290   5.961
  249POPC    CC12908  15.207   8.311   5.891
  249POPC    CD12909  15.238   8.200   5.789
  249POPC    OE12910  15.378   8.196   5.753
  249POPC   C1A12911  15.466   8.139   5.835
  249POPC    OF12912  15.430   8.074   5.933
  249POPC   C1B12913  15.605   8.173   5.797
  249POPC   C1C12914  15.698   8.053   5.785
  249POPC   C1D12915  15.833   8.095   5.726
  249POPC   C1E12916  15.816   8.148   5.583
  249POPC   C1F12917  15.947   8.194   5.519
  249POPC   C1G12918  15.913   8.257   5.384
  249POPC   C1H12919  16.036   8.305   5.307
  249POPC   C1I12920  15.990   8.381   5.183
  249POPC   C1J12921  16.062   8.385   5.072
  249POPC   C1K12922  16.199   8.316   5.062
  249POPC   C1L12923  16.226   8.259   4.922
  249POPC   C1M12924  16.226   8.366   4.812
  249POPC   C1N12925  16.248   8.303   4.674
  249POPC   C1O12926  16.229   8.409   4.565
  249POPC   C1P12927  16.256   8.355   4.425
  249POPC   C1Q12928  16.405   8.326   4.399
  249POPC   C1R12929  16.490   8.454   4.393
  249POPC    CE12930  15.139   8.218   5.673
  249POPC    OG12931  15.161   8.334   5.591
  249POPC   C2A12932  15.087   8.343   5.481
  249POPC    OH12933  14.975   8.291   5.478
  249POPC   C2B12934  15.139   8.438   5.381
  249POPC   C2C12935  15.073   8.576   5.389
  249POPC   C2D12936  15.120   8.663   5.273
  249POPC   C2E12937  15.046   8.798   5.270
  249POPC   C2F12938  15.097   8.883   5.153
  249POPC   C2G12939  15.033   9.022   5.152
  249POPC   C2H12940  15.092   9.110   5.042
  249POPC   C2I12941  15.051   9.064   4.902
  249POPC   C2J12942  15.125   9.144   4.794
  249POPC   C2K12943  15.073   9.105   4.655
  249POPC   C2L12944  15.153   9.171   4.541
  249POPC   C2M12945  15.292   9.110   4.526
  249POPC   C2N12946  15.367   9.172   4.408
  249POPC   C2O12947  15.505   9.111   4.385
  249POPC   C2P12948  15.603   9.143   4.498
  250POPC   CN112949  15.870   9.327   6.844
  250POPC   CN212950  15.907   9.109   6.934
  250POPC   CN312951  15.945   9.156   6.702
  250POPC   NTM12952  15.957   9.209   6.838
  250POPC    CA12953  16.096   9.250   6.869
  250POPC    CB12954  16.212   9.147   6.862
  250POPC    OA12955  16.247   9.091   6.735
  250POPC     P12956  16.356   9.177   6.658
  250POPC    OB12957  16.435   9.252   6.755
  250POPC    OC12958  16.417   9.078   6.568
  250POPC    OD12959  16.257   9.270   6.580
  250POPC    CC12960  16.223   9.219   6.451
  250POPC    CD12961  16.130   9.310   6.370
  250POPC    OE12962  16.062   9.246   6.259
  250POPC   C1A12963  15.952   9.173   6.280
  250POPC    OF12964  15.904   9.161   6.393
  250POPC   C1B12965  15.894   9.115   6.157
  250POPC   C1C12966  15.741   9.115   6.160
  250POPC   C1D12967  15.678   9.053   6.035
  250POPC   C1E12968  15.711   9.132   5.909
  250POPC   C1F12969  15.652   9.067   5.784
  250POPC   C1G12970  15.704   9.135   5.657
  250POPC   C1H12971  15.651   9.277   5.640
  250POPC   C1I12972  15.729   9.349   5.529
  250POPC   C1J12973  15.673   9.439   5.450
  250POPC   C1K12974  15.525   9.475   5.461
  250POPC   C1L12975  15.476   9.530   5.327
  250POPC   C1M12976  15.327   9.564   5.330
  250POPC   C1N12977  15.285   9.622   5.194
  250POPC   C1O12978  15.136   9.654   5.191
  250POPC   C1P12979  15.091   9.713   5.057
  250POPC   C1Q12980  15.105   9.613   4.942
  250POPC   C1R12981  15.056   9.674   4.810
  250POPC    CE12982  16.209   9.439   6.340
  250POPC    OG12983  16.337   9.424   6.275
  250POPC   C2A12984  16.400   9.536   6.242
  250POPC    OH12985  16.358   9.647   6.274
  250POPC   C2B12986  16.526   9.512   6.169
  250POPC   C2C12987  16.500   9.485   6.021
  250POPC   C2D12988  16.631   9.466   5.944
  250POPC   C2E12989  16.601   9.430   5.798
  250POPC   C2F12990  16.728   9.439   5.713
  250POPC   C2G12991  16.702   9.396   5.568
  250POPC   C2H12992  16.599   9.483   5.496
  250POPC   C2I12993  16.571   9.435   5.353
  250POPC   C2J12994  16.694   9.449   5.263
  250POPC   C2K12995  16.668   9.398   5.120
  250POPC   C2L12996  16.648   9.246   5.115
  250POPC   C2M12997  16.634   9.195   4.972
  250POPC   C2N12998  16.764   9.212   4.892
  250POPC   C2O12999  16.751   9.167   4.746
  250POPC   C2P13000  16.731   9.016   4.733
  251POPC   CN113001  16.339   8.288   6.395
  251POPC   CN213002  16.368   8.511   6.474
  251POPC   CN313003  16.200   8.374   6.568
  251POPC   NTM13004  16.336   8.373   6.514
  251POPC    CA13005  16.429   8.322   6.619
  251POPC    CB13006  16.577   8.296   6.582
  251POPC    OA13007  16.642   8.406   6.519
  251POPC     P13008  16.779   8.361   6.459
  251POPC    OB13009  16.857   8.338   6.581
  251POPC    OC13010  16.743   8.256   6.362
  251POPC    OD13011  16.815   8.496   6.389
  251POPC    CC13012  16.738   8.518   6.270
  251POPC    CD13013  16.776   8.649   6.198
  251POPC    OE13014  16.677   8.700   6.105
  251POPC   C1A13015  16.569   8.763   6.150
  251POPC    OF13016  16.547   8.773   6.271
  251POPC   C1B13017  16.480   8.811   6.041
  251POPC   C1C13018  16.420   8.949   6.071
  251POPC   C1D13019  16.333   8.994   5.954
  251POPC   C1E13020  16.279   9.136   5.973
  251POPC   C1F13021  16.198   9.178   5.850
  251POPC   C1G13022  16.153   9.324   5.857
  251POPC   C1H13023  16.087   9.364   5.725
  251POPC   C1I13024  16.046   9.511   5.725
  251POPC   C1J13025  16.049   9.582   5.612
  251POPC   C1K13026  16.093   9.519   5.480
  251POPC   C1L13027  16.028   9.591   5.362
  251POPC   C1M13028  16.065   9.532   5.226
  251POPC   C1N13029  16.213   9.551   5.192
  251POPC   C1O13030  16.246   9.514   5.047
  251POPC   C1P13031  16.229   9.365   5.016
  251POPC   C1Q13032  16.261   9.338   4.869
  251POPC   C1R13033  16.250   9.188   4.837
  251POPC    CE13034  16.919   8.627   6.144
  251POPC    OG13035  16.937   8.528   6.042
  251POPC   C2A13036   0.057   8.445   6.054
  251POPC    OH13037   0.111   8.427   6.163
  251POPC   C2B13038   0.085   8.367   5.931
  251POPC   C2C13039  16.958   8.265   5.900
  251POPC   C2D13040   0.006   8.180   5.777
  251POPC   C2E13041   0.013   8.259   5.646
  251POPC   C2F13042   0.043   8.164   5.530
  251POPC   C2G13043   0.066   8.239   5.399
  251POPC   C2H13044   0.108   8.142   5.289
  251POPC   C2I13045   0.158   8.217   5.165
  251POPC   C2J13046   0.223   8.120   5.067
  251POPC   C2K13047   0.301   8.194   4.957
  251POPC   C2L13048   0.213   8.259   4.850
  251POPC   C2M13049   0.152   8.155   4.756
  251POPC   C2N13050   0.071   8.218   4.642
  251POPC   C2O13051   0.159   8.296   4.544
  251POPC   C2P13052   0.075   8.358   4.432
  252POPC   CN113053   0.628   8.854   6.664
  252POPC   CN213054   0.772   8.665   6.667
  252POPC   CN313055   0.586   8.679   6.818
  252POPC   NTM13056   0.632   8.709   6.682
  252POPC    CA13057   0.543   8.647   6.581
  252POPC    CB13058   0.520   8.494   6.575
  252POPC    OA13059   0.634   8.416   6.540
  252POPC     P13060   0.605   8.261   6.532
  252POPC    OB13061   0.741   8.206   6.525
  252POPC    OC13062   0.513   8.228   6.643
  252POPC    OD13063   0.525   8.263   6.397
  252POPC    CC13064   0.606   8.259   6.280
  252POPC    CD13065   0.531   8.316   6.159
  252POPC    OE13066   0.592   8.290   6.029
  252POPC   C1A13067   0.512   8.231   5.940
  252POPC    OF13068   0.421   8.157   5.980
  252POPC   C1B13069   0.557   8.243   5.800
  252POPC   C1C13070   0.439   8.240   5.702
  252POPC   C1D13071   0.481   8.256   5.555
  252POPC   C1E13072   0.568   8.141   5.506
  252POPC   C1F13073   0.609   8.160   5.359
  252POPC   C1G13074   0.712   8.055   5.319
  252POPC   C1H13075   0.765   8.075   5.176
  252POPC   C1I13076   0.666   8.026   5.070
  252POPC   C1J13077   0.660   8.086   4.951
  252POPC   C1K13078   0.749   8.207   4.921
  252POPC   C1L13079   0.680   8.301   4.822
  252POPC   C1M13080   0.765   8.426   4.793
  252POPC   C1N13081   0.895   8.391   4.721
  252POPC   C1O13082   0.983   8.515   4.705
  252POPC   C1P13083   1.119   8.478   4.647
  252POPC   C1Q13084   1.215   8.598   4.644
  252POPC   C1R13085   1.250   8.646   4.785
  252POPC    CE13086   0.505   8.463   6.197
  252POPC    OG13087   0.424   8.544   6.112
  252POPC   C2A13088   0.384   8.661   6.162
  252POPC    OH13089   0.414   8.696   6.276
  252POPC   C2B13090   0.310   8.742   6.063
  252POPC   C2C13091   0.405   8.839   5.992
  252POPC   C2D13092   0.356   8.875   5.852
  252POPC   C2E13093   0.369   8.754   5.758
  252POPC   C2F13094   0.326   8.788   5.615
  252POPC   C2G13095   0.342   8.666   5.526
  252POPC   C2H13096   0.301   8.697   5.382
  252POPC   C2I13097   0.317   8.573   5.293
  252POPC   C2J13098   0.270   8.597   5.150
  252POPC   C2K13099   0.356   8.699   5.075
  252POPC   C2L13100   0.316   8.709   4.929
  252POPC   C2M13101   0.410   8.804   4.854
  252POPC   C2N13102   0.379   8.807   4.705
  252POPC   C2O13103   0.478   8.896   4.631
  252POPC   C2P13104   0.450   8.896   4.481
  253POPC   CN113105   0.651   7.824   6.801
  253POPC   CN213106   0.876   7.845   6.872
  253POPC   CN313107   0.816   7.680   6.709
  253POPC   NTM13108   0.791   7.817   6.756
  253POPC    CA13109   0.807   7.916   6.647
  253POPC    CB13110   0.943   7.929   6.573
  253POPC    OA13111   1.054   7.964   6.657
  253POPC     P13112   1.193   7.934   6.591
  253POPC    OB13113   1.294   7.958   6.695
  253POPC    OC13114   1.185   7.802   6.526
  253POPC    OD13115   1.196   8.045   6.481
  253POPC    CC13116   1.220   8.175   6.536
  253POPC    CD13117   1.228   8.289   6.433
  253POPC    OE13118   1.099   8.329   6.377
  253POPC   C1A13119   1.046   8.443   6.420
  253POPC    OF13120   1.071   8.481   6.534
  253POPC   C1B13121   0.933   8.492   6.337
  253POPC   C1C13122   0.941   8.643   6.315
  253POPC   C1D13123   0.809   8.695   6.256
  253POPC   C1E13124   0.811   8.846   6.227
  253POPC   C1F13125   0.891   8.879   6.101
  253POPC   C1G13126   0.888   9.028   6.070
  253POPC   C1H13127   0.962   9.057   5.939
  253POPC   C1I13128   0.971   9.206   5.907
  253POPC   C1J13129   0.992   9.243   5.781
  253POPC   C1K13130   1.004   9.135   5.674
  253POPC   C1L13131   0.972   9.183   5.532
  253POPC   C1M13132   1.083   9.269   5.471
  253POPC   C1N13133   1.051   9.297   5.324
  253POPC   C1O13134   1.166   9.374   5.257
  253POPC   C1P13135   1.136   9.394   5.108
  253POPC   C1Q13136   1.249   9.471   5.039
  253POPC   C1R13137   1.219   9.489   4.891
  253POPC    CE13138   1.335   8.244   6.332
  253POPC    OG13139   1.387   8.342   6.241
  253POPC   C2A13140   1.458   8.293   6.140
  253POPC    OH13141   1.473   8.171   6.125
  253POPC   C2B13142   1.508   8.398   6.048
  253POPC   C2C13143   1.504   8.351   5.902
  253POPC   C2D13144   1.545   8.464   5.807
  253POPC   C2E13145   1.535   8.417   5.661
  253POPC   C2F13146   1.569   8.530   5.565
  253POPC   C2G13147   1.560   8.483   5.420
  253POPC   C2H13148   1.591   8.598   5.323
  253POPC   C2I13149   1.584   8.551   5.178
  253POPC   C2J13150   1.614   8.665   5.082
  253POPC   C2K13151   1.609   8.615   4.937
  253POPC   C2L13152   1.636   8.729   4.838
  253POPC   C2M13153   1.635   8.676   4.695
  253POPC   C2N13154   1.661   8.788   4.594
  253POPC   C2O13155   1.670   8.733   4.451
  253POPC   C2P13156   1.706   8.844   4.353
  254POPC   CN113157   2.295   8.480   7.031
  254POPC   CN213158   2.255   8.315   6.865
  254POPC   CN313159   2.101   8.496   6.892
  254POPC   NTM13160   2.243   8.458   6.895
  254POPC    CA13161   2.324   8.543   6.803
  254POPC    CB13162   2.302   8.533   6.651
  254POPC    OA13163   2.171   8.565   6.602
  254POPC     P13164   2.142   8.490   6.467
  254POPC    OB13165   2.182   8.350   6.492
  254POPC    OC13166   2.002   8.525   6.438
  254POPC    OD13167   2.242   8.568   6.375
  254POPC    CC13168   2.188   8.687   6.318
  254POPC    CD13169   2.295   8.792   6.283
  254POPC    OE13170   2.240   8.916   6.230
  254POPC   C1A13171   2.311   9.029   6.240
  254POPC    OF13172   2.395   9.042   6.330
  254POPC   C1B13173   2.263   9.136   6.150
  254POPC   C1C13174   2.346   9.134   6.021
  254POPC   C1D13175   2.276   9.200   5.902
  254POPC   C1E13176   2.260   9.352   5.914
  254POPC   C1F13177   2.197   9.411   5.786
  254POPC   C1G13178   2.289   9.392   5.665
  254POPC   C1H13179   2.230   9.444   5.533
  254POPC   C1I13180   2.114   9.359   5.482
  254POPC   C1J13181   2.096   9.341   5.352
  254POPC   C1K13182   2.192   9.402   5.249
  254POPC   C1L13183   2.183   9.324   5.118
  254POPC   C1M13184   2.272   9.382   5.009
  254POPC   C1N13185   2.247   9.310   4.876
  254POPC   C1O13186   2.327   9.373   4.762
  254POPC   C1P13187   2.295   9.308   4.627
  254POPC   C1Q13188   2.152   9.338   4.581
  254POPC   C1R13189   2.121   9.268   4.448
  254POPC    CE13190   2.395   8.723   6.188
  254POPC    OG13191   2.346   8.667   6.065
  254POPC   C2A13192   2.438   8.643   5.972
  254POPC    OH13193   2.549   8.696   5.979
  254POPC   C2B13194   2.386   8.571   5.854
  254POPC   C2C13195   2.455   8.436   5.836
  254POPC   C2D13196   2.412   8.363   5.709
  254POPC   C2E13197   2.466   8.430   5.582
  254POPC   C2F13198   2.422   8.353   5.458
  254POPC   C2G13199   2.473   8.419   5.330
  254POPC   C2H13200   2.425   8.342   5.207
  254POPC   C2I13201   2.470   8.409   5.077
  254POPC   C2J13202   2.416   8.333   4.957
  254POPC   C2K13203   2.450   8.404   4.826
  254POPC   C2L13204   2.386   8.334   4.706
  254POPC   C2M13205   2.405   8.417   4.579
  254POPC   C2N13206   2.340   8.350   4.458
  254POPC   C2O13207   2.346   8.443   4.337
  254POPC   C2P13208   2.280   8.379   4.214
  255POPC   CN113209   2.733   9.130   6.246
  255POPC   CN213210   2.711   8.910   6.329
  255POPC   CN313211   2.896   8.968   6.188
  255POPC   NTM13212   2.809   9.014   6.296
  255POPC    CA13213   2.890   9.057   6.412
  255POPC    CB13214   2.977   8.953   6.487
  255POPC    OA13215   2.905   8.860   6.567
  255POPC     P13216   2.996   8.744   6.622
  255POPC    OB13217   3.134   8.792   6.637
  255POPC    OC13218   2.923   8.688   6.737
  255POPC    OD13219   2.998   8.650   6.498
  255POPC    CC13220   2.891   8.556   6.499
  255POPC    CD13221   2.866   8.481   6.367
  255POPC    OE13222   2.746   8.398   6.370
  255POPC   C1A13223   2.628   8.456   6.346
  255POPC    OF13224   2.619   8.579   6.346
  255POPC   C1B13225   2.514   8.363   6.343
  255POPC   C1C13226   2.506   8.283   6.213
  255POPC   C1D13227   2.374   8.205   6.202
  255POPC   C1E13228   2.261   8.297   6.155
  255POPC   C1F13229   2.125   8.228   6.161
  255POPC   C1G13230   2.015   8.315   6.098
  255POPC   C1H13231   2.022   8.319   5.945
  255POPC   C1I13232   1.974   8.187   5.884
  255POPC   C1J13233   1.934   8.176   5.758
  255POPC   C1K13234   1.936   8.295   5.662
  255POPC   C1L13235   1.963   8.244   5.520
  255POPC   C1M13236   1.953   8.357   5.417
  255POPC   C1N13237   1.985   8.304   5.277
  255POPC   C1O13238   1.970   8.415   5.172
  255POPC   C1P13239   2.003   8.361   5.032
  255POPC   C1Q13240   1.983   8.466   4.923
  255POPC   C1R13241   2.080   8.584   4.935
  255POPC    CE13242   2.994   8.405   6.329
  255POPC    OG13243   3.079   8.474   6.235
  255POPC   C2A13244   3.180   8.405   6.183
  255POPC    OH13245   3.211   8.294   6.225
  255POPC   C2B13246   3.253   8.479   6.077
  255POPC   C2C13247   3.277   8.390   5.955
  255POPC   C2D13248   3.347   8.464   5.842
  255POPC   C2E13249   3.356   8.374   5.719
  255POPC   C2F13250   3.437   8.440   5.607
  255POPC   C2G13251   3.445   8.347   5.486
  255POPC   C2H13252   3.542   8.403   5.382
  255POPC   C2I13253   3.558   8.310   5.262
  255POPC   C2J13254   3.438   8.314   5.166
  255POPC   C2K13255   3.459   8.215   5.052
  255POPC   C2L13256   3.352   8.230   4.944
  255POPC   C2M13257   3.372   8.125   4.835
  255POPC   C2N13258   3.278   8.145   4.715
  255POPC   C2O13259   3.314   8.270   4.634
  255POPC   C2P13260   3.221   8.288   4.514
  256POPC   CN113261   4.060   8.465   6.777
  256POPC   CN213262   4.084   8.277   6.921
  256POPC   CN313263   4.174   8.268   6.704
  256POPC   NTM13264   4.150   8.357   6.818
  256POPC    CA13265   4.276   8.410   6.877
  256POPC    CB13266   4.373   8.498   6.794
  256POPC    OA13267   4.429   8.432   6.680
  256POPC     P13268   4.502   8.530   6.581
  256POPC    OB13269   4.579   8.623   6.664
  256POPC    OC13270   4.567   8.442   6.483
  256POPC    OD13271   4.370   8.597   6.524
  256POPC    CC13272   4.311   8.518   6.421
  256POPC    CD13273   4.162   8.547   6.394
  256POPC    OE13274   4.099   8.441   6.318
  256POPC   C1A13275   3.988   8.383   6.361
  256POPC    OF13276   3.947   8.401   6.477
  256POPC   C1B13277   3.933   8.282   6.268
  256POPC   C1C13278   3.843   8.346   6.162
  256POPC   C1D13279   3.764   8.238   6.088
  256POPC   C1E13280   3.684   8.296   5.971
  256POPC   C1F13281   3.771   8.322   5.847
  256POPC   C1G13282   3.809   8.192   5.777
  256POPC   C1H13283   3.893   8.218   5.652
  256POPC   C1I13284   3.923   8.087   5.579
  256POPC   C1J13285   3.950   8.088   5.449
  256POPC   C1K13286   3.953   8.220   5.373
  256POPC   C1L13287   3.941   8.197   5.222
  256POPC   C1M13288   3.939   8.331   5.147
  256POPC   C1N13289   3.930   8.309   4.996
  256POPC   C1O13290   3.917   8.441   4.919
  256POPC   C1P13291   4.040   8.530   4.935
  256POPC   C1Q13292   4.023   8.662   4.859
  256POPC   C1R13293   4.145   8.752   4.879
  256POPC    CE13294   4.153   8.689   6.335
  256POPC    OG13295   4.232   8.710   6.216
  256POPC   C2A13296   4.230   8.832   6.164
  256POPC    OH13297   4.164   8.923   6.214
  256POPC   C2B13298   4.311   8.841   6.040
  256POPC   C2C13299   4.245   8.931   5.935
  256POPC   C2D13300   4.317   8.923   5.801
  256POPC   C2E13301   4.244   9.008   5.697
  256POPC   C2F13302   4.299   8.986   5.556
  256POPC   C2G13303   4.217   9.067   5.456
  256POPC   C2H13304   4.247   9.028   5.311
  256POPC   C2I13305   4.381   9.081   5.258
  256POPC   C2J13306   4.398   9.035   5.113
  256POPC   C2K13307   4.519   9.098   5.045
  256POPC   C2L13308   4.531   9.046   4.902
  256POPC   C2M13309   4.642   9.116   4.825
  256POPC   C2N13310   4.657   9.056   4.685
  256POPC   C2O13311   4.769   9.124   4.607
  256POPC   C2P13312   4.790   9.055   4.472
  257POPC   CN113313   4.925   8.518   6.597
  257POPC   CN213314   4.928   8.290   6.653
  257POPC   CN313315   5.033   8.361   6.452
  257POPC   NTM13316   5.007   8.397   6.592
  257POPC    CA13317   5.135   8.409   6.667
  257POPC    CB13318   5.242   8.513   6.626
  257POPC    OA13319   5.203   8.650   6.634
  257POPC     P13320   5.312   8.746   6.573
  257POPC    OB13321   5.277   8.880   6.625
  257POPC    OC13322   5.446   8.688   6.593
  257POPC    OD13323   5.275   8.733   6.422
  257POPC    CC13324   5.157   8.804   6.384
  257POPC    CD13325   5.122   8.796   6.235
  257POPC    OE13326   5.004   8.875   6.202
  257POPC   C1A13327   5.016   9.005   6.176
  257POPC    OF13328   5.127   9.058   6.174
  257POPC   C1B13329   4.887   9.075   6.151
  257POPC   C1C13330   4.792   9.006   6.053
  257POPC   C1D13331   4.846   9.007   5.910
  257POPC   C1E13332   4.746   8.947   5.811
  257POPC   C1F13333   4.801   8.954   5.669
  257POPC   C1G13334   4.706   8.890   5.567
  257POPC   C1H13335   4.765   8.888   5.426
  257POPC   C1I13336   4.886   8.796   5.416
  257POPC   C1J13337   4.923   8.740   5.301
  257POPC   C1K13338   4.847   8.764   5.171
  257POPC   C1L13339   4.944   8.755   5.053
  257POPC   C1M13340   4.872   8.767   4.919
  257POPC   C1N13341   4.970   8.765   4.801
  257POPC   C1O13342   5.055   8.893   4.795
  257POPC   C1P13343   5.153   8.893   4.677
  257POPC   C1Q13344   5.265   8.791   4.696
  257POPC   C1R13345   5.360   8.791   4.576
  257POPC    CE13346   5.106   8.647   6.204
  257POPC    OG13347   5.171   8.601   6.085
  257POPC   C2A13348   5.145   8.477   6.047
  257POPC    OH13349   5.067   8.404   6.108
  257POPC   C2B13350   5.223   8.438   5.927
  257POPC   C2C13351   5.161   8.495   5.798
  257POPC   C2D13352   5.255   8.468   5.681
  257POPC   C2E13353   5.201   8.523   5.549
  257POPC   C2F13354   5.299   8.488   5.437
  257POPC   C2G13355   5.248   8.527   5.299
  257POPC   C2H13356   5.343   8.474   5.192
  257POPC   C2I13357   5.288   8.493   5.052
  257POPC   C2J13358   5.374   8.418   4.951
  257POPC   C2K13359   5.312   8.423   4.811
  257POPC   C2L13360   5.397   8.343   4.711
  257POPC   C2M13361   5.336   8.340   4.571
  257POPC   C2N13362   5.202   8.264   4.568
  257POPC   C2O13363   5.145   8.250   4.427
  257POPC   C2P13364   5.228   8.156   4.340
  258POPC   CN113365   6.010   8.646   6.329
  258POPC   CN213366   5.918   8.628   6.549
  258POPC   CN313367   5.876   8.459   6.387
  258POPC   NTM13368   5.977   8.552   6.438
  258POPC    CA13369   6.097   8.474   6.480
  258POPC    CB13370   6.212   8.543   6.558
  258POPC    OA13371   6.251   8.670   6.506
  258POPC     P13372   6.370   8.736   6.583
  258POPC    OB13373   6.369   8.879   6.549
  258POPC    OC13374   6.368   8.693   6.724
  258POPC    OD13375   6.491   8.663   6.515
  258POPC    CC13376   6.526   8.722   6.389
  258POPC    CD13377   6.641   8.650   6.316
  258POPC    OE13378   6.702   8.720   6.204
  258POPC   C1A13379   6.785   8.822   6.222
  258POPC    OF13380   6.795   8.879   6.332
  258POPC   C1B13381   6.867   8.850   6.102
  258POPC   C1C13382   6.797   8.931   5.994
  258POPC   C1D13383   6.880   8.926   5.865
  258POPC   C1E13384   6.815   9.004   5.751
  258POPC   C1F13385   6.897   8.990   5.623
  258POPC   C1G13386   6.841   9.079   5.512
  258POPC   C1H13387   6.924   9.073   5.383
  258POPC   C1I13388   6.911   8.939   5.310
  258POPC   C1J13389   6.933   8.929   5.179
  258POPC   C1K13390   6.972   9.050   5.094
  258POPC   C1L13391   6.941   9.023   4.947
  258POPC   C1M13392   6.990   9.137   4.858
  258POPC   C1N13393   6.962   9.107   4.711
  258POPC   C1O13394   7.016   9.218   4.620
  258POPC   C1P13395   6.990   9.184   4.474
  258POPC   C1Q13396   7.048   9.291   4.381
  258POPC   C1R13397   7.024   9.255   4.235
  258POPC    CE13398   6.592   8.509   6.280
  258POPC    OG13399   6.459   8.500   6.225
  258POPC   C2A13400   6.421   8.381   6.179
  258POPC    OH13401   6.503   8.290   6.165
  258POPC   C2B13402   6.277   8.377   6.144
  258POPC   C2C13403   6.246   8.418   5.999
  258POPC   C2D13404   6.286   8.311   5.898
  258POPC   C2E13405   6.261   8.361   5.755
  258POPC   C2F13406   6.300   8.254   5.653
  258POPC   C2G13407   6.304   8.309   5.510
  258POPC   C2H13408   6.165   8.343   5.454
  258POPC   C2I13409   6.175   8.406   5.314
  258POPC   C2J13410   6.232   8.310   5.210
  258POPC   C2K13411   6.247   8.379   5.074
  258POPC   C2L13412   6.311   8.284   4.973
  258POPC   C2M13413   6.339   8.352   4.838
  258POPC   C2N13414   6.211   8.384   4.760
  258POPC   C2O13415   6.245   8.446   4.625
  258POPC   C2P13416   6.118   8.473   4.543
  259POPC   CN113417   8.119   8.995   6.346
  259POPC   CN213418   8.298   8.913   6.477
  259POPC   CN313419   8.082   8.937   6.574
  259POPC   NTM13420   8.154   8.900   6.452
  259POPC    CA13421   8.124   8.760   6.413
  259POPC    CB13422   7.980   8.713   6.380
  259POPC    OA13423   7.918   8.779   6.270
  259POPC     P13424   7.778   8.719   6.234
  259POPC    OB13425   7.707   8.694   6.361
  259POPC    OC13426   7.715   8.805   6.133
  259POPC    OD13427   7.822   8.584   6.168
  259POPC    CC13428   7.868   8.601   6.033
  259POPC    CD13429   7.927   8.474   5.969
  259POPC    OE13430   7.998   8.495   5.844
  259POPC   C1A13431   8.125   8.533   5.845
  259POPC    OF13432   8.181   8.562   5.951
  259POPC   C1B13433   8.183   8.546   5.709
  259POPC   C1C13434   8.324   8.487   5.700
  259POPC   C1D13435   8.372   8.486   5.554
  259POPC   C1E13436   8.511   8.422   5.540
  259POPC   C1F13437   8.555   8.410   5.394
  259POPC   C1G13438   8.474   8.306   5.316
  259POPC   C1H13439   8.518   8.298   5.170
  259POPC   C1I13440   8.443   8.186   5.097
  259POPC   C1J13441   8.417   8.191   4.966
  259POPC   C1K13442   8.459   8.308   4.877
  259POPC   C1L13443   8.580   8.272   4.790
  259POPC   C1M13444   8.610   8.382   4.687
  259POPC   C1N13445   8.733   8.345   4.603
  259POPC   C1O13446   8.758   8.443   4.488
  259POPC   C1P13447   8.795   8.584   4.535
  259POPC   C1Q13448   8.813   8.677   4.415
  259POPC   C1R13449   8.842   8.821   4.460
  259POPC    CE13450   7.815   8.369   5.963
  259POPC    OG13451   7.703   8.397   5.877
  259POPC   C2A13452   7.613   8.301   5.863
  259POPC    OH13453   7.619   8.195   5.926
  259POPC   C2B13454   7.511   8.331   5.760
  259POPC   C2C13455   7.555   8.273   5.625
  259POPC   C2D13456   7.453   8.298   5.513
  259POPC   C2E13457   7.497   8.225   5.386
  259POPC   C2F13458   7.618   8.289   5.317
  259POPC   C2G13459   7.577   8.394   5.213
  259POPC   C2H13460   7.528   8.328   5.083
  259POPC   C2I13461   7.496   8.430   4.974
  259POPC   C2J13462   7.619   8.511   4.932
  259POPC   C2K13463   7.589   8.615   4.823
  259POPC   C2L13464   7.565   8.551   4.687
  259POPC   C2M13465   7.557   8.659   4.579
  259POPC   C2N13466   7.544   8.598   4.440
  259POPC   C2O13467   7.545   8.704   4.329
  259POPC   C2P13468   7.681   8.774   4.317
  260POPC   CN113469   8.843   8.925   6.697
  260POPC   CN213470   8.733   9.102   6.583
  260POPC   CN313471   8.801   9.130   6.809
  260POPC   NTM13472   8.839   9.071   6.680
  260POPC    CA13473   8.970   9.129   6.641
  260POPC    CB13474   9.045   9.087   6.512
  260POPC    OA13475   9.072   8.947   6.504
  260POPC     P13476   9.187   8.908   6.404
  260POPC    OB13477   9.293   9.009   6.420
  260POPC    OC13478   9.209   8.767   6.440
  260POPC    OD13479   9.111   8.921   6.266
  260POPC    CC13480   9.011   8.821   6.252
  260POPC    CD13481   8.952   8.796   6.112
  260POPC    OE13482   9.035   8.711   6.028
  260POPC   C1A13483   9.034   8.579   6.039
  260POPC    OF13484   8.981   8.523   6.136
  260POPC   C1B13485   9.112   8.512   5.933
  260POPC   C1C13486   9.024   8.488   5.809
  260POPC   C1D13487   9.107   8.442   5.689
  260POPC   C1E13488   9.016   8.419   5.567
  260POPC   C1F13489   9.093   8.383   5.440
  260POPC   C1G13490   9.162   8.247   5.451
  260POPC   C1H13491   9.233   8.207   5.321
  260POPC   C1I13492   9.302   8.072   5.341
  260POPC   C1J13493   9.398   8.029   5.261
  260POPC   C1K13494   9.445   8.109   5.139
  260POPC   C1L13495   9.592   8.079   5.110
  260POPC   C1M13496   9.629   8.122   4.968
  260POPC   C1N13497   9.773   8.083   4.935
  260POPC   C1O13498   9.804   8.099   4.786
  260POPC   C1P13499   9.728   7.997   4.701
  260POPC   C1Q13500   9.758   8.010   4.551
  260POPC   C1R13501   9.701   8.139   4.491
  260POPC    CE13502   8.917   8.933   6.051
  260POPC    OG13503   8.829   8.925   5.937
  260POPC   C2A13504   8.830   9.025   5.850
  260POPC    OH13505   8.916   9.114   5.853
  260POPC   C2B13506   8.728   9.010   5.743
  260POPC   C2C13507   8.786   8.965   5.609
  260POPC   C2D13508   8.839   8.821   5.612
  260POPC   C2E13509   8.898   8.778   5.478
  260POPC   C2F13510   8.792   8.751   5.371
  260POPC   C2G13511   8.860   8.704   5.242
  260POPC   C2H13512   8.761   8.664   5.133
  260POPC   C2I13513   8.832   8.610   5.009
  260POPC   C2J13514   8.908   8.480   5.039
  260POPC   C2K13515   8.998   8.438   4.923
  260POPC   C2L13516   9.078   8.313   4.963
  260POPC   C2M13517   9.179   8.268   4.857
  260POPC   C2N13518   9.112   8.218   4.728
  260POPC   C2O13519   9.213   8.153   4.632
  260POPC   C2P13520   9.318   8.252   4.580
  261POPC   CN113521   9.323   8.227   6.484
  261POPC   CN213522   9.541   8.277   6.408
  261POPC   CN313523   9.352   8.385   6.309
  261POPC   NTM13524   9.409   8.336   6.435
  261POPC    CA13525   9.415   8.442   6.539
  261POPC    CB13526   9.489   8.576   6.513
  261POPC    OA13527   9.626   8.565   6.475
  261POPC     P13528   9.687   8.706   6.435
  261POPC    OB13529   9.656   8.799   6.543
  261POPC    OC13530   9.827   8.678   6.398
  261POPC    OD13531   9.600   8.734   6.307
  261POPC    CC13532   9.659   8.688   6.185
  261POPC    CD13533   9.561   8.675   6.067
  261POPC    OE13534   9.629   8.637   5.945
  261POPC   C1A13535   9.645   8.509   5.915
  261POPC    OF13536   9.621   8.421   5.999
  261POPC   C1B13537   9.708   8.487   5.783
  261POPC   C1C13538   9.604   8.478   5.671
  261POPC   C1D13539   9.673   8.480   5.534
  261POPC   C1E13540   9.571   8.476   5.420
  261POPC   C1F13541   9.640   8.499   5.286
  261POPC   C1G13542   9.537   8.501   5.172
  261POPC   C1H13543   9.604   8.535   5.039
  261POPC   C1I13544   9.502   8.534   4.925
  261POPC   C1J13545   9.542   8.511   4.800
  261POPC   C1K13546   9.690   8.488   4.770
  261POPC   C1L13547   9.722   8.523   4.624
  261POPC   C1M13548   9.870   8.501   4.590
  261POPC   C1N13549   9.961   8.604   4.658
  261POPC   C1O13550  10.107   8.580   4.620
  261POPC   C1P13551  10.197   8.688   4.682
  261POPC   C1Q13552  10.345   8.667   4.646
  261POPC   C1R13553  10.374   8.686   4.497
  261POPC    CE13554   9.483   8.807   6.056
  261POPC    OG13555   9.380   8.807   5.955
  261POPC   C2A13556   9.319   8.922   5.928
  261POPC    OH13557   9.345   9.024   5.993
  261POPC   C2B13558   9.218   8.914   5.820
  261POPC   C2C13559   9.274   8.937   5.679
  261POPC   C2D13560   9.340   8.811   5.623
  261POPC   C2E13561   9.388   8.826   5.478
  261POPC   C2F13562   9.274   8.861   5.381
  261POPC   C2G13563   9.313   8.830   5.237
  261POPC   C2H13564   9.207   8.883   5.139
  261POPC   C2I13565   9.226   8.823   5.000
  261POPC   C2J13566   9.131   8.889   4.900
  261POPC   C2K13567   9.116   8.810   4.770
  261POPC   C2L13568   9.246   8.794   4.691
  261POPC   C2M13569   9.220   8.709   4.567
  261POPC   C2N13570   9.349   8.678   4.491
  261POPC   C2O13571   9.320   8.589   4.370
  261POPC   C2P13572   9.449   8.544   4.301
  262POPC   CN113573  10.607   8.648   6.290
  262POPC   CN213574  10.533   8.689   6.068
  262POPC   CN313575  10.374   8.644   6.237
  262POPC   NTM13576  10.502   8.711   6.209
  262POPC    CA13577  10.494   8.857   6.233
  262POPC    CB13578  10.478   8.917   6.376
  262POPC    OA13579  10.368   8.868   6.453
  262POPC     P13580  10.344   8.948   6.586
  262POPC    OB13581  10.262   8.859   6.671
  262POPC    OC13582  10.472   9.001   6.633
  262POPC    OD13583  10.257   9.070   6.534
  262POPC    CC13584  10.134   9.025   6.476
  262POPC    CD13585  10.046   9.135   6.414
  262POPC    OE13586   9.930   9.081   6.344
  262POPC   C1A13587   9.829   9.164   6.316
  262POPC    OF13588   9.815   9.270   6.377
  262POPC   C1B13589   9.733   9.112   6.216
  262POPC   C1C13590   9.768   9.169   6.079
  262POPC   C1D13591   9.659   9.143   5.976
  262POPC   C1E13592   9.697   9.204   5.841
  262POPC   C1F13593   9.584   9.188   5.740
  262POPC   C1G13594   9.626   9.245   5.605
  262POPC   C1H13595   9.513   9.232   5.502
  262POPC   C1I13596   9.558   9.280   5.365
  262POPC   C1J13597   9.470   9.332   5.280
  262POPC   C1K13598   9.323   9.347   5.322
  262POPC   C1L13599   9.226   9.284   5.221
  262POPC   C1M13600   9.225   9.356   5.085
  262POPC   C1N13601   9.129   9.287   4.989
  262POPC   C1O13602   9.135   9.352   4.851
  262POPC   C1P13603   9.042   9.281   4.752
  262POPC   C1Q13604   9.052   9.344   4.613
  262POPC   C1R13605   8.960   9.272   4.514
  262POPC    CE13606  10.139   9.218   6.322
  262POPC    OG13607  10.200   9.146   6.214
  262POPC   C2A13608  10.260   9.218   6.120
  262POPC    OH13609  10.264   9.341   6.127
  262POPC   C2B13610  10.318   9.136   6.011
  262POPC   C2C13611  10.458   9.184   5.973
  262POPC   C2D13612  10.531   9.094   5.872
  262POPC   C2E13613  10.476   9.106   5.729
  262POPC   C2F13614  10.564   9.024   5.635
  262POPC   C2G13615  10.515   9.022   5.491
  262POPC   C2H13616  10.601   8.924   5.411
  262POPC   C2I13617  10.545   8.888   5.273
  262POPC   C2J13618  10.572   8.995   5.168
  262POPC   C2K13619  10.545   8.937   5.028
  262POPC   C2L13620  10.597   9.032   4.920
  262POPC   C2M13621  10.598   8.966   4.783
  262POPC   C2N13622  10.667   9.057   4.682
  262POPC   C2O13623  10.684   8.988   4.546
  262POPC   C2P13624  10.760   9.078   4.449
  263POPC   CN113625  10.772   9.251   6.883
  263POPC   CN213626  10.966   9.116   6.854
  263POPC   CN313627  10.765   9.019   6.941
  263POPC   NTM13628  10.819   9.117   6.846
  263POPC    CA13629  10.770   9.091   6.708
  263POPC    CB13630  10.800   8.958   6.636
  263POPC    OA13631  10.938   8.923   6.621
  263POPC     P13632  10.954   8.777   6.565
  263POPC    OB13633  11.098   8.749   6.572
  263POPC    OC13634  10.855   8.693   6.633
  263POPC    OD13635  10.910   8.808   6.419
  263POPC    CC13636  10.980   8.728   6.325
  263POPC    CD13637  10.969   8.779   6.181
  263POPC    OE13638  11.021   8.684   6.083
  263POPC   C1A13639  10.950   8.576   6.053
  263POPC    OF13640  10.833   8.565   6.091
  263POPC   C1B13641  11.018   8.482   5.961
  263POPC   C1C13642  10.971   8.500   5.816
  263POPC   C1D13643  11.027   8.392   5.724
  263POPC   C1E13644  11.179   8.403   5.703
  263POPC   C1F13645  11.232   8.292   5.612
  263POPC   C1G13646  11.174   8.301   5.470
  263POPC   C1H13647  11.221   8.187   5.379
  263POPC   C1I13648  11.368   8.198   5.337
  263POPC   C1J13649  11.401   8.240   5.215
  263POPC   C1K13650  11.294   8.278   5.113
  263POPC   C1L13651  11.341   8.254   4.969
  263POPC   C1M13652  11.236   8.306   4.870
  263POPC   C1N13653  11.275   8.281   4.724
  263POPC   C1O13654  11.267   8.133   4.688
  263POPC   C1P13655  11.297   8.110   4.540
  263POPC   C1Q13656  11.277   7.963   4.500
  263POPC   C1R13657  11.130   7.921   4.506
  263POPC    CE13658  11.037   8.918   6.181
  263POPC    OG13659  11.063   8.978   6.052
  263POPC   C2A13660  11.164   8.925   5.982
  263POPC    OH13661  11.260   8.874   6.041
  263POPC   C2B13662  11.161   8.959   5.838
  263POPC   C2C13663  11.037   8.904   5.767
  263POPC   C2D13664  11.041   8.920   5.615
  263POPC   C2E13665  11.048   9.066   5.569
  263POPC   C2F13666  11.047   9.076   5.417
  263POPC   C2G13667  11.075   9.219   5.371
  263POPC   C2H13668  11.074   9.232   5.218
  263POPC   C2I13669  10.934   9.234   5.156
  263POPC   C2J13670  10.857   9.362   5.194
  263POPC   C2K13671  10.724   9.377   5.120
  263POPC   C2L13672  10.743   9.401   4.970
  263POPC   C2M13673  10.610   9.433   4.901
  263POPC   C2N13674  10.632   9.456   4.752
  263POPC   C2O13675  10.501   9.493   4.681
  263POPC   C2P13676  10.524   9.513   4.532
  264POPC   CN113677  11.443   8.962   6.385
  264POPC   CN213678  11.646   9.072   6.321
  264POPC   CN313679  11.557   8.901   6.185
  264POPC   NTM13680  11.521   9.014   6.271
  264POPC    CA13681  11.439   9.108   6.191
  264POPC    CB13682  11.402   9.249   6.243
  264POPC    OA13683  11.514   9.335   6.249
  264POPC     P13684  11.474   9.484   6.274
  264POPC    OB13685  11.376   9.519   6.170
  264POPC    OC13686  11.443   9.490   6.417
  264POPC    OD13687  11.618   9.538   6.245
  264POPC    CC13688  11.634   9.572   6.107
  264POPC    CD13689  11.777   9.550   6.056
  264POPC    OE13690  11.812   9.642   5.949
  264POPC   C1A13691  11.939   9.669   5.920
  264POPC    OF13692  12.032   9.616   5.981
  264POPC   C1B13693  11.951   9.770   5.812
  264POPC   C1C13694  11.951   9.705   5.673
  264POPC   C1D13695  11.974   9.810   5.564
  264POPC   C1E13696  11.973   9.744   5.426
  264POPC   C1F13697  11.984   9.848   5.313
  264POPC   C1G13698  11.961   9.779   5.179
  264POPC   C1H13699  11.944   9.877   5.063
  264POPC   C1I13700  11.896   9.800   4.940
  264POPC   C1J13701  11.902   9.850   4.816
  264POPC   C1K13702  11.958   9.989   4.787
  264POPC   C1L13703  12.003   9.995   4.640
  264POPC   C1M13704  12.057  10.132   4.602
  264POPC   C1N13705  12.098  10.131   4.454
  264POPC   C1O13706  12.160  10.263   4.406
  264POPC   C1P13707  12.059  10.378   4.401
  264POPC   C1Q13708  12.124  10.502   4.340
  264POPC   C1R13709  12.023  10.617   4.328
  264POPC    CE13710  11.787   9.399   6.030
  264POPC    OG13711  11.698   9.346   5.929
  264POPC   C2A13712  11.698   9.214   5.911
  264POPC    OH13713  11.748   9.138   5.993
  264POPC   C2B13714  11.626   9.174   5.788
  264POPC   C2C13715  11.582   9.028   5.785
  264POPC   C2D13716  11.518   8.998   5.650
  264POPC   C2E13717  11.487   8.849   5.632
  264POPC   C2F13718  11.431   8.825   5.492
  264POPC   C2G13719  11.407   8.676   5.466
  264POPC   C2H13720  11.351   8.651   5.326
  264POPC   C2I13721  11.451   8.685   5.215
  264POPC   C2J13722  11.390   8.659   5.077
  264POPC   C2K13723  11.488   8.688   4.964
  264POPC   C2L13724  11.424   8.655   4.830
  264POPC   C2M13725  11.518   8.686   4.713
  264POPC   C2N13726  11.450   8.649   4.580
  264POPC   C2O13727  11.533   8.689   4.458
  264POPC   C2P13728  11.664   8.611   4.446
  265POPC   CN113729  12.228   8.730   6.523
  265POPC   CN213730  12.213   8.855   6.323
  265POPC   CN313731  12.383   8.904   6.485
  265POPC   NTM13732  12.307   8.796   6.419
  265POPC    CA13733  12.395   8.696   6.353
  265POPC    CB13734  12.481   8.734   6.230
  265POPC    OA13735  12.561   8.850   6.250
  265POPC     P13736  12.658   8.887   6.132
  265POPC    OB13737  12.788   8.833   6.173
  265POPC    OC13738  12.590   8.845   6.008
  265POPC    OD13739  12.648   9.042   6.152
  265POPC    CC13740  12.532   9.095   6.088
  265POPC    CD13741  12.501   9.242   6.119
  265POPC    OE13742  12.380   9.291   6.054
  265POPC   C1A13743  12.259   9.253   6.095
  265POPC    OF13744  12.242   9.214   6.211
  265POPC   C1B13745  12.154   9.288   5.998
  265POPC   C1C13746  12.124   9.168   5.908
  265POPC   C1D13747  12.034   9.199   5.788
  265POPC   C1E13748  12.103   9.288   5.684
  265POPC   C1F13749  12.034   9.276   5.548
  265POPC   C1G13750  12.112   9.353   5.442
  265POPC   C1H13751  12.073   9.316   5.298
  265POPC   C1I13752  11.932   9.361   5.259
  265POPC   C1J13753  11.909   9.400   5.134
  265POPC   C1K13754  12.023   9.401   5.032
  265POPC   C1L13755  11.971   9.384   4.890
  265POPC   C1M13756  12.085   9.396   4.789
  265POPC   C1N13757  12.039   9.379   4.643
  265POPC   C1O13758  11.943   9.490   4.600
  265POPC   C1P13759  11.904   9.474   4.453
  265POPC   C1Q13760  11.796   9.573   4.409
  265POPC   C1R13761  11.661   9.542   4.475
  265POPC    CE13762  12.627   9.323   6.084
  265POPC    OG13763  12.682   9.301   5.952
  265POPC   C2A13764  12.804   9.348   5.932
  265POPC    OH13765  12.879   9.375   6.027
  265POPC   C2B13766  12.848   9.335   5.791
  265POPC   C2C13767  12.924   9.459   5.745
  265POPC   C2D13768  13.001   9.434   5.615
  265POPC   C2E13769  12.910   9.405   5.495
  265POPC   C2F13770  12.997   9.385   5.371
  265POPC   C2G13771  12.913   9.356   5.247
  265POPC   C2H13772  13.006   9.342   5.126
  265POPC   C2I13773  12.927   9.307   5.000
  265POPC   C2J13774  13.022   9.284   4.882
  265POPC   C2K13775  12.946   9.243   4.756
  265POPC   C2L13776  12.855   9.354   4.704
  265POPC   C2M13777  12.779   9.313   4.578
  265POPC   C2N13778  12.872   9.296   4.457
  265POPC   C2O13779  12.797   9.254   4.331
  265POPC   C2P13780  12.699   9.362   4.283
  266POPC   CN113781  12.898  10.133   6.219
  266POPC   CN213782  12.694  10.199   6.318
  266POPC   CN313783  12.710   9.987   6.215
  266POPC   NTM13784  12.783  10.085   6.296
  266POPC    CA13785  12.820  10.028   6.429
  266POPC    CB13786  12.919   9.909   6.439
  266POPC    OA13787  13.052   9.941   6.397
  266POPC     P13788  13.140   9.813   6.370
  266POPC    OB13789  13.165   9.759   6.504
  266POPC    OC13790  13.061   9.738   6.271
  266POPC    OD13791  13.263   9.888   6.310
  266POPC    CC13792  13.243   9.931   6.176
  266POPC    CD13793  13.348  10.034   6.133
  266POPC    OE13794  13.313  10.111   6.015
  266POPC   C1A13795  13.233  10.217   6.026
  266POPC    OF13796  13.195  10.259   6.136
  266POPC   C1B13797  13.202  10.280   5.896
  266POPC   C1C13798  13.073  10.223   5.836
  266POPC   C1D13799  13.055  10.273   5.692
  266POPC   C1E13800  12.926  10.218   5.631
  266POPC   C1F13801  12.917  10.253   5.483
  266POPC   C1G13802  12.788  10.199   5.421
  266POPC   C1H13803  12.784  10.226   5.271
  266POPC   C1I13804  12.654  10.169   5.213
  266POPC   C1J13805  12.647  10.123   5.089
  266POPC   C1K13806  12.769  10.125   4.996
  266POPC   C1L13807  12.732  10.093   4.851
  266POPC   C1M13808  12.648  10.202   4.784
  266POPC   C1N13809  12.609  10.161   4.642
  266POPC   C1O13810  12.524  10.266   4.571
  266POPC   C1P13811  12.603  10.394   4.541
  266POPC   C1Q13812  12.515  10.495   4.466
  266POPC   C1R13813  12.592  10.625   4.439
  266POPC    CE13814  13.484   9.960   6.129
  266POPC    OG13815  13.497   9.851   6.036
  266POPC   C2A13816  13.620   9.805   6.018
  266POPC    OH13817  13.717   9.854   6.076
  266POPC   C2B13818  13.629   9.698   5.915
  266POPC   C2C13819  13.752   9.718   5.826
  266POPC   C2D13820  13.749   9.630   5.702
  266POPC   C2E13821  13.869   9.661   5.613
  266POPC   C2F13822  13.863   9.594   5.476
  266POPC   C2G13823  13.878   9.442   5.483
  266POPC   C2H13824  13.866   9.383   5.343
  266POPC   C2I13825  13.876   9.230   5.345
  266POPC   C2J13826  13.851   9.173   5.206
  266POPC   C2K13827  13.853   9.020   5.207
  266POPC   C2L13828  13.995   8.964   5.221
  266POPC   C2M13829  13.992   8.814   5.255
  266POPC   C2N13830  13.956   8.791   5.402
  266POPC   C2O13831  13.945   8.642   5.433
  266POPC   C2P13832  13.938   8.618   5.584
  267POPC   CN113833  13.998  10.071   6.186
  267POPC   CN213834  13.892   9.908   6.320
  267POPC   CN313835  14.021   9.839   6.134
  267POPC   NTM13836  14.014   9.937   6.243
  267POPC    CA13837  14.130   9.929   6.336
  267POPC    CB13838  14.274   9.956   6.286
  267POPC    OA13839  14.322   9.865   6.187
  267POPC     P13840  14.470   9.894   6.142
  267POPC    OB13841  14.543   9.933   6.264
  267POPC    OC13842  14.506   9.774   6.068
  267POPC    OD13843  14.444  10.018   6.050
  267POPC    CC13844  14.392   9.982   5.922
  267POPC    CD13845  14.347  10.103   5.839
  267POPC    OE13846  14.245  10.074   5.740
  267POPC   C1A13847  14.117  10.080   5.777
  267POPC    OF13848  14.087  10.125   5.887
  267POPC   C1B13849  14.022  10.037   5.672
  267POPC   C1C13850  13.966  10.157   5.595
  267POPC   C1D13851  13.865  10.118   5.486
  267POPC   C1E13852  13.929  10.035   5.374
  267POPC   C1F13853  13.839  10.014   5.252
  267POPC   C1G13854  13.715   9.928   5.281
  267POPC   C1H13855  13.645   9.894   5.150
  267POPC   C1I13856  13.521   9.806   5.173
  267POPC   C1J13857  13.498   9.699   5.096
  267POPC   C1K13858  13.594   9.655   4.986
  267POPC   C1L13859  13.683   9.541   5.035
  267POPC   C1M13860  13.783   9.490   4.931
  267POPC   C1N13861  13.717   9.414   4.815
  267POPC   C1O13862  13.822   9.343   4.731
  267POPC   C1P13863  13.758   9.265   4.616
  267POPC   C1Q13864  13.859   9.180   4.538
  267POPC   C1R13865  13.961   9.265   4.461
  267POPC    CE13866  14.473  10.181   5.794
  267POPC    OG13867  14.581  10.106   5.736
  267POPC   C2A13868  14.670  10.176   5.665
  267POPC    OH13869  14.646  10.292   5.631
  267POPC   C2B13870  14.792  10.102   5.627
  267POPC   C2C13871  14.776  10.010   5.505
  267POPC   C2D13872  14.746  10.083   5.374
  267POPC   C2E13873  14.750   9.982   5.259
  267POPC   C2F13874  14.699  10.042   5.128
  267POPC   C2G13875  14.708   9.939   5.016
  267POPC   C2H13876  14.623   9.980   4.896
  267POPC   C2I13877  14.626   9.870   4.790
  267POPC   C2J13878  14.514   9.884   4.686
  267POPC   C2K13879  14.528  10.003   4.591
  267POPC   C2L13880  14.647   9.987   4.495
  267POPC   C2M13881  14.646  10.091   4.383
  267POPC   C2N13882  14.533  10.065   4.283
  267POPC   C2O13883  14.529  10.168   4.170
  267POPC   C2P13884  14.485  10.306   4.218
  268POPC   CN113885  15.197   9.408   6.662
  268POPC   CN213886  15.334   9.560   6.543
  268POPC   CN313887  15.103   9.542   6.491
  268POPC   NTM13888  15.201   9.541   6.600
  268POPC    CA13889  15.174   9.642   6.705
  268POPC    CB13890  15.127   9.787   6.673
  268POPC    OA13891  14.992   9.789   6.629
  268POPC     P13892  14.921   9.928   6.628
  268POPC    OB13893  14.780   9.885   6.631
  268POPC    OC13894  14.976  10.011   6.736
  268POPC    OD13895  14.960   9.981   6.486
  268POPC    CC13896  14.894   9.908   6.382
  268POPC    CD13897  14.928   9.952   6.240
  268POPC    OE13898  14.857   9.875   6.139
  268POPC   C1A13899  14.835   9.933   6.020
  268POPC    OF13900  14.844  10.055   6.008
  268POPC   C1B13901  14.784   9.840   5.917
  268POPC   C1C13902  14.896   9.781   5.831
  268POPC   C1D13903  14.840   9.684   5.727
  268POPC   C1E13904  14.948   9.639   5.629
  268POPC   C1F13905  14.897   9.542   5.522
  268POPC   C1G13906  14.790   9.605   5.433
  268POPC   C1H13907  14.749   9.514   5.317
  268POPC   C1I13908  14.633   9.578   5.241
  268POPC   C1J13909  14.622   9.570   5.108
  268POPC   C1K13910  14.723   9.495   5.022
  268POPC   C1L13911  14.657   9.459   4.888
  268POPC   C1M13912  14.754   9.394   4.789
  268POPC   C1N13913  14.686   9.365   4.655
  268POPC   C1O13914  14.643   9.493   4.583
  268POPC   C1P13915  14.562   9.462   4.457
  268POPC   C1Q13916  14.519   9.592   4.388
  268POPC   C1R13917  14.437   9.562   4.263
  268POPC    CE13918  15.082   9.943   6.232
  268POPC    OG13919  15.143   9.991   6.111
  268POPC   C2A13920  15.199   9.896   6.035
  268POPC    OH13921  15.164   9.778   6.045
  268POPC   C2B13922  15.281   9.955   5.926
  268POPC   C2C13923  15.354   9.852   5.839
  268POPC   C2D13924  15.287   9.837   5.702
  268POPC   C2E13925  15.302   9.964   5.618
  268POPC   C2F13926  15.224   9.953   5.487
  268POPC   C2G13927  15.240  10.080   5.402
  268POPC   C2H13928  15.155  10.069   5.276
  268POPC   C2I13929  15.170  10.192   5.186
  268POPC   C2J13930  15.079  10.179   5.064
  268POPC   C2K13931  15.100  10.292   4.964
  268POPC   C2L13932  15.016  10.267   4.839
  268POPC   C2M13933  15.053  10.365   4.727
  268POPC   C2N13934  14.983  10.326   4.597
  268POPC   C2O13935  15.030  10.414   4.481
  268POPC   C2P13936  14.971  10.365   4.349
  269POPC   CN113937  15.814   9.833   6.640
  269POPC   CN213938  15.903  10.048   6.689
  269POPC   CN313939  15.843   9.996   6.467
  269POPC   NTM13940  15.805   9.976   6.607
  269POPC    CA13941  15.670  10.029   6.636
  269POPC    CB13942  15.545   9.971   6.565
  269POPC    OA13943  15.545   9.982   6.423
  269POPC     P13944  15.432   9.896   6.355
  269POPC    OB13945  15.316   9.891   6.444
  269POPC    OC13946  15.418   9.941   6.216
  269POPC    OD13947  15.505   9.757   6.358
  269POPC    CC13948  15.601   9.747   6.252
  269POPC    CD13949  15.679   9.615   6.250
  269POPC    OE13950  15.796   9.617   6.164
  269POPC   C1A13951  15.911   9.663   6.212
  269POPC    OF13952  15.924   9.684   6.333
  269POPC   C1B13953  16.019   9.674   6.112
  269POPC   C1C13954  16.037   9.820   6.068
  269POPC   C1D13955  16.152   9.832   5.968
  269POPC   C1E13956  16.164   9.976   5.917
  269POPC   C1F13957  16.268   9.992   5.805
  269POPC   C1G13958  16.234   9.907   5.682
  269POPC   C1H13959  16.317   9.942   5.558
  269POPC   C1I13960  16.275  10.075   5.497
  269POPC   C1J13961  16.265  10.088   5.365
  269POPC   C1K13962  16.298   9.970   5.273
  269POPC   C1L13963  16.331  10.018   5.132
  269POPC   C1M13964  16.370   9.901   5.043
  269POPC   C1N13965  16.397   9.947   4.899
  269POPC   C1O13966  16.441   9.829   4.813
  269POPC   C1P13967  16.462   9.868   4.666
  269POPC   C1Q13968  16.579   9.965   4.648
  269POPC   C1R13969  16.595  10.002   4.500
  269POPC    CE13970  15.576   9.502   6.227
  269POPC    OG13971  15.487   9.520   6.115
  269POPC   C2A13972  15.378   9.445   6.111
  269POPC    OH13973  15.343   9.375   6.207
  269POPC   C2B13974  15.300   9.466   5.987
  269POPC   C2C13975  15.251   9.335   5.926
  269POPC   C2D13976  15.166   9.364   5.802
  269POPC   C2E13977  15.121   9.237   5.729
  269POPC   C2F13978  15.239   9.164   5.665
  269POPC   C2G13979  15.191   9.044   5.583
  269POPC   C2H13980  15.306   8.973   5.511
  269POPC   C2I13981  15.376   9.062   5.408
  269POPC   C2J13982  15.482   8.984   5.332
  269POPC   C2K13983  15.571   9.073   5.244
  269POPC   C2L13984  15.495   9.140   5.129
  269POPC   C2M13985  15.590   9.229   5.049
  269POPC   C2N13986  15.517   9.302   4.936
  269POPC   C2O13987  15.613   9.392   4.859
  269POPC   C2P13988  15.540   9.467   4.747
  270POPC   CN113989  16.425   9.998   6.696
  270POPC   CN213990  16.585   9.921   6.858
  270POPC   CN313991  16.477  10.131   6.884
  270POPC   NTM13992  16.458   9.993   6.839
  270POPC    CA13993  16.347   9.933   6.917
  270POPC    CB13994  16.306   9.785   6.898
  270POPC    OA13995  16.266   9.747   6.766
  270POPC     P13996  16.263   9.592   6.744
  270POPC    OB13997  16.216   9.534   6.871
  270POPC    OC13998  16.184   9.579   6.621
  270POPC    OD13999  16.417   9.574   6.727
  270POPC    CC14000  16.460   9.611   6.596
  270POPC    CD14001  16.612   9.633   6.590
  270POPC    OE14002  16.648   9.724   6.483
  270POPC   C1A14003  16.765   9.788   6.486
  270POPC    OF14004  16.830   9.792   6.591
  270POPC   C1B14005  16.788   9.870   6.366
  270POPC   C1C14006  16.835   9.785   6.247
  270POPC   C1D14007  16.843   9.862   6.115
  270POPC   C1E14008  16.707   9.915   6.069
  270POPC   C1F14009  16.708   9.958   5.922
  270POPC   C1G14010  16.709   9.835   5.829
  270POPC   C1H14011  16.705   9.870   5.680
  270POPC   C1I14012  16.838   9.924   5.629
  270POPC   C1J14013  16.878   9.897   5.505
  270POPC   C1K14014  16.791   9.812   5.411
  270POPC   C1L14015  16.814   9.841   5.263
  270POPC   C1M14016  16.760   9.978   5.220
  270POPC   C1N14017  16.771  10.001   5.069
  270POPC   C1O14018  16.915  10.021   5.021
  270POPC   C1P14019  16.917  10.040   4.869
  270POPC   C1Q14020   0.077  10.057   4.819
  270POPC   C1R14021   0.081  10.069   4.666
  270POPC    CE14022  16.676   9.493   6.594
  270POPC    OG14023  16.645   9.407   6.483
  270POPC   C2A14024  16.691   9.283   6.489
  270POPC    OH14025  16.756   9.242   6.586
  270POPC   C2B14026  16.667   9.204   6.366
  270POPC   C2C14027  16.798   9.196   6.287
  270POPC   C2D14028  16.788   9.104   6.165
  270POPC   C2E14029  16.925   9.095   6.097
  270POPC   C2F14030  16.927   8.998   5.979
  270POPC   C2G14031  16.842   9.046   5.861
  270POPC   C2H14032  16.851   8.946   5.745
  270POPC   C2I14033  16.774   8.992   5.621
  270POPC   C2J14034  16.622   8.995   5.644
  270POPC   C2K14035  16.551   9.041   5.517
  270POPC   C2L14036  16.400   9.051   5.541
  270POPC   C2M14037  16.328   9.097   5.414
  270POPC   C2N14038  16.176   9.093   5.434
  270POPC   C2O14039  16.103   9.125   5.304
  270POPC   C2P14040  15.952   9.121   5.324
  271POPC   CN114041  16.688   8.865   6.529
  271POPC   CN214042  16.797   8.961   6.720
  271POPC   CN314043  16.620   8.808   6.750
  271POPC   NTM14044  16.736   8.839   6.666
  271POPC    CA14045  16.831   8.724   6.668
  271POPC    CB14046  16.953   8.719   6.572
  271POPC    OA14047   0.063   8.827   6.573
  271POPC     P14048   0.180   8.788   6.474
  271POPC    OB14049   0.240   8.672   6.542
  271POPC    OC14050   0.113   8.778   6.344
  271POPC    OD14051   0.265   8.918   6.495
  271POPC    CC14052   0.242   9.012   6.390
  271POPC    CD14053   0.262   9.157   6.435
  271POPC    OE14054   0.201   9.251   6.343
  271POPC   C1A14055   0.160   9.369   6.388
  271POPC    OF14056   0.154   9.390   6.510
  271POPC   C1B14057   0.102   9.454   6.282
  271POPC   C1C14058   0.208   9.538   6.209
  271POPC   C1D14059   0.153   9.588   6.075
  271POPC   C1E14060   0.252   9.681   6.005
  271POPC   C1F14061   0.208   9.717   5.862
  271POPC   C1G14062   0.215   9.596   5.769
  271POPC   C1H14063   0.170   9.631   5.627
  271POPC   C1I14064   0.173   9.505   5.539
  271POPC   C1J14065   0.180   9.513   5.407
  271POPC   C1K14066   0.185   9.647   5.334
  271POPC   C1L14067   0.235   9.629   5.190
  271POPC   C1M14068   0.223   9.760   5.112
  271POPC   C1N14069   0.264   9.746   4.965
  271POPC   C1O14070   0.414   9.721   4.947
  271POPC   C1P14071   0.457   9.722   4.800
  271POPC   C1Q14072   0.447   9.861   4.739
  271POPC   C1R14073   0.493   9.861   4.592
  271POPC    CE14074   0.412   9.177   6.467
  271POPC    OG14075   0.503   9.176   6.355
  271POPC   C2A14076   0.519   9.292   6.291
  271POPC    OH14077   0.493   9.399   6.347
  271POPC   C2B14078   0.594   9.280   6.164
  271POPC   C2C14079   0.501   9.267   6.043
  271POPC   C2D14080   0.583   9.262   5.914
  271POPC   C2E14081   0.497   9.262   5.788
  271POPC   C2F14082   0.587   9.275   5.665
  271POPC   C2G14083   0.508   9.289   5.535
  271POPC   C2H14084   0.603   9.325   5.421
  271POPC   C2I14085   0.528   9.343   5.288
  271POPC   C2J14086   0.621   9.387   5.175
  271POPC   C2K14087   0.674   9.530   5.196
  271POPC   C2L14088   0.771   9.570   5.085
  271POPC   C2M14089   0.818   9.715   5.104
  271POPC   C2N14090   0.924   9.757   5.002
  271POPC   C2O14091   0.868   9.763   4.859
  271POPC   C2P14092   0.977   9.803   4.760
  272POPC   CN114093   1.495   8.608   6.560
  272POPC   CN214094   1.614   8.666   6.363
  272POPC   CN314095   1.377   8.652   6.355
  272POPC   NTM14096   1.491   8.691   6.439
  272POPC    CA14097   1.487   8.835   6.473
  272POPC    CB14098   1.370   8.895   6.554
  272POPC    OA14099   1.239   8.884   6.496
  272POPC     P14100   1.132   8.962   6.582
  272POPC    OB14101   0.993   8.940   6.539
  272POPC    OC14102   1.172   8.958   6.724
  272POPC    OD14103   1.175   9.106   6.532
  272POPC    CC14104   1.112   9.144   6.409
  272POPC    CD14105   1.195   9.243   6.326
  272POPC    OE14106   1.119   9.328   6.236
  272POPC   C1A14107   1.062   9.439   6.281
  272POPC    OF14108   1.075   9.475   6.399
  272POPC   C1B14109   0.984   9.512   6.178
  272POPC   C1C14110   1.063   9.625   6.111
  272POPC   C1D14111   1.170   9.575   6.014
  272POPC   C1E14112   1.250   9.690   5.951
  272POPC   C1F14113   1.170   9.774   5.852
  272POPC   C1G14114   1.138   9.697   5.723
  272POPC   C1H14115   1.064   9.787   5.623
  272POPC   C1I14116   1.036   9.711   5.493
  272POPC   C1J14117   1.088   9.753   5.378
  272POPC   C1K14118   1.174   9.879   5.371
  272POPC   C1L14119   1.313   9.855   5.310
  272POPC   C1M14120   1.404   9.775   5.404
  272POPC   C1N14121   1.543   9.755   5.345
  272POPC   C1O14122   1.633   9.672   5.437
  272POPC   C1P14123   1.667   9.744   5.568
  272POPC   C1Q14124   1.760   9.659   5.654
  272POPC   C1R14125   1.790   9.727   5.788
  272POPC    CE14126   1.303   9.157   6.259
  272POPC    OG14127   1.254   9.056   6.169
  272POPC   C2A14128   1.339   8.962   6.129
  272POPC    OH14129   1.449   8.949   6.183
  272POPC   C2B14130   1.288   8.875   6.021
  272POPC   C2C14131   1.337   8.930   5.887
  272POPC   C2D14132   1.290   8.849   5.766
  272POPC   C2E14133   1.345   8.917   5.641
  272POPC   C2F14134   1.295   8.855   5.511
  272POPC   C2G14135   1.349   8.940   5.395
  272POPC   C2H14136   1.295   8.897   5.259
  272POPC   C2I14137   1.344   8.995   5.153
  272POPC   C2J14138   1.286   8.964   5.015
  272POPC   C2K14139   1.334   9.068   4.914
  272POPC   C2L14140   1.276   9.044   4.775
  272POPC   C2M14141   1.324   9.149   4.675
  272POPC   C2N14142   1.475   9.139   4.649
  272POPC   C2O14143   1.527   9.250   4.558
  272POPC   C2P14144   1.522   9.388   4.625
  273POPC   CN114145   1.105   9.372   6.707
  273POPC   CN214146   1.210   9.477   6.893
  273POPC   CN314147   1.031   9.324   6.926
  273POPC   NTM14148   1.150   9.352   6.845
  273POPC    CA14149   1.243   9.237   6.858
  273POPC    CB14150   1.374   9.226   6.776
  273POPC    OA14151   1.468   9.334   6.788
  273POPC     P14152   1.592   9.310   6.692
  273POPC    OB14153   1.705   9.282   6.781
  273POPC    OC14154   1.557   9.225   6.578
  273POPC    OD14155   1.613   9.458   6.644
  273POPC    CC14156   1.510   9.502   6.555
  273POPC    CD14157   1.550   9.625   6.473
  273POPC    OE14158   1.435   9.700   6.423
  273POPC   C1A14159   1.451   9.827   6.385
  273POPC    OF14160   1.548   9.891   6.427
  273POPC   C1B14161   1.333   9.883   6.317
  273POPC   C1C14162   1.369   9.990   6.214
  273POPC   C1D14163   1.242  10.054   6.157
  273POPC   C1E14164   1.275  10.174   6.069
  273POPC   C1F14165   1.150  10.258   6.037
  273POPC   C1G14166   1.055  10.192   5.937
  273POPC   C1H14167   1.107  10.189   5.792
  273POPC   C1I14168   1.129  10.329   5.735
  273POPC   C1J14169   1.093  10.358   5.610
  273POPC   C1K14170   1.029  10.254   5.518
  273POPC   C1L14171   1.028  10.305   5.374
  273POPC   C1M14172   0.951  10.212   5.281
  273POPC   C1N14173   0.950  10.270   5.139
  273POPC   C1O14174   0.867  10.182   5.045
  273POPC   C1P14175   0.866  10.240   4.904
  273POPC   C1Q14176   0.780  10.153   4.812
  273POPC   C1R14177   0.782  10.206   4.668
  273POPC    CE14178   1.652   9.573   6.369
  273POPC    OG14179   1.601   9.470   6.282
  273POPC   C2A14180   1.681   9.428   6.185
  273POPC    OH14181   1.801   9.459   6.182
  273POPC   C2B14182   1.617   9.336   6.089
  273POPC   C2C14183   1.530   9.414   5.990
  273POPC   C2D14184   1.484   9.332   5.870
  273POPC   C2E14185   1.600   9.308   5.773
  273POPC   C2F14186   1.549   9.264   5.635
  273POPC   C2G14187   1.667   9.254   5.538
  273POPC   C2H14188   1.621   9.220   5.396
  273POPC   C2I14189   1.744   9.208   5.306
  273POPC   C2J14190   1.709   9.166   5.163
  273POPC   C2K14191   1.839   9.143   5.087
  273POPC   C2L14192   1.818   9.088   4.945
  273POPC   C2M14193   1.954   9.049   4.888
  273POPC   C2N14194   1.942   8.990   4.747
  273POPC   C2O14195   2.078   8.940   4.699
  273POPC   C2P14196   2.068   8.877   4.560
  274POPC   CN114197   3.195   8.860   7.175
  274POPC   CN214198   3.348   8.959   7.022
  274POPC   CN314199   3.228   8.764   6.961
  274POPC   NTM14200   3.219   8.891   7.033
  274POPC    CA14201   3.104   8.973   6.987
  274POPC    CB14202   3.105   9.044   6.849
  274POPC    OA14203   3.198   9.152   6.838
  274POPC     P14204   3.209   9.203   6.689
  274POPC    OB14205   3.075   9.210   6.630
  274POPC    OC14206   3.300   9.319   6.695
  274POPC    OD14207   3.288   9.081   6.633
  274POPC    CC14208   3.372   9.108   6.521
  274POPC    CD14209   3.460   8.986   6.489
  274POPC    OE14210   3.568   9.013   6.395
  274POPC   C1A14211   3.681   8.944   6.405
  274POPC    OF14212   3.711   8.889   6.512
  274POPC   C1B14213   3.772   8.959   6.289
  274POPC   C1C14214   3.753   8.845   6.189
  274POPC   C1D14215   3.831   8.871   6.060
  274POPC   C1E14216   3.796   8.767   5.953
  274POPC   C1F14217   3.863   8.802   5.821
  274POPC   C1G14218   3.822   8.705   5.709
  274POPC   C1H14219   3.892   8.744   5.579
  274POPC   C1I14220   3.857   8.647   5.465
  274POPC   C1J14221   3.864   8.690   5.339
  274POPC   C1K14222   3.907   8.835   5.314
  274POPC   C1L14223   3.851   8.889   5.182
  274POPC   C1M14224   3.880   9.039   5.169
  274POPC   C1N14225   3.820   9.100   5.043
  274POPC   C1O14226   3.893   9.058   4.915
  274POPC   C1P14227   3.827   9.115   4.789
  274POPC   C1Q14228   3.835   9.268   4.782
  274POPC   C1R14229   3.764   9.321   4.658
  274POPC    CE14230   3.362   8.875   6.446
  274POPC    OG14231   3.305   8.888   6.315
  274POPC   C2A14232   3.368   8.823   6.217
  274POPC    OH14233   3.440   8.725   6.243
  274POPC   C2B14234   3.323   8.859   6.081
  274POPC   C2C14235   3.411   8.969   6.022
  274POPC   C2D14236   3.375   9.003   5.877
  274POPC   C2E14237   3.423   8.897   5.778
  274POPC   C2F14238   3.390   8.941   5.635
  274POPC   C2G14239   3.446   8.843   5.531
  274POPC   C2H14240   3.407   8.888   5.391
  274POPC   C2I14241   3.467   8.796   5.284
  274POPC   C2J14242   3.428   8.845   5.144
  274POPC   C2K14243   3.507   8.774   5.035
  274POPC   C2L14244   3.475   8.837   4.899
  274POPC   C2M14245   3.573   8.796   4.789
  274POPC   C2N14246   3.563   8.649   4.748
  274POPC   C2O14247   3.660   8.620   4.633
  274POPC   C2P14248   3.651   8.475   4.587
  275POPC   CN114249   3.901   9.135   6.647
  275POPC   CN214250   4.092   9.279   6.657
  275POPC   CN314251   3.896   9.331   6.779
  275POPC   NTM14252   3.982   9.221   6.735
  275POPC    CA14253   4.031   9.148   6.854
  275POPC    CB14254   4.110   9.015   6.837
  275POPC    OA14255   4.228   9.021   6.757
  275POPC     P14256   4.277   8.875   6.722
  275POPC    OB14257   4.316   8.827   6.855
  275POPC    OC14258   4.164   8.817   6.647
  275POPC    OD14259   4.401   8.920   6.638
  275POPC    CC14260   4.365   8.958   6.505
  275POPC    CD14261   4.478   9.027   6.427
  275POPC    OE14262   4.431   9.089   6.304
  275POPC   C1A14263   4.460   9.216   6.278
  275POPC    OF14264   4.532   9.282   6.354
  275POPC   C1B14265   4.400   9.265   6.152
  275POPC   C1C14266   4.504   9.269   6.040
  275POPC   C1D14267   4.442   9.318   5.909
  275POPC   C1E14268   4.547   9.321   5.798
  275POPC   C1F14269   4.485   9.367   5.666
  275POPC   C1G14270   4.592   9.372   5.557
  275POPC   C1H14271   4.537   9.418   5.421
  275POPC   C1I14272   4.491   9.564   5.422
  275POPC   C1J14273   4.498   9.636   5.310
  275POPC   C1K14274   4.554   9.574   5.182
  275POPC   C1L14275   4.583   9.681   5.078
  275POPC   C1M14276   4.638   9.620   4.949
  275POPC   C1N14277   4.654   9.727   4.841
  275POPC   C1O14278   4.710   9.671   4.710
  275POPC   C1P14279   4.616   9.572   4.639
  275POPC   C1Q14280   4.485   9.634   4.588
  275POPC   C1R14281   4.507   9.732   4.473
  275POPC    CE14282   4.590   8.922   6.411
  275POPC    OG14283   4.561   8.808   6.328
  275POPC   C2A14284   4.657   8.717   6.313
  275POPC    OH14285   4.755   8.716   6.388
  275POPC   C2B14286   4.623   8.617   6.209
  275POPC   C2C14287   4.747   8.570   6.132
  275POPC   C2D14288   4.712   8.487   6.008
  275POPC   C2E14289   4.638   8.571   5.903
  275POPC   C2F14290   4.608   8.494   5.774
  275POPC   C2G14291   4.733   8.467   5.690
  275POPC   C2H14292   4.693   8.402   5.557
  275POPC   C2I14293   4.813   8.386   5.464
  275POPC   C2J14294   4.768   8.336   5.327
  275POPC   C2K14295   4.885   8.330   5.229
  275POPC   C2L14296   4.836   8.294   5.089
  275POPC   C2M14297   4.952   8.299   4.988
  275POPC   C2N14298   4.906   8.275   4.844
  275POPC   C2O14299   4.860   8.131   4.821
  275POPC   C2P14300   4.812   8.112   4.676
  276POPC   CN114301   5.176   9.307   6.471
  276POPC   CN214302   5.412   9.339   6.503
  276POPC   CN314303   5.332   9.147   6.391
  276POPC   NTM14304   5.309   9.290   6.410
  276POPC    CA14305   5.316   9.355   6.277
  276POPC    CB14306   5.317   9.510   6.266
  276POPC    OA14307   5.204   9.583   6.317
  276POPC     P14308   5.245   9.732   6.345
  276POPC    OB14309   5.132   9.805   6.401
  276POPC    OC14310   5.374   9.732   6.417
  276POPC    OD14311   5.271   9.780   6.199
  276POPC    CC14312   5.154   9.827   6.133
  276POPC    CD14313   5.182   9.859   5.985
  276POPC    OE14314   5.084   9.942   5.918
  276POPC   C1A14315   5.074  10.072   5.945
  276POPC    OF14316   5.142  10.125   6.034
  276POPC   C1B14317   4.973  10.141   5.861
  276POPC   C1C14318   5.029  10.262   5.787
  276POPC   C1D14319   5.131  10.226   5.679
  276POPC   C1E14320   5.184  10.354   5.614
  276POPC   C1F14321   5.291  10.333   5.508
  276POPC   C1G14322   5.237  10.266   5.381
  276POPC   C1H14323   5.343  10.269   5.271
  276POPC   C1I14324   5.299  10.191   5.147
  276POPC   C1J14325   5.389  10.153   5.057
  276POPC   C1K14326   5.536  10.191   5.077
  276POPC   C1L14327   5.628  10.103   4.992
  276POPC   C1M14328   5.773  10.150   4.998
  276POPC   C1N14329   5.845  10.118   5.130
  276POPC   C1O14330   5.883   9.970   5.139
  276POPC   C1P14331   5.960   9.936   5.267
  276POPC   C1Q14332   5.872   9.948   5.392
  276POPC   C1R14333   5.948   9.908   5.518
  276POPC    CE14334   5.212   9.723   5.920
  276POPC    OG14335   5.107   9.625   5.932
  276POPC   C2A14336   5.142   9.498   5.917
  276POPC    OH14337   5.258   9.462   5.937
  276POPC   C2B14338   5.025   9.407   5.907
  276POPC   C2C14339   5.026   9.322   5.780
  276POPC   C2D14340   5.008   9.404   5.652
  276POPC   C2E14341   5.001   9.310   5.532
  276POPC   C2F14342   4.990   9.385   5.399
  276POPC   C2G14343   4.981   9.283   5.285
  276POPC   C2H14344   4.984   9.349   5.147
  276POPC   C2I14345   4.977   9.241   5.040
  276POPC   C2J14346   4.992   9.294   4.897
  276POPC   C2K14347   5.132   9.351   4.869
  276POPC   C2L14348   5.160   9.365   4.720
  276POPC   C2M14349   5.068   9.464   4.648
  276POPC   C2N14350   5.101   9.468   4.499
  276POPC   C2O14351   5.008   9.563   4.423
  276POPC   C2P14352   5.042   9.563   4.274
  277POPC   CN114353   6.078   9.224   6.864
  277POPC   CN214354   6.238   9.272   6.691
  277POPC   CN314355   6.310   9.180   6.897
  277POPC   NTM14356   6.202   9.178   6.799
  277POPC    CA14357   6.190   9.040   6.746
  277POPC    CB14358   6.071   9.000   6.655
  277POPC    OA14359   6.044   9.094   6.551
  277POPC     P14360   5.912   9.067   6.472
  277POPC    OB14361   5.817   8.998   6.562
  277POPC    OC14362   5.879   9.199   6.416
  277POPC    OD14363   5.970   8.968   6.365
  277POPC    CC14364   6.007   9.030   6.240
  277POPC    CD14365   6.145   9.098   6.233
  277POPC    OE14366   6.164   9.168   6.107
  277POPC   C1A14367   6.260   9.259   6.095
  277POPC    OF14368   6.323   9.298   6.194
  277POPC   C1B14369   6.273   9.314   5.958
  277POPC   C1C14370   6.359   9.224   5.870
  277POPC   C1D14371   6.360   9.275   5.726
  277POPC   C1E14372   6.428   9.174   5.633
  277POPC   C1F14373   6.422   9.222   5.488
  277POPC   C1G14374   6.482   9.117   5.394
  277POPC   C1H14375   6.481   9.161   5.247
  277POPC   C1I14376   6.576   9.276   5.218
  277POPC   C1J14377   6.607   9.304   5.091
  277POPC   C1K14378   6.545   9.219   4.980
  277POPC   C1L14379   6.513   9.299   4.853
  277POPC   C1M14380   6.639   9.346   4.779
  277POPC   C1N14381   6.607   9.412   4.645
  277POPC   C1O14382   6.548   9.313   4.545
  277POPC   C1P14383   6.523   9.376   4.408
  277POPC   C1Q14384   6.653   9.411   4.336
  277POPC   C1R14385   6.625   9.467   4.196
  277POPC    CE14386   6.247   8.988   6.268
  277POPC    OG14387   6.264   8.883   6.171
  277POPC   C2A14388   6.373   8.887   6.096
  277POPC    OH14389   6.465   8.966   6.120
  277POPC   C2B14390   6.375   8.780   5.993
  277POPC   C2C14391   6.447   8.824   5.865
  277POPC   C2D14392   6.432   8.720   5.754
  277POPC   C2E14393   6.512   8.763   5.631
  277POPC   C2F14394   6.483   8.675   5.510
  277POPC   C2G14395   6.567   8.723   5.392
  277POPC   C2H14396   6.526   8.657   5.260
  277POPC   C2I14397   6.612   8.715   5.147
  277POPC   C2J14398   6.564   8.672   5.009
  277POPC   C2K14399   6.652   8.739   4.903
  277POPC   C2L14400   6.594   8.722   4.762
  277POPC   C2M14401   6.679   8.797   4.660
  277POPC   C2N14402   6.615   8.801   4.521
  277POPC   C2O14403   6.607   8.663   4.456
  277POPC   C2P14404   6.538   8.673   4.320
  278POPC   CN114405   7.807   7.673   6.488
  278POPC   CN214406   7.826   7.773   6.272
  278POPC   CN314407   7.645   7.829   6.417
  278POPC   NTM14408   7.789   7.798   6.412
  278POPC    CA14409   7.872   7.903   6.476
  278POPC    CB14410   7.876   8.049   6.425
  278POPC    OA14411   7.756   8.126   6.429
  278POPC     P14412   7.792   8.273   6.382
  278POPC    OB14413   7.884   8.322   6.486
  278POPC    OC14414   7.834   8.252   6.243
  278POPC    OD14415   7.650   8.337   6.395
  278POPC    CC14416   7.564   8.308   6.285
  278POPC    CD14417   7.428   8.378   6.301
  278POPC    OE14418   7.318   8.302   6.242
  278POPC   C1A14419   7.193   8.348   6.243
  278POPC    OF14420   7.159   8.437   6.321
  278POPC   C1B14421   7.101   8.264   6.163
  278POPC   C1C14422   7.013   8.345   6.067
  278POPC   C1D14423   7.094   8.404   5.951
  278POPC   C1E14424   6.999   8.467   5.849
  278POPC   C1F14425   7.074   8.506   5.721
  278POPC   C1G14426   6.974   8.536   5.610
  278POPC   C1H14427   7.044   8.567   5.478
  278POPC   C1I14428   6.940   8.576   5.366
  278POPC   C1J14429   6.976   8.562   5.238
  278POPC   C1K14430   7.123   8.540   5.201
  278POPC   C1L14431   7.162   8.610   5.070
  278POPC   C1M14432   7.094   8.549   4.947
  278POPC   C1N14433   7.143   8.618   4.819
  278POPC   C1O14434   7.077   8.556   4.696
  278POPC   C1P14435   7.130   8.615   4.565
  278POPC   C1Q14436   7.093   8.763   4.548
  278POPC   C1R14437   7.149   8.819   4.417
  278POPC    CE14438   7.452   8.525   6.259
  278POPC    OG14439   7.478   8.545   6.119
  278POPC   C2A14440   7.453   8.666   6.070
  278POPC    OH14441   7.380   8.744   6.132
  278POPC   C2B14442   7.493   8.679   5.928
  278POPC   C2C14443   7.396   8.762   5.843
  278POPC   C2D14444   7.444   8.757   5.698
  278POPC   C2E14445   7.360   8.842   5.602
  278POPC   C2F14446   7.424   8.832   5.463
  278POPC   C2G14447   7.354   8.916   5.357
  278POPC   C2H14448   7.433   8.907   5.227
  278POPC   C2I14449   7.371   8.989   5.114
  278POPC   C2J14450   7.458   8.978   4.989
  278POPC   C2K14451   7.398   9.056   4.872
  278POPC   C2L14452   7.487   9.044   4.748
  278POPC   C2M14453   7.427   9.118   4.629
  278POPC   C2N14454   7.517   9.106   4.506
  278POPC   C2O14455   7.456   9.177   4.386
  278POPC   C2P14456   7.547   9.164   4.263
  279POPC   CN114457   7.264   9.035   6.188
  279POPC   CN214458   7.440   8.992   6.341
  279POPC   CN314459   7.488   9.074   6.122
  279POPC   NTM14460   7.395   9.082   6.235
  279POPC    CA14461   7.379   9.222   6.281
  279POPC    CB14462   7.494   9.295   6.355
  279POPC    OA14463   7.621   9.291   6.290
  279POPC     P14464   7.735   9.333   6.389
  279POPC    OB14465   7.717   9.477   6.413
  279POPC    OC14466   7.719   9.238   6.501
  279POPC    OD14467   7.863   9.301   6.306
  279POPC    CC14468   7.873   9.382   6.189
  279POPC    CD14469   8.008   9.369   6.117
  279POPC    OE14470   8.029   9.463   6.009
  279POPC   C1A14471   8.090   9.579   6.033
  279POPC    OF14472   8.117   9.614   6.148
  279POPC   C1B14473   8.118   9.652   5.907
  279POPC   C1C14474   8.253   9.725   5.909
  279POPC   C1D14475   8.292   9.774   5.770
  279POPC   C1E14476   8.331   9.659   5.677
  279POPC   C1F14477   8.362   9.710   5.536
  279POPC   C1G14478   8.408   9.597   5.444
  279POPC   C1H14479   8.427   9.645   5.299
  279POPC   C1I14480   8.540   9.748   5.284
  279POPC   C1J14481   8.588   9.780   5.164
  279POPC   C1K14482   8.529   9.718   5.037
  279POPC   C1L14483   8.633   9.719   4.925
  279POPC   C1M14484   8.568   9.677   4.793
  279POPC   C1N14485   8.667   9.689   4.677
  279POPC   C1O14486   8.600   9.668   4.541
  279POPC   C1P14487   8.499   9.779   4.509
  279POPC   C1Q14488   8.435   9.764   4.371
  279POPC   C1R14489   8.536   9.790   4.258
  279POPC    CE14490   8.028   9.221   6.079
  279POPC    OG14491   7.928   9.156   5.999
  279POPC   C2A14492   7.948   9.026   5.977
  279POPC    OH14493   8.048   8.968   6.020
  279POPC   C2B14494   7.847   8.965   5.887
  279POPC   C2C14495   7.913   8.919   5.757
  279POPC   C2D14496   7.820   8.828   5.677
  279POPC   C2E14497   7.885   8.789   5.544
  279POPC   C2F14498   7.796   8.690   5.468
  279POPC   C2G14499   7.849   8.663   5.326
  279POPC   C2H14500   7.836   8.787   5.236
  279POPC   C2I14501   7.886   8.757   5.095
  279POPC   C2J14502   7.878   8.881   5.007
  279POPC   C2K14503   7.927   8.851   4.866
  279POPC   C2L14504   7.918   8.976   4.778
  279POPC   C2M14505   7.964   8.946   4.635
  279POPC   C2N14506   7.957   9.071   4.548
  279POPC   C2O14507   8.003   9.041   4.406
  279POPC   C2P14508   7.996   9.167   4.318
  280POPC   CN114509   9.328   9.490   5.940
  280POPC   CN214510   9.097   9.507   5.887
  280POPC   CN314511   9.190   9.299   5.959
  280POPC   NTM14512   9.194   9.445   5.978
  280POPC    CA14513   9.171   9.481   6.120
  280POPC    CB14514   9.034   9.457   6.188
  280POPC    OA14515   8.980   9.326   6.173
  280POPC     P14516   8.852   9.299   6.259
  280POPC    OB14517   8.816   9.157   6.251
  280POPC    OC14518   8.868   9.366   6.389
  280POPC    OD14519   8.747   9.386   6.180
  280POPC    CC14520   8.706   9.324   6.058
  280POPC    CD14521   8.568   9.371   6.008
  280POPC    OE14522   8.514   9.294   5.898
  280POPC   C1A14523   8.422   9.201   5.921
  280POPC    OF14524   8.387   9.174   6.036
  280POPC   C1B14525   8.379   9.131   5.798
  280POPC   C1C14526   8.258   9.197   5.731
  280POPC   C1D14527   8.252   9.165   5.581
  280POPC   C1E14528   8.246   9.015   5.551
  280POPC   C1F14529   8.252   8.990   5.400
  280POPC   C1G14530   8.256   8.841   5.368
  280POPC   C1H14531   8.260   8.819   5.217
  280POPC   C1I14532   8.262   8.670   5.182
  280POPC   C1J14533   8.314   8.632   5.066
  280POPC   C1K14534   8.371   8.738   4.972
  280POPC   C1L14535   8.365   8.693   4.826
  280POPC   C1M14536   8.425   8.802   4.736
  280POPC   C1N14537   8.436   8.761   4.589
  280POPC   C1O14538   8.300   8.741   4.521
  280POPC   C1P14539   8.315   8.705   4.373
  280POPC   C1Q14540   8.378   8.567   4.352
  280POPC   C1R14541   8.399   8.538   4.204
  280POPC    CE14542   8.574   9.524   5.992
  280POPC    OG14543   8.675   9.581   5.908
  280POPC   C2A14544   8.674   9.714   5.898
  280POPC    OH14545   8.605   9.784   5.973
  280POPC   C2B14546   8.770   9.765   5.797
  280POPC   C2C14547   8.713   9.888   5.725
  280POPC   C2D14548   8.809   9.935   5.616
  280POPC   C2E14549   8.740  10.035   5.523
  280POPC   C2F14550   8.822  10.051   5.395
  280POPC   C2G14551   8.743  10.124   5.287
  280POPC   C2H14552   8.815  10.108   5.153
  280POPC   C2I14553   8.734  10.163   5.036
  280POPC   C2J14554   8.803  10.129   4.904
  280POPC   C2K14555   8.719  10.177   4.785
  280POPC   C2L14556   8.782  10.134   4.652
  280POPC   C2M14557   8.697  10.181   4.535
  280POPC   C2N14558   8.761  10.140   4.402
  280POPC   C2O14559   8.676  10.188   4.284
  280POPC   C2P14560   8.741  10.146   4.151
  281POPC   CN114561   9.191   9.782   6.439
  281POPC   CN214562   8.969   9.846   6.500
  281POPC   CN314563   9.158   9.944   6.608
  281POPC   NTM14564   9.106   9.894   6.480
  281POPC    CA14565   9.111  10.009   6.386
  281POPC    CB14566   9.058   9.996   6.242
  281POPC    OA14567   9.127   9.906   6.155
  281POPC     P14568   9.032   9.874   6.033
  281POPC    OB14569   8.949   9.767   6.088
  281POPC    OC14570   8.974   9.999   5.985
  281POPC    OD14571   9.142   9.820   5.936
  281POPC    CC14572   9.217   9.926   5.876
  281POPC    CD14573   9.325   9.879   5.777
  281POPC    OE14574   9.433   9.975   5.759
  281POPC   C1A14575   9.555   9.927   5.737
  281POPC    OF14576   9.582   9.810   5.766
  281POPC   C1B14577   9.651  10.026   5.683
  281POPC   C1C14578   9.662  10.012   5.531
  281POPC   C1D14579   9.765  10.109   5.472
  281POPC   C1E14580   9.787  10.087   5.322
  281POPC   C1F14581   9.667  10.127   5.236
  281POPC   C1G14582   9.698  10.104   5.088
  281POPC   C1H14583   9.587  10.160   4.998
  281POPC   C1I14584   9.617  10.130   4.851
  281POPC   C1J14585   9.524  10.146   4.757
  281POPC   C1K14586   9.385  10.199   4.792
  281POPC   C1L14587   9.324  10.273   4.672
  281POPC   C1M14588   9.189  10.336   4.707
  281POPC   C1N14589   9.133  10.411   4.586
  281POPC   C1O14590   9.000  10.480   4.619
  281POPC   C1P14591   8.942  10.554   4.498
  281POPC   C1Q14592   9.026  10.676   4.458
  281POPC   C1R14593   8.965  10.746   4.336
  281POPC    CE14594   9.256   9.846   5.643
  281POPC    OG14595   9.164   9.736   5.638
  281POPC   C2A14596   9.132   9.695   5.515
  281POPC    OH14597   9.189   9.741   5.416
  281POPC   C2B14598   9.029   9.589   5.512
  281POPC   C2C14599   8.924   9.622   5.405
  281POPC   C2D14600   8.811   9.519   5.400
  281POPC   C2E14601   8.854   9.387   5.336
  281POPC   C2F14602   8.732   9.298   5.314
  281POPC   C2G14603   8.771   9.167   5.244
  281POPC   C2H14604   8.648   9.082   5.212
  281POPC   C2I14605   8.561   9.138   5.099
  281POPC   C2J14606   8.631   9.130   4.963
  281POPC   C2K14607   8.539   9.180   4.852
  281POPC   C2L14608   8.607   9.164   4.715
  281POPC   C2M14609   8.509   9.198   4.603
  281POPC   C2N14610   8.573   9.173   4.466
  281POPC   C2O14611   8.475   9.198   4.351
  281POPC   C2P14612   8.436   9.345   4.337
  282POPC   CN114613  10.506   9.525   6.101
  282POPC   CN214614  10.629   9.669   6.244
  282POPC   CN314615  10.391   9.682   6.237
  282POPC   NTM14616  10.505   9.591   6.232
  282POPC    CA14617  10.491   9.495   6.345
  282POPC    CB14618  10.601   9.390   6.375
  282POPC    OA14619  10.624   9.294   6.272
  282POPC     P14620  10.752   9.204   6.297
  282POPC    OB14621  10.797   9.220   6.436
  282POPC    OC14622  10.726   9.073   6.238
  282POPC    OD14623  10.856   9.285   6.211
  282POPC    CC14624  10.825   9.275   6.072
  282POPC    CD14625  10.906   9.371   5.984
  282POPC    OE14626  10.843   9.395   5.855
  282POPC   C1A14627  10.785   9.512   5.834
  282POPC    OF14628  10.756   9.587   5.927
  282POPC   C1B14629  10.745   9.531   5.692
  282POPC   C1C14630  10.602   9.485   5.666
  282POPC   C1D14631  10.571   9.493   5.517
  282POPC   C1E14632  10.426   9.452   5.488
  282POPC   C1F14633  10.402   9.457   5.337
  282POPC   C1G14634  10.255   9.429   5.302
  282POPC   C1H14635  10.235   9.445   5.151
  282POPC   C1I14636  10.087   9.433   5.115
  282POPC   C1J14637  10.051   9.389   4.994
  282POPC   C1K14638  10.158   9.348   4.893
  282POPC   C1L14639  10.102   9.245   4.795
  282POPC   C1M14640  10.207   9.204   4.692
  282POPC   C1N14641  10.147   9.108   4.590
  282POPC   C1O14642  10.248   9.063   4.484
  282POPC   C1P14643  10.294   9.178   4.394
  282POPC   C1Q14644  10.393   9.127   4.289
  282POPC   C1R14645  10.441   9.241   4.198
  282POPC    CE14646  11.050   9.316   5.979
  282POPC    OG14647  11.143   9.405   5.916
  282POPC   C2A14648  11.267   9.361   5.897
  282POPC    OH14649  11.302   9.249   5.935
  282POPC   C2B14650  11.351   9.456   5.822
  282POPC   C2C14651  11.350   9.421   5.673
  282POPC   C2D14652  11.443   9.511   5.591
  282POPC   C2E14653  11.450   9.467   5.445
  282POPC   C2F14654  11.528   9.335   5.430
  282POPC   C2G14655  11.517   9.277   5.289
  282POPC   C2H14656  11.596   9.147   5.280
  282POPC   C2I14657  11.575   9.073   5.147
  282POPC   C2J14658  11.630   9.150   5.027
  282POPC   C2K14659  11.611   9.069   4.899
  282POPC   C2L14660  11.661   9.146   4.777
  282POPC   C2M14661  11.642   9.064   4.649
  282POPC   C2N14662  11.686   9.143   4.526
  282POPC   C2O14663  11.667   9.063   4.398
  282POPC   C2P14664  11.706   9.145   4.276
  283POPC   CN114665  12.129   9.518   6.310
  283POPC   CN214666  12.278   9.584   6.486
  283POPC   CN314667  12.346   9.597   6.260
  283POPC   NTM14668  12.232   9.614   6.350
  283POPC    CA14669  12.182   9.753   6.336
  283POPC    CB14670  12.079   9.813   6.436
  283POPC    OA14671  11.957   9.741   6.461
  283POPC     P14672  11.862   9.822   6.559
  283POPC    OB14673  11.749   9.736   6.597
  283POPC    OC14674  11.943   9.887   6.663
  283POPC    OD14675  11.807   9.935   6.466
  283POPC    CC14676  11.735   9.888   6.351
  283POPC    CD14677  11.586   9.923   6.342
  283POPC    OE14678  11.533   9.876   6.215
  283POPC   C1A14679  11.403   9.883   6.186
  283POPC    OF14680  11.321   9.906   6.275
  283POPC   C1B14681  11.370   9.853   6.044
  283POPC   C1C14682  11.471   9.912   5.944
  283POPC   C1D14683  11.435   9.878   5.799
  283POPC   C1E14684  11.542   9.930   5.703
  283POPC   C1F14685  11.501   9.909   5.557
  283POPC   C1G14686  11.616   9.949   5.465
  283POPC   C1H14687  11.587   9.929   5.316
  283POPC   C1I14688  11.497  10.039   5.258
  283POPC   C1J14689  11.452  10.029   5.133
  283POPC   C1K14690  11.491   9.908   5.048
  283POPC   C1L14691  11.470   9.938   4.899
  283POPC   C1M14692  11.487   9.812   4.814
  283POPC   C1N14693  11.437   9.833   4.671
  283POPC   C1O14694  11.526   9.928   4.589
  283POPC   C1P14695  11.462   9.964   4.454
  283POPC   C1Q14696  11.450   9.846   4.358
  283POPC   C1R14697  11.379   9.888   4.229
  283POPC    CE14698  11.573  10.075   6.369
  283POPC    OG14699  11.642  10.164   6.279
  283POPC   C2A14700  11.645  10.293   6.311
  283POPC    OH14701  11.601  10.330   6.420
  283POPC   C2B14702  11.702  10.378   6.204
  283POPC   C2C14703  11.788  10.494   6.255
  283POPC   C2D14704  11.852  10.572   6.139
  283POPC   C2E14705  11.748  10.650   6.057
  283POPC   C2F14706  11.808  10.709   5.929
  283POPC   C2G14707  11.703  10.792   5.855
  283POPC   C2H14708  11.751  10.843   5.719
  283POPC   C2I14709  11.762  10.731   5.615
  283POPC   C2J14710  11.803  10.782   5.476
  283POPC   C2K14711  11.698  10.871   5.407
  283POPC   C2L14712  11.570  10.796   5.369
  283POPC   C2M14713  11.589  10.698   5.252
  283POPC   C2N14714  11.590  10.766   5.115
  283POPC   C2O14715  11.450  10.809   5.071
  283POPC   C2P14716  11.452  10.867   4.930
  284POPC   CN114717  11.628  10.230   6.791
  284POPC   CN214718  11.679  10.439   6.694
  284POPC   CN314719  11.779  10.379   6.902
  284POPC   NTM14720  11.736  10.328   6.771
  284POPC    CA14721  11.847  10.260   6.700
  284POPC    CB14722  11.976  10.338   6.665
  284POPC    OA14723  11.956  10.444   6.571
  284POPC     P14724  12.080  10.539   6.560
  284POPC    OB14725  12.047  10.651   6.470
  284POPC    OC14726  12.125  10.571   6.696
  284POPC    OD14727  12.181  10.441   6.491
  284POPC    CC14728  12.176  10.439   6.348
  284POPC    CD14729  12.245  10.313   6.291
  284POPC    OE14730  12.294  10.328   6.155
  284POPC   C1A14731  12.374  10.236   6.101
  284POPC    OF14732  12.411  10.138   6.166
  284POPC   C1B14733  12.419  10.270   5.964
  284POPC   C1C14734  12.334  10.202   5.857
  284POPC   C1D14735  12.381  10.245   5.718
  284POPC   C1E14736  12.297  10.180   5.607
  284POPC   C1F14737  12.339  10.233   5.470
  284POPC   C1G14738  12.259  10.168   5.357
  284POPC   C1H14739  12.296  10.231   5.223
  284POPC   C1I14740  12.232  10.157   5.105
  284POPC   C1J14741  12.232  10.212   4.984
  284POPC   C1K14742  12.296  10.349   4.962
  284POPC   C1L14743  12.225  10.426   4.850
  284POPC   C1M14744  12.289  10.564   4.832
  284POPC   C1N14745  12.217  10.645   4.723
  284POPC   C1O14746  12.286  10.779   4.701
  284POPC   C1P14747  12.217  10.859   4.591
  284POPC   C1Q14748  12.288  10.992   4.561
  284POPC   C1R14749  12.279  11.091   4.677
  284POPC    CE14750  12.147  10.198   6.320
  284POPC    OG14751  12.029  10.191   6.238
  284POPC   C2A14752  12.028  10.097   6.144
  284POPC    OH14753  12.106  10.002   6.147
  284POPC   C2B14754  11.912  10.107   6.053
  284POPC   C2C14755  11.943  10.188   5.927
  284POPC   C2D14756  11.814  10.223   5.853
  284POPC   C2E14757  11.839  10.298   5.722
  284POPC   C2F14758  11.887  10.202   5.612
  284POPC   C2G14759  11.911  10.271   5.477
  284POPC   C2H14760  11.783  10.329   5.416
  284POPC   C2I14761  11.810  10.384   5.276
  284POPC   C2J14762  11.823  10.273   5.171
  284POPC   C2K14763  11.868  10.326   5.034
  284POPC   C2L14764  11.770  10.425   4.972
  284POPC   C2M14765  11.826  10.482   4.841
  284POPC   C2N14766  11.735  10.591   4.786
  284POPC   C2O14767  11.789  10.648   4.655
  284POPC   C2P14768  11.694  10.754   4.600
  285POPC   CN114769  12.361  10.995   6.831
  285POPC   CN214770  12.573  10.908   6.773
  285POPC   CN314771  12.421  10.775   6.904
  285POPC   NTM14772  12.432  10.872   6.793
  285POPC    CA14773  12.371  10.819   6.669
  285POPC    CB14774  12.416  10.683   6.610
  285POPC    OA14775  12.556  10.667   6.588
  285POPC     P14776  12.591  10.521   6.542
  285POPC    OB14777  12.738  10.507   6.543
  285POPC    OC14778  12.505  10.425   6.612
  285POPC    OD14779  12.545  10.529   6.392
  285POPC    CC14780  12.636  10.600   6.309
  285POPC    CD14781  12.602  10.592   6.159
  285POPC    OE14782  12.712  10.633   6.074
  285POPC   C1A14783  12.790  10.538   6.024
  285POPC    OF14784  12.808  10.434   6.087
  285POPC   C1B14785  12.878  10.588   5.915
  285POPC   C1C14786  12.804  10.598   5.782
  285POPC   C1D14787  12.896  10.650   5.672
  285POPC   C1E14788  12.818  10.680   5.544
  285POPC   C1F14789  12.908  10.732   5.432
  285POPC   C1G14790  12.984  10.620   5.362
  285POPC   C1H14791  13.079  10.678   5.256
  285POPC   C1I14792  13.137  10.568   5.166
  285POPC   C1J14793  13.265  10.570   5.133
  285POPC   C1K14794  13.357  10.679   5.191
  285POPC   C1L14795  13.501  10.628   5.203
  285POPC   C1M14796  13.587  10.723   5.287
  285POPC   C1N14797  13.608  10.860   5.221
  285POPC   C1O14798  13.671  10.957   5.321
  285POPC   C1P14799  13.692  11.095   5.259
  285POPC   C1Q14800  13.739  11.198   5.363
  285POPC   C1R14801  13.878  11.167   5.420
  285POPC    CE14802  12.467  10.665   6.141
  285POPC    OG14803  12.417  10.671   6.006
  285POPC   C2A14804  12.298  10.725   5.986
  285POPC    OH14805  12.223  10.753   6.080
  285POPC   C2B14806  12.267  10.744   5.843
  285POPC   C2C14807  12.199  10.621   5.780
  285POPC   C2D14808  12.190  10.633   5.628
  285POPC   C2E14809  12.329  10.632   5.564
  285POPC   C2F14810  12.325  10.636   5.411
  285POPC   C2G14811  12.468  10.630   5.358
  285POPC   C2H14812  12.473  10.629   5.205
  285POPC   C2I14813  12.619  10.631   5.159
  285POPC   C2J14814  12.632  10.628   5.007
  285POPC   C2K14815  12.778  10.642   4.965
  285POPC   C2L14816  12.793  10.633   4.813
  285POPC   C2M14817  12.937  10.657   4.768
  285POPC   C2N14818  12.980  10.803   4.786
  285POPC   C2O14819  13.122  10.824   4.735
  285POPC   C2P14820  13.164  10.971   4.746
  286POPC   CN114821  14.807  10.753   5.731
  286POPC   CN214822  14.600  10.658   5.802
  286POPC   CN314823  14.800  10.531   5.817
  286POPC   NTM14824  14.743  10.666   5.830
  286POPC    CA14825  14.766  10.711   5.969
  286POPC    CB14826  14.717  10.849   6.018
  286POPC    OA14827  14.780  10.963   5.960
  286POPC     P14828  14.741  11.090   6.043
  286POPC    OB14829  14.595  11.102   6.043
  286POPC    OC14830  14.814  11.075   6.170
  286POPC    OD14831  14.810  11.194   5.947
  286POPC    CC14832  14.721  11.238   5.844
  286POPC    CD14833  14.791  11.270   5.712
  286POPC    OE14834  14.725  11.377   5.639
  286POPC   C1A14835  14.798  11.449   5.553
  286POPC    OF14836  14.921  11.453   5.563
  286POPC   C1B14837  14.717  11.539   5.468
  286POPC   C1C14838  14.666  11.466   5.344
  286POPC   C1D14839  14.590  11.560   5.250
  286POPC   C1E14840  14.525  11.480   5.137
  286POPC   C1F14841  14.454  11.567   5.033
  286POPC   C1G14842  14.552  11.647   4.947
  286POPC   C1H14843  14.480  11.717   4.833
  286POPC   C1I14844  14.580  11.792   4.743
  286POPC   C1J14845  14.539  11.891   4.665
  286POPC   C1K14846  14.392  11.933   4.663
  286POPC   C1L14847  14.367  12.062   4.583
  286POPC   C1M14848  14.389  12.043   4.433
  286POPC   C1N14849  14.353  12.169   4.354
  286POPC   C1O14850  14.381  12.154   4.205
  286POPC   C1P14851  14.291  12.050   4.137
  286POPC   C1Q14852  14.328  12.028   3.990
  286POPC   C1R14853  14.300  12.150   3.903
  286POPC    CE14854  14.800  11.134   5.641
  286POPC    OG14855  14.864  11.132   5.513
  286POPC   C2A14856  14.845  11.024   5.438
  286POPC    OH14857  14.768  10.935   5.472
  286POPC   C2B14858  14.915  11.031   5.308
  286POPC   C2C14859  14.827  11.104   5.206
  286POPC   C2D14860  14.897  11.113   5.070
  286POPC   C2E14861  14.817  11.199   4.971
  286POPC   C2F14862  14.686  11.134   4.928
  286POPC   C2G14863  14.611  11.225   4.830
  286POPC   C2H14864  14.487  11.155   4.774
  286POPC   C2I14865  14.412  11.247   4.678
  286POPC   C2J14866  14.296  11.171   4.612
  286POPC   C2K14867  14.215  11.262   4.520
  286POPC   C2L14868  14.108  11.181   4.447
  286POPC   C2M14869  14.022  11.271   4.357
  286POPC   C2N14870  13.923  11.187   4.276
  286POPC   C2O14871  13.841  11.276   4.182
  286POPC   C2P14872  13.746  11.192   4.097
  287POPC   CN114873  15.259  11.385   5.777
  287POPC   CN214874  15.323  11.583   5.895
  287POPC   CN314875  15.135  11.588   5.750
  287POPC   NTM14876  15.209  11.505   5.846
  287POPC    CA14877  15.115  11.466   5.953
  287POPC    CB14878  15.163  11.412   6.090
  287POPC    OA14879  15.266  11.314   6.087
  287POPC     P14880  15.266  11.225   6.216
  287POPC    OB14881  15.403  11.177   6.242
  287POPC    OC14882  15.185  11.285   6.323
  287POPC    OD14883  15.177  11.110   6.158
  287POPC    CC14884  15.250  11.021   6.075
  287POPC    CD14885  15.159  10.924   5.998
  287POPC    OE14886  15.229  10.807   5.948
  287POPC   C1A14887  15.181  10.686   5.974
  287POPC    OF14888  15.080  10.671   6.044
  287POPC   C1B14889  15.264  10.576   5.919
  287POPC   C1C14890  15.203  10.509   5.795
  287POPC   C1D14891  15.196  10.603   5.675
  287POPC   C1E14892  15.142  10.531   5.552
  287POPC   C1F14893  15.130  10.630   5.436
  287POPC   C1G14894  15.085  10.560   5.308
  287POPC   C1H14895  15.065  10.658   5.192
  287POPC   C1I14896  15.196  10.717   5.138
  287POPC   C1J14897  15.203  10.748   5.009
  287POPC   C1K14898  15.080  10.725   4.921
  287POPC   C1L14899  15.076  10.819   4.801
  287POPC   C1M14900  14.948  10.794   4.720
  287POPC   C1N14901  14.939  10.882   4.594
  287POPC   C1O14902  14.929  11.031   4.626
  287POPC   C1P14903  14.908  11.113   4.499
  287POPC   C1Q14904  14.901  11.262   4.530
  287POPC   C1R14905  14.879  11.343   4.402
  287POPC    CE14906  15.087  11.011   5.893
  287POPC    OG14907  15.168  11.068   5.788
  287POPC   C2A14908  15.162  11.007   5.670
  287POPC    OH14909  15.075  10.923   5.647
  287POPC   C2B14910  15.255  11.064   5.570
  287POPC   C2C14911  15.324  10.954   5.489
  287POPC   C2D14912  15.421  11.005   5.382
  287POPC   C2E14913  15.350  11.077   5.267
  287POPC   C2F14914  15.445  11.096   5.149
  287POPC   C2G14915  15.378  11.171   5.034
  287POPC   C2H14916  15.467  11.172   4.910
  287POPC   C2I14917  15.407  11.260   4.800
  287POPC   C2J14918  15.490  11.254   4.672
  287POPC   C2K14919  15.441  11.360   4.573
  287POPC   C2L14920  15.515  11.353   4.439
  287POPC   C2M14921  15.481  11.477   4.355
  287POPC   C2N14922  15.536  11.473   4.213
  287POPC   C2O14923  15.460  11.373   4.125
  287POPC   C2P14924  15.508  11.380   3.980
  288POPC   CN114925  15.173  10.457   6.467
  288POPC   CN214926  14.999  10.308   6.525
  288POPC   CN314927  15.222  10.228   6.516
  288POPC   NTM14928  15.138  10.343   6.553
  288POPC    CA14929  15.151  10.376   6.697
  288POPC    CB14930  15.285  10.430   6.754
  288POPC    OA14931  15.397  10.343   6.743
  288POPC     P14932  15.534  10.420   6.763
  288POPC    OB14933  15.513  10.511   6.877
  288POPC    OC14934  15.631  10.310   6.772
  288POPC    OD14935  15.539  10.493   6.624
  288POPC    CC14936  15.591  10.409   6.521
  288POPC    CD14937  15.563  10.463   6.380
  288POPC    OE14938  15.589  10.366   6.276
  288POPC   C1A14939  15.485  10.305   6.217
  288POPC    OF14940  15.370  10.325   6.257
  288POPC   C1B14941  15.524  10.224   6.100
  288POPC   C1C14942  15.531  10.314   5.976
  288POPC   C1D14943  15.546  10.238   5.844
  288POPC   C1E14944  15.678  10.161   5.832
  288POPC   C1F14945  15.694  10.106   5.691
  288POPC   C1G14946  15.828  10.035   5.673
  288POPC   C1H14947  15.851   9.990   5.529
  288POPC   C1I14948  15.878  10.109   5.434
  288POPC   C1J14949  15.840  10.102   5.307
  288POPC   C1K14950  15.769   9.977   5.255
  288POPC   C1L14951  15.843   9.918   5.135
  288POPC   C1M14952  15.778   9.788   5.085
  288POPC   C1N14953  15.644   9.810   5.013
  288POPC   C1O14954  15.663   9.882   4.879
  288POPC   C1P14955  15.531   9.894   4.801
  288POPC   C1Q14956  15.430   9.983   4.872
  288POPC   C1R14957  15.299   9.989   4.792
  288POPC    CE14958  15.640  10.595   6.365
  288POPC    OG14959  15.582  10.687   6.269
  288POPC   C2A14960  15.659  10.788   6.230
  288POPC    OH14961  15.755  10.824   6.298
  288POPC   C2B14962  15.602  10.865   6.117
  288POPC   C2C14963  15.651  10.811   5.983
  288POPC   C2D14964  15.592  10.892   5.866
  288POPC   C2E14965  15.641  10.842   5.730
  288POPC   C2F14966  15.591  10.701   5.696
  288POPC   C2G14967  15.633  10.661   5.555
  288POPC   C2H14968  15.586  10.519   5.521
  288POPC   C2I14969  15.628  10.476   5.380
  288POPC   C2J14970  15.554  10.554   5.271
  288POPC   C2K14971  15.605  10.519   5.130
  288POPC   C2L14972  15.574  10.375   5.089
  288POPC   C2M14973  15.635  10.339   4.954
  288POPC   C2N14974  15.788  10.332   4.959
  288POPC   C2O14975  15.847  10.296   4.823
  288POPC   C2P14976  16.000  10.289   4.830
  289POPC   CN114977   0.716  10.036   6.684
  289POPC   CN214978   0.595  10.206   6.569
  289POPC   CN314979   0.483  10.011   6.648
  289POPC   NTM14980   0.589  10.108   6.678
  289POPC    CA14981   0.570  10.174   6.810
  289POPC    CB14982   0.435  10.240   6.845
  289POPC    OA14983   0.387  10.343   6.758
  289POPC     P14984   0.232  10.368   6.772
  289POPC    OB14985   0.186  10.315   6.902
  289POPC    OC14986   0.203  10.506   6.733
  289POPC    OD14987   0.181  10.266   6.665
  289POPC    CC14988   0.201  10.310   6.530
  289POPC    CD14989   0.154  10.205   6.429
  289POPC    OE14990   0.203  10.228   6.294
  289POPC   C1A14991   0.307  10.158   6.249
  289POPC    OF14992   0.372  10.086   6.325
  289POPC   C1B14993   0.340  10.190   6.108
  289POPC   C1C14994   0.236  10.139   6.007
  289POPC   C1D14995   0.268  10.196   5.868
  289POPC   C1E14996   0.162  10.162   5.763
  289POPC   C1F14997   0.192  10.236   5.632
  289POPC   C1G14998   0.089  10.204   5.524
  289POPC   C1H14999   0.110  10.283   5.394
  289POPC   C1I15000   0.067  10.430   5.407
  289POPC   C1J15001   0.026  10.498   5.301
  289POPC   C1K15002   0.023  10.431   5.163
  289POPC   C1L15003   0.048  10.532   5.051
  289POPC   C1M15004   0.058  10.461   4.917
  289POPC   C1N15005   0.095  10.559   4.805
  289POPC   C1O15006   0.125  10.482   4.676
  289POPC   C1P15007   0.169  10.577   4.564
  289POPC   C1Q15008   0.207  10.497   4.439
  289POPC   C1R15009   0.245  10.589   4.323
  289POPC    CE15010   0.000  10.198   6.440
  289POPC    OG15011  16.915  10.310   6.380
  289POPC   C2A15012  16.787  10.293   6.350
  289POPC    OH15013  16.717  10.212   6.412
  289POPC   C2B15014  16.736  10.390   6.251
  289POPC   C2C15015  16.753  10.332   6.110
  289POPC   C2D15016  16.710  10.432   6.003
  289POPC   C2E15017  16.731  10.375   5.863
  289POPC   C2F15018  16.694  10.479   5.758
  289POPC   C2G15019  16.712  10.429   5.614
  289POPC   C2H15020  16.609  10.322   5.576
  289POPC   C2I15021  16.623  10.278   5.430
  289POPC   C2J15022  16.590  10.390   5.332
  289POPC   C2K15023  16.602  10.341   5.188
  289POPC   C2L15024  16.572  10.452   5.087
  289POPC   C2M15025  16.587  10.401   4.944
  289POPC   C2N15026  16.558  10.510   4.840
  289POPC   C2O15027  16.411  10.553   4.840
  289POPC   C2P15028  16.386  10.660   4.735
  290POPC   CN115029   0.909  10.750   6.589
  290POPC   CN215030   1.106  10.735   6.726
  290POPC   CN315031   0.960  10.917   6.750
  290POPC   NTM15032   0.964  10.773   6.723
  290POPC    CA15033   0.885  10.702   6.827
  290POPC    CB15034   0.867  10.549   6.822
  290POPC    OA15035   0.989  10.474   6.822
  290POPC     P15036   0.971  10.319   6.830
  290POPC    OB15037   1.103  10.265   6.866
  290POPC    OC15038   0.851  10.294   6.911
  290POPC    OD15039   0.937  10.286   6.680
  290POPC    CC15040   1.034  10.325   6.582
  290POPC    CD15041   1.147  10.225   6.549
  290POPC    OE15042   1.241  10.269   6.448
  290POPC   C1A15043   1.339  10.355   6.475
  290POPC    OF15044   1.352  10.403   6.589
  290POPC   C1B15045   1.425  10.381   6.358
  290POPC   C1C15046   1.491  10.519   6.361
  290POPC   C1D15047   1.569  10.550   6.232
  290POPC   C1E15048   1.476  10.574   6.113
  290POPC   C1F15049   1.553  10.624   5.990
  290POPC   C1G15050   1.456  10.659   5.878
  290POPC   C1H15051   1.528  10.714   5.755
  290POPC   C1I15052   1.427  10.749   5.645
  290POPC   C1J15053   1.455  10.837   5.549
  290POPC   C1K15054   1.592  10.904   5.540
  290POPC   C1L15055   1.610  10.969   5.403
  290POPC   C1M15056   1.748  11.034   5.391
  290POPC   C1N15057   1.763  11.119   5.264
  290POPC   C1O15058   1.771  11.040   5.133
  290POPC   C1P15059   1.900  10.958   5.121
  290POPC   C1Q15060   1.922  10.901   4.981
  290POPC   C1R15061   1.815  10.800   4.938
  290POPC    CE15062   1.079  10.090   6.518
  290POPC    OG15063   0.970  10.093   6.424
  290POPC   C2A15064   0.912   9.978   6.393
  290POPC    OH15065   0.934   9.876   6.460
  290POPC   C2B15066   0.801   9.994   6.298
  290POPC   C2C15067   0.783   9.870   6.210
  290POPC   C2D15068   0.641   9.863   6.154
  290POPC   C2E15069   0.624   9.741   6.064
  290POPC   C2F15070   0.686   9.764   5.926
  290POPC   C2G15071   0.665   9.642   5.836
  290POPC   C2H15072   0.693   9.674   5.689
  290POPC   C2I15073   0.589   9.771   5.633
  290POPC   C2J15074   0.621   9.813   5.489
  290POPC   C2K15075   0.517   9.913   5.439
  290POPC   C2L15076   0.550   9.961   5.299
  290POPC   C2M15077   0.445  10.062   5.251
  290POPC   C2N15078   0.478  10.111   5.110
  290POPC   C2O15079   0.373  10.211   5.061
  290POPC   C2P15080   0.408  10.263   4.922
  291POPC   CN115081   2.396  10.048   7.044
  291POPC   CN215082   2.314  10.244   7.151
  291POPC   CN315083   2.547  10.201   7.142
  291POPC   NTM15084   2.422  10.190   7.067
  291POPC    CA15085   2.437  10.265   6.939
  291POPC    CB15086   2.315  10.289   6.847
  291POPC    OA15087   2.245  10.171   6.808
  291POPC     P15088   2.109  10.197   6.735
  291POPC    OB15089   2.041  10.068   6.723
  291POPC    OC15090   2.044  10.309   6.808
  291POPC    OD15091   2.155  10.246   6.593
  291POPC    CC15092   2.212  10.139   6.516
  291POPC    CD15093   2.215  10.163   6.365
  291POPC    OE15094   2.283  10.056   6.293
  291POPC   C1A15095   2.220  10.007   6.186
  291POPC    OF15096   2.097   9.995   6.192
  291POPC   C1B15097   2.305   9.932   6.092
  291POPC   C1C15098   2.355  10.021   5.978
  291POPC   C1D15099   2.437   9.943   5.874
  291POPC   C1E15100   2.351   9.849   5.789
  291POPC   C1F15101   2.268   9.925   5.685
  291POPC   C1G15102   2.172   9.829   5.614
  291POPC   C1H15103   2.090   9.897   5.504
  291POPC   C1I15104   2.171   9.923   5.376
  291POPC   C1J15105   2.111   9.921   5.258
  291POPC   C1K15106   1.960   9.893   5.248
  291POPC   C1L15107   1.927   9.753   5.195
  291POPC   C1M15108   1.951   9.737   5.044
  291POPC   C1N15109   1.903   9.599   4.998
  291POPC   C1O15110   1.925   9.576   4.848
  291POPC   C1P15111   1.838   9.666   4.760
  291POPC   C1Q15112   1.863   9.638   4.612
  291POPC   C1R15113   1.778   9.729   4.524
  291POPC    CE15114   2.282  10.301   6.343
  291POPC    OG15115   2.271  10.351   6.209
  291POPC   C2A15116   2.363  10.438   6.168
  291POPC    OH15117   2.462  10.462   6.238
  291POPC   C2B15118   2.342  10.493   6.031
  291POPC   C2C15119   2.291  10.392   5.927
  291POPC   C2D15120   2.281  10.457   5.789
  291POPC   C2E15121   2.238  10.358   5.680
  291POPC   C2F15122   2.248  10.426   5.544
  291POPC   C2G15123   2.210  10.336   5.426
  291POPC   C2H15124   2.245  10.409   5.296
  291POPC   C2I15125   2.216  10.330   5.168
  291POPC   C2J15126   2.068  10.325   5.131
  291POPC   C2K15127   2.053  10.277   4.986
  291POPC   C2L15128   1.909  10.274   4.936
  291POPC   C2M15129   1.831  10.155   4.993
  291POPC   C2N15130   1.690  10.148   4.935
  291POPC   C2O15131   1.614  10.027   4.992
  291POPC   C2P15132   1.473  10.019   4.934
  292POPC   CN115133   2.294   9.758   6.488
  292POPC   CN215134   2.260   9.565   6.620
  292POPC   CN315135   2.478   9.614   6.540
  292POPC   NTM15136   2.354   9.673   6.591
  292POPC    CA15137   2.379   9.748   6.717
  292POPC    CB15138   2.484   9.862   6.719
  292POPC    OA15139   2.461   9.972   6.632
  292POPC     P15140   2.576  10.079   6.638
  292POPC    OB15141   2.526  10.211   6.599
  292POPC    OC15142   2.654  10.062   6.761
  292POPC    OD15143   2.662  10.018   6.521
  292POPC    CC15144   2.630  10.076   6.395
  292POPC    CD15145   2.693  10.008   6.273
  292POPC    OE15146   2.671  10.083   6.150
  292POPC   C1A15147   2.741  10.193   6.125
  292POPC    OF15148   2.836  10.225   6.197
  292POPC   C1B15149   2.697  10.262   6.001
  292POPC   C1C15150   2.812  10.336   5.932
  292POPC   C1D15151   2.777  10.378   5.789
  292POPC   C1E15152   2.682  10.497   5.780
  292POPC   C1F15153   2.652  10.537   5.635
  292POPC   C1G15154   2.779  10.574   5.557
  292POPC   C1H15155   2.744  10.623   5.416
  292POPC   C1I15156   2.871  10.643   5.333
  292POPC   C1J15157   2.860  10.650   5.200
  292POPC   C1K15158   2.722  10.644   5.136
  292POPC   C1L15159   2.724  10.577   4.999
  292POPC   C1M15160   2.583  10.575   4.941
  292POPC   C1N15161   2.574  10.503   4.806
  292POPC   C1O15162   2.652  10.574   4.695
  292POPC   C1P15163   2.625  10.510   4.559
  292POPC   C1Q15164   2.696  10.587   4.448
  292POPC   C1R15165   2.659  10.532   4.310
  292POPC    CE15166   2.631   9.868   6.274
  292POPC    OG15167   2.684   9.768   6.185
  292POPC   C2A15168   2.606   9.664   6.159
  292POPC    OH15169   2.497   9.651   6.215
  292POPC   C2B15170   2.665   9.565   6.067
  292POPC   C2C15171   2.655   9.611   5.921
  292POPC   C2D15172   2.715   9.504   5.828
  292POPC   C2E15173   2.741   9.555   5.686
  292POPC   C2F15174   2.615   9.597   5.610
  292POPC   C2G15175   2.649   9.624   5.463
  292POPC   C2H15176   2.526   9.666   5.383
  292POPC   C2I15177   2.561   9.684   5.235
  292POPC   C2J15178   2.437   9.727   5.156
  292POPC   C2K15179   2.466   9.737   5.007
  292POPC   C2L15180   2.339   9.777   4.930
  292POPC   C2M15181   2.365   9.783   4.779
  292POPC   C2N15182   2.240   9.821   4.700
  292POPC   C2O15183   2.193   9.963   4.729
  292POPC   C2P15184   2.068   9.998   4.648
  293POPC   CN115185   3.162  10.161   6.659
  293POPC   CN215186   3.123   9.995   6.495
  293POPC   CN315187   3.212   9.934   6.709
  293POPC   NTM15188   3.117  10.023   6.639
  293POPC    CA15189   2.980  10.008   6.693
  293POPC    CB15190   2.901   9.876   6.677
  293POPC    OA15191   2.964   9.758   6.727
  293POPC     P15192   2.867   9.634   6.731
  293POPC    OB15193   2.942   9.531   6.806
  293POPC    OC15194   2.737   9.684   6.779
  293POPC    OD15195   2.865   9.603   6.577
  293POPC    CC15196   2.976   9.522   6.535
  293POPC    CD15197   2.988   9.500   6.383
  293POPC    OE15198   3.101   9.415   6.347
  293POPC   C1A15199   3.089   9.340   6.236
  293POPC    OF15200   2.978   9.301   6.200
  293POPC   C1B15201   3.216   9.276   6.196
  293POPC   C1C15202   3.305   9.363   6.106
  293POPC   C1D15203   3.253   9.375   5.962
  293POPC   C1E15204   3.360   9.438   5.873
  293POPC   C1F15205   3.321   9.442   5.725
  293POPC   C1G15206   3.210   9.543   5.698
  293POPC   C1H15207   3.171   9.549   5.550
  293POPC   C1I15208   3.057   9.650   5.535
  293POPC   C1J15209   3.021   9.707   5.421
  293POPC   C1K15210   3.086   9.677   5.286
  293POPC   C1L15211   3.062   9.796   5.193
  293POPC   C1M15212   3.091   9.765   5.046
  293POPC   C1N15213   2.994   9.659   4.991
  293POPC   C1O15214   3.014   9.640   4.840
  293POPC   C1P15215   2.934   9.521   4.786
  293POPC   C1Q15216   2.783   9.543   4.793
  293POPC   C1R15217   2.709   9.420   4.739
  293POPC    CE15218   2.996   9.642   6.324
  293POPC    OG15219   2.995   9.653   6.180
  293POPC   C2A15220   3.017   9.774   6.129
  293POPC    OH15221   3.041   9.872   6.200
  293POPC   C2B15222   3.009   9.774   5.981
  293POPC   C2C15223   2.973   9.911   5.925
  293POPC   C2D15224   2.940   9.902   5.776
  293POPC   C2E15225   2.938  10.042   5.714
  293POPC   C2F15226   2.887  10.045   5.570
  293POPC   C2G15227   2.735  10.023   5.563
  293POPC   C2H15228   2.683  10.042   5.420
  293POPC   C2I15229   2.692  10.188   5.374
  293POPC   C2J15230   2.659  10.205   5.225
  293POPC   C2K15231   2.765  10.139   5.136
  293POPC   C2L15232   2.742  10.163   4.987
  293POPC   C2M15233   2.615  10.095   4.935
  293POPC   C2N15234   2.596  10.116   4.784
  293POPC   C2O15235   2.703  10.044   4.701
  293POPC   C2P15236   2.680  10.067   4.552
  294POPC   CN115237   4.347  10.297   6.793
  294POPC   CN215238   4.581  10.306   6.750
  294POPC   CN315239   4.500  10.164   6.921
  294POPC   NTM15240   4.471  10.217   6.787
  294POPC    CA15241   4.463  10.110   6.685
  294POPC    CB15242   4.357   9.997   6.694
  294POPC    OA15243   4.362   9.919   6.813
  294POPC     P15244   4.298   9.777   6.796
  294POPC    OB15245   4.334   9.726   6.663
  294POPC    OC15246   4.321   9.698   6.918
  294POPC    OD15247   4.147   9.817   6.794
  294POPC    CC15248   4.072   9.707   6.742
  294POPC    CD15249   3.938   9.742   6.676
  294POPC    OE15250   3.871   9.621   6.628
  294POPC   C1A15251   3.747   9.632   6.579
  294POPC    OF15252   3.676   9.725   6.618
  294POPC   C1B15253   3.701   9.515   6.502
  294POPC   C1C15254   3.758   9.518   6.359
  294POPC   C1D15255   3.705   9.404   6.272
  294POPC   C1E15256   3.781   9.402   6.139
  294POPC   C1F15257   3.720   9.303   6.040
  294POPC   C1G15258   3.809   9.292   5.915
  294POPC   C1H15259   3.741   9.212   5.804
  294POPC   C1I15260   3.837   9.190   5.687
  294POPC   C1J15261   3.795   9.201   5.561
  294POPC   C1K15262   3.651   9.241   5.530
  294POPC   C1L15263   3.642   9.314   5.395
  294POPC   C1M15264   3.498   9.355   5.363
  294POPC   C1N15265   3.486   9.422   5.226
  294POPC   C1O15266   3.514   9.322   5.113
  294POPC   C1P15267   3.507   9.384   4.973
  294POPC   C1Q15268   3.364   9.422   4.933
  294POPC   C1R15269   3.361   9.467   4.787
  294POPC    CE15270   3.970   9.848   6.569
  294POPC    OG15271   4.053   9.800   6.462
  294POPC   C2A15272   4.107   9.888   6.378
  294POPC    OH15273   4.106  10.008   6.403
  294POPC   C2B15274   4.177   9.823   6.265
  294POPC   C2C15275   4.087   9.805   6.143
  294POPC   C2D15276   4.151   9.709   6.043
  294POPC   C2E15277   4.069   9.695   5.914
  294POPC   C2F15278   4.118   9.573   5.835
  294POPC   C2G15279   4.048   9.554   5.701
  294POPC   C2H15280   4.109   9.640   5.590
  294POPC   C2I15281   4.056   9.603   5.450
  294POPC   C2J15282   4.084   9.457   5.415
  294POPC   C2K15283   4.048   9.421   5.270
  294POPC   C2L15284   4.153   9.472   5.172
  294POPC   C2M15285   4.127   9.422   5.030
  294POPC   C2N15286   4.237   9.468   4.934
  294POPC   C2O15287   4.215   9.420   4.790
  294POPC   C2P15288   4.232   9.269   4.775
  295POPC   CN115289   5.368  10.496   6.542
  295POPC   CN215290   5.237  10.633   6.399
  295POPC   CN315291   5.179  10.606   6.631
  295POPC   NTM15292   5.290  10.620   6.536
  295POPC    CA15293   5.378  10.734   6.571
  295POPC    CB15294   5.323  10.879   6.564
  295POPC    OA15295   5.210  10.907   6.648
  295POPC     P15296   5.135  11.038   6.603
  295POPC    OB15297   5.045  11.063   6.716
  295POPC    OC15298   5.238  11.134   6.558
  295POPC    OD15299   5.057  10.973   6.482
  295POPC    CC15300   4.937  10.909   6.525
  295POPC    CD15301   4.834  10.869   6.417
  295POPC    OE15302   4.865  10.749   6.342
  295POPC   C1A15303   4.809  10.635   6.382
  295POPC    OF15304   4.779  10.617   6.500
  295POPC   C1B15305   4.810  10.532   6.276
  295POPC   C1C15306   4.668  10.503   6.227
  295POPC   C1D15307   4.667  10.445   6.085
  295POPC   C1E15308   4.691  10.557   5.983
  295POPC   C1F15309   4.700  10.506   5.839
  295POPC   C1G15310   4.569  10.448   5.783
  295POPC   C1H15311   4.580  10.414   5.634
  295POPC   C1I15312   4.680  10.301   5.606
  295POPC   C1J15313   4.668  10.224   5.499
  295POPC   C1K15314   4.555  10.246   5.398
  295POPC   C1L15315   4.497  10.112   5.354
  295POPC   C1M15316   4.397  10.130   5.240
  295POPC   C1N15317   4.330   9.997   5.208
  295POPC   C1O15318   4.244  10.007   5.082
  295POPC   C1P15319   4.174   9.873   5.054
  295POPC   C1Q15320   4.107   9.871   4.917
  295POPC   C1R15321   4.210   9.868   4.804
  295POPC    CE15322   4.808  10.995   6.333
  295POPC    OG15323   4.699  10.982   6.239
  295POPC   C2A15324   4.703  11.061   6.133
  295POPC    OH15325   4.805  11.125   6.105
  295POPC   C2B15326   4.586  11.047   6.043
  295POPC   C2C15327   4.621  10.961   5.922
  295POPC   C2D15328   4.516  10.972   5.812
  295POPC   C2E15329   4.563  10.897   5.687
  295POPC   C2F15330   4.475  10.926   5.566
  295POPC   C2G15331   4.533  10.856   5.443
  295POPC   C2H15332   4.459  10.894   5.314
  295POPC   C2I15333   4.526  10.827   5.194
  295POPC   C2J15334   4.459  10.870   5.062
  295POPC   C2K15335   4.522  10.802   4.940
  295POPC   C2L15336   4.503  10.650   4.940
  295POPC   C2M15337   4.557  10.583   4.814
  295POPC   C2N15338   4.475  10.616   4.689
  295POPC   C2O15339   4.530  10.542   4.567
  295POPC   C2P15340   4.446  10.570   4.442
  296POPC   CN115341   5.866   9.818   6.394
  296POPC   CN215342   5.892  10.055   6.384
  296POPC   CN315343   5.830   9.950   6.588
  296POPC   NTM15344   5.914   9.936   6.468
  296POPC    CA15345   6.056   9.923   6.508
  296POPC    CB15346   6.168   9.920   6.400
  296POPC    OA15347   6.149   9.820   6.301
  296POPC     P15348   6.249   9.827   6.181
  296POPC    OB15349   6.379   9.869   6.234
  296POPC    OC15350   6.231   9.698   6.114
  296POPC    OD15351   6.176   9.945   6.106
  296POPC    CC15352   6.076   9.899   6.014
  296POPC    CD15353   5.982  10.010   5.963
  296POPC    OE15354   5.866   9.962   5.890
  296POPC   C1A15355   5.756   9.922   5.953
  296POPC    OF15356   5.745   9.935   6.076
  296POPC   C1B15357   5.649   9.881   5.860
  296POPC   C1C15358   5.551   9.995   5.834
  296POPC   C1D15359   5.460   9.967   5.715
  296POPC   C1E15360   5.538   9.973   5.583
  296POPC   C1F15361   5.454   9.934   5.461
  296POPC   C1G15362   5.415   9.787   5.462
  296POPC   C1H15363   5.353   9.747   5.328
  296POPC   C1I15364   5.321   9.597   5.324
  296POPC   C1J15365   5.345   9.528   5.213
  296POPC   C1K15366   5.406   9.599   5.092
  296POPC   C1L15367   5.495   9.504   5.013
  296POPC   C1M15368   5.563   9.568   4.892
  296POPC   C1N15369   5.656   9.685   4.929
  296POPC   C1O15370   5.758   9.716   4.820
  296POPC   C1P15371   5.695   9.762   4.688
  296POPC   C1Q15372   5.803   9.784   4.582
  296POPC   C1R15373   5.741   9.822   4.448
  296POPC    CE15374   6.067  10.112   5.887
  296POPC    OG15375   6.142  10.064   5.774
  296POPC   C2A15376   6.209  10.155   5.704
  296POPC    OH15377   6.213  10.273   5.738
  296POPC   C2B15378   6.282  10.095   5.589
  296POPC   C2C15379   6.293  10.191   5.471
  296POPC   C2D15380   6.379  10.130   5.360
  296POPC   C2E15381   6.402  10.229   5.245
  296POPC   C2F15382   6.276  10.253   5.161
  296POPC   C2G15383   6.302  10.365   5.060
  296POPC   C2H15384   6.182  10.391   4.969
  296POPC   C2I15385   6.165  10.284   4.861
  296POPC   C2J15386   6.049  10.322   4.768
  296POPC   C2K15387   6.039  10.227   4.649
  296POPC   C2L15388   5.926  10.271   4.556
  296POPC   C2M15389   5.928  10.191   4.426
  296POPC   C2N15390   5.820  10.242   4.330
  296POPC   C2O15391   5.825  10.172   4.194
  296POPC   C2P15392   5.951  10.208   4.114
  297POPC   CN115393   6.379  10.584   5.868
  297POPC   CN215394   6.237  10.774   5.859
  297POPC   CN315395   6.139  10.556   5.867
  297POPC   NTM15396   6.251  10.639   5.915
  297POPC    CA15397   6.249  10.653   6.063
  297POPC    CB15398   6.247  10.529   6.155
  297POPC    OA15399   6.352  10.434   6.136
  297POPC     P15400   6.309  10.294   6.191
  297POPC    OB15401   6.316  10.302   6.337
  297POPC    OC15402   6.183  10.264   6.124
  297POPC    OD15403   6.432  10.212   6.136
  297POPC    CC15404   6.420  10.197   5.994
  297POPC    CD15405   6.545  10.141   5.925
  297POPC    OE15406   6.564  10.187   5.789
  297POPC   C1A15407   6.621  10.305   5.768
  297POPC    OF15408   6.665  10.371   5.863
  297POPC   C1B15409   6.629  10.343   5.625
  297POPC   C1C15410   6.756  10.422   5.593
  297POPC   C1D15411   6.761  10.456   5.444
  297POPC   C1E15412   6.890  10.531   5.409
  297POPC   C1F15413   6.900  10.563   5.260
  297POPC   C1G15414   6.794  10.664   5.215
  297POPC   C1H15415   6.804  10.688   5.065
  297POPC   C1I15416   6.699  10.790   5.020
  297POPC   C1J15417   6.638  10.774   4.902
  297POPC   C1K15418   6.676  10.655   4.814
  297POPC   C1L15419   6.554  10.580   4.759
  297POPC   C1M15420   6.474  10.660   4.656
  297POPC   C1N15421   6.367  10.572   4.592
  297POPC   C1O15422   6.283  10.650   4.490
  297POPC   C1P15423   6.186  10.555   4.419
  297POPC   C1Q15424   6.093  10.628   4.321
  297POPC   C1R15425   5.990  10.716   4.393
  297POPC    CE15426   6.550   9.989   5.950
  297POPC    OG15427   6.444   9.911   5.895
  297POPC   C2A15428   6.464   9.779   5.890
  297POPC    OH15429   6.560   9.727   5.948
  297POPC   C2B15430   6.362   9.707   5.811
  297POPC   C2C15431   6.384   9.726   5.661
  297POPC   C2D15432   6.508   9.654   5.606
  297POPC   C2E15433   6.550   9.705   5.468
  297POPC   C2F15434   6.438   9.696   5.364
  297POPC   C2G15435   6.480   9.753   5.229
  297POPC   C2H15436   6.357   9.768   5.139
  297POPC   C2I15437   6.393   9.815   4.999
  297POPC   C2J15438   6.265   9.835   4.917
  297POPC   C2K15439   6.292   9.869   4.770
  297POPC   C2L15440   6.354   9.751   4.694
  297POPC   C2M15441   6.368   9.779   4.544
  297POPC   C2N15442   6.231   9.792   4.475
  297POPC   C2O15443   6.243   9.815   4.324
  297POPC   C2P15444   6.298   9.691   4.251
  298POPC   CN115445   7.480  10.277   6.934
  298POPC   CN215446   7.275  10.265   6.817
  298POPC   CN315447   7.298  10.413   7.001
  298POPC   NTM15448   7.367  10.357   6.884
  298POPC    CA15449   7.407  10.470   6.796
  298POPC    CB15450   7.478  10.445   6.661
  298POPC    OA15451   7.598  10.369   6.673
  298POPC     P15452   7.662  10.331   6.534
  298POPC    OB15453   7.688  10.456   6.461
  298POPC    OC15454   7.767  10.236   6.570
  298POPC    OD15455   7.547  10.252   6.465
  298POPC    CC15456   7.600  10.176   6.357
  298POPC    CD15457   7.493  10.109   6.269
  298POPC    OE15458   7.542   9.991   6.199
  298POPC   C1A15459   7.551   9.875   6.264
  298POPC    OF15460   7.490   9.858   6.370
  298POPC   C1B15461   7.625   9.772   6.188
  298POPC   C1C15462   7.532   9.687   6.101
  298POPC   C1D15463   7.615   9.588   6.020
  298POPC   C1E15464   7.527   9.492   5.940
  298POPC   C1F15465   7.609   9.384   5.870
  298POPC   C1G15466   7.694   9.440   5.756
  298POPC   C1H15467   7.773   9.331   5.681
  298POPC   C1I15468   7.682   9.235   5.603
  298POPC   C1J15469   7.722   9.187   5.486
  298POPC   C1K15470   7.859   9.228   5.431
  298POPC   C1L15471   7.854   9.241   5.278
  298POPC   C1M15472   7.988   9.293   5.225
  298POPC   C1N15473   7.981   9.313   5.073
  298POPC   C1O15474   8.110   9.373   5.020
  298POPC   C1P15475   8.100   9.396   4.869
  298POPC   C1Q15476   8.226   9.462   4.814
  298POPC   C1R15477   8.214   9.486   4.664
  298POPC    CE15478   7.431  10.220   6.182
  298POPC    OG15479   7.524  10.295   6.101
  298POPC   C2A15480   7.469  10.373   6.008
  298POPC    OH15481   7.349  10.400   6.011
  298POPC   C2B15482   7.567  10.435   5.916
  298POPC   C2C15483   7.616  10.334   5.812
  298POPC   C2D15484   7.696  10.400   5.700
  298POPC   C2E15485   7.747  10.294   5.602
  298POPC   C2F15486   7.793  10.355   5.470
  298POPC   C2G15487   7.832  10.243   5.372
  298POPC   C2H15488   7.826  10.288   5.226
  298POPC   C2I15489   7.935  10.387   5.186
  298POPC   C2J15490   7.911  10.436   5.043
  298POPC   C2K15491   8.023  10.529   4.996
  298POPC   C2L15492   7.993  10.597   4.862
  298POPC   C2M15493   7.987  10.499   4.744
  298POPC   C2N15494   7.960  10.575   4.614
  298POPC   C2O15495   7.952  10.479   4.495
  298POPC   C2P15496   7.928  10.556   4.365
  299POPC   CN115497   8.242   9.980   6.527
  299POPC   CN215498   8.007  10.003   6.490
  299POPC   CN315499   8.087   9.886   6.679
  299POPC   NTM15500   8.112  10.001   6.592
  299POPC    CA15501   8.113  10.125   6.674
  299POPC    CB15502   8.119  10.264   6.606
  299POPC    OA15503   8.220  10.277   6.506
  299POPC     P15504   8.228  10.420   6.442
  299POPC    OB15505   8.225  10.515   6.556
  299POPC    OC15506   8.342  10.413   6.350
  299POPC    OD15507   8.091  10.416   6.366
  299POPC    CC15508   8.099  10.350   6.240
  299POPC    CD15509   7.962  10.320   6.177
  299POPC    OE15510   7.967  10.233   6.060
  299POPC   C1A15511   7.975  10.101   6.075
  299POPC    OF15512   7.985  10.050   6.187
  299POPC   C1B15513   7.978  10.026   5.948
  299POPC   C1C15514   7.837   9.994   5.898
  299POPC   C1D15515   7.836   9.889   5.786
  299POPC   C1E15516   7.913   9.931   5.661
  299POPC   C1F15517   7.900   9.824   5.552
  299POPC   C1G15518   7.991   9.856   5.433
  299POPC   C1H15519   7.975   9.753   5.321
  299POPC   C1I15520   8.089   9.763   5.221
  299POPC   C1J15521   8.079   9.821   5.101
  299POPC   C1K15522   7.948   9.879   5.048
  299POPC   C1L15523   7.947   9.872   4.895
  299POPC   C1M15524   7.818   9.926   4.833
  299POPC   C1N15525   7.801  10.077   4.853
  299POPC   C1O15526   7.675  10.127   4.781
  299POPC   C1P15527   7.657  10.277   4.801
  299POPC   C1Q15528   7.535  10.332   4.727
  299POPC   C1R15529   7.551  10.326   4.575
  299POPC    CE15530   7.893  10.455   6.154
  299POPC    OG15531   7.951  10.540   6.053
  299POPC   C2A15532   7.878  10.645   6.014
  299POPC    OH15533   7.774  10.675   6.072
  299POPC   C2B15534   7.936  10.722   5.901
  299POPC   C2C15535   7.994  10.637   5.788
  299POPC   C2D15536   8.056  10.725   5.681
  299POPC   C2E15537   8.112  10.643   5.564
  299POPC   C2F15538   8.171  10.737   5.459
  299POPC   C2G15539   8.227  10.659   5.339
  299POPC   C2H15540   8.281  10.750   5.229
  299POPC   C2I15541   8.172  10.840   5.170
  299POPC   C2J15542   8.213  10.902   5.036
  299POPC   C2K15543   8.093  10.976   4.978
  299POPC   C2L15544   8.109  11.010   4.830
  299POPC   C2M15545   7.978  11.071   4.780
  299POPC   C2N15546   7.974  11.082   4.627
  299POPC   C2O15547   7.837  11.134   4.583
  299POPC   C2P15548   7.822  11.131   4.431
  300POPC   CN115549   8.666   9.979   6.218
  300POPC   CN215550   8.607  10.123   6.038
  300POPC   CN315551   8.440   9.999   6.150
  300POPC   NTM15552   8.565  10.074   6.169
  300POPC    CA15553   8.539  10.182   6.267
  300POPC    CB15554   8.647  10.290   6.295
  300POPC    OA15555   8.777  10.243   6.337
  300POPC     P15556   8.890  10.345   6.295
  300POPC    OB15557   8.842  10.484   6.311
  300POPC    OC15558   9.020  10.298   6.344
  300POPC    OD15559   8.888  10.310   6.143
  300POPC    CC15560   8.981  10.392   6.072
  300POPC    CD15561   9.027  10.333   5.937
  300POPC    OE15562   9.129  10.410   5.868
  300POPC   C1A15563   9.256  10.407   5.908
  300POPC    OF15564   9.290  10.344   6.008
  300POPC   C1B15565   9.344  10.495   5.828
  300POPC   C1C15566   9.405  10.424   5.707
  300POPC   C1D15567   9.464  10.528   5.612
  300POPC   C1E15568   9.528  10.463   5.489
  300POPC   C1F15569   9.557  10.569   5.382
  300POPC   C1G15570   9.634  10.509   5.265
  300POPC   C1H15571   9.648  10.608   5.150
  300POPC   C1I15572   9.738  10.549   5.040
  300POPC   C1J15573   9.716  10.573   4.911
  300POPC   C1K15574   9.599  10.660   4.865
  300POPC   C1L15575   9.546  10.610   4.730
  300POPC   C1M15576   9.431  10.696   4.676
  300POPC   C1N15577   9.479  10.833   4.628
  300POPC   C1O15578   9.362  10.915   4.572
  300POPC   C1P15579   9.408  11.050   4.515
  300POPC   C1Q15580   9.491  11.037   4.387
  300POPC   C1R15581   9.409  10.989   4.267
  300POPC    CE15582   8.899  10.309   5.855
  300POPC    OG15583   8.816  10.425   5.834
  300POPC   C2A15584   8.697  10.405   5.778
  300POPC    OH15585   8.647  10.292   5.776
  300POPC   C2B15586   8.628  10.531   5.744
  300POPC   C2C15587   8.568  10.531   5.603
  300POPC   C2D15588   8.677  10.537   5.496
  300POPC   C2E15589   8.615  10.540   5.357
  300POPC   C2F15590   8.724  10.561   5.252
  300POPC   C2G15591   8.664  10.573   5.112
  300POPC   C2H15592   8.774  10.604   5.011
  300POPC   C2I15593   8.721  10.621   4.868
  300POPC   C2J15594   8.627  10.741   4.854
  300POPC   C2K15595   8.580  10.760   4.709
  300POPC   C2L15596   8.496  10.641   4.660
  300POPC   C2M15597   8.463  10.656   4.511
  300POPC   C2N15598   8.392  10.531   4.460
  300POPC   C2O15599   8.365  10.542   4.310
  300POPC   C2P15600   8.298  10.414   4.259
  301POPC   CN115601  10.198  10.230   6.691
  301POPC   CN215602  10.267  10.440   6.775
  301POPC   CN315603  10.398  10.333   6.609
  301POPC   NTM15604  10.260  10.358   6.654
  301POPC    CA15605  10.183  10.432   6.552
  301POPC    CB15606  10.160  10.371   6.411
  301POPC    OA15607  10.077  10.255   6.405
  301POPC     P15608  10.099  10.187   6.265
  301POPC    OB15609  10.072  10.288   6.162
  301POPC    OC15610  10.231  10.122   6.277
  301POPC    OD15611   9.981  10.084   6.270
  301POPC    CC15612  10.026   9.952   6.239
  301POPC    CD15613   9.928   9.864   6.158
  301POPC    OE15614   9.988   9.736   6.124
  301POPC   C1A15615   9.908   9.634   6.091
  301POPC    OF15616   9.788   9.637   6.118
  301POPC   C1B15617   9.981   9.515   6.042
  301POPC   C1C15618  10.024   9.526   5.895
  301POPC   C1D15619   9.905   9.546   5.800
  301POPC   C1E15620   9.952   9.558   5.655
  301POPC   C1F15621   9.836   9.598   5.564
  301POPC   C1G15622   9.883   9.611   5.419
  301POPC   C1H15623   9.772   9.669   5.331
  301POPC   C1I15624   9.825   9.691   5.189
  301POPC   C1J15625   9.741   9.697   5.086
  301POPC   C1K15626   9.590   9.685   5.109
  301POPC   C1L15627   9.518   9.617   4.992
  301POPC   C1M15628   9.518   9.703   4.865
  301POPC   C1N15629   9.442   9.632   4.753
  301POPC   C1O15630   9.443   9.711   4.622
  301POPC   C1P15631   9.583   9.718   4.559
  301POPC   C1Q15632   9.584   9.793   4.426
  301POPC   C1R15633   9.506   9.719   4.316
  301POPC    CE15634   9.881   9.950   6.038
  301POPC    OG15635   9.984  10.023   5.969
  301POPC   C2A15636   9.949  10.138   5.911
  301POPC    OH15637   9.834  10.181   5.919
  301POPC   C2B15638  10.064  10.209   5.851
  301POPC   C2C15639  10.029  10.293   5.728
  301POPC   C2D15640  10.154  10.370   5.683
  301POPC   C2E15641  10.133  10.452   5.555
  301POPC   C2F15642  10.114  10.363   5.432
  301POPC   C2G15643  10.115  10.447   5.304
  301POPC   C2H15644  10.095  10.359   5.181
  301POPC   C2I15645  10.107  10.440   5.052
  301POPC   C2J15646  10.082  10.352   4.930
  301POPC   C2K15647  10.091  10.431   4.798
  301POPC   C2L15648  10.233  10.477   4.764
  301POPC   C2M15649  10.325  10.364   4.716
  301POPC   C2N15650  10.285  10.314   4.577
  301POPC   C2O15651  10.381  10.204   4.529
  301POPC   C2P15652  10.342  10.155   4.390
  302POPC   CN115653  11.606  11.257   6.166
  302POPC   CN215654  11.694  11.052   6.246
  302POPC   CN315655  11.588  11.205   6.397
  302POPC   NTM15656  11.584  11.148   6.262
  302POPC    CA15657  11.451  11.088   6.233
  302POPC    CB15658  11.394  10.974   6.320
  302POPC    OA15659  11.478  10.859   6.328
  302POPC     P15660  11.412  10.737   6.402
  302POPC    OB15661  11.522  10.645   6.430
  302POPC    OC15662  11.335  10.791   6.516
  302POPC    OD15663  11.319  10.686   6.287
  302POPC    CC15664  11.390  10.623   6.181
  302POPC    CD15665  11.309  10.611   6.051
  302POPC    OE15666  11.387  10.544   5.948
  302POPC   C1A15667  11.357  10.419   5.915
  302POPC    OF15668  11.278  10.353   5.983
  302POPC   C1B15669  11.441  10.366   5.804
  302POPC   C1C15670  11.360  10.286   5.701
  302POPC   C1D15671  11.270  10.373   5.614
  302POPC   C1E15672  11.350  10.461   5.518
  302POPC   C1F15673  11.261  10.550   5.431
  302POPC   C1G15674  11.178  10.472   5.329
  302POPC   C1H15675  11.262  10.413   5.215
  302POPC   C1I15676  11.171  10.330   5.124
  302POPC   C1J15677  11.196  10.312   4.995
  302POPC   C1K15678  11.318  10.370   4.923
  302POPC   C1L15679  11.320  10.316   4.780
  302POPC   C1M15680  11.430  10.377   4.693
  302POPC   C1N15681  11.409  10.334   4.548
  302POPC   C1O15682  11.513  10.392   4.453
  302POPC   C1P15683  11.480  10.350   4.309
  302POPC   C1Q15684  11.581  10.402   4.206
  302POPC   C1R15685  11.718  10.335   4.220
  302POPC    CE15686  11.266  10.754   6.013
  302POPC    OG15687  11.158  10.766   5.919
  302POPC   C2A15688  11.137  10.889   5.872
  302POPC    OH15689  11.223  10.977   5.881
  302POPC   C2B15690  11.011  10.901   5.796
  302POPC   C2C15691  11.031  10.904   5.645
  302POPC   C2D15692  10.895  10.922   5.577
  302POPC   C2E15693  10.904  10.952   5.427
  302POPC   C2F15694  10.949  10.833   5.342
  302POPC   C2G15695  10.953  10.875   5.194
  302POPC   C2H15696  10.995  10.760   5.102
  302POPC   C2I15697  11.006  10.811   4.958
  302POPC   C2J15698  11.059  10.703   4.864
  302POPC   C2K15699  11.089  10.763   4.726
  302POPC   C2L15700  11.160  10.661   4.637
  302POPC   C2M15701  11.212  10.725   4.507
  302POPC   C2N15702  11.101  10.758   4.407
  302POPC   C2O15703  11.048  10.634   4.333
  302POPC   C2P15704  11.149  10.578   4.233
  303POPC   CN115705  13.097  10.810   6.212
  303POPC   CN215706  13.006  11.007   6.114
  303POPC   CN315707  12.903  10.908   6.307
  303POPC   NTM15708  13.031  10.938   6.241
  303POPC    CA15709  13.123  11.018   6.326
  303POPC    CB15710  13.077  11.156   6.380
  303POPC    OA15711  12.973  11.150   6.478
  303POPC     P15712  12.897  11.286   6.497
  303POPC    OB15713  12.805  11.261   6.609
  303POPC    OC15714  13.005  11.385   6.510
  303POPC    OD15715  12.824  11.292   6.359
  303POPC    CC15716  12.696  11.230   6.363
  303POPC    CD15717  12.615  11.238   6.232
  303POPC    OE15718  12.669  11.158   6.123
  303POPC   C1A15719  12.619  11.036   6.105
  303POPC    OF15720  12.573  10.974   6.201
  303POPC   C1B15721  12.658  10.978   5.974
  303POPC   C1C15722  12.569  11.031   5.861
  303POPC   C1D15723  12.623  10.989   5.724
  303POPC   C1E15724  12.536  11.048   5.613
  303POPC   C1F15725  12.592  11.014   5.475
  303POPC   C1G15726  12.502  11.070   5.365
  303POPC   C1H15727  12.557  11.037   5.226
  303POPC   C1I15728  12.460  11.083   5.117
  303POPC   C1J15729  12.506  11.117   4.996
  303POPC   C1K15730  12.655  11.110   4.965
  303POPC   C1L15731  12.693  11.215   4.861
  303POPC   C1M15732  12.843  11.211   4.831
  303POPC   C1N15733  12.883  11.319   4.729
  303POPC   C1O15734  12.828  11.290   4.588
  303POPC   C1P15735  12.853  11.405   4.491
  303POPC   C1Q15736  13.002  11.429   4.462
  303POPC   C1R15737  13.019  11.546   4.366
  303POPC    CE15738  12.600  11.388   6.200
  303POPC    OG15739  12.486  11.418   6.116
  303POPC   C2A15740  12.471  11.544   6.077
  303POPC    OH15741  12.551  11.632   6.108
  303POPC   C2B15742  12.350  11.563   5.994
  303POPC   C2C15743  12.379  11.546   5.845
  303POPC   C2D15744  12.253  11.578   5.764
  303POPC   C2E15745  12.278  11.571   5.614
  303POPC   C2F15746  12.154  11.623   5.540
  303POPC   C2G15747  12.174  11.628   5.389
  303POPC   C2H15748  12.059  11.705   5.321
  303POPC   C2I15749  12.065  11.854   5.356
  303POPC   C2J15750  11.940  11.932   5.314
  303POPC   C2K15751  11.923  11.943   5.163
  303POPC   C2L15752  11.801  12.029   5.131
  303POPC   C2M15753  11.779  12.044   4.980
  303POPC   C2N15754  11.660  12.135   4.948
  303POPC   C2O15755  11.526  12.076   4.994
  303POPC   C2P15756  11.410  12.170   4.962
  304POPC   CN115757  13.588  10.602   6.532
  304POPC   CN215758  13.682  10.615   6.748
  304POPC   CN315759  13.806  10.700   6.565
  304POPC   NTM15760  13.671  10.686   6.621
  304POPC    CA15761  13.606  10.818   6.644
  304POPC    CB15762  13.599  10.922   6.530
  304POPC    OA15763  13.547  10.874   6.406
  304POPC     P15764  13.546  10.988   6.299
  304POPC    OB15765  13.450  11.085   6.352
  304POPC    OC15766  13.689  11.016   6.280
  304POPC    OD15767  13.484  10.903   6.181
  304POPC    CC15768  13.580  10.817   6.120
  304POPC    CD15769  13.548  10.667   6.133
  304POPC    OE15770  13.659  10.581   6.094
  304POPC   C1A15771  13.653  10.451   6.123
  304POPC    OF15772  13.574  10.409   6.209
  304POPC   C1B15773  13.758  10.370   6.057
  304POPC   C1C15774  13.701  10.268   5.959
  304POPC   C1D15775  13.639  10.334   5.835
  304POPC   C1E15776  13.572  10.229   5.746
  304POPC   C1F15777  13.515  10.292   5.619
  304POPC   C1G15778  13.438  10.186   5.540
  304POPC   C1H15779  13.381  10.240   5.409
  304POPC   C1I15780  13.290  10.133   5.347
  304POPC   C1J15781  13.282  10.114   5.216
  304POPC   C1K15782  13.362  10.199   5.117
  304POPC   C1L15783  13.311  10.183   4.973
  304POPC   C1M15784  13.170  10.239   4.951
  304POPC   C1N15785  13.121  10.221   4.807
  304POPC   C1O15786  13.201  10.305   4.707
  304POPC   C1P15787  13.150  10.281   4.565
  304POPC   C1Q15788  13.231  10.364   4.465
  304POPC   C1R15789  13.181  10.339   4.322
  304POPC    CE15790  13.413  10.648   6.062
  304POPC    OG15791  13.410  10.669   5.920
  304POPC   C2A15792  13.291  10.692   5.865
  304POPC    OH15793  13.194  10.721   5.934
  304POPC   C2B15794  13.293  10.686   5.717
  304POPC   C2C15795  13.328  10.819   5.648
  304POPC   C2D15796  13.225  10.930   5.670
  304POPC   C2E15797  13.250  11.049   5.577
  304POPC   C2F15798  13.216  11.012   5.432
  304POPC   C2G15799  13.262  11.118   5.332
  304POPC   C2H15800  13.233  11.071   5.189
  304POPC   C2I15801  13.304  11.155   5.084
  304POPC   C2J15802  13.248  11.297   5.071
  304POPC   C2K15803  13.331  11.383   4.975
  304POPC   C2L15804  13.325  11.334   4.830
  304POPC   C2M15805  13.416  11.417   4.738
  304POPC   C2N15806  13.565  11.398   4.773
  304POPC   C2O15807  13.658  11.480   4.683
  304POPC   C2P15808  13.660  11.429   4.538
  305POPC   CN115809  14.506  11.072   6.762
  305POPC   CN215810  14.635  10.892   6.677
  305POPC   CN315811  14.396  10.877   6.687
  305POPC   NTM15812  14.510  10.967   6.660
  305POPC    CA15813  14.500  11.032   6.528
  305POPC    CB15814  14.510  10.949   6.397
  305POPC    OA15815  14.413  10.845   6.381
  305POPC     P15816  14.460  10.739   6.273
  305POPC    OB15817  14.606  10.725   6.285
  305POPC    OC15818  14.372  10.623   6.292
  305POPC    OD15819  14.425  10.814   6.141
  305POPC    CC15820  14.286  10.811   6.108
  305POPC    CD15821  14.253  10.839   5.960
  305POPC    OE15822  14.279  10.728   5.869
  305POPC   C1A15823  14.192  10.628   5.859
  305POPC    OF15824  14.104  10.608   5.944
  305POPC   C1B15825  14.221  10.538   5.745
  305POPC   C1C15826  14.140  10.581   5.622
  305POPC   C1D15827  14.163  10.487   5.504
  305POPC   C1E15828  14.069  10.518   5.387
  305POPC   C1F15829  14.104  10.650   5.316
  305POPC   C1G15830  14.006  10.683   5.202
  305POPC   C1H15831  14.005  10.576   5.092
  305POPC   C1I15832  13.911  10.614   4.978
  305POPC   C1J15833  13.837  10.520   4.920
  305POPC   C1K15834  13.842  10.376   4.972
  305POPC   C1L15835  13.725  10.289   4.925
  305POPC   C1M15836  13.738  10.250   4.777
  305POPC   C1N15837  13.623  10.159   4.734
  305POPC   C1O15838  13.638  10.117   4.588
  305POPC   C1P15839  13.524  10.024   4.546
  305POPC   C1Q15840  13.537   9.975   4.401
  305POPC   C1R15841  13.518  10.088   4.299
  305POPC    CE15842  14.321  10.973   5.923
  305POPC    OG15843  14.312  11.009   5.784
  305POPC   C2A15844  14.419  10.985   5.709
  305POPC    OH15845  14.529  10.961   5.758
  305POPC   C2B15846  14.396  11.003   5.564
  305POPC   C2C15847  14.400  11.150   5.523
  305POPC   C2D15848  14.388  11.170   5.371
  305POPC   C2E15849  14.263  11.107   5.312
  305POPC   C2F15850  14.240  11.151   5.167
  305POPC   C2G15851  14.127  11.069   5.105
  305POPC   C2H15852  14.075  11.134   4.977
  305POPC   C2I15853  13.975  11.042   4.907
  305POPC   C2J15854  13.900  11.117   4.796
  305POPC   C2K15855  13.818  11.023   4.706
  305POPC   C2L15856  13.712  10.943   4.781
  305POPC   C2M15857  13.641  10.848   4.685
  305POPC   C2N15858  13.545  10.755   4.759
  305POPC   C2O15859  13.474  10.657   4.664
  305POPC   C2P15860  13.570  10.559   4.597
  306POPC   CN115861  15.840  11.835   6.218
  306POPC   CN215862  15.751  11.908   6.426
  306POPC   CN315863  15.826  12.068   6.268
  306POPC   NTM15864  15.759  11.939   6.283
  306POPC    CA15865  15.624  11.951   6.223
  306POPC    CB15866  15.535  11.826   6.202
  306POPC    OA15867  15.519  11.741   6.315
  306POPC     P15868  15.422  11.622   6.284
  306POPC    OB15869  15.416  11.549   6.411
  306POPC    OC15870  15.301  11.677   6.223
  306POPC    OD15871  15.505  11.542   6.178
  306POPC    CC15872  15.612  11.466   6.234
  306POPC    CD15873  15.706  11.404   6.128
  306POPC    OE15874  15.794  11.502   6.066
  306POPC   C1A15875  15.921  11.467   6.044
  306POPC    OF15876  15.973  11.377   6.110
  306POPC   C1B15877  15.993  11.563   5.958
  306POPC   C1C15878  15.993  11.515   5.813
  306POPC   C1D15879  16.049  11.621   5.718
  306POPC   C1E15880  16.039  11.572   5.573
  306POPC   C1F15881  16.072  11.685   5.475
  306POPC   C1G15882  16.043  11.643   5.331
  306POPC   C1H15883  16.055  11.763   5.237
  306POPC   C1I15884  16.018  11.724   5.094
  306POPC   C1J15885  16.051  11.802   4.991
  306POPC   C1K15886  16.124  11.934   5.015
  306POPC   C1L15887  16.206  11.974   4.892
  306POPC   C1M15888  16.286  12.103   4.914
  306POPC   C1N15889  16.395  12.083   5.019
  306POPC   C1O15890  16.474  12.212   5.044
  306POPC   C1P15891  16.579  12.194   5.155
  306POPC   C1Q15892  16.514  12.170   5.292
  306POPC   C1R15893  16.620  12.146   5.399
  306POPC    CE15894  15.610  11.327   6.034
  306POPC    OG15895  15.651  11.286   5.903
  306POPC   C2A15896  15.639  11.373   5.803
  306POPC    OH15897  15.600  11.489   5.822
  306POPC   C2B15898  15.667  11.310   5.671
  306POPC   C2C15899  15.686  11.408   5.554
  306POPC   C2D15900  15.556  11.477   5.512
  306POPC   C2E15901  15.579  11.580   5.401
  306POPC   C2F15902  15.601  11.514   5.264
  306POPC   C2G15903  15.628  11.623   5.160
  306POPC   C2H15904  15.634  11.568   5.017
  306POPC   C2I15905  15.673  11.683   4.925
  306POPC   C2J15906  15.669  11.648   4.776
  306POPC   C2K15907  15.716  11.771   4.699
  306POPC   C2L15908  15.689  11.764   4.549
  306POPC   C2M15909  15.730  11.898   4.487
  306POPC   C2N15910  15.683  11.913   4.342
  306POPC   C2O15911  15.720  12.052   4.291
  306POPC   C2P15912  15.669  12.074   4.148
  307POPC   CN115913  15.744  11.021   6.687
  307POPC   CN215914  15.547  11.017   6.816
  307POPC   CN315915  15.569  10.867   6.634
  307POPC   NTM15916  15.642  10.933   6.744
  307POPC    CA15917  15.699  10.834   6.839
  307POPC    CB15918  15.821  10.747   6.798
  307POPC    OA15919  15.810  10.681   6.673
  307POPC     P15920  15.936  10.597   6.636
  307POPC    OB15921  15.992  10.536   6.759
  307POPC    OC15922  15.905  10.513   6.520
  307POPC    OD15923  16.037  10.710   6.596
  307POPC    CC15924  16.021  10.752   6.461
  307POPC    CD15925  16.136  10.837   6.406
  307POPC    OE15926  16.112  10.870   6.267
  307POPC   C1A15927  16.172  10.977   6.214
  307POPC    OF15928  16.210  11.070   6.287
  307POPC   C1B15929  16.163  10.978   6.066
  307POPC   C1C15930  16.028  11.029   6.016
  307POPC   C1D15931  16.017  11.016   5.864
  307POPC   C1E15932  16.109  11.115   5.791
  307POPC   C1F15933  16.116  11.090   5.640
  307POPC   C1G15934  15.981  11.107   5.570
  307POPC   C1H15935  15.996  11.097   5.418
  307POPC   C1I15936  15.861  11.113   5.349
  307POPC   C1J15937  15.850  11.191   5.241
  307POPC   C1K15938  15.973  11.265   5.189
  307POPC   C1L15939  15.962  11.291   5.039
  307POPC   C1M15940  16.087  11.362   4.986
  307POPC   C1N15941  16.076  11.385   4.835
  307POPC   C1O15942  16.201  11.455   4.782
  307POPC   C1P15943  16.198  11.470   4.629
  307POPC   C1Q15944  16.093  11.569   4.579
  307POPC   C1R15945  16.131  11.714   4.608
  307POPC    CE15946  16.264  10.752   6.427
  307POPC    OG15947  16.384  10.809   6.372
  307POPC   C2A15948  16.490  10.730   6.361
  307POPC    OH15949  16.484  10.610   6.388
  307POPC   C2B15950  16.607  10.800   6.304
  307POPC   C2C15951  16.608  10.786   6.152
  307POPC   C2D15952  16.727  10.860   6.090
  307POPC   C2E15953  16.732  10.829   5.940
  307POPC   C2F15954  16.846  10.903   5.870
  307POPC   C2G15955  16.860  10.861   5.723
  307POPC   C2H15956  16.733  10.889   5.642
  307POPC   C2I15957  16.747  10.839   5.499
  307POPC   C2J15958  16.614  10.859   5.425
  307POPC   C2K15959  16.627  10.824   5.277
  307POPC   C2L15960  16.495  10.846   5.201
  307POPC   C2M15961  16.447  10.991   5.209
  307POPC   C2N15962  16.326  11.019   5.120
  307POPC   C2O15963  16.362  11.023   4.971
  307POPC   C2P15964  16.450  11.143   4.935
  308POPC   CN115965   0.341  10.516   7.366
  308POPC   CN215966   0.110  10.498   7.314
  308POPC   CN315967   0.219  10.709   7.294
  308POPC   NTM15968   0.235  10.564   7.275
  308POPC    CA15969   0.263  10.527   7.135
  308POPC    CB15970   0.391  10.577   7.063
  308POPC    OA15971   0.402  10.718   7.043
  308POPC     P15972   0.542  10.755   6.982
  308POPC    OB15973   0.546  10.902   6.971
  308POPC    OC15974   0.649  10.681   7.051
  308POPC    OD15975   0.530  10.694   6.838
  308POPC    CC15976   0.449  10.771   6.748
  308POPC    CD15977   0.497  10.752   6.604
  308POPC    OE15978   0.453  10.857   6.512
  308POPC   C1A15979   0.533  10.879   6.407
  308POPC    OF15980   0.652  10.848   6.414
  308POPC   C1B15981   0.475  10.967   6.303
  308POPC   C1C15982   0.447  10.888   6.176
  308POPC   C1D15983   0.407  10.978   6.059
  308POPC   C1E15984   0.525  11.064   6.013
  308POPC   C1F15985   0.487  11.149   5.892
  308POPC   C1G15986   0.605  11.236   5.849
  308POPC   C1H15987   0.572  11.312   5.721
  308POPC   C1I15988   0.693  11.391   5.672
  308POPC   C1J15989   0.674  11.496   5.593
  308POPC   C1K15990   0.531  11.534   5.555
  308POPC   C1L15991   0.521  11.685   5.529
  308POPC   C1M15992   0.377  11.725   5.499
  308POPC   C1N15993   0.365  11.875   5.470
  308POPC   C1O15994   0.431  11.913   5.337
  308POPC   C1P15995   0.416  12.063   5.310
  308POPC   C1Q15996   0.482  12.100   5.178
  308POPC   C1R15997   0.465  12.249   5.149
  308POPC    CE15998   0.466  10.605   6.566
  308POPC    OG15999   0.511  10.563   6.436
  308POPC   C2A16000   0.640  10.537   6.420
  308POPC    OH16001   0.711  10.505   6.515
  308POPC   C2B16002   0.684  10.542   6.278
  308POPC   C2C16003   0.655  10.417   6.195
  308POPC   C2D16004   0.689  10.448   6.049
  308POPC   C2E16005   0.654  10.334   5.954
  308POPC   C2F16006   0.675  10.375   5.809
  308POPC   C2G16007   0.630  10.264   5.713
  308POPC   C2H16008   0.651  10.300   5.566
  308POPC   C2I16009   0.561  10.414   5.516
  308POPC   C2J16010   0.589  10.443   5.369
  308POPC   C2K16011   0.497  10.551   5.314
  308POPC   C2L16012   0.528  10.580   5.167
  308POPC   C2M16013   0.436  10.689   5.112
  308POPC   C2N16014   0.469  10.719   4.966
  308POPC   C2O16015   0.383  10.835   4.914
  308POPC   C2P16016   0.414  10.865   4.767
  309POPC   CN116017   1.551  10.579   7.017
  309POPC   CN216018   1.621  10.498   7.228
  309POPC   CN316019   1.738  10.676   7.126
  309POPC   NTM16020   1.605  10.620   7.148
  309POPC    CA16021   1.513  10.713   7.218
  309POPC    CB16022   1.465  10.847   7.156
  309POPC    OA16023   1.564  10.945   7.124
  309POPC     P16024   1.500  11.090   7.121
  309POPC    OB16025   1.400  11.098   7.229
  309POPC    OC16026   1.614  11.182   7.113
  309POPC    OD16027   1.423  11.080   6.984
  309POPC    CC16028   1.509  11.100   6.872
  309POPC    CD16029   1.450  11.047   6.741
  309POPC    OE16030   1.554  11.024   6.641
  309POPC   C1A16031   1.534  10.930   6.548
  309POPC    OF16032   1.433  10.859   6.550
  309POPC   C1B16033   1.646  10.920   6.452
  309POPC   C1C16034   1.601  10.943   6.307
  309POPC   C1D16035   1.550  11.085   6.282
  309POPC   C1E16036   1.489  11.094   6.142
  309POPC   C1F16037   1.426  11.232   6.118
  309POPC   C1G16038   1.352  11.235   5.984
  309POPC   C1H16039   1.446  11.227   5.864
  309POPC   C1I16040   1.370  11.197   5.735
  309POPC   C1J16041   1.395  11.267   5.625
  309POPC   C1K16042   1.497  11.381   5.628
  309POPC   C1L16043   1.563  11.398   5.491
  309POPC   C1M16044   1.653  11.522   5.490
  309POPC   C1N16045   1.728  11.539   5.357
  309POPC   C1O16046   1.634  11.560   5.238
  309POPC   C1P16047   1.715  11.585   5.110
  309POPC   C1Q16048   1.623  11.599   4.989
  309POPC   C1R16049   1.703  11.635   4.864
  309POPC    CE16050   1.338  11.145   6.700
  309POPC    OG16051   1.384  11.268   6.640
  309POPC   C2A16052   1.301  11.326   6.554
  309POPC    OH16053   1.191  11.277   6.527
  309POPC   C2B16054   1.359  11.446   6.490
  309POPC   C2C16055   1.255  11.555   6.467
  309POPC   C2D16056   1.310  11.673   6.387
  309POPC   C2E16057   1.331  11.636   6.240
  309POPC   C2F16058   1.381  11.756   6.160
  309POPC   C2G16059   1.391  11.720   6.011
  309POPC   C2H16060   1.442  11.839   5.930
  309POPC   C2I16061   1.443  11.806   5.781
  309POPC   C2J16062   1.501  11.922   5.700
  309POPC   C2K16063   1.500  11.894   5.550
  309POPC   C2L16064   1.359  11.898   5.491
  309POPC   C2M16065   1.356  11.862   5.342
  309POPC   C2N16066   1.435  11.962   5.257
  309POPC   C2O16067   1.431  11.923   5.109
  309POPC   C2P16068   1.521  12.014   5.026
  310POPC   CN116069   2.391  11.125   7.157
  310POPC   CN216070   2.389  10.888   7.167
  310POPC   CN316071   2.298  11.001   6.975
  310POPC   NTM16072   2.405  11.003   7.077
  310POPC    CA16073   2.541  11.004   7.017
  310POPC    CB16074   2.584  10.907   6.905
  310POPC    OA16075   2.550  10.769   6.921
  310POPC     P16076   2.627  10.679   6.818
  310POPC    OB16077   2.768  10.719   6.823
  310POPC    OC16078   2.585  10.543   6.855
  310POPC    OD16079   2.559  10.726   6.684
  310POPC    CC16080   2.443  10.652   6.649
  310POPC    CD16081   2.359  10.718   6.537
  310POPC    OE16082   2.248  10.634   6.496
  310POPC   C1A16083   2.126  10.661   6.540
  310POPC    OF16084   2.110  10.742   6.633
  310POPC   C1B16085   2.021  10.573   6.484
  310POPC   C1C16086   1.942  10.634   6.367
  310POPC   C1D16087   2.029  10.662   6.244
  310POPC   C1E16088   1.943  10.698   6.123
  310POPC   C1F16089   2.032  10.737   6.005
  310POPC   C1G16090   1.953  10.749   5.874
  310POPC   C1H16091   2.046  10.798   5.763
  310POPC   C1I16092   1.977  10.800   5.626
  310POPC   C1J16093   2.053  10.808   5.517
  310POPC   C1K16094   2.205  10.819   5.533
  310POPC   C1L16095   2.275  10.891   5.417
  310POPC   C1M16096   2.276  10.808   5.288
  310POPC   C1N16097   2.365  10.869   5.180
  310POPC   C1O16098   2.313  11.004   5.129
  310POPC   C1P16099   2.404  11.059   5.019
  310POPC   C1Q16100   2.349  11.192   4.967
  310POPC   C1R16101   2.437  11.248   4.855
  310POPC    CE16102   2.457  10.755   6.424
  310POPC    OG16103   2.400  10.837   6.320
  310POPC   C2A16104   2.483  10.874   6.223
  310POPC    OH16105   2.604  10.853   6.229
  310POPC   C2B16106   2.412  10.952   6.119
  310POPC   C2C16107   2.451  10.910   5.977
  310POPC   C2D16108   2.374  10.992   5.873
  310POPC   C2E16109   2.422  11.137   5.859
  310POPC   C2F16110   2.555  11.150   5.783
  310POPC   C2G16111   2.543  11.096   5.640
  310POPC   C2H16112   2.674  11.110   5.562
  310POPC   C2I16113   2.667  11.024   5.435
  310POPC   C2J16114   2.790  11.041   5.347
  310POPC   C2K16115   2.785  11.172   5.267
  310POPC   C2L16116   2.912  11.194   5.185
  310POPC   C2M16117   3.031  11.230   5.275
  310POPC   C2N16118   3.161  11.247   5.195
  310POPC   C2O16119   3.211  11.114   5.138
  310POPC   C2P16120   3.340  11.134   5.059
  311POPC   CN116121   3.008  10.809   6.317
  311POPC   CN216122   2.830  10.674   6.396
  311POPC   CN316123   3.056  10.598   6.412
  311POPC   NTM16124   2.968  10.716   6.422
  311POPC    CA16125   2.985  10.774   6.558
  311POPC    CB16126   2.899  10.894   6.604
  311POPC    OA16127   2.901  11.008   6.519
  311POPC     P16128   2.787  11.107   6.557
  311POPC    OB16129   2.660  11.033   6.557
  311POPC    OC16130   2.834  11.177   6.678
  311POPC    OD16131   2.794  11.204   6.434
  311POPC    CC16132   2.756  11.137   6.314
  311POPC    CD16133   2.734  11.224   6.189
  311POPC    OE16134   2.848  11.296   6.133
  311POPC   C1A16135   2.951  11.231   6.078
  311POPC    OF16136   2.977  11.115   6.111
  311POPC   C1B16137   3.045  11.320   6.007
  311POPC   C1C16138   3.033  11.306   5.855
  311POPC   C1D16139   3.138  11.393   5.786
  311POPC   C1E16140   3.148  11.358   5.637
  311POPC   C1F16141   3.256  11.440   5.565
  311POPC   C1G16142   3.398  11.416   5.617
  311POPC   C1H16143   3.449  11.274   5.588
  311POPC   C1I16144   3.581  11.248   5.661
  311POPC   C1J16145   3.602  11.129   5.715
  311POPC   C1K16146   3.494  11.022   5.701
  311POPC   C1L16147   3.478  10.942   5.830
  311POPC   C1M16148   3.355  10.850   5.825
  311POPC   C1N16149   3.225  10.932   5.818
  311POPC   C1O16150   3.102  10.842   5.828
  311POPC   C1P16151   2.975  10.927   5.819
  311POPC   C1Q16152   2.848  10.845   5.843
  311POPC   C1R16153   2.838  10.794   5.987
  311POPC    CE16154   2.619  11.320   6.227
  311POPC    OG16155   2.494  11.256   6.257
  311POPC   C2A16156   2.398  11.333   6.307
  311POPC    OH16157   2.412  11.454   6.321
  311POPC   C2B16158   2.275  11.258   6.340
  311POPC   C2C16159   2.168  11.274   6.233
  311POPC   C2D16160   2.043  11.194   6.270
  311POPC   C2E16161   1.927  11.219   6.173
  311POPC   C2F16162   1.954  11.170   6.031
  311POPC   C2G16163   1.833  11.198   5.942
  311POPC   C2H16164   1.847  11.152   5.796
  311POPC   C2I16165   1.915  11.254   5.704
  311POPC   C2J16166   2.068  11.242   5.698
  311POPC   C2K16167   2.130  11.343   5.601
  311POPC   C2L16168   2.089  11.317   5.456
  311POPC   C2M16169   2.146  11.423   5.362
  311POPC   C2N16170   2.094  11.402   5.220
  311POPC   C2O16171   2.146  11.511   5.126
  311POPC   C2P16172   2.089  11.494   4.985
  312POPC   CN116173   3.667  10.672   6.723
  312POPC   CN216174   3.624  10.778   6.934
  312POPC   CN316175   3.834  10.801   6.827
  312POPC   NTM16176   3.690  10.792   6.804
  312POPC    CA16177   3.648  10.916   6.735
  312POPC    CB16178   3.502  10.938   6.691
  312POPC    OA16179   3.456  10.848   6.590
  312POPC     P16180   3.359  10.925   6.494
  312POPC    OB16181   3.242  10.950   6.578
  312POPC    OC16182   3.439  11.037   6.439
  312POPC    OD16183   3.351  10.802   6.397
  312POPC    CC16184   3.463  10.801   6.307
  312POPC    CD16185   3.481  10.676   6.220
  312POPC    OE16186   3.583  10.699   6.119
  312POPC   C1A16187   3.675  10.606   6.094
  312POPC    OF16188   3.706  10.524   6.181
  312POPC   C1B16189   3.758  10.639   5.975
  312POPC   C1C16190   3.690  10.597   5.844
  312POPC   C1D16191   3.698  10.447   5.816
  312POPC   C1E16192   3.615  10.406   5.694
  312POPC   C1F16193   3.656  10.478   5.565
  312POPC   C1G16194   3.566  10.436   5.448
  312POPC   C1H16195   3.590  10.516   5.320
  312POPC   C1I16196   3.550  10.663   5.334
  312POPC   C1J16197   3.474  10.723   5.242
  312POPC   C1K16198   3.423  10.645   5.121
  312POPC   C1L16199   3.385  10.741   5.007
  312POPC   C1M16200   3.326  10.665   4.888
  312POPC   C1N16201   3.285  10.762   4.777
  312POPC   C1O16202   3.224  10.686   4.659
  312POPC   C1P16203   3.182  10.778   4.544
  312POPC   C1Q16204   3.302  10.844   4.475
  312POPC   C1R16205   3.257  10.934   4.360
  312POPC    CE16206   3.341  10.651   6.160
  312POPC    OG16207   3.319  10.526   6.091
  312POPC   C2A16208   3.196  10.512   6.040
  312POPC    OH16209   3.101  10.571   6.089
  312POPC   C2B16210   3.188  10.402   5.941
  312POPC   C2C16211   3.195  10.459   5.799
  312POPC   C2D16212   3.188  10.350   5.692
  312POPC   C2E16213   3.178  10.411   5.553
  312POPC   C2F16214   3.175  10.304   5.444
  312POPC   C2G16215   3.160  10.369   5.306
  312POPC   C2H16216   3.163  10.266   5.194
  312POPC   C2I16217   3.139  10.335   5.059
  312POPC   C2J16218   3.144  10.237   4.942
  312POPC   C2K16219   3.108  10.309   4.812
  312POPC   C2L16220   3.109  10.215   4.692
  312POPC   C2M16221   3.068  10.290   4.566
  312POPC   C2N16222   3.068  10.198   4.444
  312POPC   C2O16223   3.023  10.273   4.319
  312POPC   C2P16224   3.025  10.182   4.196
  313POPC   CN116225   4.665   9.580   6.663
  313POPC   CN216226   4.589   9.476   6.862
  313POPC   CN316227   4.821   9.494   6.822
  313POPC   NTM16228   4.693   9.563   6.806
  313POPC    CA16229   4.690   9.691   6.880
  313POPC    CB16230   4.792   9.802   6.850
  313POPC    OA16231   4.786   9.856   6.718
  313POPC     P16232   4.903   9.957   6.692
  313POPC    OB16233   4.904  10.048   6.808
  313POPC    OC16234   5.018   9.869   6.666
  313POPC    OD16235   4.838  10.022   6.565
  313POPC    CC16236   4.865   9.949   6.445
  313POPC    CD16237   4.743   9.927   6.354
  313POPC    OE16238   4.780   9.882   6.221
  313POPC   C1A16239   4.762   9.754   6.190
  313POPC    OF16240   4.754   9.669   6.279
  313POPC   C1B16241   4.776   9.725   6.046
  313POPC   C1C16242   4.643   9.746   5.972
  313POPC   C1D16243   4.654   9.722   5.822
  313POPC   C1E16244   4.752   9.819   5.755
  313POPC   C1F16245   4.757   9.797   5.603
  313POPC   C1G16246   4.865   9.886   5.542
  313POPC   C1H16247   4.864   9.878   5.389
  313POPC   C1I16248   4.975   9.965   5.331
  313POPC   C1J16249   5.020   9.943   5.208
  313POPC   C1K16250   4.958   9.832   5.122
  313POPC   C1L16251   5.058   9.770   5.023
  313POPC   C1M16252   5.105   9.869   4.915
  313POPC   C1N16253   5.208   9.804   4.823
  313POPC   C1O16254   5.264   9.901   4.719
  313POPC   C1P16255   5.158   9.943   4.616
  313POPC   C1Q16256   5.217  10.042   4.515
  313POPC   C1R16257   5.112  10.085   4.413
  313POPC    CE16258   4.664  10.060   6.351
  313POPC    OG16259   4.537  10.050   6.284
  313POPC   C2A16260   4.466  10.161   6.268
  313POPC    OH16261   4.475  10.251   6.351
  313POPC   C2B16262   4.362  10.148   6.163
  313POPC   C2C16263   4.429  10.126   6.027
  313POPC   C2D16264   4.335  10.070   5.920
  313POPC   C2E16265   4.243  10.175   5.858
  313POPC   C2F16266   4.166  10.112   5.742
  313POPC   C2G16267   4.093  10.217   5.658
  313POPC   C2H16268   4.025  10.150   5.538
  313POPC   C2I16269   3.959  10.252   5.445
  313POPC   C2J16270   4.061  10.336   5.369
  313POPC   C2K16271   3.990  10.440   5.282
  313POPC   C2L16272   4.088  10.515   5.193
  313POPC   C2M16273   4.015  10.619   5.108
  313POPC   C2N16274   4.111  10.684   5.008
  313POPC   C2O16275   4.040  10.790   4.925
  313POPC   C2P16276   4.134  10.850   4.819
  314POPC   CN116277   5.184  11.012   5.975
  314POPC   CN216278   5.167  11.243   6.025
  314POPC   CN316279   5.158  11.085   6.201
  314POPC   NTM16280   5.221  11.116   6.072
  314POPC    CA16281   5.368  11.128   6.083
  314POPC    CB16282   5.454  11.019   6.152
  314POPC    OA16283   5.443  10.884   6.110
  314POPC     P16284   5.561  10.805   6.176
  314POPC    OB16285   5.682  10.853   6.108
  314POPC    OC16286   5.545  10.827   6.321
  314POPC    OD16287   5.525  10.656   6.141
  314POPC    CC16288   5.572  10.616   6.012
  314POPC    CD16289   5.528  10.473   5.975
  314POPC    OE16290   5.586  10.415   5.855
  314POPC   C1A16291   5.709  10.364   5.857
  314POPC    OF16292   5.770  10.349   5.963
  314POPC   C1B16293   5.752  10.308   5.727
  314POPC   C1C16294   5.823  10.412   5.640
  314POPC   C1D16295   5.883  10.346   5.516
  314POPC   C1E16296   5.947  10.448   5.421
  314POPC   C1F16297   6.061  10.525   5.486
  314POPC   C1G16298   6.111  10.636   5.394
  314POPC   C1H16299   6.207  10.732   5.465
  314POPC   C1I16300   6.347  10.673   5.485
  314POPC   C1J16301   6.450  10.757   5.488
  314POPC   C1K16302   6.420  10.906   5.471
  314POPC   C1L16303   6.535  10.978   5.400
  314POPC   C1M16304   6.498  11.125   5.376
  314POPC   C1N16305   6.616  11.205   5.320
  314POPC   C1O16306   6.658  11.165   5.178
  314POPC   C1P16307   6.559  11.212   5.071
  314POPC   C1Q16308   6.613  11.175   4.933
  314POPC   C1R16309   6.521  11.224   4.821
  314POPC    CE16310   5.374  10.476   5.976
  314POPC    OG16311   5.316  10.572   5.886
  314POPC   C2A16312   5.187  10.601   5.897
  314POPC    OH16313   5.118  10.555   5.990
  314POPC   C2B16314   5.148  10.703   5.799
  314POPC   C2C16315   5.005  10.687   5.745
  314POPC   C2D16316   4.969  10.796   5.643
  314POPC   C2E16317   5.050  10.789   5.513
  314POPC   C2F16318   5.018  10.667   5.426
  314POPC   C2G16319   4.876  10.673   5.369
  314POPC   C2H16320   4.842  10.555   5.277
  314POPC   C2I16321   4.926  10.555   5.150
  314POPC   C2J16322   4.872  10.457   5.045
  314POPC   C2K16323   4.885  10.310   5.088
  314POPC   C2L16324   4.817  10.216   4.988
  314POPC   C2M16325   4.883  10.217   4.850
  314POPC   C2N16326   4.810  10.127   4.749
  314POPC   C2O16327   4.670  10.179   4.716
  314POPC   C2P16328   4.600  10.089   4.614
  315POPC   CN116329   6.013  10.858   6.469
  315POPC   CN216330   5.895  10.995   6.623
  315POPC   CN316331   6.047  11.093   6.463
  315POPC   NTM16332   5.946  10.987   6.485
  315POPC    CA16333   5.835  10.994   6.387
  315POPC    CB16334   5.742  11.117   6.377
  315POPC    OA16335   5.801  11.241   6.336
  315POPC     P16336   5.707  11.314   6.232
  315POPC    OB16337   5.568  11.295   6.272
  315POPC    OC16338   5.761  11.448   6.207
  315POPC    OD16339   5.730  11.220   6.109
  315POPC    CC16340   5.836  11.260   6.021
  315POPC    CD16341   5.866  11.155   5.913
  315POPC    OE16342   5.963  11.198   5.813
  315POPC   C1A16343   6.023  11.104   5.740
  315POPC    OF16344   6.014  10.985   5.771
  315POPC   C1B16345   6.098  11.155   5.623
  315POPC   C1C16346   6.019  11.127   5.495
  315POPC   C1D16347   6.089  11.178   5.369
  315POPC   C1E16348   6.011  11.140   5.243
  315POPC   C1F16349   5.874  11.208   5.237
  315POPC   C1G16350   5.783  11.153   5.127
  315POPC   C1H16351   5.830  11.188   4.986
  315POPC   C1I16352   5.738  11.121   4.883
  315POPC   C1J16353   5.769  11.121   4.754
  315POPC   C1K16354   5.893  11.196   4.704
  315POPC   C1L16355   5.970  11.118   4.597
  315POPC   C1M16356   6.050  11.001   4.656
  315POPC   C1N16357   6.167  11.051   4.742
  315POPC   C1O16358   6.233  10.938   4.821
  315POPC   C1P16359   6.140  10.884   4.930
  315POPC   C1Q16360   6.206  10.775   5.013
  315POPC   C1R16361   6.322  10.829   5.097
  315POPC    CE16362   5.729  11.113   5.855
  315POPC    OG16363   5.654  11.217   5.789
  315POPC   C2A16364   5.548  11.178   5.718
  315POPC    OH16365   5.494  11.069   5.738
  315POPC   C2B16366   5.498  11.285   5.629
  315POPC   C2C16367   5.565  11.275   5.491
  315POPC   C2D16368   5.540  11.397   5.402
  315POPC   C2E16369   5.393  11.416   5.360
  315POPC   C2F16370   5.341  11.310   5.263
  315POPC   C2G16371   5.394  11.326   5.121
  315POPC   C2H16372   5.326  11.225   5.029
  315POPC   C2I16373   5.367  11.243   4.883
  315POPC   C2J16374   5.287  11.147   4.794
  315POPC   C2K16375   5.321  11.165   4.646
  315POPC   C2L16376   5.235  11.072   4.561
  315POPC   C2M16377   5.261  11.092   4.412
  315POPC   C2N16378   5.169  11.002   4.329
  315POPC   C2O16379   5.192  11.023   4.179
  315POPC   C2P16380   5.097  10.935   4.097
  316POPC   CN116381   6.556  11.597   6.542
  316POPC   CN216382   6.365  11.683   6.424
  316POPC   CN316383   6.565  11.812   6.442
  316POPC   NTM16384   6.512  11.676   6.427
  316POPC    CA16385   6.566  11.622   6.300
  316POPC    CB16386   6.538  11.475   6.259
  316POPC    OA16387   6.400  11.447   6.235
  316POPC     P16388   6.373  11.294   6.219
  316POPC    OB16389   6.431  11.233   6.339
  316POPC    OC16390   6.228  11.288   6.193
  316POPC    OD16391   6.451  11.260   6.087
  316POPC    CC16392   6.386  11.307   5.969
  316POPC    CD16393   6.464  11.278   5.839
  316POPC    OE16394   6.395  11.325   5.720
  316POPC   C1A16395   6.420  11.446   5.670
  316POPC    OF16396   6.494  11.527   5.726
  316POPC   C1B16397   6.340  11.471   5.548
  316POPC   C1C16398   6.420  11.548   5.442
  316POPC   C1D16399   6.339  11.566   5.314
  316POPC   C1E16400   6.420  11.647   5.213
  316POPC   C1F16401   6.344  11.675   5.084
  316POPC   C1G16402   6.326  11.550   4.997
  316POPC   C1H16403   6.262  11.590   4.864
  316POPC   C1I16404   6.250  11.470   4.770
  316POPC   C1J16405   6.158  11.470   4.675
  316POPC   C1K16406   6.063  11.589   4.660
  316POPC   C1L16407   6.028  11.613   4.513
  316POPC   C1M16408   5.917  11.717   4.504
  316POPC   C1N16409   5.877  11.744   4.358
  316POPC   C1O16410   5.746  11.823   4.350
  316POPC   C1P16411   5.758  11.964   4.407
  316POPC   C1Q16412   5.621  12.033   4.418
  316POPC   C1R16413   5.532  11.965   4.523
  316POPC    CE16414   6.485  11.125   5.837
  316POPC    OG16415   6.616  11.085   5.796
  316POPC   C2A16416   6.644  10.955   5.795
  316POPC    OH16417   6.556  10.869   5.808
  316POPC   C2B16418   6.788  10.928   5.777
  316POPC   C2C16419   6.834  10.924   5.631
  316POPC   C2D16420   6.987  10.928   5.627
  316POPC   C2E16421   7.046  10.900   5.488
  316POPC   C2F16422   7.014  11.008   5.385
  316POPC   C2G16423   7.069  10.966   5.248
  316POPC   C2H16424   7.028  11.065   5.140
  316POPC   C2I16425   7.055  11.008   5.001
  316POPC   C2J16426   6.995  11.099   4.894
  316POPC   C2K16427   6.995  11.031   4.757
  316POPC   C2L16428   6.926  11.120   4.654
  316POPC   C2M16429   6.924  11.054   4.516
  316POPC   C2N16430   6.855  11.142   4.411
  316POPC   C2O16431   6.931  11.272   4.384
  316POPC   C2P16432   6.858  11.358   4.280
  317POPC   CN116433   6.724   9.693   6.226
  317POPC   CN216434   6.575   9.510   6.235
  317POPC   CN316435   6.742   9.513   6.068
  317POPC   NTM16436   6.715   9.547   6.208
  317POPC    CA16437   6.804   9.475   6.302
  317POPC    CB16438   6.956   9.502   6.302
  317POPC    OA16439   7.024   9.472   6.180
  317POPC     P16440   7.175   9.518   6.178
  317POPC    OB16441   7.228   9.502   6.313
  317POPC    OC16442   7.231   9.443   6.065
  317POPC    OD16443   7.155   9.671   6.147
  317POPC    CC16444   7.124   9.692   6.009
  317POPC    CD16445   7.072   9.832   5.976
  317POPC    OE16446   6.988   9.832   5.857
  317POPC   C1A16447   6.906   9.935   5.835
  317POPC    OF16448   6.877  10.012   5.928
  317POPC   C1B16449   6.846   9.933   5.700
  317POPC   C1C16450   6.933  10.013   5.602
  317POPC   C1D16451   6.881  10.004   5.458
  317POPC   C1E16452   6.969  10.087   5.366
  317POPC   C1F16453   6.931  10.080   5.218
  317POPC   C1G16454   6.791  10.135   5.188
  317POPC   C1H16455   6.767  10.159   5.038
  317POPC   C1I16456   6.845  10.282   4.988
  317POPC   C1J16457   6.874  10.299   4.859
  317POPC   C1K16458   6.831  10.198   4.753
  317POPC   C1L16459   6.799  10.265   4.618
  317POPC   C1M16460   6.922  10.328   4.551
  317POPC   C1N16461   6.888  10.404   4.423
  317POPC   C1O16462   6.797  10.525   4.450
  317POPC   C1P16463   6.765  10.607   4.325
  317POPC   C1Q16464   6.885  10.689   4.278
  317POPC   C1R16465   6.848  10.774   4.156
  317POPC    CE16466   7.195   9.926   5.972
  317POPC    OG16467   7.295   9.888   5.876
  317POPC   C2A16468   7.366   9.986   5.821
  317POPC    OH16469   7.350  10.103   5.854
  317POPC   C2B16470   7.466   9.937   5.723
  317POPC   C2C16471   7.408   9.921   5.582
  317POPC   C2D16472   7.516   9.866   5.488
  317POPC   C2E16473   7.461   9.832   5.349
  317POPC   C2F16474   7.570   9.766   5.264
  317POPC   C2G16475   7.513   9.711   5.133
  317POPC   C2H16476   7.617   9.630   5.054
  317POPC   C2I16477   7.549   9.555   4.940
  317POPC   C2J16478   7.644   9.466   4.860
  317POPC   C2K16479   7.734   9.540   4.760
  317POPC   C2L16480   7.674   9.554   4.619
  317POPC   C2M16481   7.574   9.669   4.604
  317POPC   C2N16482   7.516   9.673   4.462
  317POPC   C2O16483   7.419   9.790   4.442
  317POPC   C2P16484   7.489   9.926   4.446
  318POPC   CN116485   8.487  10.919   6.524
  318POPC   CN216486   8.394  11.055   6.696
  318POPC   CN316487   8.335  11.098   6.473
  318POPC   NTM16488   8.366  10.990   6.568
  318POPC    CA16489   8.252  10.898   6.585
  318POPC    CB16490   8.202  10.811   6.467
  318POPC    OA16491   8.179  10.881   6.345
  318POPC     P16492   8.100  10.798   6.239
  318POPC    OB16493   7.985  10.743   6.312
  318POPC    OC16494   8.076  10.896   6.132
  318POPC    OD16495   8.209  10.693   6.204
  318POPC    CC16496   8.298  10.738   6.102
  318POPC    CD16497   8.429  10.659   6.097
  318POPC    OE16498   8.534  10.720   6.017
  318POPC   C1A16499   8.612  10.812   6.072
  318POPC    OF16500   8.605  10.839   6.192
  318POPC   C1B16501   8.709  10.872   5.977
  318POPC   C1C16502   8.841  10.794   5.975
  318POPC   C1D16503   8.939  10.860   5.879
  318POPC   C1E16504   9.069  10.779   5.869
  318POPC   C1F16505   9.174  10.847   5.781
  318POPC   C1G16506   9.135  10.859   5.633
  318POPC   C1H16507   9.119  10.724   5.562
  318POPC   C1I16508   9.091  10.746   5.413
  318POPC   C1J16509   9.095  10.646   5.326
  318POPC   C1K16510   9.125  10.503   5.370
  318POPC   C1L16511   9.169  10.419   5.249
  318POPC   C1M16512   9.187  10.272   5.286
  318POPC   C1N16513   9.207  10.189   5.159
  318POPC   C1O16514   9.200  10.039   5.189
  318POPC   C1P16515   9.183   9.961   5.058
  318POPC   C1Q16516   9.150   9.815   5.085
  318POPC   C1R16517   9.113   9.743   4.955
  318POPC    CE16518   8.395  10.512   6.065
  318POPC    OG16519   8.330  10.483   5.940
  318POPC   C2A16520   8.301  10.355   5.918
  318POPC    OH16521   8.330  10.267   5.999
  318POPC   C2B16522   8.237  10.332   5.786
  318POPC   C2C16523   8.311  10.224   5.706
  318POPC   C2D16524   8.258  10.210   5.564
  318POPC   C2E16525   8.343  10.108   5.488
  318POPC   C2F16526   8.302  10.087   5.342
  318POPC   C2G16527   8.326  10.210   5.254
  318POPC   C2H16528   8.315  10.172   5.106
  318POPC   C2I16529   8.337  10.295   5.017
  318POPC   C2J16530   8.355  10.259   4.869
  318POPC   C2K16531   8.231  10.194   4.806
  318POPC   C2L16532   8.258  10.166   4.658
  318POPC   C2M16533   8.134  10.109   4.588
  318POPC   C2N16534   8.161  10.087   4.439
  318POPC   C2O16535   8.036  10.036   4.368
  318POPC   C2P16536   8.063  10.017   4.218
  319POPC   CN116537  10.034  11.364   6.511
  319POPC   CN216538  10.146  11.565   6.459
  319POPC   CN316539  10.029  11.452   6.290
  319POPC   NTM16540  10.025  11.488   6.432
  319POPC    CA16541   9.909  11.572   6.469
  319POPC    CB16542   9.763  11.525   6.445
  319POPC    OA16543   9.730  11.400   6.504
  319POPC     P16544   9.582  11.353   6.480
  319POPC    OB16545   9.593  11.217   6.536
  319POPC    OC16546   9.500  11.455   6.545
  319POPC    OD16547   9.575  11.350   6.323
  319POPC    CC16548   9.625  11.229   6.265
  319POPC    CD16549   9.647  11.226   6.112
  319POPC    OE16550   9.701  11.099   6.066
  319POPC   C1A16551   9.618  11.000   6.032
  319POPC    OF16552   9.497  11.009   6.055
  319POPC   C1B16553   9.687  10.878   5.985
  319POPC   C1C16554   9.714  10.878   5.835
  319POPC   C1D16555   9.794  10.752   5.798
  319POPC   C1E16556   9.813  10.734   5.648
  319POPC   C1F16557   9.907  10.835   5.583
  319POPC   C1G16558   9.924  10.800   5.435
  319POPC   C1H16559  10.026  10.888   5.364
  319POPC   C1I16560  10.045  10.840   5.220
  319POPC   C1J16561  10.086  10.922   5.124
  319POPC   C1K16562  10.118  11.068   5.157
  319POPC   C1L16563  10.195  11.134   5.043
  319POPC   C1M16564  10.209  11.285   5.068
  319POPC   C1N16565  10.284  11.356   4.955
  319POPC   C1O16566  10.208  11.354   4.823
  319POPC   C1P16567  10.289  11.421   4.712
  319POPC   C1Q16568  10.212  11.419   4.580
  319POPC   C1R16569  10.292  11.489   4.469
  319POPC    CE16570   9.741  11.342   6.075
  319POPC    OG16571   9.679  11.465   6.034
  319POPC   C2A16572   9.760  11.570   6.017
  319POPC    OH16573   9.872  11.571   6.069
  319POPC   C2B16574   9.696  11.686   5.952
  319POPC   C2C16575   9.722  11.685   5.801
  319POPC   C2D16576   9.662  11.808   5.734
  319POPC   C2E16577   9.688  11.805   5.583
  319POPC   C2F16578   9.642  11.935   5.516
  319POPC   C2G16579   9.667  11.933   5.365
  319POPC   C2H16580   9.573  11.837   5.293
  319POPC   C2I16581   9.603  11.831   5.143
  319POPC   C2J16582   9.503  11.737   5.076
  319POPC   C2K16583   9.530  11.714   4.928
  319POPC   C2L16584   9.428  11.613   4.874
  319POPC   C2M16585   9.455  11.569   4.730
  319POPC   C2N16586   9.429  11.679   4.628
  319POPC   C2O16587   9.451  11.626   4.487
  319POPC   C2P16588   9.418  11.733   4.383
  320POPC   CN116589   9.712  10.300   6.278
  320POPC   CN216590   9.596  10.302   6.072
  320POPC   CN316591   9.577  10.489   6.216
  320POPC   NTM16592   9.670  10.387   6.167
  320POPC    CA16593   9.786  10.446   6.096
  320POPC    CB16594   9.887  10.537   6.171
  320POPC    OA16595   9.835  10.661   6.220
  320POPC     P16596   9.927  10.727   6.330
  320POPC    OB16597   9.846  10.837   6.384
  320POPC    OC16598   9.967  10.616   6.417
  320POPC    OD16599  10.047  10.778   6.243
  320POPC    CC16600  10.013  10.892   6.163
  320POPC    CD16601  10.124  10.940   6.066
  320POPC    OE16602  10.069  11.020   5.959
  320POPC   C1A16603  10.059  11.152   5.970
  320POPC    OF16604  10.078  11.208   6.079
  320POPC   C1B16605  10.024  11.217   5.842
  320POPC   C1C16606  10.151  11.247   5.763
  320POPC   C1D16607  10.124  11.284   5.617
  320POPC   C1E16608  10.053  11.418   5.600
  320POPC   C1F16609  10.043  11.451   5.451
  320POPC   C1G16610   9.972  11.584   5.426
  320POPC   C1H16611   9.974  11.623   5.277
  320POPC   C1I16612  10.115  11.661   5.230
  320POPC   C1J16613  10.134  11.727   5.117
  320POPC   C1K16614  10.017  11.765   5.026
  320POPC   C1L16615  10.062  11.760   4.880
  320POPC   C1M16616   9.953  11.805   4.784
  320POPC   C1N16617  10.005  11.800   4.641
  320POPC   C1O16618   9.903  11.858   4.542
  320POPC   C1P16619   9.956  11.857   4.398
  320POPC   C1Q16620  10.078  11.948   4.378
  320POPC   C1R16621  10.128  11.941   4.234
  320POPC    CE16622  10.196  10.815   6.012
  320POPC    OG16623  10.303  10.840   5.918
  320POPC   C2A16624  10.356  10.734   5.858
  320POPC    OH16625  10.326  10.620   5.892
  320POPC   C2B16626  10.451  10.770   5.750
  320POPC   C2C16627  10.383  10.765   5.613
  320POPC   C2D16628  10.485  10.788   5.502
  320POPC   C2E16629  10.418  10.777   5.365
  320POPC   C2F16630  10.520  10.798   5.253
  320POPC   C2G16631  10.454  10.783   5.116
  320POPC   C2H16632  10.556  10.798   5.003
  320POPC   C2I16633  10.490  10.775   4.868
  320POPC   C2J16634  10.593  10.776   4.755
  320POPC   C2K16635  10.527  10.739   4.623
  320POPC   C2L16636  10.629  10.728   4.510
  320POPC   C2M16637  10.563  10.679   4.381
  320POPC   C2N16638  10.667  10.665   4.270
  320POPC   C2O16639  10.605  10.609   4.142
  320POPC   C2P16640  10.711  10.598   4.032
  321POPC   CN116641  10.974  10.360   6.452
  321POPC   CN216642  10.975  10.503   6.265
  321POPC   CN316643  10.805  10.526   6.433
  321POPC   NTM16644  10.947  10.498   6.409
  321POPC    CA16645  11.034  10.591   6.486
  321POPC    CB16646  11.021  10.744   6.466
  321POPC    OA16647  11.037  10.786   6.331
  321POPC     P16648  11.016  10.939   6.306
  321POPC    OB16649  11.035  11.011   6.433
  321POPC    OC16650  11.093  10.976   6.187
  321POPC    OD16651  10.862  10.925   6.276
  321POPC    CC16652  10.842  10.876   6.143
  321POPC    CD16653  10.697  10.841   6.107
  321POPC    OE16654  10.686  10.745   5.997
  321POPC   C1A16655  10.707  10.616   6.021
  321POPC    OF16656  10.705  10.574   6.137
  321POPC   C1B16657  10.714  10.532   5.899
  321POPC   C1C16658  10.857  10.526   5.843
  321POPC   C1D16659  10.868  10.440   5.717
  321POPC   C1E16660  10.788  10.497   5.599
  321POPC   C1F16661  10.803  10.411   5.474
  321POPC   C1G16662  10.712  10.461   5.362
  321POPC   C1H16663  10.724  10.376   5.236
  321POPC   C1I16664  10.617  10.418   5.134
  321POPC   C1J16665  10.634  10.399   5.003
  321POPC   C1K16666  10.761  10.335   4.948
  321POPC   C1L16667  10.776  10.365   4.799
  321POPC   C1M16668  10.896  10.290   4.741
  321POPC   C1N16669  10.906  10.306   4.590
  321POPC   C1O16670  11.020  10.219   4.536
  321POPC   C1P16671  11.037  10.227   4.384
  321POPC   C1Q16672  10.918  10.167   4.308
  321POPC   C1R16673  10.941  10.176   4.157
  321POPC    CE16674  10.622  10.974   6.089
  321POPC    OG16675  10.669  11.054   5.979
  321POPC   C2A16676  10.601  11.164   5.950
  321POPC    OH16677  10.513  11.208   6.024
  321POPC   C2B16678  10.644  11.223   5.821
  321POPC   C2C16679  10.555  11.172   5.707
  321POPC   C2D16680  10.594  11.227   5.570
  321POPC   C2E16681  10.487  11.191   5.467
  321POPC   C2F16682  10.512  11.254   5.330
  321POPC   C2G16683  10.614  11.178   5.245
  321POPC   C2H16684  10.631  11.249   5.110
  321POPC   C2I16685  10.723  11.172   5.014
  321POPC   C2J16686  10.751  11.259   4.891
  321POPC   C2K16687  10.833  11.187   4.785
  321POPC   C2L16688  10.876  11.287   4.677
  321POPC   C2M16689  10.948  11.223   4.558
  321POPC   C2N16690  10.852  11.147   4.466
  321POPC   C2O16691  10.924  11.104   4.338
  321POPC   C2P16692  10.829  11.034   4.241
  322POPC   CN116693  13.010  11.753   6.935
  322POPC   CN216694  12.960  11.827   6.716
  322POPC   CN316695  13.083  11.626   6.748
  322POPC   NTM16696  12.973  11.708   6.801
  322POPC    CA16697  12.849  11.629   6.815
  322POPC    CB16698  12.770  11.579   6.692
  322POPC    OA16699  12.713  11.683   6.613
  322POPC     P16700  12.642  11.631   6.483
  322POPC    OB16701  12.561  11.512   6.514
  322POPC    OC16702  12.580  11.752   6.427
  322POPC    OD16703  12.771  11.587   6.406
  322POPC    CC16704  12.831  11.692   6.331
  322POPC    CD16705  12.984  11.677   6.320
  322POPC    OE16706  13.050  11.797   6.270
  322POPC   C1A16707  13.161  11.837   6.332
  322POPC    OF16708  13.175  11.810   6.452
  322POPC   C1B16709  13.248  11.930   6.255
  322POPC   C1C16710  13.251  11.899   6.105
  322POPC   C1D16711  13.369  11.962   6.029
  322POPC   C1E16712  13.371  12.115   6.028
  322POPC   C1F16713  13.483  12.161   5.935
  322POPC   C1G16714  13.503  12.313   5.937
  322POPC   C1H16715  13.597  12.352   5.822
  322POPC   C1I16716  13.630  12.501   5.820
  322POPC   C1J16717  13.625  12.566   5.704
  322POPC   C1K16718  13.580  12.490   5.578
  322POPC   C1L16719  13.640  12.544   5.448
  322POPC   C1M16720  13.788  12.512   5.433
  322POPC   C1N16721  13.838  12.555   5.295
  322POPC   C1O16722  13.986  12.519   5.276
  322POPC   C1P16723  14.038  12.554   5.136
  322POPC   C1Q16724  13.976  12.465   5.027
  322POPC   C1R16725  14.031  12.502   4.890
  322POPC    CE16726  13.013  11.546   6.244
  322POPC    OG16727  12.945  11.524   6.120
  322POPC   C2A16728  12.975  11.413   6.054
  322POPC    OH16729  13.051  11.328   6.099
  322POPC   C2B16730  12.902  11.400   5.925
  322POPC   C2C16731  12.960  11.494   5.819
  322POPC   C2D16732  12.889  11.481   5.684
  322POPC   C2E16733  12.931  11.354   5.609
  322POPC   C2F16734  12.851  11.334   5.480
  322POPC   C2G16735  12.871  11.446   5.377
  322POPC   C2H16736  12.785  11.419   5.254
  322POPC   C2I16737  12.789  11.533   5.151
  322POPC   C2J16738  12.926  11.550   5.086
  322POPC   C2K16739  12.918  11.650   4.970
  322POPC   C2L16740  13.053  11.667   4.902
  322POPC   C2M16741  13.040  11.755   4.778
  322POPC   C2N16742  13.175  11.779   4.711
  322POPC   C2O16743  13.158  11.869   4.589
  322POPC   C2P16744  13.294  11.903   4.527
  323POPC   CN116745  14.147  11.559   7.049
  323POPC   CN216746  14.115  11.587   6.817
  323POPC   CN316747  14.191  11.377   6.903
  323POPC   NTM16748  14.101  11.491   6.927
  323POPC    CA16749  13.961  11.446   6.949
  323POPC    CB16750  13.875  11.382   6.837
  323POPC    OA16751  13.926  11.267   6.768
  323POPC     P16752  13.807  11.184   6.705
  323POPC    OB16753  13.870  11.064   6.650
  323POPC    OC16754  13.703  11.169   6.807
  323POPC    OD16755  13.754  11.279   6.592
  323POPC    CC16756  13.825  11.267   6.468
  323POPC    CD16757  13.815  11.390   6.376
  323POPC    OE16758  13.898  11.504   6.416
  323POPC   C1A16759  14.022  11.511   6.368
  323POPC    OF16760  14.075  11.413   6.315
  323POPC   C1B16761  14.092  11.635   6.408
  323POPC   C1C16762  14.159  11.704   6.289
  323POPC   C1D16763  14.251  11.816   6.337
  323POPC   C1E16764  14.319  11.889   6.221
  323POPC   C1F16765  14.222  11.979   6.144
  323POPC   C1G16766  14.290  12.045   6.023
  323POPC   C1H16767  14.318  11.943   5.912
  323POPC   C1I16768  14.398  12.006   5.798
  323POPC   C1J16769  14.389  11.960   5.674
  323POPC   C1K16770  14.295  11.844   5.641
  323POPC   C1L16771  14.372  11.726   5.581
  323POPC   C1M16772  14.278  11.616   5.528
  323POPC   C1N16773  14.203  11.663   5.403
  323POPC   C1O16774  14.111  11.553   5.349
  323POPC   C1P16775  14.039  11.602   5.223
  323POPC   C1Q16776  13.947  11.494   5.167
  323POPC   C1R16777  13.874  11.543   5.042
  323POPC    CE16778  13.665  11.423   6.361
  323POPC    OG16779  13.603  11.358   6.249
  323POPC   C2A16780  13.470  11.370   6.238
  323POPC    OH16781  13.403  11.424   6.327
  323POPC   C2B16782  13.418  11.323   6.108
  323POPC   C2C16783  13.405  11.443   6.015
  323POPC   C2D16784  13.373  11.403   5.871
  323POPC   C2E16785  13.367  11.528   5.784
  323POPC   C2F16786  13.357  11.495   5.635
  323POPC   C2G16787  13.360  11.623   5.553
  323POPC   C2H16788  13.376  11.593   5.404
  323POPC   C2I16789  13.392  11.723   5.325
  323POPC   C2J16790  13.434  11.693   5.181
  323POPC   C2K16791  13.458  11.823   5.104
  323POPC   C2L16792  13.517  11.794   4.965
  323POPC   C2M16793  13.551  11.925   4.894
  323POPC   C2N16794  13.621  11.898   4.760
  323POPC   C2O16795  13.662  12.028   4.689
  323POPC   C2P16796  13.773  12.103   4.764
  324POPC   CN116797  15.249  11.840   6.589
  324POPC   CN216798  15.069  11.754   6.457
  324POPC   CN316799  15.047  11.771   6.692
  324POPC   NTM16800  15.103  11.836   6.574
  324POPC    CA16801  15.044  11.972   6.564
  324POPC    CB16802  15.083  12.067   6.448
  324POPC    OA16803  15.220  12.109   6.446
  324POPC     P16804  15.262  12.164   6.305
  324POPC    OB16805  15.151  12.245   6.254
  324POPC    OC16806  15.399  12.215   6.322
  324POPC    OD16807  15.264  12.031   6.225
  324POPC    CC16808  15.251  12.051   6.084
  324POPC    CD16809  15.209  11.923   6.011
  324POPC    OE16810  15.217  11.928   5.866
  324POPC   C1A16811  15.336  11.929   5.804
  324POPC    OF16812  15.441  11.914   5.868
  324POPC   C1B16813  15.324  11.930   5.657
  324POPC   C1C16814  15.305  12.072   5.602
  324POPC   C1D16815  15.288  12.066   5.450
  324POPC   C1E16816  15.274  12.206   5.390
  324POPC   C1F16817  15.273  12.197   5.237
  324POPC   C1G16818  15.278  12.337   5.175
  324POPC   C1H16819  15.304  12.332   5.024
  324POPC   C1I16820  15.185  12.284   4.941
  324POPC   C1J16821  15.184  12.312   4.811
  324POPC   C1K16822  15.305  12.386   4.752
  324POPC   C1L16823  15.329  12.353   4.604
  324POPC   C1M16824  15.229  12.423   4.512
  324POPC   C1N16825  15.262  12.396   4.365
  324POPC   C1O16826  15.182  12.489   4.274
  324POPC   C1P16827  15.226  12.476   4.127
  324POPC   C1Q16828  15.168  12.352   4.057
  324POPC   C1R16829  15.020  12.372   4.022
  324POPC    CE16830  15.071  11.890   6.071
  324POPC    OG16831  14.999  11.770   6.035
  324POPC   C2A16832  14.886  11.751   6.102
  324POPC    OH16833  14.865  11.810   6.208
  324POPC   C2B16834  14.806  11.638   6.051
  324POPC   C2C16835  14.656  11.667   6.053
  324POPC   C2D16836  14.577  11.544   6.009
  324POPC   C2E16837  14.429  11.576   5.998
  324POPC   C2F16838  14.348  11.454   5.953
  324POPC   C2G16839  14.202  11.494   5.934
  324POPC   C2H16840  14.116  11.375   5.892
  324POPC   C2I16841  13.973  11.422   5.864
  324POPC   C2J16842  13.879  11.308   5.826
  324POPC   C2K16843  13.845  11.219   5.947
  324POPC   C2L16844  13.755  11.102   5.907
  324POPC   C2M16845  13.829  11.001   5.818
  324POPC   C2N16846  13.736  10.888   5.776
  324POPC   C2O16847  13.812  10.784   5.693
  324POPC   C2P16848  13.720  10.668   5.654
  325POPC   CN116849  16.287  11.364   6.737
  325POPC   CN216850  16.267  11.502   6.545
  325POPC   CN316851  16.376  11.583   6.743
  325POPC   NTM16852  16.355  11.466   6.657
  325POPC    CA16853  16.483  11.408   6.608
  325POPC    CB16854  16.577  11.491   6.517
  325POPC    OA16855  16.627  11.610   6.577
  325POPC     P16856  16.728  11.693   6.491
  325POPC    OB16857  16.809  11.758   6.594
  325POPC    OC16858  16.785  11.605   6.389
  325POPC    OD16859  16.624  11.798   6.436
  325POPC    CC16860  16.608  11.797   6.294
  325POPC    CD16861  16.505  11.900   6.246
  325POPC    OE16862  16.453  11.870   6.113
  325POPC   C1A16863  16.344  11.932   6.068
  325POPC    OF16864  16.262  11.977   6.150
  325POPC   C1B16865  16.317  11.910   5.924
  325POPC   C1C16866  16.388  12.016   5.839
  325POPC   C1D16867  16.341  12.017   5.693
  325POPC   C1E16868  16.195  12.063   5.682
  325POPC   C1F16869  16.155  12.095   5.538
  325POPC   C1G16870  16.009  12.140   5.530
  325POPC   C1H16871  15.912  12.024   5.550
  325POPC   C1I16872  15.765  12.068   5.554
  325POPC   C1J16873  15.686  12.065   5.447
  325POPC   C1K16874  15.737  12.020   5.309
  325POPC   C1L16875  15.660  12.093   5.200
  325POPC   C1M16876  15.718  12.069   5.061
  325POPC   C1N16877  15.636  12.146   4.957
  325POPC   C1O16878  15.696  12.142   4.816
  325POPC   C1P16879  15.830  12.217   4.808
  325POPC   C1Q16880  15.881  12.230   4.664
  325POPC   C1R16881  15.793  12.324   4.580
  325POPC    CE16882  16.568  12.039   6.267
  325POPC    OG16883  16.682  12.069   6.184
  325POPC   C2A16884  16.724  12.196   6.184
  325POPC    OH16885  16.667  12.283   6.250
  325POPC   C2B16886  16.835  12.222   6.089
  325POPC   C2C16887  16.803  12.337   5.992
  325POPC   C2D16888  16.692  12.299   5.894
  325POPC   C2E16889  16.651  12.420   5.809
  325POPC   C2F16890  16.542  12.381   5.709
  325POPC   C2G16891  16.494  12.501   5.626
  325POPC   C2H16892  16.411  12.599   5.709
  325POPC   C2I16893  16.374  12.724   5.628
  325POPC   C2J16894  16.496  12.812   5.600
  325POPC   C2K16895  16.462  12.935   5.516
  325POPC   C2L16896  16.435  12.903   5.368
  325POPC   C2M16897  16.562  12.862   5.293
  325POPC   C2N16898  16.531  12.838   5.145
  325POPC   C2O16899  16.658  12.799   5.069
  325POPC   C2P16900  16.627  12.777   4.920
  326POPC   CN116901  16.598  10.994   7.309
  326POPC   CN216902  16.744  10.985   7.124
  326POPC   CN316903  16.525  11.076   7.096
  326POPC   NTM16904  16.639  11.066   7.188
  326POPC    CA16905  16.687  11.200   7.229
  326POPC    CB16906  16.730  11.302   7.119
  326POPC    OA16907  16.840  11.260   7.039
  326POPC     P16908  16.828  11.313   6.891
  326POPC    OB16909  16.716  11.406   6.875
  326POPC    OC16910  16.965  11.354   6.861
  326POPC    OD16911  16.789  11.177   6.825
  326POPC    CC16912  16.899  11.109   6.766
  326POPC    CD16913  16.857  10.990   6.678
  326POPC    OE16914  16.970  10.917   6.623
  326POPC   C1A16915  16.948  10.797   6.570
  326POPC    OF16916  16.847  10.733   6.601
  326POPC   C1B16917   0.081  10.743   6.495
  326POPC   C1C16918   0.035  10.680   6.364
  326POPC   C1D16919   0.154  10.639   6.278
  326POPC   C1E16920   0.106  10.604   6.137
  326POPC   C1F16921   0.226  10.593   6.042
  326POPC   C1G16922   0.178  10.593   5.897
  326POPC   C1H16923   0.296  10.608   5.802
  326POPC   C1I16924   0.248  10.617   5.657
  326POPC   C1J16925   0.245  10.732   5.591
  326POPC   C1K16926   0.295  10.862   5.654
  326POPC   C1L16927   0.335  10.965   5.547
  326POPC   C1M16928   0.463  10.926   5.472
  326POPC   C1N16929   0.479  11.006   5.342
  326POPC   C1O16930   0.499  11.156   5.366
  326POPC   C1P16931   0.509  11.235   5.234
  326POPC   C1Q16932   0.634  11.201   5.152
  326POPC   C1R16933   0.763  11.248   5.220
  326POPC    CE16934  16.760  11.047   6.573
  326POPC    OG16935  16.814  11.148   6.484
  326POPC   C2A16936  16.738  11.181   6.379
  326POPC    OH16937  16.620  11.148   6.375
  326POPC   C2B16938  16.804  11.276   6.287
  326POPC   C2C16939  16.888  11.207   6.180
  326POPC   C2D16940  16.951  11.310   6.087
  326POPC   C2E16941   0.031  11.242   5.965
  326POPC   C2F16942   0.068  11.344   5.858
  326POPC   C2G16943   0.096  11.272   5.726
  326POPC   C2H16944   0.112  11.371   5.610
  326POPC   C2I16945   0.108  11.301   5.473
  326POPC   C2J16946  16.955  11.236   5.447
  326POPC   C2K16947  16.941  11.169   5.311
  326POPC   C2L16948   0.053  11.050   5.292
  326POPC   C2M16949   0.018  10.964   5.170
  326POPC   C2N16950   0.027  11.040   5.038
  326POPC   C2O16951  16.968  10.955   4.918
  326POPC   C2P16952  16.819  10.919   4.922
  327POPC   CN116953   0.405  11.954   7.328
  327POPC   CN216954   0.426  12.190   7.326
  327POPC   CN316955   0.553  12.056   7.173
  327POPC   NTM16956   0.423  12.071   7.241
  327POPC    CA16957   0.310  12.073   7.145
  327POPC    CB16958   0.290  12.192   7.048
  327POPC    OA16959   0.395  12.219   6.953
  327POPC     P16960   0.372  12.358   6.881
  327POPC    OB16961   0.329  12.452   6.984
  327POPC    OC16962   0.495  12.381   6.803
  327POPC    OD16963   0.248  12.324   6.792
  327POPC    CC16964   0.278  12.244   6.677
  327POPC    CD16965   0.159  12.239   6.578
  327POPC    OE16966   0.174  12.139   6.474
  327POPC   C1A16967   0.066  12.094   6.412
  327POPC    OF16968  16.936  12.136   6.441
  327POPC   C1B16969   0.099  12.000   6.303
  327POPC   C1C16970   0.010  11.875   6.303
  327POPC   C1D16971   0.028  11.794   6.174
  327POPC   C1E16972  16.951  11.870   6.056
  327POPC   C1F16973   0.007  11.815   5.919
  327POPC   C1G16974  16.943  11.914   5.813
  327POPC   C1H16975   0.013  11.878   5.674
  327POPC   C1I16976  16.958  11.985   5.572
  327POPC   C1J16977  16.941  11.951   5.445
  327POPC   C1K16978  16.961  11.805   5.405
  327POPC   C1L16979   0.002  11.787   5.256
  327POPC   C1M16980   0.028  11.639   5.227
  327POPC   C1N16981   0.044  11.613   5.077
  327POPC   C1O16982   0.079  11.466   5.052
  327POPC   C1P16983   0.095  11.434   4.903
  327POPC   C1Q16984  16.946  11.441   4.828
  327POPC   C1R16985  16.965  11.413   4.679
  327POPC    CE16986   0.133  12.384   6.533
  327POPC    OG16987   0.249  12.461   6.496
  327POPC   C2A16988   0.261  12.581   6.551
  327POPC    OH16989   0.179  12.623   6.634
  327POPC   C2B16990   0.388  12.649   6.517
  327POPC   C2C16991   0.368  12.779   6.438
  327POPC   C2D16992   0.334  12.754   6.291
  327POPC   C2E16993   0.335  12.886   6.214
  327POPC   C2F16994   0.317  12.859   6.065
  327POPC   C2G16995   0.327  12.987   5.982
  327POPC   C2H16996   0.315  12.958   5.832
  327POPC   C2I16997   0.433  12.877   5.779
  327POPC   C2J16998   0.410  12.832   5.635
  327POPC   C2K16999   0.532  12.757   5.583
  327POPC   C2L17000   0.512  12.709   5.439
  327POPC   C2M17001   0.642  12.650   5.385
  327POPC   C2N17002   0.628  12.607   5.239
  327POPC   C2O17003   0.759  12.555   5.180
  327POPC   C2P17004   0.807  12.426   5.247
  328POPC   CN117005   0.275  11.441   6.631
  328POPC   CN217006   0.206  11.590   6.459
  328POPC   CN317007   0.085  11.389   6.505
  328POPC   NTM17008   0.159  11.501   6.565
  328POPC    CA17009   0.069  11.570   6.661
  328POPC    CB17010   0.118  11.692   6.743
  328POPC    OA17011   0.230  11.667   6.829
  328POPC     P17012   0.300  11.800   6.876
  328POPC    OB17013   0.198  11.903   6.897
  328POPC    OC17014   0.389  11.756   6.985
  328POPC    OD17015   0.375  11.828   6.742
  328POPC    CC17016   0.500  11.762   6.725
  328POPC    CD17017   0.549  11.778   6.579
  328POPC    OE17018   0.671  11.705   6.548
  328POPC   C1A17019   0.661  11.580   6.503
  328POPC    OF17020   0.558  11.515   6.524
  328POPC   C1B17021   0.785  11.527   6.441
  328POPC   C1C17022   0.797  11.580   6.298
  328POPC   C1D17023   0.907  11.513   6.216
  328POPC   C1E17024   0.916  11.585   6.081
  328POPC   C1F17025   1.004  11.512   5.980
  328POPC   C1G17026   1.013  11.596   5.852
  328POPC   C1H17027   1.086  11.522   5.739
  328POPC   C1I17028   1.106  11.615   5.620
  328POPC   C1J17029   1.103  11.570   5.495
  328POPC   C1K17030   1.074  11.422   5.464
  328POPC   C1L17031   1.163  11.367   5.352
  328POPC   C1M17032   1.134  11.427   5.214
  328POPC   C1N17033   1.235  11.379   5.109
  328POPC   C1O17034   1.230  11.228   5.085
  328POPC   C1P17035   1.335  11.186   4.983
  328POPC   C1Q17036   1.331  11.034   4.960
  328POPC   C1R17037   1.438  10.992   4.859
  328POPC    CE17038   0.558  11.928   6.552
  328POPC    OG17039   0.534  11.965   6.415
  328POPC   C2A17040   0.551  12.092   6.381
  328POPC    OH17041   0.606  12.172   6.458
  328POPC   C2B17042   0.512  12.117   6.241
  328POPC   C2C17043   0.444  12.252   6.220
  328POPC   C2D17044   0.383  12.257   6.079
  328POPC   C2E17045   0.317  12.391   6.050
  328POPC   C2F17046   0.246  12.386   5.915
  328POPC   C2G17047   0.183  12.522   5.882
  328POPC   C2H17048   0.094  12.518   5.758
  328POPC   C2I17049   0.170  12.493   5.627
  328POPC   C2J17050   0.074  12.502   5.509
  328POPC   C2K17051   0.146  12.481   5.376
  328POPC   C2L17052   0.049  12.496   5.259
  328POPC   C2M17053   0.115  12.473   5.123
  328POPC   C2N17054   0.220  12.579   5.089
  328POPC   C2O17055   0.284  12.550   4.953
  328POPC   C2P17056   0.390  12.655   4.920
  329POPC   CN117057   1.852  11.564   6.900
  329POPC   CN217058   1.665  11.708   6.916
  329POPC   CN317059   1.653  11.511   6.779
  329POPC   NTM17060   1.706  11.568   6.904
  329POPC    CA17061   1.662  11.490   7.023
  329POPC    CB17062   1.513  11.486   7.065
  329POPC    OA17063   1.421  11.435   6.969
  329POPC     P17064   1.274  11.428   7.024
  329POPC    OB17065   1.191  11.339   6.942
  329POPC    OC17066   1.276  11.421   7.171
  329POPC    OD17067   1.233  11.577   6.996
  329POPC    CC17068   1.199  11.602   6.860
  329POPC    CD17069   1.136  11.741   6.839
  329POPC    OE17070   1.090  11.762   6.702
  329POPC   C1A17071   1.009  11.864   6.673
  329POPC    OF17072   0.965  11.937   6.763
  329POPC   C1B17073   0.982  11.878   6.528
  329POPC   C1C17074   0.978  12.026   6.487
  329POPC   C1D17075   0.955  12.042   6.337
  329POPC   C1E17076   0.959  12.190   6.300
  329POPC   C1F17077   0.942  12.215   6.149
  329POPC   C1G17078   1.058  12.158   6.067
  329POPC   C1H17079   1.047  12.204   5.922
  329POPC   C1I17080   1.157  12.143   5.835
  329POPC   C1J17081   1.143  12.143   5.703
  329POPC   C1K17082   1.018  12.206   5.641
  329POPC   C1L17083   0.986  12.155   5.500
  329POPC   C1M17084   0.938  12.010   5.496
  329POPC   C1N17085   0.905  11.970   5.352
  329POPC   C1O17086   0.854  11.827   5.344
  329POPC   C1P17087   0.817  11.790   5.201
  329POPC   C1Q17088   0.763  11.647   5.193
  329POPC   C1R17089   0.722  11.611   5.051
  329POPC    CE17090   1.240  11.844   6.888
  329POPC    OG17091   1.362  11.853   6.812
  329POPC   C2A17092   1.415  11.974   6.797
  329POPC    OH17093   1.376  12.070   6.866
  329POPC   C2B17094   1.530  11.977   6.704
  329POPC   C2C17095   1.489  12.000   6.558
  329POPC   C2D17096   1.433  12.140   6.534
  329POPC   C2E17097   1.390  12.163   6.389
  329POPC   C2F17098   1.509  12.164   6.292
  329POPC   C2G17099   1.462  12.205   6.152
  329POPC   C2H17100   1.579  12.214   6.055
  329POPC   C2I17101   1.532  12.274   5.922
  329POPC   C2J17102   1.649  12.291   5.824
  329POPC   C2K17103   1.599  12.359   5.696
  329POPC   C2L17104   1.713  12.378   5.596
  329POPC   C2M17105   1.664  12.453   5.472
  329POPC   C2N17106   1.774  12.474   5.368
  329POPC   C2O17107   1.819  12.345   5.299
  329POPC   C2P17108   1.711  12.288   5.207
  330POPC   CN117109   3.240  11.450   6.317
  330POPC   CN217110   3.006  11.463   6.363
  330POPC   CN317111   3.125  11.266   6.415
  330POPC   NTM17112   3.135  11.413   6.412
  330POPC    CA17113   3.163  11.462   6.550
  330POPC    CB17114   3.187  11.613   6.577
  330POPC    OA17115   3.088  11.703   6.527
  330POPC     P17116   3.153  11.836   6.476
  330POPC    OB17117   3.192  11.903   6.601
  330POPC    OC17118   3.252  11.789   6.379
  330POPC    OD17119   3.020  11.889   6.415
  330POPC    CC17120   2.998  11.839   6.283
  330POPC    CD17121   2.861  11.877   6.224
  330POPC    OE17122   2.826  11.799   6.107
  330POPC   C1A17123   2.766  11.681   6.122
  330POPC    OF17124   2.729  11.643   6.234
  330POPC   C1B17125   2.751  11.606   5.996
  330POPC   C1C17126   2.624  11.642   5.918
  330POPC   C1D17127   2.615  11.567   5.784
  330POPC   C1E17128   2.733  11.601   5.693
  330POPC   C1F17129   2.729  11.528   5.558
  330POPC   C1G17130   2.625  11.588   5.462
  330POPC   C1H17131   2.644  11.541   5.317
  330POPC   C1I17132   2.779  11.589   5.261
  330POPC   C1J17133   2.800  11.614   5.132
  330POPC   C1K17134   2.692  11.596   5.025
  330POPC   C1L17135   2.755  11.564   4.889
  330POPC   C1M17136   2.808  11.421   4.883
  330POPC   C1N17137   2.888  11.394   4.755
  330POPC   C1O17138   2.919  11.245   4.737
  330POPC   C1P17139   2.791  11.167   4.707
  330POPC   C1Q17140   2.816  11.017   4.696
  330POPC   C1R17141   2.684  10.945   4.666
  330POPC    CE17142   2.860  12.030   6.206
  330POPC    OG17143   2.957  12.085   6.115
  330POPC   C2A17144   2.933  12.208   6.071
  330POPC    OH17145   2.831  12.269   6.104
  330POPC   C2B17146   3.033  12.258   5.974
  330POPC   C2C17147   2.995  12.221   5.831
  330POPC   C2D17148   3.102  12.268   5.732
  330POPC   C2E17149   3.066  12.227   5.589
  330POPC   C2F17150   3.174  12.271   5.491
  330POPC   C2G17151   3.145  12.221   5.349
  330POPC   C2H17152   3.257  12.261   5.253
  330POPC   C2I17153   3.233  12.201   5.115
  330POPC   C2J17154   3.341  12.245   5.016
  330POPC   C2K17155   3.320  12.177   4.880
  330POPC   C2L17156   3.421  12.227   4.777
  330POPC   C2M17157   3.402  12.157   4.643
  330POPC   C2N17158   3.497  12.210   4.534
  330POPC   C2O17159   3.644  12.179   4.563
  330POPC   C2P17160   3.733  12.228   4.449
  331POPC   CN117161   3.866  11.615   6.893
  331POPC   CN217162   3.987  11.447   6.770
  331POPC   CN317163   4.068  11.524   6.980
  331POPC   NTM17164   3.946  11.492   6.905
  331POPC    CA17165   3.874  11.387   6.979
  331POPC    CB17166   3.751  11.317   6.915
  331POPC    OA17167   3.644  11.401   6.871
  331POPC     P17168   3.545  11.320   6.781
  331POPC    OB17169   3.521  11.194   6.852
  331POPC    OC17170   3.437  11.416   6.752
  331POPC    OD17171   3.635  11.293   6.655
  331POPC    CC17172   3.571  11.329   6.533
  331POPC    CD17173   3.659  11.324   6.408
  331POPC    OE17174   3.593  11.384   6.292
  331POPC   C1A17175   3.648  11.495   6.243
  331POPC    OF17176   3.731  11.560   6.308
  331POPC   C1B17177   3.590  11.539   6.114
  331POPC   C1C17178   3.684  11.501   5.999
  331POPC   C1D17179   3.658  11.584   5.873
  331POPC   C1E17180   3.682  11.734   5.898
  331POPC   C1F17181   3.672  11.821   5.773
  331POPC   C1G17182   3.537  11.810   5.702
  331POPC   C1H17183   3.515  11.925   5.604
  331POPC   C1I17184   3.464  12.050   5.676
  331POPC   C1J17185   3.514  12.170   5.648
  331POPC   C1K17186   3.626  12.185   5.545
  331POPC   C1L17187   3.630  12.327   5.490
  331POPC   C1M17188   3.749  12.344   5.396
  331POPC   C1N17189   3.758  12.488   5.345
  331POPC   C1O17190   3.876  12.508   5.249
  331POPC   C1P17191   3.860  12.435   5.115
  331POPC   C1Q17192   3.747  12.493   5.031
  331POPC   C1R17193   3.736  12.421   4.897
  331POPC    CE17194   3.709  11.179   6.392
  331POPC    OG17195   3.762  11.150   6.261
  331POPC   C2A17196   3.817  11.031   6.241
  331POPC    OH17197   3.842  10.954   6.334
  331POPC   C2B17198   3.848  11.008   6.098
  331POPC   C2C17199   3.979  11.075   6.056
  331POPC   C2D17200   3.982  11.097   5.905
  331POPC   C2E17201   4.107  11.176   5.863
  331POPC   C2F17202   4.101  11.224   5.718
  331POPC   C2G17203   3.991  11.328   5.697
  331POPC   C2H17204   3.984  11.377   5.552
  331POPC   C2I17205   3.862  11.466   5.535
  331POPC   C2J17206   3.842  11.514   5.390
  331POPC   C2K17207   3.704  11.579   5.377
  331POPC   C2L17208   3.676  11.634   5.237
  331POPC   C2M17209   3.755  11.762   5.209
  331POPC   C2N17210   3.718  11.822   5.073
  331POPC   C2O17211   3.794  11.952   5.049
  331POPC   C2P17212   3.756  12.013   4.914
  332POPC   CN117213   4.696  11.305   6.967
  332POPC   CN217214   4.771  11.486   6.829
  332POPC   CN317215   4.927  11.338   6.931
  332POPC   NTM17216   4.796  11.347   6.867
  332POPC    CA17217   4.796  11.256   6.750
  332POPC    CB17218   4.677  11.256   6.650
  332POPC    OA17219   4.547  11.251   6.707
  332POPC     P17220   4.433  11.257   6.599
  332POPC    OB17221   4.320  11.313   6.674
  332POPC    OC17222   4.485  11.324   6.479
  332POPC    OD17223   4.416  11.102   6.585
  332POPC    CC17224   4.413  11.058   6.449
  332POPC    CD17225   4.296  10.965   6.415
  332POPC    OE17226   4.313  10.898   6.287
  332POPC   C1A17227   4.262  10.777   6.270
  332POPC    OF17228   4.180  10.730   6.349
  332POPC   C1B17229   4.308  10.710   6.146
  332POPC   C1C17230   4.200  10.704   6.038
  332POPC   C1D17231   4.249  10.613   5.925
  332POPC   C1E17232   4.148  10.593   5.812
  332POPC   C1F17233   4.129  10.719   5.726
  332POPC   C1G17234   4.044  10.685   5.604
  332POPC   C1H17235   4.022  10.804   5.510
  332POPC   C1I17236   3.927  10.908   5.570
  332POPC   C1J17237   3.849  10.980   5.490
  332POPC   C1K17238   3.853  10.961   5.339
  332POPC   C1L17239   3.805  11.087   5.267
  332POPC   C1M17240   3.798  11.064   5.116
  332POPC   C1N17241   3.737  11.184   5.045
  332POPC   C1O17242   3.716  11.153   4.897
  332POPC   C1P17243   3.634  11.263   4.829
  332POPC   C1Q17244   3.597  11.221   4.687
  332POPC   C1R17245   3.502  11.321   4.622
  332POPC    CE17246   4.167  11.047   6.438
  332POPC    OG17247   4.171  11.181   6.386
  332POPC   C2A17248   4.081  11.268   6.432
  332POPC    OH17249   4.002  11.236   6.521
  332POPC   C2B17250   4.100  11.406   6.380
  332POPC   C2C17251   4.061  11.421   6.233
  332POPC   C2D17252   4.083  11.565   6.188
  332POPC   C2E17253   4.071  11.581   6.036
  332POPC   C2F17254   4.098  11.726   5.997
  332POPC   C2G17255   4.107  11.744   5.845
  332POPC   C2H17256   4.132  11.892   5.812
  332POPC   C2I17257   4.157  11.917   5.663
  332POPC   C2J17258   4.035  11.887   5.575
  332POPC   C2K17259   4.061  11.920   5.428
  332POPC   C2L17260   4.169  11.831   5.366
  332POPC   C2M17261   4.195  11.870   5.220
  332POPC   C2N17262   4.304  11.782   5.160
  332POPC   C2O17263   4.329  11.817   5.013
  332POPC   C2P17264   4.436  11.725   4.954
  333POPC   CN117265   5.218  11.636   6.191
  333POPC   CN217266   5.450  11.661   6.227
  333POPC   CN317267   5.300  11.710   6.404
  333POPC   NTM17268   5.325  11.620   6.291
  333POPC    CA17269   5.339  11.479   6.335
  333POPC    CB17270   5.223  11.406   6.407
  333POPC    OA17271   5.102  11.396   6.332
  333POPC     P17272   4.976  11.406   6.426
  333POPC    OB17273   4.913  11.274   6.443
  333POPC    OC17274   5.008  11.490   6.543
  333POPC    OD17275   4.891  11.499   6.333
  333POPC    CC17276   4.818  11.422   6.237
  333POPC    CD17277   4.718  11.506   6.157
  333POPC    OE17278   4.617  11.427   6.089
  333POPC   C1A17279   4.499  11.485   6.064
  333POPC    OF17280   4.468  11.590   6.121
  333POPC   C1B17281   4.410  11.405   5.976
  333POPC   C1C17282   4.463  11.386   5.833
  333POPC   C1D17283   4.484  11.518   5.758
  333POPC   C1E17284   4.532  11.495   5.615
  333POPC   C1F17285   4.419  11.445   5.524
  333POPC   C1G17286   4.468  11.427   5.380
  333POPC   C1H17287   4.353  11.404   5.282
  333POPC   C1I17288   4.289  11.265   5.292
  333POPC   C1J17289   4.212  11.222   5.193
  333POPC   C1K17290   4.189  11.314   5.072
  333POPC   C1L17291   4.158  11.235   4.945
  333POPC   C1M17292   4.135  11.330   4.828
  333POPC   C1N17293   4.097  11.254   4.700
  333POPC   C1O17294   4.078  11.351   4.584
  333POPC   C1P17295   4.036  11.277   4.457
  333POPC   C1Q17296   4.022  11.374   4.339
  333POPC   C1R17297   3.979  11.301   4.212
  333POPC    CE17298   4.799  11.600   6.066
  333POPC    OG17299   4.888  11.537   5.970
  333POPC   C2A17300   4.941  11.619   5.878
  333POPC    OH17301   4.916  11.739   5.877
  333POPC   C2B17302   5.035  11.550   5.787
  333POPC   C2C17303   4.964  11.496   5.663
  333POPC   C2D17304   5.062  11.415   5.578
  333POPC   C2E17305   4.996  11.353   5.454
  333POPC   C2F17306   4.901  11.238   5.489
  333POPC   C2G17307   4.839  11.176   5.363
  333POPC   C2H17308   4.943  11.107   5.274
  333POPC   C2I17309   4.877  11.049   5.149
  333POPC   C2J17310   4.979  10.976   5.061
  333POPC   C2K17311   4.909  10.916   4.939
  333POPC   C2L17312   5.006  10.838   4.850
  333POPC   C2M17313   4.930  10.774   4.734
  333POPC   C2N17314   5.025  10.695   4.643
  333POPC   C2O17315   4.951  10.624   4.529
  333POPC   C2P17316   4.890  10.723   4.429
  334POPC   CN117317   6.270  11.733   5.854
  334POPC   CN217318   6.425  11.913   5.872
  334POPC   CN317319   6.224  11.944   5.751
  334POPC   NTM17320   6.283  11.879   5.868
  334POPC    CA17321   6.223  11.926   5.995
  334POPC    CB17322   6.073  11.906   6.026
  334POPC    OA17323   5.985  11.972   5.936
  334POPC     P17324   5.835  11.962   5.980
  334POPC    OB17325   5.828  11.965   6.127
  334POPC    OC17326   5.755  12.058   5.903
  334POPC    OD17327   5.804  11.818   5.926
  334POPC    CC17328   5.807  11.811   5.783
  334POPC    CD17329   5.775  11.670   5.730
  334POPC    OE17330   5.806  11.644   5.591
  334POPC   C1A17331   5.931  11.618   5.552
  334POPC    OF17332   6.022  11.617   5.636
  334POPC   C1B17333   5.947  11.582   5.409
  334POPC   C1C17334   5.851  11.652   5.311
  334POPC   C1D17335   5.862  11.593   5.171
  334POPC   C1E17336   5.758  11.652   5.076
  334POPC   C1F17337   5.752  11.570   4.946
  334POPC   C1G17338   5.647  11.624   4.849
  334POPC   C1H17339   5.627  11.524   4.734
  334POPC   C1I17340   5.530  11.577   4.628
  334POPC   C1J17341   5.527  11.520   4.508
  334POPC   C1K17342   5.616  11.399   4.479
  334POPC   C1L17343   5.664  11.396   4.334
  334POPC   C1M17344   5.754  11.274   4.311
  334POPC   C1N17345   5.822  11.273   4.173
  334POPC   C1O17346   5.922  11.388   4.157
  334POPC   C1P17347   6.000  11.375   4.026
  334POPC   C1Q17348   6.091  11.495   3.999
  334POPC   C1R17349   6.203  11.510   4.102
  334POPC    CE17350   5.628  11.644   5.768
  334POPC    OG17351   5.533  11.743   5.726
  334POPC   C2A17352   5.404  11.716   5.745
  334POPC    OH17353   5.368  11.608   5.791
  334POPC   C2B17354   5.315  11.827   5.704
  334POPC   C2C17355   5.251  11.810   5.566
  334POPC   C2D17356   5.350  11.823   5.450
  334POPC   C2E17357   5.273  11.839   5.319
  334POPC   C2F17358   5.365  11.861   5.199
  334POPC   C2G17359   5.282  11.906   5.079
  334POPC   C2H17360   5.367  11.925   4.954
  334POPC   C2I17361   5.286  11.985   4.839
  334POPC   C2J17362   5.252  12.132   4.862
  334POPC   C2K17363   5.166  12.193   4.751
  334POPC   C2L17364   5.237  12.196   4.615
  334POPC   C2M17365   5.153  12.263   4.506
  334POPC   C2N17366   5.026  12.185   4.471
  334POPC   C2O17367   4.942  12.257   4.364
  334POPC   C2P17368   5.011  12.259   4.227
  335POPC   CN117369   7.215  11.279   6.611
  335POPC   CN217370   7.312  11.164   6.796
  335POPC   CN317371   7.451  11.241   6.618
  335POPC   NTM17372   7.333  11.273   6.699
  335POPC    CA17373   7.351  11.399   6.775
  335POPC    CB17374   7.352  11.534   6.699
  335POPC    OA17375   7.452  11.549   6.597
  335POPC     P17376   7.412  11.658   6.491
  335POPC    OB17377   7.346  11.766   6.569
  335POPC    OC17378   7.539  11.676   6.420
  335POPC    OD17379   7.311  11.570   6.411
  335POPC    CC17380   7.372  11.495   6.305
  335POPC    CD17381   7.270  11.413   6.224
  335POPC    OE17382   7.324  11.317   6.130
  335POPC   C1A17383   7.377  11.202   6.170
  335POPC    OF17384   7.389  11.174   6.290
  335POPC   C1B17385   7.407  11.113   6.055
  335POPC   C1C17386   7.531  11.025   6.076
  335POPC   C1D17387   7.552  10.926   5.962
  335POPC   C1E17388   7.582  10.995   5.829
  335POPC   C1F17389   7.594  10.894   5.715
  335POPC   C1G17390   7.606  10.967   5.581
  335POPC   C1H17391   7.599  10.872   5.462
  335POPC   C1I17392   7.731  10.800   5.433
  335POPC   C1J17393   7.753  10.756   5.310
  335POPC   C1K17394   7.643  10.779   5.206
  335POPC   C1L17395   7.698  10.786   5.063
  335POPC   C1M17396   7.587  10.809   4.960
  335POPC   C1N17397   7.485  10.694   4.955
  335POPC   C1O17398   7.373  10.724   4.855
  335POPC   C1P17399   7.268  10.612   4.857
  335POPC   C1Q17400   7.155  10.636   4.757
  335POPC   C1R17401   7.202  10.626   4.612
  335POPC    CE17402   7.176  11.517   6.159
  335POPC    OG17403   7.231  11.602   6.057
  335POPC   C2A17404   7.144  11.668   5.981
  335POPC    OH17405   7.023  11.667   6.006
  335POPC   C2B17406   7.209  11.740   5.868
  335POPC   C2C17407   7.119  11.746   5.744
  335POPC   C2D17408   7.194  11.809   5.626
  335POPC   C2E17409   7.102  11.823   5.505
  335POPC   C2F17410   7.181  11.869   5.382
  335POPC   C2G17411   7.088  11.888   5.261
  335POPC   C2H17412   7.170  11.919   5.136
  335POPC   C2I17413   7.079  11.940   5.014
  335POPC   C2J17414   7.163  11.965   4.889
  335POPC   C2K17415   7.075  11.993   4.767
  335POPC   C2L17416   7.159  12.012   4.640
  335POPC   C2M17417   7.244  12.140   4.645
  335POPC   C2N17418   7.345  12.146   4.529
  335POPC   C2O17419   7.278  12.157   4.392
  335POPC   C2P17420   7.383  12.155   4.281
  336POPC   CN117421   6.680  10.519   6.134
  336POPC   CN217422   6.737  10.339   6.277
  336POPC   CN317423   6.826  10.553   6.321
  336POPC   NTM17424   6.706  10.482   6.273
  336POPC    CA17425   6.590  10.509   6.361
  336POPC    CB17426   6.541  10.654   6.383
  336POPC    OA17427   6.505  10.727   6.266
  336POPC     P17428   6.449  10.871   6.296
  336POPC    OB17429   6.379  10.915   6.175
  336POPC    OC17430   6.379  10.863   6.425
  336POPC    OD17431   6.586  10.944   6.319
  336POPC    CC17432   6.638  10.991   6.193
  336POPC    CD17433   6.771  11.067   6.201
  336POPC    OE17434   6.818  11.116   6.073
  336POPC   C1A17435   6.893  11.226   6.069
  336POPC    OF17436   6.902  11.300   6.167
  336POPC   C1B17437   6.956  11.251   5.937
  336POPC   C1C17438   6.871  11.342   5.847
  336POPC   C1D17439   6.939  11.358   5.711
  336POPC   C1E17440   6.852  11.438   5.613
  336POPC   C1F17441   6.920  11.449   5.477
  336POPC   C1G17442   6.831  11.523   5.377
  336POPC   C1H17443   6.896  11.534   5.239
  336POPC   C1I17444   6.798  11.597   5.140
  336POPC   C1J17445   6.813  11.585   5.009
  336POPC   C1K17446   6.933  11.512   4.949
  336POPC   C1L17447   6.966  11.569   4.811
  336POPC   C1M17448   7.091  11.505   4.751
  336POPC   C1N17449   7.122  11.566   4.614
  336POPC   C1O17450   7.253  11.512   4.554
  336POPC   C1P17451   7.378  11.560   4.628
  336POPC   C1Q17452   7.405  11.709   4.607
  336POPC   C1R17453   7.523  11.756   4.691
  336POPC    CE17454   6.870  10.968   6.267
  336POPC    OG17455   6.893  10.846   6.193
  336POPC   C2A17456   7.005  10.840   6.120
  336POPC    OH17457   7.097  10.919   6.140
  336POPC   C2B17458   7.012  10.716   6.039
  336POPC   C2C17459   7.114  10.721   5.926
  336POPC   C2D17460   7.105  10.592   5.844
  336POPC   C2E17461   7.209  10.586   5.733
  336POPC   C2F17462   7.199  10.453   5.659
  336POPC   C2G17463   7.305  10.443   5.549
  336POPC   C2H17464   7.297  10.308   5.478
  336POPC   C2I17465   7.410  10.291   5.377
  336POPC   C2J17466   7.396  10.381   5.253
  336POPC   C2K17467   7.294  10.328   5.152
  336POPC   C2L17468   7.344  10.199   5.085
  336POPC   C2M17469   7.247  10.153   4.976
  336POPC   C2N17470   7.300  10.026   4.909
  336POPC   C2O17471   7.211   9.981   4.792
  336POPC   C2P17472   7.214  10.080   4.675
  337POPC   CN117473   9.094  11.128   6.767
  337POPC   CN217474   9.311  11.056   6.704
  337POPC   CN317475   9.157  11.119   6.535
  337POPC   NTM17476   9.204  11.150   6.671
  337POPC    CA17477   9.260  11.287   6.681
  337POPC    CB17478   9.170  11.412   6.660
  337POPC    OA17479   9.106  11.422   6.533
  337POPC     P17480   8.995  11.533   6.539
  337POPC    OB17481   8.899  11.476   6.634
  337POPC    OC17482   9.066  11.658   6.569
  337POPC    OD17483   8.947  11.533   6.390
  337POPC    CC17484   8.865  11.420   6.359
  337POPC    CD17485   8.805  11.419   6.218
  337POPC    OE17486   8.898  11.386   6.112
  337POPC   C1A17487   8.901  11.261   6.067
  337POPC    OF17488   8.872  11.168   6.142
  337POPC   C1B17489   8.965  11.250   5.934
  337POPC   C1C17490   8.863  11.272   5.823
  337POPC   C1D17491   8.929  11.271   5.686
  337POPC   C1E17492   8.825  11.292   5.576
  337POPC   C1F17493   8.884  11.290   5.435
  337POPC   C1G17494   8.946  11.155   5.393
  337POPC   C1H17495   8.846  11.039   5.390
  337POPC   C1I17496   8.742  11.049   5.278
  337POPC   C1J17497   8.614  11.023   5.307
  337POPC   C1K17498   8.578  10.990   5.452
  337POPC   C1L17499   8.435  11.035   5.484
  337POPC   C1M17500   8.401  11.016   5.632
  337POPC   C1N17501   8.458  11.128   5.720
  337POPC   C1O17502   8.414  11.108   5.865
  337POPC   C1P17503   8.442  11.231   5.951
  337POPC   C1Q17504   8.386  11.209   6.092
  337POPC   C1R17505   8.395  11.337   6.175
  337POPC    CE17506   8.734  11.555   6.199
  337POPC    OG17507   8.645  11.563   6.086
  337POPC   C2A17508   8.587  11.680   6.064
  337POPC    OH17509   8.616  11.780   6.130
  337POPC   C2B17510   8.491  11.674   5.952
  337POPC   C2C17511   8.552  11.735   5.825
  337POPC   C2D17512   8.464  11.714   5.702
  337POPC   C2E17513   8.490  11.579   5.635
  337POPC   C2F17514   8.412  11.572   5.503
  337POPC   C2G17515   8.462  11.460   5.412
  337POPC   C2H17516   8.390  11.469   5.278
  337POPC   C2I17517   8.450  11.377   5.171
  337POPC   C2J17518   8.379  11.401   5.038
  337POPC   C2K17519   8.452  11.334   4.922
  337POPC   C2L17520   8.389  11.376   4.789
  337POPC   C2M17521   8.470  11.322   4.670
  337POPC   C2N17522   8.411  11.371   4.538
  337POPC   C2O17523   8.493  11.324   4.417
  337POPC   C2P17524   8.631  11.389   4.411
  338POPC   CN117525   9.406  11.572   6.142
  338POPC   CN217526   9.193  11.679   6.157
  338POPC   CN317527   9.219  11.453   6.224
  338POPC   NTM17528   9.284  11.585   6.222
  338POPC    CA17529   9.314  11.623   6.362
  338POPC    CB17530   9.392  11.752   6.399
  338POPC    OA17531   9.527  11.759   6.350
  338POPC     P17532   9.614  11.864   6.428
  338POPC    OB17533   9.577  11.854   6.570
  338POPC    OC17534   9.755  11.847   6.387
  338POPC    OD17535   9.559  12.000   6.375
  338POPC    CC17536   9.588  12.019   6.237
  338POPC    CD17537   9.516  12.143   6.182
  338POPC    OE17538   9.491  12.141   6.039
  338POPC   C1A17539   9.390  12.066   5.993
  338POPC    OF17540   9.317  12.004   6.071
  338POPC   C1B17541   9.377  12.066   5.846
  338POPC   C1C17542   9.279  12.173   5.799
  338POPC   C1D17543   9.256  12.160   5.649
  338POPC   C1E17544   9.156  12.264   5.598
  338POPC   C1F17545   9.127  12.244   5.449
  338POPC   C1G17546   9.248  12.275   5.361
  338POPC   C1H17547   9.224  12.235   5.215
  338POPC   C1I17548   9.223  12.083   5.196
  338POPC   C1J17549   9.255  12.029   5.079
  338POPC   C1K17550   9.290  12.118   4.959
  338POPC   C1L17551   9.258  12.045   4.829
  338POPC   C1M17552   9.286  12.134   4.707
  338POPC   C1N17553   9.257  12.063   4.575
  338POPC   C1O17554   9.109  12.027   4.558
  338POPC   C1P17555   9.086  11.954   4.425
  338POPC   C1Q17556   8.940  11.911   4.406
  338POPC   C1R17557   8.845  12.031   4.391
  338POPC    CE17558   9.584  12.267   6.243
  338POPC    OG17559   9.728  12.269   6.239
  338POPC   C2A17560   9.786  12.388   6.254
  338POPC    OH17561   9.719  12.491   6.245
  338POPC   C2B17562   9.934  12.382   6.254
  338POPC   C2C17563   9.988  12.396   6.112
  338POPC   C2D17564  10.141  12.398   6.107
  338POPC   C2E17565  10.191  12.400   5.962
  338POPC   C2F17566  10.165  12.533   5.891
  338POPC   C2G17567  10.197  12.521   5.741
  338POPC   C2H17568  10.182  12.657   5.672
  338POPC   C2I17569  10.187  12.643   5.520
  338POPC   C2J17570  10.175  12.782   5.456
  338POPC   C2K17571  10.141  12.778   5.307
  338POPC   C2L17572  10.252  12.723   5.217
  338POPC   C2M17573  10.203  12.727   5.072
  338POPC   C2N17574  10.310  12.683   4.972
  338POPC   C2O17575  10.255  12.694   4.830
  338POPC   C2P17576  10.361  12.659   4.726
  339POPC   CN117577  11.040  12.076   7.005
  339POPC   CN217578  11.217  12.151   7.144
  339POPC   CN317579  11.175  12.263   6.939
  339POPC   NTM17580  11.111  12.196   7.053
  339POPC    CA17581  11.021  12.287   7.128
  339POPC    CB17582  10.891  12.342   7.063
  339POPC    OA17583  10.911  12.413   6.941
  339POPC     P17584  10.776  12.446   6.868
  339POPC    OB17585  10.677  12.483   6.971
  339POPC    OC17586  10.821  12.546   6.770
  339POPC    OD17587  10.756  12.303   6.806
  339POPC    CC17588  10.836  12.283   6.689
  339POPC    CD17589  10.857  12.135   6.653
  339POPC    OE17590  10.965  12.114   6.558
  339POPC   C1A17591  11.026  11.996   6.553
  339POPC    OF17592  11.004  11.910   6.640
  339POPC   C1B17593  11.124  11.982   6.443
  339POPC   C1C17594  11.084  11.871   6.346
  339POPC   C1D17595  10.968  11.909   6.253
  339POPC   C1E17596  10.919  11.787   6.175
  339POPC   C1F17597  10.819  11.827   6.067
  339POPC   C1G17598  10.755  11.703   6.004
  339POPC   C1H17599  10.670  11.739   5.883
  339POPC   C1I17600  10.587  11.618   5.839
  339POPC   C1J17601  10.566  11.588   5.711
  339POPC   C1K17602  10.625  11.671   5.596
  339POPC   C1L17603  10.548  11.642   5.468
  339POPC   C1M17604  10.609  11.713   5.347
  339POPC   C1N17605  10.529  11.681   5.221
  339POPC   C1O17606  10.588  11.751   5.098
  339POPC   C1P17607  10.505  11.721   4.973
  339POPC   C1Q17608  10.565  11.790   4.850
  339POPC   C1R17609  10.479  11.766   4.726
  339POPC    CE17610  10.719  12.080   6.612
  339POPC    OG17611  10.656  12.143   6.499
  339POPC   C2A17612  10.584  12.064   6.420
  339POPC    OH17613  10.581  11.942   6.434
  339POPC   C2B17614  10.516  12.139   6.311
  339POPC   C2C17615  10.612  12.169   6.196
  339POPC   C2D17616  10.544  12.257   6.091
  339POPC   C2E17617  10.642  12.300   5.982
  339POPC   C2F17618  10.571  12.386   5.877
  339POPC   C2G17619  10.664  12.437   5.767
  339POPC   C2H17620  10.726  12.324   5.685
  339POPC   C2I17621  10.806  12.375   5.565
  339POPC   C2J17622  10.716  12.428   5.453
  339POPC   C2K17623  10.799  12.459   5.329
  339POPC   C2L17624  10.710  12.485   5.207
  339POPC   C2M17625  10.796  12.497   5.082
  339POPC   C2N17626  10.711  12.509   4.955
  339POPC   C2O17627  10.801  12.513   4.831
  339POPC   C2P17628  10.719  12.519   4.702
  340POPC   CN117629  10.947  11.548   6.620
  340POPC   CN217630  10.828  11.651   6.797
  340POPC   CN317631  10.771  11.705   6.573
  340POPC   NTM17632  10.814  11.596   6.662
  340POPC    CA17633  10.712  11.488   6.667
  340POPC    CB17634  10.665  11.417   6.538
  340POPC    OA17635  10.769  11.354   6.464
  340POPC     P17636  10.715  11.301   6.326
  340POPC    OB17637  10.630  11.189   6.371
  340POPC    OC17638  10.664  11.424   6.265
  340POPC    OD17639  10.854  11.256   6.270
  340POPC    CC17640  10.929  11.367   6.224
  340POPC    CD17641  11.073  11.335   6.183
  340POPC    OE17642  11.156  11.455   6.179
  340POPC   C1A17643  11.267  11.461   6.252
  340POPC    OF17644  11.293  11.372   6.335
  340POPC   C1B17645  11.337  11.591   6.242
  340POPC   C1C17646  11.445  11.599   6.133
  340POPC   C1D17647  11.391  11.605   5.989
  340POPC   C1E17648  11.302  11.727   5.964
  340POPC   C1F17649  11.259  11.736   5.818
  340POPC   C1G17650  11.150  11.843   5.801
  340POPC   C1H17651  11.091  11.843   5.660
  340POPC   C1I17652  10.966  11.931   5.656
  340POPC   C1J17653  10.921  11.989   5.545
  340POPC   C1K17654  10.988  11.972   5.409
  340POPC   C1L17655  11.017  12.111   5.349
  340POPC   C1M17656  11.058  12.107   5.202
  340POPC   C1N17657  10.937  12.082   5.111
  340POPC   C1O17658  10.977  12.094   4.964
  340POPC   C1P17659  10.856  12.075   4.872
  340POPC   C1Q17660  10.897  12.087   4.725
  340POPC   C1R17661  10.776  12.069   4.633
  340POPC    CE17662  11.065  11.251   6.054
  340POPC    OG17663  11.005  11.316   5.940
  340POPC   C2A17664  11.088  11.376   5.855
  340POPC    OH17665  11.210  11.356   5.859
  340POPC   C2B17666  11.018  11.450   5.748
  340POPC   C2C17667  11.013  11.369   5.619
  340POPC   C2D17668  10.965  11.456   5.503
  340POPC   C2E17669  10.957  11.372   5.375
  340POPC   C2F17670  10.916  11.455   5.253
  340POPC   C2G17671  11.026  11.549   5.203
  340POPC   C2H17672  10.979  11.618   5.075
  340POPC   C2I17673  11.085  11.709   5.013
  340POPC   C2J17674  11.205  11.633   4.958
  340POPC   C2K17675  11.297  11.728   4.881
  340POPC   C2L17676  11.420  11.655   4.826
  340POPC   C2M17677  11.504  11.750   4.741
  340POPC   C2N17678  11.635  11.686   4.693
  340POPC   C2O17679  11.733  11.662   4.808
  340POPC   C2P17680  11.864  11.602   4.756
  341POPC   CN117681  12.043  11.641   6.762
  341POPC   CN217682  12.040  11.819   6.921
  341POPC   CN317683  12.031  11.870   6.690
  341POPC   NTM17684  11.986  11.774   6.792
  341POPC    CA17685  11.838  11.769   6.805
  341POPC    CB17686  11.749  11.715   6.691
  341POPC    OA17687  11.758  11.784   6.566
  341POPC     P17688  11.680  11.710   6.451
  341POPC    OB17689  11.587  11.609   6.505
  341POPC    OC17690  11.637  11.813   6.357
  341POPC    OD17691  11.805  11.630   6.399
  341POPC    CC17692  11.888  11.710   6.315
  341POPC    CD17693  12.023  11.645   6.277
  341POPC    OE17694  12.103  11.727   6.187
  341POPC   C1A17695  12.164  11.836   6.231
  341POPC    OF17696  12.152  11.873   6.349
  341POPC   C1B17697  12.236  11.910   6.125
  341POPC   C1C17698  12.147  12.022   6.071
  341POPC   C1D17699  12.197  12.084   5.940
  341POPC   C1E17700  12.193  11.982   5.826
  341POPC   C1F17701  12.189  12.048   5.688
  341POPC   C1G17702  12.314  12.128   5.651
  341POPC   C1H17703  12.297  12.179   5.508
  341POPC   C1I17704  12.416  12.260   5.456
  341POPC   C1J17705  12.450  12.245   5.329
  341POPC   C1K17706  12.373  12.143   5.245
  341POPC   C1L17707  12.459  12.082   5.135
  341POPC   C1M17708  12.411  11.941   5.102
  341POPC   C1N17709  12.496  11.878   4.992
  341POPC   C1O17710  12.481  11.725   4.986
  341POPC   C1P17711  12.339  11.678   4.952
  341POPC   C1Q17712  12.333  11.525   4.953
  341POPC   C1R17713  12.192  11.475   4.924
  341POPC    CE17714  11.984  11.509   6.217
  341POPC    OG17715  12.083  11.405   6.213
  341POPC   C2A17716  12.039  11.285   6.175
  341POPC    OH17717  11.920  11.265   6.149
  341POPC   C2B17718  12.145  11.182   6.168
  341POPC   C2C17719  12.213  11.177   6.030
  341POPC   C2D17720  12.120  11.128   5.919
  341POPC   C2E17721  12.183  11.152   5.783
  341POPC   C2F17722  12.089  11.111   5.669
  341POPC   C2G17723  12.145  11.159   5.536
  341POPC   C2H17724  12.048  11.132   5.421
  341POPC   C2I17725  12.103  11.191   5.291
  341POPC   C2J17726  12.007  11.172   5.173
  341POPC   C2K17727  11.995  11.026   5.129
  341POPC   C2L17728  11.897  11.011   5.012
  341POPC   C2M17729  11.947  11.079   4.884
  341POPC   C2N17730  11.843  11.079   4.773
  341POPC   C2O17731  11.724  11.169   4.806
  341POPC   C2P17732  11.620  11.167   4.693
  342POPC   CN117733  13.822  12.470   7.116
  342POPC   CN217734  13.730  12.249   7.120
  342POPC   CN317735  13.644  12.407   6.967
  342POPC   NTM17736  13.767  12.361   7.033
  342POPC    CA17737  13.867  12.311   6.936
  342POPC    CB17738  13.904  12.396   6.812
  342POPC    OA17739  13.952  12.529   6.833
  342POPC     P17740  14.110  12.535   6.824
  342POPC    OB17741  14.152  12.526   6.964
  342POPC    OC17742  14.151  12.434   6.726
  342POPC    OD17743  14.128  12.678   6.763
  342POPC    CC17744  14.082  12.684   6.628
  342POPC    CD17745  14.108  12.820   6.561
  342POPC    OE17746  14.008  12.863   6.465
  342POPC   C1A17747  13.888  12.906   6.505
  342POPC    OF17748  13.854  12.904   6.624
  342POPC   C1B17749  13.801  12.948   6.392
  342POPC   C1C17750  13.702  12.837   6.358
  342POPC   C1D17751  13.602  12.876   6.250
  342POPC   C1E17752  13.496  12.766   6.238
  342POPC   C1F17753  13.380  12.801   6.145
  342POPC   C1G17754  13.419  12.795   5.997
  342POPC   C1H17755  13.296  12.813   5.909
  342POPC   C1I17756  13.332  12.793   5.762
  342POPC   C1J17757  13.257  12.846   5.666
  342POPC   C1K17758  13.133  12.929   5.698
  342POPC   C1L17759  13.101  13.020   5.579
  342POPC   C1M17760  12.972  13.099   5.602
  342POPC   C1N17761  12.939  13.188   5.482
  342POPC   C1O17762  12.901  13.106   5.359
  342POPC   C1P17763  12.874  13.197   5.238
  342POPC   C1Q17764  12.832  13.118   5.114
  342POPC   C1R17765  12.694  13.054   5.129
  342POPC    CE17766  14.253  12.815   6.509
  342POPC    OG17767  14.277  12.709   6.415
  342POPC   C2A17768  14.394  12.704   6.353
  342POPC    OH17769  14.487  12.779   6.383
  342POPC   C2B17770  14.401  12.592   6.257
  342POPC   C2C17771  14.462  12.629   6.121
  342POPC   C2D17772  14.454  12.508   6.029
  342POPC   C2E17773  14.511  12.534   5.889
  342POPC   C2F17774  14.500  12.404   5.808
  342POPC   C2G17775  14.563  12.411   5.669
  342POPC   C2H17776  14.484  12.496   5.569
  342POPC   C2I17777  14.534  12.466   5.428
  342POPC   C2J17778  14.458  12.544   5.319
  342POPC   C2K17779  14.501  12.490   5.183
  342POPC   C2L17780  14.443  12.570   5.066
  342POPC   C2M17781  14.489  12.507   4.934
  342POPC   C2N17782  14.461  12.596   4.814
  342POPC   C2O17783  14.522  12.535   4.688
  342POPC   C2P17784  14.514  12.632   4.569
  343POPC   CN117785  14.644  12.412   6.961
  343POPC   CN217786  14.602  12.214   7.090
  343POPC   CN317787  14.563  12.429   7.183
  343POPC   NTM17788  14.555  12.350   7.060
  343POPC    CA17789  14.414  12.353   7.015
  343POPC    CB17790  14.366  12.268   6.894
  343POPC    OA17791  14.360  12.126   6.911
  343POPC     P17792  14.220  12.073   6.960
  343POPC    OB17793  14.234  11.928   6.971
  343POPC    OC17794  14.183  12.153   7.078
  343POPC    OD17795  14.130  12.116   6.840
  343POPC    CC17796  14.135  12.029   6.727
  343POPC    CD17797  14.077  12.098   6.603
  343POPC    OE17798  14.000  12.016   6.510
  343POPC   C1A17799  13.871  11.997   6.535
  343POPC    OF17800  13.824  12.032   6.644
  343POPC   C1B17801  13.793  11.923   6.432
  343POPC   C1C17802  13.835  11.952   6.287
  343POPC   C1D17803  13.751  11.868   6.190
  343POPC   C1E17804  13.810  11.873   6.049
  343POPC   C1F17805  13.727  11.783   5.956
  343POPC   C1G17806  13.798  11.756   5.823
  343POPC   C1H17807  13.808  11.877   5.730
  343POPC   C1I17808  13.889  11.839   5.606
  343POPC   C1J17809  13.854  11.879   5.484
  343POPC   C1K17810  13.731  11.967   5.462
  343POPC   C1L17811  13.747  12.046   5.332
  343POPC   C1M17812  13.625  12.134   5.306
  343POPC   C1N17813  13.642  12.208   5.173
  343POPC   C1O17814  13.523  12.299   5.145
  343POPC   C1P17815  13.543  12.374   5.013
  343POPC   C1Q17816  13.427  12.470   4.988
  343POPC   C1R17817  13.449  12.547   4.857
  343POPC    CE17818  14.185  12.192   6.547
  343POPC    OG17819  14.314  12.133   6.518
  343POPC   C2A17820  14.408  12.216   6.477
  343POPC    OH17821  14.395  12.339   6.486
  343POPC   C2B17822  14.535  12.149   6.442
  343POPC   C2C17823  14.587  12.196   6.306
  343POPC   C2D17824  14.729  12.145   6.282
  343POPC   C2E17825  14.783  12.182   6.144
  343POPC   C2F17826  14.729  12.090   6.034
  343POPC   C2G17827  14.794  12.124   5.899
  343POPC   C2H17828  14.779  12.008   5.802
  343POPC   C2I17829  14.838  12.041   5.665
  343POPC   C2J17830  14.841  11.917   5.576
  343POPC   C2K17831  14.887  11.948   5.433
  343POPC   C2L17832  14.780  12.020   5.352
  343POPC   C2M17833  14.831  12.055   5.213
  343POPC   C2N17834  14.718  12.114   5.127
  343POPC   C2O17835  14.767  12.159   4.989
  343POPC   C2P17836  14.817  12.043   4.903
  344POPC   CN117837  14.799  13.047   6.398
  344POPC   CN217838  14.803  12.841   6.281
  344POPC   CN317839  14.986  12.904   6.426
  344POPC   NTM17840  14.840  12.907   6.408
  344POPC    CA17841  14.768  12.849   6.523
  344POPC    CB17842  14.778  12.698   6.556
  344POPC    OA17843  14.907  12.648   6.594
  344POPC     P17844  14.915  12.493   6.565
  344POPC    OB17845  15.040  12.447   6.627
  344POPC    OC17846  14.787  12.430   6.603
  344POPC    OD17847  14.930  12.505   6.410
  344POPC    CC17848  15.067  12.519   6.370
  344POPC    CD17849  15.093  12.561   6.224
  344POPC    OE17850  15.104  12.705   6.207
  344POPC   C1A17851  15.198  12.747   6.123
  344POPC    OF17852  15.280  12.668   6.076
  344POPC   C1B17853  15.202  12.894   6.105
  344POPC   C1C17854  15.118  12.939   5.985
  344POPC   C1D17855  15.138  13.089   5.960
  344POPC   C1E17856  15.068  13.136   5.832
  344POPC   C1F17857  15.122  13.065   5.708
  344POPC   C1G17858  15.045  13.105   5.583
  344POPC   C1H17859  15.091  13.019   5.465
  344POPC   C1I17860  15.018  13.058   5.336
  344POPC   C1J17861  15.076  13.032   5.220
  344POPC   C1K17862  15.213  12.964   5.220
  344POPC   C1L17863  15.297  13.008   5.100
  344POPC   C1M17864  15.438  12.949   5.104
  344POPC   C1N17865  15.441  12.798   5.077
  344POPC   C1O17866  15.586  12.751   5.064
  344POPC   C1P17867  15.594  12.603   5.026
  344POPC   C1Q17868  15.738  12.557   5.004
  344POPC   C1R17869  15.802  12.622   4.881
  344POPC    CE17870  14.991  12.486   6.136
  344POPC    OG17871  15.003  12.504   5.994
  344POPC   C2A17872  14.926  12.595   5.935
  344POPC    OH17873  14.840  12.656   5.999
  344POPC   C2B17874  14.952  12.614   5.790
  344POPC   C2C17875  14.989  12.487   5.714
  344POPC   C2D17876  15.053  12.519   5.578
  344POPC   C2E17877  14.953  12.564   5.471
  344POPC   C2F17878  15.030  12.627   5.355
  344POPC   C2G17879  14.945  12.650   5.230
  344POPC   C2H17880  14.929  12.521   5.150
  344POPC   C2I17881  14.873  12.545   5.009
  344POPC   C2J17882  14.967  12.630   4.922
  344POPC   C2K17883  14.911  12.646   4.781
  344POPC   C2L17884  14.992  12.747   4.700
  344POPC   C2M17885  14.934  12.764   4.560
  344POPC   C2N17886  15.004  12.874   4.480
  344POPC   C2O17887  15.151  12.841   4.450
  344POPC   C2P17888  15.218  12.953   4.370
  345POPC   CN117889  15.565  13.198   6.814
  345POPC   CN217890  15.554  13.078   6.608
  345POPC   CN317891  15.556  12.961   6.815
  345POPC   NTM17892  15.506  13.081   6.747
  345POPC    CA17893  15.358  13.080   6.754
  345POPC    CB17894  15.275  13.190   6.683
  345POPC    OA17895  15.299  13.325   6.726
  345POPC     P17896  15.277  13.426   6.608
  345POPC    OB17897  15.158  13.386   6.532
  345POPC    OC17898  15.293  13.562   6.662
  345POPC    OD17899  15.408  13.397   6.528
  345POPC    CC17900  15.409  13.471   6.406
  345POPC    CD17901  15.549  13.495   6.346
  345POPC    OE17902  15.543  13.572   6.224
  345POPC   C1A17903  15.565  13.703   6.226
  345POPC    OF17904  15.580  13.762   6.334
  345POPC   C1B17905  15.550  13.771   6.095
  345POPC   C1C17906  15.597  13.691   5.973
  345POPC   C1D17907  15.579  13.770   5.843
  345POPC   C1E17908  15.431  13.797   5.810
  345POPC   C1F17909  15.419  13.874   5.679
  345POPC   C1G17910  15.273  13.897   5.642
  345POPC   C1H17911  15.263  13.970   5.508
  345POPC   C1I17912  15.118  13.984   5.461
  345POPC   C1J17913  15.093  13.985   5.330
  345POPC   C1K17914  15.212  13.971   5.234
  345POPC   C1L17915  15.177  13.898   5.105
  345POPC   C1M17916  15.094  13.983   5.009
  345POPC   C1N17917  15.077  13.909   4.876
  345POPC   C1O17918  15.001  13.994   4.774
  345POPC   C1P17919  14.990  13.924   4.639
  345POPC   C1Q17920  15.126  13.912   4.568
  345POPC   C1R17921  15.112  13.835   4.437
  345POPC    CE17922  15.618  13.358   6.330
  345POPC    OG17923  15.551  13.263   6.245
  345POPC   C2A17924  15.613  13.234   6.130
  345POPC    OH17925  15.727  13.274   6.105
  345POPC   C2B17926  15.535  13.139   6.047
  345POPC   C2C17927  15.556  13.154   5.895
  345POPC   C2D17928  15.501  13.286   5.841
  345POPC   C2E17929  15.524  13.295   5.690
  345POPC   C2F17930  15.474  13.430   5.637
  345POPC   C2G17931  15.497  13.447   5.486
  345POPC   C2H17932  15.404  13.359   5.402
  345POPC   C2I17933  15.427  13.379   5.252
  345POPC   C2J17934  15.560  13.320   5.205
  345POPC   C2K17935  15.581  13.345   5.056
  345POPC   C2L17936  15.705  13.270   5.007
  345POPC   C2M17937  15.736  13.303   4.861
  345POPC   C2N17938  15.860  13.226   4.812
  345POPC   C2O17939  15.904  13.269   4.672
  345POPC   C2P17940  15.801  13.236   4.564
  346POPC   CN117941   0.250  12.808   6.881
  346POPC   CN217942   0.020  12.826   6.815
  346POPC   CN317943   0.080  12.706   7.010
  346POPC   NTM17944   0.112  12.825   6.929
  346POPC    CA17945   0.097  12.945   7.015
  346POPC    CB17946   0.142  13.085   6.965
  346POPC    OA17947   0.084  13.129   6.843
  346POPC     P17948   0.184  13.221   6.764
  346POPC    OB17949   0.184  13.349   6.836
  346POPC    OC17950   0.306  13.140   6.753
  346POPC    OD17951   0.100  13.226   6.631
  346POPC    CC17952   0.116  13.107   6.554
  346POPC    CD17953  16.967  13.053   6.495
  346POPC    OE17954  16.980  12.917   6.446
  346POPC   C1A17955  16.873  12.837   6.435
  346POPC    OF17956  16.769  12.862   6.497
  346POPC   C1B17957  16.901  12.711   6.362
  346POPC   C1C17958  16.840  12.706   6.222
  346POPC   C1D17959  16.899  12.808   6.124
  346POPC   C1E17960  16.843  12.788   5.983
  346POPC   C1F17961  16.907  12.885   5.883
  346POPC   C1G17962  16.866  12.849   5.740
  346POPC   C1H17963  16.931  12.942   5.637
  346POPC   C1I17964  16.896  12.898   5.494
  346POPC   C1J17965  16.971  12.933   5.390
  346POPC   C1K17966   0.111  13.022   5.410
  346POPC   C1L17967   0.220  12.991   5.306
  346POPC   C1M17968   0.341  13.083   5.329
  346POPC   C1N17969   0.461  13.048   5.241
  346POPC   C1O17970   0.437  13.076   5.093
  346POPC   C1P17971   0.563  13.041   5.013
  346POPC   C1Q17972   0.544  13.068   4.864
  346POPC   C1R17973   0.670  13.031   4.785
  346POPC    CE17974  16.920  13.160   6.395
  346POPC    OG17975   0.029  13.192   6.289
  346POPC   C2A17976   0.022  13.314   6.236
  346POPC    OH17977  16.935  13.401   6.287
  346POPC   C2B17978   0.115  13.336   6.124
  346POPC   C2C17979   0.041  13.337   5.990
  346POPC   C2D17980   0.139  13.368   5.877
  346POPC   C2E17981   0.069  13.375   5.741
  346POPC   C2F17982   0.172  13.407   5.632
  346POPC   C2G17983   0.109  13.417   5.493
  346POPC   C2H17984   0.218  13.451   5.391
  346POPC   C2I17985   0.163  13.456   5.249
  346POPC   C2J17986   0.274  13.492   5.151
  346POPC   C2K17987   0.220  13.504   5.008
  346POPC   C2L17988   0.331  13.549   4.912
  346POPC   C2M17989   0.277  13.559   4.769
  346POPC   C2N17990   0.383  13.608   4.670
  346POPC   C2O17991   0.499  13.510   4.649
  346POPC   C2P17992   0.456  13.383   4.575
  347POPC   CN117993   1.185  12.710   6.993
  347POPC   CN217994   1.092  12.829   6.812
  347POPC   CN317995   0.949  12.725   6.973
  347POPC   NTM17996   1.075  12.798   6.954
  347POPC    CA17997   1.081  12.920   7.040
  347POPC    CB17998   0.973  13.030   7.026
  347POPC    OA17999   0.971  13.093   6.899
  347POPC     P18000   0.847  13.187   6.877
  347POPC    OB18001   0.779  13.214   7.004
  347POPC    OC18002   0.888  13.297   6.788
  347POPC    OD18003   0.749  13.089   6.805
  347POPC    CC18004   0.796  13.054   6.675
  347POPC    CD18005   0.691  12.978   6.593
  347POPC    OE18006   0.747  12.902   6.483
  347POPC   C1A18007   0.799  12.781   6.503
  347POPC    OF18008   0.788  12.723   6.612
  347POPC   C1B18009   0.868  12.727   6.383
  347POPC   C1C18010   0.771  12.678   6.276
  347POPC   C1D18011   0.848  12.641   6.149
  347POPC   C1E18012   0.755  12.599   6.036
  347POPC   C1F18013   0.837  12.565   5.910
  347POPC   C1G18014   0.750  12.518   5.793
  347POPC   C1H18015   0.681  12.385   5.823
  347POPC   C1I18016   0.601  12.334   5.703
  347POPC   C1J18017   0.588  12.202   5.687
  347POPC   C1K18018   0.655  12.110   5.789
  347POPC   C1L18019   0.581  11.977   5.804
  347POPC   C1M18020   0.650  11.891   5.910
  347POPC   C1N18021   0.582  11.755   5.929
  347POPC   C1O18022   0.439  11.767   5.985
  347POPC   C1P18023   0.376  11.630   6.011
  347POPC   C1Q18024   0.442  11.558   6.129
  347POPC   C1R18025   0.375  11.423   6.157
  347POPC    CE18026   0.582  13.081   6.555
  347POPC    OG18027   0.633  13.197   6.487
  347POPC   C2A18028   0.543  13.279   6.432
  347POPC    OH18029   0.422  13.262   6.447
  347POPC   C2B18030   0.605  13.395   6.365
  347POPC   C2C18031   0.544  13.424   6.228
  347POPC   C2D18032   0.600  13.333   6.119
  347POPC   C2E18033   0.538  13.367   5.983
  347POPC   C2F18034   0.622  13.311   5.869
  347POPC   C2G18035   0.566  13.353   5.733
  347POPC   C2H18036   0.671  13.334   5.624
  347POPC   C2I18037   0.620  13.376   5.486
  347POPC   C2J18038   0.736  13.381   5.387
  347POPC   C2K18039   0.692  13.416   5.245
  347POPC   C2L18040   0.816  13.436   5.158
  347POPC   C2M18041   0.783  13.463   5.012
  347POPC   C2N18042   0.912  13.495   4.935
  347POPC   C2O18043   0.889  13.512   4.785
  347POPC   C2P18044   0.860  13.379   4.716
  348POPC   CN118045   1.800  12.783   7.078
  348POPC   CN218046   1.712  12.789   7.299
  348POPC   CN318047   1.776  12.991   7.193
  348POPC   NTM18048   1.715  12.860   7.171
  348POPC    CA18049   1.575  12.873   7.122
  348POPC    CB18050   1.547  12.922   6.978
  348POPC    OA18051   1.609  13.045   6.944
  348POPC     P18052   1.591  13.080   6.792
  348POPC    OB18053   1.474  13.012   6.735
  348POPC    OC18054   1.629  13.221   6.771
  348POPC    OD18055   1.717  12.997   6.751
  348POPC    CC18056   1.742  13.013   6.612
  348POPC    CD18057   1.822  12.895   6.553
  348POPC    OE18058   1.884  12.920   6.423
  348POPC   C1A18059   2.007  12.969   6.418
  348POPC    OF18060   2.071  12.987   6.523
  348POPC   C1B18061   2.058  12.992   6.281
  348POPC   C1C18062   2.086  13.140   6.257
  348POPC   C1D18063   2.157  13.169   6.124
  348POPC   C1E18064   2.297  13.107   6.121
  348POPC   C1F18065   2.388  13.167   6.014
  348POPC   C1G18066   2.341  13.141   5.871
  348POPC   C1H18067   2.445  13.197   5.774
  348POPC   C1I18068   2.410  13.172   5.627
  348POPC   C1J18069   2.509  13.143   5.543
  348POPC   C1K18070   2.650  13.131   5.601
  348POPC   C1L18071   2.759  13.177   5.503
  348POPC   C1M18072   2.898  13.154   5.564
  348POPC   C1N18073   2.933  13.005   5.570
  348POPC   C1O18074   3.055  12.975   5.656
  348POPC   C1P18075   3.027  12.995   5.805
  348POPC   C1Q18076   3.147  12.953   5.890
  348POPC   C1R18077   3.117  12.967   6.039
  348POPC    CE18078   1.735  12.770   6.569
  348POPC    OG18079   1.599  12.784   6.524
  348POPC   C2A18080   1.507  12.704   6.575
  348POPC    OH18081   1.538  12.612   6.652
  348POPC   C2B18082   1.370  12.740   6.534
  348POPC   C2C18083   1.283  12.619   6.496
  348POPC   C2D18084   1.318  12.561   6.358
  348POPC   C2E18085   1.275  12.655   6.245
  348POPC   C2F18086   1.309  12.595   6.108
  348POPC   C2G18087   1.262  12.690   5.997
  348POPC   C2H18088   1.300  12.637   5.858
  348POPC   C2I18089   1.252  12.735   5.751
  348POPC   C2J18090   1.298  12.699   5.610
  348POPC   C2K18091   1.230  12.573   5.554
  348POPC   C2L18092   1.276  12.552   5.409
  348POPC   C2M18093   1.210  12.428   5.348
  348POPC   C2N18094   1.253  12.410   5.202
  348POPC   C2O18095   1.183  12.289   5.139
  348POPC   C2P18096   1.222  12.275   4.992
  349POPC   CN118097   2.450  11.855   6.637
  349POPC   CN218098   2.330  11.648   6.626
  349POPC   CN318099   2.528  11.664   6.755
  349POPC   NTM18100   2.408  11.737   6.713
  349POPC    CA18101   2.332  11.773   6.836
  349POPC    CB18102   2.209  11.866   6.831
  349POPC    OA18103   2.108  11.833   6.736
  349POPC     P18104   1.983  11.926   6.751
  349POPC    OB18105   1.883  11.875   6.657
  349POPC    OC18106   1.950  11.934   6.894
  349POPC    OD18107   2.044  12.062   6.707
  349POPC    CC18108   2.023  12.093   6.570
  349POPC    CD18109   2.088  12.227   6.531
  349POPC    OE18110   2.031  12.289   6.413
  349POPC   C1A18111   1.919  12.359   6.424
  349POPC    OF18112   1.881  12.395   6.536
  349POPC   C1B18113   1.866  12.404   6.293
  349POPC   C1C18114   1.757  12.511   6.306
  349POPC   C1D18115   1.726  12.578   6.171
  349POPC   C1E18116   1.846  12.661   6.124
  349POPC   C1F18117   1.823  12.720   5.985
  349POPC   C1G18118   1.952  12.788   5.938
  349POPC   C1H18119   1.938  12.840   5.795
  349POPC   C1I18120   2.071  12.894   5.744
  349POPC   C1J18121   2.100  12.884   5.615
  349POPC   C1K18122   1.998  12.820   5.520
  349POPC   C1L18123   2.062  12.754   5.398
  349POPC   C1M18124   2.132  12.853   5.304
  349POPC   C1N18125   2.185  12.780   5.181
  349POPC   C1O18126   2.262  12.876   5.090
  349POPC   C1P18127   2.314  12.803   4.967
  349POPC   C1Q18128   2.396  12.897   4.878
  349POPC   C1R18129   2.452  12.822   4.757
  349POPC    CE18130   2.240  12.203   6.529
  349POPC    OG18131   2.285  12.103   6.435
  349POPC   C2A18132   2.392  12.135   6.362
  349POPC    OH18133   2.463  12.231   6.392
  349POPC   C2B18134   2.417  12.039   6.252
  349POPC   C2C18135   2.476  12.112   6.130
  349POPC   C2D18136   2.493  12.021   6.009
  349POPC   C2E18137   2.558  12.102   5.896
  349POPC   C2F18138   2.580  12.020   5.769
  349POPC   C2G18139   2.658  12.105   5.668
  349POPC   C2H18140   2.688  12.033   5.537
  349POPC   C2I18141   2.564  12.017   5.448
  349POPC   C2J18142   2.600  11.964   5.309
  349POPC   C2K18143   2.688  12.063   5.232
  349POPC   C2L18144   2.720  12.014   5.091
  349POPC   C2M18145   2.807  12.116   5.018
  349POPC   C2N18146   2.832  12.075   4.873
  349POPC   C2O18147   2.913  12.183   4.800
  349POPC   C2P18148   2.933  12.146   4.653
  350POPC   CN118149   3.702  12.240   6.650
  350POPC   CN218150   3.608  12.277   6.437
  350POPC   CN318151   3.604  12.057   6.534
  350POPC   NTM18152   3.592  12.201   6.562
  350POPC    CA18153   3.465  12.232   6.631
  350POPC    CB18154   3.327  12.203   6.565
  350POPC    OA18155   3.302  12.274   6.444
  350POPC     P18156   3.173  12.221   6.371
  350POPC    OB18157   3.074  12.184   6.474
  350POPC    OC18158   3.140  12.321   6.270
  350POPC    OD18159   3.245  12.096   6.308
  350POPC    CC18160   3.318  12.130   6.189
  350POPC    CD18161   3.423  12.028   6.144
  350POPC    OE18162   3.517  12.082   6.047
  350POPC   C1A18163   3.642  12.111   6.082
  350POPC    OF18164   3.688  12.076   6.192
  350POPC   C1B18165   3.720  12.177   5.975
  350POPC   C1C18166   3.721  12.329   5.991
  350POPC   C1D18167   3.785  12.396   5.870
  350POPC   C1E18168   3.787  12.548   5.883
  350POPC   C1F18169   3.831  12.614   5.752
  350POPC   C1G18170   3.840  12.766   5.768
  350POPC   C1H18171   3.877  12.834   5.635
  350POPC   C1I18172   3.905  12.983   5.657
  350POPC   C1J18173   3.890  13.072   5.560
  350POPC   C1K18174   3.843  13.033   5.420
  350POPC   C1L18175   3.803  13.158   5.341
  350POPC   C1M18176   3.751  13.127   5.200
  350POPC   C1N18177   3.856  13.065   5.108
  350POPC   C1O18178   3.799  13.047   4.967
  350POPC   C1P18179   3.898  12.982   4.870
  350POPC   C1Q18180   3.925  12.835   4.903
  350POPC   C1R18181   4.024  12.773   4.804
  350POPC    CE18182   3.348  11.899   6.104
  350POPC    OG18183   3.249  11.912   6.000
  350POPC   C2A18184   3.177  11.804   5.972
  350POPC    OH18185   3.189  11.699   6.035
  350POPC   C2B18186   3.082  11.826   5.860
  350POPC   C2C18187   3.151  11.800   5.726
  350POPC   C2D18188   3.060  11.828   5.606
  350POPC   C2E18189   3.141  11.810   5.478
  350POPC   C2F18190   3.057  11.833   5.351
  350POPC   C2G18191   3.140  11.810   5.224
  350POPC   C2H18192   3.184  11.664   5.211
  350POPC   C2I18193   3.274  11.638   5.090
  350POPC   C2J18194   3.202  11.654   4.956
  350POPC   C2K18195   3.294  11.608   4.842
  350POPC   C2L18196   3.230  11.618   4.704
  350POPC   C2M18197   3.214  11.763   4.656
  350POPC   C2N18198   3.168  11.764   4.511
  350POPC   C2O18199   3.163  11.906   4.454
  350POPC   C2P18200   3.122  11.905   4.307
  351POPC   CN118201   4.067  12.985   6.747
  351POPC   CN218202   3.987  12.910   6.957
  351POPC   CN318203   3.944  12.779   6.764
  351POPC   NTM18204   4.043  12.865   6.829
  351POPC    CA18205   4.170  12.793   6.857
  351POPC    CB18206   4.256  12.735   6.741
  351POPC    OA18207   4.197  12.630   6.664
  351POPC     P18208   4.288  12.590   6.541
  351POPC    OB18209   4.426  12.587   6.593
  351POPC    OC18210   4.224  12.470   6.486
  351POPC    OD18211   4.260  12.715   6.452
  351POPC    CC18212   4.136  12.705   6.382
  351POPC    CD18213   4.065  12.840   6.367
  351POPC    OE18214   3.923  12.827   6.334
  351POPC   C1A18215   3.843  12.930   6.361
  351POPC    OF18216   3.872  13.008   6.452
  351POPC   C1B18217   3.711  12.917   6.295
  351POPC   C1C18218   3.656  13.053   6.250
  351POPC   C1D18219   3.532  13.038   6.161
  351POPC   C1E18220   3.564  12.982   6.022
  351POPC   C1F18221   3.643  13.081   5.934
  351POPC   C1G18222   3.557  13.196   5.880
  351POPC   C1H18223   3.463  13.150   5.768
  351POPC   C1I18224   3.380  13.267   5.715
  351POPC   C1J18225   3.339  13.266   5.588
  351POPC   C1K18226   3.380  13.149   5.498
  351POPC   C1L18227   3.360  13.177   5.349
  351POPC   C1M18228   3.212  13.181   5.309
  351POPC   C1N18229   3.197  13.198   5.158
  351POPC   C1O18230   3.050  13.206   5.114
  351POPC   C1P18231   2.974  13.075   5.138
  351POPC   C1Q18232   2.828  13.084   5.092
  351POPC   C1R18233   2.815  13.092   4.940
  351POPC    CE18234   4.152  12.925   6.273
  351POPC    OG18235   4.167  12.875   6.138
  351POPC   C2A18236   4.216  12.960   6.048
  351POPC    OH18237   4.233  13.079   6.076
  351POPC   C2B18238   4.226  12.902   5.912
  351POPC   C2C18239   4.357  12.941   5.843
  351POPC   C2D18240   4.339  12.966   5.693
  351POPC   C2E18241   4.303  12.840   5.614
  351POPC   C2F18242   4.262  12.879   5.472
  351POPC   C2G18243   4.223  12.756   5.389
  351POPC   C2H18244   4.156  12.793   5.257
  351POPC   C2I18245   4.247  12.868   5.158
  351POPC   C2J18246   4.357  12.778   5.101
  351POPC   C2K18247   4.441  12.856   5.000
  351POPC   C2L18248   4.556  12.773   4.942
  351POPC   C2M18249   4.509  12.658   4.852
  351POPC   C2N18250   4.626  12.585   4.786
  351POPC   C2O18251   4.716  12.513   4.887
  351POPC   C2P18252   4.838  12.452   4.818
  352POPC   CN118253   4.333  12.063   6.569
  352POPC   CN218254   4.568  12.027   6.554
  352POPC   CN318255   4.454  12.151   6.385
  352POPC   NTM18256   4.460  12.124   6.529
  352POPC    CA18257   4.478  12.248   6.608
  352POPC    CB18258   4.599  12.341   6.582
  352POPC    OA18259   4.730  12.285   6.601
  352POPC     P18260   4.836  12.379   6.533
  352POPC    OB18261   4.812  12.518   6.574
  352POPC    OC18262   4.966  12.315   6.560
  352POPC    OD18263   4.798  12.352   6.384
  352POPC    CC18264   4.905  12.380   6.294
  352POPC    CD18265   4.912  12.282   6.176
  352POPC    OE18266   5.021  12.313   6.085
  352POPC   C1A18267   5.089  12.210   6.032
  352POPC    OF18268   5.081  12.098   6.082
  352POPC   C1B18269   5.188  12.251   5.930
  352POPC   C1C18270   5.133  12.242   5.788
  352POPC   C1D18271   5.244  12.265   5.685
  352POPC   C1E18272   5.194  12.238   5.543
  352POPC   C1F18273   5.311  12.218   5.446
  352POPC   C1G18274   5.376  12.346   5.393
  352POPC   C1H18275   5.296  12.404   5.275
  352POPC   C1I18276   5.381  12.506   5.199
  352POPC   C1J18277   5.327  12.599   5.122
  352POPC   C1K18278   5.176  12.612   5.103
  352POPC   C1L18279   5.140  12.759   5.080
  352POPC   C1M18280   4.990  12.781   5.055
  352POPC   C1N18281   4.957  12.930   5.045
  352POPC   C1O18282   5.018  13.000   4.922
  352POPC   C1P18283   4.947  12.965   4.791
  352POPC   C1Q18284   4.808  13.029   4.782
  352POPC   C1R18285   4.737  12.990   4.652
  352POPC    CE18286   4.771  12.279   6.113
  352POPC    OG18287   4.755  12.184   6.006
  352POPC   C2A18288   4.632  12.139   5.982
  352POPC    OH18289   4.535  12.180   6.047
  352POPC   C2B18290   4.624  12.040   5.873
  352POPC   C2C18291   4.586  12.108   5.741
  352POPC   C2D18292   4.571  12.007   5.626
  352POPC   C2E18293   4.704  11.944   5.585
  352POPC   C2F18294   4.683  11.846   5.470
  352POPC   C2G18295   4.816  11.793   5.417
  352POPC   C2H18296   4.793  11.702   5.297
  352POPC   C2I18297   4.926  11.670   5.227
  352POPC   C2J18298   4.901  11.597   5.096
  352POPC   C2K18299   5.029  11.591   5.012
  352POPC   C2L18300   4.996  11.546   4.870
  352POPC   C2M18301   5.118  11.562   4.777
  352POPC   C2N18302   5.082  11.532   4.631
  352POPC   C2O18303   4.986  11.635   4.573
  352POPC   C2P18304   4.946  11.599   4.429
  353POPC   CN118305   5.608  12.416   5.995
  353POPC   CN218306   5.674  12.527   6.197
  353POPC   CN318307   5.693  12.293   6.177
  353POPC   NTM18308   5.706  12.419   6.104
  353POPC    CA18309   5.846  12.429   6.054
  353POPC    CB18310   5.888  12.546   5.961
  353POPC    OA18311   5.860  12.679   6.007
  353POPC     P18312   5.976  12.749   6.086
  353POPC    OB18313   5.925  12.880   6.128
  353POPC    OC18314   6.027  12.655   6.188
  353POPC    OD18315   6.087  12.769   5.977
  353POPC    CC18316   6.053  12.867   5.879
  353POPC    CD18317   6.161  12.876   5.768
  353POPC    OE18318   6.152  12.992   5.680
  353POPC   C1A18319   6.190  13.112   5.722
  353POPC    OF18320   6.228  13.130   5.838
  353POPC   C1B18321   6.176  13.217   5.618
  353POPC   C1C18322   6.305  13.232   5.536
  353POPC   C1D18323   6.288  13.333   5.422
  353POPC   C1E18324   6.422  13.354   5.351
  353POPC   C1F18325   6.417  13.457   5.238
  353POPC   C1G18326   6.350  13.403   5.112
  353POPC   C1H18327   6.357  13.506   4.998
  353POPC   C1I18328   6.301  13.445   4.870
  353POPC   C1J18329   6.346  13.482   4.750
  353POPC   C1K18330   6.453  13.591   4.735
  353POPC   C1L18331   6.461  13.642   4.590
  353POPC   C1M18332   6.534  13.544   4.497
  353POPC   C1N18333   6.686  13.555   4.509
  353POPC   C1O18334   6.755  13.449   4.423
  353POPC   C1P18335   6.905  13.477   4.404
  353POPC   C1Q18336   6.928  13.599   4.314
  353POPC   C1R18337   7.077  13.623   4.289
  353POPC    CE18338   6.158  12.741   5.695
  353POPC    OG18339   6.037  12.714   5.622
  353POPC   C2A18340   6.045  12.621   5.527
  353POPC    OH18341   6.146  12.552   5.511
  353POPC   C2B18342   5.919  12.611   5.449
  353POPC   C2C18343   5.946  12.595   5.299
  353POPC   C2D18344   5.815  12.585   5.221
  353POPC   C2E18345   5.843  12.564   5.072
  353POPC   C2F18346   5.713  12.545   4.994
  353POPC   C2G18347   5.742  12.512   4.847
  353POPC   C2H18348   5.615  12.482   4.766
  353POPC   C2I18349   5.530  12.607   4.743
  353POPC   C2J18350   5.409  12.572   4.656
  353POPC   C2K18351   5.329  12.697   4.618
  353POPC   C2L18352   5.211  12.659   4.527
  353POPC   C2M18353   5.135  12.783   4.479
  353POPC   C2N18354   5.017  12.742   4.391
  353POPC   C2O18355   4.942  12.866   4.341
  353POPC   C2P18356   4.822  12.827   4.255
  354POPC   CN118357   6.514  12.697   6.305
  354POPC   CN218358   6.401  12.720   6.099
  354POPC   CN318359   6.571  12.551   6.128
  354POPC   NTM18360   6.459  12.621   6.192
  354POPC    CA18361   6.356  12.528   6.242
  354POPC    CB18362   6.264  12.453   6.142
  354POPC    OA18363   6.328  12.378   6.039
  354POPC     P18364   6.220  12.350   5.927
  354POPC    OB18365   6.121  12.267   5.997
  354POPC    OC18366   6.189  12.483   5.875
  354POPC    OD18367   6.310  12.269   5.826
  354POPC    CC18368   6.403  12.355   5.761
  354POPC    CD18369   6.500  12.283   5.667
  354POPC    OE18370   6.622  12.359   5.645
  354POPC   C1A18371   6.733  12.291   5.615
  354POPC    OF18372   6.740  12.173   5.650
  354POPC   C1B18373   6.848  12.377   5.580
  354POPC   C1C18374   6.924  12.329   5.455
  354POPC   C1D18375   6.842  12.351   5.328
  354POPC   C1E18376   6.920  12.314   5.202
  354POPC   C1F18377   6.839  12.352   5.079
  354POPC   C1G18378   6.916  12.329   4.949
  354POPC   C1H18379   6.836  12.383   4.831
  354POPC   C1I18380   6.912  12.370   4.699
  354POPC   C1J18381   6.844  12.366   4.585
  354POPC   C1K18382   6.691  12.372   4.588
  354POPC   C1L18383   6.626  12.307   4.466
  354POPC   C1M18384   6.638  12.394   4.340
  354POPC   C1N18385   6.576  12.324   4.220
  354POPC   C1O18386   6.578  12.412   4.096
  354POPC   C1P18387   6.525  12.335   3.974
  354POPC   C1Q18388   6.512  12.424   3.850
  354POPC   C1R18389   6.397  12.524   3.862
  354POPC    CE18390   6.417  12.243   5.543
  354POPC    OG18391   6.489  12.179   5.435
  354POPC   C2A18392   6.519  12.050   5.443
  354POPC    OH18393   6.466  11.976   5.527
  354POPC   C2B18394   6.609  12.004   5.334
  354POPC   C2C18395   6.547  12.021   5.195
  354POPC   C2D18396   6.642  11.972   5.085
  354POPC   C2E18397   6.577  11.988   4.947
  354POPC   C2F18398   6.668  11.933   4.837
  354POPC   C2G18399   6.604  11.953   4.699
  354POPC   C2H18400   6.694  11.904   4.585
  354POPC   C2I18401   6.702  11.751   4.575
  354POPC   C2J18402   6.574  11.689   4.519
  354POPC   C2K18403   6.588  11.537   4.508
  354POPC   C2L18404   6.466  11.475   4.439
  354POPC   C2M18405   6.479  11.323   4.432
  354POPC   C2N18406   6.358  11.260   4.364
  354POPC   C2O18407   6.373  11.108   4.354
  354POPC   C2P18408   6.253  11.046   4.282
  355POPC   CN118409   6.892  12.196   6.612
  355POPC   CN218410   6.961  12.259   6.394
  355POPC   CN318411   7.094  12.316   6.586
  355POPC   NTM18412   7.009  12.212   6.525
  355POPC    CA18413   7.080  12.082   6.518
  355POPC    CB18414   7.207  12.064   6.431
  355POPC    OA18415   7.191  12.076   6.289
  355POPC     P18416   7.189  11.934   6.219
  355POPC    OB18417   7.094  11.853   6.298
  355POPC    OC18418   7.161  11.965   6.079
  355POPC    OD18419   7.339  11.893   6.237
  355POPC    CC18420   7.426  11.962   6.147
  355POPC    CD18421   7.575  11.930   6.169
  355POPC    OE18422   7.669  12.022   6.107
  355POPC   C1A18423   7.733  12.106   6.188
  355POPC    OF18424   7.677  12.146   6.290
  355POPC   C1B18425   7.856  12.162   6.128
  355POPC   C1C18426   7.887  12.305   6.175
  355POPC   C1D18427   8.015  12.360   6.113
  355POPC   C1E18428   8.002  12.384   5.963
  355POPC   C1F18429   8.133  12.439   5.905
  355POPC   C1G18430   8.118  12.470   5.756
  355POPC   C1H18431   8.104  12.343   5.670
  355POPC   C1I18432   8.021  12.370   5.545
  355POPC   C1J18433   8.072  12.399   5.426
  355POPC   C1K18434   8.222  12.406   5.397
  355POPC   C1L18435   8.251  12.527   5.307
  355POPC   C1M18436   8.389  12.518   5.240
  355POPC   C1N18437   8.393  12.413   5.129
  355POPC   C1O18438   8.305  12.452   5.010
  355POPC   C1P18439   8.302  12.343   4.903
  355POPC   C1Q18440   8.211  12.383   4.788
  355POPC   C1R18441   8.203  12.273   4.682
  355POPC    CE18442   7.594  11.781   6.134
  355POPC    OG18443   7.563  11.741   6.000
  355POPC   C2A18444   7.577  11.611   5.972
  355POPC    OH18445   7.621  11.532   6.056
  355POPC   C2B18446   7.552  11.580   5.829
  355POPC   C2C18447   7.463  11.457   5.811
  355POPC   C2D18448   7.454  11.420   5.663
  355POPC   C2E18449   7.346  11.314   5.638
  355POPC   C2F18450   7.353  11.256   5.496
  355POPC   C2G18451   7.333  11.361   5.385
  355POPC   C2H18452   7.346  11.295   5.247
  355POPC   C2I18453   7.340  11.400   5.136
  355POPC   C2J18454   7.351  11.339   4.995
  355POPC   C2K18455   7.483  11.265   4.971
  355POPC   C2L18456   7.507  11.233   4.823
  355POPC   C2M18457   7.405  11.135   4.764
  355POPC   C2N18458   7.435  11.110   4.616
  355POPC   C2O18459   7.337  11.010   4.555
  355POPC   C2P18460   7.367  10.986   4.407
  356POPC   CN118461   8.689  12.035   6.388
  356POPC   CN218462   8.864  11.883   6.337
  356POPC   CN318463   8.912  12.088   6.447
  356POPC   NTM18464   8.815  11.979   6.437
  356POPC    CA18465   8.804  11.917   6.571
  356POPC    CB18466   8.692  11.815   6.603
  356POPC    OA18467   8.678  11.708   6.509
  356POPC     P18468   8.556  11.616   6.544
  356POPC    OB18469   8.559  11.500   6.453
  356POPC    OC18470   8.552  11.594   6.690
  356POPC    OD18471   8.439  11.714   6.508
  356POPC    CC18472   8.402  11.711   6.370
  356POPC    CD18473   8.268  11.781   6.342
  356POPC    OE18474   8.215  11.747   6.211
  356POPC   C1A18475   8.086  11.767   6.185
  356POPC    OF18476   8.008  11.784   6.279
  356POPC   C1B18477   8.047  11.735   6.045
  356POPC   C1C18478   8.065  11.855   5.952
  356POPC   C1D18479   8.049  11.811   5.806
  356POPC   C1E18480   8.077  11.926   5.710
  356POPC   C1F18481   8.093  11.875   5.567
  356POPC   C1G18482   8.131  11.990   5.472
  356POPC   C1H18483   8.179  11.941   5.335
  356POPC   C1I18484   8.068  11.884   5.248
  356POPC   C1J18485   8.080  11.873   5.116
  356POPC   C1K18486   8.207  11.913   5.040
  356POPC   C1L18487   8.296  11.791   5.013
  356POPC   C1M18488   8.418  11.824   4.927
  356POPC   C1N18489   8.381  11.843   4.780
  356POPC   C1O18490   8.508  11.862   4.696
  356POPC   C1P18491   8.479  11.867   4.545
  356POPC   C1Q18492   8.402  11.992   4.504
  356POPC   C1R18493   8.378  11.994   4.353
  356POPC    CE18494   8.287  11.931   6.370
  356POPC    OG18495   8.380  11.999   6.284
  356POPC   C2A18496   8.347  12.121   6.242
  356POPC    OH18497   8.257  12.186   6.295
  356POPC   C2B18498   8.439  12.171   6.138
  356POPC   C2C18499   8.386  12.139   5.998
  356POPC   C2D18500   8.496  12.161   5.893
  356POPC   C2E18501   8.444  12.133   5.752
  356POPC   C2F18502   8.561  12.109   5.656
  356POPC   C2G18503   8.509  12.077   5.516
  356POPC   C2H18504   8.610  11.999   5.432
  356POPC   C2I18505   8.736  12.079   5.398
  356POPC   C2J18506   8.836  11.999   5.314
  356POPC   C2K18507   8.782  11.965   5.175
  356POPC   C2L18508   8.887  11.888   5.095
  356POPC   C2M18509   8.834  11.841   4.960
  356POPC   C2N18510   8.940  11.759   4.887
  356POPC   C2O18511   8.885  11.700   4.757
  356POPC   C2P18512   8.991  11.614   4.687
  357POPC   CN118513   8.788  12.553   6.786
  357POPC   CN218514   9.008  12.549   6.876
  357POPC   CN318515   8.910  12.349   6.784
  357POPC   NTM18516   8.922  12.495   6.770
  357POPC    CA18517   8.972  12.533   6.636
  357POPC    CB18518   9.110  12.487   6.583
  357POPC    OA18519   9.121  12.347   6.554
  357POPC     P18520   9.256  12.314   6.480
  357POPC    OB18521   9.366  12.384   6.549
  357POPC    OC18522   9.261  12.169   6.461
  357POPC    OD18523   9.230  12.388   6.343
  357POPC    CC18524   9.152  12.310   6.252
  357POPC    CD18525   9.073  12.385   6.142
  357POPC    OE18526   9.020  12.293   6.044
  357POPC   C1A18527   8.908  12.225   6.068
  357POPC    OF18528   8.848  12.237   6.175
  357POPC   C1B18529   8.871  12.137   5.955
  357POPC   C1C18530   8.930  11.997   5.969
  357POPC   C1D18531   8.912  11.917   5.840
  357POPC   C1E18532   8.967  11.776   5.855
  357POPC   C1F18533   8.967  11.698   5.723
  357POPC   C1G18534   9.068  11.754   5.623
  357POPC   C1H18535   9.076  11.667   5.498
  357POPC   C1I18536   9.184  11.717   5.402
  357POPC   C1J18537   9.189  11.673   5.277
  357POPC   C1K18538   9.086  11.572   5.227
  357POPC   C1L18539   9.147  11.476   5.124
  357POPC   C1M18540   9.041  11.382   5.068
  357POPC   C1N18541   9.102  11.279   4.974
  357POPC   C1O18542   8.995  11.183   4.922
  357POPC   C1P18543   9.053  11.070   4.836
  357POPC   C1Q18544   9.139  10.971   4.915
  357POPC   C1R18545   9.056  10.888   5.014
  357POPC    CE18546   9.167  12.492   6.084
  357POPC    OG18547   9.114  12.583   5.986
  357POPC   C2A18548   9.195  12.678   5.943
  357POPC    OH18549   9.301  12.703   6.000
  357POPC   C2B18550   9.143  12.754   5.826
  357POPC   C2C18551   9.184  12.684   5.697
  357POPC   C2D18552   9.160  12.767   5.571
  357POPC   C2E18553   9.211  12.688   5.451
  357POPC   C2F18554   9.217  12.769   5.322
  357POPC   C2G18555   9.281  12.683   5.213
  357POPC   C2H18556   9.307  12.760   5.084
  357POPC   C2I18557   9.382  12.670   4.985
  357POPC   C2J18558   9.419  12.743   4.857
  357POPC   C2K18559   9.507  12.653   4.769
  357POPC   C2L18560   9.546  12.721   4.637
  357POPC   C2M18561   9.427  12.735   4.543
  357POPC   C2N18562   9.466  12.809   4.415
  357POPC   C2O18563   9.350  12.821   4.316
  357POPC   C2P18564   9.234  12.905   4.371
  358POPC   CN118565  10.268  12.809   6.686
  358POPC   CN218566  10.497  12.831   6.749
  358POPC   CN318567  10.323  12.931   6.880
  358POPC   NTM18568  10.360  12.813   6.800
  358POPC    CA18569  10.348  12.692   6.884
  358POPC    CB18570  10.397  12.554   6.833
  358POPC    OA18571  10.344  12.516   6.706
  358POPC     P18572  10.408  12.384   6.649
  358POPC    OB18573  10.417  12.290   6.762
  358POPC    OC18574  10.319  12.358   6.535
  358POPC    OD18575  10.545  12.450   6.607
  358POPC    CC18576  10.543  12.490   6.470
  358POPC    CD18577  10.632  12.611   6.434
  358POPC    OE18578  10.596  12.671   6.307
  358POPC   C1A18579  10.491  12.751   6.295
  358POPC    OF18580  10.422  12.782   6.394
  358POPC   C1B18581  10.467  12.795   6.156
  358POPC   C1C18582  10.552  12.916   6.120
  358POPC   C1D18583  10.527  12.968   5.978
  358POPC   C1E18584  10.560  12.865   5.870
  358POPC   C1F18585  10.546  12.926   5.731
  358POPC   C1G18586  10.579  12.825   5.621
  358POPC   C1H18587  10.575  12.887   5.481
  358POPC   C1I18588  10.689  12.987   5.458
  358POPC   C1J18589  10.732  13.013   5.335
  358POPC   C1K18590  10.668  12.944   5.215
  358POPC   C1L18591  10.665  13.040   5.096
  358POPC   C1M18592  10.607  12.973   4.971
  358POPC   C1N18593  10.604  13.073   4.855
  358POPC   C1O18594  10.543  13.009   4.730
  358POPC   C1P18595  10.532  13.111   4.616
  358POPC   C1Q18596  10.469  13.047   4.493
  358POPC   C1R18597  10.456  13.148   4.379
  358POPC    CE18598  10.779  12.566   6.447
  358POPC    OG18599  10.818  12.459   6.359
  358POPC   C2A18600  10.946  12.421   6.358
  358POPC    OH18601  11.028  12.465   6.439
  358POPC   C2B18602  10.976  12.323   6.252
  358POPC   C2C18603  11.030  12.395   6.128
  358POPC   C2D18604  11.062  12.297   6.016
  358POPC   C2E18605  11.136  12.367   5.903
  358POPC   C2F18606  11.175  12.267   5.795
  358POPC   C2G18607  11.275  12.326   5.695
  358POPC   C2H18608  11.310  12.217   5.594
  358POPC   C2I18609  11.425  12.256   5.500
  358POPC   C2J18610  11.454  12.142   5.402
  358POPC   C2K18611  11.502  12.015   5.473
  358POPC   C2L18612  11.497  11.894   5.379
  358POPC   C2M18613  11.535  11.767   5.455
  358POPC   C2N18614  11.520  11.640   5.370
  358POPC   C2O18615  11.621  11.635   5.254
  358POPC   C2P18616  11.604  11.506   5.174
  359POPC   CN118617  11.979  13.021   6.224
  359POPC   CN218618  11.935  13.053   5.992
  359POPC   CN318619  11.977  12.834   6.075
  359POPC   NTM18620  11.913  12.963   6.106
  359POPC    CA18621  11.767  12.950   6.126
  359POPC    CB18622  11.709  12.878   6.250
  359POPC    OA18623  11.757  12.747   6.277
  359POPC     P18624  11.685  12.682   6.400
  359POPC    OB18625  11.765  12.566   6.441
  359POPC    OC18626  11.658  12.789   6.497
  359POPC    OD18627  11.551  12.638   6.331
  359POPC    CC18628  11.570  12.519   6.255
  359POPC    CD18629  11.445  12.477   6.176
  359POPC    OE18630  11.451  12.344   6.117
  359POPC   C1A18631  11.437  12.234   6.190
  359POPC    OF18632  11.407  12.238   6.310
  359POPC   C1B18633  11.448  12.112   6.107
  359POPC   C1C18634  11.591  12.057   6.104
  359POPC   C1D18635  11.607  11.967   5.982
  359POPC   C1E18636  11.735  11.883   5.987
  359POPC   C1F18637  11.739  11.793   5.863
  359POPC   C1G18638  11.815  11.664   5.892
  359POPC   C1H18639  11.801  11.568   5.774
  359POPC   C1I18640  11.844  11.426   5.812
  359POPC   C1J18641  11.787  11.322   5.752
  359POPC   C1K18642  11.680  11.347   5.646
  359POPC   C1L18643  11.587  11.226   5.631
  359POPC   C1M18644  11.480  11.252   5.525
  359POPC   C1N18645  11.392  11.129   5.504
  359POPC   C1O18646  11.288  11.150   5.393
  359POPC   C1P18647  11.352  11.172   5.255
  359POPC   C1Q18648  11.245  11.192   5.148
  359POPC   C1R18649  11.308  11.223   5.012
  359POPC    CE18650  11.418  12.589   6.074
  359POPC    OG18651  11.523  12.615   5.978
  359POPC   C2A18652  11.485  12.669   5.863
  359POPC    OH18653  11.370  12.708   5.845
  359POPC   C2B18654  11.597  12.688   5.767
  359POPC   C2C18655  11.551  12.673   5.622
  359POPC   C2D18656  11.663  12.705   5.523
  359POPC   C2E18657  11.614  12.683   5.380
  359POPC   C2F18658  11.722  12.716   5.276
  359POPC   C2G18659  11.671  12.683   5.136
  359POPC   C2H18660  11.776  12.711   5.028
  359POPC   C2I18661  11.724  12.666   4.892
  359POPC   C2J18662  11.823  12.688   4.777
  359POPC   C2K18663  11.847  12.837   4.747
  359POPC   C2L18664  11.933  12.858   4.623
  359POPC   C2M18665  12.076  12.806   4.639
  359POPC   C2N18666  12.159  12.832   4.512
  359POPC   C2O18667  12.302  12.780   4.524
  359POPC   C2P18668  12.310  12.627   4.529
  360POPC   CN118669  11.669  12.510   6.930
  360POPC   CN218670  11.763  12.724   6.969
  360POPC   CN318671  11.903  12.529   6.965
  360POPC   NTM18672  11.786  12.594   6.905
  360POPC    CA18673  11.800  12.611   6.758
  360POPC    CB18674  11.913  12.697   6.698
  360POPC    OA18675  12.046  12.649   6.716
  360POPC     P18676  12.147  12.739   6.635
  360POPC    OB18677  12.111  12.881   6.655
  360POPC    OC18678  12.279  12.688   6.673
  360POPC    OD18679  12.111  12.691   6.490
  360POPC    CC18680  12.164  12.562   6.463
  360POPC    CD18681  12.161  12.518   6.316
  360POPC    OE18682  12.254  12.593   6.234
  360POPC   C1A18683  12.343  12.523   6.162
  360POPC    OF18684  12.375  12.410   6.201
  360POPC   C1B18685  12.418  12.604   6.063
  360POPC   C1C18686  12.331  12.666   5.954
  360POPC   C1D18687  12.266  12.561   5.862
  360POPC   C1E18688  12.163  12.624   5.768
  360POPC   C1F18689  12.224  12.713   5.660
  360POPC   C1G18690  12.114  12.769   5.569
  360POPC   C1H18691  12.172  12.850   5.453
  360POPC   C1I18692  12.061  12.901   5.361
  360POPC   C1J18693  12.082  12.911   5.230
  360POPC   C1K18694  12.218  12.873   5.172
  360POPC   C1L18695  12.235  12.907   5.023
  360POPC   C1M18696  12.228  13.057   4.993
  360POPC   C1N18697  12.272  13.089   4.850
  360POPC   C1O18698  12.423  13.075   4.833
  360POPC   C1P18699  12.468  13.091   4.687
  360POPC   C1Q18700  12.441  13.230   4.630
  360POPC   C1R18701  12.483  13.239   4.484
  360POPC    CE18702  12.013  12.517   6.273
  360POPC    OG18703  11.991  12.461   6.142
  360POPC   C2A18704  11.901  12.363   6.134
  360POPC    OH18705  11.841  12.321   6.233
  360POPC   C2B18706  11.888  12.309   5.997
  360POPC   C2C18707  11.771  12.370   5.921
  360POPC   C2D18708  11.761  12.318   5.777
  360POPC   C2E18709  11.875  12.371   5.690
  360POPC   C2F18710  11.859  12.331   5.544
  360POPC   C2G18711  11.969  12.395   5.459
  360POPC   C2H18712  11.951  12.364   5.311
  360POPC   C2I18713  12.061  12.429   5.228
  360POPC   C2J18714  12.040  12.400   5.079
  360POPC   C2K18715  12.150  12.465   4.994
  360POPC   C2L18716  12.130  12.446   4.843
  360POPC   C2M18717  12.194  12.320   4.783
  360POPC   C2N18718  12.115  12.191   4.804
  360POPC   C2O18719  12.188  12.072   4.741
  360POPC   C2P18720  12.109  11.943   4.764
  361POPC   CN118721  12.704  12.276   6.289
  361POPC   CN218722  12.606  12.062   6.285
  361POPC   CN318723  12.841  12.080   6.309
  361POPC   NTM18724  12.713  12.141   6.347
  361POPC    CA18725  12.689  12.143   6.493
  361POPC    CB18726  12.784  12.221   6.588
  361POPC    OA18727  12.919  12.174   6.594
  361POPC     P18728  13.012  12.260   6.687
  361POPC    OB18729  12.935  12.296   6.807
  361POPC    OC18730  13.143  12.193   6.701
  361POPC    OD18731  13.033  12.388   6.600
  361POPC    CC18732  13.109  12.364   6.481
  361POPC    CD18733  13.144  12.494   6.407
  361POPC    OE18734  13.160  12.484   6.263
  361POPC   C1A18735  13.054  12.470   6.184
  361POPC    OF18736  12.941  12.463   6.233
  361POPC   C1B18737  13.086  12.475   6.040
  361POPC   C1C18738  13.024  12.359   5.961
  361POPC   C1D18739  13.024  12.383   5.809
  361POPC   C1E18740  13.163  12.409   5.751
  361POPC   C1F18741  13.164  12.425   5.598
  361POPC   C1G18742  13.077  12.540   5.548
  361POPC   C1H18743  13.103  12.569   5.400
  361POPC   C1I18744  13.010  12.680   5.350
  361POPC   C1J18745  12.988  12.697   5.220
  361POPC   C1K18746  13.061  12.610   5.117
  361POPC   C1L18747  13.068  12.677   4.979
  361POPC   C1M18748  12.935  12.665   4.903
  361POPC   C1N18749  12.938  12.739   4.769
  361POPC   C1O18750  12.928  12.891   4.788
  361POPC   C1P18751  12.931  12.963   4.653
  361POPC   C1Q18752  12.909  13.114   4.667
  361POPC   C1R18753  13.022  13.185   4.743
  361POPC    CE18754  13.264  12.555   6.481
  361POPC    OG18755  13.385  12.475   6.481
  361POPC   C2A18756  13.493  12.534   6.531
  361POPC    OH18757  13.491  12.652   6.568
  361POPC   C2B18758  13.614  12.449   6.534
  361POPC   C2C18759  13.702  12.466   6.410
  361POPC   C2D18760  13.835  12.394   6.428
  361POPC   C2E18761  13.934  12.420   6.313
  361POPC   C2F18762  13.894  12.349   6.184
  361POPC   C2G18763  14.000  12.371   6.076
  361POPC   C2H18764  13.964  12.297   5.947
  361POPC   C2I18765  14.068  12.323   5.838
  361POPC   C2J18766  14.032  12.246   5.710
  361POPC   C2K18767  14.138  12.266   5.603
  361POPC   C2L18768  14.104  12.183   5.479
  361POPC   C2M18769  14.212  12.194   5.372
  361POPC   C2N18770  14.175  12.111   5.249
  361POPC   C2O18771  14.283  12.122   5.141
  361POPC   C2P18772  14.245  12.039   5.018
  362POPC   CN118773  14.542  13.983   7.059
  362POPC   CN218774  14.668  13.805   7.150
  362POPC   CN318775  14.498  13.762   6.986
  362POPC   NTM18776  14.605  13.855   7.027
  362POPC    CA18777  14.702  13.876   6.917
  362POPC    CB18778  14.807  13.768   6.881
  362POPC    OA18779  14.764  13.632   6.866
  362POPC     P18780  14.889  13.537   6.849
  362POPC    OB18781  14.990  13.587   6.943
  362POPC    OC18782  14.839  13.400   6.864
  362POPC    OD18783  14.921  13.572   6.699
  362POPC    CC18784  14.846  13.490   6.610
  362POPC    CD18785  14.815  13.550   6.473
  362POPC    OE18786  14.720  13.470   6.396
  362POPC   C1A18787  14.589  13.481   6.421
  362POPC    OF18788  14.547  13.565   6.501
  362POPC   C1B18789  14.506  13.394   6.335
  362POPC   C1C18790  14.474  13.259   6.400
  362POPC   C1D18791  14.400  13.167   6.302
  362POPC   C1E18792  14.258  13.218   6.272
  362POPC   C1F18793  14.196  13.151   6.149
  362POPC   C1G18794  14.169  13.002   6.166
  362POPC   C1H18795  14.109  12.946   6.038
  362POPC   C1I18796  14.074  12.797   6.051
  362POPC   C1J18797  14.080  12.720   5.943
  362POPC   C1K18798  14.123  12.782   5.810
  362POPC   C1L18799  14.048  12.720   5.691
  362POPC   C1M18800  14.088  12.785   5.558
  362POPC   C1N18801  14.048  12.933   5.551
  362POPC   C1O18802  14.080  12.996   5.415
  362POPC   C1P18803  13.990  12.943   5.303
  362POPC   C1Q18804  14.017  13.015   5.171
  362POPC   C1R18805  13.923  12.964   5.062
  362POPC    CE18806  14.951  13.580   6.407
  362POPC    OG18807  14.943  13.638   6.276
  362POPC   C2A18808  15.058  13.657   6.212
  362POPC    OH18809  15.165  13.659   6.273
  362POPC   C2B18810  15.040  13.703   6.073
  362POPC   C2C18811  15.036  13.588   5.973
  362POPC   C2D18812  15.014  13.644   5.833
  362POPC   C2E18813  15.013  13.534   5.727
  362POPC   C2F18814  14.995  13.596   5.588
  362POPC   C2G18815  15.001  13.488   5.480
  362POPC   C2H18816  14.988  13.551   5.341
  362POPC   C2I18817  14.999  13.443   5.233
  362POPC   C2J18818  14.992  13.504   5.093
  362POPC   C2K18819  15.009  13.396   4.987
  362POPC   C2L18820  15.006  13.456   4.847
  362POPC   C2M18821  15.030  13.347   4.743
  362POPC   C2N18822  15.033  13.405   4.601
  362POPC   C2O18823  15.062  13.294   4.500
  362POPC   C2P18824  15.067  13.349   4.358
  363POPC   CN118825  15.426  14.067   6.343
  363POPC   CN218826  15.228  13.993   6.237
  363POPC   CN318827  15.308  13.881   6.433
  363POPC   NTM18828  15.293  14.011   6.367
  363POPC    CA18829  15.217  14.106   6.452
  363POPC    CB18830  15.080  14.068   6.513
  363POPC    OA18831  14.978  14.027   6.423
  363POPC     P18832  14.842  14.017   6.500
  363POPC    OB18833  14.837  13.881   6.557
  363POPC    OC18834  14.828  14.133   6.589
  363POPC    OD18835  14.743  14.030   6.380
  363POPC    CC18836  14.751  13.918   6.294
  363POPC    CD18837  14.703  13.946   6.151
  363POPC    OE18838  14.692  13.824   6.073
  363POPC   C1A18839  14.582  13.750   6.082
  363POPC    OF18840  14.480  13.794   6.137
  363POPC   C1B18841  14.594  13.620   6.012
  363POPC   C1C18842  14.533  13.618   5.872
  363POPC   C1D18843  14.606  13.703   5.768
  363POPC   C1E18844  14.540  13.682   5.632
  363POPC   C1F18845  14.602  13.769   5.522
  363POPC   C1G18846  14.531  13.738   5.389
  363POPC   C1H18847  14.570  13.834   5.276
  363POPC   C1I18848  14.714  13.819   5.227
  363POPC   C1J18849  14.740  13.810   5.097
  363POPC   C1K18850  14.627  13.810   4.995
  363POPC   C1L18851  14.607  13.670   4.935
  363POPC   C1M18852  14.481  13.660   4.849
  363POPC   C1N18853  14.486  13.741   4.719
  363POPC   C1O18854  14.586  13.685   4.618
  363POPC   C1P18855  14.583  13.759   4.484
  363POPC   C1Q18856  14.628  13.905   4.496
  363POPC   C1R18857  14.630  13.974   4.360
  363POPC    CE18858  14.801  14.050   6.094
  363POPC    OG18859  14.757  14.111   5.971
  363POPC   C2A18860  14.843  14.189   5.906
  363POPC    OH18861  14.952  14.220   5.954
  363POPC   C2B18862  14.790  14.233   5.775
  363POPC   C2C18863  14.811  14.121   5.672
  363POPC   C2D18864  14.733  14.140   5.542
  363POPC   C2E18865  14.791  14.247   5.449
  363POPC   C2F18866  14.726  14.232   5.312
  363POPC   C2G18867  14.788  14.324   5.206
  363POPC   C2H18868  14.738  14.283   5.068
  363POPC   C2I18869  14.797  14.370   4.957
  363POPC   C2J18870  14.756  14.315   4.820
  363POPC   C2K18871  14.804  14.407   4.707
  363POPC   C2L18872  14.768  14.346   4.571
  363POPC   C2M18873  14.792  14.442   4.454
  363POPC   C2N18874  14.940  14.477   4.435
  363POPC   C2O18875  14.962  14.572   4.316
  363POPC   C2P18876  14.903  14.711   4.340
  364POPC   CN118877  16.089  12.621   6.060
  364POPC   CN218878  16.159  12.463   6.220
  364POPC   CN318879  16.155  12.693   6.278
  364POPC   NTM18880  16.085  12.588   6.203
  364POPC    CA18881  15.947  12.564   6.252
  364POPC    CB18882  15.838  12.673   6.237
  364POPC    OA18883  15.863  12.797   6.304
  364POPC     P18884  15.770  12.913   6.249
  364POPC    OB18885  15.638  12.853   6.227
  364POPC    OC18886  15.788  13.026   6.341
  364POPC    OD18887  15.845  12.940   6.113
  364POPC    CC18888  15.965  13.017   6.129
  364POPC    CD18889  16.039  13.045   5.998
  364POPC    OE18890  16.173  13.100   6.017
  364POPC   C1A18891  16.275  13.016   6.034
  364POPC    OF18892  16.257  12.895   6.048
  364POPC   C1B18893  16.405  13.085   6.046
  364POPC   C1C18894  16.472  13.106   5.910
  364POPC   C1D18895  16.593  13.200   5.923
  364POPC   C1E18896  16.671  13.214   5.792
  364POPC   C1F18897  16.591  13.278   5.679
  364POPC   C1G18898  16.672  13.273   5.549
  364POPC   C1H18899  16.592  13.320   5.427
  364POPC   C1I18900  16.570  13.472   5.423
  364POPC   C1J18901  16.639  13.549   5.339
  364POPC   C1K18902  16.741  13.492   5.241
  364POPC   C1L18903  16.689  13.493   5.097
  364POPC   C1M18904  16.790  13.435   4.998
  364POPC   C1N18905  16.812  13.285   5.019
  364POPC   C1O18906  16.918  13.232   4.922
  364POPC   C1P18907  16.936  13.081   4.938
  364POPC   C1Q18908   0.059  13.029   4.842
  364POPC   C1R18909   0.070  12.877   4.849
  364POPC    CE18910  15.943  13.129   5.912
  364POPC    OG18911  15.989  13.178   5.785
  364POPC   C2A18912  16.048  13.298   5.784
  364POPC    OH18913  16.053  13.368   5.885
  364POPC   C2B18914  16.092  13.342   5.650
  364POPC   C2C18915  15.983  13.425   5.581
  364POPC   C2D18916  16.034  13.488   5.452
  364POPC   C2E18917  15.921  13.564   5.381
  364POPC   C2F18918  15.968  13.636   5.253
  364POPC   C2G18919  16.017  13.538   5.146
  364POPC   C2H18920  16.056  13.607   5.015
  364POPC   C2I18921  15.935  13.662   4.939
  364POPC   C2J18922  15.979  13.721   4.804
  364POPC   C2K18923  15.861  13.773   4.722
  364POPC   C2L18924  15.768  13.660   4.674
  364POPC   C2M18925  15.652  13.717   4.592
  364POPC   C2N18926  15.555  13.608   4.545
  364POPC   C2O18927  15.476  13.541   4.658
  364POPC   C2P18928  15.378  13.637   4.727
  365POPC   CN118929  16.375  13.318   6.916
  365POPC   CN218930  16.207  13.311   6.747
  365POPC   CN318931  16.197  13.476   6.917
  365POPC   NTM18932  16.288  13.400   6.830
  365POPC    CA18933  16.366  13.497   6.749
  365POPC    CB18934  16.485  13.447   6.663
  365POPC    OA18935  16.453  13.339   6.577
  365POPC     P18936  16.578  13.272   6.511
  365POPC    OB18937  16.678  13.252   6.617
  365POPC    OC18938  16.524  13.156   6.439
  365POPC    OD18939  16.619  13.385   6.411
  365POPC    CC18940  16.539  13.380   6.293
  365POPC    CD18941  16.524  13.512   6.217
  365POPC    OE18942  16.437  13.499   6.101
  365POPC   C1A18943  16.365  13.607   6.070
  365POPC    OF18944  16.332  13.683   6.162
  365POPC   C1B18945  16.301  13.603   5.937
  365POPC   C1C18946  16.391  13.661   5.826
  365POPC   C1D18947  16.414  13.811   5.841
  365POPC   C1E18948  16.505  13.867   5.731
  365POPC   C1F18949  16.438  13.865   5.593
  365POPC   C1G18950  16.538  13.907   5.485
  365POPC   C1H18951  16.473  13.908   5.346
  365POPC   C1I18952  16.580  13.933   5.239
  365POPC   C1J18953  16.559  13.897   5.113
  365POPC   C1K18954  16.427  13.832   5.070
  365POPC   C1L18955  16.434  13.769   4.930
  365POPC   C1M18956  16.455  13.872   4.819
  365POPC   C1N18957  16.450  13.805   4.681
  365POPC   C1O18958  16.486  13.902   4.568
  365POPC   C1P18959  16.634  13.943   4.572
  365POPC   C1Q18960  16.674  14.036   4.457
  365POPC   C1R18961  16.675  13.964   4.322
  365POPC    CE18962  16.668  13.562   6.192
  365POPC    OG18963  16.682  13.681   6.114
  365POPC   C2A18964  16.800  13.742   6.122
  365POPC    OH18965  16.876  13.720   6.217
  365POPC   C2B18966  16.819  13.846   6.019
  365POPC   C2C18967  16.967  13.859   5.981
  365POPC   C2D18968   0.008  13.960   5.870
  365POPC   C2E18969  16.940  13.911   5.734
  365POPC   C2F18970  16.973  14.013   5.626
  365POPC   C2G18971  16.930  13.970   5.485
  365POPC   C2H18972   0.025  13.850   5.433
  365POPC   C2I18973  16.974  13.818   5.288
  365POPC   C2J18974   0.042  13.926   5.192
  365POPC   C2K18975   0.002  13.894   5.048
  365POPC   C2L18976   0.049  14.006   4.954
  365POPC   C2M18977   0.004  13.978   4.810
  365POPC   C2N18978   0.044  14.091   4.714
  365POPC   C2O18979   0.195  14.102   4.696
  365POPC   C2P18980   0.230  14.215   4.600
  366POPC   CN118981   1.685  13.527   7.232
  366POPC   CN218982   1.572  13.604   7.035
  366POPC   CN318983   1.802  13.554   7.028
  366POPC   NTM18984   1.674  13.513   7.087
  366POPC    CA18985   1.644  13.374   7.047
  366POPC    CB18986   1.522  13.298   7.106
  366POPC    OA18987   1.394  13.359   7.095
  366POPC     P18988   1.282  13.250   7.072
  366POPC    OB18989   1.316  13.126   7.145
  366POPC    OC18990   1.156  13.321   7.101
  366POPC    OD18991   1.299  13.225   6.918
  366POPC    CC18992   1.242  13.331   6.840
  366POPC    CD18993   1.262  13.322   6.688
  366POPC    OE18994   1.217  13.440   6.615
  366POPC   C1A18995   1.301  13.542   6.604
  366POPC    OF18996   1.376  13.571   6.698
  366POPC   C1B18997   1.265  13.633   6.493
  366POPC   C1C18998   1.390  13.683   6.420
  366POPC   C1D18999   1.352  13.742   6.285
  366POPC   C1E19000   1.476  13.779   6.203
  366POPC   C1F19001   1.440  13.808   6.057
  366POPC   C1G19002   1.358  13.935   6.038
  366POPC   C1H19003   1.328  13.953   5.889
  366POPC   C1I19004   1.254  14.084   5.863
  366POPC   C1J19005   1.174  14.094   5.757
  366POPC   C1K19006   1.157  13.975   5.662
  366POPC   C1L19007   1.115  14.019   5.521
  366POPC   C1M19008   1.225  14.094   5.446
  366POPC   C1N19009   1.172  14.147   5.313
  366POPC   C1O19010   1.281  14.221   5.234
  366POPC   C1P19011   1.225  14.284   5.106
  366POPC   C1Q19012   1.178  14.180   5.004
  366POPC   C1R19013   1.119  14.249   4.881
  366POPC    CE19014   1.199  13.188   6.645
  366POPC    OG19015   1.189  13.164   6.503
  366POPC   C2A19016   1.125  13.054   6.464
  366POPC    OH19017   1.085  12.971   6.546
  366POPC   C2B19018   1.110  13.042   6.318
  366POPC   C2C19019   0.986  13.119   6.270
  366POPC   C2D19020   0.942  13.084   6.128
  366POPC   C2E19021   1.049  13.110   6.020
  366POPC   C2F19022   0.991  13.099   5.879
  366POPC   C2G19023   0.941  12.959   5.844
  366POPC   C2H19024   0.861  12.956   5.714
  366POPC   C2I19025   0.943  12.984   5.588
  366POPC   C2J19026   0.850  12.996   5.468
  366POPC   C2K19027   0.922  13.020   5.335
  366POPC   C2L19028   0.991  12.895   5.281
  366POPC   C2M19029   1.043  12.920   5.140
  366POPC   C2N19030   1.097  12.791   5.077
  366POPC   C2O19031   1.140  12.816   4.933
  366POPC   C2P19032   1.188  12.686   4.867
  367POPC   CN119033   2.701  13.608   6.345
  367POPC   CN219034   2.889  13.747   6.394
  367POPC   CN319035   2.671  13.842   6.383
  367POPC   NTM19036   2.747  13.723   6.424
  367POPC    CA19037   2.735  13.694   6.568
  367POPC    CB19038   2.596  13.672   6.633
  367POPC    OA19039   2.513  13.789   6.644
  367POPC     P19040   2.364  13.749   6.677
  367POPC    OB19041   2.371  13.640   6.775
  367POPC    OC19042   2.289  13.872   6.709
  367POPC    OD19043   2.323  13.703   6.534
  367POPC    CC19044   2.219  13.605   6.533
  367POPC    CD19045   2.171  13.570   6.392
  367POPC    OE19046   2.067  13.468   6.395
  367POPC   C1A19047   1.939  13.504   6.389
  367POPC    OF19048   1.909  13.620   6.357
  367POPC   C1B19049   1.847  13.389   6.399
  367POPC   C1C19050   1.701  13.422   6.368
  367POPC   C1D19051   1.637  13.304   6.294
  367POPC   C1E19052   1.487  13.325   6.272
  367POPC   C1F19053   1.434  13.233   6.163
  367POPC   C1G19054   1.472  13.285   6.024
  367POPC   C1H19055   1.447  13.184   5.911
  367POPC   C1I19056   1.550  13.071   5.914
  367POPC   C1J19057   1.592  13.015   5.801
  367POPC   C1K19058   1.536  13.060   5.666
  367POPC   C1L19059   1.580  12.962   5.557
  367POPC   C1M19060   1.516  12.997   5.422
  367POPC   C1N19061   1.569  12.903   5.313
  367POPC   C1O19062   1.501  12.931   5.179
  367POPC   C1P19063   1.552  12.839   5.068
  367POPC   C1Q19064   1.518  12.692   5.095
  367POPC   C1R19065   1.565  12.602   4.980
  367POPC    CE19066   2.295  13.532   6.309
  367POPC    OG19067   2.289  13.569   6.170
  367POPC   C2A19068   2.400  13.552   6.099
  367POPC    OH19069   2.501  13.499   6.147
  367POPC   C2B19070   2.387  13.598   5.959
  367POPC   C2C19071   2.516  13.663   5.909
  367POPC   C2D19072   2.508  13.707   5.762
  367POPC   C2E19073   2.496  13.588   5.666
  367POPC   C2F19074   2.495  13.634   5.521
  367POPC   C2G19075   2.480  13.514   5.427
  367POPC   C2H19076   2.482  13.556   5.280
  367POPC   C2I19077   2.473  13.432   5.191
  367POPC   C2J19078   2.481  13.469   5.043
  367POPC   C2K19079   2.479  13.343   4.957
  367POPC   C2L19080   2.496  13.376   4.808
  367POPC   C2M19081   2.500  13.247   4.726
  367POPC   C2N19082   2.523  13.276   4.578
  367POPC   C2O19083   2.533  13.148   4.494
  367POPC   C2P19084   2.658  13.066   4.527
  368POPC   CN119085   2.633  13.077   7.113
  368POPC   CN219086   2.768  13.242   7.008
  368POPC   CN319087   2.669  13.067   6.880
  368POPC   NTM19088   2.648  13.159   6.992
  368POPC    CA19089   2.524  13.239   6.976
  368POPC    CB19090   2.512  13.348   6.866
  368POPC    OA19091   2.545  13.309   6.733
  368POPC     P19092   2.420  13.307   6.636
  368POPC    OB19093   2.295  13.334   6.709
  368POPC    OC19094   2.462  13.385   6.519
  368POPC    OD19095   2.418  13.152   6.612
  368POPC    CC19096   2.448  13.119   6.477
  368POPC    CD19097   2.550  13.004   6.464
  368POPC    OE19098   2.625  13.006   6.339
  368POPC   C1A19099   2.725  13.094   6.331
  368POPC    OF19100   2.780  13.133   6.435
  368POPC   C1B19101   2.776  13.116   6.193
  368POPC   C1C19102   2.796  13.264   6.162
  368POPC   C1D19103   2.833  13.282   6.015
  368POPC   C1E19104   2.855  13.429   5.979
  368POPC   C1F19105   2.888  13.442   5.830
  368POPC   C1G19106   2.917  13.587   5.792
  368POPC   C1H19107   2.946  13.600   5.643
  368POPC   C1I19108   2.979  13.745   5.606
  368POPC   C1J19109   3.057  13.771   5.501
  368POPC   C1K19110   3.113  13.655   5.418
  368POPC   C1L19111   3.242  13.695   5.347
  368POPC   C1M19112   3.290  13.582   5.257
  368POPC   C1N19113   3.419  13.619   5.183
  368POPC   C1O19114   3.462  13.506   5.090
  368POPC   C1P19115   3.594  13.539   5.020
  368POPC   C1Q19116   3.633  13.429   4.922
  368POPC   C1R19117   3.766  13.462   4.853
  368POPC    CE19118   2.481  12.874   6.508
  368POPC    OG19119   2.376  12.825   6.423
  368POPC   C2A19120   2.325  12.706   6.453
  368POPC    OH19121   2.363  12.643   6.553
  368POPC   C2B19122   2.229  12.656   6.353
  368POPC   C2C19123   2.296  12.553   6.263
  368POPC   C2D19124   2.220  12.533   6.132
  368POPC   C2E19125   2.295  12.433   6.044
  368POPC   C2F19126   2.268  12.454   5.894
  368POPC   C2G19127   2.130  12.408   5.848
  368POPC   C2H19128   2.109  12.436   5.699
  368POPC   C2I19129   2.211  12.365   5.610
  368POPC   C2J19130   2.187  12.397   5.462
  368POPC   C2K19131   2.294  12.336   5.373
  368POPC   C2L19132   2.274  12.381   5.228
  368POPC   C2M19133   2.388  12.334   5.138
  368POPC   C2N19134   2.376  12.397   5.000
  368POPC   C2O19135   2.496  12.360   4.912
  368POPC   C2P19136   2.489  12.431   4.777
  369POPC   CN119137   2.627  12.460   6.549
  369POPC   CN219138   2.694  12.432   6.322
  369POPC   CN319139   2.765  12.624   6.438
  369POPC   NTM19140   2.737  12.481   6.454
  369POPC    CA19141   2.860  12.409   6.493
  369POPC    CB19142   2.923  12.426   6.633
  369POPC    OA19143   2.939  12.560   6.681
  369POPC     P19144   3.077  12.580   6.756
  369POPC    OB19145   3.062  12.705   6.832
  369POPC    OC19146   3.112  12.455   6.827
  369POPC    OD19147   3.175  12.603   6.636
  369POPC    CC19148   3.149  12.722   6.561
  369POPC    CD19149   3.276  12.801   6.524
  369POPC    OE19150   3.256  12.923   6.447
  369POPC   C1A19151   3.196  13.032   6.495
  369POPC    OF19152   3.142  13.034   6.606
  369POPC   C1B19153   3.201  13.146   6.401
  369POPC   C1C19154   3.315  13.241   6.439
  369POPC   C1D19155   3.331  13.358   6.342
  369POPC   C1E19156   3.208  13.449   6.339
  369POPC   C1F19157   3.226  13.568   6.245
  369POPC   C1G19158   3.242  13.525   6.099
  369POPC   C1H19159   3.256  13.645   6.004
  369POPC   C1I19160   3.389  13.720   6.020
  369POPC   C1J19161   3.430  13.798   5.921
  369POPC   C1K19162   3.343  13.811   5.796
  369POPC   C1L19163   3.418  13.869   5.675
  369POPC   C1M19164   3.457  14.016   5.694
  369POPC   C1N19165   3.336  14.109   5.706
  369POPC   C1O19166   3.378  14.252   5.741
  369POPC   C1P19167   3.438  14.262   5.881
  369POPC   C1Q19168   3.486  14.403   5.911
  369POPC   C1R19169   3.552  14.410   6.049
  369POPC    CE19170   3.372  12.702   6.455
  369POPC    OG19171   3.328  12.646   6.330
  369POPC   C2A19172   3.419  12.573   6.264
  369POPC    OH19173   3.535  12.561   6.305
  369POPC   C2B19174   3.370  12.521   6.134
  369POPC   C2C19175   3.404  12.616   6.019
  369POPC   C2D19176   3.353  12.562   5.886
  369POPC   C2E19177   3.389  12.657   5.771
  369POPC   C2F19178   3.330  12.606   5.639
  369POPC   C2G19179   3.359  12.703   5.525
  369POPC   C2H19180   3.289  12.656   5.397
  369POPC   C2I19181   3.305  12.754   5.281
  369POPC   C2J19182   3.448  12.756   5.224
  369POPC   C2K19183   3.465  12.866   5.120
  369POPC   C2L19184   3.388  12.844   4.989
  369POPC   C2M19185   3.454  12.737   4.901
  369POPC   C2N19186   3.381  12.725   4.768
  369POPC   C2O19187   3.453  12.626   4.675
  369POPC   C2P19188   3.381  12.616   4.541
  370POPC   CN119189   4.663  13.278   6.868
  370POPC   CN219190   4.695  13.437   6.692
  370POPC   CN319191   4.865  13.400   6.852
  370POPC   NTM19192   4.760  13.334   6.774
  370POPC    CA19193   4.825  13.229   6.690
  370POPC    CB19194   4.741  13.154   6.583
  370POPC    OA19195   4.622  13.091   6.632
  370POPC     P19196   4.520  13.047   6.521
  370POPC    OB19197   4.400  13.002   6.592
  370POPC    OC19198   4.515  13.156   6.423
  370POPC    OD19199   4.602  12.922   6.472
  370POPC    CC19200   4.602  12.912   6.330
  370POPC    CD19201   4.696  12.803   6.280
  370POPC    OE19202   4.743  12.829   6.145
  370POPC   C1A19203   4.850  12.766   6.099
  370POPC    OF19204   4.921  12.697   6.173
  370POPC   C1B19205   4.875  12.791   5.955
  370POPC   C1C19206   4.800  12.689   5.869
  370POPC   C1D19207   4.823  12.717   5.721
  370POPC   C1E19208   4.744  12.621   5.632
  370POPC   C1F19209   4.769  12.654   5.485
  370POPC   C1G19210   4.692  12.562   5.389
  370POPC   C1H19211   4.739  12.416   5.389
  370POPC   C1I19212   4.882  12.399   5.336
  370POPC   C1J19213   4.914  12.295   5.260
  370POPC   C1K19214   4.808  12.192   5.221
  370POPC   C1L19215   4.850  12.119   5.093
  370POPC   C1M19216   4.737  12.027   5.043
  370POPC   C1N19217   4.779  11.945   4.921
  370POPC   C1O19218   4.807  12.029   4.795
  370POPC   C1P19219   4.683  12.093   4.733
  370POPC   C1Q19220   4.590  11.989   4.669
  370POPC   C1R19221   4.468  12.057   4.607
  370POPC    CE19222   4.623  12.669   6.302
  370POPC    OG19223   4.507  12.652   6.219
  370POPC   C2A19224   4.457  12.529   6.208
  370POPC    OH19225   4.506  12.435   6.270
  370POPC   C2B19226   4.343  12.521   6.113
  370POPC   C2C19227   4.388  12.478   5.973
  370POPC   C2D19228   4.267  12.472   5.879
  370POPC   C2E19229   4.302  12.405   5.745
  370POPC   C2F19230   4.178  12.403   5.655
  370POPC   C2G19231   4.194  12.317   5.528
  370POPC   C2H19232   4.299  12.370   5.431
  370POPC   C2I19233   4.289  12.297   5.297
  370POPC   C2J19234   4.395  12.347   5.198
  370POPC   C2K19235   4.374  12.292   5.056
  370POPC   C2L19236   4.249  12.352   4.991
  370POPC   C2M19237   4.231  12.303   4.847
  370POPC   C2N19238   4.106  12.366   4.786
  370POPC   C2O19239   4.080  12.322   4.642
  370POPC   C2P19240   4.183  12.379   4.544
  371POPC   CN119241   5.395  12.750   6.992
  371POPC   CN219242   5.236  12.577   7.038
  371POPC   CN319243   5.168  12.803   7.051
  371POPC   NTM19244   5.254  12.709   6.978
  371POPC    CA19245   5.218  12.696   6.835
  371POPC    CB19246   5.186  12.820   6.749
  371POPC    OA19247   5.280  12.929   6.752
  371POPC     P19248   5.206  13.068   6.733
  371POPC    OB19249   5.093  13.066   6.827
  371POPC    OC19250   5.311  13.170   6.743
  371POPC    OD19251   5.147  13.048   6.589
  371POPC    CC19252   5.244  13.064   6.486
  371POPC    CD19253   5.187  13.037   6.346
  371POPC    OE19254   5.290  13.025   6.245
  371POPC   C1A19255   5.334  12.904   6.212
  371POPC    OF19256   5.319  12.809   6.290
  371POPC   C1B19257   5.424  12.905   6.094
  371POPC   C1C19258   5.404  12.782   6.006
  371POPC   C1D19259   5.474  12.796   5.871
  371POPC   C1E19260   5.445  12.674   5.783
  371POPC   C1F19261   5.476  12.699   5.636
  371POPC   C1G19262   5.377  12.800   5.578
  371POPC   C1H19263   5.404  12.835   5.432
  371POPC   C1I19264   5.308  12.946   5.388
  371POPC   C1J19265   5.342  13.027   5.288
  371POPC   C1K19266   5.476  13.006   5.218
  371POPC   C1L19267   5.464  13.039   5.069
  371POPC   C1M19268   5.593  13.002   4.996
  371POPC   C1N19269   5.581  13.032   4.847
  371POPC   C1O19270   5.708  12.988   4.775
  371POPC   C1P19271   5.696  13.013   4.624
  371POPC   C1Q19272   5.819  12.963   4.549
  371POPC   C1R19273   5.830  12.810   4.550
  371POPC    CE19274   5.080  13.146   6.324
  371POPC    OG19275   4.997  13.130   6.207
  371POPC   C2A19276   4.899  13.218   6.192
  371POPC    OH19277   4.863  13.292   6.285
  371POPC   C2B19278   4.826  13.199   6.064
  371POPC   C2C19279   4.683  13.256   6.069
  371POPC   C2D19280   4.598  13.213   5.950
  371POPC   C2E19281   4.645  13.265   5.814
  371POPC   C2F19282   4.628  13.417   5.799
  371POPC   C2G19283   4.661  13.460   5.656
  371POPC   C2H19284   4.641  13.610   5.638
  371POPC   C2I19285   4.671  13.652   5.494
  371POPC   C2J19286   4.656  13.803   5.479
  371POPC   C2K19287   4.685  13.851   5.336
  371POPC   C2L19288   4.580  13.805   5.235
  371POPC   C2M19289   4.606  13.863   5.096
  371POPC   C2N19290   4.581  14.015   5.091
  371POPC   C2O19291   4.619  14.077   4.956
  371POPC   C2P19292   4.771  14.076   4.934
  372POPC   CN119293   7.530  13.493   6.131
  372POPC   CN219294   7.429  13.629   6.299
  372POPC   CN319295   7.320  13.595   6.089
  372POPC   NTM19296   7.403  13.532   6.192
  372POPC    CA19297   7.337  13.409   6.243
  372POPC    CB19298   7.212  13.414   6.335
  372POPC    OA19299   7.113  13.508   6.293
  372POPC     P19300   6.989  13.517   6.389
  372POPC    OB19301   7.028  13.471   6.524
  372POPC    OC19302   6.932  13.651   6.371
  372POPC    OD19303   6.895  13.407   6.328
  372POPC    CC19304   6.861  13.433   6.192
  372POPC    CD19305   6.746  13.344   6.142
  372POPC    OE19306   6.749  13.325   5.998
  372POPC   C1A19307   6.679  13.227   5.942
  372POPC    OF19308   6.618  13.146   6.013
  372POPC   C1B19309   6.693  13.213   5.795
  372POPC   C1C19310   6.714  13.344   5.717
  372POPC   C1D19311   6.737  13.318   5.568
  372POPC   C1E19312   6.868  13.243   5.541
  372POPC   C1F19313   6.884  13.216   5.391
  372POPC   C1G19314   7.018  13.148   5.363
  372POPC   C1H19315   7.035  13.123   5.213
  372POPC   C1I19316   7.173  13.065   5.181
  372POPC   C1J19317   7.194  13.003   5.065
  372POPC   C1K19318   7.081  12.988   4.963
  372POPC   C1L19319   7.135  13.001   4.821
  372POPC   C1M19320   7.028  12.976   4.713
  372POPC   C1N19321   6.979  12.831   4.713
  372POPC   C1O19322   6.881  12.802   4.599
  372POPC   C1P19323   6.749  12.878   4.614
  372POPC   C1Q19324   6.651  12.849   4.500
  372POPC   C1R19325   6.700  12.906   4.366
  372POPC    CE19326   6.618  13.406   6.203
  372POPC    OG19327   6.584  13.539   6.159
  372POPC   C2A19328   6.500  13.547   6.056
  372POPC    OH19329   6.435  13.449   6.020
  372POPC   C2B19330   6.481  13.684   6.001
  372POPC   C2C19331   6.544  13.692   5.862
  372POPC   C2D19332   6.508  13.822   5.788
  372POPC   C2E19333   6.582  13.834   5.655
  372POPC   C2F19334   6.544  13.724   5.555
  372POPC   C2G19335   6.639  13.718   5.435
  372POPC   C2H19336   6.622  13.833   5.336
  372POPC   C2I19337   6.722  13.814   5.221
  372POPC   C2J19338   6.712  13.920   5.111
  372POPC   C2K19339   6.586  13.904   5.025
  372POPC   C2L19340   6.593  13.998   4.904
  372POPC   C2M19341   6.470  13.983   4.814
  372POPC   C2N19342   6.481  14.065   4.685
  372POPC   C2O19343   6.476  14.216   4.710
  372POPC   C2P19344   6.489  14.293   4.579
  373POPC   CN119345   6.868  13.224   6.927
  373POPC   CN219346   6.855  13.011   6.824
  373POPC   CN319347   6.687  13.173   6.780
  373POPC   NTM19348   6.831  13.154   6.803
  373POPC    CA19349   6.915  13.211   6.694
  373POPC    CB19350   6.892  13.170   6.546
  373POPC    OA19351   6.887  13.030   6.518
  373POPC     P19352   7.027  12.968   6.476
  373POPC    OB19353   7.131  13.039   6.551
  373POPC    OC19354   7.005  12.822   6.488
  373POPC    OD19355   7.032  13.005   6.325
  373POPC    CC19356   7.133  12.926   6.262
  373POPC    CD19357   7.134  12.933   6.109
  373POPC    OE19358   7.225  12.837   6.048
  373POPC   C1A19359   7.171  12.761   5.954
  373POPC    OF19360   7.061  12.709   5.977
  373POPC   C1B19361   7.267  12.717   5.849
  373POPC   C1C19362   7.195  12.707   5.714
  373POPC   C1D19363   7.290  12.686   5.596
  373POPC   C1E19364   7.208  12.672   5.468
  373POPC   C1F19365   7.297  12.662   5.344
  373POPC   C1G19366   7.213  12.630   5.220
  373POPC   C1H19367   7.302  12.612   5.097
  373POPC   C1I19368   7.220  12.562   4.978
  373POPC   C1J19369   7.261  12.583   4.853
  373POPC   C1K19370   7.391  12.659   4.825
  373POPC   C1L19371   7.389  12.726   4.686
  373POPC   C1M19372   7.399  12.623   4.572
  373POPC   C1N19373   7.376  12.686   4.434
  373POPC   C1O19374   7.481  12.791   4.396
  373POPC   C1P19375   7.458  12.839   4.253
  373POPC   C1Q19376   7.562  12.943   4.213
  373POPC   C1R19377   7.544  12.984   4.067
  373POPC    CE19378   7.162  13.080   6.071
  373POPC    OG19379   7.170  13.102   5.929
  373POPC   C2A19380   7.235  13.209   5.886
  373POPC    OH19381   7.279  13.294   5.963
  373POPC   C2B19382   7.247  13.215   5.738
  373POPC   C2C19383   7.369  13.136   5.691
  373POPC   C2D19384   7.396  13.159   5.542
  373POPC   C2E19385   7.507  13.067   5.492
  373POPC   C2F19386   7.547  13.101   5.349
  373POPC   C2G19387   7.647  12.998   5.295
  373POPC   C2H19388   7.704  13.034   5.158
  373POPC   C2I19389   7.597  13.044   5.048
  373POPC   C2J19390   7.661  13.085   4.916
  373POPC   C2K19391   7.554  13.118   4.811
  373POPC   C2L19392   7.618  13.164   4.680
  373POPC   C2M19393   7.514  13.217   4.581
  373POPC   C2N19394   7.449  13.347   4.630
  373POPC   C2O19395   7.348  13.405   4.529
  373POPC   C2P19396   7.416  13.454   4.401
  374POPC   CN119397   7.962  13.073   6.488
  374POPC   CN219398   7.962  13.261   6.633
  374POPC   CN319399   7.838  13.268   6.432
  374POPC   NTM19400   7.878  13.180   6.543
  374POPC    CA19401   7.765  13.125   6.621
  374POPC    CB19402   7.653  13.043   6.552
  374POPC    OA19403   7.571  13.120   6.464
  374POPC     P19404   7.471  13.031   6.381
  374POPC    OB19405   7.438  12.907   6.453
  374POPC    OC19406   7.368  13.120   6.326
  374POPC    OD19407   7.570  12.994   6.266
  374POPC    CC19408   7.573  13.094   6.164
  374POPC    CD19409   7.676  13.072   6.053
  374POPC    OE19410   7.670  13.180   5.957
  374POPC   C1A19411   7.785  13.232   5.915
  374POPC    OF19412   7.879  13.239   5.995
  374POPC   C1B19413   7.767  13.314   5.793
  374POPC   C1C19414   7.883  13.296   5.695
  374POPC   C1D19415   7.857  13.374   5.565
  374POPC   C1E19416   7.978  13.364   5.472
  374POPC   C1F19417   7.961  13.444   5.343
  374POPC   C1G19418   7.864  13.379   5.243
  374POPC   C1H19419   7.863  13.451   5.108
  374POPC   C1I19420   7.996  13.439   5.033
  374POPC   C1J19421   8.008  13.476   4.906
  374POPC   C1K19422   7.889  13.533   4.829
  374POPC   C1L19423   7.913  13.519   4.678
  374POPC   C1M19424   7.801  13.582   4.595
  374POPC   C1N19425   7.825  13.563   4.445
  374POPC   C1O19426   7.949  13.640   4.397
  374POPC   C1P19427   7.981  13.607   4.251
  374POPC   C1Q19428   8.105  13.682   4.200
  374POPC   C1R19429   8.233  13.641   4.273
  374POPC    CE19430   7.645  12.933   5.994
  374POPC    OG19431   7.744  12.886   5.901
  374POPC   C2A19432   7.727  12.763   5.853
  374POPC    OH19433   7.633  12.692   5.888
  374POPC   C2B19434   7.835  12.724   5.759
  374POPC   C2C19435   7.793  12.730   5.612
  374POPC   C2D19436   7.706  12.610   5.573
  374POPC   C2E19437   7.661  12.617   5.427
  374POPC   C2F19438   7.775  12.602   5.327
  374POPC   C2G19439   7.722  12.618   5.184
  374POPC   C2H19440   7.833  12.602   5.080
  374POPC   C2I19441   7.776  12.632   4.942
  374POPC   C2J19442   7.879  12.609   4.831
  374POPC   C2K19443   7.821  12.652   4.697
  374POPC   C2L19444   7.919  12.628   4.582
  374POPC   C2M19445   7.855  12.675   4.451
  374POPC   C2N19446   7.943  12.643   4.330
  374POPC   C2O19447   7.873  12.688   4.202
  374POPC   C2P19448   7.952  12.648   4.078
  375POPC   CN119449   7.551  12.499   6.110
  375POPC   CN219450   7.322  12.507   6.170
  375POPC   CN319451   7.473  12.386   6.306
  375POPC   NTM19452   7.458  12.506   6.223
  375POPC    CA19453   7.476  12.630   6.302
  375POPC    CB19454   7.609  12.658   6.377
  375POPC    OA19455   7.725  12.670   6.295
  375POPC     P19456   7.854  12.696   6.379
  375POPC    OB19457   7.823  12.756   6.509
  375POPC    OC19458   7.935  12.574   6.374
  375POPC    OD19459   7.923  12.810   6.297
  375POPC    CC19460   7.972  12.765   6.171
  375POPC    CD19461   8.085  12.855   6.118
  375POPC    OE19462   8.117  12.829   5.978
  375POPC   C1A19463   8.204  12.906   5.914
  375POPC    OF19464   8.253  13.006   5.967
  375POPC   C1B19465   8.231  12.861   5.776
  375POPC   C1C19466   8.163  12.951   5.674
  375POPC   C1D19467   8.191  12.901   5.532
  375POPC   C1E19468   8.142  13.002   5.429
  375POPC   C1F19469   8.179  12.958   5.288
  375POPC   C1G19470   8.148  13.070   5.189
  375POPC   C1H19471   8.185  13.033   5.045
  375POPC   C1I19472   8.092  12.928   4.984
  375POPC   C1J19473   8.044  12.950   4.862
  375POPC   C1K19474   8.084  13.079   4.792
  375POPC   C1L19475   8.062  13.075   4.641
  375POPC   C1M19476   8.117  13.205   4.581
  375POPC   C1N19477   8.082  13.228   4.434
  375POPC   C1O19478   8.148  13.127   4.339
  375POPC   C1P19479   8.135  13.173   4.193
  375POPC   C1Q19480   7.990  13.182   4.145
  375POPC   C1R19481   7.983  13.245   4.006
  375POPC    CE19482   8.200  12.838   6.220
  375POPC    OG19483   8.255  12.705   6.227
  375POPC   C2A19484   8.359  12.688   6.307
  375POPC    OH19485   8.378  12.764   6.403
  375POPC   C2B19486   8.433  12.562   6.284
  375POPC   C2C19487   8.543  12.580   6.179
  375POPC   C2D19488   8.488  12.584   6.036
  375POPC   C2E19489   8.593  12.616   5.930
  375POPC   C2F19490   8.706  12.513   5.924
  375POPC   C2G19491   8.798  12.536   5.803
  375POPC   C2H19492   8.731  12.494   5.672
  375POPC   C2I19493   8.821  12.524   5.552
  375POPC   C2J19494   8.760  12.469   5.423
  375POPC   C2K19495   8.850  12.496   5.303
  375POPC   C2L19496   8.806  12.411   5.184
  375POPC   C2M19497   8.899  12.430   5.064
  375POPC   C2N19498   8.875  12.326   4.954
  375POPC   C2O19499   8.737  12.337   4.889
  375POPC   C2P19500   8.719  12.231   4.781
  376POPC   CN119501   9.469  12.875   6.206
  376POPC   CN219502   9.426  12.659   6.297
  376POPC   CN319503   9.598  12.792   6.388
  376POPC   NTM19504   9.463  12.797   6.330
  376POPC    CA19505   9.370  12.857   6.429
  376POPC    CB19506   9.222  12.889   6.393
  376POPC    OA19507   9.148  12.779   6.340
  376POPC     P19508   8.994  12.784   6.373
  376POPC    OB19509   8.936  12.656   6.331
  376POPC    OC19510   8.985  12.824   6.514
  376POPC    OD19511   8.942  12.904   6.286
  376POPC    CC19512   8.925  12.868   6.149
  376POPC    CD19513   8.878  12.986   6.062
  376POPC    OE19514   8.842  12.946   5.927
  376POPC   C1A19515   8.773  13.028   5.848
  376POPC    OF19516   8.718  13.128   5.895
  376POPC   C1B19517   8.756  12.977   5.710
  376POPC   C1C19518   8.614  12.925   5.687
  376POPC   C1D19519   8.599  12.853   5.553
  376POPC   C1E19520   8.610  12.947   5.432
  376POPC   C1F19521   8.602  12.865   5.303
  376POPC   C1G19522   8.598  12.957   5.181
  376POPC   C1H19523   8.594  12.877   5.051
  376POPC   C1I19524   8.579  12.972   4.932
  376POPC   C1J19525   8.526  12.931   4.818
  376POPC   C1K19526   8.481  12.785   4.803
  376POPC   C1L19527   8.375  12.765   4.693
  376POPC   C1M19528   8.428  12.800   4.553
  376POPC   C1N19529   8.340  12.744   4.441
  376POPC   C1O19530   8.350  12.591   4.429
  376POPC   C1P19531   8.490  12.546   4.390
  376POPC   C1Q19532   8.502  12.393   4.393
  376POPC   C1R19533   8.646  12.351   4.364
  376POPC    CE19534   8.987  13.094   6.074
  376POPC    OG19535   9.118  13.057   6.026
  376POPC   C2A19536   9.211  13.152   6.022
  376POPC    OH19537   9.196  13.257   6.085
  376POPC   C2B19538   9.335  13.111   5.953
  376POPC   C2C19539   9.320  13.128   5.802
  376POPC   C2D19540   9.448  13.091   5.728
  376POPC   C2E19541   9.426  13.104   5.577
  376POPC   C2F19542   9.558  13.085   5.501
  376POPC   C2G19543   9.536  13.089   5.350
  376POPC   C2H19544   9.667  13.067   5.277
  376POPC   C2I19545   9.645  13.062   5.126
  376POPC   C2J19546   9.776  13.029   5.053
  376POPC   C2K19547   9.753  13.020   4.903
  376POPC   C2L19548   9.881  12.975   4.832
  376POPC   C2M19549   9.860  12.968   4.680
  376POPC   C2N19550   9.986  12.917   4.611
  376POPC   C2O19551   9.964  12.904   4.460
  376POPC   C2P19552  10.089  12.849   4.392
  377POPC   CN119553   9.664  12.814   7.017
  377POPC   CN219554   9.772  13.013   6.940
  377POPC   CN319555   9.722  12.834   6.789
  377POPC   NTM19556   9.673  12.909   6.905
  377POPC    CA19557   9.538  12.965   6.881
  377POPC    CB19558   9.513  13.078   6.778
  377POPC    OA19559   9.559  13.056   6.644
  377POPC     P19560   9.517  13.177   6.554
  377POPC    OB19561   9.373  13.168   6.537
  377POPC    OC19562   9.580  13.296   6.614
  377POPC    OD19563   9.582  13.142   6.417
  377POPC    CC19564   9.723  13.165   6.412
  377POPC    CD19565   9.778  13.133   6.272
  377POPC    OE19566   9.921  13.106   6.265
  377POPC   C1A19567   9.964  12.986   6.305
  377POPC    OF19568   9.906  12.925   6.395
  377POPC   C1B19569  10.098  12.950   6.253
  377POPC   C1C19570  10.088  12.851   6.136
  377POPC   C1D19571  10.038  12.911   6.004
  377POPC   C1E19572  10.138  13.011   5.946
  377POPC   C1F19573  10.106  13.045   5.800
  377POPC   C1G19574  10.214  13.138   5.745
  377POPC   C1H19575  10.197  13.162   5.594
  377POPC   C1I19576  10.303  13.260   5.545
  377POPC   C1J19577  10.340  13.264   5.417
  377POPC   C1K19578  10.278  13.170   5.313
  377POPC   C1L19579  10.274  13.237   5.176
  377POPC   C1M19580  10.221  13.140   5.070
  377POPC   C1N19581  10.214  13.202   4.930
  377POPC   C1O19582  10.102  13.306   4.918
  377POPC   C1P19583  10.092  13.358   4.775
  377POPC   C1Q19584   9.975  13.455   4.760
  377POPC   C1R19585   9.967  13.511   4.618
  377POPC    CE19586   9.722  13.245   6.182
  377POPC    OG19587   9.752  13.238   6.042
  377POPC   C2A19588   9.690  13.326   5.964
  377POPC    OH19589   9.592  13.389   6.005
  377POPC   C2B19590   9.745  13.331   5.827
  377POPC   C2C19591   9.845  13.446   5.814
  377POPC   C2D19592   9.932  13.435   5.688
  377POPC   C2E19593   9.858  13.458   5.556
  377POPC   C2F19594   9.953  13.424   5.441
  377POPC   C2G19595   9.900  13.456   5.301
  377POPC   C2H19596   9.893  13.606   5.274
  377POPC   C2I19597   9.884  13.631   5.123
  377POPC   C2J19598   9.874  13.780   5.090
  377POPC   C2K19599   9.893  13.802   4.940
  377POPC   C2L19600   9.883  13.950   4.903
  377POPC   C2M19601   9.933  13.978   4.761
  377POPC   C2N19602   9.844  13.918   4.652
  377POPC   C2O19603   9.898  13.945   4.512
  377POPC   C2P19604   9.896  14.094   4.475
  378POPC   CN119605  11.215  12.863   6.722
  378POPC   CN219606  11.296  12.778   6.514
  378POPC   CN319607  11.161  12.976   6.522
  378POPC   NTM19608  11.267  12.901   6.590
  378POPC    CA19609  11.389  12.982   6.612
  378POPC    CB19610  11.469  13.043   6.494
  378POPC    OA19611  11.410  13.150   6.419
  378POPC     P19612  11.514  13.210   6.316
  378POPC    OB19613  11.464  13.345   6.290
  378POPC    OC19614  11.651  13.185   6.365
  378POPC    OD19615  11.480  13.112   6.199
  378POPC    CC19616  11.371  13.163   6.122
  378POPC    CD19617  11.302  13.064   6.026
  378POPC    OE19618  11.228  12.957   6.089
  378POPC   C1A19619  11.106  12.980   6.138
  378POPC    OF19620  11.076  13.093   6.179
  378POPC   C1B19621  11.030  12.855   6.165
  378POPC   C1C19622  10.942  12.813   6.047
  378POPC   C1D19623  11.022  12.768   5.924
  378POPC   C1E19624  10.930  12.748   5.804
  378POPC   C1F19625  11.004  12.716   5.673
  378POPC   C1G19626  11.099  12.828   5.629
  378POPC   C1H19627  11.137  12.821   5.480
  378POPC   C1I19628  11.213  12.694   5.439
  378POPC   C1J19629  11.209  12.655   5.312
  378POPC   C1K19630  11.128  12.738   5.212
  378POPC   C1L19631  11.186  12.740   5.070
  378POPC   C1M19632  11.172  12.606   4.997
  378POPC   C1N19633  11.196  12.621   4.846
  378POPC   C1O19634  11.341  12.654   4.811
  378POPC   C1P19635  11.359  12.691   4.663
  378POPC   C1Q19636  11.327  12.576   4.567
  378POPC   C1R19637  11.344  12.622   4.422
  378POPC    CE19638  11.412  13.016   5.930
  378POPC    OG19639  11.469  13.118   5.845
  378POPC   C2A19640  11.590  13.092   5.796
  378POPC    OH19641  11.657  12.998   5.838
  378POPC   C2B19642  11.637  13.190   5.696
  378POPC   C2C19643  11.621  13.133   5.555
  378POPC   C2D19644  11.699  13.217   5.454
  378POPC   C2E19645  11.684  13.159   5.313
  378POPC   C2F19646  11.775  13.234   5.215
  378POPC   C2G19647  11.754  13.186   5.072
  378POPC   C2H19648  11.847  13.260   4.976
  378POPC   C2I19649  11.812  13.227   4.831
  378POPC   C2J19650  11.908  13.296   4.734
  378POPC   C2K19651  11.866  13.269   4.589
  378POPC   C2L19652  11.962  13.335   4.490
  378POPC   C2M19653  11.914  13.314   4.347
  378POPC   C2N19654  12.008  13.374   4.243
  378POPC   C2O19655  12.143  13.302   4.237
  378POPC   C2P19656  12.233  13.363   4.129
  379POPC   CN119657  11.669  13.764   6.401
  379POPC   CN219658  11.479  13.829   6.526
  379POPC   CN319659  11.545  13.600   6.524
  379POPC   NTM19660  11.594  13.738   6.525
  379POPC    CA19661  11.672  13.765   6.648
  379POPC    CB19662  11.807  13.692   6.672
  379POPC    OA19663  11.908  13.727   6.578
  379POPC     P19664  12.042  13.649   6.598
  379POPC    OB19665  12.149  13.734   6.547
  379POPC    OC19666  12.048  13.591   6.733
  379POPC    OD19667  12.012  13.532   6.497
  379POPC    CC19668  12.040  13.569   6.362
  379POPC    CD19669  12.040  13.449   6.267
  379POPC    OE19670  12.093  13.484   6.135
  379POPC   C1A19671  12.141  13.389   6.055
  379POPC    OF19672  12.157  13.274   6.095
  379POPC   C1B19673  12.183  13.440   5.922
  379POPC   C1C19674  12.067  13.438   5.823
  379POPC   C1D19675  12.107  13.495   5.687
  379POPC   C1E19676  11.984  13.501   5.597
  379POPC   C1F19677  12.013  13.563   5.460
  379POPC   C1G19678  11.881  13.582   5.386
  379POPC   C1H19679  11.896  13.647   5.248
  379POPC   C1I19680  11.756  13.676   5.193
  379POPC   C1J19681  11.727  13.684   5.064
  379POPC   C1K19682  11.831  13.668   4.952
  379POPC   C1L19683  11.781  13.742   4.828
  379POPC   C1M19684  11.869  13.716   4.705
  379POPC   C1N19685  11.812  13.790   4.584
  379POPC   C1O19686  11.885  13.750   4.455
  379POPC   C1P19687  11.821  13.819   4.334
  379POPC   C1Q19688  11.883  13.775   4.201
  379POPC   C1R19689  12.029  13.820   4.187
  379POPC    CE19690  11.897  13.392   6.270
  379POPC    OG19691  11.795  13.472   6.207
  379POPC   C2A19692  11.724  13.410   6.113
  379POPC    OH19693  11.746  13.293   6.081
  379POPC   C2B19694  11.623  13.496   6.048
  379POPC   C2C19695  11.672  13.544   5.911
  379POPC   C2D19696  11.556  13.594   5.826
  379POPC   C2E19697  11.604  13.634   5.686
  379POPC   C2F19698  11.490  13.661   5.587
  379POPC   C2G19699  11.398  13.775   5.631
  379POPC   C2H19700  11.291  13.806   5.527
  379POPC   C2I19701  11.349  13.871   5.401
  379POPC   C2J19702  11.239  13.906   5.301
  379POPC   C2K19703  11.296  13.978   5.179
  379POPC   C2L19704  11.185  14.010   5.080
  379POPC   C2M19705  11.240  14.077   4.954
  379POPC   C2N19706  11.127  14.097   4.852
  379POPC   C2O19707  11.179  14.161   4.723
  379POPC   C2P19708  11.066  14.174   4.621
  380POPC   CN119709  12.450  13.027   6.646
  380POPC   CN219710  12.594  12.867   6.544
  380POPC   CN319711  12.587  13.094   6.465
  380POPC   NTM19712  12.582  13.009   6.584
  380POPC    CA19713  12.685  13.047   6.684
  380POPC    CB19714  12.836  13.050   6.647
  380POPC    OA19715  12.894  12.924   6.610
  380POPC     P19716  13.046  12.942   6.570
  380POPC    OB19717  13.107  13.048   6.651
  380POPC    OC19718  13.102  12.806   6.576
  380POPC    OD19719  13.030  12.993   6.423
  380POPC    CC19720  13.000  12.891   6.327
  380POPC    CD19721  12.962  12.949   6.190
  380POPC    OE19722  12.937  12.847   6.088
  380POPC   C1A19723  12.816  12.795   6.077
  380POPC    OF19724  12.735  12.807   6.170
  380POPC   C1B19725  12.798  12.705   5.961
  380POPC   C1C19726  12.743  12.778   5.838
  380POPC   C1D19727  12.717  12.678   5.725
  380POPC   C1E19728  12.668  12.746   5.597
  380POPC   C1F19729  12.642  12.642   5.488
  380POPC   C1G19730  12.606  12.711   5.356
  380POPC   C1H19731  12.584  12.610   5.243
  380POPC   C1I19732  12.557  12.685   5.112
  380POPC   C1J19733  12.547  12.625   4.994
  380POPC   C1K19734  12.561  12.474   4.974
  380POPC   C1L19735  12.604  12.446   4.830
  380POPC   C1M19736  12.585  12.300   4.790
  380POPC   C1N19737  12.619  12.283   4.641
  380POPC   C1O19738  12.572  12.150   4.581
  380POPC   C1P19739  12.651  12.029   4.632
  380POPC   C1Q19740  12.600  11.901   4.566
  380POPC   C1R19741  12.678  11.779   4.614
  380POPC    CE19742  13.073  13.048   6.153
  380POPC    OG19743  13.046  13.139   6.045
  380POPC   C2A19744  13.140  13.228   6.018
  380POPC    OH19745  13.252  13.221   6.072
  380POPC   C2B19746  13.100  13.321   5.910
  380POPC   C2C19747  13.218  13.393   5.845
  380POPC   C2D19748  13.172  13.487   5.733
  380POPC   C2E19749  13.283  13.586   5.698
  380POPC   C2F19750  13.246  13.678   5.581
  380POPC   C2G19751  13.239  13.600   5.450
  380POPC   C2H19752  13.217  13.692   5.330
  380POPC   C2I19753  13.216  13.608   5.202
  380POPC   C2J19754  13.202  13.694   5.077
  380POPC   C2K19755  13.203  13.604   4.953
  380POPC   C2L19756  13.190  13.685   4.824
  380POPC   C2M19757  13.186  13.592   4.703
  380POPC   C2N19758  13.166  13.671   4.574
  380POPC   C2O19759  13.158  13.576   4.454
  380POPC   C2P19760  13.130  13.654   4.325
  381POPC   CN119761  13.368  13.374   6.316
  381POPC   CN219762  13.364  13.150   6.388
  381POPC   CN319763  13.511  13.303   6.493
  381POPC   NTM19764  13.377  13.288   6.434
  381POPC    CA19765  13.267  13.315   6.530
  381POPC    CB19766  13.247  13.458   6.588
  381POPC    OA19767  13.361  13.511   6.656
  381POPC     P19768  13.380  13.665   6.633
  381POPC    OB19769  13.253  13.731   6.668
  381POPC    OC19770  13.503  13.694   6.708
  381POPC    OD19771  13.406  13.663   6.479
  381POPC    CC19772  13.522  13.737   6.442
  381POPC    CD19773  13.560  13.723   6.293
  381POPC    OE19774  13.702  13.742   6.267
  381POPC   C1A19775  13.784  13.638   6.283
  381POPC    OF19776  13.741  13.527   6.317
  381POPC   C1B19777  13.925  13.669   6.251
  381POPC   C1C19778  13.980  13.575   6.144
  381POPC   C1D19779  14.125  13.611   6.109
  381POPC   C1E19780  14.184  13.516   6.004
  381POPC   C1F19781  14.123  13.531   5.865
  381POPC   C1G19782  14.190  13.437   5.766
  381POPC   C1H19783  14.136  13.457   5.624
  381POPC   C1I19784  14.198  13.354   5.529
  381POPC   C1J19785  14.199  13.375   5.398
  381POPC   C1K19786  14.137  13.502   5.338
  381POPC   C1L19787  14.067  13.477   5.204
  381POPC   C1M19788  14.163  13.439   5.091
  381POPC   C1N19789  14.085  13.411   4.962
  381POPC   C1O19790  14.179  13.371   4.848
  381POPC   C1P19791  14.103  13.342   4.718
  381POPC   C1Q19792  14.039  13.467   4.655
  381POPC   C1R19793  14.143  13.564   4.600
  381POPC    CE19794  13.463  13.811   6.211
  381POPC    OG19795  13.323  13.777   6.211
  381POPC   C2A19796  13.281  13.677   6.133
  381POPC    OH19797  13.360  13.607   6.070
  381POPC   C2B19798  13.135  13.656   6.140
  381POPC   C2C19799  13.063  13.727   6.025
  381POPC   C2D19800  12.919  13.676   6.014
  381POPC   C2E19801  12.860  13.711   5.877
  381POPC   C2F19802  12.731  13.634   5.854
  381POPC   C2G19803  12.673  13.658   5.714
  381POPC   C2H19804  12.761  13.603   5.602
  381POPC   C2I19805  12.699  13.636   5.466
  381POPC   C2J19806  12.785  13.588   5.350
  381POPC   C2K19807  12.720  13.627   5.217
  381POPC   C2L19808  12.795  13.568   5.098
  381POPC   C2M19809  12.721  13.599   4.968
  381POPC   C2N19810  12.789  13.532   4.848
  381POPC   C2O19811  12.712  13.561   4.720
  381POPC   C2P19812  12.779  13.496   4.599
  382POPC   CN119813  16.323  14.142   6.117
  382POPC   CN219814  16.209  13.949   6.200
  382POPC   CN319815  16.443  13.972   6.233
  382POPC   NTM19816  16.316  14.045   6.228
  382POPC    CA19817  16.296  14.114   6.358
  382POPC    CB19818  16.160  14.181   6.389
  382POPC    OA19819  16.116  14.280   6.296
  382POPC     P19820  15.968  14.326   6.320
  382POPC    OB19821  15.927  14.294   6.457
  382POPC    OC19822  15.950  14.460   6.263
  382POPC    OD19823  15.899  14.217   6.230
  382POPC    CC19824  15.915  14.242   6.091
  382POPC    CD19825  15.880  14.116   6.011
  382POPC    OE19826  15.947  14.104   5.882
  382POPC   C1A19827  16.003  13.987   5.853
  382POPC    OF19828  16.021  13.904   5.943
  382POPC   C1B19829  16.052  13.975   5.714
  382POPC   C1C19830  15.957  13.896   5.623
  382POPC   C1D19831  15.823  13.966   5.597
  382POPC   C1E19832  15.834  14.088   5.506
  382POPC   C1F19833  15.845  14.053   5.357
  382POPC   C1G19834  15.716  13.993   5.303
  382POPC   C1H19835  15.722  13.970   5.152
  382POPC   C1I19836  15.596  13.898   5.104
  382POPC   C1J19837  15.547  13.919   4.982
  382POPC   C1K19838  15.612  14.018   4.886
  382POPC   C1L19839  15.514  14.059   4.776
  382POPC   C1M19840  15.583  14.146   4.671
  382POPC   C1N19841  15.486  14.187   4.560
  382POPC   C1O19842  15.558  14.273   4.456
  382POPC   C1P19843  15.461  14.321   4.347
  382POPC   C1Q19844  15.534  14.410   4.246
  382POPC   C1R19845  15.438  14.462   4.139
  382POPC    CE19846  15.727  14.099   6.016
  382POPC    OG19847  15.648  14.209   5.967
  382POPC   C2A19848  15.516  14.200   5.982
  382POPC    OH19849  15.465  14.102   6.038
  382POPC   C2B19850  15.442  14.315   5.926
  382POPC   C2C19851  15.388  14.283   5.787
  382POPC   C2D19852  15.318  14.404   5.726
  382POPC   C2E19853  15.262  14.371   5.587
  382POPC   C2F19854  15.206  14.497   5.520
  382POPC   C2G19855  15.151  14.472   5.379
  382POPC   C2H19856  15.257  14.419   5.283
  382POPC   C2I19857  15.207  14.422   5.138
  382POPC   C2J19858  15.309  14.354   5.046
  382POPC   C2K19859  15.276  14.374   4.897
  382POPC   C2L19860  15.308  14.517   4.852
  382POPC   C2M19861  15.287  14.533   4.702
  382POPC   C2N19862  15.331  14.672   4.656
  382POPC   C2O19863  15.315  14.688   4.505
  382POPC   C2P19864  15.359  14.827   4.459
  383POPC   CN119865  16.480  14.335   7.148
  383POPC   CN219866  16.548  14.497   6.989
  383POPC   CN319867  16.702  14.329   7.060
  383POPC   NTM19868  16.561  14.356   7.027
  383POPC    CA19869  16.511  14.264   6.922
  383POPC    CB19870  16.583  14.254   6.785
  383POPC    OA19871  16.598  14.378   6.715
  383POPC     P19872  16.636  14.350   6.566
  383POPC    OB19873  16.774  14.303   6.565
  383POPC    OC19874  16.524  14.271   6.513
  383POPC    OD19875  16.629  14.496   6.510
  383POPC    CC19876  16.612  14.488   6.369
  383POPC    CD19877  16.599  14.620   6.291
  383POPC    OE19878  16.549  14.600   6.156
  383POPC   C1A19879  16.418  14.608   6.134
  383POPC    OF19880  16.346  14.662   6.218
  383POPC   C1B19881  16.377  14.570   5.997
  383POPC   C1C19882  16.231  14.525   5.993
  383POPC   C1D19883  16.184  14.492   5.851
  383POPC   C1E19884  16.246  14.363   5.797
  383POPC   C1F19885  16.193  14.329   5.658
  383POPC   C1G19886  16.247  14.423   5.549
  383POPC   C1H19887  16.182  14.393   5.415
  383POPC   C1I19888  16.250  14.472   5.303
  383POPC   C1J19889  16.240  14.432   5.177
  383POPC   C1K19890  16.156  14.310   5.139
  383POPC   C1L19891  16.238  14.210   5.057
  383POPC   C1M19892  16.149  14.100   4.996
  383POPC   C1N19893  16.067  14.149   4.876
  383POPC   C1O19894  16.156  14.182   4.756
  383POPC   C1P19895  16.074  14.238   4.640
  383POPC   C1Q19896  16.164  14.277   4.523
  383POPC   C1R19897  16.082  14.339   4.410
  383POPC    CE19898  16.734  14.694   6.304
  383POPC    OG19899  16.848  14.625   6.249
  383POPC   C2A19900  16.965  14.688   6.255
  383POPC    OH19901  16.978  14.797   6.311
  383POPC   C2B19902   0.090  14.616   6.186
  383POPC   C2C19903   0.131  14.688   6.056
  383POPC   C2D19904   0.025  14.677   5.946
  383POPC   C2E19905   0.072  14.751   5.821
  383POPC   C2F19906  16.970  14.714   5.699
  383POPC   C2G19907   0.048  14.775   5.573
  383POPC   C2H19908  16.966  14.716   5.448
  383POPC   C2I19909   0.048  14.771   5.321
  383POPC   C2J19910  16.981  14.696   5.198
  383POPC   C2K19911   0.065  14.748   5.071
  383POPC   C2L19912   0.022  14.665   4.950
  383POPC   C2M19913   0.097  14.710   4.824
  383POPC   C2N19914   0.060  14.621   4.705
  383POPC   C2O19915   0.137  14.664   4.580
  383POPC   C2P19916   0.100  14.575   4.461
  384POPC   CN119917   0.237  13.509   6.518
  384POPC   CN219918   0.184  13.715   6.622
  384POPC   CN319919   0.140  13.682   6.389
  384POPC   NTM19920   0.138  13.618   6.521
  384POPC    CA19921   0.005  13.560   6.553
  384POPC    CB19922  16.862  13.649   6.547
  384POPC    OA19923  16.866  13.764   6.632
  384POPC     P19924  16.750  13.866   6.599
  384POPC    OB19925  16.625  13.789   6.592
  384POPC    OC19926  16.773  13.963   6.707
  384POPC    OD19927  16.797  13.924   6.460
  384POPC    CC19928  16.903  14.020   6.474
  384POPC    CD19929  16.953  14.088   6.345
  384POPC    OE19930   0.082  14.177   6.370
  384POPC   C1A19931   0.205  14.124   6.378
  384POPC    OF19932   0.223  14.003   6.361
  384POPC   C1B19933   0.310  14.224   6.408
  384POPC   C1C19934   0.412  14.241   6.295
  384POPC   C1D19935   0.356  14.310   6.170
  384POPC   C1E19936   0.463  14.315   6.061
  384POPC   C1F19937   0.422  14.392   5.936
  384POPC   C1G19938   0.304  14.328   5.861
  384POPC   C1H19939   0.278  14.403   5.730
  384POPC   C1I19940   0.149  14.352   5.664
  384POPC   C1J19941   0.138  14.345   5.532
  384POPC   C1K19942   0.251  14.387   5.439
  384POPC   C1L19943   0.280  14.277   5.337
  384POPC   C1M19944   0.382  14.321   5.232
  384POPC   C1N19945   0.320  14.417   5.129
  384POPC   C1O19946   0.421  14.470   5.028
  384POPC   C1P19947   0.485  14.360   4.943
  384POPC   C1Q19948   0.583  14.417   4.840
  384POPC   C1R19949   0.511  14.489   4.726
  384POPC    CE19950  16.828  14.153   6.282
  384POPC    OG19951  16.842  14.220   6.155
  384POPC   C2A19952  16.731  14.270   6.102
  384POPC    OH19953  16.620  14.232   6.142
  384POPC   C2B19954  16.753  14.358   5.986
  384POPC   C2C19955  16.727  14.288   5.852
  384POPC   C2D19956  16.719  14.391   5.740
  384POPC   C2E19957  16.697  14.326   5.603
  384POPC   C2F19958  16.666  14.431   5.497
  384POPC   C2G19959  16.649  14.370   5.358
  384POPC   C2H19960  16.784  14.339   5.292
  384POPC   C2I19961  16.768  14.256   5.164
  384POPC   C2J19962  16.694  14.328   5.051
  384POPC   C2K19963  16.662  14.227   4.941
  384POPC   C2L19964  16.585  14.286   4.822
  384POPC   C2M19965  16.674  14.371   4.731
  384POPC   C2N19966  16.598  14.409   4.604
  384POPC   C2O19967  16.688  14.484   4.506
  384POPC   C2P19968  16.614  14.513   4.375
  385POPC   CN119969   0.834  13.952   6.769
  385POPC   CN219970   0.788  13.754   6.890
  385POPC   CN319971   0.976  13.759   6.748
  385POPC   NTM19972   0.896  13.840   6.841
  385POPC    CA19973   0.978  13.887   6.956
  385POPC    CB19974   1.099  13.981   6.933
  385POPC    OA19975   1.205  13.929   6.852
  385POPC     P19976   1.313  14.038   6.815
  385POPC    OB19977   1.327  14.123   6.933
  385POPC    OC19978   1.428  13.960   6.765
  385POPC    OD19979   1.231  14.110   6.702
  385POPC    CC19980   1.230  14.040   6.578
  385POPC    CD19981   1.115  14.084   6.486
  385POPC    OE19982   1.091  13.994   6.374
  385POPC   C1A19983   0.976  13.928   6.365
  385POPC    OF19984   0.906  13.908   6.466
  385POPC   C1B19985   0.950  13.872   6.231
  385POPC   C1C19986   0.990  13.725   6.217
  385POPC   C1D19987   0.983  13.683   6.070
  385POPC   C1E19988   1.028  13.538   6.051
  385POPC   C1F19989   1.017  13.493   5.905
  385POPC   C1G19990   1.119  13.560   5.812
  385POPC   C1H19991   1.104  13.507   5.670
  385POPC   C1I19992   1.205  13.571   5.574
  385POPC   C1J19993   1.248  13.505   5.467
  385POPC   C1K19994   1.198  13.363   5.438
  385POPC   C1L19995   1.180  13.334   5.289
  385POPC   C1M19996   1.312  13.329   5.211
  385POPC   C1N19997   1.289  13.297   5.064
  385POPC   C1O19998   1.421  13.298   4.987
  385POPC   C1P19999   1.402  13.268   4.839
  385POPC   C1Q20000   1.535  13.277   4.765
  385POPC   C1R20001   1.518  13.250   4.615
  385POPC    CE20002   1.143  14.231   6.448
  385POPC    OG20003   1.249  14.251   6.352
  385POPC   C2A20004   1.280  14.377   6.326
  385POPC    OH20005   1.248  14.471   6.400
  385POPC   C2B20006   1.364  14.393   6.205
  385POPC   C2C20007   1.276  14.434   6.086
  385POPC   C2D20008   1.361  14.460   5.962
  385POPC   C2E20009   1.276  14.501   5.841
  385POPC   C2F20010   1.210  14.638   5.859
  385POPC   C2G20011   1.125  14.671   5.736
  385POPC   C2H20012   1.057  14.807   5.748
  385POPC   C2I20013   0.975  14.834   5.621
  385POPC   C2J20014   0.921  14.977   5.618
  385POPC   C2K20015   0.854  15.003   5.483
  385POPC   C2L20016   0.819  15.151   5.467
  385POPC   C2M20017   0.745  15.181   5.335
  385POPC   C2N20018   0.831  15.155   5.211
  385POPC   C2O20019   0.752  15.187   5.084
  385POPC   C2P20020   0.833  15.157   4.959
  386POPC   CN120021   1.851  14.054   6.352
  386POPC   CN220022   1.733  13.882   6.464
  386POPC   CN320023   1.966  13.900   6.491
  386POPC   NTM20024   1.843  13.978   6.477
  386POPC    CA20025   1.817  14.065   6.595
  386POPC    CB20026   1.922  14.169   6.643
  386POPC    OA20027   1.959  14.270   6.550
  386POPC     P20028   2.067  14.371   6.603
  386POPC    OB20029   2.072  14.488   6.515
  386POPC    OC20030   2.052  14.385   6.749
  386POPC    OD20031   2.193  14.278   6.585
  386POPC    CC20032   2.242  14.283   6.451
  386POPC    CD20033   2.370  14.202   6.427
  386POPC    OE20034   2.430  14.235   6.299
  386POPC   C1A20035   2.555  14.200   6.272
  386POPC    OF20036   2.627  14.149   6.358
  386POPC   C1B20037   2.597  14.240   6.136
  386POPC   C1C20038   2.671  14.374   6.141
  386POPC   C1D20039   2.711  14.424   6.002
  386POPC   C1E20040   2.591  14.464   5.917
  386POPC   C1F20041   2.640  14.513   5.780
  386POPC   C1G20042   2.523  14.546   5.688
  386POPC   C1H20043   2.575  14.590   5.551
  386POPC   C1I20044   2.459  14.620   5.456
  386POPC   C1J20045   2.475  14.607   5.325
  386POPC   C1K20046   2.609  14.560   5.268
  386POPC   C1L20047   2.589  14.501   5.128
  386POPC   C1M20048   2.722  14.454   5.067
  386POPC   C1N20049   2.698  14.406   4.924
  386POPC   C1O20050   2.827  14.363   4.854
  386POPC   C1P20051   2.884  14.232   4.909
  386POPC   C1Q20052   3.010  14.192   4.832
  386POPC   C1R20053   3.067  14.060   4.884
  386POPC    CE20054   2.333  14.054   6.447
  386POPC    OG20055   2.235  14.003   6.354
  386POPC   C2A20056   2.282  13.948   6.242
  386POPC    OH20057   2.396  13.901   6.236
  386POPC   C2B20058   2.177  13.930   6.140
  386POPC   C2C20059   2.166  14.055   6.052
  386POPC   C2D20060   2.228  14.034   5.914
  386POPC   C2E20061   2.135  13.953   5.823
  386POPC   C2F20062   2.197  13.933   5.685
  386POPC   C2G20063   2.097  13.867   5.589
  386POPC   C2H20064   2.162  13.844   5.453
  386POPC   C2I20065   2.062  13.792   5.350
  386POPC   C2J20066   2.133  13.764   5.217
  386POPC   C2K20067   2.035  13.713   5.112
  386POPC   C2L20068   2.109  13.666   4.987
  386POPC   C2M20069   2.012  13.600   4.889
  386POPC   C2N20070   2.089  13.529   4.777
  386POPC   C2O20071   1.994  13.451   4.687
  386POPC   C2P20072   2.071  13.370   4.583
  387POPC   CN120073   2.816  14.987   6.618
  387POPC   CN220074   2.803  14.829   6.799
  387POPC   CN320075   2.912  15.038   6.829
  387POPC   NTM20076   2.798  14.972   6.764
  387POPC    CA20077   2.674  15.038   6.810
  387POPC    CB20078   2.536  15.001   6.748
  387POPC    OA20079   2.492  14.865   6.763
  387POPC     P20080   2.354  14.840   6.691
  387POPC    OB20081   2.303  14.720   6.759
  387POPC    OC20082   2.280  14.967   6.694
  387POPC    OD20083   2.416  14.809   6.550
  387POPC    CC20084   2.455  14.672   6.540
  387POPC    CD20085   2.545  14.639   6.419
  387POPC    OE20086   2.682  14.687   6.429
  387POPC   C1A20087   2.774  14.604   6.477
  387POPC    OF20088   2.741  14.509   6.549
  387POPC   C1B20089   2.913  14.649   6.456
  387POPC   C1C20090   2.972  14.585   6.330
  387POPC   C1D20091   3.121  14.618   6.319
  387POPC   C1E20092   3.193  14.553   6.200
  387POPC   C1F20093   3.176  14.629   6.068
  387POPC   C1G20094   3.061  14.573   5.983
  387POPC   C1H20095   3.043  14.650   5.851
  387POPC   C1I20096   3.158  14.630   5.752
  387POPC   C1J20097   3.141  14.555   5.644
  387POPC   C1K20098   3.005  14.491   5.613
  387POPC   C1L20099   2.993  14.447   5.467
  387POPC   C1M20100   3.081  14.325   5.437
  387POPC   C1N20101   3.079  14.290   5.289
  387POPC   C1O20102   3.164  14.166   5.259
  387POPC   C1P20103   3.314  14.190   5.284
  387POPC   C1Q20104   3.395  14.063   5.258
  387POPC   C1R20105   3.543  14.086   5.286
  387POPC    CE20106   2.471  14.684   6.293
  387POPC    OG20107   2.352  14.609   6.262
  387POPC   C2A20108   2.274  14.660   6.168
  387POPC    OH20109   2.280  14.780   6.138
  387POPC   C2B20110   2.175  14.564   6.115
  387POPC   C2C20111   2.153  14.589   5.966
  387POPC   C2D20112   2.108  14.463   5.892
  387POPC   C2E20113   2.114  14.488   5.741
  387POPC   C2F20114   2.120  14.356   5.664
  387POPC   C2G20115   2.158  14.383   5.518
  387POPC   C2H20116   2.195  14.253   5.447
  387POPC   C2I20117   2.249  14.280   5.307
  387POPC   C2J20118   2.288  14.150   5.237
  387POPC   C2K20119   2.335  14.178   5.094
  387POPC   C2L20120   2.371  14.048   5.022
  387POPC   C2M20121   2.406  14.076   4.875
  387POPC   C2N20122   2.438  13.948   4.797
  387POPC   C2O20123   2.570  13.885   4.839
  387POPC   C2P20124   2.601  13.762   4.754
  388POPC   CN120125   4.106  14.631   6.723
  388POPC   CN220126   4.078  14.399   6.682
  388POPC   CN320127   4.063  14.484   6.904
  388POPC   NTM20128   4.031  14.511   6.764
  388POPC    CA20129   3.887  14.539   6.742
  388POPC    CB20130   3.778  14.440   6.789
  388POPC    OA20131   3.784  14.304   6.745
  388POPC     P20132   3.667  14.221   6.808
  388POPC    OB20133   3.696  14.079   6.787
  388POPC    OC20134   3.637  14.271   6.944
  388POPC    OD20135   3.551  14.269   6.714
  388POPC    CC20136   3.543  14.196   6.591
  388POPC    CD20137   3.475  14.275   6.478
  388POPC    OE20138   3.422  14.195   6.368
  388POPC   C1A20139   3.311  14.124   6.386
  388POPC    OF20140   3.247  14.131   6.491
  388POPC   C1B20141   3.271  14.044   6.268
  388POPC   C1C20142   3.151  14.107   6.196
  388POPC   C1D20143   3.094  14.008   6.095
  388POPC   C1E20144   2.965  14.059   6.030
  388POPC   C1F20145   2.897  13.945   5.954
  388POPC   C1G20146   2.761  13.986   5.896
  388POPC   C1H20147   2.773  14.071   5.770
  388POPC   C1I20148   2.633  14.111   5.720
  388POPC   C1J20149   2.600  14.097   5.592
  388POPC   C1K20150   2.700  14.038   5.493
  388POPC   C1L20151   2.675  14.090   5.351
  388POPC   C1M20152   2.773  14.030   5.250
  388POPC   C1N20153   2.751  13.880   5.228
  388POPC   C1O20154   2.860  13.823   5.137
  388POPC   C1P20155   2.836  13.674   5.110
  388POPC   C1Q20156   2.949  13.610   5.029
  388POPC   C1R20157   2.962  13.668   4.888
  388POPC    CE20158   3.576  14.384   6.437
  388POPC    OG20159   3.707  14.335   6.399
  388POPC   C2A20160   3.803  14.425   6.381
  388POPC    OH20161   3.788  14.542   6.417
  388POPC   C2B20162   3.931  14.365   6.339
  388POPC   C2C20163   3.961  14.384   6.190
  388POPC   C2D20164   4.096  14.321   6.158
  388POPC   C2E20165   4.140  14.348   6.015
  388POPC   C2F20166   4.281  14.291   5.993
  388POPC   C2G20167   4.342  14.326   5.857
  388POPC   C2H20168   4.359  14.478   5.838
  388POPC   C2I20169   4.458  14.514   5.727
  388POPC   C2J20170   4.417  14.465   5.588
  388POPC   C2K20171   4.522  14.511   5.487
  388POPC   C2L20172   4.495  14.460   5.345
  388POPC   C2M20173   4.601  14.514   5.250
  388POPC   C2N20174   4.583  14.461   5.108
  388POPC   C2O20175   4.689  14.515   5.011
  388POPC   C2P20176   4.830  14.467   5.045
  389POPC   CN120177   3.232  13.902   7.034
  389POPC   CN220178   3.256  14.065   6.858
  389POPC   CN320179   3.337  14.110   7.076
  389POPC   NTM20180   3.320  14.004   6.976
  389POPC    CA20181   3.454  13.949   6.942
  389POPC    CB20182   3.469  13.823   6.853
  389POPC    OA20183   3.394  13.825   6.732
  389POPC     P20184   3.389  13.686   6.658
  389POPC    OB20185   3.400  13.579   6.759
  389POPC    OC20186   3.272  13.694   6.570
  389POPC    OD20187   3.527  13.688   6.584
  389POPC    CC20188   3.527  13.767   6.465
  389POPC    CD20189   3.666  13.820   6.426
  389POPC    OE20190   3.662  13.903   6.307
  389POPC   C1A20191   3.763  13.985   6.278
  389POPC    OF20192   3.861  13.993   6.352
  389POPC   C1B20193   3.744  14.059   6.151
  389POPC   C1C20194   3.819  13.991   6.036
  389POPC   C1D20195   3.805  14.072   5.906
  389POPC   C1E20196   3.878  14.003   5.791
  389POPC   C1F20197   3.863  14.077   5.658
  389POPC   C1G20198   3.940  14.209   5.657
  389POPC   C1H20199   3.927  14.281   5.522
  389POPC   C1I20200   4.011  14.409   5.524
  389POPC   C1J20201   4.055  14.466   5.412
  389POPC   C1K20202   4.025  14.410   5.273
  389POPC   C1L20203   4.135  14.453   5.175
  389POPC   C1M20204   4.101  14.426   5.028
  389POPC   C1N20205   4.094  14.277   4.993
  389POPC   C1O20206   4.068  14.260   4.843
  389POPC   C1P20207   4.058  14.113   4.801
  389POPC   C1Q20208   3.932  14.045   4.855
  389POPC   C1R20209   3.924  13.900   4.808
  389POPC    CE20210   3.763  13.700   6.419
  389POPC    OG20211   3.727  13.592   6.330
  389POPC   C2A20212   3.824  13.548   6.249
  389POPC    OH20213   3.942  13.580   6.266
  389POPC   C2B20214   3.775  13.447   6.153
  389POPC   C2C20215   3.721  13.508   6.022
  389POPC   C2D20216   3.830  13.577   5.939
  389POPC   C2E20217   3.778  13.628   5.805
  389POPC   C2F20218   3.755  13.516   5.703
  389POPC   C2G20219   3.707  13.569   5.567
  389POPC   C2H20220   3.811  13.660   5.500
  389POPC   C2I20221   3.761  13.708   5.363
  389POPC   C2J20222   3.858  13.805   5.294
  389POPC   C2K20223   3.992  13.740   5.261
  389POPC   C2L20224   4.090  13.835   5.190
  389POPC   C2M20225   4.135  13.955   5.275
  389POPC   C2N20226   4.217  13.914   5.397
  389POPC   C2O20227   4.262  14.037   5.476
  389POPC   C2P20228   4.336  13.996   5.604
  390POPC   CN120229   5.559  13.193   6.365
  390POPC   CN220230   5.634  13.277   6.578
  390POPC   CN320231   5.771  13.297   6.384
  390POPC   NTM20232   5.632  13.300   6.433
  390POPC    CA20233   5.573  13.431   6.396
  390POPC    CB20234   5.439  13.479   6.458
  390POPC    OA20235   5.324  13.393   6.453
  390POPC     P20236   5.208  13.455   6.540
  390POPC    OB20237   5.096  13.361   6.552
  390POPC    OC20238   5.266  13.522   6.657
  390POPC    OD20239   5.170  13.575   6.444
  390POPC    CC20240   5.058  13.545   6.360
  390POPC    CD20241   5.050  13.633   6.235
  390POPC    OE20242   4.921  13.632   6.167
  390POPC   C1A20243   4.822  13.710   6.209
  390POPC    OF20244   4.841  13.796   6.296
  390POPC   C1B20245   4.696  13.686   6.133
  390POPC   C1C20246   4.573  13.728   6.213
  390POPC   C1D20247   4.439  13.693   6.148
  390POPC   C1E20248   4.416  13.760   6.012
  390POPC   C1F20249   4.268  13.754   5.971
  390POPC   C1G20250   4.213  13.612   5.957
  390POPC   C1H20251   4.257  13.543   5.828
  390POPC   C1I20252   4.209  13.397   5.827
  390POPC   C1J20253   4.171  13.339   5.713
  390POPC   C1K20254   4.175  13.416   5.581
  390POPC   C1L20255   4.192  13.319   5.463
  390POPC   C1M20256   4.184  13.394   5.330
  390POPC   C1N20257   4.193  13.296   5.212
  390POPC   C1O20258   4.181  13.370   5.079
  390POPC   C1P20259   4.194  13.273   4.962
  390POPC   C1Q20260   4.180  13.348   4.829
  390POPC   C1R20261   4.193  13.251   4.710
  390POPC    CE20262   5.171  13.593   6.148
  390POPC    OG20263   5.181  13.453   6.117
  390POPC   C2A20264   5.284  13.415   6.041
  390POPC    OH20265   5.370  13.495   6.005
  390POPC   C2B20266   5.281  13.271   6.009
  390POPC   C2C20267   5.213  13.245   5.874
  390POPC   C2D20268   5.182  13.096   5.861
  390POPC   C2E20269   5.134  13.054   5.722
  390POPC   C2F20270   5.001  13.117   5.680
  390POPC   C2G20271   4.953  13.053   5.550
  390POPC   C2H20272   4.826  13.120   5.499
  390POPC   C2I20273   4.767  13.042   5.381
  390POPC   C2J20274   4.652  13.117   5.314
  390POPC   C2K20275   4.702  13.240   5.238
  390POPC   C2L20276   4.587  13.312   5.167
  390POPC   C2M20277   4.637  13.431   5.084
  390POPC   C2N20278   4.721  13.385   4.964
  390POPC   C2O20279   4.771  13.505   4.883
  390POPC   C2P20280   4.856  13.457   4.765
  391POPC   CN120281   5.904  14.101   6.346
  391POPC   CN220282   6.046  14.105   6.533
  391POPC   CN320283   5.855  14.250   6.525
  391POPC   NTM20284   5.906  14.116   6.492
  391POPC    CA20285   5.830  14.008   6.559
  391POPC    CB20286   5.675  14.003   6.551
  391POPC    OA20287   5.614  13.998   6.421
  391POPC     P20288   5.558  13.856   6.383
  391POPC    OB20289   5.551  13.771   6.503
  391POPC    OC20290   5.446  13.870   6.289
  391POPC    OD20291   5.680  13.797   6.306
  391POPC    CC20292   5.696  13.856   6.177
  391POPC    CD20293   5.799  13.783   6.089
  391POPC    OE20294   5.825  13.852   5.964
  391POPC   C1A20295   5.917  13.949   5.961
  391POPC    OF20296   5.979  13.981   6.062
  391POPC   C1B20297   5.927  14.015   5.829
  391POPC   C1C20298   6.031  13.950   5.737
  391POPC   C1D20299   6.029  14.021   5.602
  391POPC   C1E20300   6.127  13.956   5.503
  391POPC   C1F20301   6.115  14.024   5.366
  391POPC   C1G20302   6.207  13.957   5.264
  391POPC   C1H20303   6.192  14.018   5.124
  391POPC   C1I20304   6.248  14.160   5.113
  391POPC   C1J20305   6.199  14.243   5.021
  391POPC   C1K20306   6.087  14.196   4.928
  391POPC   C1L20307   6.015  14.309   4.854
  391POPC   C1M20308   5.939  14.404   4.947
  391POPC   C1N20309   5.849  14.499   4.868
  391POPC   C1O20310   5.772  14.591   4.963
  391POPC   C1P20311   5.671  14.676   4.887
  391POPC   C1Q20312   5.593  14.767   4.982
  391POPC   C1R20313   5.489  14.849   4.906
  391POPC    CE20314   5.742  13.640   6.075
  391POPC    OG20315   5.820  13.541   6.006
  391POPC   C2A20316   5.769  13.418   6.009
  391POPC    OH20317   5.686  13.385   6.095
  391POPC   C2B20318   5.837  13.325   5.916
  391POPC   C2C20319   5.736  13.235   5.845
  391POPC   C2D20320   5.806  13.152   5.738
  391POPC   C2E20321   5.707  13.066   5.659
  391POPC   C2F20322   5.778  12.988   5.547
  391POPC   C2G20323   5.833  13.080   5.438
  391POPC   C2H20324   5.904  12.999   5.329
  391POPC   C2I20325   5.955  13.091   5.218
  391POPC   C2J20326   6.020  13.011   5.106
  391POPC   C2K20327   6.060  13.104   4.991
  391POPC   C2L20328   6.123  13.025   4.876
  391POPC   C2M20329   6.157  13.120   4.760
  391POPC   C2N20330   6.225  13.046   4.645
  391POPC   C2O20331   6.258  13.144   4.532
  391POPC   C2P20332   6.326  13.072   4.415
  392POPC   CN120333   6.487  13.734   6.636
  392POPC   CN220334   6.414  13.638   6.431
  392POPC   CN320335   6.405  13.872   6.458
  392POPC   NTM20336   6.485  13.752   6.490
  392POPC    CA20337   6.622  13.760   6.433
  392POPC    CB20338   6.725  13.859   6.493
  392POPC    OA20339   6.678  13.993   6.505
  392POPC     P20340   6.778  14.086   6.582
  392POPC    OB20341   6.723  14.221   6.601
  392POPC    OC20342   6.826  14.011   6.700
  392POPC    OD20343   6.899  14.095   6.485
  392POPC    CC20344   6.873  14.179   6.372
  392POPC    CD20345   7.003  14.209   6.298
  392POPC    OE20346   6.998  14.318   6.202
  392POPC   C1A20347   7.099  14.405   6.204
  392POPC    OF20348   7.187  14.395   6.291
  392POPC   C1B20349   7.096  14.506   6.096
  392POPC   C1C20350   7.206  14.480   5.993
  392POPC   C1D20351   7.181  14.350   5.914
  392POPC   C1E20352   7.312  14.294   5.860
  392POPC   C1F20353   7.288  14.162   5.787
  392POPC   C1G20354   7.419  14.091   5.752
  392POPC   C1H20355   7.509  14.174   5.660
  392POPC   C1I20356   7.637  14.098   5.625
  392POPC   C1J20357   7.694  14.122   5.507
  392POPC   C1K20358   7.628  14.224   5.415
  392POPC   C1L20359   7.647  14.189   5.267
  392POPC   C1M20360   7.565  14.286   5.182
  392POPC   C1N20361   7.573  14.252   5.033
  392POPC   C1O20362   7.479  14.341   4.952
  392POPC   C1P20363   7.477  14.298   4.806
  392POPC   C1Q20364   7.379  14.383   4.726
  392POPC   C1R20365   7.373  14.337   4.580
  392POPC    CE20366   7.058  14.074   6.249
  392POPC    OG20367   6.971  13.987   6.174
  392POPC   C2A20368   7.026  13.874   6.130
  392POPC    OH20369   7.148  13.855   6.136
  392POPC   C2B20370   6.928  13.785   6.063
  392POPC   C2C20371   6.905  13.822   5.917
  392POPC   C2D20372   7.017  13.783   5.820
  392POPC   C2E20373   7.025  13.631   5.804
  392POPC   C2F20374   7.114  13.590   5.685
  392POPC   C2G20375   7.049  13.625   5.551
  392POPC   C2H20376   7.132  13.572   5.435
  392POPC   C2I20377   7.062  13.597   5.301
  392POPC   C2J20378   7.142  13.536   5.185
  392POPC   C2K20379   7.070  13.549   5.051
  392POPC   C2L20380   6.941  13.467   5.046
  392POPC   C2M20381   6.876  13.474   4.908
  392POPC   C2N20382   6.744  13.396   4.902
  392POPC   C2O20383   6.764  13.244   4.915
  392POPC   C2P20384   6.630  13.171   4.907
  393POPC   CN120385   7.438  13.967   6.544
  393POPC   CN220386   7.432  13.916   6.776
  393POPC   CN320387   7.626  13.862   6.651
  393POPC   NTM20388   7.519  13.961   6.667
  393POPC    CA20389   7.574  14.094   6.701
  393POPC    CB20390   7.657  14.176   6.599
  393POPC    OA20391   7.766  14.107   6.539
  393POPC     P20392   7.859  14.199   6.454
  393POPC    OB20393   7.871  14.330   6.521
  393POPC    OC20394   7.974  14.114   6.420
  393POPC    OD20395   7.763  14.218   6.330
  393POPC    CC20396   7.784  14.117   6.232
  393POPC    CD20397   7.677  14.112   6.120
  393POPC    OE20398   7.709  14.013   6.018
  393POPC   C1A20399   7.654  13.892   6.020
  393POPC    OF20400   7.573  13.861   6.108
  393POPC   C1B20401   7.698  13.810   5.905
  393POPC   C1C20402   7.583  13.740   5.834
  393POPC   C1D20403   7.624  13.705   5.690
  393POPC   C1E20404   7.516  13.625   5.618
  393POPC   C1F20405   7.546  13.615   5.468
  393POPC   C1G20406   7.505  13.742   5.393
  393POPC   C1H20407   7.551  13.740   5.247
  393POPC   C1I20408   7.696  13.787   5.235
  393POPC   C1J20409   7.747  13.825   5.118
  393POPC   C1K20410   7.667  13.815   4.987
  393POPC   C1L20411   7.699  13.928   4.888
  393POPC   C1M20412   7.847  13.932   4.847
  393POPC   C1N20413   7.882  14.055   4.762
  393POPC   C1O20414   7.849  14.036   4.614
  393POPC   C1P20415   7.898  14.158   4.536
  393POPC   C1Q20416   7.888  14.140   4.384
  393POPC   C1R20417   7.987  14.035   4.332
  393POPC    CE20418   7.663  14.254   6.064
  393POPC    OG20419   7.780  14.303   5.997
  393POPC   C2A20420   7.777  14.429   5.954
  393POPC    OH20421   7.691  14.508   5.993
  393POPC   C2B20422   7.897  14.465   5.876
  393POPC   C2C20423   7.883  14.428   5.728
  393POPC   C2D20424   8.018  14.446   5.659
  393POPC   C2E20425   8.012  14.408   5.511
  393POPC   C2F20426   8.151  14.411   5.448
  393POPC   C2G20427   8.203  14.553   5.429
  393POPC   C2H20428   8.350  14.551   5.386
  393POPC   C2I20429   8.400  14.691   5.350
  393POPC   C2J20430   8.360  14.731   5.208
  393POPC   C2K20431   8.405  14.875   5.178
  393POPC   C2L20432   8.402  14.909   5.029
  393POPC   C2M20433   8.262  14.906   4.969
  393POPC   C2N20434   8.268  14.938   4.820
  393POPC   C2O20435   8.128  14.933   4.757
  393POPC   C2P20436   8.136  14.964   4.607
  394POPC   CN120437   8.370  13.869   6.262
  394POPC   CN220438   8.326  13.783   6.043
  394POPC   CN320439   8.148  13.857   6.180
  394POPC   NTM20440   8.287  13.884   6.142
  394POPC    CA20441   8.292  14.021   6.086
  394POPC    CB20442   8.421  14.084   6.029
  394POPC    OA20443   8.533  14.088   6.117
  394POPC     P20444   8.654  14.167   6.056
  394POPC    OB20445   8.607  14.297   6.005
  394POPC    OC20446   8.760  14.160   6.158
  394POPC    OD20447   8.692  14.072   5.937
  394POPC    CC20448   8.779  13.965   5.974
  394POPC    CD20449   8.820  13.872   5.859
  394POPC    OE20450   8.917  13.772   5.901
  394POPC   C1A20451   8.881  13.644   5.906
  394POPC    OF20452   8.761  13.612   5.911
  394POPC   C1B20453   8.996  13.554   5.932
  394POPC   C1C20454   8.984  13.418   5.861
  394POPC   C1D20455   8.997  13.427   5.709
  394POPC   C1E20456   9.002  13.286   5.650
  394POPC   C1F20457   9.022  13.288   5.498
  394POPC   C1G20458   9.028  13.145   5.444
  394POPC   C1H20459   9.025  13.141   5.290
  394POPC   C1I20460   9.153  13.193   5.224
  394POPC   C1J20461   9.178  13.160   5.098
  394POPC   C1K20462   9.077  13.074   5.021
  394POPC   C1L20463   9.084  13.102   4.871
  394POPC   C1M20464   8.980  13.023   4.791
  394POPC   C1N20465   9.009  12.872   4.788
  394POPC   C1O20466   8.903  12.800   4.705
  394POPC   C1P20467   8.926  12.649   4.697
  394POPC   C1Q20468   9.052  12.614   4.617
  394POPC   C1R20469   9.072  12.462   4.610
  394POPC    CE20470   8.873  13.962   5.746
  394POPC    OG20471   8.893  13.894   5.621
  394POPC   C2A20472   8.967  13.953   5.529
  394POPC    OH20473   9.026  14.060   5.552
  394POPC   C2B20474   8.972  13.876   5.403
  394POPC   C2C20475   9.082  13.769   5.407
  394POPC   C2D20476   9.065  13.664   5.297
  394POPC   C2E20477   9.081  13.721   5.156
  394POPC   C2F20478   9.068  13.610   5.052
  394POPC   C2G20479   9.079  13.666   4.910
  394POPC   C2H20480   9.068  13.554   4.806
  394POPC   C2I20481   9.072  13.607   4.662
  394POPC   C2J20482   8.949  13.692   4.628
  394POPC   C2K20483   8.955  13.745   4.484
  394POPC   C2L20484   8.938  13.633   4.381
  394POPC   C2M20485   8.967  13.680   4.238
  394POPC   C2N20486   9.116  13.712   4.219
  394POPC   C2O20487   9.150  13.758   4.077
  394POPC   C2P20488   9.139  13.644   3.976
  395POPC   CN120489   9.377  13.723   6.314
  395POPC   CN220490   9.236  13.560   6.409
  395POPC   CN320491   9.395  13.494   6.245
  395POPC   NTM20492   9.372  13.584   6.360
  395POPC    CA20493   9.467  13.558   6.471
  395POPC    CB20494   9.618  13.590   6.458
  395POPC    OA20495   9.689  13.525   6.351
  395POPC     P20496   9.822  13.601   6.315
  395POPC    OB20497   9.879  13.659   6.438
  395POPC    OC20498   9.903  13.516   6.228
  395POPC    OD20499   9.753  13.717   6.234
  395POPC    CC20500   9.728  13.679   6.099
  395POPC    CD20501   9.625  13.770   6.030
  395POPC    OE20502   9.586  13.721   5.900
  395POPC   C1A20503   9.455  13.715   5.874
  395POPC    OF20504   9.372  13.736   5.962
  395POPC   C1B20505   9.424  13.682   5.733
  395POPC   C1C20506   9.409  13.531   5.713
  395POPC   C1D20507   9.361  13.497   5.571
  395POPC   C1E20508   9.465  13.526   5.462
  395POPC   C1F20509   9.410  13.484   5.326
  395POPC   C1G20510   9.514  13.505   5.215
  395POPC   C1H20511   9.460  13.463   5.079
  395POPC   C1I20512   9.569  13.474   4.972
  395POPC   C1J20513   9.565  13.395   4.865
  395POPC   C1K20514   9.449  13.296   4.848
  395POPC   C1L20515   9.443  13.233   4.709
  395POPC   C1M20516   9.414  13.335   4.598
  395POPC   C1N20517   9.403  13.268   4.460
  395POPC   C1O20518   9.534  13.206   4.410
  395POPC   C1P20519   9.639  13.312   4.375
  395POPC   C1Q20520   9.765  13.246   4.319
  395POPC   C1R20521   9.864  13.353   4.272
  395POPC    CE20522   9.683  13.913   6.032
  395POPC    OG20523   9.585  14.011   5.995
  395POPC   C2A20524   9.630  14.121   5.935
  395POPC    OH20525   9.747  14.159   5.949
  395POPC   C2B20526   9.522  14.191   5.863
  395POPC   C2C20527   9.521  14.147   5.716
  395POPC   C2D20528   9.393  14.191   5.647
  395POPC   C2E20529   9.407  14.195   5.495
  395POPC   C2F20530   9.419  14.058   5.427
  395POPC   C2G20531   9.436  14.080   5.277
  395POPC   C2H20532   9.437  13.950   5.197
  395POPC   C2I20533   9.453  13.983   5.049
  395POPC   C2J20534   9.444  13.858   4.961
  395POPC   C2K20535   9.461  13.897   4.814
  395POPC   C2L20536   9.443  13.775   4.722
  395POPC   C2M20537   9.466  13.810   4.575
  395POPC   C2N20538   9.363  13.911   4.521
  395POPC   C2O20539   9.391  13.950   4.376
  395POPC   C2P20540   9.519  14.031   4.360
  396POPC   CN120541   9.919  14.143   6.272
  396POPC   CN220542  10.145  14.102   6.216
  396POPC   CN320543  10.089  14.177   6.435
  396POPC   NTM20544  10.046  14.091   6.324
  396POPC    CA20545  10.025  13.950   6.365
  396POPC    CB20546  10.136  13.867   6.433
  396POPC    OA20547  10.261  13.867   6.364
  396POPC     P20548  10.354  13.750   6.410
  396POPC    OB20549  10.490  13.782   6.366
  396POPC    OC20550  10.328  13.707   6.549
  396POPC    OD20551  10.293  13.639   6.317
  396POPC    CC20552  10.354  13.637   6.188
  396POPC    CD20553  10.279  13.548   6.088
  396POPC    OE20554  10.359  13.497   5.978
  396POPC   C1A20555  10.450  13.402   5.998
  396POPC    OF20556  10.474  13.357   6.111
  396POPC   C1B20557  10.522  13.363   5.874
  396POPC   C1C20558  10.654  13.438   5.860
  396POPC   C1D20559  10.730  13.401   5.732
  396POPC   C1E20560  10.659  13.450   5.606
  396POPC   C1F20561  10.737  13.416   5.479
  396POPC   C1G20562  10.657  13.461   5.357
  396POPC   C1H20563  10.726  13.424   5.225
  396POPC   C1I20564  10.630  13.453   5.109
  396POPC   C1J20565  10.675  13.483   4.987
  396POPC   C1K20566  10.824  13.489   4.954
  396POPC   C1L20567  10.850  13.596   4.848
  396POPC   C1M20568  10.994  13.593   4.794
  396POPC   C1N20569  11.099  13.625   4.901
  396POPC   C1O20570  11.238  13.629   4.838
  396POPC   C1P20571  11.349  13.652   4.941
  396POPC   C1Q20572  11.372  13.533   5.034
  396POPC   C1R20573  11.438  13.415   4.961
  396POPC    CE20574  10.153  13.630   6.050
  396POPC    OG20575  10.179  13.754   5.983
  396POPC   C2A20576  10.079  13.841   5.973
  396POPC    OH20577   9.992  13.844   6.059
  396POPC   C2B20578  10.106  13.950   5.877
  396POPC   C2C20579   9.986  13.977   5.787
  396POPC   C2D20580  10.019  14.088   5.689
  396POPC   C2E20581   9.901  14.117   5.596
  396POPC   C2F20582   9.944  14.219   5.490
  396POPC   C2G20583   9.834  14.240   5.386
  396POPC   C2H20584   9.887  14.315   5.263
  396POPC   C2I20585   9.993  14.232   5.189
  396POPC   C2J20586  10.047  14.306   5.067
  396POPC   C2K20587  10.153  14.220   4.998
  396POPC   C2L20588  10.201  14.286   4.868
  396POPC   C2M20589  10.289  14.189   4.789
  396POPC   C2N20590  10.329  14.250   4.655
  396POPC   C2O20591  10.404  14.150   4.566
  396POPC   C2P20592  10.313  14.036   4.517
  397POPC   CN120593  10.743  13.560   6.206
  397POPC   CN220594  10.678  13.480   6.418
  397POPC   CN320595  10.909  13.489   6.361
  397POPC   NTM20596  10.780  13.558   6.348
  397POPC    CA20597  10.781  13.693   6.408
  397POPC    CB20598  10.854  13.813   6.342
  397POPC    OA20599  10.995  13.809   6.321
  397POPC     P20600  11.038  13.935   6.235
  397POPC    OB20601  10.959  14.052   6.276
  397POPC    OC20602  11.185  13.943   6.231
  397POPC    OD20603  10.989  13.879   6.096
  397POPC    CC20604  11.078  13.784   6.038
  397POPC    CD20605  11.022  13.712   5.915
  397POPC    OE20606  11.115  13.620   5.852
  397POPC   C1A20607  11.138  13.499   5.903
  397POPC    OF20608  11.107  13.472   6.020
  397POPC   C1B20609  11.212  13.411   5.810
  397POPC   C1C20610  11.115  13.326   5.728
  397POPC   C1D20611  11.180  13.255   5.609
  397POPC   C1E20612  11.229  13.354   5.503
  397POPC   C1F20613  11.263  13.287   5.370
  397POPC   C1G20614  11.136  13.237   5.299
  397POPC   C1H20615  11.167  13.177   5.162
  397POPC   C1I20616  11.037  13.131   5.095
  397POPC   C1J20617  11.022  13.132   4.963
  397POPC   C1K20618  11.134  13.175   4.867
  397POPC   C1L20619  11.187  13.055   4.788
  397POPC   C1M20620  11.292  13.094   4.684
  397POPC   C1N20621  11.234  13.177   4.570
  397POPC   C1O20622  11.336  13.201   4.458
  397POPC   C1P20623  11.453  13.290   4.498
  397POPC   C1Q20624  11.411  13.436   4.519
  397POPC   C1R20625  11.530  13.521   4.562
  397POPC    CE20626  10.976  13.826   5.822
  397POPC    OG20627  10.908  13.789   5.700
  397POPC   C2A20628  10.863  13.888   5.625
  397POPC    OH20629  10.848  14.001   5.672
  397POPC   C2B20630  10.807  13.841   5.496
  397POPC   C2C20631  10.832  13.940   5.383
  397POPC   C2D20632  10.757  13.899   5.256
  397POPC   C2E20633  10.784  14.001   5.145
  397POPC   C2F20634  10.700  13.973   5.020
  397POPC   C2G20635  10.731  14.074   4.909
  397POPC   C2H20636  10.692  14.217   4.948
  397POPC   C2I20637  10.749  14.318   4.848
  397POPC   C2J20638  10.710  14.463   4.880
  397POPC   C2K20639  10.766  14.512   5.014
  397POPC   C2L20640  10.729  14.658   5.035
  397POPC   C2M20641  10.767  14.709   5.174
  397POPC   C2N20642  10.721  14.854   5.191
  397POPC   C2O20643  10.751  14.906   5.331
  397POPC   C2P20644  10.696  15.048   5.349
  398POPC   CN120645  12.687  13.905   7.183
  398POPC   CN220646  12.888  14.027   7.145
  398POPC   CN320647  12.850  13.826   7.027
  398POPC   NTM20648  12.785  13.945   7.081
  398POPC    CA20649  12.722  14.027   6.975
  398POPC    CB20650  12.602  13.972   6.893
  398POPC    OA20651  12.627  13.853   6.819
  398POPC     P20652  12.499  13.805   6.742
  398POPC    OB20653  12.531  13.682   6.669
  398POPC    OC20654  12.383  13.816   6.832
  398POPC    OD20655  12.495  13.923   6.640
  398POPC    CC20656  12.385  13.915   6.549
  398POPC    CD20657  12.334  14.053   6.506
  398POPC    OE20658  12.217  14.055   6.418
  398POPC   C1A20659  12.096  14.029   6.465
  398POPC    OF20660  12.075  14.034   6.587
  398POPC   C1B20661  11.990  14.046   6.362
  398POPC   C1C20662  11.989  13.938   6.254
  398POPC   C1D20663  11.908  13.988   6.134
  398POPC   C1E20664  11.921  13.898   6.012
  398POPC   C1F20665  11.877  13.974   5.887
  398POPC   C1G20666  11.901  13.892   5.760
  398POPC   C1H20667  11.882  13.975   5.632
  398POPC   C1I20668  11.738  14.020   5.608
  398POPC   C1J20669  11.695  14.041   5.484
  398POPC   C1K20670  11.790  14.021   5.365
  398POPC   C1L20671  11.743  14.099   5.242
  398POPC   C1M20672  11.840  14.080   5.125
  398POPC   C1N20673  11.798  14.158   5.000
  398POPC   C1O20674  11.668  14.103   4.939
  398POPC   C1P20675  11.629  14.174   4.809
  398POPC   C1Q20676  11.586  14.319   4.833
  398POPC   C1R20677  11.544  14.386   4.702
  398POPC    CE20678  12.454  14.131   6.449
  398POPC    OG20679  12.531  14.069   6.344
  398POPC   C2A20680  12.597  14.152   6.263
  398POPC    OH20681  12.582  14.274   6.272
  398POPC   C2B20682  12.675  14.081   6.159
  398POPC   C2C20683  12.732  14.175   6.053
  398POPC   C2D20684  12.788  14.097   5.933
  398POPC   C2E20685  12.851  14.192   5.831
  398POPC   C2F20686  12.890  14.122   5.700
  398POPC   C2G20687  12.766  14.085   5.617
  398POPC   C2H20688  12.802  14.016   5.485
  398POPC   C2I20689  12.875  14.108   5.388
  398POPC   C2J20690  12.906  14.036   5.256
  398POPC   C2K20691  12.981  14.129   5.161
  398POPC   C2L20692  13.013  14.064   5.025
  398POPC   C2M20693  12.887  14.037   4.942
  398POPC   C2N20694  12.925  13.988   4.802
  398POPC   C2O20695  12.799  13.962   4.718
  398POPC   C2P20696  12.837  13.919   4.576
  399POPC   CN120697  12.902  13.793   6.644
  399POPC   CN220698  12.804  13.975   6.530
  399POPC   CN320699  12.971  13.846   6.420
  399POPC   NTM20700  12.857  13.839   6.512
  399POPC    CA20701  12.748  13.753   6.460
  399POPC    CB20702  12.766  13.600   6.452
  399POPC    OA20703  12.874  13.557   6.368
  399POPC     P20704  12.908  13.404   6.385
  399POPC    OB20705  13.028  13.375   6.307
  399POPC    OC20706  12.904  13.377   6.529
  399POPC    OD20707  12.782  13.337   6.319
  399POPC    CC20708  12.785  13.347   6.176
  399POPC    CD20709  12.660  13.288   6.109
  399POPC    OE20710  12.672  13.277   5.964
  399POPC   C1A20711  12.592  13.193   5.899
  399POPC    OF20712  12.518  13.115   5.961
  399POPC   C1B20713  12.606  13.201   5.752
  399POPC   C1C20714  12.469  13.207   5.684
  399POPC   C1D20715  12.481  13.227   5.533
  399POPC   C1E20716  12.341  13.233   5.471
  399POPC   C1F20717  12.341  13.254   5.320
  399POPC   C1G20718  12.391  13.394   5.279
  399POPC   C1H20719  12.371  13.420   5.130
  399POPC   C1I20720  12.223  13.439   5.094
  399POPC   C1J20721  12.187  13.504   4.983
  399POPC   C1K20722  12.290  13.560   4.886
  399POPC   C1L20723  12.232  13.562   4.744
  399POPC   C1M20724  12.330  13.623   4.644
  399POPC   C1N20725  12.271  13.621   4.503
  399POPC   C1O20726  12.366  13.680   4.398
  399POPC   C1P20727  12.389  13.830   4.417
  399POPC   C1Q20728  12.482  13.884   4.308
  399POPC   C1R20729  12.505  14.034   4.327
  399POPC    CE20730  12.541  13.369   6.162
  399POPC    OG20731  12.545  13.511   6.139
  399POPC   C2A20732  12.457  13.585   6.205
  399POPC    OH20733  12.403  13.541   6.307
  399POPC   C2B20734  12.458  13.726   6.162
  399POPC   C2C20735  12.322  13.770   6.109
  399POPC   C2D20736  12.323  13.916   6.061
  399POPC   C2E20737  12.394  13.936   5.926
  399POPC   C2F20738  12.312  13.881   5.809
  399POPC   C2G20739  12.381  13.914   5.676
  399POPC   C2H20740  12.301  13.860   5.558
  399POPC   C2I20741  12.374  13.887   5.426
  399POPC   C2J20742  12.296  13.831   5.307
  399POPC   C2K20743  12.371  13.850   5.175
  399POPC   C2L20744  12.382  13.998   5.135
  399POPC   C2M20745  12.454  14.017   5.001
  399POPC   C2N20746  12.375  13.965   4.880
  399POPC   C2O20747  12.245  14.044   4.856
  399POPC   C2P20748  12.170  13.992   4.734
  400POPC   CN120749  13.271  14.450   6.746
  400POPC   CN220750  13.282  14.530   6.521
  400POPC   CN320751  13.348  14.671   6.701
  400POPC   NTM20752  13.349  14.533   6.652
  400POPC    CA20753  13.490  14.487   6.643
  400POPC    CB20754  13.523  14.337   6.622
  400POPC    OA20755  13.444  14.272   6.523
  400POPC     P20756  13.493  14.128   6.487
  400POPC    OB20757  13.559  14.068   6.604
  400POPC    OC20758  13.380  14.060   6.422
  400POPC    OD20759  13.607  14.168   6.386
  400POPC    CC20760  13.555  14.208   6.259
  400POPC    CD20761  13.662  14.268   6.167
  400POPC    OE20762  13.615  14.339   6.049
  400POPC   C1A20763  13.578  14.467   6.059
  400POPC    OF20764  13.573  14.522   6.169
  400POPC   C1B20765  13.552  14.528   5.927
  400POPC   C1C20766  13.454  14.645   5.930
  400POPC   C1D20767  13.426  14.700   5.790
  400POPC   C1E20768  13.352  14.598   5.703
  400POPC   C1F20769  13.334  14.646   5.559
  400POPC   C1G20770  13.272  14.534   5.475
  400POPC   C1H20771  13.266  14.569   5.326
  400POPC   C1I20772  13.226  14.445   5.247
  400POPC   C1J20773  13.182  14.452   5.122
  400POPC   C1K20774  13.170  14.584   5.046
  400POPC   C1L20775  13.177  14.558   4.896
  400POPC   C1M20776  13.151  14.685   4.815
  400POPC   C1N20777  13.158  14.661   4.664
  400POPC   C1O20778  13.046  14.569   4.614
  400POPC   C1P20779  13.061  14.542   4.464
  400POPC   C1Q20780  12.952  14.447   4.414
  400POPC   C1R20781  12.969  14.418   4.265
  400POPC    CE20782  13.764  14.156   6.138
  400POPC    OG20783  13.716  14.038   6.071
  400POPC   C2A20784  13.810  13.954   6.028
  400POPC    OH20785  13.929  13.970   6.058
  400POPC   C2B20786  13.758  13.842   5.946
  400POPC   C2C20787  13.746  13.880   5.799
  400POPC   C2D20788  13.719  13.757   5.713
  400POPC   C2E20789  13.710  13.796   5.565
  400POPC   C2F20790  13.699  13.672   5.476
  400POPC   C2G20791  13.682  13.713   5.329
  400POPC   C2H20792  13.677  13.590   5.238
  400POPC   C2I20793  13.650  13.632   5.094
  400POPC   C2J20794  13.654  13.511   5.000
  400POPC   C2K20795  13.612  13.553   4.859
  400POPC   C2L20796  13.623  13.437   4.760
  400POPC   C2M20797  13.570  13.474   4.621
  400POPC   C2N20798  13.650  13.587   4.555
  400POPC   C2O20799  13.588  13.628   4.421
  400POPC   C2P20800  13.665  13.744   4.358
  401POPC   CN120801  14.220  14.198   6.263
  401POPC   CN220802  14.171  13.971   6.300
  401POPC   CN320803  14.383  14.056   6.367
  401POPC   NTM20804  14.240  14.087   6.357
  401POPC    CA20805  14.181  14.115   6.490
  401POPC    CB20806  14.234  14.231   6.578
  401POPC    OA20807  14.235  14.360   6.516
  401POPC     P20808  14.256  14.477   6.617
  401POPC    OB20809  14.231  14.606   6.551
  401POPC    OC20810  14.196  14.446   6.747
  401POPC    OD20811  14.410  14.461   6.643
  401POPC    CC20812  14.486  14.536   6.548
  401POPC    CD20813  14.636  14.502   6.541
  401POPC    OE20814  14.714  14.613   6.488
  401POPC   C1A20815  14.846  14.616   6.505
  401POPC    OF20816  14.907  14.522   6.557
  401POPC   C1B20817  14.910  14.737   6.448
  401POPC   C1C20818  14.983  14.709   6.316
  401POPC   C1D20819  14.886  14.683   6.201
  401POPC   C1E20820  14.964  14.644   6.075
  401POPC   C1F20821  14.871  14.651   5.954
  401POPC   C1G20822  14.948  14.624   5.824
  401POPC   C1H20823  14.870  14.671   5.700
  401POPC   C1I20824  14.855  14.824   5.698
  401POPC   C1J20825  14.854  14.891   5.583
  401POPC   C1K20826  14.867  14.817   5.450
  401POPC   C1L20827  14.946  14.902   5.350
  401POPC   C1M20828  14.956  14.837   5.212
  401POPC   C1N20829  14.821  14.830   5.141
  401POPC   C1O20830  14.833  14.774   4.999
  401POPC   C1P20831  14.912  14.867   4.907
  401POPC   C1Q20832  14.925  14.808   4.767
  401POPC   C1R20833  15.004  14.903   4.677
  401POPC    CE20834  14.643  14.364   6.472
  401POPC    OG20835  14.569  14.352   6.348
  401POPC   C2A20836  14.640  14.352   6.236
  401POPC    OH20837  14.762  14.343   6.237
  401POPC   C2B20838  14.555  14.353   6.114
  401POPC   C2C20839  14.532  14.495   6.064
  401POPC   C2D20840  14.461  14.495   5.929
  401POPC   C2E20841  14.438  14.639   5.882
  401POPC   C2F20842  14.366  14.647   5.747
  401POPC   C2G20843  14.454  14.606   5.629
  401POPC   C2H20844  14.380  14.640   5.499
  401POPC   C2I20845  14.458  14.600   5.373
  401POPC   C2J20846  14.381  14.650   5.251
  401POPC   C2K20847  14.444  14.609   5.118
  401POPC   C2L20848  14.371  14.683   5.005
  401POPC   C2M20849  14.422  14.650   4.865
  401POPC   C2N20850  14.368  14.516   4.814
  401POPC   C2O20851  14.402  14.498   4.667
  401POPC   C2P20852  14.345  14.367   4.612
  402POPC   CN120853  16.277  15.165   6.259
  402POPC   CN220854  16.175  14.970   6.166
  402POPC   CN320855  16.361  14.951   6.312
  402POPC   NTM20856  16.238  15.026   6.286
  402POPC    CA20857  16.152  15.012   6.406
  402POPC    CB20858  16.015  15.084   6.414
  402POPC    OA20859  16.025  15.227   6.405
  402POPC     P20860  15.885  15.297   6.407
  402POPC    OB20861  15.787  15.209   6.345
  402POPC    OC20862  15.874  15.337   6.549
  402POPC    OD20863  15.919  15.418   6.314
  402POPC    CC20864  15.899  15.388   6.176
  402POPC    CD20865  15.921  15.512   6.088
  402POPC    OE20866  15.848  15.514   5.962
  402POPC   C1A20867  15.760  15.614   5.947
  402POPC    OF20868  15.757  15.707   6.028
  402POPC   C1B20869  15.684  15.610   5.820
  402POPC   C1C20870  15.748  15.705   5.719
  402POPC   C1D20871  15.672  15.716   5.587
  402POPC   C1E20872  15.536  15.787   5.601
  402POPC   C1F20873  15.472  15.813   5.464
  402POPC   C1G20874  15.550  15.917   5.384
  402POPC   C1H20875  15.491  15.941   5.245
  402POPC   C1I20876  15.578  16.042   5.169
  402POPC   C1J20877  15.530  16.115   5.069
  402POPC   C1K20878  15.386  16.099   5.020
  402POPC   C1L20879  15.376  16.145   4.874
  402POPC   C1M20880  15.235  16.129   4.817
  402POPC   C1N20881  15.196  15.982   4.797
  402POPC   C1O20882  15.054  15.971   4.741
  402POPC   C1P20883  15.015  15.825   4.718
  402POPC   C1Q20884  14.871  15.810   4.669
  402POPC   C1R20885  14.849  15.869   4.529
  402POPC    CE20886  16.072  15.539   6.086
  402POPC    OG20887  16.155  15.439   6.023
  402POPC   C2A20888  16.284  15.471   6.011
  402POPC    OH20889  16.330  15.572   6.065
  402POPC   C2B20890  16.360  15.374   5.929
  402POPC   C2C20891  16.488  15.438   5.873
  402POPC   C2D20892  16.565  15.347   5.777
  402POPC   C2E20893  16.504  15.343   5.637
  402POPC   C2F20894  16.601  15.271   5.543
  402POPC   C2G20895  16.558  15.278   5.396
  402POPC   C2H20896  16.663  15.213   5.307
  402POPC   C2I20897  16.621  15.215   5.160
  402POPC   C2J20898  16.727  15.147   5.072
  402POPC   C2K20899  16.681  15.143   4.926
  402POPC   C2L20900  16.785  15.073   4.838
  402POPC   C2M20901  16.736  15.062   4.694
  402POPC   C2N20902  16.839  14.992   4.606
  402POPC   C2O20903  16.791  14.970   4.462
  402POPC   C2P20904  16.776  15.102   4.385
  403POPC   CN120905   0.359  15.241   6.536
  403POPC   CN220906   0.447  15.454   6.476
  403POPC   CN320907   0.286  15.350   6.337
  403POPC   NTM20908   0.326  15.372   6.477
  403POPC    CA20909   0.222  15.444   6.554
  403POPC    CB20910   0.076  15.394   6.553
  403POPC    OA20911   0.053  15.259   6.593
  403POPC     P20912  16.898  15.208   6.538
  403POPC    OB20913  16.869  15.079   6.602
  403POPC    OC20914  16.801  15.318   6.543
  403POPC    OD20915  16.935  15.190   6.387
  403POPC    CC20916  16.845  15.099   6.324
  403POPC    CD20917  16.834  15.117   6.172
  403POPC    OE20918  16.752  15.014   6.110
  403POPC   C1A20919  16.627  15.044   6.075
  403POPC    OF20920  16.565  15.131   6.137
  403POPC   C1B20921  16.565  14.943   5.986
  403POPC   C1C20922  16.613  14.961   5.842
  403POPC   C1D20923  16.536  14.872   5.744
  403POPC   C1E20924  16.596  14.888   5.604
  403POPC   C1F20925  16.517  14.816   5.496
  403POPC   C1G20926  16.592  14.829   5.364
  403POPC   C1H20927  16.524  14.756   5.249
  403POPC   C1I20928  16.619  14.751   5.129
  403POPC   C1J20929  16.575  14.723   5.006
  403POPC   C1K20930  16.427  14.697   4.981
  403POPC   C1L20931  16.402  14.687   4.830
  403POPC   C1M20932  16.253  14.674   4.797
  403POPC   C1N20933  16.233  14.658   4.646
  403POPC   C1O20934  16.285  14.779   4.567
  403POPC   C1P20935  16.282  14.752   4.417
  403POPC   C1Q20936  16.351  14.867   4.343
  403POPC   C1R20937  16.355  14.841   4.192
  403POPC    CE20938  16.977  15.120   6.116
  403POPC    OG20939   0.005  15.182   5.986
  403POPC   C2A20940   0.116  15.161   5.917
  403POPC    OH20941   0.210  15.098   5.965
  403POPC   C2B20942   0.115  15.227   5.785
  403POPC   C2C20943   0.018  15.157   5.690
  403POPC   C2D20944   0.001  15.231   5.557
  403POPC   C2E20945   0.117  15.212   5.460
  403POPC   C2F20946   0.083  15.280   5.328
  403POPC   C2G20947   0.179  15.242   5.216
  403POPC   C2H20948   0.130  15.302   5.085
  403POPC   C2I20949   0.210  15.252   4.965
  403POPC   C2J20950   0.154  15.311   4.836
  403POPC   C2K20951   0.226  15.254   4.714
  403POPC   C2L20952   0.166  15.311   4.585
  403POPC   C2M20953   0.231  15.246   4.462
  403POPC   C2N20954   0.170  15.300   4.333
  403POPC   C2O20955   0.227  15.231   4.209
  403POPC   C2P20956   0.189  15.083   4.201
  404POPC   CN120957   0.466  14.781   6.738
  404POPC   CN220958   0.367  14.655   6.909
  404POPC   CN320959   0.437  14.544   6.710
  404POPC   NTM20960   0.471  14.650   6.806
  404POPC    CA20961   0.602  14.628   6.872
  404POPC    CB20962   0.735  14.611   6.793
  404POPC    OA20963   0.751  14.489   6.719
  404POPC     P20964   0.899  14.473   6.664
  404POPC    OB20965   0.989  14.565   6.734
  404POPC    OC20966   0.922  14.328   6.676
  404POPC    OD20967   0.884  14.518   6.515
  404POPC    CC20968   0.799  14.431   6.442
  404POPC    CD20969   0.788  14.450   6.290
  404POPC    OE20970   0.885  14.375   6.212
  404POPC   C1A20971   0.849  14.254   6.171
  404POPC    OF20972   0.768  14.188   6.235
  404POPC   C1B20973   0.931  14.205   6.057
  404POPC   C1C20974   0.865  14.233   5.921
  404POPC   C1D20975   0.867  14.382   5.882
  404POPC   C1E20976   0.795  14.410   5.750
  404POPC   C1F20977   0.869  14.351   5.629
  404POPC   C1G20978   0.793  14.374   5.499
  404POPC   C1H20979   0.796  14.520   5.451
  404POPC   C1I20980   0.712  14.535   5.324
  404POPC   C1J20981   0.761  14.597   5.217
  404POPC   C1K20982   0.902  14.657   5.216
  404POPC   C1L20983   0.977  14.627   5.085
  404POPC   C1M20984   0.916  14.695   4.963
  404POPC   C1N20985   0.985  14.648   4.835
  404POPC   C1O20986   0.922  14.710   4.711
  404POPC   C1P20987   0.982  14.656   4.581
  404POPC   C1Q20988   0.948  14.508   4.558
  404POPC   C1R20989   1.011  14.458   4.428
  404POPC    CE20990   0.780  14.600   6.257
  404POPC    OG20991   0.727  14.625   6.126
  404POPC   C2A20992   0.745  14.746   6.073
  404POPC    OH20993   0.823  14.826   6.123
  404POPC   C2B20994   0.678  14.763   5.943
  404POPC   C2C20995   0.527  14.785   5.960
  404POPC   C2D20996   0.457  14.804   5.826
  404POPC   C2E20997   0.489  14.941   5.765
  404POPC   C2F20998   0.417  14.967   5.633
  404POPC   C2G20999   0.472  14.883   5.519
  404POPC   C2H21000   0.412  14.929   5.386
  404POPC   C2I21001   0.480  14.861   5.268
  404POPC   C2J21002   0.428  14.919   5.136
  404POPC   C2K21003   0.506  14.862   5.017
  404POPC   C2L21004   0.455  14.922   4.886
  404POPC   C2M21005   0.537  14.869   4.769
  404POPC   C2N21006   0.483  14.923   4.636
  404POPC   C2O21007   0.563  14.866   4.519
  404POPC   C2P21008   0.508  14.917   4.386
  405POPC   CN121009   1.412  14.484   7.019
  405POPC   CN221010   1.187  14.420   7.055
  405POPC   CN321011   1.233  14.633   6.961
  405POPC   NTM21012   1.276  14.492   6.964
  405POPC    CA21013   1.268  14.429   6.830
  405POPC    CB21014   1.346  14.487   6.709
  405POPC    OA21015   1.487  14.502   6.726
  405POPC     P21016   1.574  14.386   6.664
  405POPC    OB21017   1.641  14.322   6.778
  405POPC    OC21018   1.497  14.307   6.568
  405POPC    OD21019   1.679  14.473   6.587
  405POPC    CC21020   1.627  14.528   6.466
  405POPC    CD21021   1.734  14.588   6.373
  405POPC    OE21022   1.679  14.678   6.272
  405POPC   C1A21023   1.766  14.745   6.196
  405POPC    OF21024   1.875  14.777   6.244
  405POPC   C1B21025   1.711  14.792   6.067
  405POPC   C1C21026   1.728  14.684   5.960
  405POPC   C1D21027   1.672  14.727   5.825
  405POPC   C1E21028   1.673  14.610   5.726
  405POPC   C1F21029   1.608  14.650   5.593
  405POPC   C1G21030   1.576  14.530   5.504
  405POPC   C1H21031   1.699  14.460   5.445
  405POPC   C1I21032   1.655  14.342   5.358
  405POPC   C1J21033   1.725  14.303   5.252
  405POPC   C1K21034   1.855  14.374   5.214
  405POPC   C1L21035   1.880  14.369   5.063
  405POPC   C1M21036   2.014  14.435   5.030
  405POPC   C1N21037   2.044  14.446   4.880
  405POPC   C1O21038   2.061  14.310   4.811
  405POPC   C1P21039   2.116  14.323   4.669
  405POPC   C1Q21040   2.021  14.397   4.574
  405POPC   C1R21041   2.079  14.405   4.433
  405POPC    CE21042   1.812  14.467   6.316
  405POPC    OG21043   1.735  14.389   6.223
  405POPC   C2A21044   1.802  14.313   6.137
  405POPC    OH21045   1.923  14.293   6.150
  405POPC   C2B21046   1.712  14.243   6.043
  405POPC   C2C21047   1.777  14.212   5.908
  405POPC   C2D21048   1.678  14.132   5.823
  405POPC   C2E21049   1.735  14.088   5.688
  405POPC   C2F21050   1.631  14.001   5.617
  405POPC   C2G21051   1.681  13.948   5.482
  405POPC   C2H21052   1.574  13.855   5.423
  405POPC   C2I21053   1.615  13.794   5.289
  405POPC   C2J21054   1.617  13.897   5.175
  405POPC   C2K21055   1.648  13.828   5.042
  405POPC   C2L21056   1.641  13.925   4.925
  405POPC   C2M21057   1.665  13.851   4.793
  405POPC   C2N21058   1.650  13.942   4.671
  405POPC   C2O21059   1.762  14.045   4.660
  405POPC   C2P21060   1.746  14.128   4.533
  406POPC   CN121061   2.238  15.192   6.152
  406POPC   CN221062   2.187  15.210   6.384
  406POPC   CN321063   2.103  15.028   6.254
  406POPC   NTM21064   2.218  15.116   6.275
  406POPC    CA21065   2.335  15.032   6.308
  406POPC    CB21066   2.462  15.096   6.369
  406POPC    OA21067   2.510  15.214   6.306
  406POPC     P21068   2.616  15.289   6.396
  406POPC    OB21069   2.649  15.421   6.339
  406POPC    OC21070   2.575  15.272   6.536
  406POPC    OD21071   2.733  15.187   6.377
  406POPC    CC21072   2.809  15.213   6.259
  406POPC    CD21073   2.906  15.097   6.230
  406POPC    OE21074   3.018  15.139   6.148
  406POPC   C1A21075   3.129  15.066   6.145
  406POPC    OF21076   3.149  14.979   6.231
  406POPC   C1B21077   3.229  15.109   6.044
  406POPC   C1C21078   3.172  15.152   5.907
  406POPC   C1D21079   3.105  15.037   5.832
  406POPC   C1E21080   3.061  15.079   5.692
  406POPC   C1F21081   2.988  14.964   5.622
  406POPC   C1G21082   2.956  14.997   5.477
  406POPC   C1H21083   2.880  14.881   5.411
  406POPC   C1I21084   2.854  14.907   5.262
  406POPC   C1J21085   2.923  14.845   5.166
  406POPC   C1K21086   3.032  14.743   5.200
  406POPC   C1L21087   3.172  14.800   5.176
  406POPC   C1M21088   3.280  14.704   5.227
  406POPC   C1N21089   3.420  14.761   5.199
  406POPC   C1O21090   3.531  14.675   5.260
  406POPC   C1P21091   3.532  14.683   5.413
  406POPC   C1Q21092   3.647  14.602   5.472
  406POPC   C1R21093   3.652  14.616   5.624
  406POPC    CE21094   2.819  14.982   6.175
  406POPC    OG21095   2.746  15.013   6.055
  406POPC   C2A21096   2.675  14.916   5.999
  406POPC    OH21097   2.651  14.812   6.060
  406POPC   C2B21098   2.622  14.956   5.867
  406POPC   C2C21099   2.475  14.999   5.874
  406POPC   C2D21100   2.430  15.074   5.748
  406POPC   C2E21101   2.450  14.992   5.620
  406POPC   C2F21102   2.404  15.069   5.496
  406POPC   C2G21103   2.441  14.990   5.370
  406POPC   C2H21104   2.384  15.053   5.242
  406POPC   C2I21105   2.431  14.971   5.121
  406POPC   C2J21106   2.369  15.017   4.989
  406POPC   C2K21107   2.411  15.159   4.949
  406POPC   C2L21108   2.365  15.195   4.807
  406POPC   C2M21109   2.213  15.202   4.794
  406POPC   C2N21110   2.172  15.224   4.648
  406POPC   C2O21111   2.019  15.228   4.634
  406POPC   C2P21112   1.978  15.240   4.488
  407POPC   CN121113   4.641  14.596   7.166
  407POPC   CN221114   4.537  14.480   6.988
  407POPC   CN321115   4.578  14.717   6.971
  407POPC   NTM21116   4.631  14.588   7.020
  407POPC    CA21117   4.766  14.561   6.965
  407POPC    CB21118   4.789  14.539   6.813
  407POPC    OA21119   4.749  14.647   6.729
  407POPC     P21120   4.793  14.631   6.579
  407POPC    OB21121   4.804  14.767   6.524
  407POPC    OC21122   4.900  14.531   6.566
  407POPC    OD21123   4.661  14.563   6.530
  407POPC    CC21124   4.667  14.545   6.388
  407POPC    CD21125   4.575  14.434   6.334
  407POPC    OE21126   4.614  14.382   6.205
  407POPC   C1A21127   4.706  14.286   6.200
  407POPC    OF21128   4.747  14.233   6.304
  407POPC   C1B21129   4.742  14.245   6.062
  407POPC   C1C21130   4.719  14.095   6.041
  407POPC   C1D21131   4.772  14.043   5.907
  407POPC   C1E21132   4.924  14.057   5.897
  407POPC   C1F21133   4.985  13.976   5.783
  407POPC   C1G21134   4.980  13.825   5.812
  407POPC   C1H21135   5.055  13.747   5.704
  407POPC   C1I21136   5.052  13.597   5.734
  407POPC   C1J21137   5.069  13.509   5.636
  407POPC   C1K21138   5.093  13.557   5.493
  407POPC   C1L21139   5.053  13.449   5.392
  407POPC   C1M21140   5.079  13.490   5.246
  407POPC   C1N21141   5.228  13.514   5.219
  407POPC   C1O21142   5.258  13.542   5.071
  407POPC   C1P21143   5.239  13.417   4.984
  407POPC   C1Q21144   5.276  13.446   4.839
  407POPC   C1R21145   5.256  13.321   4.753
  407POPC    CE21146   4.428  14.476   6.355
  407POPC    OG21147   4.394  14.611   6.321
  407POPC   C2A21148   4.275  14.655   6.361
  407POPC    OH21149   4.200  14.585   6.429
  407POPC   C2B21150   4.253  14.797   6.326
  407POPC   C2C21151   4.106  14.836   6.309
  407POPC   C2D21152   4.043  14.778   6.182
  407POPC   C2E21153   3.896  14.818   6.175
  407POPC   C2F21154   3.826  14.759   6.053
  407POPC   C2G21155   3.676  14.792   6.056
  407POPC   C2H21156   3.646  14.938   6.024
  407POPC   C2I21157   3.627  14.960   5.873
  407POPC   C2J21158   3.592  15.106   5.845
  407POPC   C2K21159   3.511  15.121   5.716
  407POPC   C2L21160   3.589  15.090   5.587
  407POPC   C2M21161   3.496  15.084   5.465
  407POPC   C2N21162   3.423  15.216   5.438
  407POPC   C2O21163   3.322  15.199   5.325
  407POPC   C2P21164   3.247  15.330   5.298
  408POPC   CN121165   5.157  15.914   6.837
  408POPC   CN221166   4.970  16.062   6.837
  408POPC   CN321167   5.176  16.124   6.733
  408POPC   NTM21168   5.083  16.013   6.758
  408POPC    CA21169   5.040  15.959   6.626
  408POPC    CB21170   4.939  15.841   6.616
  408POPC    OA21171   4.982  15.718   6.675
  408POPC     P21172   4.862  15.632   6.727
  408POPC    OB21173   4.928  15.526   6.804
  408POPC    OC21174   4.765  15.725   6.789
  408POPC    OD21175   4.801  15.580   6.592
  408POPC    CC21176   4.863  15.461   6.541
  408POPC    CD21177   4.821  15.431   6.396
  408POPC    OE21178   4.868  15.303   6.347
  408POPC   C1A21179   4.800  15.190   6.366
  408POPC    OF21180   4.703  15.185   6.443
  408POPC   C1B21181   4.867  15.075   6.302
  408POPC   C1C21182   4.778  14.957   6.262
  408POPC   C1D21183   4.692  14.979   6.137
  408POPC   C1E21184   4.606  14.855   6.117
  408POPC   C1F21185   4.544  14.844   5.977
  408POPC   C1G21186   4.441  14.951   5.945
  408POPC   C1H21187   4.388  14.931   5.803
  408POPC   C1I21188   4.289  15.039   5.762
  408POPC   C1J21189   4.191  15.009   5.676
  408POPC   C1K21190   4.179  14.866   5.623
  408POPC   C1L21191   4.034  14.826   5.593
  408POPC   C1M21192   3.975  14.890   5.467
  408POPC   C1N21193   4.048  14.846   5.340
  408POPC   C1O21194   3.972  14.882   5.212
  408POPC   C1P21195   3.959  15.034   5.191
  408POPC   C1Q21196   3.884  15.067   5.061
  408POPC   C1R21197   3.737  15.025   5.066
  408POPC    CE21198   4.874  15.551   6.314
  408POPC    OG21199   4.782  15.601   6.215
  408POPC   C2A21200   4.820  15.710   6.149
  408POPC    OH21201   4.921  15.774   6.179
  408POPC   C2B21202   4.717  15.753   6.051
  408POPC   C2C21203   4.771  15.815   5.922
  408POPC   C2D21204   4.652  15.868   5.842
  408POPC   C2E21205   4.690  15.937   5.710
  408POPC   C2F21206   4.733  15.837   5.603
  408POPC   C2G21207   4.745  15.904   5.465
  408POPC   C2H21208   4.864  15.999   5.455
  408POPC   C2I21209   4.861  16.081   5.326
  408POPC   C2J21210   4.881  15.996   5.200
  408POPC   C2K21211   4.868  16.078   5.071
  408POPC   C2L21212   4.976  16.186   5.059
  408POPC   C2M21213   4.964  16.267   4.930
  408POPC   C2N21214   4.993  16.183   4.805
  408POPC   C2O21215   4.986  16.268   4.679
  408POPC   C2P21216   5.014  16.184   4.554
  409POPC   CN121217   5.067  14.022   6.260
  409POPC   CN221218   5.193  14.190   6.147
  409POPC   CN321219   5.057  14.246   6.335
  409POPC   NTM21220   5.146  14.144   6.278
  409POPC    CA21221   5.258  14.114   6.370
  409POPC    CB21222   5.366  14.220   6.400
  409POPC    OA21223   5.317  14.347   6.444
  409POPC     P21224   5.433  14.451   6.450
  409POPC    OB21225   5.495  14.422   6.579
  409POPC    OC21226   5.509  14.441   6.324
  409POPC    OD21227   5.343  14.579   6.456
  409POPC    CC21228   5.300  14.614   6.324
  409POPC    CD21229   5.158  14.672   6.312
  409POPC    OE21230   5.118  14.695   6.174
  409POPC   C1A21231   5.074  14.595   6.098
  409POPC    OF21232   5.066  14.481   6.145
  409POPC   C1B21233   5.044  14.629   5.956
  409POPC   C1C21234   4.993  14.772   5.934
  409POPC   C1D21235   4.963  14.803   5.787
  409POPC   C1E21236   4.839  14.728   5.736
  409POPC   C1F21237   4.795  14.775   5.596
  409POPC   C1G21238   4.749  14.921   5.596
  409POPC   C1H21239   4.690  14.966   5.463
  409POPC   C1I21240   4.549  14.912   5.439
  409POPC   C1J21241   4.497  14.909   5.317
  409POPC   C1K21242   4.581  14.960   5.198
  409POPC   C1L21243   4.530  14.909   5.063
  409POPC   C1M21244   4.398  14.975   5.022
  409POPC   C1N21245   4.350  14.931   4.883
  409POPC   C1O21246   4.441  14.975   4.768
  409POPC   C1P21247   4.448  15.127   4.753
  409POPC   C1Q21248   4.542  15.166   4.638
  409POPC   C1R21249   4.560  15.318   4.633
  409POPC    CE21250   5.150  14.797   6.402
  409POPC    OG21251   5.249  14.899   6.378
  409POPC   C2A21252   5.231  15.017   6.436
  409POPC    OH21253   5.145  15.035   6.523
  409POPC   C2B21254   5.331  15.118   6.393
  409POPC   C2C21255   5.271  15.231   6.310
  409POPC   C2D21256   5.220  15.186   6.173
  409POPC   C2E21257   5.149  15.301   6.101
  409POPC   C2F21258   5.080  15.255   5.972
  409POPC   C2G21259   5.177  15.232   5.856
  409POPC   C2H21260   5.101  15.179   5.734
  409POPC   C2I21261   5.188  15.178   5.608
  409POPC   C2J21262   5.112  15.119   5.489
  409POPC   C2K21263   5.196  15.124   5.362
  409POPC   C2L21264   5.137  15.037   5.250
  409POPC   C2M21265   5.012  15.094   5.184
  409POPC   C2N21266   5.046  15.206   5.085
  409POPC   C2O21267   4.922  15.248   5.006
  409POPC   C2P21268   4.958  15.355   4.903
  410POPC   CN121269   5.383  14.796   6.791
  410POPC   CN221270   5.569  14.754   6.650
  410POPC   CN321271   5.603  14.828   6.874
  410POPC   NTM21272   5.520  14.743   6.788
  410POPC    CA21273   5.516  14.602   6.836
  410POPC    CB21274   5.644  14.513   6.835
  410POPC    OA21275   5.758  14.565   6.904
  410POPC     P21276   5.888  14.478   6.880
  410POPC    OB21277   5.988  14.538   6.969
  410POPC    OC21278   5.852  14.335   6.891
  410POPC    OD21279   5.915  14.512   6.729
  410POPC    CC21280   5.968  14.643   6.707
  410POPC    CD21281   5.982  14.681   6.558
  410POPC    OE21282   5.854  14.703   6.492
  410POPC   C1A21283   5.852  14.767   6.376
  410POPC    OF21284   5.940  14.849   6.347
  410POPC   C1B21285   5.724  14.745   6.303
  410POPC   C1C21286   5.673  14.871   6.233
  410POPC   C1D21287   5.559  14.835   6.138
  410POPC   C1E21288   5.528  14.951   6.043
  410POPC   C1F21289   5.434  14.911   5.929
  410POPC   C1G21290   5.493  14.797   5.845
  410POPC   C1H21291   5.406  14.765   5.723
  410POPC   C1I21292   5.433  14.860   5.606
  410POPC   C1J21293   5.408  14.821   5.481
  410POPC   C1K21294   5.347  14.684   5.453
  410POPC   C1L21295   5.198  14.694   5.420
  410POPC   C1M21296   5.131  14.557   5.405
  410POPC   C1N21297   5.123  14.483   5.539
  410POPC   C1O21298   5.060  14.344   5.524
  410POPC   C1P21299   4.913  14.351   5.484
  410POPC   C1Q21300   4.856  14.213   5.447
  410POPC   C1R21301   4.917  14.160   5.317
  410POPC    CE21302   6.067  14.566   6.498
  410POPC    OG21303   6.101  14.573   6.359
  410POPC   C2A21304   6.127  14.457   6.298
  410POPC    OH21305   6.132  14.352   6.362
  410POPC   C2B21306   6.151  14.472   6.152
  410POPC   C2C21307   6.112  14.345   6.076
  410POPC   C2D21308   6.119  14.361   5.923
  410POPC   C2E21309   6.261  14.381   5.869
  410POPC   C2F21310   6.257  14.381   5.716
  410POPC   C2G21311   6.396  14.402   5.655
  410POPC   C2H21312   6.386  14.390   5.503
  410POPC   C2I21313   6.521  14.410   5.434
  410POPC   C2J21314   6.505  14.391   5.283
  410POPC   C2K21315   6.636  14.411   5.207
  410POPC   C2L21316   6.611  14.388   5.057
  410POPC   C2M21317   6.736  14.408   4.971
  410POPC   C2N21318   6.845  14.304   4.998
  410POPC   C2O21319   6.967  14.322   4.908
  410POPC   C2P21320   6.937  14.291   4.761
  411POPC   CN121321   6.660  14.284   7.148
  411POPC   CN221322   6.705  14.476   7.014
  411POPC   CN321323   6.871  14.308   7.040
  411POPC   NTM21324   6.726  14.331   7.026
  411POPC    CA21325   6.680  14.257   6.907
  411POPC    CB21326   6.531  14.253   6.863
  411POPC    OA21327   6.468  14.376   6.825
  411POPC     P21328   6.332  14.344   6.752
  411POPC    OB21329   6.265  14.227   6.812
  411POPC    OC21330   6.266  14.475   6.742
  411POPC    OD21331   6.389  14.299   6.614
  411POPC    CC21332   6.413  14.405   6.521
  411POPC    CD21333   6.501  14.368   6.400
  411POPC    OE21334   6.496  14.468   6.294
  411POPC   C1A21335   6.587  14.565   6.291
  411POPC    OF21336   6.661  14.587   6.388
  411POPC   C1B21337   6.586  14.642   6.165
  411POPC   C1C21338   6.694  14.589   6.071
  411POPC   C1D21339   6.688  14.653   5.932
  411POPC   C1E21340   6.805  14.601   5.847
  411POPC   C1F21341   6.797  14.648   5.702
  411POPC   C1G21342   6.919  14.597   5.624
  411POPC   C1H21343   6.906  14.626   5.474
  411POPC   C1I21344   7.028  14.572   5.399
  411POPC   C1J21345   7.058  14.618   5.278
  411POPC   C1K21346   6.969  14.724   5.211
  411POPC   C1L21347   6.969  14.708   5.059
  411POPC   C1M21348   6.874  14.808   4.994
  411POPC   C1N21349   6.862  14.783   4.843
  411POPC   C1O21350   6.767  14.885   4.780
  411POPC   C1P21351   6.742  14.860   4.631
  411POPC   C1Q21352   6.659  14.734   4.607
  411POPC   C1R21353   6.627  14.717   4.459
  411POPC    CE21354   6.459  14.228   6.352
  411POPC    OG21355   6.555  14.167   6.264
  411POPC   C2A21356   6.524  14.161   6.136
  411POPC    OH21357   6.406  14.153   6.100
  411POPC   C2B21358   6.643  14.128   6.053
  411POPC   C2C21359   6.639  14.192   5.914
  411POPC   C2D21360   6.775  14.174   5.848
  411POPC   C2E21361   6.770  14.199   5.697
  411POPC   C2F21362   6.908  14.172   5.637
  411POPC   C2G21363   6.903  14.163   5.485
  411POPC   C2H21364   7.041  14.129   5.429
  411POPC   C2I21365   7.032  14.090   5.282
  411POPC   C2J21366   7.168  14.051   5.225
  411POPC   C2K21367   7.150  13.989   5.086
  411POPC   C2L21368   7.285  13.952   5.024
  411POPC   C2M21369   7.270  13.874   4.893
  411POPC   C2N21370   7.206  13.957   4.781
  411POPC   C2O21371   7.192  13.873   4.653
  411POPC   C2P21372   7.125  13.954   4.542
  412POPC   CN121373   6.890  15.074   6.440
  412POPC   CN221374   6.987  14.937   6.611
  412POPC   CN321375   6.832  14.845   6.454
  412POPC   NTM21376   6.943  14.940   6.470
  412POPC    CA21377   7.053  14.902   6.378
  412POPC    CB21378   7.186  14.981   6.377
  412POPC    OA21379   7.176  15.121   6.351
  412POPC     P21380   7.306  15.200   6.389
  412POPC    OB21381   7.276  15.343   6.390
  412POPC    OC21382   7.355  15.138   6.514
  412POPC    OD21383   7.401  15.163   6.269
  412POPC    CC21384   7.374  15.245   6.155
  412POPC    CD21385   7.496  15.319   6.097
  412POPC    OE21386   7.457  15.416   5.995
  412POPC   C1A21387   7.541  15.511   5.956
  412POPC    OF21388   7.636  15.542   6.030
  412POPC   C1B21389   7.493  15.589   5.840
  412POPC   C1C21390   7.480  15.502   5.714
  412POPC   C1D21391   7.441  15.580   5.588
  412POPC   C1E21392   7.300  15.639   5.594
  412POPC   C1F21393   7.264  15.706   5.461
  412POPC   C1G21394   7.130  15.779   5.472
  412POPC   C1H21395   7.094  15.851   5.342
  412POPC   C1I21396   6.970  15.938   5.364
  412POPC   C1J21397   6.915  16.008   5.264
  412POPC   C1K21398   6.970  16.004   5.122
  412POPC   C1L21399   6.948  16.139   5.053
  412POPC   C1M21400   6.984  16.138   4.904
  412POPC   C1N21401   6.883  16.057   4.822
  412POPC   C1O21402   6.917  16.063   4.673
  412POPC   C1P21403   6.817  15.983   4.590
  412POPC   C1Q21404   6.851  15.989   4.441
  412POPC   C1R21405   6.752  15.907   4.358
  412POPC    CE21406   7.596  15.211   6.050
  412POPC    OG21407   7.542  15.116   5.957
  412POPC   C2A21408   7.626  15.028   5.904
  412POPC    OH21409   7.747  15.031   5.926
  412POPC   C2B21410   7.556  14.936   5.811
  412POPC   C2C21411   7.604  14.791   5.828
  412POPC   C2D21412   7.529  14.694   5.736
  412POPC   C2E21413   7.559  14.717   5.588
  412POPC   C2F21414   7.492  14.608   5.504
  412POPC   C2G21415   7.524  14.621   5.355
  412POPC   C2H21416   7.450  14.735   5.286
  412POPC   C2I21417   7.468  14.725   5.135
  412POPC   C2J21418   7.381  14.828   5.062
  412POPC   C2K21419   7.385  14.810   4.910
  412POPC   C2L21420   7.519  14.850   4.845
  412POPC   C2M21421   7.543  15.001   4.852
  412POPC   C2N21422   7.669  15.044   4.776
  412POPC   C2O21423   7.652  15.026   4.624
  412POPC   C2P21424   7.775  15.075   4.549
  413POPC   CN121425   8.086  14.810   6.326
  413POPC   CN221426   7.866  14.799   6.414
  413POPC   CN321427   7.909  14.714   6.197
  413POPC   NTM21428   7.965  14.728   6.332
  413POPC    CA21429   7.989  14.596   6.396
  413POPC    CB21430   8.096  14.499   6.340
  413POPC    OA21431   8.076  14.460   6.205
  413POPC     P21432   8.192  14.371   6.150
  413POPC    OB21433   8.259  14.304   6.262
  413POPC    OC21434   8.142  14.294   6.035
  413POPC    OD21435   8.288  14.488   6.104
  413POPC    CC21436   8.246  14.540   5.977
  413POPC    CD21437   8.333  14.653   5.920
  413POPC    OE21438   8.269  14.734   5.818
  413POPC   C1A21439   8.183  14.831   5.852
  413POPC    OF21440   8.159  14.858   5.970
  413POPC   C1B21441   8.126  14.902   5.735
  413POPC   C1C21442   7.994  14.839   5.693
  413POPC   C1D21443   7.916  14.930   5.597
  413POPC   C1E21444   7.974  14.940   5.456
  413POPC   C1F21445   7.918  14.830   5.365
  413POPC   C1G21446   7.955  14.858   5.220
  413POPC   C1H21447   7.892  14.759   5.121
  413POPC   C1I21448   7.954  14.619   5.129
  413POPC   C1J21449   7.962  14.545   5.018
  413POPC   C1K21450   7.910  14.602   4.886
  413POPC   C1L21451   7.854  14.491   4.796
  413POPC   C1M21452   7.799  14.545   4.664
  413POPC   C1N21453   7.910  14.598   4.572
  413POPC   C1O21454   7.853  14.646   4.439
  413POPC   C1P21455   7.965  14.691   4.345
  413POPC   C1Q21456   7.914  14.738   4.209
  413POPC   C1R21457   7.836  14.870   4.218
  413POPC    CE21458   8.467  14.589   5.878
  413POPC    OG21459   8.456  14.479   5.787
  413POPC   C2A21460   8.570  14.427   5.744
  413POPC    OH21461   8.676  14.490   5.752
  413POPC   C2B21462   8.551  14.299   5.672
  413POPC   C2C21463   8.672  14.254   5.590
  413POPC   C2D21464   8.684  14.321   5.453
  413POPC   C2E21465   8.803  14.259   5.379
  413POPC   C2F21466   8.803  14.287   5.229
  413POPC   C2G21467   8.912  14.201   5.164
  413POPC   C2H21468   8.901  14.198   5.011
  413POPC   C2I21469   8.997  14.094   4.954
  413POPC   C2J21470   8.975  14.071   4.804
  413POPC   C2K21471   9.024  14.187   4.718
  413POPC   C2L21472   8.988  14.163   4.571
  413POPC   C2M21473   9.046  14.273   4.482
  413POPC   C2N21474   8.998  14.261   4.337
  413POPC   C2O21475   9.047  14.134   4.266
  413POPC   C2P21476   8.996  14.130   4.122
  414POPC   CN121477   9.081  14.656   6.142
  414POPC   CN221478   9.213  14.532   5.990
  414POPC   CN321479   9.290  14.742   6.074
  414POPC   NTM21480   9.219  14.618   6.109
  414POPC    CA21481   9.276  14.548   6.226
  414POPC    CB21482   9.418  14.487   6.220
  414POPC    OA21483   9.526  14.579   6.199
  414POPC     P21484   9.659  14.504   6.160
  414POPC    OB21485   9.769  14.601   6.172
  414POPC    OC21486   9.663  14.377   6.234
  414POPC    OD21487   9.627  14.481   6.009
  414POPC    CC21488   9.625  14.604   5.935
  414POPC    CD21489   9.632  14.590   5.782
  414POPC    OE21490   9.516  14.535   5.715
  414POPC   C1A21491   9.412  14.615   5.693
  414POPC    OF21492   9.402  14.722   5.754
  414POPC   C1B21493   9.306  14.552   5.611
  414POPC   C1C21494   9.247  14.647   5.506
  414POPC   C1D21495   9.133  14.581   5.428
  414POPC   C1E21496   9.177  14.473   5.328
  414POPC   C1F21497   9.252  14.531   5.207
  414POPC   C1G21498   9.274  14.423   5.101
  414POPC   C1H21499   9.348  14.480   4.980
  414POPC   C1I21500   9.359  14.380   4.864
  414POPC   C1J21501   9.474  14.323   4.831
  414POPC   C1K21502   9.603  14.355   4.909
  414POPC   C1L21503   9.729  14.347   4.823
  414POPC   C1M21504   9.741  14.463   4.724
  414POPC   C1N21505   9.877  14.459   4.652
  414POPC   C1O21506   9.891  14.577   4.555
  414POPC   C1P21507  10.029  14.581   4.488
  414POPC   C1Q21508  10.141  14.612   4.587
  414POPC   C1R21509  10.276  14.623   4.517
  414POPC    CE21510   9.768  14.525   5.754
  414POPC    OG21511   9.873  14.619   5.783
  414POPC   C2A21512   9.999  14.576   5.777
  414POPC    OH21513  10.024  14.455   5.777
  414POPC   C2B21514  10.097  14.686   5.790
  414POPC   C2C21515  10.122  14.752   5.654
  414POPC   C2D21516  10.214  14.874   5.667
  414POPC   C2E21517  10.236  14.944   5.532
  414POPC   C2F21518  10.106  15.005   5.477
  414POPC   C2G21519  10.129  15.076   5.344
  414POPC   C2H21520   9.999  15.138   5.294
  414POPC   C2I21521  10.020  15.212   5.162
  414POPC   C2J21522   9.890  15.274   5.111
  414POPC   C2K21523   9.909  15.347   4.978
  414POPC   C2L21524   9.993  15.474   4.992
  414POPC   C2M21525  10.020  15.541   4.856
  414POPC   C2N21526   9.892  15.593   4.790
  414POPC   C2O21527   9.923  15.657   4.654
  414POPC   C2P21528   9.794  15.706   4.587
  415POPC   CN121529  11.060  14.102   6.915
  415POPC   CN221530  10.851  14.214   6.892
  415POPC   CN321531  11.047  14.303   6.789
  415POPC   NTM21532  10.976  14.179   6.823
  415POPC    CA21533  10.954  14.096   6.702
  415POPC    CB21534  10.865  14.144   6.585
  415POPC    OA21535  10.725  14.158   6.613
  415POPC     P21536  10.642  14.032   6.567
  415POPC    OB21537  10.717  13.915   6.614
  415POPC    OC21538  10.508  14.064   6.621
  415POPC    OD21539  10.652  14.054   6.413
  415POPC    CC21540  10.544  14.128   6.358
  415POPC    CD21541  10.551  14.144   6.206
  415POPC    OE21542  10.435  14.215   6.152
  415POPC   C1A21543  10.448  14.341   6.112
  415POPC    OF21544  10.546  14.409   6.146
  415POPC   C1B21545  10.328  14.393   6.042
  415POPC   C1C21546  10.346  14.406   5.891
  415POPC   C1D21547  10.369  14.274   5.818
  415POPC   C1E21548  10.367  14.298   5.667
  415POPC   C1F21549  10.417  14.176   5.589
  415POPC   C1G21550  10.421  14.201   5.437
  415POPC   C1H21551  10.513  14.316   5.394
  415POPC   C1I21552  10.662  14.286   5.413
  415POPC   C1J21553  10.739  14.368   5.484
  415POPC   C1K21554  10.680  14.493   5.550
  415POPC   C1L21555  10.739  14.512   5.690
  415POPC   C1M21556  10.667  14.621   5.769
  415POPC   C1N21557  10.691  14.763   5.716
  415POPC   C1O21558  10.616  14.864   5.802
  415POPC   C1P21559  10.637  15.007   5.753
  415POPC   C1Q21560  10.558  15.105   5.839
  415POPC   C1R21561  10.578  15.249   5.790
  415POPC    CE21562  10.569  14.002   6.149
  415POPC    OG21563  10.582  13.990   6.006
  415POPC   C2A21564  10.594  13.865   5.962
  415POPC    OH21565  10.635  13.776   6.036
  415POPC   C2B21566  10.579  13.851   5.816
  415POPC   C2C21567  10.437  13.807   5.779
  415POPC   C2D21568  10.427  13.768   5.631
  415POPC   C2E21569  10.284  13.728   5.597
  415POPC   C2F21570  10.272  13.664   5.459
  415POPC   C2G21571  10.308  13.758   5.344
  415POPC   C2H21572  10.291  13.683   5.212
  415POPC   C2I21573  10.336  13.765   5.091
  415POPC   C2J21574  10.323  13.679   4.966
  415POPC   C2K21575  10.393  13.741   4.845
  415POPC   C2L21576  10.398  13.639   4.732
  415POPC   C2M21577  10.487  13.687   4.617
  415POPC   C2N21578  10.502  13.576   4.513
  415POPC   C2O21579  10.593  13.621   4.399
  415POPC   C2P21580  10.609  13.510   4.294
  416POPC   CN121581  10.828  15.338   6.765
  416POPC   CN221582  10.697  15.161   6.675
  416POPC   CN321583  10.706  15.373   6.564
  416POPC   NTM21584  10.784  15.274   6.641
  416POPC    CA21585  10.905  15.228   6.569
  416POPC    CB21586  10.893  15.155   6.434
  416POPC    OA21587  10.837  15.233   6.329
  416POPC     P21588  10.800  15.146   6.204
  416POPC    OB21589  10.722  15.030   6.251
  416POPC    OC21590  10.751  15.234   6.098
  416POPC    OD21591  10.944  15.101   6.162
  416POPC    CC21592  10.940  14.993   6.069
  416POPC    CD21593  11.075  14.967   5.999
  416POPC    OE21594  11.187  14.927   6.083
  416POPC   C1A21595  11.203  14.799   6.119
  416POPC    OF21596  11.104  14.728   6.137
  416POPC   C1B21597  11.338  14.769   6.173
  416POPC   C1C21598  11.446  14.747   6.067
  416POPC   C1D21599  11.500  14.881   6.016
  416POPC   C1E21600  11.591  14.864   5.895
  416POPC   C1F21601  11.630  14.999   5.833
  416POPC   C1G21602  11.507  15.076   5.784
  416POPC   C1H21603  11.545  15.209   5.719
  416POPC   C1I21604  11.418  15.292   5.696
  416POPC   C1J21605  11.425  15.423   5.678
  416POPC   C1K21606  11.561  15.493   5.675
  416POPC   C1L21607  11.562  15.615   5.582
  416POPC   C1M21608  11.542  15.578   5.435
  416POPC   C1N21609  11.541  15.702   5.346
  416POPC   C1O21610  11.512  15.670   5.199
  416POPC   C1P21611  11.369  15.619   5.179
  416POPC   C1Q21612  11.335  15.595   5.031
  416POPC   C1R21613  11.409  15.475   4.972
  416POPC    CE21614  11.106  15.098   5.924
  416POPC    OG21615  11.026  15.123   5.808
  416POPC   C2A21616  11.023  15.248   5.764
  416POPC    OH21617  11.066  15.341   5.832
  416POPC   C2B21618  10.964  15.261   5.629
  416POPC   C2C21619  11.076  15.268   5.525
  416POPC   C2D21620  11.025  15.259   5.381
  416POPC   C2E21621  11.143  15.269   5.284
  416POPC   C2F21622  11.106  15.238   5.139
  416POPC   C2G21623  11.006  15.338   5.080
  416POPC   C2H21624  10.985  15.307   4.931
  416POPC   C2I21625  10.876  15.395   4.870
  416POPC   C2J21626  10.862  15.365   4.721
  416POPC   C2K21627  10.740  15.435   4.661
  416POPC   C2L21628  10.726  15.411   4.510
  416POPC   C2M21629  10.706  15.263   4.476
  416POPC   C2N21630  10.697  15.242   4.325
  416POPC   C2O21631  10.693  15.094   4.287
  416POPC   C2P21632  10.827  15.024   4.316
  417POPC   CN121633  11.687  14.719   6.975
  417POPC   CN221634  11.558  14.556   7.089
  417POPC   CN321635  11.450  14.740   6.987
  417POPC   NTM21636  11.561  14.645   6.972
  417POPC    CA21637  11.549  14.560   6.851
  417POPC    CB21638  11.550  14.623   6.709
  417POPC    OA21639  11.443  14.715   6.682
  417POPC     P21640  11.450  14.769   6.534
  417POPC    OB21641  11.494  14.659   6.448
  417POPC    OC21642  11.325  14.842   6.510
  417POPC    OD21643  11.568  14.870   6.551
  417POPC    CC21644  11.605  14.919   6.422
  417POPC    CD21645  11.751  14.966   6.409
  417POPC    OE21646  11.775  15.042   6.288
  417POPC   C1A21647  11.772  15.175   6.288
  417POPC    OF21648  11.784  15.238   6.395
  417POPC   C1B21649  11.782  15.233   6.152
  417POPC   C1C21650  11.928  15.254   6.112
  417POPC   C1D21651  11.940  15.277   5.961
  417POPC   C1E21652  12.088  15.275   5.920
  417POPC   C1F21653  12.105  15.253   5.769
  417POPC   C1G21654  12.074  15.377   5.685
  417POPC   C1H21655  12.079  15.340   5.537
  417POPC   C1I21656  12.092  15.464   5.448
  417POPC   C1J21657  12.031  15.472   5.330
  417POPC   C1K21658  11.938  15.360   5.284
  417POPC   C1L21659  11.838  15.415   5.182
  417POPC   C1M21660  11.715  15.325   5.168
  417POPC   C1N21661  11.744  15.189   5.105
  417POPC   C1O21662  11.621  15.097   5.113
  417POPC   C1P21663  11.587  15.062   5.258
  417POPC   C1Q21664  11.465  14.971   5.267
  417POPC   C1R21665  11.435  14.938   5.413
  417POPC    CE21666  11.841  14.841   6.425
  417POPC    OG21667  11.829  14.742   6.322
  417POPC   C2A21668  11.904  14.632   6.331
  417POPC    OH21669  11.976  14.611   6.429
  417POPC   C2B21670  11.895  14.542   6.214
  417POPC   C2C21671  11.758  14.477   6.196
  417POPC   C2D21672  11.763  14.359   6.098
  417POPC   C2E21673  11.806  14.393   5.955
  417POPC   C2F21674  11.697  14.467   5.876
  417POPC   C2G21675  11.742  14.493   5.733
  417POPC   C2H21676  11.630  14.562   5.654
  417POPC   C2I21677  11.665  14.591   5.508
  417POPC   C2J21678  11.689  14.464   5.426
  417POPC   C2K21679  11.690  14.491   5.275
  417POPC   C2L21680  11.807  14.579   5.231
  417POPC   C2M21681  11.807  14.607   5.080
  417POPC   C2N21682  11.686  14.690   5.037
  417POPC   C2O21683  11.692  14.720   4.887
  417POPC   C2P21684  11.568  14.797   4.842
  418POPC   CN121685  12.342  14.671   6.934
  418POPC   CN221686  12.347  14.517   7.118
  418POPC   CN321687  12.142  14.566   7.009
  418POPC   NTM21688  12.286  14.546   6.988
  418POPC    CA21689  12.302  14.434   6.893
  418POPC    CB21690  12.440  14.369   6.864
  418POPC    OA21691  12.543  14.451   6.809
  418POPC     P21692  12.664  14.357   6.774
  418POPC    OB21693  12.733  14.332   6.901
  418POPC    OC21694  12.612  14.248   6.692
  418POPC    OD21695  12.746  14.458   6.685
  418POPC    CC21696  12.685  14.478   6.558
  418POPC    CD21697  12.788  14.518   6.451
  418POPC    OE21698  12.735  14.590   6.336
  418POPC   C1A21699  12.683  14.712   6.347
  418POPC    OF21700  12.655  14.761   6.458
  418POPC   C1B21701  12.654  14.775   6.216
  418POPC   C1C21702  12.669  14.927   6.220
  418POPC   C1D21703  12.673  14.991   6.080
  418POPC   C1E21704  12.548  14.965   5.997
  418POPC   C1F21705  12.564  15.028   5.859
  418POPC   C1G21706  12.454  14.984   5.763
  418POPC   C1H21707  12.479  15.044   5.625
  418POPC   C1I21708  12.385  14.985   5.520
  418POPC   C1J21709  12.429  14.969   5.396
  418POPC   C1K21710  12.572  15.010   5.361
  418POPC   C1L21711  12.588  15.055   5.215
  418POPC   C1M21712  12.579  14.938   5.117
  418POPC   C1N21713  12.598  14.987   4.974
  418POPC   C1O21714  12.595  14.870   4.875
  418POPC   C1P21715  12.620  14.920   4.733
  418POPC   C1Q21716  12.623  14.803   4.634
  418POPC   C1R21717  12.652  14.853   4.492
  418POPC    CE21718  12.857  14.383   6.421
  418POPC    OG21719  12.981  14.381   6.348
  418POPC   C2A21720  13.022  14.261   6.307
  418POPC    OH21721  12.958  14.158   6.331
  418POPC   C2B21722  13.148  14.269   6.230
  418POPC   C2C21723  13.149  14.173   6.111
  418POPC   C2D21724  13.260  14.210   6.014
  418POPC   C2E21725  13.258  14.123   5.888
  418POPC   C2F21726  13.360  14.176   5.787
  418POPC   C2G21727  13.353  14.099   5.655
  418POPC   C2H21728  13.451  14.160   5.555
  418POPC   C2I21729  13.450  14.086   5.421
  418POPC   C2J21730  13.554  14.147   5.327
  418POPC   C2K21731  13.571  14.068   5.197
  418POPC   C2L21732  13.450  14.079   5.103
  418POPC   C2M21733  13.469  13.994   4.977
  418POPC   C2N21734  13.586  14.043   4.891
  418POPC   C2O21735  13.607  13.951   4.770
  418POPC   C2P21736  13.720  14.002   4.682
  419POPC   CN121737  14.027  15.579   6.422
  419POPC   CN221738  13.797  15.620   6.464
  419POPC   CN321739  13.880  15.627   6.241
  419POPC   NTM21740  13.891  15.558   6.371
  419POPC    CA21741  13.869  15.412   6.361
  419POPC    CB21742  13.752  15.351   6.278
  419POPC    OA21743  13.618  15.398   6.298
  419POPC     P21744  13.535  15.311   6.399
  419POPC    OB21745  13.609  15.311   6.526
  419POPC    OC21746  13.399  15.366   6.393
  419POPC    OD21747  13.535  15.167   6.339
  419POPC    CC21748  13.449  15.149   6.226
  419POPC    CD21749  13.431  15.003   6.180
  419POPC    OE21750  13.326  14.929   6.249
  419POPC   C1A21751  13.208  14.918   6.187
  419POPC    OF21752  13.173  15.006   6.108
  419POPC   C1B21753  13.119  14.818   6.250
  419POPC   C1C21754  13.024  14.748   6.152
  419POPC   C1D21755  13.096  14.652   6.057
  419POPC   C1E21756  12.999  14.580   5.963
  419POPC   C1F21757  12.929  14.675   5.865
  419POPC   C1G21758  12.841  14.597   5.767
  419POPC   C1H21759  12.766  14.687   5.668
  419POPC   C1I21760  12.859  14.764   5.573
  419POPC   C1J21761  12.883  14.725   5.448
  419POPC   C1K21762  12.818  14.601   5.386
  419POPC   C1L21763  12.812  14.617   5.234
  419POPC   C1M21764  12.754  14.493   5.166
  419POPC   C1N21765  12.751  14.515   5.014
  419POPC   C1O21766  12.687  14.396   4.942
  419POPC   C1P21767  12.678  14.424   4.792
  419POPC   C1Q21768  12.607  14.310   4.719
  419POPC   C1R21769  12.592  14.341   4.570
  419POPC    CE21770  13.569  14.936   6.182
  419POPC    OG21771  13.664  14.990   6.088
  419POPC   C2A21772  13.786  14.938   6.091
  419POPC    OH21773  13.813  14.839   6.159
  419POPC   C2B21774  13.881  15.005   5.999
  419POPC   C2C21775  13.908  14.923   5.873
  419POPC   C2D21776  14.034  14.977   5.806
  419POPC   C2E21777  14.073  14.901   5.679
  419POPC   C2F21778  13.980  14.931   5.561
  419POPC   C2G21779  14.039  14.871   5.434
  419POPC   C2H21780  13.955  14.905   5.311
  419POPC   C2I21781  14.024  14.856   5.184
  419POPC   C2J21782  13.945  14.900   5.060
  419POPC   C2K21783  14.024  14.871   4.933
  419POPC   C2L21784  13.951  14.930   4.812
  419POPC   C2M21785  14.031  14.917   4.682
  419POPC   C2N21786  14.045  14.771   4.637
  419POPC   C2O21787  14.116  14.760   4.502
  419POPC   C2P21788  14.034  14.822   4.388
  420POPC   CN121789  14.308  14.947   6.698
  420POPC   CN221790  14.358  15.138   6.831
  420POPC   CN321791  14.371  15.154   6.595
  420POPC   NTM21792  14.295  15.093   6.706
  420POPC    CA21793  14.154  15.137   6.707
  420POPC    CB21794  14.059  15.099   6.591
  420POPC    OA21795  14.097  15.145   6.461
  420POPC     P21796  14.012  15.080   6.346
  420POPC    OB21797  13.877  15.054   6.397
  420POPC    OC21798  14.034  15.170   6.232
  420POPC    OD21799  14.094  14.947   6.338
  420POPC    CC21800  14.204  14.959   6.247
  420POPC    CD21801  14.314  14.853   6.267
  420POPC    OE21802  14.434  14.874   6.188
  420POPC   C1A21803  14.522  14.968   6.224
  420POPC    OF21804  14.513  15.022   6.334
  420POPC   C1B21805  14.635  14.984   6.130
  420POPC   C1C21806  14.630  15.116   6.052
  420POPC   C1D21807  14.523  15.122   5.943
  420POPC   C1E21808  14.551  15.021   5.832
  420POPC   C1F21809  14.454  15.031   5.714
  420POPC   C1G21810  14.482  15.151   5.625
  420POPC   C1H21811  14.394  15.146   5.500
  420POPC   C1I21812  14.435  15.254   5.399
  420POPC   C1J21813  14.442  15.222   5.270
  420POPC   C1K21814  14.409  15.079   5.226
  420POPC   C1L21815  14.371  15.070   5.078
  420POPC   C1M21816  14.492  15.082   4.985
  420POPC   C1N21817  14.450  15.066   4.839
  420POPC   C1O21818  14.573  15.059   4.749
  420POPC   C1P21819  14.534  15.036   4.603
  420POPC   C1Q21820  14.657  15.021   4.513
  420POPC   C1R21821  14.736  15.151   4.499
  420POPC    CE21822  14.248  14.715   6.255
  420POPC    OG21823  14.167  14.691   6.139
  420POPC   C2A21824  14.098  14.578   6.136
  420POPC    OH21825  14.099  14.498   6.231
  420POPC   C2B21826  14.018  14.561   6.013
  420POPC   C2C21827  14.028  14.418   5.960
  420POPC   C2D21828  13.927  14.391   5.849
  420POPC   C2E21829  13.957  14.466   5.719
  420POPC   C2F21830  13.841  14.443   5.622
  420POPC   C2G21831  13.866  14.505   5.485
  420POPC   C2H21832  13.739  14.493   5.401
  420POPC   C2I21833  13.758  14.545   5.259
  420POPC   C2J21834  13.624  14.542   5.186
  420POPC   C2K21835  13.634  14.587   5.040
  420POPC   C2L21836  13.708  14.484   4.953
  420POPC   C2M21837  13.707  14.528   4.807
  420POPC   C2N21838  13.777  14.424   4.720
  420POPC   C2O21839  13.771  14.465   4.573
  420POPC   C2P21840  13.840  14.360   4.486
  421POPC   CN121841  15.246  14.645   6.754
  421POPC   CN221842  15.452  14.556   6.673
  421POPC   CN321843  15.244  14.465   6.599
  421POPC   NTM21844  15.313  14.589   6.636
  421POPC    CA21845  15.306  14.680   6.520
  421POPC    CB21846  15.372  14.820   6.522
  421POPC    OA21847  15.514  14.820   6.534
  421POPC     P21848  15.578  14.962   6.524
  421POPC    OB21849  15.498  15.050   6.611
  421POPC    OC21850  15.721  14.944   6.551
  421POPC    OD21851  15.548  14.994   6.373
  421POPC    CC21852  15.646  14.936   6.287
  421POPC    CD21853  15.612  14.944   6.136
  421POPC    OE21854  15.709  14.874   6.051
  421POPC   C1A21855  15.703  14.741   6.043
  421POPC    OF21856  15.629  14.677   6.118
  421POPC   C1B21857  15.794  14.683   5.942
  421POPC   C1C21858  15.714  14.615   5.832
  421POPC   C1D21859  15.801  14.572   5.714
  421POPC   C1E21860  15.711  14.516   5.603
  421POPC   C1F21861  15.787  14.495   5.473
  421POPC   C1G21862  15.690  14.453   5.362
  421POPC   C1H21863  15.757  14.434   5.226
  421POPC   C1I21864  15.811  14.564   5.165
  421POPC   C1J21865  15.801  14.583   5.034
  421POPC   C1K21866  15.733  14.476   4.948
  421POPC   C1L21867  15.787  14.470   4.805
  421POPC   C1M21868  15.752  14.594   4.722
  421POPC   C1N21869  15.792  14.573   4.576
  421POPC   C1O21870  15.762  14.696   4.489
  421POPC   C1P21871  15.861  14.810   4.517
  421POPC   C1Q21872  15.832  14.929   4.426
  421POPC   C1R21873  15.942  15.034   4.439
  421POPC    CE21874  15.597  15.093   6.104
  421POPC    OG21875  15.513  15.124   5.991
  421POPC   C2A21876  15.510  15.251   5.951
  421POPC    OH21877  15.570  15.338   6.013
  421POPC   C2B21878  15.414  15.277   5.841
  421POPC   C2C21879  15.476  15.269   5.701
  421POPC   C2D21880  15.372  15.312   5.597
  421POPC   C2E21881  15.420  15.301   5.451
  421POPC   C2F21882  15.542  15.389   5.422
  421POPC   C2G21883  15.569  15.398   5.272
  421POPC   C2H21884  15.700  15.472   5.245
  421POPC   C2I21885  15.724  15.499   5.096
  421POPC   C2J21886  15.637  15.615   5.046
  421POPC   C2K21887  15.658  15.642   4.897
  421POPC   C2L21888  15.580  15.766   4.854
  421POPC   C2M21889  15.592  15.795   4.704
  421POPC   C2N21890  15.515  15.693   4.619
  421POPC   C2O21891  15.526  15.726   4.470
  421POPC   C2P21892  15.448  15.624   4.387
  422POPC   CN121893  16.587  15.677   6.208
  422POPC   CN221894  16.518  15.853   6.355
  422POPC   CN321895  16.414  15.641   6.364
  422POPC   NTM21896  16.543  15.709   6.345
  422POPC    CA21897  16.635  15.657   6.448
  422POPC    CB21898  16.785  15.695   6.449
  422POPC    OA21899  16.813  15.835   6.453
  422POPC     P21900  16.966  15.866   6.433
  422POPC    OB21901   0.043  15.854   6.566
  422POPC    OC21902   0.028  15.781   6.322
  422POPC    OD21903  16.947  16.015   6.391
  422POPC    CC21904  16.906  16.028   6.255
  422POPC    CD21905  16.893  16.174   6.210
  422POPC    OE21906  16.840  16.187   6.076
  422POPC   C1A21907  16.779  16.299   6.041
  422POPC    OF21908  16.733  16.375   6.127
  422POPC   C1B21909  16.765  16.317   5.894
  422POPC   C1C21910  16.648  16.238   5.835
  422POPC   C1D21911  16.635  16.269   5.686
  422POPC   C1E21912  16.517  16.192   5.627
  422POPC   C1F21913  16.478  16.239   5.487
  422POPC   C1G21914  16.580  16.205   5.377
  422POPC   C1H21915  16.524  16.235   5.237
  422POPC   C1I21916  16.407  16.143   5.203
  422POPC   C1J21917  16.366  16.122   5.078
  422POPC   C1K21918  16.431  16.190   4.958
  422POPC   C1L21919  16.327  16.206   4.846
  422POPC   C1M21920  16.392  16.257   4.718
  422POPC   C1N21921  16.288  16.274   4.606
  422POPC   C1O21922  16.352  16.313   4.472
  422POPC   C1P21923  16.427  16.446   4.479
  422POPC   C1Q21924  16.496  16.479   4.346
  422POPC   C1R21925  16.572  16.611   4.357
  422POPC    CE21926   0.051  16.236   6.228
  422POPC    OG21927   0.154  16.163   6.159
  422POPC   C2A21928   0.278  16.208   6.166
  422POPC    OH21929   0.309  16.301   6.241
  422POPC   C2B21930   0.373  16.128   6.086
  422POPC   C2C21931   0.384  16.173   5.940
  422POPC   C2D21932   0.261  16.139   5.856
  422POPC   C2E21933   0.282  16.185   5.712
  422POPC   C2F21934   0.160  16.156   5.626
  422POPC   C2G21935   0.186  16.200   5.483
  422POPC   C2H21936   0.062  16.174   5.397
  422POPC   C2I21937   0.091  16.203   5.250
  422POPC   C2J21938  16.954  16.160   5.166
  422POPC   C2K21939  16.981  16.179   5.017
  422POPC   C2L21940  16.861  16.130   4.936
  422POPC   C2M21941  16.881  16.161   4.788
  422POPC   C2N21942  16.762  16.108   4.707
  422POPC   C2O21943  16.779  16.141   4.559
  422POPC   C2P21944  16.660  16.086   4.481
  423POPC   CN121945   1.221  14.990   6.354
  423POPC   CN221946   1.120  14.815   6.228
  423POPC   CN321947   1.342  14.790   6.311
  423POPC   NTM21948   1.209  14.845   6.341
  423POPC    CA21949   1.160  14.782   6.466
  423POPC    CB21950   1.032  14.833   6.536
  423POPC    OA21951   0.916  14.840   6.453
  423POPC     P21952   0.785  14.869   6.533
  423POPC    OB21953   0.681  14.775   6.489
  423POPC    OC21954   0.811  14.889   6.677
  423POPC    OD21955   0.753  15.012   6.475
  423POPC    CC21956   0.684  15.007   6.350
  423POPC    CD21957   0.695  15.137   6.269
  423POPC    OE21958   0.601  15.145   6.157
  423POPC   C1A21959   0.574  15.268   6.112
  423POPC    OF21960   0.562  15.360   6.192
  423POPC   C1B21961   0.520  15.272   5.974
  423POPC   C1C21962   0.631  15.301   5.873
  423POPC   C1D21963   0.576  15.330   5.733
  423POPC   C1E21964   0.507  15.467   5.727
  423POPC   C1F21965   0.451  15.498   5.588
  423POPC   C1G21966   0.560  15.510   5.481
  423POPC   C1H21967   0.501  15.557   5.348
  423POPC   C1I21968   0.607  15.547   5.238
  423POPC   C1J21969   0.573  15.558   5.110
  423POPC   C1K21970   0.429  15.587   5.070
  423POPC   C1L21971   0.424  15.657   4.934
  423POPC   C1M21972   0.282  15.701   4.899
  423POPC   C1N21973   0.279  15.771   4.763
  423POPC   C1O21974   0.138  15.824   4.734
  423POPC   C1P21975   0.129  15.897   4.600
  423POPC   C1Q21976   0.141  15.802   4.480
  423POPC   C1R21977   0.125  15.879   4.349
  423POPC    CE21978   0.845  15.143   6.232
  423POPC    OG21979   0.886  15.255   6.152
  423POPC   C2A21980   1.012  15.256   6.110
  423POPC    OH21981   1.087  15.159   6.127
  423POPC   C2B21982   1.043  15.376   6.030
  423POPC   C2C21983   1.018  15.351   5.881
  423POPC   C2D21984   1.022  15.482   5.803
  423POPC   C2E21985   1.013  15.455   5.653
  423POPC   C2F21986   1.009  15.585   5.573
  423POPC   C2G21987   1.026  15.557   5.424
  423POPC   C2H21988   1.023  15.688   5.344
  423POPC   C2I21989   1.063  15.668   5.197
  423POPC   C2J21990   0.964  15.580   5.120
  423POPC   C2K21991   1.002  15.564   4.972
  423POPC   C2L21992   0.995  15.696   4.896
  423POPC   C2M21993   1.024  15.680   4.746
  423POPC   C2N21994   1.168  15.636   4.718
  423POPC   C2O21995   1.196  15.622   4.568
  423POPC   C2P21996   1.114  15.509   4.503
  424POPC   CN121997   1.914  14.743   6.990
  424POPC   CN221998   1.845  14.941   6.879
  424POPC   CN321999   1.903  14.744   6.753
  424POPC   NTM22000   1.838  14.794   6.875
  424POPC    CA22001   1.698  14.744   6.885
  424POPC    CB22002   1.590  14.793   6.785
  424POPC    OA22003   1.557  14.931   6.796
  424POPC     P22004   1.425  14.967   6.720
  424POPC    OB22005   1.336  14.850   6.713
  424POPC    OC22006   1.379  15.095   6.775
  424POPC    OD22007   1.483  14.987   6.576
  424POPC    CC22008   1.517  15.123   6.550
  424POPC    CD22009   1.645  15.141   6.470
  424POPC    OE22010   1.684  15.281   6.457
  424POPC   C1A22011   1.812  15.307   6.435
  424POPC    OF22012   1.894  15.215   6.424
  424POPC   C1B22013   1.841  15.453   6.437
  424POPC   C1C22014   1.958  15.495   6.347
  424POPC   C1D22015   1.932  15.477   6.197
  424POPC   C1E22016   1.821  15.570   6.148
  424POPC   C1F22017   1.805  15.567   5.995
  424POPC   C1G22018   1.927  15.624   5.922
  424POPC   C1H22019   1.901  15.632   5.772
  424POPC   C1I22020   2.021  15.690   5.698
  424POPC   C1J22021   2.003  15.775   5.597
  424POPC   C1K22022   1.862  15.815   5.554
  424POPC   C1L22023   1.857  15.965   5.521
  424POPC   C1M22024   1.721  16.008   5.463
  424POPC   C1N22025   1.698  15.949   5.324
  424POPC   C1O22026   1.571  16.004   5.259
  424POPC   C1P22027   1.556  15.947   5.118
  424POPC   C1Q22028   1.433  16.005   5.048
  424POPC   C1R22029   1.419  15.948   4.906
  424POPC    CE22030   1.629  15.060   6.339
  424POPC    OG22031   1.527  15.104   6.247
  424POPC   C2A22032   1.563  15.195   6.157
  424POPC    OH22033   1.682  15.224   6.139
  424POPC   C2B22034   1.455  15.236   6.065
  424POPC   C2C22035   1.448  15.138   5.947
  424POPC   C2D22036   1.379  15.201   5.827
  424POPC   C2E22037   1.364  15.099   5.713
  424POPC   C2F22038   1.313  15.168   5.587
  424POPC   C2G22039   1.270  15.070   5.478
  424POPC   C2H22040   1.384  14.985   5.422
  424POPC   C2I22041   1.330  14.894   5.311
  424POPC   C2J22042   1.440  14.810   5.247
  424POPC   C2K22043   1.384  14.729   5.130
  424POPC   C2L22044   1.494  14.645   5.065
  424POPC   C2M22045   1.440  14.573   4.941
  424POPC   C2N22046   1.549  14.489   4.874
  424POPC   C2O22047   1.498  14.417   4.748
  424POPC   C2P22048   1.462  14.514   4.635
  425POPC   CN122049   2.604  15.961   6.346
  425POPC   CN222050   2.804  16.043   6.441
  425POPC   CN322051   2.758  16.090   6.214
  425POPC   NTM22052   2.697  16.075   6.347
  425POPC    CA22053   2.633  16.201   6.392
  425POPC    CB22054   2.508  16.260   6.322
  425POPC    OA22055   2.388  16.182   6.335
  425POPC     P22056   2.269  16.247   6.255
  425POPC    OB22057   2.244  16.370   6.332
  425POPC    OC22058   2.316  16.243   6.116
  425POPC    OD22059   2.167  16.134   6.290
  425POPC    CC22060   2.186  16.018   6.209
  425POPC    CD22061   2.121  15.893   6.271
  425POPC    OE22062   2.171  15.765   6.223
  425POPC   C1A22063   2.290  15.721   6.264
  425POPC    OF22064   2.350  15.780   6.354
  425POPC   C1B22065   2.331  15.591   6.206
  425POPC   C1C22066   2.393  15.606   6.067
  425POPC   C1D22067   2.439  15.469   6.017
  425POPC   C1E22068   2.489  15.471   5.873
  425POPC   C1F22069   2.378  15.494   5.770
  425POPC   C1G22070   2.437  15.481   5.630
  425POPC   C1H22071   2.333  15.499   5.519
  425POPC   C1I22072   2.400  15.479   5.383
  425POPC   C1J22073   2.330  15.447   5.274
  425POPC   C1K22074   2.178  15.432   5.279
  425POPC   C1L22075   2.109  15.545   5.203
  425POPC   C1M22076   1.957  15.529   5.208
  425POPC   C1N22077   1.885  15.639   5.130
  425POPC   C1O22078   1.911  15.631   4.979
  425POPC   C1P22079   1.839  15.743   4.905
  425POPC   C1Q22080   1.865  15.736   4.754
  425POPC   C1R22081   1.792  15.848   4.680
  425POPC    CE22082   1.969  15.915   6.269
  425POPC    OG22083   1.911  15.944   6.140
  425POPC   C2A22084   1.779  15.955   6.135
  425POPC    OH22085   1.707  15.931   6.232
  425POPC   C2B22086   1.731  15.990   6.000
  425POPC   C2C22087   1.638  16.111   6.005
  425POPC   C2D22088   1.587  16.144   5.865
  425POPC   C2E22089   1.515  16.278   5.864
  425POPC   C2F22090   1.463  16.305   5.723
  425POPC   C2G22091   1.406  16.446   5.709
  425POPC   C2H22092   1.362  16.473   5.565
  425POPC   C2I22093   1.479  16.463   5.466
  425POPC   C2J22094   1.433  16.481   5.322
  425POPC   C2K22095   1.548  16.455   5.225
  425POPC   C2L22096   1.504  16.485   5.082
  425POPC   C2M22097   1.619  16.461   4.984
  425POPC   C2N22098   1.585  16.509   4.843
  425POPC   C2O22099   1.571  16.661   4.836
  425POPC   C2P22100   1.537  16.708   4.695
  426POPC   CN122101   3.542  15.129   6.902
  426POPC   CN222102   3.720  15.012   6.798
  426POPC   CN322103   3.497  14.962   6.736
  426POPC   NTM22104   3.588  15.071   6.775
  426POPC    CA22105   3.600  15.175   6.671
  426POPC    CB22106   3.473  15.240   6.612
  426POPC    OA22107   3.387  15.306   6.705
  426POPC     P22108   3.241  15.323   6.652
  426POPC    OB22109   3.198  15.197   6.591
  426POPC    OC22110   3.165  15.388   6.760
  426POPC    OD22111   3.268  15.432   6.542
  426POPC    CC22112   3.184  15.419   6.427
  426POPC    CD22113   3.228  15.509   6.309
  426POPC    OE22114   3.149  15.487   6.190
  426POPC   C1A22115   3.039  15.557   6.168
  426POPC    OF22116   2.999  15.641   6.250
  426POPC   C1B22117   2.977  15.524   6.037
  426POPC   C1C22118   2.902  15.642   5.974
  426POPC   C1D22119   2.907  15.638   5.821
  426POPC   C1E22120   2.849  15.510   5.760
  426POPC   C1F22121   2.863  15.513   5.607
  426POPC   C1G22122   2.802  15.388   5.545
  426POPC   C1H22123   2.814  15.393   5.392
  426POPC   C1I22124   2.747  15.272   5.328
  426POPC   C1J22125   2.709  15.277   5.201
  426POPC   C1K22126   2.730  15.406   5.121
  426POPC   C1L22127   2.783  15.382   4.979
  426POPC   C1M22128   2.926  15.329   4.979
  426POPC   C1N22129   2.980  15.316   4.836
  426POPC   C1O22130   3.121  15.257   4.833
  426POPC   C1P22131   3.123  15.110   4.875
  426POPC   C1Q22132   3.262  15.046   4.858
  426POPC   C1R22133   3.366  15.105   4.954
  426POPC    CE22134   3.378  15.478   6.288
  426POPC    OG22135   3.451  15.566   6.201
  426POPC   C2A22136   3.580  15.538   6.187
  426POPC    OH22137   3.628  15.431   6.226
  426POPC   C2B22138   3.652  15.637   6.105
  426POPC   C2C22139   3.664  15.589   5.960
  426POPC   C2D22140   3.744  15.687   5.874
  426POPC   C2E22141   3.671  15.817   5.842
  426POPC   C2F22142   3.760  15.899   5.749
  426POPC   C2G22143   3.688  16.020   5.687
  426POPC   C2H22144   3.774  16.082   5.576
  426POPC   C2I22145   3.796  15.983   5.462
  426POPC   C2J22146   3.890  16.037   5.354
  426POPC   C2K22147   3.915  15.928   5.250
  426POPC   C2L22148   4.010  15.975   5.140
  426POPC   C2M22149   4.038  15.862   5.040
  426POPC   C2N22150   4.131  15.909   4.928
  426POPC   C2O22151   4.163  15.798   4.828
  426POPC   C2P22152   4.041  15.754   4.747
  427POPC   CN122153   4.471  15.406   6.808
  427POPC   CN222154   4.315  15.512   6.661
  427POPC   CN322155   4.256  15.314   6.782
  427POPC   NTM22156   4.330  15.441   6.789
  427POPC    CA22157   4.284  15.522   6.903
  427POPC    CB22158   4.143  15.586   6.898
  427POPC    OA22159   4.031  15.499   6.874
  427POPC     P22160   3.902  15.583   6.841
  427POPC    OB22161   3.792  15.486   6.855
  427POPC    OC22162   3.907  15.703   6.925
  427POPC    OD22163   3.937  15.614   6.691
  427POPC    CC22164   3.884  15.516   6.602
  427POPC    CD22165   3.926  15.527   6.454
  427POPC    OE22166   4.043  15.450   6.416
  427POPC   C1A22167   4.023  15.324   6.376
  427POPC    OF22168   3.933  15.257   6.427
  427POPC   C1B22169   4.135  15.269   6.296
  427POPC   C1C22170   4.088  15.211   6.162
  427POPC   C1D22171   4.043  15.318   6.062
  427POPC   C1E22172   3.998  15.252   5.931
  427POPC   C1F22173   3.966  15.355   5.822
  427POPC   C1G22174   3.925  15.285   5.693
  427POPC   C1H22175   3.902  15.380   5.575
  427POPC   C1I22176   3.773  15.462   5.587
  427POPC   C1J22177   3.715  15.512   5.479
  427POPC   C1K22178   3.775  15.489   5.341
  427POPC   C1L22179   3.667  15.486   5.233
  427POPC   C1M22180   3.727  15.454   5.096
  427POPC   C1N22181   3.618  15.444   4.989
  427POPC   C1O22182   3.676  15.399   4.855
  427POPC   C1P22183   3.566  15.383   4.750
  427POPC   C1Q22184   3.622  15.328   4.619
  427POPC   C1R22185   3.512  15.313   4.515
  427POPC    CE22186   3.925  15.676   6.418
  427POPC    OG22187   3.952  15.711   6.281
  427POPC   C2A22188   3.938  15.839   6.249
  427POPC    OH22189   3.878  15.917   6.323
  427POPC   C2B22190   3.979  15.869   6.110
  427POPC   C2C22191   4.127  15.905   6.097
  427POPC   C2D22192   4.163  15.934   5.951
  427POPC   C2E22193   4.164  15.808   5.864
  427POPC   C2F22194   4.177  15.848   5.716
  427POPC   C2G22195   4.196  15.728   5.622
  427POPC   C2H22196   4.333  15.663   5.642
  427POPC   C2I22197   4.366  15.560   5.534
  427POPC   C2J22198   4.278  15.435   5.539
  427POPC   C2K22199   4.321  15.329   5.436
  427POPC   C2L22200   4.306  15.373   5.290
  427POPC   C2M22201   4.159  15.392   5.248
  427POPC   C2N22202   4.145  15.443   5.105
  427POPC   C2O22203   4.191  15.340   5.001
  427POPC   C2P22204   4.171  15.393   4.859
  428POPC   CN122205   3.876  16.247   6.749
  428POPC   CN222206   3.741  16.228   6.555
  428POPC   CN322207   3.974  16.266   6.530
  428POPC   NTM22208   3.873  16.197   6.611
  428POPC    CA22209   3.892  16.050   6.606
  428POPC    CB22210   4.013  15.981   6.674
  428POPC    OA22211   4.141  16.036   6.644
  428POPC     P22212   4.259  15.947   6.697
  428POPC    OB22213   4.384  16.025   6.697
  428POPC    OC22214   4.215  15.879   6.820
  428POPC    OD22215   4.270  15.839   6.583
  428POPC    CC22216   4.297  15.895   6.453
  428POPC    CD22217   4.444  15.908   6.411
  428POPC    OE22218   4.458  15.997   6.297
  428POPC   C1A22219   4.578  16.044   6.264
  428POPC    OF22220   4.672  16.033   6.343
  428POPC   C1B22221   4.585  16.115   6.134
  428POPC   C1C22222   4.463  16.197   6.093
  428POPC   C1D22223   4.478  16.241   5.947
  428POPC   C1E22224   4.355  16.318   5.897
  428POPC   C1F22225   4.360  16.343   5.746
  428POPC   C1G22226   4.343  16.212   5.668
  428POPC   C1H22227   4.345  16.233   5.516
  428POPC   C1I22228   4.317  16.100   5.446
  428POPC   C1J22229   4.362  16.074   5.324
  428POPC   C1K22230   4.443  16.174   5.242
  428POPC   C1L22231   4.410  16.159   5.094
  428POPC   C1M22232   4.500  16.244   5.004
  428POPC   C1N22233   4.457  16.227   4.858
  428POPC   C1O22234   4.555  16.289   4.758
  428POPC   C1P22235   4.567  16.441   4.769
  428POPC   C1Q22236   4.664  16.493   4.663
  428POPC   C1R22237   4.685  16.644   4.675
  428POPC    CE22238   4.495  15.764   6.394
  428POPC    OG22239   4.446  15.697   6.276
  428POPC   C2A22240   4.448  15.565   6.274
  428POPC    OH22241   4.453  15.499   6.379
  428POPC   C2B22242   4.425  15.511   6.138
  428POPC   C2C22243   4.485  15.371   6.119
  428POPC   C2D22244   4.492  15.333   5.971
  428POPC   C2E22245   4.621  15.383   5.907
  428POPC   C2F22246   4.626  15.347   5.758
  428POPC   C2G22247   4.766  15.371   5.702
  428POPC   C2H22248   4.773  15.346   5.551
  428POPC   C2I22249   4.725  15.467   5.472
  428POPC   C2J22250   4.720  15.440   5.322
  428POPC   C2K22251   4.685  15.568   5.246
  428POPC   C2L22252   4.665  15.541   5.097
  428POPC   C2M22253   4.649  15.671   5.019
  428POPC   C2N22254   4.626  15.643   4.870
  428POPC   C2O22255   4.624  15.771   4.786
  428POPC   C2P22256   4.763  15.834   4.774
  429POPC   CN122257   5.994  16.299   6.888
  429POPC   CN222258   6.225  16.338   6.918
  429POPC   CN322259   6.156  16.186   6.753
  429POPC   NTM22260   6.122  16.313   6.818
  429POPC    CA22261   6.123  16.424   6.719
  429POPC    CB22262   6.007  16.438   6.617
  429POPC    OA22263   5.967  16.318   6.552
  429POPC     P22264   5.826  16.336   6.487
  429POPC    OB22265   5.738  16.381   6.596
  429POPC    OC22266   5.842  16.417   6.366
  429POPC    OD22267   5.792  16.185   6.459
  429POPC    CC22268   5.858  16.135   6.343
  429POPC    CD22269   5.833  15.986   6.316
  429POPC    OE22270   5.925  15.927   6.221
  429POPC   C1A22271   6.040  15.875   6.262
  429POPC    OF22272   6.068  15.871   6.382
  429POPC   C1B22273   6.127  15.826   6.152
  429POPC   C1C22274   6.090  15.684   6.109
  429POPC   C1D22275   6.179  15.641   5.993
  429POPC   C1E22276   6.138  15.506   5.935
  429POPC   C1F22277   6.234  15.471   5.821
  429POPC   C1G22278   6.182  15.357   5.734
  429POPC   C1H22279   6.283  15.332   5.621
  429POPC   C1I22280   6.226  15.242   5.512
  429POPC   C1J22281   6.266  15.262   5.386
  429POPC   C1K22282   6.368  15.373   5.358
  429POPC   C1L22283   6.343  15.447   5.227
  429POPC   C1M22284   6.216  15.533   5.231
  429POPC   C1N22285   6.195  15.613   5.102
  429POPC   C1O22286   6.169  15.525   4.980
  429POPC   C1P22287   6.150  15.612   4.855
  429POPC   C1Q22288   6.128  15.529   4.728
  429POPC   C1R22289   5.995  15.453   4.730
  429POPC    CE22290   5.683  15.969   6.281
  429POPC    OG22291   5.642  16.036   6.161
  429POPC   C2A22292   5.552  15.973   6.086
  429POPC    OH22293   5.486  15.877   6.127
  429POPC   C2B22294   5.535  16.036   5.953
  429POPC   C2C22295   5.636  15.980   5.852
  429POPC   C2D22296   5.623  16.048   5.716
  429POPC   C2E22297   5.492  16.013   5.646
  429POPC   C2F22298   5.473  16.096   5.519
  429POPC   C2G22299   5.343  16.057   5.449
  429POPC   C2H22300   5.312  16.146   5.329
  429POPC   C2I22301   5.414  16.134   5.216
  429POPC   C2J22302   5.367  16.215   5.096
  429POPC   C2K22303   5.462  16.203   4.976
  429POPC   C2L22304   5.398  16.271   4.856
  429POPC   C2M22305   5.489  16.271   4.733
  429POPC   C2N22306   5.416  16.326   4.610
  429POPC   C2O22307   5.374  16.472   4.626
  429POPC   C2P22308   5.285  16.516   4.510
  430POPC   CN122309   6.239  15.285   6.723
  430POPC   CN222310   6.032  15.403   6.721
  430POPC   CN322311   6.083  15.257   6.900
  430POPC   NTM22312   6.141  15.354   6.807
  430POPC    CA22313   6.202  15.464   6.886
  430POPC    CB22314   6.303  15.563   6.822
  430POPC    OA22315   6.268  15.612   6.693
  430POPC     P22316   6.365  15.728   6.648
  430POPC    OB22317   6.284  15.842   6.695
  430POPC    OC22318   6.499  15.703   6.703
  430POPC    OD22319   6.358  15.694   6.495
  430POPC    CC22320   6.431  15.575   6.468
  430POPC    CD22321   6.438  15.527   6.322
  430POPC    OE22322   6.510  15.402   6.310
  430POPC   C1A22323   6.444  15.287   6.313
  430POPC    OF22324   6.326  15.283   6.352
  430POPC   C1B22325   6.529  15.168   6.287
  430POPC   C1C22326   6.584  15.164   6.144
  430POPC   C1D22327   6.473  15.148   6.039
  430POPC   C1E22328   6.529  15.164   5.897
  430POPC   C1F22329   6.625  15.051   5.857
  430POPC   C1G22330   6.693  15.081   5.723
  430POPC   C1H22331   6.601  15.074   5.601
  430POPC   C1I22332   6.566  14.931   5.562
  430POPC   C1J22333   6.592  14.886   5.439
  430POPC   C1K22334   6.655  14.977   5.333
  430POPC   C1L22335   6.554  15.014   5.225
  430POPC   C1M22336   6.617  15.104   5.119
  430POPC   C1N22337   6.513  15.139   5.012
  430POPC   C1O22338   6.574  15.230   4.904
  430POPC   C1P22339   6.472  15.264   4.794
  430POPC   C1Q22340   6.431  15.141   4.713
  430POPC   C1R22341   6.329  15.179   4.605
  430POPC    CE22342   6.502  15.642   6.242
  430POPC    OG22343   6.513  15.620   6.100
  430POPC   C2A22344   6.584  15.708   6.030
  430POPC    OH22345   6.637  15.805   6.083
  430POPC   C2B22346   6.589  15.674   5.886
  430POPC   C2C22347   6.716  15.596   5.850
  430POPC   C2D22348   6.712  15.552   5.703
  430POPC   C2E22349   6.841  15.478   5.666
  430POPC   C2F22350   6.829  15.409   5.529
  430POPC   C2G22351   6.824  15.506   5.411
  430POPC   C2H22352   6.792  15.427   5.283
  430POPC   C2I22353   6.799  15.512   5.156
  430POPC   C2J22354   6.944  15.544   5.116
  430POPC   C2K22355   6.949  15.613   4.980
  430POPC   C2L22356   7.094  15.637   4.937
  430POPC   C2M22357   7.099  15.702   4.798
  430POPC   C2N22358   7.243  15.726   4.754
  430POPC   C2O22359   7.252  15.795   4.617
  430POPC   C2P22360   7.204  15.705   4.503
  431POPC   CN122361   7.292  15.665   6.801
  431POPC   CN222362   7.079  15.582   6.870
  431POPC   CN322363   7.095  15.759   6.709
  431POPC   NTM22364   7.156  15.633   6.756
  431POPC    CA22365   7.167  15.532   6.648
  431POPC    CB22366   7.039  15.468   6.587
  431POPC    OA22367   6.949  15.561   6.528
  431POPC     P22368   6.812  15.496   6.486
  431POPC    OB22369   6.770  15.411   6.599
  431POPC    OC22370   6.742  15.620   6.449
  431POPC    OD22371   6.864  15.411   6.365
  431POPC    CC22372   6.879  15.491   6.247
  431POPC    CD22373   6.992  15.443   6.154
  431POPC    OE22374   7.014  15.536   6.044
  431POPC   C1A22375   7.096  15.638   6.062
  431POPC    OF22376   7.138  15.668   6.175
  431POPC   C1B22377   7.112  15.723   5.942
  431POPC   C1C22378   7.021  15.846   5.953
  431POPC   C1D22379   7.027  15.929   5.825
  431POPC   C1E22380   6.939  16.053   5.839
  431POPC   C1F22381   6.937  16.132   5.709
  431POPC   C1G22382   6.854  16.259   5.724
  431POPC   C1H22383   6.844  16.330   5.589
  431POPC   C1I22384   6.767  16.462   5.597
  431POPC   C1J22385   6.806  16.559   5.516
  431POPC   C1K22386   6.925  16.530   5.424
  431POPC   C1L22387   6.914  16.600   5.288
  431POPC   C1M22388   7.036  16.562   5.204
  431POPC   C1N22389   7.031  16.626   5.066
  431POPC   C1O22390   7.154  16.587   4.985
  431POPC   C1P22391   7.152  16.649   4.845
  431POPC   C1Q22392   7.275  16.611   4.763
  431POPC   C1R22393   7.404  16.673   4.819
  431POPC    CE22394   6.958  15.298   6.118
  431POPC    OG22395   7.056  15.226   6.041
  431POPC   C2A22396   7.037  15.095   6.027
  431POPC    OH22397   6.959  15.033   6.098
  431POPC   C2B22398   7.129  15.036   5.927
  431POPC   C2C22399   7.062  15.042   5.789
  431POPC   C2D22400   7.158  15.026   5.672
  431POPC   C2E22401   7.079  15.050   5.544
  431POPC   C2F22402   7.168  15.065   5.420
  431POPC   C2G22403   7.080  15.101   5.301
  431POPC   C2H22404   7.161  15.127   5.174
  431POPC   C2I22405   7.067  15.159   5.059
  431POPC   C2J22406   7.143  15.182   4.928
  431POPC   C2K22407   7.044  15.213   4.816
  431POPC   C2L22408   7.116  15.238   4.683
  431POPC   C2M22409   7.014  15.271   4.575
  431POPC   C2N22410   7.082  15.299   4.441
  431POPC   C2O22411   6.981  15.337   4.331
  431POPC   C2P22412   6.913  15.471   4.359
  432POPC   CN122413   8.635  15.405   6.649
  432POPC   CN222414   8.540  15.374   6.433
  432POPC   CN322415   8.482  15.566   6.566
  432POPC   NTM22416   8.590  15.475   6.528
  432POPC    CA22417   8.704  15.550   6.471
  432POPC    CB22418   8.685  15.640   6.347
  432POPC    OA22419   8.640  15.577   6.227
  432POPC     P22420   8.687  15.656   6.100
  432POPC    OB22421   8.821  15.709   6.130
  432POPC    OC22422   8.672  15.566   5.985
  432POPC    OD22423   8.584  15.773   6.099
  432POPC    CC22424   8.482  15.759   5.999
  432POPC    CD22425   8.367  15.858   6.020
  432POPC    OE22426   8.244  15.825   5.949
  432POPC   C1A22427   8.132  15.813   6.020
  432POPC    OF22428   8.127  15.862   6.134
  432POPC   C1B22429   8.016  15.767   5.941
  432POPC   C1C22430   7.923  15.885   5.909
  432POPC   C1D22431   7.813  15.850   5.809
  432POPC   C1E22432   7.732  15.976   5.779
  432POPC   C1F22433   7.624  15.955   5.674
  432POPC   C1G22434   7.546  16.086   5.656
  432POPC   C1H22435   7.436  16.075   5.550
  432POPC   C1I22436   7.356  16.204   5.543
  432POPC   C1J22437   7.307  16.246   5.426
  432POPC   C1K22438   7.334  16.164   5.300
  432POPC   C1L22439   7.341  16.253   5.176
  432POPC   C1M22440   7.373  16.167   5.053
  432POPC   C1N22441   7.384  16.252   4.926
  432POPC   C1O22442   7.422  16.168   4.804
  432POPC   C1P22443   7.563  16.110   4.816
  432POPC   C1Q22444   7.598  16.022   4.696
  432POPC   C1R22445   7.738  15.963   4.712
  432POPC    CE22446   8.423  16.000   6.005
  432POPC    OG22447   8.485  16.039   5.881
  432POPC   C2A22448   8.523  16.167   5.874
  432POPC    OH22449   8.496  16.247   5.964
  432POPC   C2B22450   8.593  16.201   5.748
  432POPC   C2C22451   8.496  16.248   5.640
  432POPC   C2D22452   8.571  16.285   5.512
  432POPC   C2E22453   8.476  16.318   5.398
  432POPC   C2F22454   8.557  16.345   5.271
  432POPC   C2G22455   8.468  16.361   5.148
  432POPC   C2H22456   8.552  16.373   5.021
  432POPC   C2I22457   8.625  16.506   5.010
  432POPC   C2J22458   8.721  16.503   4.890
  432POPC   C2K22459   8.788  16.638   4.866
  432POPC   C2L22460   8.897  16.628   4.759
  432POPC   C2M22461   8.845  16.588   4.621
  432POPC   C2N22462   8.961  16.569   4.523
  432POPC   C2O22463   8.911  16.521   4.387
  432POPC   C2P22464   9.027  16.495   4.291
  433POPC   CN122465   9.104  15.563   5.790
  433POPC   CN222466   9.094  15.333   5.841
  433POPC   CN322467   9.257  15.472   5.949
  433POPC   NTM22468   9.119  15.466   5.898
  433POPC    CA22469   9.020  15.502   6.003
  433POPC    CB22470   9.008  15.423   6.135
  433POPC    OA22471   8.985  15.282   6.119
  433POPC     P22472   8.881  15.224   6.222
  433POPC    OB22473   8.889  15.078   6.207
  433POPC    OC22474   8.906  15.289   6.352
  433POPC    OD22475   8.746  15.273   6.160
  433POPC    CC22476   8.721  15.215   6.031
  433POPC    CD22477   8.576  15.173   6.005
  433POPC    OE22478   8.558  15.113   5.874
  433POPC   C1A22479   8.589  14.986   5.852
  433POPC    OF22480   8.628  14.914   5.944
  433POPC   C1B22481   8.566  14.943   5.712
  433POPC   C1C22482   8.688  14.966   5.623
  433POPC   C1D22483   8.646  14.945   5.478
  433POPC   C1E22484   8.755  14.974   5.374
  433POPC   C1F22485   8.869  14.871   5.380
  433POPC   C1G22486   8.955  14.876   5.254
  433POPC   C1H22487   8.880  14.822   5.131
  433POPC   C1I22488   8.972  14.814   5.010
  433POPC   C1J22489   8.952  14.721   4.917
  433POPC   C1K22490   8.835  14.623   4.931
  433POPC   C1L22491   8.789  14.571   4.795
  433POPC   C1M22492   8.666  14.480   4.808
  433POPC   C1N22493   8.540  14.559   4.846
  433POPC   C1O22494   8.419  14.469   4.870
  433POPC   C1P22495   8.371  14.396   4.744
  433POPC   C1Q22496   8.306  14.489   4.641
  433POPC   C1R22497   8.264  14.411   4.517
  433POPC    CE22498   8.488  15.296   6.032
  433POPC    OG22499   8.346  15.269   6.027
  433POPC   C2A22500   8.267  15.376   6.025
  433POPC    OH22501   8.307  15.486   6.066
  433POPC   C2B22502   8.126  15.344   5.993
  433POPC   C2C22503   8.098  15.363   5.844
  433POPC   C2D22504   7.953  15.324   5.812
  433POPC   C2E22505   7.924  15.340   5.662
  433POPC   C2F22506   7.785  15.284   5.630
  433POPC   C2G22507   7.756  15.287   5.480
  433POPC   C2H22508   7.627  15.210   5.450
  433POPC   C2I22509   7.591  15.211   5.301
  433POPC   C2J22510   7.554  15.351   5.252
  433POPC   C2K22511   7.511  15.350   5.105
  433POPC   C2L22512   7.476  15.491   5.057
  433POPC   C2M22513   7.600  15.579   5.047
  433POPC   C2N22514   7.566  15.725   5.013
  433POPC   C2O22515   7.502  15.800   5.131
  433POPC   C2P22516   7.601  15.824   5.245
  434POPC   CN122517   9.641  15.242   6.148
  434POPC   CN222518   9.728  15.297   6.361
  434POPC   CN322519   9.856  15.348   6.169
  434POPC   NTM22520   9.719  15.342   6.222
  434POPC    CA22521   9.653  15.474   6.222
  434POPC    CB22522   9.641  15.555   6.091
  434POPC    OA22523   9.576  15.489   5.982
  434POPC     P22524   9.649  15.516   5.845
  434POPC    OB22525   9.562  15.470   5.736
  434POPC    OC22526   9.715  15.646   5.849
  434POPC    OD22527   9.765  15.412   5.865
  434POPC    CC22528   9.849  15.409   5.750
  434POPC    CD22529   9.970  15.316   5.766
  434POPC    OE22530  10.072  15.330   5.663
  434POPC   C1A22531  10.173  15.414   5.680
  434POPC    OF22532  10.194  15.467   5.790
  434POPC   C1B22533  10.265  15.421   5.563
  434POPC   C1C22534  10.207  15.496   5.443
  434POPC   C1D22535  10.192  15.647   5.465
  434POPC   C1E22536  10.140  15.712   5.336
  434POPC   C1F22537  10.119  15.863   5.353
  434POPC   C1G22538  10.064  15.923   5.223
  434POPC   C1H22539  10.030  16.072   5.239
  434POPC   C1I22540   9.986  16.130   5.105
  434POPC   C1J22541   9.994  16.261   5.080
  434POPC   C1K22542  10.042  16.358   5.188
  434POPC   C1L22543   9.985  16.498   5.162
  434POPC   C1M22544  10.006  16.589   5.283
  434POPC   C1N22545   9.951  16.729   5.257
  434POPC   C1O22546   9.950  16.815   5.384
  434POPC   C1P22547   9.843  16.769   5.483
  434POPC   C1Q22548   9.844  16.854   5.609
  434POPC   C1R22549   9.732  16.813   5.705
  434POPC    CE22550   9.917  15.174   5.793
  434POPC    OG22551   9.820  15.124   5.698
  434POPC   C2A22552   9.758  15.011   5.726
  434POPC    OH22553   9.774  14.953   5.834
  434POPC   C2B22554   9.662  14.970   5.621
  434POPC   C2C22555   9.724  14.874   5.519
  434POPC   C2D22556   9.616  14.826   5.422
  434POPC   C2E22557   9.665  14.721   5.322
  434POPC   C2F22558   9.770  14.775   5.225
  434POPC   C2G22559   9.794  14.674   5.114
  434POPC   C2H22560   9.903  14.717   5.015
  434POPC   C2I22561   9.869  14.846   4.940
  434POPC   C2J22562   9.973  14.871   4.831
  434POPC   C2K22563   9.953  15.006   4.762
  434POPC   C2L22564  10.055  15.021   4.650
  434POPC   C2M22565  10.057  15.163   4.592
  434POPC   C2N22566  10.165  15.174   4.484
  434POPC   C2O22567  10.182  15.318   4.434
  434POPC   C2P22568  10.244  15.409   4.541
  435POPC   CN122569  10.323  15.794   6.134
  435POPC   CN222570  10.369  16.008   6.034
  435POPC   CN322571  10.148  15.948   6.090
  435POPC   NTM22572  10.287  15.937   6.133
  435POPC    CA22573  10.298  15.997   6.268
  435POPC    CB22574  10.437  16.013   6.336
  435POPC    OA22575  10.517  15.896   6.349
  435POPC     P22576  10.670  15.929   6.334
  435POPC    OB22577  10.694  16.046   6.421
  435POPC    OC22578  10.730  15.798   6.363
  435POPC    OD22579  10.672  15.967   6.181
  435POPC    CC22580  10.732  15.864   6.101
  435POPC    CD22581  10.750  15.899   5.953
  435POPC    OE22582  10.779  15.783   5.870
  435POPC   C1A22583  10.676  15.715   5.820
  435POPC    OF22584  10.560  15.744   5.852
  435POPC   C1B22585  10.713  15.611   5.722
  435POPC   C1C22586  10.695  15.666   5.580
  435POPC   C1D22587  10.700  15.557   5.473
  435POPC   C1E22588  10.684  15.621   5.335
  435POPC   C1F22589  10.668  15.517   5.223
  435POPC   C1G22590  10.531  15.449   5.230
  435POPC   C1H22591  10.510  15.344   5.121
  435POPC   C1I22592  10.499  15.403   4.980
  435POPC   C1J22593  10.424  15.345   4.887
  435POPC   C1K22594  10.345  15.218   4.921
  435POPC   C1L22595  10.414  15.090   4.873
  435POPC   C1M22596  10.339  14.969   4.929
  435POPC   C1N22597  10.407  14.837   4.891
  435POPC   C1O22598  10.335  14.717   4.954
  435POPC   C1P22599  10.338  14.721   5.107
  435POPC   C1Q22600  10.268  14.599   5.167
  435POPC   C1R22601  10.266  14.606   5.319
  435POPC    CE22602  10.849  16.017   5.945
  435POPC    OG22603  10.884  16.061   5.813
  435POPC   C2A22604  10.957  16.171   5.804
  435POPC    OH22605  10.962  16.251   5.898
  435POPC   C2B22606  11.013  16.193   5.669
  435POPC   C2C22607  11.036  16.341   5.634
  435POPC   C2D22608  11.096  16.356   5.494
  435POPC   C2E22609  10.997  16.319   5.384
  435POPC   C2F22610  11.062  16.330   5.246
  435POPC   C2G22611  10.960  16.298   5.136
  435POPC   C2H22612  11.024  16.309   4.998
  435POPC   C2I22613  10.921  16.281   4.889
  435POPC   C2J22614  10.985  16.287   4.750
  435POPC   C2K22615  10.881  16.253   4.643
  435POPC   C2L22616  10.943  16.239   4.504
  435POPC   C2M22617  10.980  16.374   4.441
  435POPC   C2N22618  11.047  16.351   4.306
  435POPC   C2O22619  11.071  16.482   4.232
  435POPC   C2P22620  11.144  16.457   4.100
  436POPC   CN122621  11.091  15.398   6.166
  436POPC   CN222622  11.203  15.547   6.020
  436POPC   CN322623  10.972  15.580   6.073
  436POPC   NTM22624  11.103  15.539   6.127
  436POPC    CA22625  11.143  15.616   6.246
  436POPC    CB22626  11.177  15.767   6.241
  436POPC    OA22627  11.077  15.856   6.192
  436POPC     P22628  11.090  15.997   6.261
  436POPC    OB22629  10.977  16.079   6.215
  436POPC    OC22630  11.107  15.973   6.405
  436POPC    OD22631  11.225  16.047   6.199
  436POPC    CC22632  11.211  16.141   6.093
  436POPC    CD22633  11.337  16.155   6.005
  436POPC    OE22634  11.331  16.268   5.914
  436POPC   C1A22635  11.407  16.375   5.928
  436POPC    OF22636  11.511  16.373   5.997
  436POPC   C1B22637  11.361  16.484   5.839
  436POPC   C1C22638  11.467  16.589   5.804
  436POPC   C1D22639  11.415  16.688   5.701
  436POPC   C1E22640  11.398  16.620   5.565
  436POPC   C1F22641  11.344  16.716   5.459
  436POPC   C1G22642  11.323  16.639   5.328
  436POPC   C1H22643  11.259  16.724   5.218
  436POPC   C1I22644  11.355  16.824   5.152
  436POPC   C1J22645  11.404  16.798   5.031
  436POPC   C1K22646  11.366  16.669   4.958
  436POPC   C1L22647  11.357  16.694   4.808
  436POPC   C1M22648  11.319  16.566   4.732
  436POPC   C1N22649  11.288  16.595   4.585
  436POPC   C1O22650  11.410  16.646   4.507
  436POPC   C1P22651  11.369  16.681   4.364
  436POPC   C1Q22652  11.488  16.734   4.283
  436POPC   C1R22653  11.445  16.767   4.140
  436POPC    CE22654  11.353  16.019   5.936
  436POPC    OG22655  11.242  15.977   5.853
  436POPC   C2A22656  11.247  15.855   5.801
  436POPC    OH22657  11.330  15.772   5.840
  436POPC   C2B22658  11.138  15.825   5.706
  436POPC   C2C22659  11.180  15.855   5.562
  436POPC   C2D22660  11.063  15.833   5.465
  436POPC   C2E22661  11.103  15.866   5.321
  436POPC   C2F22662  10.985  15.843   5.228
  436POPC   C2G22663  11.023  15.863   5.081
  436POPC   C2H22664  10.900  15.840   4.992
  436POPC   C2I22665  10.936  15.849   4.844
  436POPC   C2J22666  10.811  15.835   4.757
  436POPC   C2K22667  10.845  15.840   4.608
  436POPC   C2L22668  10.721  15.840   4.519
  436POPC   C2M22669  10.640  15.970   4.534
  436POPC   C2N22670  10.527  15.978   4.432
  436POPC   C2O22671  10.458  16.114   4.440
  436POPC   C2P22672  10.353  16.131   4.331
  437POPC   CN122673  12.863  15.308   6.204
  437POPC   CN222674  13.008  15.190   6.354
  437POPC   CN322675  13.088  15.378   6.234
  437POPC   NTM22676  12.971  15.322   6.303
  437POPC    CA22677  12.935  15.415   6.412
  437POPC    CB22678  12.801  15.401   6.489
  437POPC    OA22679  12.772  15.269   6.534
  437POPC     P22680  12.659  15.266   6.643
  437POPC    OB22681  12.666  15.132   6.705
  437POPC    OC22682  12.669  15.387   6.726
  437POPC    OD22683  12.529  15.277   6.556
  437POPC    CC22684  12.506  15.160   6.476
  437POPC    CD22685  12.364  15.150   6.419
  437POPC    OE22686  12.343  15.029   6.341
  437POPC   C1A22687  12.222  14.976   6.334
  437POPC    OF22688  12.135  15.009   6.416
  437POPC   C1B22689  12.210  14.867   6.235
  437POPC   C1C22690  12.123  14.913   6.118
  437POPC   C1D22691  12.125  14.816   6.000
  437POPC   C1E22692  12.036  14.873   5.890
  437POPC   C1F22693  12.056  14.805   5.754
  437POPC   C1G22694  11.975  14.881   5.649
  437POPC   C1H22695  12.002  14.833   5.507
  437POPC   C1I22696  11.922  14.919   5.409
  437POPC   C1J22697  11.964  14.941   5.285
  437POPC   C1K22698  12.095  14.880   5.234
  437POPC   C1L22699  12.123  14.913   5.087
  437POPC   C1M22700  12.161  15.060   5.066
  437POPC   C1N22701  12.205  15.088   4.922
  437POPC   C1O22702  12.091  15.082   4.821
  437POPC   C1P22703  12.146  15.104   4.679
  437POPC   C1Q22704  12.036  15.113   4.573
  437POPC   C1R22705  11.960  14.982   4.554
  437POPC    CE22706  12.337  15.281   6.342
  437POPC    OG22707  12.434  15.316   6.241
  437POPC   C2A22708  12.407  15.423   6.166
  437POPC    OH22709  12.314  15.499   6.195
  437POPC   C2B22710  12.507  15.442   6.059
  437POPC   C2C22711  12.442  15.482   5.927
  437POPC   C2D22712  12.542  15.477   5.811
  437POPC   C2E22713  12.470  15.509   5.681
  437POPC   C2F22714  12.555  15.482   5.557
  437POPC   C2G22715  12.468  15.505   5.434
  437POPC   C2H22716  12.534  15.465   5.302
  437POPC   C2I22717  12.431  15.480   5.190
  437POPC   C2J22718  12.485  15.445   5.052
  437POPC   C2K22719  12.374  15.467   4.949
  437POPC   C2L22720  12.421  15.445   4.806
  437POPC   C2M22721  12.309  15.483   4.709
  437POPC   C2N22722  12.355  15.482   4.564
  437POPC   C2O22723  12.242  15.528   4.472
  437POPC   C2P22724  12.290  15.539   4.327
  438POPC   CN122725  14.790  16.291   5.936
  438POPC   CN222726  14.577  16.190   5.912
  438POPC   CN322727  14.771  16.056   5.955
  438POPC   NTM22728  14.704  16.183   5.985
  438POPC    CA22729  14.686  16.202   6.131
  438POPC    CB22730  14.592  16.113   6.215
  438POPC    OA22731  14.611  15.972   6.206
  438POPC     P22732  14.523  15.895   6.312
  438POPC    OB22733  14.574  15.757   6.307
  438POPC    OC22734  14.526  15.971   6.437
  438POPC    OD22735  14.384  15.905   6.240
  438POPC    CC22736  14.366  15.806   6.140
  438POPC    CD22737  14.242  15.822   6.052
  438POPC    OE22738  14.225  15.712   5.959
  438POPC   C1A22739  14.171  15.597   5.999
  438POPC    OF22740  14.154  15.572   6.119
  438POPC   C1B22741  14.149  15.503   5.888
  438POPC   C1C22742  14.009  15.441   5.894
  438POPC   C1D22743  13.979  15.361   5.767
  438POPC   C1E22744  13.969  15.452   5.644
  438POPC   C1F22745  13.949  15.369   5.518
  438POPC   C1G22746  13.935  15.459   5.395
  438POPC   C1H22747  13.913  15.378   5.267
  438POPC   C1I22748  14.036  15.297   5.228
  438POPC   C1J22749  14.058  15.267   5.100
  438POPC   C1K22750  13.960  15.314   4.994
  438POPC   C1L22751  14.031  15.339   4.861
  438POPC   C1M22752  13.928  15.378   4.755
  438POPC   C1N22753  13.994  15.403   4.619
  438POPC   C1O22754  13.886  15.434   4.516
  438POPC   C1P22755  13.947  15.456   4.377
  438POPC   C1Q22756  13.838  15.477   4.271
  438POPC   C1R22757  13.755  15.350   4.248
  438POPC    CE22758  14.257  15.959   5.983
  438POPC    OG22759  14.152  15.996   5.891
  438POPC   C2A22760  14.184  16.082   5.795
  438POPC    OH22761  14.296  16.131   5.787
  438POPC   C2B22762  14.074  16.103   5.698
  438POPC   C2C22763  14.091  16.010   5.578
  438POPC   C2D22764  13.975  16.024   5.479
  438POPC   C2E22765  13.996  15.934   5.357
  438POPC   C2F22766  13.878  15.945   5.260
  438POPC   C2G22767  13.896  15.860   5.134
  438POPC   C2H22768  14.008  15.914   5.044
  438POPC   C2I22769  14.022  15.834   4.915
  438POPC   C2J22770  14.134  15.889   4.827
  438POPC   C2K22771  14.101  16.028   4.770
  438POPC   C2L22772  14.225  16.097   4.711
  438POPC   C2M22773  14.325  16.140   4.818
  438POPC   C2N22774  14.273  16.257   4.902
  438POPC   C2O22775  14.360  16.286   5.024
  438POPC   C2P22776  14.345  16.178   5.132
  439POPC   CN122777  15.206  16.046   6.772
  439POPC   CN222778  15.156  15.947   6.562
  439POPC   CN322779  15.011  16.113   6.653
  439POPC   NTM22780  15.152  16.072   6.638
  439POPC    CA22781  15.235  16.176   6.572
  439POPC    CB22782  15.194  16.236   6.435
  439POPC    OA22783  15.175  16.147   6.325
  439POPC     P22784  15.092  16.222   6.215
  439POPC    OB22785  14.956  16.222   6.271
  439POPC    OC22786  15.162  16.346   6.183
  439POPC    OD22787  15.092  16.123   6.094
  439POPC    CC22788  15.224  16.102   6.044
  439POPC    CD22789  15.239  16.014   5.918
  439POPC    OE22790  15.231  16.085   5.791
  439POPC   C1A22791  15.333  16.160   5.751
  439POPC    OF22792  15.426  16.187   5.828
  439POPC   C1B22793  15.315  16.217   5.615
  439POPC   C1C22794  15.447  16.269   5.558
  439POPC   C1D22795  15.424  16.340   5.424
  439POPC   C1E22796  15.554  16.403   5.374
  439POPC   C1F22797  15.528  16.478   5.244
  439POPC   C1G22798  15.655  16.547   5.195
  439POPC   C1H22799  15.627  16.625   5.067
  439POPC   C1I22800  15.752  16.699   5.019
  439POPC   C1J22801  15.763  16.733   4.891
  439POPC   C1K22802  15.651  16.699   4.793
  439POPC   C1L22803  15.707  16.686   4.651
  439POPC   C1M22804  15.599  16.653   4.549
  439POPC   C1N22805  15.660  16.643   4.409
  439POPC   C1O22806  15.556  16.613   4.301
  439POPC   C1P22807  15.455  16.728   4.284
  439POPC   C1Q22808  15.359  16.704   4.168
  439POPC   C1R22809  15.429  16.714   4.032
  439POPC    CE22810  15.144  15.894   5.938
  439POPC    OG22811  15.143  15.794   5.833
  439POPC   C2A22812  15.064  15.819   5.729
  439POPC    OH22813  14.972  15.901   5.736
  439POPC   C2B22814  15.085  15.724   5.617
  439POPC   C2C22815  15.070  15.794   5.481
  439POPC   C2D22816  15.089  15.694   5.366
  439POPC   C2E22817  15.076  15.761   5.229
  439POPC   C2F22818  15.092  15.660   5.115
  439POPC   C2G22819  15.235  15.605   5.105
  439POPC   C2H22820  15.245  15.483   5.014
  439POPC   C2I22821  15.217  15.513   4.867
  439POPC   C2J22822  15.220  15.383   4.786
  439POPC   C2K22823  15.184  15.407   4.639
  439POPC   C2L22824  15.176  15.273   4.565
  439POPC   C2M22825  15.136  15.293   4.419
  439POPC   C2N22826  15.118  15.158   4.349
  439POPC   C2O22827  15.077  15.177   4.203
  439POPC   C2P22828  15.060  15.042   4.133
  440POPC   CN122829  15.472  15.341   6.383
  440POPC   CN222830  15.480  15.512   6.548
  440POPC   CN322831  15.285  15.487   6.414
  440POPC   NTM22832  15.392  15.413   6.484
  440POPC    CA22833  15.342  15.322   6.588
  440POPC    CB22834  15.249  15.204   6.550
  440POPC    OA22835  15.119  15.237   6.500
  440POPC     P22836  15.046  15.108   6.445
  440POPC    OB22837  15.093  14.991   6.520
  440POPC    OC22838  14.905  15.149   6.446
  440POPC    OD22839  15.109  15.107   6.301
  440POPC    CC22840  15.020  15.153   6.200
  440POPC    CD22841  15.076  15.152   6.057
  440POPC    OE22842  14.976  15.191   5.959
  440POPC   C1A22843  14.973  15.316   5.916
  440POPC    OF22844  15.028  15.406   5.981
  440POPC   C1B22845  14.880  15.337   5.802
  440POPC   C1C22846  14.950  15.316   5.668
  440POPC   C1D22847  14.850  15.334   5.553
  440POPC   C1E22848  14.919  15.316   5.417
  440POPC   C1F22849  14.817  15.333   5.304
  440POPC   C1G22850  14.885  15.320   5.168
  440POPC   C1H22851  14.783  15.337   5.055
  440POPC   C1I22852  14.854  15.336   4.919
  440POPC   C1J22853  14.801  15.397   4.814
  440POPC   C1K22854  14.664  15.465   4.824
  440POPC   C1L22855  14.604  15.481   4.684
  440POPC   C1M22856  14.461  15.534   4.687
  440POPC   C1N22857  14.407  15.562   4.547
  440POPC   C1O22858  14.396  15.436   4.461
  440POPC   C1P22859  14.354  15.470   4.318
  440POPC   C1Q22860  14.349  15.345   4.230
  440POPC   C1R22861  14.313  15.381   4.086
  440POPC    CE22862  15.137  15.013   6.032
  440POPC    OG22863  15.189  14.990   5.899
  440POPC   C2A22864  15.246  14.872   5.877
  440POPC    OH22865  15.268  14.793   5.970
  440POPC   C2B22866  15.280  14.847   5.735
  440POPC   C2C22867  15.426  14.882   5.704
  440POPC   C2D22868  15.471  14.822   5.570
  440POPC   C2E22869  15.406  14.883   5.446
  440POPC   C2F22870  15.441  14.797   5.324
  440POPC   C2G22871  15.396  14.856   5.190
  440POPC   C2H22872  15.485  14.974   5.148
  440POPC   C2I22873  15.458  15.015   5.003
  440POPC   C2J22874  15.559  15.121   4.960
  440POPC   C2K22875  15.548  15.153   4.811
  440POPC   C2L22876  15.658  15.252   4.770
  440POPC   C2M22877  15.655  15.280   4.620
  440POPC   C2N22878  15.773  15.369   4.580
  440POPC   C2O22879  15.774  15.393   4.429
  440POPC   C2P22880  15.895  15.476   4.387
  441POPC   CN122881   1.056   0.119   2.515
  441POPC   CN222882   1.238   0.273   2.522
  441POPC   CN322883   1.281   0.043   2.501
  441POPC   NTM22884   1.189   0.150   2.461
  441POPC    CA22885   1.187   0.159   2.313
  441POPC    CB22886   1.094   0.261   2.242
  441POPC    OA22887   1.115   0.398   2.276
  441POPC     P22888   1.013   0.493   2.203
  441POPC    OB22889   1.070   0.628   2.210
  441POPC    OC22890   0.976   0.435   2.073
  441POPC    OD22891   0.889   0.481   2.297
  441POPC    CC22892   0.893   0.572   2.407
  441POPC    CD22893   0.766   0.565   2.493
  441POPC    OE22894   0.757   0.670   2.593
  441POPC   C1A22895   0.703   0.788   2.562
  441POPC    OF22896   0.658   0.811   2.449
  441POPC   C1B22897   0.695   0.879   2.678
  441POPC   C1C22898   0.557   0.879   2.744
  441POPC   C1D22899   0.515   0.745   2.808
  441POPC   C1E22900   0.601   0.702   2.927
  441POPC   C1F22901   0.592   0.802   3.042
  441POPC   C1G22902   0.698   0.773   3.148
  441POPC   C1H22903   0.741   0.899   3.222
  441POPC   C1I22904   0.815   0.997   3.130
  441POPC   C1J22905   0.846   1.119   3.170
  441POPC   C1K22906   0.812   1.164   3.312
  441POPC   C1L22907   0.912   1.268   3.362
  441POPC   C1M22908   0.876   1.311   3.504
  441POPC   C1N22909   0.971   1.420   3.554
  441POPC   C1O22910   0.938   1.465   3.697
  441POPC   C1P22911   0.798   1.528   3.707
  441POPC   C1Q22912   0.769   1.573   3.850
  441POPC   C1R22913   0.628   1.633   3.860
  441POPC    CE22914   0.760   0.423   2.550
  441POPC    OG22915   0.871   0.385   2.635
  441POPC   C2A22916   0.837   0.333   2.753
  441POPC    OH22917   0.725   0.286   2.771
  441POPC   C2B22918   0.953   0.315   2.844
  441POPC   C2C22919   0.908   0.314   2.991
  441POPC   C2D22920   1.024   0.287   3.087
  441POPC   C2E22921   0.970   0.284   3.230
  441POPC   C2F22922   1.080   0.266   3.335
  441POPC   C2G22923   1.014   0.261   3.473
  441POPC   C2H22924   1.115   0.259   3.587
  441POPC   C2I22925   1.040   0.253   3.720
  441POPC   C2J22926   1.132   0.276   3.840
  441POPC   C2K22927   1.051   0.276   3.969
  441POPC   C2L22928   1.134   0.324   4.088
  441POPC   C2M22929   1.049   0.328   4.215
  441POPC   C2N22930   1.124   0.389   4.335
  441POPC   C2O22931   1.150   0.539   4.316
  441POPC   C2P22932   1.219   0.599   4.439
  442POPC   CN122933   0.578   2.299   1.629
  442POPC   CN222934   0.755   2.454   1.617
  442POPC   CN322935   0.547   2.506   1.512
  442POPC   NTM22936   0.609   2.442   1.630
  442POPC    CA22937   0.568   2.509   1.756
  442POPC    CB22938   0.419   2.517   1.795
  442POPC    OA22939   0.355   2.391   1.818
  442POPC     P22940   0.201   2.405   1.791
  442POPC    OB22941   0.155   2.514   1.878
  442POPC    OC22942   0.193   2.415   1.645
  442POPC    OD22943   0.155   2.262   1.838
  442POPC    CC22944   0.128   2.261   1.978
  442POPC    CD22945   0.059   2.134   2.027
  442POPC    OE22946  16.977   2.152   2.156
  442POPC   C1A22947  16.891   2.062   2.202
  442POPC    OF22948  16.856   1.967   2.130
  442POPC   C1B22949  16.824   2.102   2.328
  442POPC   C1C22950  16.903   2.068   2.454
  442POPC   C1D22951  16.825   2.117   2.576
  442POPC   C1E22952  16.902   2.103   2.707
  442POPC   C1F22953  16.917   1.958   2.753
  442POPC   C1G22954   0.015   1.952   2.883
  442POPC   C1H22955   0.023   1.809   2.936
  442POPC   C1I22956   0.117   1.798   3.057
  442POPC   C1J22957   0.073   1.791   3.182
  442POPC   C1K22958  16.907   1.796   3.216
  442POPC   C1L22959  16.886   1.814   3.367
  442POPC   C1M22960  16.737   1.818   3.401
  442POPC   C1N22961  16.716   1.816   3.552
  442POPC   C1O22962  16.566   1.813   3.585
  442POPC   C1P22963  16.540   1.801   3.736
  442POPC   C1Q22964  16.582   1.665   3.792
  442POPC   C1R22965  16.552   1.655   3.942
  442POPC    CE22966   0.160   2.018   2.010
  442POPC    OG22967   0.286   2.026   2.080
  442POPC   C2A22968   0.294   1.960   2.196
  442POPC    OH22969   0.196   1.907   2.248
  442POPC   C2B22970   0.431   1.961   2.251
  442POPC   C2C22971   0.453   2.081   2.343
  442POPC   C2D22972   0.600   2.089   2.385
  442POPC   C2E22973   0.624   2.208   2.477
  442POPC   C2F22974   0.773   2.225   2.507
  442POPC   C2G22975   0.800   2.345   2.597
  442POPC   C2H22976   0.752   2.323   2.740
  442POPC   C2I22977   0.783   2.445   2.826
  442POPC   C2J22978   0.752   2.420   2.974
  442POPC   C2K22979   0.787   2.543   3.057
  442POPC   C2L22980   0.767   2.522   3.207
  442POPC   C2M22981   0.621   2.498   3.246
  442POPC   C2N22982   0.603   2.485   3.397
  442POPC   C2O22983   0.627   2.618   3.469
  442POPC   C2P22984   0.611   2.603   3.620
  443POPC   CN122985   1.230   2.051   2.171
  443POPC   CN222986   1.100   1.897   2.042
  443POPC   CN322987   1.129   1.865   2.275
  443POPC   NTM22988   1.110   1.966   2.171
  443POPC    CA22989   0.985   2.039   2.202
  443POPC    CB22990   0.938   2.155   2.110
  443POPC    OA22991   1.025   2.267   2.113
  443POPC     P22992   1.005   2.370   1.995
  443POPC    OB22993   1.121   2.459   2.015
  443POPC    OC22994   0.992   2.289   1.873
  443POPC    OD22995   0.870   2.436   2.041
  443POPC    CC22996   0.885   2.513   2.160
  443POPC    CD22997   0.760   2.591   2.205
  443POPC    OE22998   0.773   2.635   2.343
  443POPC   C1A22999   0.735   2.758   2.376
  443POPC    OF23000   0.720   2.844   2.288
  443POPC   C1B23001   0.732   2.784   2.522
  443POPC   C1C23002   0.592   2.758   2.578
  443POPC   C1D23003   0.584   2.787   2.728
  443POPC   C1E23004   0.446   2.747   2.781
  443POPC   C1F23005   0.430   2.764   2.932
  443POPC   C1G23006   0.416   2.910   2.974
  443POPC   C1H23007   0.381   2.919   3.123
  443POPC   C1I23008   0.353   3.063   3.165
  443POPC   C1J23009   0.361   3.099   3.293
  443POPC   C1K23010   0.398   2.997   3.400
  443POPC   C1L23011   0.338   3.034   3.536
  443POPC   C1M23012   0.390   2.941   3.645
  443POPC   C1N23013   0.343   2.982   3.785
  443POPC   C1O23014   0.193   2.961   3.807
  443POPC   C1P23015   0.154   3.001   3.950
  443POPC   C1Q23016   0.004   2.980   3.973
  443POPC   C1R23017  16.947   3.025   4.113
  443POPC    CE23018   0.640   2.496   2.183
  443POPC    OG23019   0.508   2.552   2.202
  443POPC   C2A23020   0.407   2.466   2.186
  443POPC    OH23021   0.422   2.359   2.128
  443POPC   C2B23022   0.276   2.522   2.228
  443POPC   C2C23023   0.214   2.439   2.341
  443POPC   C2D23024   0.291   2.453   2.473
  443POPC   C2E23025   0.229   2.366   2.582
  443POPC   C2F23026   0.295   2.395   2.716
  443POPC   C2G23027   0.223   2.323   2.830
  443POPC   C2H23028   0.267   2.377   2.965
  443POPC   C2I23029   0.189   2.311   3.079
  443POPC   C2J23030   0.222   2.375   3.215
  443POPC   C2K23031   0.163   2.517   3.228
  443POPC   C2L23032   0.205   2.585   3.358
  443POPC   C2M23033   0.151   2.514   3.482
  443POPC   C2N23034   0.205   2.578   3.610
  443POPC   C2O23035   0.157   2.505   3.734
  443POPC   C2P23036   0.216   2.567   3.861
  444POPC   CN123037   0.715   3.975   1.278
  444POPC   CN223038   0.903   4.115   1.309
  444POPC   CN323039   0.688   4.190   1.378
  444POPC   NTM23040   0.776   4.073   1.369
  444POPC    CA23041   0.806   4.017   1.503
  444POPC    CB23042   0.695   3.969   1.599
  444POPC    OA23043   0.607   3.869   1.547
  444POPC     P23044   0.489   3.832   1.645
  444POPC    OB23045   0.472   3.940   1.743
  444POPC    OC23046   0.381   3.792   1.554
  444POPC    OD23047   0.557   3.704   1.708
  444POPC    CC23048   0.526   3.692   1.847
  444POPC    CD23049   0.621   3.600   1.927
  444POPC    OE23050   0.579   3.571   2.063
  444POPC   C1A23051   0.482   3.482   2.086
  444POPC    OF23052   0.424   3.427   1.992
  444POPC   C1B23053   0.448   3.463   2.229
  444POPC   C1C23054   0.508   3.333   2.283
  444POPC   C1D23055   0.461   3.309   2.427
  444POPC   C1E23056   0.520   3.181   2.487
  444POPC   C1F23057   0.671   3.189   2.511
  444POPC   C1G23058   0.710   3.286   2.624
  444POPC   C1H23059   0.674   3.232   2.763
  444POPC   C1I23060   0.709   3.336   2.869
  444POPC   C1J23061   0.760   3.299   2.987
  444POPC   C1K23062   0.785   3.152   3.018
  444POPC   C1L23063   0.789   3.129   3.169
  444POPC   C1M23064   0.816   2.982   3.202
  444POPC   C1N23065   0.830   2.959   3.353
  444POPC   C1O23066   0.956   3.026   3.410
  444POPC   C1P23067   0.967   3.003   3.560
  444POPC   C1Q23068   1.093   3.069   3.616
  444POPC   C1R23069   1.105   3.044   3.767
  444POPC    CE23070   0.761   3.663   1.916
  444POPC    OG23071   0.769   3.805   1.943
  444POPC   C2A23072   0.891   3.857   1.945
  444POPC    OH23073   0.990   3.789   1.917
  444POPC   C2B23074   0.893   4.003   1.971
  444POPC   C2C23075   1.017   4.046   2.049
  444POPC   C2D23076   1.010   3.999   2.195
  444POPC   C2E23077   1.144   4.018   2.266
  444POPC   C2F23078   1.132   3.987   2.415
  444POPC   C2G23079   1.056   4.098   2.489
  444POPC   C2H23080   1.039   4.067   2.637
  444POPC   C2I23081   0.982   4.189   2.709
  444POPC   C2J23082   0.960   4.162   2.858
  444POPC   C2K23083   0.919   4.291   2.928
  444POPC   C2L23084   0.881   4.271   3.075
  444POPC   C2M23085   0.999   4.226   3.162
  444POPC   C2N23086   0.961   4.215   3.309
  444POPC   C2O23087   0.858   4.105   3.337
  444POPC   C2P23088   0.820   4.103   3.485
  445POPC   CN123089  16.708   5.384   1.286
  445POPC   CN223090  16.684   5.458   1.510
  445POPC   CN323091  16.800   5.255   1.463
  445POPC   NTM23092  16.775   5.392   1.416
  445POPC    CA23093  16.899   5.470   1.397
  445POPC    CB23094   0.018   5.491   1.511
  445POPC    OA23095  16.953   5.550   1.632
  445POPC     P23096   0.073   5.529   1.749
  445POPC    OB23097   0.206   5.557   1.692
  445POPC    OC23098   0.020   5.609   1.861
  445POPC    OD23099   0.047   5.376   1.769
  445POPC    CC23100  16.933   5.349   1.870
  445POPC    CD23101  16.873   5.207   1.865
  445POPC    OE23102  16.761   5.190   1.955
  445POPC   C1A23103  16.639   5.168   1.908
  445POPC    OF23104  16.617   5.160   1.786
  445POPC   C1B23105  16.539   5.152   2.016
  445POPC   C1C23106  16.530   5.007   2.063
  445POPC   C1D23107  16.458   4.994   2.197
  445POPC   C1E23108  16.538   5.057   2.311
  445POPC   C1F23109  16.471   5.030   2.446
  445POPC   C1G23110  16.550   5.094   2.561
  445POPC   C1H23111  16.489   5.055   2.695
  445POPC   C1I23112  16.564   5.118   2.812
  445POPC   C1J23113  16.506   5.125   2.932
  445POPC   C1K23114  16.365   5.068   2.950
  445POPC   C1L23115  16.286   5.134   3.064
  445POPC   C1M23116  16.255   5.282   3.037
  445POPC   C1N23117  16.168   5.343   3.147
  445POPC   C1O23118  16.023   5.293   3.140
  445POPC   C1P23119  15.940   5.354   3.253
  445POPC   C1Q23120  15.792   5.314   3.245
  445POPC   C1R23121  15.721   5.378   3.125
  445POPC    CE23122   0.006   5.107   1.881
  445POPC    OG23123   0.092   5.123   1.996
  445POPC   C2A23124   0.188   5.033   2.012
  445POPC    OH23125   0.203   4.939   1.933
  445POPC   C2B23126   0.271   5.057   2.132
  445POPC   C2C23127   0.202   5.001   2.257
  445POPC   C2D23128   0.283   5.031   2.383
  445POPC   C2E23129   0.202   5.002   2.510
  445POPC   C2F23130   0.083   5.098   2.523
  445POPC   C2G23131  16.979   5.070   2.646
  445POPC   C2H23132   0.065   5.105   2.778
  445POPC   C2I23133  16.950   5.086   2.894
  445POPC   C2J23134   0.028   5.128   3.027
  445POPC   C2K23135  16.907   5.115   3.138
  445POPC   C2L23136  16.964   5.159   3.273
  445POPC   C2M23137  16.857   5.148   3.382
  445POPC   C2N23138  16.912   5.194   3.517
  445POPC   C2O23139  16.807   5.184   3.629
  445POPC   C2P23140  16.771   5.039   3.663
  446POPC   CN123141  16.842   5.871   1.607
  446POPC   CN223142   0.089   5.909   1.645
  446POPC   CN323143  16.963   6.023   1.467
  446POPC   NTM23144  16.947   5.973   1.604
  446POPC    CA23145  16.920   6.082   1.700
  446POPC    CB23146  16.808   6.185   1.671
  446POPC    OA23147  16.682   6.128   1.639
  446POPC     P23148  16.586   6.234   1.577
  446POPC    OB23149  16.549   6.324   1.686
  446POPC    OC23150  16.659   6.281   1.457
  446POPC    OD23151  16.478   6.124   1.543
  446POPC    CC23152  16.398   6.095   1.658
  446POPC    CD23153  16.302   5.975   1.647
  446POPC    OE23154  16.206   5.972   1.757
  446POPC   C1A23155  16.106   5.884   1.757
  446POPC    OF23156  16.066   5.835   1.651
  446POPC   C1B23157  16.037   5.874   1.888
  446POPC   C1C23158  16.093   5.761   1.974
  446POPC   C1D23159  16.036   5.765   2.116
  446POPC   C1E23160  16.102   5.875   2.199
  446POPC   C1F23161  16.046   5.878   2.342
  446POPC   C1G23162  16.122   5.982   2.425
  446POPC   C1H23163  16.064   6.001   2.566
  446POPC   C1I23164  15.930   6.075   2.563
  446POPC   C1J23165  15.901   6.164   2.657
  446POPC   C1K23166  16.002   6.195   2.769
  446POPC   C1L23167  15.993   6.339   2.821
  446POPC   C1M23168  15.861   6.372   2.892
  446POPC   C1N23169  15.842   6.300   3.026
  446POPC   C1O23170  15.938   6.351   3.134
  446POPC   C1P23171  15.910   6.284   3.268
  446POPC   C1Q23172  16.004   6.337   3.376
  446POPC   C1R23173  15.976   6.271   3.511
  446POPC    CE23174  16.391   5.849   1.633
  446POPC    OG23175  16.480   5.823   1.744
  446POPC   C2A23176  16.521   5.697   1.759
  446POPC    OH23177  16.477   5.606   1.688
  446POPC   C2B23178  16.618   5.678   1.869
  446POPC   C2C23179  16.553   5.612   1.991
  446POPC   C2D23180  16.658   5.578   2.097
  446POPC   C2E23181  16.593   5.501   2.213
  446POPC   C2F23182  16.694   5.453   2.318
  446POPC   C2G23183  16.750   5.568   2.402
  446POPC   C2H23184  16.861   5.520   2.496
  446POPC   C2I23185  16.812   5.446   2.620
  446POPC   C2J23186  16.755   5.543   2.725
  446POPC   C2K23187  16.731   5.470   2.857
  446POPC   C2L23188  16.681   5.566   2.965
  446POPC   C2M23189  16.670   5.495   3.100
  446POPC   C2N23190  16.624   5.591   3.209
  446POPC   C2O23191  16.621   5.527   3.348
  446POPC   C2P23192  16.514   5.418   3.360
  447POPC   CN123193   0.471   6.644   1.641
  447POPC   CN223194   0.509   6.877   1.624
  447POPC   CN323195   0.409   6.762   1.441
  447POPC   NTM23196   0.415   6.770   1.588
  447POPC    CA23197   0.283   6.803   1.647
  447POPC    CB23198   0.160   6.710   1.627
  447POPC    OA23199   0.178   6.578   1.678
  447POPC     P23200   0.059   6.480   1.647
  447POPC    OB23201   0.010   6.508   1.511
  447POPC    OC23202   0.101   6.344   1.681
  447POPC    OD23203  16.937   6.530   1.754
  447POPC    CC23204  16.971   6.487   1.886
  447POPC    CD23205  16.885   6.548   1.998
  447POPC    OE23206  16.946   6.536   2.130
  447POPC   C1A23207  16.950   6.643   2.209
  447POPC    OF23208  16.920   6.754   2.164
  447POPC   C1B23209   0.023   6.615   2.343
  447POPC   C1C23210   0.021   6.736   2.436
  447POPC   C1D23211   0.084   6.705   2.572
  447POPC   C1E23212   0.087   6.831   2.659
  447POPC   C1F23213   0.156   6.808   2.794
  447POPC   C1G23214   0.076   6.718   2.888
  447POPC   C1H23215   0.153   6.696   3.018
  447POPC   C1I23216   0.080   6.602   3.114
  447POPC   C1J23217   0.117   6.600   3.242
  447POPC   C1K23218   0.231   6.691   3.288
  447POPC   C1L23219   0.223   6.725   3.437
  447POPC   C1M23220   0.268   6.610   3.527
  447POPC   C1N23221   0.250   6.649   3.674
  447POPC   C1O23222   0.303   6.544   3.772
  447POPC   C1P23223   0.456   6.533   3.769
  447POPC   C1Q23224   0.509   6.436   3.875
  447POPC   C1R23225   0.489   6.487   4.018
  447POPC    CE23226  16.742   6.492   1.985
  447POPC    OG23227  16.729   6.349   1.986
  447POPC   C2A23228  16.605   6.299   1.988
  447POPC    OH23229  16.505   6.371   1.988
  447POPC   C2B23230  16.605   6.151   1.993
  447POPC   C2C23231  16.477   6.088   2.049
  447POPC   C2D23232  16.453   6.111   2.199
  447POPC   C2E23233  16.559   6.043   2.288
  447POPC   C2F23234  16.519   6.047   2.436
  447POPC   C2G23235  16.513   6.190   2.493
  447POPC   C2H23236  16.450   6.193   2.632
  447POPC   C2I23237  16.535   6.124   2.739
  447POPC   C2J23238  16.462   6.123   2.873
  447POPC   C2K23239  16.547   6.059   2.982
  447POPC   C2L23240  16.471   6.053   3.115
  447POPC   C2M23241  16.559   5.994   3.226
  447POPC   C2N23242  16.483   5.978   3.358
  447POPC   C2O23243  16.442   6.112   3.420
  447POPC   C2P23244  16.366   6.089   3.551
  448POPC   CN123245   0.715   7.817   1.653
  448POPC   CN223246   0.725   7.665   1.834
  448POPC   CN323247   0.549   7.649   1.672
  448POPC   NTM23248   0.692   7.678   1.691
  448POPC    CA23249   0.778   7.593   1.605
  448POPC    CB23250   0.792   7.441   1.634
  448POPC    OA23251   0.669   7.371   1.649
  448POPC     P23252   0.695   7.221   1.685
  448POPC    OB23253   0.696   7.158   1.553
  448POPC    OC23254   0.804   7.209   1.782
  448POPC    OD23255   0.555   7.203   1.753
  448POPC    CC23256   0.556   7.264   1.883
  448POPC    CD23257   0.418   7.276   1.951
  448POPC    OE23258   0.419   7.360   2.070
  448POPC   C1A23259   0.417   7.492   2.058
  448POPC    OF23260   0.398   7.546   1.948
  448POPC   C1B23261   0.430   7.565   2.186
  448POPC   C1C23262   0.576   7.588   2.225
  448POPC   C1D23263   0.587   7.688   2.340
  448POPC   C1E23264   0.582   7.832   2.288
  448POPC   C1F23265   0.557   7.933   2.401
  448POPC   C1G23266   0.408   7.936   2.436
  448POPC   C1H23267   0.380   8.033   2.551
  448POPC   C1I23268   0.229   8.054   2.568
  448POPC   C1J23269   0.175   8.063   2.689
  448POPC   C1K23270   0.262   8.049   2.814
  448POPC   C1L23271   0.181   7.990   2.929
  448POPC   C1M23272   0.266   7.973   3.055
  448POPC   C1N23273   0.181   7.917   3.169
  448POPC   C1O23274   0.266   7.897   3.295
  448POPC   C1P23275   0.179   7.844   3.409
  448POPC   C1Q23276   0.263   7.824   3.536
  448POPC   C1R23277   0.175   7.775   3.651
  448POPC    CE23278   0.365   7.133   1.968
  448POPC    OG23279   0.456   7.041   2.032
  448POPC   C2A23280   0.425   6.912   2.033
  448POPC    OH23281   0.330   6.870   1.966
  448POPC   C2B23282   0.514   6.825   2.113
  448POPC   C2C23283   0.554   6.888   2.247
  448POPC   C2D23284   0.622   6.786   2.337
  448POPC   C2E23285   0.670   6.848   2.469
  448POPC   C2F23286   0.558   6.909   2.553
  448POPC   C2G23287   0.616   6.950   2.688
  448POPC   C2H23288   0.521   7.036   2.771
  448POPC   C2I23289   0.586   7.066   2.905
  448POPC   C2J23290   0.521   7.184   2.976
  448POPC   C2K23291   0.594   7.211   3.108
  448POPC   C2L23292   0.548   7.343   3.170
  448POPC   C2M23293   0.616   7.364   3.305
  448POPC   C2N23294   0.575   7.498   3.367
  448POPC   C2O23295   0.634   7.518   3.507
  448POPC   C2P23296   0.787   7.529   3.505
  449POPC   CN123297   0.392   9.003   1.796
  449POPC   CN223298   0.180   8.904   1.760
  449POPC   CN323299   0.371   8.820   1.647
  449POPC   NTM23300   0.323   8.876   1.774
  449POPC    CA23301   0.349   8.788   1.890
  449POPC    CB23302   0.290   8.645   1.895
  449POPC    OA23303   0.341   8.556   1.795
  449POPC     P23304   0.265   8.420   1.790
  449POPC    OB23305   0.121   8.450   1.775
  449POPC    OC23306   0.332   8.335   1.691
  449POPC    OD23307   0.302   8.362   1.930
  449POPC    CC23308   0.213   8.261   1.978
  449POPC    CD23309   0.256   8.201   2.113
  449POPC    OE23310   0.163   8.104   2.169
  449POPC   C1A23311   0.155   7.979   2.126
  449POPC    OF23312   0.214   7.943   2.024
  449POPC   C1B23313   0.057   7.900   2.205
  449POPC   C1C23314   0.092   7.751   2.212
  449POPC   C1D23315   0.005   7.676   2.313
  449POPC   C1E23316   0.033   7.721   2.457
  449POPC   C1F23317  16.943   7.635   2.559
  449POPC   C1G23318  16.980   7.680   2.701
  449POPC   C1H23319  16.927   7.581   2.806
  449POPC   C1I23320  16.972   7.622   2.946
  449POPC   C1J23321   0.030   7.528   3.031
  449POPC   C1K23322   0.035   7.382   2.985
  449POPC   C1L23323   0.141   7.299   3.058
  449POPC   C1M23324   0.099   7.263   3.201
  449POPC   C1N23325   0.206   7.176   3.267
  449POPC   C1O23326   0.162   7.124   3.405
  449POPC   C1P23327   0.148   7.233   3.512
  449POPC   C1Q23328   0.282   7.288   3.558
  449POPC   C1R23329   0.263   7.390   3.670
  449POPC    CE23330   0.276   8.321   2.209
  449POPC    OG23331   0.154   8.391   2.244
  449POPC   C2A23332   0.167   8.491   2.330
  449POPC    OH23333   0.277   8.530   2.369
  449POPC   C2B23334   0.035   8.543   2.375
  449POPC   C2C23335  16.971   8.474   2.503
  449POPC   C2D23336   0.066   8.520   2.626
  449POPC   C2E23337   0.033   8.436   2.749
  449POPC   C2F23338   0.109   8.488   2.870
  449POPC   C2G23339   0.093   8.396   2.991
  449POPC   C2H23340   0.161   8.458   3.113
  449POPC   C2I23341   0.156   8.365   3.234
  449POPC   C2J23342   0.203   8.439   3.359
  449POPC   C2K23343   0.206   8.347   3.481
  449POPC   C2L23344   0.240   8.428   3.606
  449POPC   C2M23345   0.261   8.337   3.727
  449POPC   C2N23346   0.288   8.421   3.852
  449POPC   C2O23347   0.328   8.336   3.973
  449POPC   C2P23348   0.467   8.273   3.956
  450POPC   CN123349   0.868   8.464   1.711
  450POPC   CN223350   0.789   8.245   1.663
  450POPC   CN323351   0.888   8.290   1.874
  450POPC   NTM23352   0.802   8.346   1.769
  450POPC    CA23353   0.667   8.376   1.821
  450POPC    CB23354   0.643   8.491   1.922
  450POPC    OA23355   0.727   8.497   2.038
  450POPC     P23356   0.641   8.536   2.163
  450POPC    OB23357   0.570   8.658   2.122
  450POPC    OC23358   0.576   8.409   2.197
  450POPC    OD23359   0.762   8.574   2.256
  450POPC    CC23360   0.812   8.464   2.332
  450POPC    CD23361   0.932   8.496   2.423
  450POPC    OE23362   0.961   8.387   2.513
  450POPC   C1A23363   1.070   8.312   2.497
  450POPC    OF23364   1.138   8.318   2.394
  450POPC   C1B23365   1.093   8.220   2.610
  450POPC   C1C23366   1.176   8.290   2.718
  450POPC   C1D23367   1.181   8.208   2.847
  450POPC   C1E23368   1.253   8.286   2.957
  450POPC   C1F23369   1.249   8.210   3.090
  450POPC   C1G23370   1.309   8.294   3.203
  450POPC   C1H23371   1.295   8.219   3.336
  450POPC   C1I23372   1.332   8.308   3.455
  450POPC   C1J23373   1.262   8.294   3.567
  450POPC   C1K23374   1.150   8.190   3.570
  450POPC   C1L23375   1.022   8.240   3.638
  450POPC   C1M23376   1.033   8.248   3.791
  450POPC   C1N23377   0.899   8.289   3.852
  450POPC   C1O23378   0.902   8.287   4.005
  450POPC   C1P23379   0.995   8.394   4.061
  450POPC   C1Q23380   1.001   8.388   4.214
  450POPC   C1R23381   1.098   8.493   4.267
  450POPC    CE23382   0.898   8.627   2.499
  450POPC    OG23383   0.996   8.672   2.594
  450POPC   C2A23384   0.958   8.764   2.683
  450POPC    OH23385   0.848   8.819   2.672
  450POPC   C2B23386   1.057   8.797   2.788
  450POPC   C2C23387   1.131   8.676   2.847
  450POPC   C2D23388   1.240   8.718   2.946
  450POPC   C2E23389   1.187   8.771   3.080
  450POPC   C2F23390   1.124   8.659   3.164
  450POPC   C2G23391   1.083   8.710   3.303
  450POPC   C2H23392   1.022   8.596   3.385
  450POPC   C2I23393   0.983   8.637   3.527
  450POPC   C2J23394   1.105   8.667   3.615
  450POPC   C2K23395   1.063   8.701   3.758
  450POPC   C2L23396   1.184   8.738   3.843
  450POPC   C2M23397   1.143   8.785   3.982
  450POPC   C2N23398   1.265   8.830   4.062
  450POPC   C2O23399   1.223   8.887   4.197
  450POPC   C2P23400   1.343   8.939   4.277
  451POPC   CN123401   1.268   9.411   2.352
  451POPC   CN223402   1.062   9.514   2.291
  451POPC   CN323403   1.244   9.503   2.137
  451POPC   NTM23404   1.172   9.431   2.242
  451POPC    CA23405   1.125   9.302   2.185
  451POPC    CB23406   1.045   9.201   2.271
  451POPC    OA23407   1.111   9.158   2.390
  451POPC     P23408   1.033   9.048   2.470
  451POPC    OB23409   0.983   8.953   2.369
  451POPC    OC23410   1.129   9.008   2.572
  451POPC    OD23411   0.918   9.138   2.528
  451POPC    CC23412   0.963   9.210   2.642
  451POPC    CD23413   0.864   9.317   2.691
  451POPC    OE23414   0.924   9.415   2.778
  451POPC   C1A23415   0.916   9.544   2.746
  451POPC    OF23416   0.851   9.581   2.648
  451POPC   C1B23417   0.991   9.629   2.840
  451POPC   C1C23418   0.904   9.688   2.951
  451POPC   C1D23419   0.990   9.783   3.036
  451POPC   C1E23420   0.907   9.875   3.124
  451POPC   C1F23421   0.849   9.807   3.248
  451POPC   C1G23422   0.763   9.906   3.325
  451POPC   C1H23423   0.713   9.850   3.459
  451POPC   C1I23424   0.821   9.852   3.567
  451POPC   C1J23425   0.824   9.755   3.658
  451POPC   C1K23426   0.722   9.640   3.649
  451POPC   C1L23427   0.696   9.579   3.786
  451POPC   C1M23428   0.601   9.460   3.772
  451POPC   C1N23429   0.572   9.394   3.907
  451POPC   C1O23430   0.484   9.271   3.888
  451POPC   C1P23431   0.455   9.202   4.021
  451POPC   C1Q23432   0.370   9.077   3.997
  451POPC   C1R23433   0.337   9.006   4.129
  451POPC    CE23434   0.740   9.243   2.743
  451POPC    OG23435   0.763   9.144   2.845
  451POPC   C2A23436   0.660   9.071   2.885
  451POPC    OH23437   0.551   9.079   2.827
  451POPC   C2B23438   0.689   8.979   2.998
  451POPC   C2C23439   0.753   9.045   3.121
  451POPC   C2D23440   0.663   9.150   3.188
  451POPC   C2E23441   0.729   9.209   3.313
  451POPC   C2F23442   0.737   9.105   3.426
  451POPC   C2G23443   0.823   9.154   3.543
  451POPC   C2H23444   0.830   9.043   3.649
  451POPC   C2I23445   0.937   9.068   3.755
  451POPC   C2J23446   0.904   9.182   3.852
  451POPC   C2K23447   1.014   9.192   3.957
  451POPC   C2L23448   0.985   9.302   4.060
  451POPC   C2M23449   1.099   9.310   4.162
  451POPC   C2N23450   1.074   9.421   4.264
  451POPC   C2O23451   1.187   9.428   4.366
  451POPC   C2P23452   1.160   9.537   4.470
  452POPC   CN123453   0.819  10.530   2.541
  452POPC   CN223454   0.608  10.451   2.471
  452POPC   CN323455   0.787  10.470   2.313
  452POPC   NTM23456   0.753  10.435   2.451
  452POPC    CA23457   0.802  10.300   2.489
  452POPC    CB23458   0.754  10.174   2.413
  452POPC    OA23459   0.613  10.158   2.408
  452POPC     P23460   0.564  10.035   2.323
  452POPC    OB23461   0.422  10.054   2.292
  452POPC    OC23462   0.663  10.015   2.216
  452POPC    OD23463   0.583   9.920   2.427
  452POPC    CC23464   0.494   9.927   2.539
  452POPC    CD23465   0.542   9.840   2.656
  452POPC    OE23466   0.447   9.827   2.766
  452POPC   C1A23467   0.361   9.726   2.770
  452POPC    OF23468   0.339   9.657   2.669
  452POPC   C1B23469   0.294   9.713   2.901
  452POPC   C1C23470   0.391   9.657   3.005
  452POPC   C1D23471   0.332   9.652   3.146
  452POPC   C1E23472   0.442   9.618   3.247
  452POPC   C1F23473   0.390   9.611   3.390
  452POPC   C1G23474   0.314   9.481   3.418
  452POPC   C1H23475   0.260   9.474   3.561
  452POPC   C1I23476   0.141   9.567   3.583
  452POPC   C1J23477   0.075   9.567   3.699
  452POPC   C1K23478   0.118   9.474   3.814
  452POPC   C1L23479   0.005   9.464   3.916
  452POPC   C1M23480   0.046   9.387   4.041
  452POPC   C1N23481  16.916   9.393   4.144
  452POPC   C1O23482  16.951   9.326   4.277
  452POPC   C1P23483  16.967   9.174   4.265
  452POPC   C1Q23484   0.011   9.108   4.401
  452POPC   C1R23485   0.147   9.147   4.459
  452POPC    CE23486   0.677   9.897   2.702
  452POPC    OG23487   0.675  10.034   2.746
  452POPC   C2A23488   0.784  10.080   2.806
  452POPC    OH23489   0.891  10.019   2.800
  452POPC   C2B23490   0.766  10.216   2.862
  452POPC   C2C23491   0.732  10.213   3.011
  452POPC   C2D23492   0.701  10.354   3.062
  452POPC   C2E23493   0.672  10.357   3.212
  452POPC   C2F23494   0.799  10.339   3.296
  452POPC   C2G23495   0.767  10.342   3.445
  452POPC   C2H23496   0.896  10.338   3.528
  452POPC   C2I23497   0.870  10.340   3.679
  452POPC   C2J23498   0.810  10.208   3.729
  452POPC   C2K23499   0.798  10.209   3.881
  452POPC   C2L23500   0.756  10.071   3.934
  452POPC   C2M23501   0.755  10.071   4.087
  452POPC   C2N23502   0.724   9.933   4.145
  452POPC   C2O23503   0.835   9.831   4.118
  452POPC   C2P23504   0.799   9.695   4.176
  453POPC   CN123505   1.215  10.934   2.011
  453POPC   CN223506   1.015  11.046   1.948
  453POPC   CN323507   1.006  10.826   2.040
  453POPC   NTM23508   1.074  10.956   2.047
  453POPC    CA23509   1.071  11.016   2.183
  453POPC    CB23510   0.936  11.045   2.253
  453POPC    OA23511   0.860  10.928   2.288
  453POPC     P23512   0.712  10.965   2.330
  453POPC    OB23513   0.663  11.053   2.222
  453POPC    OC23514   0.649  10.834   2.354
  453POPC    OD23515   0.744  11.043   2.462
  453POPC    CC23516   0.757  10.953   2.571
  453POPC    CD23517   0.832  11.008   2.694
  453POPC    OE23518   0.864  10.905   2.791
  453POPC   C1A23519   0.953  10.809   2.766
  453POPC    OF23520   1.001  10.794   2.653
  453POPC   C1B23521   0.968  10.716   2.880
  453POPC   C1C23522   1.042  10.782   2.997
  453POPC   C1D23523   1.044  10.695   3.122
  453POPC   C1E23524   1.100  10.777   3.238
  453POPC   C1F23525   1.097  10.701   3.371
  453POPC   C1G23526   1.150  10.792   3.481
  453POPC   C1H23527   1.157  10.721   3.616
  453POPC   C1I23528   1.200  10.819   3.725
  453POPC   C1J23529   1.168  10.796   3.852
  453POPC   C1K23530   1.092  10.669   3.890
  453POPC   C1L23531   1.004  10.692   4.013
  453POPC   C1M23532   0.943  10.560   4.062
  453POPC   C1N23533   0.849  10.585   4.179
  453POPC   C1O23534   0.790  10.454   4.231
  453POPC   C1P23535   0.680  10.476   4.336
  453POPC   C1Q23536   0.731  10.543   4.463
  453POPC   C1R23537   0.618  10.564   4.563
  453POPC    CE23538   0.747  11.124   2.747
  453POPC    OG23539   0.611  11.091   2.784
  453POPC   C2A23540   0.542  11.184   2.849
  453POPC    OH23541   0.592  11.292   2.880
  453POPC   C2B23542   0.404  11.143   2.883
  453POPC   C2C23543   0.393  11.101   3.030
  453POPC   C2D23544   0.250  11.060   3.064
  453POPC   C2E23545   0.240  11.018   3.211
  453POPC   C2F23546   0.096  10.985   3.249
  453POPC   C2G23547   0.080  10.945   3.396
  453POPC   C2H23548   0.111  11.062   3.491
  453POPC   C2I23549   0.077  11.029   3.637
  453POPC   C2J23550   0.170  10.924   3.699
  453POPC   C2K23551   0.131  10.891   3.843
  453POPC   C2L23552   0.146  11.011   3.938
  453POPC   C2M23553   0.106  10.974   4.081
  453POPC   C2N23554   0.119  11.096   4.172
  453POPC   C2O23555   0.077  11.066   4.317
  453POPC   C2P23556   0.175  10.972   4.388
  454POPC   CN123557   0.682  11.755   2.771
  454POPC   CN223558   0.785  11.548   2.820
  454POPC   CN323559   0.589  11.606   2.935
  454POPC   NTM23560   0.655  11.614   2.804
  454POPC    CA23561   0.580  11.543   2.698
  454POPC    CB23562   0.434  11.580   2.664
  454POPC    OA23563   0.411  11.710   2.610
  454POPC     P23564   0.256  11.738   2.592
  454POPC    OB23565   0.254  11.856   2.505
  454POPC    OC23566   0.187  11.614   2.553
  454POPC    OD23567   0.222  11.779   2.740
  454POPC    CC23568   0.248  11.916   2.768
  454POPC    CD23569   0.216  11.952   2.914
  454POPC    OE23570   0.210  12.096   2.939
  454POPC   C1A23571   0.141  12.134   3.047
  454POPC    OF23572   0.048  12.065   3.089
  454POPC   C1B23573   0.169  12.273   3.087
  454POPC   C1C23574   0.267  12.281   3.205
  454POPC   C1D23575   0.198  12.247   3.338
  454POPC   C1E23576   0.297  12.257   3.454
  454POPC   C1F23577   0.226  12.240   3.588
  454POPC   C1G23578   0.328  12.239   3.702
  454POPC   C1H23579   0.260  12.232   3.839
  454POPC   C1I23580   0.365  12.216   3.949
  454POPC   C1J23581   0.352  12.275   4.067
  454POPC   C1K23582   0.230  12.363   4.098
  454POPC   C1L23583   0.206  12.368   4.249
  454POPC   C1M23584   0.089  12.460   4.283
  454POPC   C1N23585   0.064  12.470   4.433
  454POPC   C1O23586   0.014  12.338   4.493
  454POPC   C1P23587  16.973  12.352   4.644
  454POPC   C1Q23588  16.922  12.222   4.706
  454POPC   C1R23589  16.782  12.183   4.658
  454POPC    CE23590   0.318  11.872   2.998
  454POPC    OG23591   0.303  11.886   3.140
  454POPC   C2A23592   0.405  11.849   3.216
  454POPC    OH23593   0.509  11.803   3.167
  454POPC   C2B23594   0.380  11.879   3.358
  454POPC   C2C23595   0.457  11.795   3.459
  454POPC   C2D23596   0.421  11.844   3.599
  454POPC   C2E23597   0.498  11.775   3.710
  454POPC   C2F23598   0.461  11.841   3.843
  454POPC   C2G23599   0.539  11.783   3.961
  454POPC   C2H23600   0.507  11.863   4.088
  454POPC   C2I23601   0.587  11.812   4.207
  454POPC   C2J23602   0.567  11.903   4.328
  454POPC   C2K23603   0.652  11.855   4.446
  454POPC   C2L23604   0.643  11.948   4.568
  454POPC   C2M23605   0.704  12.086   4.542
  454POPC   C2N23606   0.699  12.176   4.665
  454POPC   C2O23607   0.791  12.126   4.777
  454POPC   C2P23608   0.786  12.220   4.898
  455POPC   CN123609   0.813  13.013   2.429
  455POPC   CN223610   0.795  12.888   2.629
  455POPC   CN323611   0.617  12.885   2.469
  455POPC   NTM23612   0.763  12.888   2.486
  455POPC    CA23613   0.833  12.778   2.414
  455POPC    CB23614   0.797  12.630   2.441
  455POPC    OA23615   0.817  12.582   2.575
  455POPC     P23616   0.787  12.428   2.588
  455POPC    OB23617   0.803  12.364   2.457
  455POPC    OC23618   0.857  12.374   2.705
  455POPC    OD23619   0.632  12.436   2.616
  455POPC    CC23620   0.604  12.483   2.748
  455POPC    CD23621   0.465  12.439   2.799
  455POPC    OE23622   0.412  12.512   2.913
  455POPC   C1A23623   0.370  12.637   2.900
  455POPC    OF23624   0.373  12.694   2.790
  455POPC   C1B23625   0.321  12.698   3.026
  455POPC   C1C23626   0.169  12.695   3.038
  455POPC   C1D23627   0.121  12.742   3.176
  455POPC   C1E23628   0.155  12.640   3.284
  455POPC   C1F23629   0.097  12.675   3.421
  455POPC   C1G23630   0.179  12.779   3.499
  455POPC   C1H23631   0.126  12.799   3.641
  455POPC   C1I23632   0.137  12.671   3.726
  455POPC   C1J23633   0.133  12.676   3.859
  455POPC   C1K23634   0.116  12.809   3.933
  455POPC   C1L23635   0.189  12.804   4.068
  455POPC   C1M23636   0.174  12.934   4.147
  455POPC   C1N23637   0.033  12.953   4.204
  455POPC   C1O23638   0.020  13.086   4.279
  455POPC   C1P23639   0.105  13.091   4.407
  455POPC   C1Q23640   0.106  13.229   4.472
  455POPC   C1R23641  16.952  13.269   4.527
  455POPC    CE23642   0.478  12.287   2.822
  455POPC    OG23643   0.584  12.250   2.912
  455POPC   C2A23644   0.604  12.122   2.937
  455POPC    OH23645   0.558  12.035   2.862
  455POPC   C2B23646   0.705  12.100   3.044
  455POPC   C2C23647   0.648  12.138   3.181
  455POPC   C2D23648   0.752  12.119   3.292
  455POPC   C2E23649   0.694  12.163   3.426
  455POPC   C2F23650   0.791  12.138   3.542
  455POPC   C2G23651   0.727  12.183   3.673
  455POPC   C2H23652   0.813  12.149   3.795
  455POPC   C2I23653   0.738  12.188   3.921
  455POPC   C2J23654   0.806  12.146   4.052
  455POPC   C2K23655   0.934  12.224   4.082
  455POPC   C2L23656   0.980  12.193   4.224
  455POPC   C2M23657   1.102  12.276   4.263
  455POPC   C2N23658   1.138  12.253   4.410
  455POPC   C2O23659   1.255  12.342   4.452
  455POPC   C2P23660   1.288  12.324   4.600
  456POPC   CN123661   1.508  12.604   2.868
  456POPC   CN223662   1.577  12.775   3.019
  456POPC   CN323663   1.677  12.763   2.806
  456POPC   NTM23664   1.550  12.745   2.878
  456POPC    CA23665   1.445  12.839   2.831
  456POPC    CB23666   1.394  12.837   2.684
  456POPC    OA23667   1.336  12.715   2.637
  456POPC     P23668   1.180  12.728   2.614
  456POPC    OB23669   1.152  12.861   2.556
  456POPC    OC23670   1.144  12.607   2.540
  456POPC    OD23671   1.131  12.720   2.763
  456POPC    CC23672   1.102  12.587   2.807
  456POPC    CD23673   1.046  12.582   2.950
  456POPC    OE23674   1.045  12.450   3.012
  456POPC   C1A23675   1.152  12.410   3.079
  456POPC    OF23676   1.264  12.449   3.044
  456POPC   C1B23677   1.127  12.297   3.172
  456POPC   C1C23678   1.087  12.344   3.313
  456POPC   C1D23679   1.194  12.431   3.379
  456POPC   C1E23680   1.158  12.473   3.522
  456POPC   C1F23681   1.178  12.363   3.627
  456POPC   C1G23682   1.324  12.319   3.637
  456POPC   C1H23683   1.348  12.226   3.756
  456POPC   C1I23684   1.488  12.165   3.748
  456POPC   C1J23685   1.564  12.151   3.857
  456POPC   C1K23686   1.516  12.199   3.994
  456POPC   C1L23687   1.638  12.232   4.081
  456POPC   C1M23688   1.596  12.281   4.220
  456POPC   C1N23689   1.720  12.302   4.307
  456POPC   C1O23690   1.682  12.347   4.448
  456POPC   C1P23691   1.806  12.365   4.535
  456POPC   C1Q23692   1.773  12.407   4.679
  456POPC   C1R23693   1.702  12.296   4.757
  456POPC    CE23694   0.908  12.650   2.945
  456POPC    OG23695   0.849  12.670   3.075
  456POPC   C2A23696   0.724  12.713   3.079
  456POPC    OH23697   0.667  12.756   2.978
  456POPC   C2B23698   0.668  12.714   3.216
  456POPC   C2C23699   0.621  12.574   3.256
  456POPC   C2D23700   0.544  12.572   3.389
  456POPC   C2E23701   0.629  12.608   3.511
  456POPC   C2F23702   0.544  12.595   3.638
  456POPC   C2G23703   0.623  12.633   3.763
  456POPC   C2H23704   0.536  12.614   3.888
  456POPC   C2I23705   0.606  12.655   4.018
  456POPC   C2J23706   0.731  12.570   4.046
  456POPC   C2K23707   0.790  12.592   4.186
  456POPC   C2L23708   0.698  12.536   4.296
  456POPC   C2M23709   0.767  12.529   4.432
  456POPC   C2N23710   0.804  12.667   4.488
  456POPC   C2O23711   0.869  12.659   4.627
  456POPC   C2P23712   0.771  12.612   4.735
  457POPC   CN123713  16.983  16.144   2.056
  457POPC   CN223714  16.982  15.908   2.033
  457POPC   CN323715  16.970  16.009   2.250
  457POPC   NTM23716  16.926  16.021   2.110
  457POPC    CA23717  16.778  16.028   2.101
  457POPC    CB23718  16.691  15.914   2.158
  457POPC    OA23719  16.709  15.787   2.096
  457POPC     P23720  16.691  15.670   2.199
  457POPC    OB23721  16.585  15.701   2.295
  457POPC    OC23722  16.696  15.545   2.123
  457POPC    OD23723  16.829  15.680   2.272
  457POPC    CC23724  16.830  15.581   2.374
  457POPC    CD23725  16.969  15.540   2.425
  457POPC    OE23726  16.960  15.433   2.523
  457POPC   C1A23727   0.082  15.357   2.551
  457POPC    OF23728   0.183  15.361   2.479
  457POPC   C1B23729   0.056  15.264   2.663
  457POPC   C1C23730   0.176  15.255   2.758
  457POPC   C1D23731   0.142  15.182   2.888
  457POPC   C1E23732   0.126  15.031   2.869
  457POPC   C1F23733   0.077  14.969   3.000
  457POPC   C1G23734   0.071  14.816   2.997
  457POPC   C1H23735   0.210  14.753   2.998
  457POPC   C1I23736   0.203  14.602   3.020
  457POPC   C1J23737   0.227  14.549   3.140
  457POPC   C1K23738   0.266  14.637   3.259
  457POPC   C1L23739   0.219  14.577   3.391
  457POPC   C1M23740   0.262  14.669   3.506
  457POPC   C1N23741   0.231  14.607   3.643
  457POPC   C1O23742   0.290  14.695   3.753
  457POPC   C1P23743   0.267  14.635   3.891
  457POPC   C1Q23744   0.321  14.729   3.999
  457POPC   C1R23745   0.288  14.677   4.139
  457POPC    CE23746   0.056  15.669   2.473
  457POPC    OG23747  16.968  15.744   2.574
  457POPC   C2A23748   0.039  15.856   2.618
  457POPC    OH23749   0.136  15.907   2.561
  457POPC   C2B23750  16.945  15.920   2.727
  457POPC   C2C23751   0.003  15.864   2.863
  457POPC   C2D23752  16.902  15.927   2.975
  457POPC   C2E23753  16.949  15.878   3.112
  457POPC   C2F23754  16.865  15.940   3.223
  457POPC   C2G23755  16.925  15.909   3.361
  457POPC   C2H23756  16.846  15.978   3.472
  457POPC   C2I23757  16.716  15.905   3.508
  457POPC   C2J23758  16.742  15.789   3.604
  457POPC   C2K23759  16.612  15.719   3.643
  457POPC   C2L23760  16.631  15.620   3.759
  457POPC   C2M23761  16.722  15.501   3.723
  457POPC   C2N23762  16.740  15.406   3.841
  457POPC   C2O23763  16.821  15.468   3.955
  457POPC   C2P23764  16.827  15.376   4.077
  458POPC   CN123765   0.116  16.668   1.546
  458POPC   CN223766   0.302  16.817   1.563
  458POPC   CN323767   0.098  16.893   1.470
  458POPC   NTM23768   0.156  16.807   1.574
  458POPC    CA23769   0.107  16.855   1.706
  458POPC    CB23770   0.150  16.785   1.837
  458POPC    OA23771   0.111  16.648   1.850
  458POPC     P23772   0.221  16.561   1.924
  458POPC    OB23773   0.176  16.423   1.903
  458POPC    OC23774   0.352  16.610   1.880
  458POPC    OD23775   0.192  16.610   2.070
  458POPC    CC23776   0.087  16.539   2.134
  458POPC    CD23777   0.066  16.591   2.278
  458POPC    OE23778   0.015  16.491   2.371
  458POPC   C1A23779   0.104  16.441   2.456
  458POPC    OF23780   0.224  16.439   2.424
  458POPC   C1B23781   0.045  16.366   2.569
  458POPC   C1C23782   0.115  16.402   2.700
  458POPC   C1D23783   0.042  16.343   2.821
  458POPC   C1E23784   0.108  16.393   2.950
  458POPC   C1F23785   0.028  16.358   3.075
  458POPC   C1G23786   0.097  16.421   3.196
  458POPC   C1H23787   0.015  16.412   3.324
  458POPC   C1I23788   0.086  16.491   3.435
  458POPC   C1J23789   0.054  16.472   3.563
  458POPC   C1K23790  16.929  16.371   3.600
  458POPC   C1L23791  16.940  16.332   3.747
  458POPC   C1M23792  16.839  16.222   3.780
  458POPC   C1N23793  16.840  16.188   3.929
  458POPC   C1O23794  16.746  16.072   3.957
  458POPC   C1P23795  16.735  16.048   4.108
  458POPC   C1Q23796  16.648  15.927   4.141
  458POPC   C1R23797  16.719  15.795   4.111
  458POPC    CE23798  16.981  16.728   2.268
  458POPC    OG23799   0.014  16.807   2.387
  458POPC   C2A23800  16.961  16.934   2.383
  458POPC    OH23801  16.921   0.003   2.279
  458POPC   C2B23802  16.980   0.018   2.514
  458POPC   C2C23803  16.875   0.126   2.538
  458POPC   C2D23804  16.891   0.197   2.673
  458POPC   C2E23805  16.839   0.113   2.790
  458POPC   C2F23806  16.831   0.199   2.916
  458POPC   C2G23807  16.762   0.121   3.029
  458POPC   C2H23808  16.735   0.208   3.152
  458POPC   C2I23809  16.863   0.250   3.225
  458POPC   C2J23810  16.829   0.340   3.344
  458POPC   C2K23811  16.953   0.380   3.425
  458POPC   C2L23812   0.067   0.467   3.344
  458POPC   C2M23813   0.188   0.506   3.428
  458POPC   C2N23814   0.282   0.597   3.348
  458POPC   C2O23815   0.409   0.632   3.426
  458POPC   C2P23816   0.501   0.510   3.445
  459POPC   CN123817   0.502  16.538   2.199
  459POPC   CN223818   0.425  16.728   2.320
  459POPC   CN323819   0.644  16.641   2.356
  459POPC   NTM23820   0.542  16.667   2.255
  459POPC    CA23821   0.592  16.753   2.145
  459POPC    CB23822   0.665  16.886   2.177
  459POPC    OA23823   0.594  16.983   2.255
  459POPC     P23824   0.694   0.107   2.315
  459POPC    OB23825   0.817   0.114   2.235
  459POPC    OC23826   0.612   0.224   2.348
  459POPC    OD23827   0.727   0.028   2.447
  459POPC    CC23828   0.619   0.033   2.541
  459POPC    CD23829   0.630  16.918   2.658
  459POPC    OE23830   0.505  16.910   2.730
  459POPC   C1A23831   0.425  16.806   2.709
  459POPC    OF23832   0.457  16.716   2.631
  459POPC   C1B23833   0.293  16.820   2.776
  459POPC   C1C23834   0.302  16.796   2.927
  459POPC   C1D23835   0.163  16.814   2.990
  459POPC   C1E23836   0.165  16.789   3.141
  459POPC   C1F23837   0.220  16.906   3.222
  459POPC   C1G23838   0.222  16.869   3.370
  459POPC   C1H23839   0.259   0.004   3.459
  459POPC   C1I23840   0.272  16.944   3.605
  459POPC   C1J23841   0.238   0.043   3.703
  459POPC   C1K23842   0.184   0.182   3.669
  459POPC   C1L23843   0.200   0.283   3.782
  459POPC   C1M23844   0.343   0.335   3.799
  459POPC   C1N23845   0.352   0.426   3.922
  459POPC   C1O23846   0.491   0.484   3.946
  459POPC   C1P23847   0.528   0.591   3.842
  459POPC   C1Q23848   0.666   0.650   3.867
  459POPC   C1R23849   0.779   0.550   3.842
  459POPC    CE23850   0.754  16.960   2.738
  459POPC    OG23851   0.818  16.859   2.818
  459POPC   C2A23852   0.944  16.882   2.852
  459POPC    OH23853   1.010  16.970   2.797
  459POPC   C2B23854   0.998  16.783   2.947
  459POPC   C2C23855   0.996  16.833   3.092
  459POPC   C2D23856   1.071  16.734   3.181
  459POPC   C2E23857   1.097  16.788   3.321
  459POPC   C2F23858   0.978  16.768   3.416
  459POPC   C2G23859   1.002  16.836   3.551
  459POPC   C2H23860   1.119  16.778   3.632
  459POPC   C2I23861   1.085  16.643   3.697
  459POPC   C2J23862   1.202  16.590   3.781
  459POPC   C2K23863   1.237  16.679   3.901
  459POPC   C2L23864   1.130  16.675   4.011
  459POPC   C2M23865   1.151  16.784   4.116
  459POPC   C2N23866   1.282  16.769   4.195
  459POPC   C2O23867   1.294  16.882   4.298
  459POPC   C2P23868   1.428  16.875   4.371
  460POPC   CN123869   1.579   0.893   2.034
  460POPC   CN223870   1.507   0.823   1.817
  460POPC   CN323871   1.705   0.951   1.844
  460POPC   NTM23872   1.624   0.844   1.903
  460POPC    CA23873   1.710   0.723   1.912
  460POPC    CB23874   1.652   0.591   1.969
  460POPC    OA23875   1.610   0.598   2.105
  460POPC     P23876   1.507   0.485   2.140
  460POPC    OB23877   1.402   0.497   2.039
  460POPC    OC23878   1.589   0.363   2.153
  460POPC    OD23879   1.461   0.542   2.279
  460POPC    CC23880   1.377   0.657   2.262
  460POPC    CD23881   1.348   0.742   2.387
  460POPC    OE23882   1.463   0.818   2.435
  460POPC   C1A23883   1.478   0.944   2.394
  460POPC    OF23884   1.417   0.987   2.296
  460POPC   C1B23885   1.586   1.016   2.465
  460POPC   C1C23886   1.530   1.105   2.576
  460POPC   C1D23887   1.643   1.175   2.652
  460POPC   C1E23888   1.587   1.266   2.762
  460POPC   C1F23889   1.697   1.329   2.846
  460POPC   C1G23890   1.772   1.226   2.932
  460POPC   C1H23891   1.879   1.288   3.021
  460POPC   C1I23892   1.821   1.375   3.133
  460POPC   C1J23893   1.890   1.395   3.245
  460POPC   C1K23894   2.027   1.330   3.265
  460POPC   C1L23895   2.128   1.431   3.319
  460POPC   C1M23896   2.259   1.360   3.356
  460POPC   C1N23897   2.365   1.462   3.400
  460POPC   C1O23898   2.489   1.395   3.460
  460POPC   C1P23899   2.571   1.311   3.361
  460POPC   C1Q23900   2.644   1.396   3.257
  460POPC   C1R23901   2.732   1.309   3.169
  460POPC    CE23902   1.284   0.647   2.490
  460POPC    OG23903   1.222   0.712   2.603
  460POPC   C2A23904   1.186   0.634   2.705
  460POPC    OH23905   1.202   0.512   2.702
  460POPC   C2B23906   1.126   0.711   2.817
  460POPC   C2C23907   1.162   0.651   2.953
  460POPC   C2D23908   1.109   0.737   3.068
  460POPC   C2E23909   1.137   0.672   3.203
  460POPC   C2F23910   1.098   0.765   3.318
  460POPC   C2G23911   1.119   0.696   3.454
  460POPC   C2H23912   1.104   0.793   3.571
  460POPC   C2I23913   0.961   0.844   3.593
  460POPC   C2J23914   0.960   0.947   3.705
  460POPC   C2K23915   0.818   0.995   3.739
  460POPC   C2L23916   0.820   1.108   3.842
  460POPC   C2M23917   0.872   1.064   3.979
  460POPC   C2N23918   0.893   1.183   4.074
  460POPC   C2O23919   0.762   1.253   4.113
  460POPC   C2P23920   0.789   1.369   4.209
  461POPC   CN123921   0.735   0.970   1.926
  461POPC   CN223922   0.826   0.915   2.138
  461POPC   CN323923   0.869   1.128   2.045
  461POPC   NTM23924   0.767   1.023   2.059
  461POPC    CA23925   0.646   1.069   2.131
  461POPC    CB23926   0.561   1.189   2.080
  461POPC    OA23927   0.624   1.317   2.085
  461POPC     P23928   0.533   1.430   2.023
  461POPC    OB23929   0.608   1.557   2.017
  461POPC    OC23930   0.469   1.375   1.902
  461POPC    OD23931   0.425   1.436   2.137
  461POPC    CC23932   0.460   1.526   2.243
  461POPC    CD23933   0.365   1.523   2.364
  461POPC    OE23934   0.368   1.649   2.436
  461POPC   C1A23935   0.276   1.678   2.528
  461POPC    OF23936   0.179   1.604   2.545
  461POPC   C1B23937   0.300   1.806   2.597
  461POPC   C1C23938   0.387   1.789   2.722
  461POPC   C1D23939   0.414   1.925   2.786
  461POPC   C1E23940   0.495   1.911   2.916
  461POPC   C1F23941   0.524   2.050   2.973
  461POPC   C1G23942   0.607   2.049   3.102
  461POPC   C1H23943   0.526   2.045   3.232
  461POPC   C1I23944   0.472   1.906   3.269
  461POPC   C1J23945   0.374   1.892   3.357
  461POPC   C1K23946   0.311   2.015   3.424
  461POPC   C1L23947   0.248   1.977   3.558
  461POPC   C1M23948   0.174   2.096   3.620
  461POPC   C1N23949   0.104   2.058   3.751
  461POPC   C1O23950   0.202   2.028   3.864
  461POPC   C1P23951   0.128   1.981   3.990
  461POPC   C1Q23952   0.222   1.954   4.108
  461POPC   C1R23953   0.317   1.837   4.081
  461POPC    CE23954   0.401   1.395   2.444
  461POPC    OG23955   0.530   1.399   2.507
  461POPC   C2A23956   0.556   1.308   2.600
  461POPC    OH23957   0.490   1.204   2.607
  461POPC   C2B23958   0.678   1.336   2.679
  461POPC   C2C23959   0.642   1.405   2.811
  461POPC   C2D23960   0.767   1.453   2.885
  461POPC   C2E23961   0.723   1.512   3.019
  461POPC   C2F23962   0.835   1.585   3.093
  461POPC   C2G23963   0.778   1.636   3.225
  461POPC   C2H23964   0.869   1.736   3.296
  461POPC   C2I23965   0.796   1.786   3.420
  461POPC   C2J23966   0.858   1.910   3.483
  461POPC   C2K23967   0.766   1.959   3.595
  461POPC   C2L23968   0.809   2.094   3.650
  461POPC   C2M23969   0.710   2.139   3.758
  461POPC   C2N23970   0.749   2.275   3.817
  461POPC   C2O23971   0.650   2.316   3.925
  461POPC   C2P23972   0.688   2.451   3.985
  462POPC   CN123973   1.791   2.901   2.033
  462POPC   CN223974   1.777   2.917   1.798
  462POPC   CN323975   1.881   2.727   1.896
  462POPC   NTM23976   1.771   2.823   1.910
  462POPC    CA23977   1.637   2.758   1.907
  462POPC    CB23978   1.607   2.635   1.995
  462POPC    OA23979   1.636   2.649   2.135
  462POPC     P23980   1.636   2.510   2.209
  462POPC    OB23981   1.697   2.411   2.119
  462POPC    OC23982   1.696   2.544   2.338
  462POPC    OD23983   1.481   2.485   2.216
  462POPC    CC23984   1.418   2.568   2.314
  462POPC    CD23985   1.265   2.560   2.313
  462POPC    OE23986   1.198   2.665   2.388
  462POPC   C1A23987   1.182   2.788   2.340
  462POPC    OF23988   1.210   2.816   2.223
  462POPC   C1B23989   1.117   2.877   2.439
  462POPC   C1C23990   1.174   3.019   2.439
  462POPC   C1D23991   1.110   3.100   2.551
  462POPC   C1E23992   1.164   3.243   2.556
  462POPC   C1F23993   1.102   3.316   2.675
  462POPC   C1G23994   1.144   3.462   2.684
  462POPC   C1H23995   1.074   3.526   2.804
  462POPC   C1I23996   1.106   3.674   2.820
  462POPC   C1J23997   1.015   3.753   2.877
  462POPC   C1K23998   0.882   3.690   2.921
  462POPC   C1L23999   0.825   3.756   3.047
  462POPC   C1M24000   0.694   3.687   3.083
  462POPC   C1N24001   0.629   3.747   3.208
  462POPC   C1O24002   0.493   3.683   3.237
  462POPC   C1P24003   0.390   3.715   3.128
  462POPC   C1Q24004   0.256   3.647   3.155
  462POPC   C1R24005   0.154   3.682   3.047
  462POPC    CE24006   1.228   2.417   2.357
  462POPC    OG24007   1.274   2.382   2.488
  462POPC   C2A24008   1.235   2.266   2.539
  462POPC    OH24009   1.187   2.178   2.467
  462POPC   C2B24010   1.270   2.254   2.682
  462POPC   C2C24011   1.154   2.301   2.769
  462POPC   C2D24012   1.196   2.346   2.910
  462POPC   C2E24013   1.269   2.480   2.905
  462POPC   C2F24014   1.282   2.542   3.045
  462POPC   C2G24015   1.347   2.680   3.033
  462POPC   C2H24016   1.333   2.764   3.160
  462POPC   C2I24017   1.419   2.715   3.277
  462POPC   C2J24018   1.400   2.812   3.394
  462POPC   C2K24019   1.489   2.777   3.514
  462POPC   C2L24020   1.467   2.879   3.625
  462POPC   C2M24021   1.554   2.850   3.747
  462POPC   C2N24022   1.529   2.954   3.856
  462POPC   C2O24023   1.620   2.931   3.977
  462POPC   C2P24024   1.597   3.038   4.084
  463POPC   CN124025   0.885   3.087   2.198
  463POPC   CN224026   1.087   3.093   2.070
  463POPC   CN324027   0.924   2.923   2.031
  463POPC   NTM24028   0.943   3.065   2.065
  463POPC    CA24029   0.869   3.152   1.971
  463POPC    CB24030   0.905   3.157   1.820
  463POPC    OA24031   1.034   3.207   1.783
  463POPC     P24032   1.048   3.364   1.793
  463POPC    OB24033   1.142   3.409   1.689
  463POPC    OC24034   0.915   3.424   1.808
  463POPC    OD24035   1.116   3.374   1.932
  463POPC    CC24036   1.166   3.506   1.953
  463POPC    CD24037   1.242   3.527   2.085
  463POPC    OE24038   1.372   3.463   2.094
  463POPC   C1A24039   1.479   3.512   2.032
  463POPC    OF24040   1.472   3.615   1.964
  463POPC   C1B24041   1.604   3.438   2.063
  463POPC   C1C24042   1.680   3.499   2.181
  463POPC   C1D24043   1.603   3.485   2.313
  463POPC   C1E24044   1.670   3.558   2.429
  463POPC   C1F24045   1.579   3.549   2.552
  463POPC   C1G24046   1.643   3.610   2.676
  463POPC   C1H24047   1.544   3.601   2.792
  463POPC   C1I24048   1.606   3.645   2.925
  463POPC   C1J24049   1.557   3.593   3.037
  463POPC   C1K24050   1.442   3.493   3.028
  463POPC   C1L24051   1.356   3.497   3.154
  463POPC   C1M24052   1.238   3.400   3.145
  463POPC   C1N24053   1.154   3.399   3.273
  463POPC   C1O24054   1.089   3.535   3.301
  463POPC   C1P24055   1.009   3.530   3.431
  463POPC   C1Q24056   0.945   3.665   3.466
  463POPC   C1R24057   1.049   3.770   3.507
  463POPC    CE24058   1.147   3.480   2.196
  463POPC    OG24059   1.028   3.559   2.215
  463POPC   C2A24060   0.931   3.502   2.287
  463POPC    OH24061   0.927   3.380   2.302
  463POPC   C2B24062   0.826   3.597   2.330
  463POPC   C2C24063   0.867   3.664   2.461
  463POPC   C2D24064   0.761   3.757   2.520
  463POPC   C2E24065   0.639   3.681   2.572
  463POPC   C2F24066   0.548   3.774   2.653
  463POPC   C2G24067   0.425   3.702   2.708
  463POPC   C2H24068   0.321   3.668   2.600
  463POPC   C2I24069   0.250   3.793   2.545
  463POPC   C2J24070   0.149   3.851   2.645
  463POPC   C2K24071   0.086   3.982   2.594
  463POPC   C2L24072   0.001   3.966   2.467
  463POPC   C2M24073  16.856   3.885   2.490
  463POPC   C2N24074  16.779   3.869   2.359
  463POPC   C2O24075  16.651   3.786   2.377
  463POPC   C2P24076  16.544   3.859   2.460
  464POPC   CN124077   1.452   4.069   1.767
  464POPC   CN224078   1.412   4.227   1.941
  464POPC   CN324079   1.624   4.212   1.839
  464POPC   NTM24080   1.480   4.205   1.813
  464POPC    CA24081   1.443   4.306   1.710
  464POPC    CB24082   1.299   4.308   1.653
  464POPC    OA24083   1.197   4.320   1.752
  464POPC     P24084   1.055   4.320   1.689
  464POPC    OB24085   1.040   4.437   1.601
  464POPC    OC24086   1.035   4.184   1.635
  464POPC    OD24087   0.968   4.339   1.817
  464POPC    CC24088   0.979   4.471   1.870
  464POPC    CD24089   0.949   4.485   2.021
  464POPC    OE24090   1.054   4.439   2.111
  464POPC   C1A24091   1.166   4.510   2.126
  464POPC    OF24092   1.183   4.615   2.063
  464POPC   C1B24093   1.265   4.444   2.214
  464POPC   C1C24094   1.279   4.508   2.353
  464POPC   C1D24095   1.159   4.486   2.446
  464POPC   C1E24096   1.185   4.546   2.584
  464POPC   C1F24097   1.291   4.468   2.663
  464POPC   C1G24098   1.337   4.546   2.786
  464POPC   C1H24099   1.439   4.466   2.867
  464POPC   C1I24100   1.514   4.557   2.965
  464POPC   C1J24101   1.489   4.563   3.096
  464POPC   C1K24102   1.384   4.476   3.164
  464POPC   C1L24103   1.412   4.470   3.315
  464POPC   C1M24104   1.310   4.383   3.386
  464POPC   C1N24105   1.338   4.376   3.536
  464POPC   C1O24106   1.243   4.279   3.605
  464POPC   C1P24107   1.274   4.268   3.755
  464POPC   C1Q24108   1.183   4.167   3.826
  464POPC   C1R24109   1.211   4.023   3.782
  464POPC    CE24110   0.813   4.418   2.044
  464POPC    OG24111   0.700   4.494   1.996
  464POPC   C2A24112   0.584   4.430   1.990
  464POPC    OH24113   0.578   4.307   2.002
  464POPC   C2B24114   0.469   4.516   1.953
  464POPC   C2C24115   0.402   4.581   2.074
  464POPC   C2D24116   0.343   4.482   2.174
  464POPC   C2E24117   0.290   4.556   2.297
  464POPC   C2F24118   0.249   4.459   2.407
  464POPC   C2G24119   0.208   4.538   2.532
  464POPC   C2H24120   0.183   4.446   2.652
  464POPC   C2I24121   0.144   4.526   2.777
  464POPC   C2J24122   0.255   4.621   2.823
  464POPC   C2K24123   0.213   4.709   2.941
  464POPC   C2L24124   0.189   4.629   3.069
  464POPC   C2M24125   0.155   4.722   3.185
  464POPC   C2N24126   0.135   4.642   3.314
  464POPC   C2O24127   0.106   4.734   3.432
  464POPC   C2P24128   0.087   4.654   3.561
  465POPC   CN124129   0.497   4.806   1.257
  465POPC   CN224130   0.346   4.756   1.077
  465POPC   CN324131   0.267   4.752   1.301
  465POPC   NTM24132   0.359   4.820   1.208
  465POPC    CA24133   0.323   4.963   1.190
  465POPC    CB24134   0.335   5.064   1.307
  465POPC    OA24135   0.260   5.029   1.423
  465POPC     P24136   0.206   5.154   1.500
  465POPC    OB24137   0.160   5.247   1.396
  465POPC    OC24138   0.110   5.096   1.595
  465POPC    OD24139   0.338   5.206   1.567
  465POPC    CC24140   0.363   5.134   1.687
  465POPC    CD24141   0.500   5.160   1.752
  465POPC    OE24142   0.528   5.073   1.865
  465POPC   C1A24143   0.587   4.955   1.848
  465POPC    OF24144   0.620   4.915   1.736
  465POPC   C1B24145   0.604   4.881   1.975
  465POPC   C1C24146   0.740   4.906   2.039
  465POPC   C1D24147   0.747   4.833   2.174
  465POPC   C1E24148   0.885   4.846   2.238
  465POPC   C1F24149   0.893   4.772   2.372
  465POPC   C1G24150   0.811   4.841   2.481
  465POPC   C1H24151   0.824   4.768   2.615
  465POPC   C1I24152   0.760   4.851   2.726
  465POPC   C1J24153   0.719   4.795   2.840
  465POPC   C1K24154   0.732   4.644   2.862
  465POPC   C1L24155   0.634   4.593   2.968
  465POPC   C1M24156   0.672   4.638   3.110
  465POPC   C1N24157   0.571   4.587   3.212
  465POPC   C1O24158   0.608   4.625   3.356
  465POPC   C1P24159   0.734   4.552   3.404
  465POPC   C1Q24160   0.767   4.588   3.549
  465POPC   C1R24161   0.892   4.513   3.596
  465POPC    CE24162   0.506   5.310   1.785
  465POPC    OG24163   0.410   5.358   1.881
  465POPC   C2A24164   0.429   5.479   1.930
  465POPC    OH24165   0.525   5.550   1.896
  465POPC   C2B24166   0.331   5.517   2.034
  465POPC   C2C24167   0.375   5.464   2.171
  465POPC   C2D24168   0.291   5.524   2.283
  465POPC   C2E24169   0.329   5.466   2.419
  465POPC   C2F24170   0.261   5.544   2.531
  465POPC   C2G24171   0.282   5.475   2.666
  465POPC   C2H24172   0.225   5.559   2.780
  465POPC   C2I24173   0.240   5.484   2.912
  465POPC   C2J24174   0.206   5.571   3.033
  465POPC   C2K24175   0.227   5.490   3.161
  465POPC   C2L24176   0.224   5.577   3.286
  465POPC   C2M24177   0.263   5.493   3.408
  465POPC   C2N24178   0.277   5.580   3.533
  465POPC   C2O24179   0.323   5.499   3.654
  465POPC   C2P24180   0.216   5.402   3.705
  466POPC   CN124181   1.670   5.771   2.302
  466POPC   CN224182   1.513   5.932   2.222
  466POPC   CN324183   1.744   5.980   2.215
  466POPC   NTM24184   1.646   5.873   2.199
  466POPC    CA24185   1.664   5.815   2.064
  466POPC    CB24186   1.557   5.727   1.995
  466POPC    OA24187   1.443   5.798   1.948
  466POPC     P24188   1.370   5.720   1.832
  466POPC    OB24189   1.282   5.812   1.757
  466POPC    OC24190   1.466   5.640   1.756
  466POPC    OD24191   1.280   5.627   1.922
  466POPC    CC24192   1.170   5.701   1.975
  466POPC    CD24193   1.085   5.631   2.083
  466POPC    OE24194   0.952   5.691   2.094
  466POPC   C1A24195   0.851   5.616   2.138
  466POPC    OF24196   0.864   5.493   2.144
  466POPC   C1B24197   0.725   5.690   2.157
  466POPC   C1C24198   0.715   5.750   2.297
  466POPC   C1D24199   0.585   5.830   2.312
  466POPC   C1E24200   0.578   5.912   2.441
  466POPC   C1F24201   0.570   5.827   2.569
  466POPC   C1G24202   0.557   5.917   2.691
  466POPC   C1H24203   0.552   5.837   2.821
  466POPC   C1I24204   0.528   5.930   2.941
  466POPC   C1J24205   0.580   5.904   3.060
  466POPC   C1K24206   0.667   5.779   3.082
  466POPC   C1L24207   0.777   5.807   3.185
  466POPC   C1M24208   0.867   5.684   3.202
  466POPC   C1N24209   0.987   5.713   3.293
  466POPC   C1O24210   0.953   5.729   3.442
  466POPC   C1P24211   0.907   5.597   3.506
  466POPC   C1Q24212   0.894   5.607   3.658
  466POPC   C1R24213   0.781   5.700   3.703
  466POPC    CE24214   1.167   5.635   2.212
  466POPC    OG24215   1.268   5.534   2.228
  466POPC   C2A24216   1.360   5.558   2.322
  466POPC    OH24217   1.377   5.672   2.366
  466POPC   C2B24218   1.445   5.441   2.352
  466POPC   C2C24219   1.468   5.426   2.503
  466POPC   C2D24220   1.557   5.306   2.534
  466POPC   C2E24221   1.562   5.274   2.684
  466POPC   C2F24222   1.638   5.378   2.766
  466POPC   C2G24223   1.639   5.339   2.914
  466POPC   C2H24224   1.730   5.431   2.995
  466POPC   C2I24225   1.730   5.393   3.144
  466POPC   C2J24226   1.832   5.478   3.220
  466POPC   C2K24227   1.838   5.443   3.369
  466POPC   C2L24228   1.715   5.492   3.446
  466POPC   C2M24229   1.729   5.461   3.595
  466POPC   C2N24230   1.610   5.516   3.674
  466POPC   C2O24231   1.618   5.485   3.824
  466POPC   C2P24232   1.732   5.559   3.894
  467POPC   CN124233   0.776   6.047   1.674
  467POPC   CN224234   0.878   5.917   1.845
  467POPC   CN324235   0.849   5.827   1.627
  467POPC   NTM24236   0.882   5.950   1.702
  467POPC    CA24237   1.016   5.996   1.658
  467POPC    CB24238   1.082   6.122   1.718
  467POPC    OA24239   1.015   6.246   1.694
  467POPC     P24240   1.082   6.364   1.776
  467POPC    OB24241   1.225   6.338   1.794
  467POPC    OC24242   1.036   6.482   1.703
  467POPC    OD24243   1.001   6.342   1.908
  467POPC    CC24244   0.870   6.400   1.901
  467POPC    CD24245   0.794   6.398   2.035
  467POPC    OE24246   0.659   6.451   2.026
  467POPC   C1A24247   0.559   6.377   1.978
  467POPC    OF24248   0.582   6.278   1.906
  467POPC   C1B24249   0.427   6.441   1.997
  467POPC   C1C24250   0.326   6.349   2.069
  467POPC   C1D24251   0.370   6.307   2.210
  467POPC   C1E24252   0.380   6.424   2.308
  467POPC   C1F24253   0.425   6.375   2.445
  467POPC   C1G24254   0.443   6.493   2.541
  467POPC   C1H24255   0.490   6.447   2.679
  467POPC   C1I24256   0.519   6.568   2.768
  467POPC   C1J24257   0.501   6.560   2.899
  467POPC   C1K24258   0.453   6.431   2.963
  467POPC   C1L24259   0.493   6.426   3.111
  467POPC   C1M24260   0.442   6.299   3.178
  467POPC   C1N24261   0.479   6.299   3.326
  467POPC   C1O24262   0.432   6.170   3.393
  467POPC   C1P24263   0.473   6.168   3.541
  467POPC   C1Q24264   0.432   6.037   3.610
  467POPC   C1R24265   0.507   5.916   3.555
  467POPC    CE24266   0.886   6.477   2.130
  467POPC    OG24267   0.858   6.467   2.271
  467POPC   C2A24268   0.929   6.546   2.351
  467POPC    OH24269   1.007   6.630   2.306
  467POPC   C2B24270   0.888   6.535   2.493
  467POPC   C2C24271   0.956   6.423   2.572
  467POPC   C2D24272   0.900   6.425   2.714
  467POPC   C2E24273   0.955   6.315   2.805
  467POPC   C2F24274   0.892   6.331   2.943
  467POPC   C2G24275   0.943   6.229   3.046
  467POPC   C2H24276   0.882   6.261   3.182
  467POPC   C2I24277   0.931   6.165   3.290
  467POPC   C2J24278   0.878   6.206   3.428
  467POPC   C2K24279   0.933   6.115   3.537
  467POPC   C2L24280   0.891   6.161   3.676
  467POPC   C2M24281   0.952   6.071   3.784
  467POPC   C2N24282   0.921   6.119   3.926
  467POPC   C2O24283   0.773   6.108   3.961
  467POPC   C2P24284   0.748   6.157   4.104
  468POPC   CN124285   1.256   6.827   1.676
  468POPC   CN224286   1.348   6.982   1.519
  468POPC   CN324287   1.198   6.813   1.446
  468POPC   NTM24288   1.228   6.906   1.556
  468POPC    CA24289   1.109   6.994   1.573
  468POPC    CB24290   1.104   7.099   1.688
  468POPC    OA24291   1.212   7.192   1.694
  468POPC     P24292   1.183   7.333   1.630
  468POPC    OB24293   1.312   7.402   1.620
  468POPC    OC24294   1.100   7.309   1.511
  468POPC    OD24295   1.092   7.392   1.743
  468POPC    CC24296   1.163   7.434   1.859
  468POPC    CD24297   1.065   7.461   1.975
  468POPC    OE24298   1.124   7.535   2.086
  468POPC   C1A24299   1.097   7.665   2.097
  468POPC    OF24300   1.061   7.732   1.999
  468POPC   C1B24301   1.139   7.723   2.227
  468POPC   C1C24302   1.032   7.706   2.335
  468POPC   C1D24303   1.074   7.781   2.461
  468POPC   C1E24304   0.979   7.754   2.578
  468POPC   C1F24305   1.019   7.841   2.698
  468POPC   C1G24306   0.945   7.804   2.827
  468POPC   C1H24307   0.794   7.829   2.822
  468POPC   C1I24308   0.730   7.790   2.956
  468POPC   C1J24309   0.607   7.740   2.959
  468POPC   C1K24310   0.530   7.722   2.828
  468POPC   C1L24311   0.451   7.591   2.829
  468POPC   C1M24312   0.392   7.566   2.690
  468POPC   C1N24313   0.338   7.423   2.679
  468POPC   C1O24314   0.299   7.393   2.534
  468POPC   C1P24315   0.263   7.246   2.517
  468POPC   C1Q24316   0.237   7.215   2.369
  468POPC   C1R24317   0.208   7.067   2.349
  468POPC    CE24318   1.004   7.324   2.012
  468POPC    OG24319   0.895   7.331   2.105
  468POPC   C2A24320   0.868   7.220   2.173
  468POPC    OH24321   0.924   7.113   2.149
  468POPC   C2B24322   0.762   7.239   2.275
  468POPC   C2C24323   0.820   7.294   2.404
  468POPC   C2D24324   0.709   7.315   2.507
  468POPC   C2E24325   0.757   7.390   2.632
  468POPC   C2F24326   0.857   7.310   2.716
  468POPC   C2G24327   0.881   7.383   2.848
  468POPC   C2H24328   0.979   7.308   2.939
  468POPC   C2I24329   0.993   7.376   3.075
  468POPC   C2J24330   1.055   7.516   3.064
  468POPC   C2K24331   1.055   7.588   3.198
  468POPC   C2L24332   1.116   7.728   3.185
  468POPC   C2M24333   1.114   7.803   3.319
  468POPC   C2N24334   1.206   7.737   3.422
  468POPC   C2O24335   1.193   7.801   3.561
  468POPC   C2P24336   1.055   7.776   3.622
  469POPC   CN124337   1.447   7.637   1.352
  469POPC   CN224338   1.671   7.573   1.307
  469POPC   CN324339   1.625   7.795   1.377
  469POPC   NTM24340   1.587   7.654   1.395
  469POPC    CA24341   1.605   7.606   1.534
  469POPC    CB24342   1.520   7.665   1.649
  469POPC    OA24343   1.539   7.804   1.674
  469POPC     P24344   1.418   7.867   1.752
  469POPC    OB24345   1.461   8.007   1.766
  469POPC    OC24346   1.300   7.827   1.674
  469POPC    OD24347   1.428   7.789   1.888
  469POPC    CC24348   1.517   7.845   1.984
  469POPC    CD24349   1.518   7.761   2.113
  469POPC    OE24350   1.587   7.820   2.227
  469POPC   C1A24351   1.519   7.902   2.308
  469POPC    OF24352   1.433   7.978   2.263
  469POPC   C1B24353   1.579   7.910   2.443
  469POPC   C1C24354   1.470   7.916   2.551
  469POPC   C1D24355   1.526   7.895   2.692
  469POPC   C1E24356   1.411   7.890   2.793
  469POPC   C1F24357   1.454   7.846   2.933
  469POPC   C1G24358   1.547   7.946   3.002
  469POPC   C1H24359   1.577   7.902   3.145
  469POPC   C1I24360   1.676   7.998   3.212
  469POPC   C1J24361   1.673   8.019   3.343
  469POPC   C1K24362   1.570   7.946   3.430
  469POPC   C1L24363   1.619   7.928   3.575
  469POPC   C1M24364   1.622   8.058   3.655
  469POPC   C1N24365   1.672   8.031   3.797
  469POPC   C1O24366   1.673   8.156   3.885
  469POPC   C1P24367   1.532   8.208   3.915
  469POPC   C1Q24368   1.537   8.329   4.009
  469POPC   C1R24369   1.397   8.383   4.036
  469POPC    CE24370   1.569   7.621   2.072
  469POPC    OG24371   1.553   7.514   2.167
  469POPC   C2A24372   1.661   7.477   2.236
  469POPC    OH24373   1.770   7.531   2.219
  469POPC   C2B24374   1.638   7.361   2.326
  469POPC   C2C24375   1.624   7.399   2.474
  469POPC   C2D24376   1.500   7.486   2.503
  469POPC   C2E24377   1.475   7.504   2.652
  469POPC   C2F24378   1.427   7.374   2.718
  469POPC   C2G24379   1.386   7.395   2.864
  469POPC   C2H24380   1.504   7.424   2.958
  469POPC   C2I24381   1.452   7.436   3.101
  469POPC   C2J24382   1.564   7.460   3.202
  469POPC   C2K24383   1.505   7.471   3.342
  469POPC   C2L24384   1.611   7.501   3.448
  469POPC   C2M24385   1.545   7.517   3.585
  469POPC   C2N24386   1.646   7.555   3.693
  469POPC   C2O24387   1.573   7.586   3.824
  469POPC   C2P24388   1.670   7.633   3.932
  470POPC   CN124389   1.276   8.749   2.282
  470POPC   CN224390   1.329   8.657   2.494
  470POPC   CN324391   1.504   8.709   2.342
  470POPC   NTM24392   1.373   8.752   2.392
  470POPC    CA24393   1.380   8.886   2.455
  470POPC    CB24394   1.410   9.012   2.370
  470POPC    OA24395   1.537   9.014   2.304
  470POPC     P24396   1.556   9.141   2.213
  470POPC    OB24397   1.688   9.137   2.149
  470POPC    OC24398   1.434   9.154   2.132
  470POPC    OD24399   1.561   9.256   2.320
  470POPC    CC24400   1.676   9.248   2.405
  470POPC    CD24401   1.705   9.372   2.491
  470POPC    OE24402   1.815   9.354   2.583
  470POPC   C1A24403   1.879   9.462   2.628
  470POPC    OF24404   1.872   9.568   2.564
  470POPC   C1B24405   1.965   9.437   2.746
  470POPC   C1C24406   1.880   9.418   2.871
  470POPC   C1D24407   1.961   9.418   3.001
  470POPC   C1E24408   2.002   9.560   3.041
  470POPC   C1F24409   2.068   9.562   3.178
  470POPC   C1G24410   2.094   9.707   3.220
  470POPC   C1H24411   2.157   9.716   3.359
  470POPC   C1I24412   2.176   9.863   3.398
  470POPC   C1J24413   2.172   9.900   3.525
  470POPC   C1K24414   2.150   9.796   3.635
  470POPC   C1L24415   2.162   9.854   3.776
  470POPC   C1M24416   2.304   9.902   3.809
  470POPC   C1N24417   2.309   9.963   3.949
  470POPC   C1O24418   2.450  10.012   3.979
  470POPC   C1P24419   2.457  10.077   4.118
  470POPC   C1Q24420   2.597  10.130   4.150
  470POPC   C1R24421   2.638  10.245   4.058
  470POPC    CE24422   1.572   9.412   2.559
  470POPC    OG24423   1.504   9.312   2.637
  470POPC   C2A24424   1.391   9.349   2.695
  470POPC    OH24425   1.339   9.458   2.669
  470POPC   C2B24426   1.331   9.244   2.782
  470POPC   C2C24427   1.254   9.307   2.898
  470POPC   C2D24428   1.192   9.201   2.989
  470POPC   C2E24429   1.107   9.262   3.102
  470POPC   C2F24430   1.189   9.350   3.196
  470POPC   C2G24431   1.109   9.385   3.321
  470POPC   C2H24432   1.193   9.468   3.419
  470POPC   C2I24433   1.119   9.481   3.552
  470POPC   C2J24434   1.197   9.567   3.652
  470POPC   C2K24435   1.122   9.570   3.786
  470POPC   C2L24436   1.183   9.667   3.887
  470POPC   C2M24437   1.321   9.623   3.935
  470POPC   C2N24438   1.371   9.719   4.044
  470POPC   C2O24439   1.510   9.677   4.094
  470POPC   C2P24440   1.556   9.771   4.205
  471POPC   CN124441   1.572   9.996   1.986
  471POPC   CN224442   1.456  10.204   1.989
  471POPC   CN324443   1.352  10.006   2.073
  471POPC   NTM24444   1.479  10.079   2.063
  471POPC    CA24445   1.539  10.105   2.195
  471POPC    CB24446   1.460  10.187   2.300
  471POPC    OA24447   1.349  10.120   2.359
  471POPC     P24448   1.270  10.209   2.462
  471POPC    OB24449   1.228  10.323   2.380
  471POPC    OC24450   1.170  10.114   2.514
  471POPC    OD24451   1.386  10.240   2.563
  471POPC    CC24452   1.410  10.138   2.660
  471POPC    CD24453   1.555  10.132   2.712
  471POPC    OE24454   1.581  10.020   2.801
  471POPC   C1A24455   1.624   9.906   2.749
  471POPC    OF24456   1.661   9.901   2.632
  471POPC   C1B24457   1.642   9.798   2.850
  471POPC   C1C24458   1.515   9.715   2.870
  471POPC   C1D24459   1.535   9.606   2.976
  471POPC   C1E24460   1.554   9.663   3.116
  471POPC   C1F24461   1.589   9.553   3.216
  471POPC   C1G24462   1.603   9.610   3.358
  471POPC   C1H24463   1.651   9.504   3.456
  471POPC   C1I24464   1.661   9.562   3.598
  471POPC   C1J24465   1.757   9.523   3.681
  471POPC   C1K24466   1.861   9.418   3.638
  471POPC   C1L24467   1.998   9.440   3.704
  471POPC   C1M24468   1.996   9.414   3.855
  471POPC   C1N24469   2.131   9.448   3.919
  471POPC   C1O24470   2.131   9.424   4.070
  471POPC   C1P24471   2.040   9.520   4.148
  471POPC   C1Q24472   2.094   9.663   4.157
  471POPC   C1R24473   2.218   9.673   4.246
  471POPC    CE24474   1.595  10.270   2.768
  471POPC    OG24475   1.520  10.323   2.878
  471POPC   C2A24476   1.580  10.419   2.948
  471POPC    OH24477   1.701  10.440   2.937
  471POPC   C2B24478   1.493  10.484   3.048
  471POPC   C2C24479   1.507  10.420   3.187
  471POPC   C2D24480   1.404  10.483   3.281
  471POPC   C2E24481   1.399  10.421   3.421
  471POPC   C2F24482   1.521  10.455   3.506
  471POPC   C2G24483   1.495  10.422   3.653
  471POPC   C2H24484   1.617  10.455   3.739
  471POPC   C2I24485   1.591  10.437   3.889
  471POPC   C2J24486   1.499  10.547   3.943
  471POPC   C2K24487   1.482  10.536   4.095
  471POPC   C2L24488   1.400  10.654   4.146
  471POPC   C2M24489   1.379  10.648   4.298
  471POPC   C2N24490   1.301  10.771   4.345
  471POPC   C2O24491   1.280  10.768   4.496
  471POPC   C2P24492   1.204  10.892   4.543
  472POPC   CN124493   1.796  11.085   2.337
  472POPC   CN224494   1.790  10.923   2.509
  472POPC   CN324495   1.588  10.988   2.400
  472POPC   NTM24496   1.731  10.962   2.381
  472POPC    CA24497   1.753  10.859   2.276
  472POPC    CB24498   1.679  10.723   2.281
  472POPC    OA24499   1.697  10.647   2.401
  472POPC     P24500   1.610  10.516   2.404
  472POPC    OB24501   1.597  10.469   2.265
  472POPC    OC24502   1.670  10.429   2.505
  472POPC    OD24503   1.473  10.574   2.452
  472POPC    CC24504   1.474  10.605   2.591
  472POPC    CD24505   1.344  10.671   2.640
  472POPC    OE24506   1.362  10.749   2.762
  472POPC   C1A24507   1.408  10.873   2.755
  472POPC    OF24508   1.393  10.941   2.653
  472POPC   C1B24509   1.459  10.923   2.885
  472POPC   C1C24510   1.355  10.990   2.975
  472POPC   C1D24511   1.423  11.025   3.108
  472POPC   C1E24512   1.330  11.097   3.205
  472POPC   C1F24513   1.404  11.125   3.335
  472POPC   C1G24514   1.317  11.204   3.433
  472POPC   C1H24515   1.394  11.231   3.563
  472POPC   C1I24516   1.308  11.311   3.661
  472POPC   C1J24517   1.330  11.304   3.792
  472POPC   C1K24518   1.442  11.216   3.849
  472POPC   C1L24519   1.412  11.166   3.991
  472POPC   C1M24520   1.406  11.280   4.094
  472POPC   C1N24521   1.382  11.224   4.234
  472POPC   C1O24522   1.363  11.338   4.335
  472POPC   C1P24523   1.346  11.282   4.476
  472POPC   C1Q24524   1.320  11.392   4.580
  472POPC   C1R24525   1.441  11.484   4.600
  472POPC    CE24526   1.237  10.559   2.645
  472POPC    OG24527   1.243  10.473   2.761
  472POPC   C2A24528   1.136  10.400   2.789
  472POPC    OH24529   1.044  10.385   2.708
  472POPC   C2B24530   1.138  10.345   2.927
  472POPC   C2C24531   1.185  10.200   2.936
  472POPC   C2D24532   1.222  10.167   3.080
  472POPC   C2E24533   1.284  10.028   3.094
  472POPC   C2F24534   1.346  10.005   3.232
  472POPC   C2G24535   1.245  10.015   3.347
  472POPC   C2H24536   1.316  10.007   3.482
  472POPC   C2I24537   1.220  10.040   3.596
  472POPC   C2J24538   1.296  10.050   3.728
  472POPC   C2K24539   1.204  10.098   3.841
  472POPC   C2L24540   1.282  10.117   3.971
  472POPC   C2M24541   1.191  10.171   4.081
  472POPC   C2N24542   1.268  10.190   4.212
  472POPC   C2O24543   1.181  10.246   4.324
  472POPC   C2P24544   1.073  10.148   4.370
  473POPC   CN124545   1.258  11.730   2.189
  473POPC   CN224546   1.065  11.608   2.262
  473POPC   CN324547   1.209  11.516   2.098
  473POPC   NTM24548   1.205  11.597   2.220
  473POPC    CA24549   1.286  11.526   2.322
  473POPC    CB24550   1.322  11.593   2.457
  473POPC    OA24551   1.217  11.642   2.540
  473POPC     P24552   1.279  11.715   2.665
  473POPC    OB24553   1.385  11.803   2.614
  473POPC    OC24554   1.161  11.767   2.736
  473POPC    OD24555   1.341  11.590   2.735
  473POPC    CC24556   1.263  11.544   2.846
  473POPC    CD24557   1.273  11.393   2.870
  473POPC    OE24558   1.193  11.348   2.982
  473POPC   C1A24559   1.062  11.331   2.968
  473POPC    OF24560   1.008  11.336   2.857
  473POPC   C1B24561   0.995  11.314   3.099
  473POPC   C1C24562   0.872  11.223   3.098
  473POPC   C1D24563   0.806  11.219   3.236
  473POPC   C1E24564   0.900  11.157   3.340
  473POPC   C1F24565   0.852  11.180   3.483
  473POPC   C1G24566   0.959  11.127   3.579
  473POPC   C1H24567   0.942  11.176   3.723
  473POPC   C1I24568   0.837  11.099   3.803
  473POPC   C1J24569   0.857  11.089   3.934
  473POPC   C1K24570   0.984  11.152   3.990
  473POPC   C1L24571   1.012  11.113   4.136
  473POPC   C1M24572   0.926  11.194   4.233
  473POPC   C1N24573   0.966  11.165   4.377
  473POPC   C1O24574   0.886  11.250   4.475
  473POPC   C1P24575   0.932  11.225   4.618
  473POPC   C1Q24576   0.849  11.306   4.718
  473POPC   C1R24577   0.900  11.283   4.860
  473POPC    CE24578   1.424  11.359   2.877
  473POPC    OG24579   1.500  11.425   2.980
  473POPC   C2A24580   1.631  11.402   2.982
  473POPC    OH24581   1.686  11.335   2.893
  473POPC   C2B24582   1.699  11.464   3.098
  473POPC   C2C24583   1.700  11.368   3.217
  473POPC   C2D24584   1.767  11.432   3.340
  473POPC   C2E24585   1.761  11.339   3.460
  473POPC   C2F24586   1.825  11.405   3.583
  473POPC   C2G24587   1.808  11.321   3.709
  473POPC   C2H24588   1.873  11.394   3.828
  473POPC   C2I24589   1.856  11.319   3.960
  473POPC   C2J24590   1.932  11.394   4.070
  473POPC   C2K24591   1.919  11.328   4.208
  473POPC   C2L24592   1.779  11.344   4.267
  473POPC   C2M24593   1.767  11.288   4.409
  473POPC   C2N24594   1.847  11.369   4.511
  473POPC   C2O24595   1.829  11.317   4.654
  473POPC   C2P24596   1.889  11.178   4.675
  474POPC   CN124597   1.704  13.804   2.585
  474POPC   CN224598   1.517  13.659   2.560
  474POPC   CN324599   1.616  13.763   2.370
  474POPC   NTM24600   1.645  13.700   2.500
  474POPC    CA24601   1.737  13.586   2.478
  474POPC    CB24602   1.771  13.488   2.594
  474POPC    OA24603   1.821  13.547   2.714
  474POPC     P24604   1.838  13.441   2.829
  474POPC    OB24605   1.898  13.321   2.770
  474POPC    OC24606   1.905  13.513   2.939
  474POPC    OD24607   1.687  13.414   2.859
  474POPC    CC24608   1.634  13.497   2.962
  474POPC    CD24609   1.480  13.487   2.974
  474POPC    OE24610   1.417  13.587   3.059
  474POPC   C1A24611   1.412  13.715   3.023
  474POPC    OF24612   1.464  13.754   2.918
  474POPC   C1B24613   1.341  13.805   3.118
  474POPC   C1C24614   1.378  13.788   3.266
  474POPC   C1D24615   1.320  13.904   3.347
  474POPC   C1E24616   1.349  13.897   3.497
  474POPC   C1F24617   1.260  13.796   3.570
  474POPC   C1G24618   1.253  13.826   3.720
  474POPC   C1H24619   1.379  13.784   3.797
  474POPC   C1I24620   1.387  13.849   3.936
  474POPC   C1J24621   1.340  13.795   4.048
  474POPC   C1K24622   1.267  13.660   4.051
  474POPC   C1L24623   1.302  13.573   4.172
  474POPC   C1M24624   1.250  13.629   4.305
  474POPC   C1N24625   1.282  13.532   4.419
  474POPC   C1O24626   1.230  13.581   4.555
  474POPC   C1P24627   1.304  13.705   4.604
  474POPC   C1Q24628   1.252  13.756   4.739
  474POPC   C1R24629   1.286  13.661   4.854
  474POPC    CE24630   1.450  13.340   3.009
  474POPC    OG24631   1.511  13.290   3.130
  474POPC   C2A24632   1.508  13.159   3.152
  474POPC    OH24633   1.471  13.079   3.065
  474POPC   C2B24634   1.566  13.125   3.283
  474POPC   C2C24635   1.508  12.998   3.345
  474POPC   C2D24636   1.570  12.975   3.483
  474POPC   C2E24637   1.523  12.843   3.545
  474POPC   C2F24638   1.581  12.826   3.685
  474POPC   C2G24639   1.545  12.689   3.744
  474POPC   C2H24640   1.594  12.671   3.888
  474POPC   C2I24641   1.747  12.672   3.900
  474POPC   C2J24642   1.789  12.644   4.044
  474POPC   C2K24643   1.941  12.641   4.059
  474POPC   C2L24644   1.979  12.608   4.204
  474POPC   C2M24645   2.130  12.611   4.225
  474POPC   C2N24646   2.163  12.586   4.373
  474POPC   C2O24647   2.313  12.596   4.403
  474POPC   C2P24648   2.368  12.738   4.384
  475POPC   CN124649   1.728  12.825   2.359
  475POPC   CN224650   1.697  12.774   2.130
  475POPC   CN324651   1.507  12.818   2.265
  475POPC   NTM24652   1.647  12.856   2.241
  475POPC    CA24653   1.659  12.999   2.201
  475POPC    CB24654   1.626  13.111   2.302
  475POPC    OA24655   1.495  13.109   2.356
  475POPC     P24656   1.494  13.185   2.492
  475POPC    OB24657   1.560  13.098   2.590
  475POPC    OC24658   1.538  13.322   2.463
  475POPC    OD24659   1.340  13.188   2.518
  475POPC    CC24660   1.314  13.267   2.633
  475POPC    CD24661   1.166  13.281   2.671
  475POPC    OE24662   1.148  13.386   2.770
  475POPC   C1A24663   1.028  13.407   2.824
  475POPC    OF24664   0.926  13.379   2.762
  475POPC   C1B24665   1.035  13.483   2.951
  475POPC   C1C24666   1.024  13.386   3.068
  475POPC   C1D24667   1.085  13.445   3.195
  475POPC   C1E24668   1.072  13.344   3.309
  475POPC   C1F24669   1.175  13.371   3.419
  475POPC   C1G24670   1.164  13.264   3.528
  475POPC   C1H24671   1.286  13.263   3.621
  475POPC   C1I24672   1.296  13.387   3.709
  475POPC   C1J24673   1.355  13.380   3.827
  475POPC   C1K24674   1.415  13.248   3.876
  475POPC   C1L24675   1.526  13.276   3.977
  475POPC   C1M24676   1.589  13.147   4.031
  475POPC   C1N24677   1.696  13.182   4.134
  475POPC   C1O24678   1.767  13.058   4.186
  475POPC   C1P24679   1.878  13.099   4.284
  475POPC   C1Q24680   1.959  12.978   4.329
  475POPC   C1R24681   2.075  13.020   4.418
  475POPC    CE24682   1.119  13.139   2.711
  475POPC    OG24683   1.175  13.090   2.834
  475POPC   C2A24684   1.095  13.014   2.907
  475POPC    OH24685   0.986  12.975   2.865
  475POPC   C2B24686   1.153  12.978   3.039
  475POPC   C2C24687   1.046  12.963   3.147
  475POPC   C2D24688   1.107  12.924   3.282
  475POPC   C2E24689   0.997  12.904   3.386
  475POPC   C2F24690   1.054  12.885   3.526
  475POPC   C2G24691   0.940  12.870   3.627
  475POPC   C2H24692   0.988  12.874   3.773
  475POPC   C2I24693   1.077  12.756   3.811
  475POPC   C2J24694   1.112  12.762   3.960
  475POPC   C2K24695   1.201  12.645   4.001
  475POPC   C2L24696   1.227  12.642   4.152
  475POPC   C2M24697   1.309  12.762   4.202
  475POPC   C2N24698   1.326  12.755   4.354
  475POPC   C2O24699   1.406  12.874   4.407
  475POPC   C2P24700   1.418  12.867   4.559
  476POPC   CN124701   1.205  14.803   1.775
  476POPC   CN224702   1.181  14.992   1.633
  476POPC   CN324703   0.999  14.919   1.774
  476POPC   NTM24704   1.144  14.936   1.764
  476POPC    CA24705   1.195  15.019   1.876
  476POPC    CB24706   1.169  15.171   1.879
  476POPC    OA24707   1.035  15.215   1.860
  476POPC     P24708   1.023  15.368   1.896
  476POPC    OB24709   1.138  15.439   1.841
  476POPC    OC24710   0.887  15.408   1.856
  476POPC    OD24711   1.033  15.355   2.052
  476POPC    CC24712   0.908  15.325   2.113
  476POPC    CD24713   0.911  15.306   2.265
  476POPC    OE24714   0.777  15.284   2.319
  476POPC   C1A24715   0.767  15.186   2.410
  476POPC    OF24716   0.831  15.082   2.394
  476POPC   C1B24717   0.650  15.201   2.499
  476POPC   C1C24718   0.680  15.147   2.639
  476POPC   C1D24719   0.562  15.172   2.733
  476POPC   C1E24720   0.589  15.119   2.874
  476POPC   C1F24721   0.573  14.967   2.887
  476POPC   C1G24722   0.606  14.922   3.029
  476POPC   C1H24723   0.758  14.912   3.052
  476POPC   C1I24724   0.798  14.937   3.197
  476POPC   C1J24725   0.816  14.842   3.288
  476POPC   C1K24726   0.793  14.693   3.260
  476POPC   C1L24727   0.783  14.609   3.387
  476POPC   C1M24728   0.666  14.651   3.477
  476POPC   C1N24729   0.650  14.561   3.600
  476POPC   C1O24730   0.601  14.421   3.563
  476POPC   C1P24731   0.565  14.340   3.688
  476POPC   C1Q24732   0.510  14.202   3.652
  476POPC   C1R24733   0.375  14.210   3.579
  476POPC    CE24734   0.983  15.428   2.325
  476POPC    OG24735   0.981  15.431   2.469
  476POPC   C2A24736   1.048  15.529   2.529
  476POPC    OH24737   1.141  15.586   2.472
  476POPC   C2B24738   1.019  15.537   2.674
  476POPC   C2C24739   0.911  15.639   2.708
  476POPC   C2D24740   0.884  15.646   2.858
  476POPC   C2E24741   0.812  15.521   2.909
  476POPC   C2F24742   0.794  15.524   3.061
  476POPC   C2G24743   0.714  15.401   3.103
  476POPC   C2H24744   0.698  15.388   3.255
  476POPC   C2I24745   0.611  15.265   3.283
  476POPC   C2J24746   0.600  15.232   3.431
  476POPC   C2K24747   0.512  15.108   3.449
  476POPC   C2L24748   0.505  15.059   3.594
  476POPC   C2M24749   0.430  15.158   3.685
  476POPC   C2N24750   0.427  15.109   3.830
  476POPC   C2O24751   0.567  15.105   3.892
  476POPC   C2P24752   0.561  15.057   4.037
  477POPC   CN124753   0.701  15.841   1.766
  477POPC   CN224754   0.728  15.932   1.987
  477POPC   CN324755   0.575  15.755   1.948
  477POPC   NTM24756   0.706  15.809   1.910
  477POPC    CA24757   0.808  15.705   1.940
  477POPC    CB24758   0.957  15.728   1.902
  477POPC    OA24759   1.024  15.837   1.964
  477POPC     P24760   1.093  15.800   2.101
  477POPC    OB24761   1.072  15.659   2.135
  477POPC    OC24762   1.224  15.864   2.099
  477POPC    OD24763   1.000  15.888   2.190
  477POPC    CC24764   1.029  15.864   2.328
  477POPC    CD24765   0.942  15.949   2.423
  477POPC    OE24766   0.985  15.949   2.562
  477POPC   C1A24767   1.081  16.032   2.601
  477POPC    OF24768   1.129  16.114   2.523
  477POPC   C1B24769   1.120  16.013   2.743
  477POPC   C1C24770   1.028  16.091   2.837
  477POPC   C1D24771   1.067  16.069   2.983
  477POPC   C1E24772   0.976  16.149   3.077
  477POPC   C1F24773   1.021  16.132   3.222
  477POPC   C1G24774   0.936  16.215   3.318
  477POPC   C1H24775   0.995  16.210   3.459
  477POPC   C1I24776   0.905  16.283   3.559
  477POPC   C1J24777   0.909  16.250   3.688
  477POPC   C1K24778   1.006  16.143   3.738
  477POPC   C1L24779   0.942  16.054   3.845
  477POPC   C1M24780   1.045  15.954   3.899
  477POPC   C1N24781   0.983  15.847   3.990
  477POPC   C1O24782   0.925  15.903   4.119
  477POPC   C1P24783   0.870  15.790   4.206
  477POPC   C1Q24784   0.807  15.839   4.336
  477POPC   C1R24785   0.908  15.905   4.431
  477POPC    CE24786   0.796  15.909   2.395
  477POPC    OG24787   0.760  15.773   2.424
  477POPC   C2A24788   0.644  15.732   2.376
  477POPC    OH24789   0.602  15.776   2.268
  477POPC   C2B24790   0.588  15.617   2.451
  477POPC   C2C24791   0.487  15.670   2.554
  477POPC   C2D24792   0.462  15.568   2.665
  477POPC   C2E24793   0.374  15.629   2.775
  477POPC   C2F24794   0.379  15.542   2.900
  477POPC   C2G24795   0.293  15.599   3.014
  477POPC   C2H24796   0.306  15.509   3.137
  477POPC   C2I24797   0.225  15.558   3.256
  477POPC   C2J24798   0.245  15.463   3.374
  477POPC   C2K24799   0.161  15.497   3.497
  477POPC   C2L24800   0.205  15.626   3.565
  477POPC   C2M24801   0.127  15.648   3.695
  477POPC   C2N24802   0.163  15.781   3.760
  477POPC   C2O24803   0.090  15.804   3.892
  477POPC   C2P24804   0.139  15.710   4.002
  478POPC   CN124805   1.482  16.572   2.040
  478POPC   CN224806   1.478  16.335   2.034
  478POPC   CN324807   1.451  16.446   2.242
  478POPC   NTM24808   1.418  16.453   2.099
  478POPC    CA24809   1.272  16.449   2.078
  478POPC    CB24810   1.182  16.571   2.111
  478POPC    OA24811   1.193  16.628   2.241
  478POPC     P24812   1.088  16.743   2.255
  478POPC    OB24813   1.134  16.850   2.166
  478POPC    OC24814   0.956  16.683   2.236
  478POPC    OD24815   1.107  16.787   2.404
  478POPC    CC24816   1.030  16.714   2.500
  478POPC    CD24817   1.090  16.582   2.553
  478POPC    OE24818   1.011  16.519   2.657
  478POPC   C1A24819   0.894  16.461   2.631
  478POPC    OF24820   0.859  16.440   2.514
  478POPC   C1B24821   0.829  16.409   2.753
  478POPC   C1C24822   0.746  16.517   2.824
  478POPC   C1D24823   0.717  16.471   2.967
  478POPC   C1E24824   0.642  16.578   3.047
  478POPC   C1F24825   0.621  16.528   3.190
  478POPC   C1G24826   0.545  16.632   3.273
  478POPC   C1H24827   0.518  16.584   3.416
  478POPC   C1I24828   0.645  16.573   3.501
  478POPC   C1J24829   0.636  16.593   3.633
  478POPC   C1K24830   0.499  16.625   3.693
  478POPC   C1L24831   0.494  16.591   3.842
  478POPC   C1M24832   0.354  16.618   3.897
  478POPC   C1N24833   0.349  16.591   4.048
  478POPC   C1O24834   0.207  16.608   4.105
  478POPC   C1P24835   0.158  16.753   4.097
  478POPC   C1Q24836   0.016  16.765   4.155
  478POPC   C1R24837  16.950  16.909   4.148
  478POPC    CE24838   1.233  16.613   2.598
  478POPC    OG24839   1.246  16.719   2.696
  478POPC   C2A24840   1.367  16.739   2.746
  478POPC    OH24841   1.466  16.697   2.687
  478POPC   C2B24842   1.367  16.837   2.856
  478POPC   C2C24843   1.455  16.792   2.973
  478POPC   C2D24844   1.435  16.887   3.090
  478POPC   C2E24845   1.510  16.844   3.215
  478POPC   C2F24846   1.470  16.936   3.330
  478POPC   C2G24847   1.530  16.891   3.463
  478POPC   C2H24848   1.481   0.000   3.574
  478POPC   C2I24849   1.541  16.945   3.710
  478POPC   C2J24850   1.493   0.060   3.816
  478POPC   C2K24851   1.558   0.030   3.951
  478POPC   C2L24852   1.519   0.134   4.058
  478POPC   C2M24853   1.573   0.274   4.025
  478POPC   C2N24854   1.539   0.375   4.135
  478POPC   C2O24855   1.613   0.345   4.265
  478POPC   C2P24856   1.580   0.450   4.372
  479POPC   CN124857   2.015  16.061   2.216
  479POPC   CN224858   2.108  16.189   2.390
  479POPC   CN324859   2.241  16.134   2.199
  479POPC   NTM24860   2.107  16.172   2.244
  479POPC    CA24861   2.055  16.293   2.175
  479POPC    CB24862   2.133  16.427   2.171
  479POPC    OA24863   2.180  16.474   2.297
  479POPC     P24864   2.183  16.631   2.303
  479POPC    OB24865   2.294  16.669   2.217
  479POPC    OC24866   2.045  16.673   2.275
  479POPC    OD24867   2.222  16.652   2.454
  479POPC    CC24868   2.123  16.598   2.543
  479POPC    CD24869   2.178  16.493   2.642
  479POPC    OE24870   2.074  16.409   2.698
  479POPC   C1A24871   2.103  16.289   2.747
  479POPC    OF24872   2.219  16.245   2.744
  479POPC   C1B24873   1.982  16.211   2.784
  479POPC   C1C24874   1.935  16.229   2.929
  479POPC   C1D24875   2.016  16.146   3.029
  479POPC   C1E24876   1.943  16.145   3.164
  479POPC   C1F24877   2.006  16.047   3.263
  479POPC   C1G24878   1.913  16.027   3.382
  479POPC   C1H24879   1.969  15.925   3.482
  479POPC   C1I24880   1.867  15.896   3.592
  479POPC   C1J24881   1.882  15.791   3.673
  479POPC   C1K24882   2.004  15.701   3.659
  479POPC   C1L24883   1.974  15.556   3.696
  479POPC   C1M24884   2.103  15.473   3.695
  479POPC   C1N24885   2.078  15.324   3.721
  479POPC   C1O24886   2.021  15.295   3.860
  479POPC   C1P24887   1.999  15.145   3.880
  479POPC   C1Q24888   1.937  15.116   4.016
  479POPC   C1R24889   1.918  14.965   4.035
  479POPC    CE24890   2.275  16.567   2.736
  479POPC    OG24891   2.226  16.689   2.795
  479POPC   C2A24892   2.316  16.765   2.858
  479POPC    OH24893   2.436  16.742   2.847
  479POPC   C2B24894   2.259  16.884   2.924
  479POPC   C2C24895   2.312  16.894   3.067
  479POPC   C2D24896   2.289   0.048   3.130
  479POPC   C2E24897   2.343   0.048   3.273
  479POPC   C2F24898   2.358   0.190   3.327
  479POPC   C2G24899   2.392   0.189   3.476
  479POPC   C2H24900   2.425   0.331   3.522
  479POPC   C2I24901   2.404   0.347   3.673
  479POPC   C2J24902   2.431   0.492   3.714
  479POPC   C2K24903   2.369   0.524   3.850
  479POPC   C2L24904   2.389   0.672   3.884
  479POPC   C2M24905   2.302   0.714   4.002
  479POPC   C2N24906   2.325   0.861   4.036
  479POPC   C2O24907   2.226   0.913   4.141
  479POPC   C2P24908   2.085   0.928   4.085
  480POPC   CN124909   0.949   1.524   1.578
  480POPC   CN224910   1.092   1.690   1.676
  480POPC   CN324911   0.900   1.757   1.555
  480POPC   NTM24912   0.952   1.654   1.646
  480POPC    CA24913   0.866   1.651   1.767
  480POPC    CB24914   0.904   1.555   1.883
  480POPC    OA24915   1.023   1.592   1.952
  480POPC     P24916   1.092   1.471   2.023
  480POPC    OB24917   1.110   1.363   1.925
  480POPC    OC24918   1.207   1.530   2.093
  480POPC    OD24919   0.980   1.433   2.126
  480POPC    CC24920   0.982   1.515   2.243
  480POPC    CD24921   0.854   1.500   2.327
  480POPC    OE24922   0.842   1.584   2.445
  480POPC   C1A24923   0.822   1.715   2.435
  480POPC    OF24924   0.828   1.773   2.326
  480POPC   C1B24925   0.798   1.780   2.566
  480POPC   C1C24926   0.929   1.821   2.634
  480POPC   C1D24927   0.902   1.878   2.773
  480POPC   C1E24928   1.033   1.908   2.846
  480POPC   C1F24929   1.006   1.963   2.986
  480POPC   C1G24930   1.138   1.992   3.059
  480POPC   C1H24931   1.112   2.051   3.197
  480POPC   C1I24932   1.244   2.091   3.264
  480POPC   C1J24933   1.247   2.184   3.358
  480POPC   C1K24934   1.119   2.254   3.405
  480POPC   C1L24935   1.149   2.394   3.458
  480POPC   C1M24936   1.023   2.460   3.512
  480POPC   C1N24937   1.046   2.607   3.550
  480POPC   C1O24938   1.131   2.627   3.676
  480POPC   C1P24939   1.054   2.594   3.805
  480POPC   C1Q24940   1.138   2.627   3.928
  480POPC   C1R24941   1.061   2.600   4.057
  480POPC    CE24942   0.843   1.350   2.356
  480POPC    OG24943   0.956   1.291   2.423
  480POPC   C2A24944   0.954   1.160   2.444
  480POPC    OH24945   0.865   1.090   2.397
  480POPC   C2B24946   1.071   1.113   2.520
  480POPC   C2C24947   1.047   1.131   2.670
  480POPC   C2D24948   1.173   1.103   2.752
  480POPC   C2E24949   1.146   1.133   2.899
  480POPC   C2F24950   1.269   1.108   2.985
  480POPC   C2G24951   1.236   1.136   3.132
  480POPC   C2H24952   1.353   1.105   3.224
  480POPC   C2I24953   1.311   1.123   3.370
  480POPC   C2J24954   1.425   1.085   3.464
  480POPC   C2K24955   1.383   1.090   3.611
  480POPC   C2L24956   1.355   1.232   3.661
  480POPC   C2M24957   1.315   1.231   3.808
  480POPC   C2N24958   1.289   1.374   3.858
  480POPC   C2O24959   1.246   1.373   4.004
  480POPC   C2P24960   1.210   1.514   4.051
  481POPC   CN124961   1.767   1.629   1.980
  481POPC   CN224962   1.970   1.708   1.890
  481POPC   CN324963   1.942   1.707   2.125
  481POPC   NTM24964   1.913   1.632   2.002
  481POPC    CA24965   1.971   1.496   2.004
  481POPC    CB24966   1.942   1.400   2.123
  481POPC    OA24967   1.804   1.388   2.159
  481POPC     P24968   1.789   1.327   2.303
  481POPC    OB24969   1.802   1.183   2.283
  481POPC    OC24970   1.881   1.407   2.386
  481POPC    OD24971   1.638   1.369   2.318
  481POPC    CC24972   1.625   1.485   2.400
  481POPC    CD24973   1.522   1.589   2.354
  481POPC    OE24974   1.535   1.713   2.429
  481POPC   C1A24975   1.481   1.825   2.382
  481POPC    OF24976   1.458   1.836   2.261
  481POPC   C1B24977   1.484   1.937   2.480
  481POPC   C1C24978   1.591   2.039   2.442
  481POPC   C1D24979   1.607   2.146   2.549
  481POPC   C1E24980   1.715   2.247   2.510
  481POPC   C1F24981   1.749   2.345   2.623
  481POPC   C1G24982   1.636   2.444   2.653
  481POPC   C1H24983   1.666   2.531   2.775
  481POPC   C1I24984   1.658   2.450   2.905
  481POPC   C1J24985   1.725   2.487   3.014
  481POPC   C1K24986   1.814   2.611   3.014
  481POPC   C1L24987   1.915   2.610   3.130
  481POPC   C1M24988   1.849   2.631   3.266
  481POPC   C1N24989   1.955   2.634   3.377
  481POPC   C1O24990   1.894   2.669   3.513
  481POPC   C1P24991   2.005   2.681   3.618
  481POPC   C1Q24992   1.953   2.729   3.754
  481POPC   C1R24993   1.863   2.626   3.822
  481POPC    CE24994   1.384   1.519   2.359
  481POPC    OG24995   1.336   1.482   2.490
  481POPC   C2A24996   1.254   1.568   2.550
  481POPC    OH24997   1.215   1.670   2.493
  481POPC   C2B24998   1.215   1.527   2.686
  481POPC   C2C24999   1.312   1.583   2.790
  481POPC   C2D25000   1.268   1.545   2.932
  481POPC   C2E25001   1.372   1.591   3.035
  481POPC   C2F25002   1.329   1.552   3.176
  481POPC   C2G25003   1.440   1.584   3.277
  481POPC   C2H25004   1.402   1.539   3.419
  481POPC   C2I25005   1.298   1.628   3.487
  481POPC   C2J25006   1.359   1.759   3.537
  481POPC   C2K25007   1.256   1.843   3.613
  481POPC   C2L25008   1.323   1.967   3.672
  481POPC   C2M25009   1.226   2.060   3.745
  481POPC   C2N25010   1.168   1.997   3.872
  481POPC   C2O25011   1.086   2.097   3.954
  481POPC   C2P25012   1.173   2.208   4.016
  482POPC   CN125013   2.555   3.649   2.001
  482POPC   CN225014   2.517   3.520   2.197
  482POPC   CN325015   2.392   3.478   1.998
  482POPC   NTM25016   2.524   3.515   2.051
  482POPC    CA25017   2.631   3.424   2.002
  482POPC    CB25018   2.646   3.280   2.057
  482POPC    OA25019   2.529   3.199   2.056
  482POPC     P25020   2.563   3.063   2.129
  482POPC    OB25021   2.643   2.988   2.031
  482POPC    OC25022   2.619   3.104   2.259
  482POPC    OD25023   2.419   3.006   2.144
  482POPC    CC25024   2.346   3.071   2.248
  482POPC    CD25025   2.201   3.020   2.261
  482POPC    OE25026   2.117   3.107   2.342
  482POPC   C1A25027   2.073   3.222   2.293
  482POPC    OF25028   2.085   3.250   2.174
  482POPC   C1B25029   2.000   3.304   2.393
  482POPC   C1C25030   2.095   3.392   2.475
  482POPC   C1D25031   2.020   3.451   2.595
  482POPC   C1E25032   2.112   3.520   2.695
  482POPC   C1F25033   2.037   3.542   2.827
  482POPC   C1G25034   2.130   3.597   2.935
  482POPC   C1H25035   2.066   3.594   3.074
  482POPC   C1I25036   1.953   3.696   3.092
  482POPC   C1J25037   1.913   3.728   3.215
  482POPC   C1K25038   1.978   3.663   3.336
  482POPC   C1L25039   1.972   3.754   3.459
  482POPC   C1M25040   2.038   3.687   3.580
  482POPC   C1N25041   2.036   3.778   3.704
  482POPC   C1O25042   1.897   3.796   3.766
  482POPC   C1P25043   1.848   3.669   3.836
  482POPC   C1Q25044   1.712   3.690   3.902
  482POPC   C1R25045   1.665   3.562   3.972
  482POPC    CE25046   2.210   2.874   2.310
  482POPC    OG25047   2.262   2.857   2.443
  482POPC   C2A25048   2.196   2.772   2.521
  482POPC    OH25049   2.110   2.696   2.475
  482POPC   C2B25050   2.250   2.770   2.659
  482POPC   C2C25051   2.214   2.642   2.735
  482POPC   C2D25052   2.296   2.620   2.862
  482POPC   C2E25053   2.268   2.722   2.973
  482POPC   C2F25054   2.341   2.681   3.101
  482POPC   C2G25055   2.313   2.780   3.214
  482POPC   C2H25056   2.379   2.735   3.345
  482POPC   C2I25057   2.350   2.834   3.457
  482POPC   C2J25058   2.409   2.788   3.590
  482POPC   C2K25059   2.377   2.887   3.701
  482POPC   C2L25060   2.437   2.845   3.836
  482POPC   C2M25061   2.373   2.718   3.892
  482POPC   C2N25062   2.440   2.672   4.023
  482POPC   C2O25063   2.418   2.771   4.138
  482POPC   C2P25064   2.490   2.724   4.265
  483POPC   CN125065   2.085   3.823   1.374
  483POPC   CN225066   2.105   4.042   1.280
  483POPC   CN325067   1.953   3.883   1.187
  483POPC   NTM25068   2.011   3.933   1.313
  483POPC    CA25069   1.900   3.982   1.398
  483POPC    CB25070   1.926   4.036   1.541
  483POPC    OA25071   1.976   3.941   1.636
  483POPC     P25072   2.026   4.011   1.768
  483POPC    OB25073   2.171   3.984   1.772
  483POPC    OC25074   1.968   4.145   1.780
  483POPC    OD25075   1.960   3.912   1.870
  483POPC    CC25076   1.928   3.981   1.990
  483POPC    CD25077   1.873   3.895   2.105
  483POPC    OE25078   1.812   3.972   2.212
  483POPC   C1A25079   1.691   4.027   2.196
  483POPC    OF25080   1.626   4.009   2.092
  483POPC   C1B25081   1.647   4.106   2.313
  483POPC   C1C25082   1.572   4.017   2.413
  483POPC   C1D25083   1.539   4.092   2.542
  483POPC   C1E25084   1.466   3.999   2.639
  483POPC   C1F25085   1.440   4.066   2.774
  483POPC   C1G25086   1.364   3.970   2.865
  483POPC   C1H25087   1.344   4.026   3.006
  483POPC   C1I25088   1.252   3.933   3.085
  483POPC   C1J25089   1.264   3.917   3.216
  483POPC   C1K25090   1.372   3.990   3.297
  483POPC   C1L25091   1.414   3.909   3.420
  483POPC   C1M25092   1.497   3.786   3.384
  483POPC   C1N25093   1.515   3.694   3.504
  483POPC   C1O25094   1.591   3.567   3.464
  483POPC   C1P25095   1.592   3.462   3.574
  483POPC   C1Q25096   1.452   3.404   3.599
  483POPC   C1R25097   1.453   3.303   3.713
  483POPC    CE25098   1.987   3.802   2.149
  483POPC    OG25099   2.110   3.866   2.190
  483POPC   C2A25100   2.213   3.788   2.223
  483POPC    OH25101   2.211   3.666   2.203
  483POPC   C2B25102   2.331   3.862   2.274
  483POPC   C2C25103   2.342   3.852   2.427
  483POPC   C2D25104   2.470   3.920   2.475
  483POPC   C2E25105   2.482   3.926   2.628
  483POPC   C2F25106   2.496   3.789   2.694
  483POPC   C2G25107   2.528   3.799   2.843
  483POPC   C2H25108   2.414   3.862   2.925
  483POPC   C2I25109   2.453   3.885   3.072
  483POPC   C2J25110   2.479   3.755   3.149
  483POPC   C2K25111   2.523   3.781   3.293
  483POPC   C2L25112   2.407   3.830   3.380
  483POPC   C2M25113   2.452   3.876   3.520
  483POPC   C2N25114   2.503   3.762   3.608
  483POPC   C2O25115   2.539   3.815   3.747
  483POPC   C2P25116   2.586   3.703   3.839
  484POPC   CN125117   1.796   4.657   1.171
  484POPC   CN225118   1.669   4.857   1.176
  484POPC   CN325119   1.559   4.647   1.197
  484POPC   NTM25120   1.680   4.722   1.233
  484POPC    CA25121   1.692   4.738   1.380
  484POPC    CB25122   1.705   4.616   1.473
  484POPC    OA25123   1.827   4.542   1.458
  484POPC     P25124   1.821   4.403   1.531
  484POPC    OB25125   1.696   4.342   1.483
  484POPC    OC25126   1.950   4.343   1.493
  484POPC    OD25127   1.813   4.450   1.681
  484POPC    CC25128   1.938   4.487   1.739
  484POPC    CD25129   1.920   4.575   1.865
  484POPC    OE25130   2.045   4.617   1.926
  484POPC   C1A25131   2.042   4.727   2.001
  484POPC    OF25132   1.960   4.816   1.975
  484POPC   C1B25133   2.160   4.746   2.088
  484POPC   C1C25134   2.140   4.686   2.228
  484POPC   C1D25135   2.260   4.725   2.315
  484POPC   C1E25136   2.269   4.651   2.448
  484POPC   C1F25137   2.155   4.680   2.547
  484POPC   C1G25138   2.195   4.624   2.684
  484POPC   C1H25139   2.091   4.651   2.793
  484POPC   C1I25140   1.976   4.550   2.792
  484POPC   C1J25141   1.919   4.517   2.907
  484POPC   C1K25142   1.968   4.583   3.036
  484POPC   C1L25143   1.875   4.552   3.153
  484POPC   C1M25144   1.926   4.616   3.283
  484POPC   C1N25145   1.836   4.579   3.400
  484POPC   C1O25146   1.885   4.643   3.530
  484POPC   C1P25147   1.800   4.603   3.651
  484POPC   C1Q25148   1.656   4.655   3.642
  484POPC   C1R25149   1.576   4.616   3.766
  484POPC    CE25150   1.828   4.495   1.958
  484POPC    OG25151   1.786   4.560   2.079
  484POPC   C2A25152   1.687   4.505   2.148
  484POPC    OH25153   1.633   4.400   2.110
  484POPC   C2B25154   1.651   4.583   2.268
  484POPC   C2C25155   1.727   4.537   2.394
  484POPC   C2D25156   1.688   4.622   2.516
  484POPC   C2E25157   1.743   4.765   2.507
  484POPC   C2F25158   1.679   4.860   2.609
  484POPC   C2G25159   1.720   4.830   2.753
  484POPC   C2H25160   1.645   4.922   2.850
  484POPC   C2I25161   1.688   4.898   2.994
  484POPC   C2J25162   1.605   4.982   3.091
  484POPC   C2K25163   1.648   4.956   3.236
  484POPC   C2L25164   1.561   5.035   3.334
  484POPC   C2M25165   1.608   5.011   3.477
  484POPC   C2N25166   1.517   5.080   3.578
  484POPC   C2O25167   1.564   5.055   3.721
  484POPC   C2P25168   1.469   5.119   3.822
  485POPC   CN125169   1.263   5.182   1.732
  485POPC   CN225170   1.332   5.230   1.953
  485POPC   CN325171   1.462   5.084   1.814
  485POPC   NTM25172   1.381   5.206   1.817
  485POPC    CA25173   1.455   5.323   1.764
  485POPC    CB25174   1.591   5.362   1.826
  485POPC    OA25175   1.589   5.388   1.966
  485POPC     P25176   1.732   5.395   2.032
  485POPC    OB25177   1.825   5.448   1.932
  485POPC    OC25178   1.711   5.462   2.161
  485POPC    OD25179   1.750   5.240   2.047
  485POPC    CC25180   1.676   5.188   2.158
  485POPC    CD25181   1.685   5.035   2.171
  485POPC    OE25182   1.591   4.976   2.266
  485POPC   C1A25183   1.466   4.949   2.230
  485POPC    OF25184   1.432   4.955   2.111
  485POPC   C1B25185   1.384   4.895   2.341
  485POPC   C1C25186   1.319   5.006   2.423
  485POPC   C1D25187   1.251   4.949   2.547
  485POPC   C1E25188   1.192   5.061   2.632
  485POPC   C1F25189   1.120   5.008   2.757
  485POPC   C1G25190   1.217   4.952   2.861
  485POPC   C1H25191   1.141   4.898   2.982
  485POPC   C1I25192   1.239   4.847   3.088
  485POPC   C1J25193   1.204   4.842   3.217
  485POPC   C1K25194   1.064   4.883   3.262
  485POPC   C1L25195   1.063   4.945   3.403
  485POPC   C1M25196   1.102   4.845   3.512
  485POPC   C1N25197   1.098   4.910   3.650
  485POPC   C1O25198   1.141   4.810   3.758
  485POPC   C1P25199   1.137   4.870   3.899
  485POPC   C1Q25200   0.995   4.902   3.946
  485POPC   C1R25201   0.996   4.958   4.088
  485POPC    CE25202   1.834   5.004   2.197
  485POPC    OG25203   1.890   5.071   2.310
  485POPC   C2A25204   2.022   5.085   2.313
  485POPC    OH25205   2.093   5.062   2.215
  485POPC   C2B25206   2.067   5.141   2.442
  485POPC   C2C25207   2.199   5.081   2.490
  485POPC   C2D25208   2.231   5.124   2.633
  485POPC   C2E25209   2.131   5.064   2.733
  485POPC   C2F25210   2.166   5.110   2.875
  485POPC   C2G25211   2.074   5.046   2.979
  485POPC   C2H25212   2.120   5.091   3.117
  485POPC   C2I25213   2.039   5.030   3.231
  485POPC   C2J25214   2.096   5.081   3.363
  485POPC   C2K25215   2.019   5.030   3.485
  485POPC   C2L25216   2.080   5.090   3.611
  485POPC   C2M25217   2.002   5.050   3.736
  485POPC   C2N25218   2.059   5.118   3.862
  485POPC   C2O25219   2.040   5.270   3.859
  485POPC   C2P25220   2.100   5.335   3.983
  486POPC   CN125221   2.087   6.336   1.523
  486POPC   CN225222   2.075   6.407   1.750
  486POPC   CN325223   1.878   6.405   1.610
  486POPC   NTM25224   2.003   6.335   1.644
  486POPC    CA25225   1.979   6.194   1.682
  486POPC    CB25226   1.897   6.159   1.809
  486POPC    OA25227   1.763   6.206   1.806
  486POPC     P25228   1.653   6.094   1.801
  486POPC    OB25229   1.564   6.126   1.688
  486POPC    OC25230   1.720   5.964   1.806
  486POPC    OD25231   1.582   6.123   1.938
  486POPC    CC25232   1.518   6.251   1.935
  486POPC    CD25233   1.421   6.279   2.051
  486POPC    OE25234   1.483   6.288   2.182
  486POPC   C1A25235   1.457   6.398   2.252
  486POPC    OF25236   1.430   6.504   2.193
  486POPC   C1B25237   1.492   6.384   2.395
  486POPC   C1C25238   1.397   6.465   2.485
  486POPC   C1D25239   1.425   6.436   2.632
  486POPC   C1E25240   1.335   6.520   2.722
  486POPC   C1F25241   1.355   6.483   2.869
  486POPC   C1G25242   1.271   6.574   2.958
  486POPC   C1H25243   1.289   6.540   3.106
  486POPC   C1I25244   1.218   6.646   3.191
  486POPC   C1J25245   1.176   6.621   3.315
  486POPC   C1K25246   1.199   6.486   3.383
  486POPC   C1L25247   1.199   6.499   3.536
  486POPC   C1M25248   1.062   6.540   3.591
  486POPC   C1N25249   1.067   6.567   3.741
  486POPC   C1O25250   0.931   6.613   3.793
  486POPC   C1P25251   0.933   6.649   3.942
  486POPC   C1Q25252   0.960   6.527   4.031
  486POPC   C1R25253   0.969   6.568   4.178
  486POPC    CE25254   1.310   6.173   2.039
  486POPC    OG25255   1.212   6.177   2.145
  486POPC   C2A25256   1.111   6.092   2.137
  486POPC    OH25257   1.097   6.016   2.041
  486POPC   C2B25258   1.019   6.100   2.252
  486POPC   C2C25259   1.060   6.004   2.363
  486POPC   C2D25260   0.958   6.010   2.477
  486POPC   C2E25261   0.982   5.905   2.586
  486POPC   C2F25262   1.102   5.939   2.676
  486POPC   C2G25263   1.112   5.843   2.794
  486POPC   C2H25264   1.163   5.704   2.754
  486POPC   C2I25265   1.156   5.610   2.874
  486POPC   C2J25266   1.230   5.478   2.847
  486POPC   C2K25267   1.211   5.377   2.961
  486POPC   C2L25268   1.266   5.427   3.095
  486POPC   C2M25269   1.225   5.334   3.209
  486POPC   C2N25270   1.266   5.393   3.343
  486POPC   C2O25271   1.211   5.309   3.459
  486POPC   C2P25272   1.245   5.373   3.593
  487POPC   CN125273   2.578   6.524   2.138
  487POPC   CN225274   2.440   6.602   1.961
  487POPC   CN325275   2.666   6.671   1.975
  487POPC   NTM25276   2.576   6.557   1.995
  487POPC    CA25277   2.618   6.445   1.908
  487POPC    CB25278   2.558   6.303   1.926
  487POPC    OA25279   2.416   6.299   1.938
  487POPC     P25280   2.360   6.156   1.970
  487POPC    OB25281   2.341   6.097   1.836
  487POPC    OC25282   2.451   6.098   2.069
  487POPC    OD25283   2.226   6.206   2.033
  487POPC    CC25284   2.248   6.250   2.166
  487POPC    CD25285   2.146   6.354   2.215
  487POPC    OE25286   2.183   6.418   2.341
  487POPC   C1A25287   2.256   6.530   2.332
  487POPC    OF25288   2.273   6.585   2.223
  487POPC   C1B25289   2.297   6.586   2.463
  487POPC   C1C25290   2.208   6.704   2.502
  487POPC   C1D25291   2.238   6.758   2.643
  487POPC   C1E25292   2.375   6.826   2.655
  487POPC   C1F25293   2.395   6.887   2.795
  487POPC   C1G25294   2.409   6.779   2.903
  487POPC   C1H25295   2.415   6.839   3.044
  487POPC   C1I25296   2.429   6.727   3.148
  487POPC   C1J25297   2.383   6.740   3.272
  487POPC   C1K25298   2.314   6.868   3.320
  487POPC   C1L25299   2.355   6.905   3.463
  487POPC   C1M25300   2.299   6.813   3.572
  487POPC   C1N25301   2.151   6.839   3.598
  487POPC   C1O25302   2.093   6.744   3.704
  487POPC   C1P25303   2.153   6.764   3.843
  487POPC   C1Q25304   2.096   6.666   3.946
  487POPC   C1R25305   2.136   6.521   3.919
  487POPC    CE25306   2.008   6.287   2.206
  487POPC    OG25307   1.897   6.374   2.237
  487POPC   C2A25308   1.859   6.463   2.146
  487POPC    OH25309   1.893   6.454   2.027
  487POPC   C2B25310   1.767   6.563   2.202
  487POPC   C2C25311   1.837   6.698   2.222
  487POPC   C2D25312   1.746   6.799   2.292
  487POPC   C2E25313   1.727   6.766   2.440
  487POPC   C2F25314   1.643   6.872   2.509
  487POPC   C2G25315   1.631   6.843   2.659
  487POPC   C2H25316   1.546   6.949   2.729
  487POPC   C2I25317   1.534   6.916   2.878
  487POPC   C2J25318   1.440   7.014   2.947
  487POPC   C2K25319   1.421   6.975   3.094
  487POPC   C2L25320   1.310   7.059   3.158
  487POPC   C2M25321   1.284   7.010   3.301
  487POPC   C2N25322   1.157   7.074   3.358
  487POPC   C2O25323   1.125   7.016   3.496
  487POPC   C2P25324   0.993   7.072   3.549
  488POPC   CN125325   2.362   7.499   1.767
  488POPC   CN225326   2.445   7.394   1.963
  488POPC   CN325327   2.270   7.552   1.982
  488POPC   NTM25328   2.323   7.444   1.898
  488POPC    CA25329   2.228   7.331   1.885
  488POPC    CB25330   2.092   7.348   1.812
  488POPC    OA25331   1.994   7.436   1.870
  488POPC     P25332   1.870   7.452   1.773
  488POPC    OB25333   1.779   7.550   1.834
  488POPC    OC25334   1.922   7.474   1.637
  488POPC    OD25335   1.810   7.306   1.776
  488POPC    CC25336   1.713   7.288   1.880
  488POPC    CD25337   1.671   7.142   1.904
  488POPC    OE25338   1.546   7.133   1.978
  488POPC   C1A25339   1.480   7.018   1.992
  488POPC    OF25340   1.514   6.917   1.929
  488POPC   C1B25341   1.362   7.029   2.082
  488POPC   C1C25342   1.407   7.023   2.228
  488POPC   C1D25343   1.293   7.041   2.329
  488POPC   C1E25344   1.201   6.919   2.334
  488POPC   C1F25345   1.092   6.931   2.442
  488POPC   C1G25346   1.150   6.926   2.583
  488POPC   C1H25347   1.038   6.930   2.688
  488POPC   C1I25348   1.096   6.934   2.829
  488POPC   C1J25349   1.030   6.883   2.932
  488POPC   C1K25350   0.893   6.817   2.910
  488POPC   C1L25351   0.856   6.714   3.018
  488POPC   C1M25352   0.830   6.777   3.155
  488POPC   C1N25353   0.786   6.670   3.255
  488POPC   C1O25354   0.766   6.725   3.396
  488POPC   C1P25355   0.651   6.826   3.405
  488POPC   C1Q25356   0.636   6.878   3.548
  488POPC   C1R25357   0.526   6.983   3.556
  488POPC    CE25358   1.794   7.073   1.966
  488POPC    OG25359   1.846   7.135   2.086
  488POPC   C2A25360   1.953   7.081   2.144
  488POPC    OH25361   2.016   6.990   2.088
  488POPC   C2B25362   1.988   7.148   2.271
  488POPC   C2C25363   2.049   7.051   2.373
  488POPC   C2D25364   2.071   7.112   2.512
  488POPC   C2E25365   1.940   7.143   2.584
  488POPC   C2F25366   1.959   7.165   2.735
  488POPC   C2G25367   1.999   7.034   2.805
  488POPC   C2H25368   2.016   7.046   2.957
  488POPC   C2I25369   1.883   7.068   3.029
  488POPC   C2J25370   1.902   7.060   3.180
  488POPC   C2K25371   1.770   7.081   3.254
  488POPC   C2L25372   1.787   7.065   3.405
  488POPC   C2M25373   1.654   7.082   3.477
  488POPC   C2N25374   1.670   7.067   3.628
  488POPC   C2O25375   1.536   7.085   3.700
  488POPC   C2P25376   1.552   7.072   3.851
  489POPC   CN125377   2.010   8.133   1.900
  489POPC   CN225378   1.812   8.161   2.028
  489POPC   CN325379   2.028   8.203   2.126
  489POPC   NTM25380   1.947   8.215   2.004
  489POPC    CA25381   1.943   8.355   1.955
  489POPC    CB25382   1.877   8.468   2.039
  489POPC    OA25383   1.892   8.596   1.977
  489POPC     P25384   1.782   8.697   2.024
  489POPC    OB25385   1.791   8.812   1.931
  489POPC    OC25386   1.654   8.626   2.033
  489POPC    OD25387   1.831   8.735   2.167
  489POPC    CC25388   1.934   8.834   2.168
  489POPC    CD25389   1.979   8.877   2.309
  489POPC    OE25390   2.071   8.783   2.372
  489POPC   C1A25391   2.153   8.831   2.466
  489POPC    OF25392   2.198   8.946   2.456
  489POPC   C1B25393   2.206   8.726   2.556
  489POPC   C1C25394   2.121   8.720   2.683
  489POPC   C1D25395   2.170   8.619   2.787
  489POPC   C1E25396   2.310   8.653   2.840
  489POPC   C1F25397   2.338   8.587   2.976
  489POPC   C1G25398   2.257   8.655   3.087
  489POPC   C1H25399   2.293   8.604   3.227
  489POPC   C1I25400   2.236   8.466   3.259
  489POPC   C1J25401   2.220   8.432   3.386
  489POPC   C1K25402   2.262   8.532   3.494
  489POPC   C1L25403   2.178   8.518   3.621
  489POPC   C1M25404   2.209   8.631   3.719
  489POPC   C1N25405   2.116   8.627   3.840
  489POPC   C1O25406   2.136   8.750   3.928
  489POPC   C1P25407   2.038   8.751   4.045
  489POPC   C1Q25408   2.048   8.878   4.130
  489POPC   C1R25409   2.002   9.003   4.055
  489POPC    CE25410   1.849   8.903   2.388
  489POPC    OG25411   1.865   8.957   2.520
  489POPC   C2A25412   1.768   8.934   2.608
  489POPC    OH25413   1.674   8.859   2.581
  489POPC   C2B25414   1.796   8.996   2.739
  489POPC   C2C25415   1.669   9.024   2.820
  489POPC   C2D25416   1.708   9.075   2.959
  489POPC   C2E25417   1.586   9.092   3.050
  489POPC   C2F25418   1.631   9.141   3.187
  489POPC   C2G25419   1.516   9.159   3.287
  489POPC   C2H25420   1.446   9.028   3.324
  489POPC   C2I25421   1.348   9.048   3.441
  489POPC   C2J25422   1.424   9.081   3.570
  489POPC   C2K25423   1.330   9.101   3.689
  489POPC   C2L25424   1.410   9.119   3.819
  489POPC   C2M25425   1.489   9.251   3.821
  489POPC   C2N25426   1.590   9.256   3.937
  489POPC   C2O25427   1.523   9.257   4.075
  489POPC   C2P25428   1.630   9.262   4.184
  490POPC   CN125429   2.374  10.428   2.591
  490POPC   CN225430   2.439  10.601   2.740
  490POPC   CN325431   2.452  10.372   2.807
  490POPC   NTM25432   2.470  10.465   2.695
  490POPC    CA25433   2.610  10.448   2.647
  490POPC    CB25434   2.661  10.530   2.527
  490POPC    OA25435   2.662  10.671   2.548
  490POPC     P25436   2.711  10.755   2.425
  490POPC    OB25437   2.807  10.851   2.480
  490POPC    OC25438   2.749  10.663   2.316
  490POPC    OD25439   2.573  10.821   2.388
  490POPC    CC25440   2.546  10.930   2.475
  490POPC    CD25441   2.418  11.009   2.443
  490POPC    OE25442   2.420  11.139   2.507
  490POPC   C1A25443   2.349  11.241   2.459
  490POPC    OF25444   2.293  11.230   2.349
  490POPC   C1B25445   2.366  11.370   2.531
  490POPC   C1C25446   2.400  11.359   2.680
  490POPC   C1D25447   2.429  11.497   2.740
  490POPC   C1E25448   2.467  11.487   2.888
  490POPC   C1F25449   2.607  11.428   2.908
  490POPC   C1G25450   2.629  11.389   3.054
  490POPC   C1H25451   2.769  11.334   3.077
  490POPC   C1I25452   2.872  11.444   3.103
  490POPC   C1J25453   2.981  11.413   3.173
  490POPC   C1K25454   2.999  11.267   3.218
  490POPC   C1L25455   3.039  11.255   3.365
  490POPC   C1M25456   3.055  11.108   3.403
  490POPC   C1N25457   3.081  11.092   3.553
  490POPC   C1O25458   3.094  10.944   3.590
  490POPC   C1P25459   3.111  10.923   3.741
  490POPC   C1Q25460   3.243  10.979   3.793
  490POPC   C1R25461   3.259  10.953   3.943
  490POPC    CE25462   2.300  10.915   2.475
  490POPC    OG25463   2.289  10.874   2.614
  490POPC   C2A25464   2.202  10.941   2.689
  490POPC    OH25465   2.114  11.011   2.638
  490POPC   C2B25466   2.213  10.910   2.833
  490POPC   C2C25467   2.317  10.999   2.902
  490POPC   C2D25468   2.334  10.957   3.048
  490POPC   C2E25469   2.456  11.025   3.111
  490POPC   C2F25470   2.488  10.964   3.247
  490POPC   C2G25471   2.627  11.008   3.294
  490POPC   C2H25472   2.670  10.934   3.421
  490POPC   C2I25473   2.606  10.990   3.548
  490POPC   C2J25474   2.637  10.898   3.665
  490POPC   C2K25475   2.597  10.957   3.800
  490POPC   C2L25476   2.608  10.848   3.907
  490POPC   C2M25477   2.590  10.900   4.050
  490POPC   C2N25478   2.713  10.978   4.097
  490POPC   C2O25479   2.699  11.018   4.244
  490POPC   C2P25480   2.829  11.081   4.294
  491POPC   CN125481   2.593  10.666   1.982
  491POPC   CN225482   2.443  10.807   2.099
  491POPC   CN325483   2.357  10.648   1.943
  491POPC   NTM25484   2.460  10.671   2.045
  491POPC    CA25485   2.456  10.570   2.154
  491POPC    CB25486   2.321  10.535   2.222
  491POPC    OA25487   2.248  10.649   2.267
  491POPC     P25488   2.098  10.618   2.298
  491POPC    OB25489   2.041  10.753   2.314
  491POPC    OC25490   2.047  10.526   2.196
  491POPC    OD25491   2.115  10.548   2.436
  491POPC    CC25492   2.003  10.573   2.520
  491POPC    CD25493   2.010  10.509   2.660
  491POPC    OE25494   2.014  10.363   2.662
  491POPC   C1A25495   2.073  10.304   2.766
  491POPC    OF25496   2.142  10.371   2.843
  491POPC   C1B25497   2.065  10.157   2.767
  491POPC   C1C25498   1.949  10.102   2.850
  491POPC   C1D25499   1.963  10.130   3.000
  491POPC   C1E25500   1.851  10.062   3.079
  491POPC   C1F25501   1.869  10.086   3.229
  491POPC   C1G25502   1.772  10.002   3.311
  491POPC   C1H25503   1.802  10.021   3.460
  491POPC   C1I25504   1.719   9.927   3.548
  491POPC   C1J25505   1.692   9.962   3.674
  491POPC   C1K25506   1.746  10.096   3.726
  491POPC   C1L25507   1.850  10.082   3.837
  491POPC   C1M25508   1.788  10.052   3.974
  491POPC   C1N25509   1.898  10.049   4.081
  491POPC   C1O25510   1.841  10.043   4.223
  491POPC   C1P25511   1.767  10.171   4.261
  491POPC   C1Q25512   1.713  10.165   4.404
  491POPC   C1R25513   1.639  10.294   4.439
  491POPC    CE25514   1.892  10.571   2.735
  491POPC    OG25515   1.916  10.707   2.775
  491POPC   C2A25516   1.809  10.770   2.821
  491POPC    OH25517   1.700  10.749   2.768
  491POPC   C2B25518   1.839  10.890   2.903
  491POPC   C2C25519   1.842  10.852   3.051
  491POPC   C2D25520   1.849  10.975   3.142
  491POPC   C2E25521   1.849  10.934   3.290
  491POPC   C2F25522   1.722  10.860   3.330
  491POPC   C2G25523   1.732  10.799   3.470
  491POPC   C2H25524   1.722  10.902   3.583
  491POPC   C2I25525   1.751  10.832   3.716
  491POPC   C2J25526   1.727  10.922   3.836
  491POPC   C2K25527   1.770  10.848   3.963
  491POPC   C2L25528   1.733  10.923   4.091
  491POPC   C2M25529   1.786  10.846   4.211
  491POPC   C2N25530   1.738  10.907   4.343
  491POPC   C2O25531   1.798  10.835   4.465
  491POPC   C2P25532   1.755  10.689   4.475
  492POPC   CN125533   2.048  12.073   2.467
  492POPC   CN225534   2.171  12.071   2.263
  492POPC   CN325535   2.088  11.867   2.350
  492POPC   NTM25536   2.058  12.010   2.334
  492POPC    CA25537   1.938  12.036   2.252
  492POPC    CB25538   1.800  11.983   2.297
  492POPC    OA25539   1.782  11.841   2.304
  492POPC     P25540   1.641  11.807   2.368
  492POPC    OB25541   1.546  11.904   2.311
  492POPC    OC25542   1.626  11.663   2.345
  492POPC    OD25543   1.684  11.839   2.516
  492POPC    CC25544   1.743  11.725   2.580
  492POPC    CD25545   1.788  11.745   2.725
  492POPC    OE25546   1.850  11.627   2.782
  492POPC   C1A25547   1.976  11.593   2.754
  492POPC    OF25548   2.037  11.647   2.660
  492POPC   C1B25549   2.019  11.471   2.825
  492POPC   C1C25550   2.071  11.501   2.966
  492POPC   C1D25551   2.105  11.372   3.042
  492POPC   C1E25552   2.144  11.405   3.186
  492POPC   C1F25553   2.174  11.278   3.266
  492POPC   C1G25554   2.202  11.314   3.412
  492POPC   C1H25555   2.238  11.192   3.499
  492POPC   C1I25556   2.122  11.093   3.514
  492POPC   C1J25557   2.106  11.025   3.627
  492POPC   C1K25558   2.200  11.047   3.746
  492POPC   C1L25559   2.131  11.013   3.878
  492POPC   C1M25560   2.223  11.040   3.996
  492POPC   C1N25561   2.156  11.001   4.128
  492POPC   C1O25562   2.249  11.027   4.246
  492POPC   C1P25563   2.184  10.988   4.379
  492POPC   C1Q25564   2.279  11.014   4.495
  492POPC   C1R25565   2.216  10.971   4.628
  492POPC    CE25566   1.660  11.788   2.800
  492POPC    OG25567   1.683  11.852   2.927
  492POPC   C2A25568   1.576  11.889   2.996
  492POPC    OH25569   1.462  11.875   2.951
  492POPC   C2B25570   1.609  11.955   3.124
  492POPC   C2C25571   1.618  11.854   3.238
  492POPC   C2D25572   1.651  11.925   3.370
  492POPC   C2E25573   1.661  11.828   3.488
  492POPC   C2F25574   1.527  11.761   3.521
  492POPC   C2G25575   1.535  11.672   3.645
  492POPC   C2H25576   1.562  11.755   3.772
  492POPC   C2I25577   1.565  11.667   3.897
  492POPC   C2J25578   1.583  11.756   4.020
  492POPC   C2K25579   1.582  11.674   4.149
  492POPC   C2L25580   1.590  11.765   4.273
  492POPC   C2M25581   1.464  11.850   4.290
  492POPC   C2N25582   1.473  11.948   4.407
  492POPC   C2O25583   1.482  11.878   4.542
  492POPC   C2P25584   1.487  11.980   4.655
  493POPC   CN125585   2.687  12.733   2.877
  493POPC   CN225586   2.576  12.530   2.926
  493POPC   CN325587   2.456  12.736   2.932
  493POPC   NTM25588   2.560  12.661   2.861
  493POPC    CA25589   2.530  12.650   2.716
  493POPC    CB25590   2.393  12.593   2.670
  493POPC    OA25591   2.363  12.463   2.720
  493POPC     P25592   2.209  12.436   2.728
  493POPC    OB25593   2.137  12.504   2.619
  493POPC    OC25594   2.187  12.293   2.752
  493POPC    OD25595   2.183  12.517   2.860
  493POPC    CC25596   2.194  12.437   2.977
  493POPC    CD25597   2.191  12.514   3.111
  493POPC    OE25598   2.196  12.427   3.226
  493POPC   C1A25599   2.315  12.387   3.271
  493POPC    OF25600   2.418  12.437   3.224
  493POPC   C1B25601   2.304  12.291   3.383
  493POPC   C1C25602   2.434  12.213   3.409
  493POPC   C1D25603   2.415  12.106   3.518
  493POPC   C1E25604   2.380  12.161   3.656
  493POPC   C1F25605   2.494  12.242   3.720
  493POPC   C1G25606   2.452  12.291   3.859
  493POPC   C1H25607   2.561  12.375   3.925
  493POPC   C1I25608   2.519  12.414   4.066
  493POPC   C1J25609   2.562  12.526   4.123
  493POPC   C1K25610   2.658  12.621   4.049
  493POPC   C1L25611   2.733  12.709   4.149
  493POPC   C1M25612   2.832  12.804   4.081
  493POPC   C1N25613   2.764  12.914   3.998
  493POPC   C1O25614   2.698  13.023   4.083
  493POPC   C1P25615   2.798  13.114   4.154
  493POPC   C1Q25616   2.878  13.201   4.055
  493POPC   C1R25617   2.976  13.292   4.129
  493POPC    CE25618   2.073  12.612   3.108
  493POPC    OG25619   2.111  12.747   3.076
  493POPC   C2A25620   2.012  12.834   3.058
  493POPC    OH25621   1.894  12.797   3.050
  493POPC   C2B25622   2.060  12.973   3.044
  493POPC   C2C25623   1.969  13.072   3.119
  493POPC   C2D25624   2.029  13.212   3.119
  493POPC   C2E25625   1.943  13.313   3.196
  493POPC   C2F25626   1.933  13.281   3.345
  493POPC   C2G25627   1.852  13.389   3.418
  493POPC   C2H25628   1.829  13.349   3.564
  493POPC   C2I25629   1.755  13.457   3.645
  493POPC   C2J25630   1.843  13.580   3.670
  493POPC   C2K25631   1.772  13.679   3.761
  493POPC   C2L25632   1.864  13.797   3.796
  493POPC   C2M25633   1.796  13.892   3.895
  493POPC   C2N25634   1.891  14.004   3.937
  493POPC   C2O25635   1.825  14.095   4.041
  493POPC   C2P25636   1.921  14.207   4.084
  494POPC   CN125637   0.985  14.323   2.050
  494POPC   CN225638   0.983  14.092   1.986
  494POPC   CN325639   1.072  14.155   2.197
  494POPC   NTM25640   0.967  14.185   2.099
  494POPC    CA25641   0.830  14.163   2.153
  494POPC    CB25642   0.773  14.252   2.267
  494POPC    OA25643   0.857  14.260   2.381
  494POPC     P25644   0.775  14.294   2.509
  494POPC    OB25645   0.737  14.434   2.494
  494POPC    OC25646   0.675  14.188   2.528
  494POPC    OD25647   0.886  14.280   2.620
  494POPC    CC25648   0.951  14.153   2.616
  494POPC    CD25649   1.004  14.099   2.750
  494POPC    OE25650   0.909  14.012   2.817
  494POPC   C1A25651   0.950  13.888   2.843
  494POPC    OF25652   1.043  13.837   2.780
  494POPC   C1B25653   0.862  13.816   2.938
  494POPC   C1C25654   0.907  13.846   3.082
  494POPC   C1D25655   0.832  13.761   3.184
  494POPC   C1E25656   0.878  13.797   3.325
  494POPC   C1F25657   0.823  13.701   3.429
  494POPC   C1G25658   0.865  13.747   3.569
  494POPC   C1H25659   0.825  13.644   3.675
  494POPC   C1I25660   0.857  13.697   3.815
  494POPC   C1J25661   0.885  13.611   3.913
  494POPC   C1K25662   0.889  13.461   3.884
  494POPC   C1L25663   0.974  13.390   3.990
  494POPC   C1M25664   0.983  13.239   3.963
  494POPC   C1N25665   1.055  13.166   4.077
  494POPC   C1O25666   0.973  13.166   4.206
  494POPC   C1P25667   1.047  13.096   4.320
  494POPC   C1Q25668   0.963  13.096   4.447
  494POPC   C1R25669   1.038  13.029   4.563
  494POPC    CE25670   1.055  14.222   2.828
  494POPC    OG25671   1.117  14.205   2.956
  494POPC   C2A25672   1.150  14.316   3.021
  494POPC    OH25673   1.131  14.427   2.970
  494POPC   C2B25674   1.212  14.292   3.153
  494POPC   C2C25675   1.116  14.306   3.273
  494POPC   C2D25676   1.010  14.195   3.278
  494POPC   C2E25677   0.926  14.201   3.407
  494POPC   C2F25678   1.006  14.157   3.530
  494POPC   C2G25679   0.920  14.161   3.656
  494POPC   C2H25680   0.999  14.111   3.778
  494POPC   C2I25681   0.917  14.120   3.906
  494POPC   C2J25682   1.000  14.074   4.027
  494POPC   C2K25683   0.929  14.105   4.159
  494POPC   C2L25684   0.813  14.009   4.191
  494POPC   C2M25685   0.862  13.879   4.254
  494POPC   C2N25686   0.742  13.793   4.297
  494POPC   C2O25687   0.782  13.675   4.386
  494POPC   C2P25688   0.860  13.567   4.310
  495POPC   CN125689   0.940  14.797   2.624
  495POPC   CN225690   1.176  14.767   2.639
  495POPC   CN325691   1.025  14.592   2.706
  495POPC   NTM25692   1.049  14.700   2.608
  495POPC    CA25693   1.046  14.649   2.469
  495POPC    CB25694   1.157  14.555   2.417
  495POPC    OA25695   1.176  14.434   2.490
  495POPC     P25696   1.313  14.364   2.460
  495POPC    OB25697   1.304  14.224   2.503
  495POPC    OC25698   1.360  14.400   2.326
  495POPC    OD25699   1.400  14.446   2.563
  495POPC    CC25700   1.377  14.400   2.696
  495POPC    CD25701   1.490  14.429   2.795
  495POPC    OE25702   1.489  14.343   2.912
  495POPC   C1A25703   1.541  14.221   2.901
  495POPC    OF25704   1.600  14.188   2.798
  495POPC   C1B25705   1.532  14.144   3.028
  495POPC   C1C25706   1.663  14.136   3.109
  495POPC   C1D25707   1.735  14.269   3.134
  495POPC   C1E25708   1.655  14.376   3.209
  495POPC   C1F25709   1.623  14.338   3.354
  495POPC   C1G25710   1.555  14.457   3.424
  495POPC   C1H25711   1.508  14.423   3.565
  495POPC   C1I25712   1.385  14.332   3.564
  495POPC   C1J25713   1.358  14.254   3.668
  495POPC   C1K25714   1.448  14.254   3.791
  495POPC   C1L25715   1.362  14.241   3.917
  495POPC   C1M25716   1.447  14.232   4.044
  495POPC   C1N25717   1.355  14.224   4.165
  495POPC   C1O25718   1.435  14.207   4.295
  495POPC   C1P25719   1.342  14.199   4.417
  495POPC   C1Q25720   1.254  14.073   4.415
  495POPC   C1R25721   1.155  14.076   4.531
  495POPC    CE25722   1.495  14.581   2.820
  495POPC    OG25723   1.373  14.646   2.861
  495POPC   C2A25724   1.366  14.685   2.988
  495POPC    OH25725   1.467  14.689   3.058
  495POPC   C2B25726   1.236  14.747   3.022
  495POPC   C2C25727   1.177  14.702   3.156
  495POPC   C2D25728   1.247  14.761   3.278
  495POPC   C2E25729   1.188  14.703   3.407
  495POPC   C2F25730   1.259  14.761   3.530
  495POPC   C2G25731   1.214  14.694   3.660
  495POPC   C2H25732   1.072  14.733   3.703
  495POPC   C2I25733   1.036  14.660   3.832
  495POPC   C2J25734   0.900  14.704   3.885
  495POPC   C2K25735   0.864  14.625   4.011
  495POPC   C2L25736   0.729  14.670   4.068
  495POPC   C2M25737   0.688  14.589   4.191
  495POPC   C2N25738   0.654  14.444   4.157
  495POPC   C2O25739   0.614  14.362   4.281
  495POPC   C2P25740   0.481  14.408   4.341
  496POPC   CN125741   1.619  14.764   2.508
  496POPC   CN225742   1.754  14.800   2.314
  496POPC   CN325743   1.745  14.586   2.417
  496POPC   NTM25744   1.665  14.704   2.382
  496POPC    CA25745   1.553  14.662   2.295
  496POPC    CB25746   1.451  14.764   2.239
  496POPC    OA25747   1.378  14.836   2.338
  496POPC     P25748   1.277  14.936   2.272
  496POPC    OB25749   1.358  15.030   2.192
  496POPC    OC25750   1.174  14.852   2.208
  496POPC    OD25751   1.220  15.001   2.402
  496POPC    CC25752   1.299  15.113   2.443
  496POPC    CD25753   1.282  15.156   2.590
  496POPC    OE25754   1.368  15.083   2.681
  496POPC   C1A25755   1.491  15.129   2.706
  496POPC    OF25756   1.537  15.225   2.643
  496POPC   C1B25757   1.565  15.043   2.802
  496POPC   C1C25758   1.635  15.122   2.913
  496POPC   C1D25759   1.537  15.184   3.012
  496POPC   C1E25760   1.613  15.264   3.118
  496POPC   C1F25761   1.517  15.329   3.219
  496POPC   C1G25762   1.595  15.418   3.315
  496POPC   C1H25763   1.503  15.494   3.411
  496POPC   C1I25764   1.584  15.595   3.492
  496POPC   C1J25765   1.548  15.631   3.615
  496POPC   C1K25766   1.422  15.572   3.680
  496POPC   C1L25767   1.363  15.662   3.788
  496POPC   C1M25768   1.454  15.676   3.911
  496POPC   C1N25769   1.385  15.759   4.020
  496POPC   C1O25770   1.475  15.778   4.142
  496POPC   C1P25771   1.404  15.860   4.249
  496POPC   C1Q25772   1.495  15.885   4.369
  496POPC   C1R25773   1.425  15.971   4.474
  496POPC    CE25774   1.131  15.156   2.621
  496POPC    OG25775   1.094  15.209   2.749
  496POPC   C2A25776   1.086  15.126   2.852
  496POPC    OH25777   1.074  15.005   2.835
  496POPC   C2B25778   1.062  15.200   2.978
  496POPC   C2C25779   1.119  15.132   3.102
  496POPC   C2D25780   1.086  15.217   3.225
  496POPC   C2E25781   1.112  15.143   3.356
  496POPC   C2F25782   1.070  15.230   3.474
  496POPC   C2G25783   1.070  15.151   3.605
  496POPC   C2H25784   1.026  15.242   3.720
  496POPC   C2I25785   1.013  15.165   3.852
  496POPC   C2J25786   0.966  15.258   3.963
  496POPC   C2K25787   0.941  15.182   4.093
  496POPC   C2L25788   0.885  15.277   4.200
  496POPC   C2M25789   0.847  15.200   4.327
  496POPC   C2N25790   0.788  15.291   4.435
  496POPC   C2O25791   0.653  15.351   4.394
  496POPC   C2P25792   0.599  15.445   4.502
  497POPC   CN125793   1.802  15.416   2.722
  497POPC   CN225794   1.903  15.253   2.582
  497POPC   CN325795   1.836  15.457   2.487
  497POPC   NTM25796   1.893  15.397   2.608
  497POPC    CA25797   2.029  15.451   2.637
  497POPC    CB25798   2.048  15.601   2.673
  497POPC    OA25799   1.996  15.693   2.577
  497POPC     P25800   2.022  15.841   2.623
  497POPC    OB25801   1.985  15.849   2.764
  497POPC    OC25802   2.156  15.872   2.574
  497POPC    OD25803   1.912  15.897   2.526
  497POPC    CC25804   1.786  15.913   2.592
  497POPC    CD25805   1.670  15.949   2.496
  497POPC    OE25806   1.576  16.048   2.548
  497POPC   C1A25807   1.618  16.173   2.570
  497POPC    OF25808   1.719  16.215   2.512
  497POPC   C1B25809   1.518  16.259   2.637
  497POPC   C1C25810   1.530  16.255   2.789
  497POPC   C1D25811   1.422  16.345   2.849
  497POPC   C1E25812   1.421  16.338   3.001
  497POPC   C1F25813   1.306  16.424   3.055
  497POPC   C1G25814   1.291  16.416   3.207
  497POPC   C1H25815   1.411  16.476   3.281
  497POPC   C1I25816   1.381  16.482   3.431
  497POPC   C1J25817   1.480  16.478   3.519
  497POPC   C1K25818   1.626  16.466   3.473
  497POPC   C1L25819   1.722  16.539   3.567
  497POPC   C1M25820   1.730  16.474   3.705
  497POPC   C1N25821   1.813  16.560   3.800
  497POPC   C1O25822   1.813  16.500   3.941
  497POPC   C1P25823   1.886  16.588   4.042
  497POPC   C1Q25824   1.811  16.719   4.067
  497POPC   C1R25825   1.884  16.805   4.171
  497POPC    CE25826   1.611  15.814   2.449
  497POPC    OG25827   1.569  15.727   2.556
  497POPC   C2A25828   1.489  15.624   2.528
  497POPC    OH25829   1.487  15.575   2.415
  497POPC   C2B25830   1.438  15.555   2.649
  497POPC   C2C25831   1.384  15.649   2.758
  497POPC   C2D25832   1.338  15.571   2.881
  497POPC   C2E25833   1.273  15.668   2.980
  497POPC   C2F25834   1.220  15.598   3.105
  497POPC   C2G25835   1.161  15.703   3.200
  497POPC   C2H25836   1.113  15.642   3.331
  497POPC   C2I25837   1.072  15.755   3.426
  497POPC   C2J25838   1.029  15.706   3.564
  497POPC   C2K25839   0.891  15.639   3.564
  497POPC   C2L25840   0.850  15.608   3.708
  497POPC   C2M25841   0.703  15.565   3.718
  497POPC   C2N25842   0.665  15.549   3.866
  497POPC   C2O25843   0.516  15.520   3.881
  497POPC   C2P25844   0.480  15.504   4.029
  498POPC   CN125845   2.575   0.717   2.603
  498POPC   CN225846   2.363   0.733   2.715
  498POPC   CN325847   2.487   0.929   2.665
  498POPC   NTM25848   2.452   0.796   2.616
  498POPC    CA25849   2.387   0.812   2.484
  498POPC    CB25850   2.313   0.696   2.414
  498POPC    OA25851   2.381   0.571   2.395
  498POPC     P25852   2.274   0.458   2.366
  498POPC    OB25853   2.171   0.517   2.280
  498POPC    OC25854   2.352   0.339   2.324
  498POPC    OD25855   2.230   0.443   2.516
  498POPC    CC25856   2.316   0.356   2.588
  498POPC    CD25857   2.287   0.351   2.739
  498POPC    OE25858   2.388   0.279   2.815
  498POPC   C1A25859   2.480   0.352   2.878
  498POPC    OF25860   2.509   0.464   2.835
  498POPC   C1B25861   2.558   0.273   2.975
  498POPC   C1C25862   2.682   0.343   3.031
  498POPC   C1D25863   2.756   0.254   3.131
  498POPC   C1E25864   2.821   0.133   3.062
  498POPC   C1F25865   2.873   0.031   3.164
  498POPC   C1G25866   2.758  16.942   3.235
  498POPC   C1H25867   2.812  16.851   3.346
  498POPC   C1I25868   2.700  16.779   3.420
  498POPC   C1J25869   2.697  16.783   3.553
  498POPC   C1K25870   2.804  16.865   3.626
  498POPC   C1L25871   2.842  16.804   3.761
  498POPC   C1M25872   2.951  16.890   3.826
  498POPC   C1N25873   2.997  16.831   3.959
  498POPC   C1O25874   3.107  16.920   4.020
  498POPC   C1P25875   3.163  16.860   4.148
  498POPC   C1Q25876   3.277  16.947   4.201
  498POPC   C1R25877   3.343  16.883   4.324
  498POPC    CE25878   2.141   0.305   2.751
  498POPC    OG25879   2.080   0.317   2.880
  498POPC   C2A25880   1.948   0.324   2.882
  498POPC    OH25881   1.885   0.360   2.782
  498POPC   C2B25882   1.891   0.309   3.018
  498POPC   C2C25883   1.868   0.161   3.050
  498POPC   C2D25884   1.815   0.140   3.192
  498POPC   C2E25885   1.916   0.181   3.299
  498POPC   C2F25886   1.860   0.156   3.439
  498POPC   C2G25887   1.962   0.195   3.546
  498POPC   C2H25888   1.908   0.165   3.686
  498POPC   C2I25889   2.010   0.205   3.793
  498POPC   C2J25890   1.959   0.171   3.933
  498POPC   C2K25891   2.056   0.215   4.043
  498POPC   C2L25892   2.188   0.138   4.039
  498POPC   C2M25893   2.281   0.184   4.152
  498POPC   C2N25894   2.416   0.112   4.150
  498POPC   C2O25895   2.500   0.150   4.027
  498POPC   C2P25896   2.635   0.079   4.029
  499POPC   CN125897   1.926   0.562   2.524
  499POPC   CN225898   1.698   0.505   2.488
  499POPC   CN325899   1.794   0.691   2.373
  499POPC   NTM25900   1.820   0.555   2.423
  499POPC    CA25901   1.861   0.472   2.308
  499POPC    CB25902   1.886   0.320   2.320
  499POPC    OA25903   1.974   0.280   2.425
  499POPC     P25904   2.015   0.129   2.417
  499POPC    OB25905   2.045   0.103   2.276
  499POPC    OC25906   2.117   0.102   2.521
  499POPC    OD25907   1.880   0.062   2.462
  499POPC    CC25908   1.848   0.090   2.598
  499POPC    CD25909   1.710   0.039   2.639
  499POPC    OE25910   1.643   0.120   2.740
  499POPC   C1A25911   1.578   0.230   2.700
  499POPC    OF25912   1.547   0.243   2.581
  499POPC   C1B25913   1.541   0.321   2.811
  499POPC   C1C25914   1.409   0.282   2.879
  499POPC   C1D25915   1.427   0.268   3.031
  499POPC   C1E25916   1.452   0.399   3.105
  499POPC   C1F25917   1.490   0.371   3.251
  499POPC   C1G25918   1.505   0.500   3.331
  499POPC   C1H25919   1.577   0.482   3.465
  499POPC   C1I25920   1.500   0.399   3.568
  499POPC   C1J25921   1.439   0.455   3.672
  499POPC   C1K25922   1.442   0.607   3.695
  499POPC   C1L25923   1.417   0.641   3.841
  499POPC   C1M25924   1.407   0.793   3.859
  499POPC   C1N25925   1.382   0.835   4.004
  499POPC   C1O25926   1.505   0.814   4.093
  499POPC   C1P25927   1.479   0.863   4.236
  499POPC   C1Q25928   1.604   0.846   4.322
  499POPC   C1R25929   1.578   0.892   4.466
  499POPC    CE25930   1.728  16.872   2.667
  499POPC    OG25931   1.813  16.836   2.777
  499POPC   C2A25932   1.835  16.706   2.794
  499POPC    OH25933   1.804  16.623   2.708
  499POPC   C2B25934   1.909  16.675   2.919
  499POPC   C2C25935   1.815  16.625   3.029
  499POPC   C2D25936   1.891  16.589   3.156
  499POPC   C2E25937   1.943  16.712   3.231
  499POPC   C2F25938   2.029  16.668   3.349
  499POPC   C2G25939   2.073  16.786   3.436
  499POPC   C2H25940   2.169  16.737   3.545
  499POPC   C2I25941   2.210  16.849   3.641
  499POPC   C2J25942   2.314  16.803   3.742
  499POPC   C2K25943   2.261  16.693   3.835
  499POPC   C2L25944   2.370  16.641   3.929
  499POPC   C2M25945   2.317  16.523   4.010
  499POPC   C2N25946   2.426  16.467   4.102
  499POPC   C2O25947   2.373  16.344   4.177
  499POPC   C2P25948   2.479  16.289   4.273
  500POPC   CN125949   2.729   1.261   1.926
  500POPC   CN225950   2.502   1.221   1.884
  500POPC   CN325951   2.640   1.045   1.969
  500POPC   NTM25952   2.612   1.189   1.976
  500POPC    CA25953   2.586   1.234   2.115
  500POPC    CB25954   2.467   1.175   2.196
  500POPC    OA25955   2.338   1.191   2.136
  500POPC     P25956   2.234   1.086   2.191
  500POPC    OB25957   2.122   1.080   2.096
  500POPC    OC25958   2.305   0.963   2.224
  500POPC    OD25959   2.196   1.156   2.325
  500POPC    CC25960   2.090   1.088   2.392
  500POPC    CD25961   2.094   1.104   2.545
  500POPC    OE25962   1.981   1.040   2.612
  500POPC   C1A25963   1.990   0.914   2.651
  500POPC    OF25964   2.085   0.844   2.617
  500POPC   C1B25965   1.867   0.866   2.718
  500POPC   C1C25966   1.896   0.778   2.839
  500POPC   C1D25967   1.772   0.703   2.890
  500POPC   C1E25968   1.656   0.792   2.938
  500POPC   C1F25969   1.687   0.873   3.065
  500POPC   C1G25970   1.711   0.786   3.189
  500POPC   C1H25971   1.724   0.868   3.317
  500POPC   C1I25972   1.852   0.953   3.322
  500POPC   C1J25973   1.893   1.005   3.437
  500POPC   C1K25974   1.814   0.983   3.566
  500POPC   C1L25975   1.821   1.107   3.655
  500POPC   C1M25976   1.753   1.084   3.790
  500POPC   C1N25977   1.759   1.212   3.874
  500POPC   C1O25978   1.692   1.193   4.010
  500POPC   C1P25979   1.695   1.323   4.090
  500POPC   C1Q25980   1.626   1.306   4.226
  500POPC   C1R25981   1.627   1.437   4.305
  500POPC    CE25982   2.105   1.255   2.573
  500POPC    OG25983   2.148   1.294   2.705
  500POPC   C2A25984   2.279   1.307   2.728
  500POPC    OH25985   2.362   1.285   2.640
  500POPC   C2B25986   2.311   1.347   2.868
  500POPC   C2C25987   2.360   1.229   2.953
  500POPC   C2D25988   2.250   1.125   2.976
  500POPC   C2E25989   2.301   1.005   3.056
  500POPC   C2F25990   2.188   0.903   3.068
  500POPC   C2G25991   2.233   0.777   3.142
  500POPC   C2H25992   2.119   0.674   3.144
  500POPC   C2I25993   2.157   0.547   3.220
  500POPC   C2J25994   2.168   0.569   3.371
  500POPC   C2K25995   2.032   0.588   3.440
  500POPC   C2L25996   2.053   0.604   3.590
  500POPC   C2M25997   1.921   0.610   3.667
  500POPC   C2N25998   1.949   0.617   3.817
  500POPC   C2O25999   1.820   0.615   3.898
  500POPC   C2P26000   1.851   0.617   4.048
  501POPC   CN126001   2.777   2.679   2.528
  501POPC   CN226002   2.604   2.837   2.479
  501POPC   CN326003   2.834   2.897   2.457
  501POPC   NTM26004   2.737   2.788   2.439
  501POPC    CA26005   2.741   2.750   2.296
  501POPC    CB26006   2.650   2.640   2.238
  501POPC    OA26007   2.509   2.661   2.248
  501POPC     P26008   2.429   2.560   2.159
  501POPC    OB26009   2.294   2.615   2.136
  501POPC    OC26010   2.510   2.519   2.044
  501POPC    OD26011   2.421   2.437   2.255
  501POPC    CC26012   2.321   2.449   2.356
  501POPC    CD26013   2.333   2.346   2.469
  501POPC    OE26014   2.217   2.345   2.556
  501POPC   C1A26015   2.173   2.226   2.595
  501POPC    OF26016   2.168   2.135   2.511
  501POPC   C1B26017   2.095   2.230   2.721
  501POPC   C1C26018   2.189   2.219   2.842
  501POPC   C1D26019   2.116   2.239   2.974
  501POPC   C1E26020   2.217   2.247   3.089
  501POPC   C1F26021   2.148   2.269   3.223
  501POPC   C1G26022   2.252   2.297   3.332
  501POPC   C1H26023   2.186   2.322   3.468
  501POPC   C1I26024   2.292   2.372   3.566
  501POPC   C1J26025   2.279   2.357   3.698
  501POPC   C1K26026   2.157   2.289   3.761
  501POPC   C1L26027   2.131   2.349   3.899
  501POPC   C1M26028   2.017   2.281   3.975
  501POPC   C1N26029   2.054   2.140   4.020
  501POPC   C1O26030   1.939   2.076   4.098
  501POPC   C1P26031   1.978   1.936   4.145
  501POPC   C1Q26032   1.863   1.869   4.220
  501POPC   C1R26033   1.900   1.727   4.262
  501POPC    CE26034   2.464   2.382   2.542
  501POPC    OG26035   2.491   2.312   2.665
  501POPC   C2A26036   2.575   2.370   2.749
  501POPC    OH26037   2.628   2.478   2.722
  501POPC   C2B26038   2.590   2.297   2.877
  501POPC   C2C26039   2.735   2.301   2.928
  501POPC   C2D26040   2.750   2.237   3.067
  501POPC   C2E26041   2.689   2.323   3.178
  501POPC   C2F26042   2.720   2.263   3.315
  501POPC   C2G26043   2.670   2.352   3.429
  501POPC   C2H26044   2.716   2.296   3.564
  501POPC   C2I26045   2.678   2.389   3.680
  501POPC   C2J26046   2.742   2.345   3.812
  501POPC   C2K26047   2.684   2.215   3.869
  501POPC   C2L26048   2.549   2.238   3.938
  501POPC   C2M26049   2.487   2.109   3.992
  501POPC   C2N26050   2.571   2.044   4.103
  501POPC   C2O26051   2.507   1.915   4.157
  501POPC   C2P26052   2.377   1.941   4.233
  502POPC   CN126053   3.072   3.514   1.927
  502POPC   CN226054   3.307   3.529   1.891
  502POPC   CN326055   3.182   3.720   1.959
  502POPC   NTM26056   3.196   3.575   1.975
  502POPC    CA26057   3.221   3.549   2.119
  502POPC    CB26058   3.234   3.405   2.173
  502POPC    OA26059   3.118   3.326   2.150
  502POPC     P26060   3.119   3.186   2.220
  502POPC    OB26061   3.013   3.111   2.151
  502POPC    OC26062   3.258   3.138   2.220
  502POPC    OD26063   3.079   3.233   2.364
  502POPC    CC26064   2.941   3.269   2.374
  502POPC    CD26065   2.895   3.304   2.517
  502POPC    OE26066   2.754   3.339   2.518
  502POPC   C1A26067   2.668   3.244   2.554
  502POPC    OF26068   2.707   3.142   2.611
  502POPC   C1B26069   2.527   3.284   2.532
  502POPC   C1C26070   2.429   3.221   2.632
  502POPC   C1D26071   2.449   3.277   2.773
  502POPC   C1E26072   2.363   3.200   2.874
  502POPC   C1F26073   2.391   3.251   3.015
  502POPC   C1G26074   2.315   3.167   3.118
  502POPC   C1H26075   2.341   3.214   3.262
  502POPC   C1I26076   2.276   3.349   3.292
  502POPC   C1J26077   2.325   3.427   3.388
  502POPC   C1K26078   2.446   3.384   3.471
  502POPC   C1L26079   2.405   3.353   3.615
  502POPC   C1M26080   2.526   3.323   3.702
  502POPC   C1N26081   2.482   3.304   3.847
  502POPC   C1O26082   2.603   3.295   3.941
  502POPC   C1P26083   2.556   3.286   4.086
  502POPC   C1Q26084   2.675   3.291   4.182
  502POPC   C1R26085   2.628   3.287   4.327
  502POPC    CE26086   2.990   3.413   2.571
  502POPC    OG26087   2.983   3.441   2.713
  502POPC   C2A26088   2.890   3.527   2.754
  502POPC    OH26089   2.829   3.598   2.675
  502POPC   C2B26090   2.884   3.543   2.901
  502POPC   C2C26091   2.780   3.450   2.965
  502POPC   C2D26092   2.749   3.489   3.109
  502POPC   C2E26093   2.870   3.476   3.202
  502POPC   C2F26094   2.837   3.524   3.344
  502POPC   C2G26095   2.952   3.486   3.438
  502POPC   C2H26096   2.933   3.536   3.581
  502POPC   C2I26097   2.957   3.687   3.594
  502POPC   C2J26098   2.968   3.725   3.741
  502POPC   C2K26099   2.996   3.874   3.759
  502POPC   C2L26100   3.020   3.905   3.907
  502POPC   C2M26101   3.050   4.053   3.930
  502POPC   C2N26102   3.085   4.083   4.076
  502POPC   C2O26103   2.967   4.062   4.170
  502POPC   C2P26104   3.007   4.091   4.315
  503POPC   CN126105   2.031   5.118   1.892
  503POPC   CN226106   2.163   5.306   1.949
  503POPC   CN326107   2.259   5.090   1.961
  503POPC   NTM26108   2.166   5.175   1.884
  503POPC    CA26109   2.211   5.193   1.744
  503POPC    CB26110   2.219   5.071   1.649
  503POPC    OA26111   2.302   4.964   1.693
  503POPC     P26112   2.311   4.852   1.585
  503POPC    OB26113   2.173   4.802   1.569
  503POPC    OC26114   2.382   4.921   1.477
  503POPC    OD26115   2.407   4.750   1.655
  503POPC    CC26116   2.345   4.678   1.761
  503POPC    CD26117   2.444   4.581   1.827
  503POPC    OE26118   2.390   4.481   1.918
  503POPC   C1A26119   2.334   4.370   1.871
  503POPC    OF26120   2.336   4.346   1.749
  503POPC   C1B26121   2.298   4.275   1.978
  503POPC   C1C26122   2.161   4.305   2.039
  503POPC   C1D26123   2.138   4.234   2.173
  503POPC   C1E26124   2.228   4.293   2.283
  503POPC   C1F26125   2.209   4.226   2.420
  503POPC   C1G26126   2.072   4.250   2.482
  503POPC   C1H26127   2.065   4.198   2.626
  503POPC   C1I26128   2.065   4.045   2.636
  503POPC   C1J26129   2.023   3.983   2.746
  503POPC   C1K26130   1.974   4.062   2.868
  503POPC   C1L26131   1.821   4.062   2.877
  503POPC   C1M26132   1.769   4.150   2.991
  503POPC   C1N26133   1.798   4.090   3.129
  503POPC   C1O26134   1.740   4.178   3.239
  503POPC   C1P26135   1.762   4.116   3.377
  503POPC   C1Q26136   1.701   4.203   3.487
  503POPC   C1R26137   1.715   4.137   3.624
  503POPC    CE26138   2.555   4.669   1.888
  503POPC    OG26139   2.521   4.764   1.991
  503POPC   C2A26140   2.623   4.834   2.041
  503POPC    OH26141   2.735   4.827   1.990
  503POPC   C2B26142   2.587   4.914   2.161
  503POPC   C2C26143   2.709   4.936   2.251
  503POPC   C2D26144   2.677   5.005   2.384
  503POPC   C2E26145   2.619   4.907   2.487
  503POPC   C2F26146   2.609   4.976   2.623
  503POPC   C2G26147   2.571   4.878   2.734
  503POPC   C2H26148   2.571   4.950   2.870
  503POPC   C2I26149   2.549   4.855   2.988
  503POPC   C2J26150   2.408   4.794   2.990
  503POPC   C2K26151   2.386   4.700   3.109
  503POPC   C2L26152   2.387   4.774   3.243
  503POPC   C2M26153   2.363   4.677   3.359
  503POPC   C2N26154   2.363   4.752   3.493
  503POPC   C2O26155   2.340   4.655   3.609
  503POPC   C2P26156   2.339   4.730   3.743
  504POPC   CN126157   2.695   5.398   1.652
  504POPC   CN226158   2.679   5.466   1.426
  504POPC   CN326159   2.661   5.628   1.599
  504POPC   NTM26160   2.730   5.505   1.558
  504POPC    CA26161   2.877   5.524   1.549
  504POPC    CB26162   2.960   5.543   1.679
  504POPC    OA26163   2.914   5.648   1.766
  504POPC     P26164   2.950   5.621   1.916
  504POPC    OB26165   3.092   5.584   1.923
  504POPC    OC26166   2.898   5.739   1.986
  504POPC    OD26167   2.861   5.493   1.936
  504POPC    CC26168   2.790   5.490   2.059
  504POPC    CD26169   2.751   5.345   2.094
  504POPC    OE26170   2.643   5.330   2.189
  504POPC   C1A26171   2.517   5.331   2.145
  504POPC    OF26172   2.493   5.321   2.024
  504POPC   C1B26173   2.415   5.324   2.253
  504POPC   C1C26174   2.384   5.460   2.315
  504POPC   C1D26175   2.494   5.511   2.410
  504POPC   C1E26176   2.512   5.418   2.530
  504POPC   C1F26177   2.630   5.463   2.617
  504POPC   C1G26178   2.653   5.368   2.736
  504POPC   C1H26179   2.538   5.370   2.838
  504POPC   C1I26180   2.536   5.500   2.919
  504POPC   C1J26181   2.466   5.506   3.032
  504POPC   C1K26182   2.385   5.384   3.078
  504POPC   C1L26183   2.373   5.371   3.230
  504POPC   C1M26184   2.295   5.485   3.296
  504POPC   C1N26185   2.263   5.451   3.442
  504POPC   C1O26186   2.196   5.568   3.514
  504POPC   C1P26187   2.294   5.678   3.555
  504POPC   C1Q26188   2.385   5.632   3.670
  504POPC   C1R26189   2.482   5.743   3.712
  504POPC    CE26190   2.883   5.273   2.126
  504POPC    OG26191   2.958   5.323   2.238
  504POPC   C2A26192   3.079   5.271   2.256
  504POPC    OH26193   3.143   5.228   2.161
  504POPC   C2B26194   3.136   5.303   2.389
  504POPC   C2C26195   3.086   5.205   2.495
  504POPC   C2D26196   3.124   5.252   2.635
  504POPC   C2E26197   3.047   5.171   2.740
  504POPC   C2F26198   3.052   5.237   2.878
  504POPC   C2G26199   2.955   5.165   2.971
  504POPC   C2H26200   2.934   5.241   3.102
  504POPC   C2I26201   2.826   5.172   3.185
  504POPC   C2J26202   2.794   5.249   3.313
  504POPC   C2K26203   2.683   5.177   3.390
  504POPC   C2L26204   2.649   5.249   3.521
  504POPC   C2M26205   2.539   5.173   3.596
  504POPC   C2N26206   2.498   5.243   3.726
  504POPC   C2O26207   2.605   5.241   3.835
  504POPC   C2P26208   2.627   5.100   3.892
  505POPC   CN126209   1.557   5.743   1.368
  505POPC   CN226210   1.792   5.722   1.335
  505POPC   CN326211   1.701   5.921   1.432
  505POPC   NTM26212   1.688   5.775   1.425
  505POPC    CA26213   1.694   5.714   1.560
  505POPC    CB26214   1.821   5.731   1.648
  505POPC    OA26215   1.941   5.672   1.597
  505POPC     P26216   2.067   5.748   1.653
  505POPC    OB26217   2.189   5.691   1.594
  505POPC    OC26218   2.045   5.893   1.649
  505POPC    OD26219   2.057   5.704   1.802
  505POPC    CC26220   2.156   5.767   1.883
  505POPC    CD26221   2.117   5.784   2.030
  505POPC    OE26222   2.233   5.821   2.111
  505POPC   C1A26223   2.211   5.886   2.225
  505POPC    OF26224   2.106   5.948   2.243
  505POPC   C1B26225   2.331   5.892   2.311
  505POPC   C1C26226   2.301   5.894   2.461
  505POPC   C1D26227   2.431   5.886   2.540
  505POPC   C1E26228   2.408   5.902   2.690
  505POPC   C1F26229   2.540   5.887   2.766
  505POPC   C1G26230   2.523   5.925   2.913
  505POPC   C1H26231   2.654   5.910   2.990
  505POPC   C1I26232   2.642   5.971   3.130
  505POPC   C1J26233   2.635   5.898   3.241
  505POPC   C1K26234   2.643   5.745   3.239
  505POPC   C1L26235   2.771   5.690   3.303
  505POPC   C1M26236   2.774   5.715   3.454
  505POPC   C1N26237   2.907   5.670   3.516
  505POPC   C1O26238   2.912   5.711   3.663
  505POPC   C1P26239   3.050   5.683   3.722
  505POPC   C1Q26240   3.060   5.739   3.864
  505POPC   C1R26241   3.198   5.714   3.924
  505POPC    CE26242   2.051   5.652   2.074
  505POPC    OG26243   2.000   5.648   2.209
  505POPC   C2A26244   1.986   5.527   2.263
  505POPC    OH26245   2.028   5.426   2.206
  505POPC   C2B26246   1.937   5.530   2.402
  505POPC   C2C26247   2.054   5.522   2.501
  505POPC   C2D26248   2.006   5.486   2.641
  505POPC   C2E26249   1.966   5.607   2.726
  505POPC   C2F26250   2.085   5.656   2.809
  505POPC   C2G26251   2.036   5.742   2.925
  505POPC   C2H26252   2.148   5.769   3.026
  505POPC   C2I26253   2.092   5.828   3.156
  505POPC   C2J26254   2.043   5.972   3.137
  505POPC   C2K26255   1.958   6.021   3.255
  505POPC   C2L26256   2.032   6.025   3.389
  505POPC   C2M26257   1.939   6.081   3.497
  505POPC   C2N26258   2.003   6.077   3.637
  505POPC   C2O26259   2.016   5.935   3.694
  505POPC   C2P26260   1.879   5.871   3.723
  506POPC   CN126261   2.821   7.296   2.174
  506POPC   CN226262   3.019   7.256   2.045
  506POPC   CN326263   2.873   7.434   1.988
  506POPC   NTM26264   2.931   7.360   2.100
  506POPC    CA26265   3.006   7.458   2.183
  506POPC    CB26266   3.081   7.413   2.311
  506POPC    OA26267   2.997   7.358   2.413
  506POPC     P26268   3.077   7.261   2.509
  506POPC    OB26269   3.192   7.207   2.436
  506POPC    OC26270   3.085   7.335   2.636
  506POPC    OD26271   2.968   7.148   2.512
  506POPC    CC26272   2.866   7.178   2.607
  506POPC    CD26273   2.735   7.100   2.589
  506POPC    OE26274   2.625   7.150   2.670
  506POPC   C1A26275   2.561   7.260   2.631
  506POPC    OF26276   2.589   7.315   2.524
  506POPC   C1B26277   2.459   7.306   2.729
  506POPC   C1C26278   2.461   7.458   2.741
  506POPC   C1D26279   2.385   7.504   2.865
  506POPC   C1E26280   2.404   7.655   2.885
  506POPC   C1F26281   2.364   7.700   3.026
  506POPC   C1G26282   2.457   7.640   3.132
  506POPC   C1H26283   2.417   7.680   3.274
  506POPC   C1I26284   2.460   7.822   3.310
  506POPC   C1J26285   2.479   7.851   3.439
  506POPC   C1K26286   2.457   7.745   3.546
  506POPC   C1L26287   2.541   7.774   3.670
  506POPC   C1M26288   2.511   7.678   3.786
  506POPC   C1N26289   2.561   7.536   3.760
  506POPC   C1O26290   2.525   7.446   3.878
  506POPC   C1P26291   2.580   7.304   3.860
  506POPC   C1Q26292   2.545   7.213   3.978
  506POPC   C1R26293   2.611   7.257   4.109
  506POPC    CE26294   2.767   6.950   2.604
  506POPC    OG26295   2.838   6.911   2.723
  506POPC   C2A26296   2.865   6.781   2.737
  506POPC    OH26297   2.825   6.699   2.654
  506POPC   C2B26298   2.938   6.748   2.861
  506POPC   C2C26299   2.842   6.697   2.968
  506POPC   C2D26300   2.916   6.653   3.094
  506POPC   C2E26301   2.824   6.570   3.183
  506POPC   C2F26302   2.898   6.517   3.306
  506POPC   C2G26303   2.906   6.618   3.420
  506POPC   C2H26304   2.775   6.622   3.498
  506POPC   C2I26305   2.786   6.720   3.615
  506POPC   C2J26306   2.666   6.707   3.709
  506POPC   C2K26307   2.677   6.808   3.823
  506POPC   C2L26308   2.570   6.786   3.930
  506POPC   C2M26309   2.594   6.655   4.007
  506POPC   C2N26310   2.493   6.639   4.120
  506POPC   C2O26311   2.518   6.509   4.197
  506POPC   C2P26312   2.421   6.497   4.314
  507POPC   CN126313   2.547   8.779   1.820
  507POPC   CN226314   2.544   8.776   1.584
  507POPC   CN326315   2.751   8.760   1.699
  507POPC   NTM26316   2.610   8.719   1.702
  507POPC    CA26317   2.599   8.571   1.698
  507POPC    CB26318   2.655   8.484   1.813
  507POPC    OA26319   2.590   8.507   1.937
  507POPC     P26320   2.668   8.457   2.064
  507POPC    OB26321   2.807   8.496   2.036
  507POPC    OC26322   2.584   8.529   2.161
  507POPC    OD26323   2.631   8.306   2.049
  507POPC    CC26324   2.509   8.268   2.114
  507POPC    CD26325   2.484   8.117   2.108
  507POPC    OE26326   2.357   8.072   2.163
  507POPC   C1A26327   2.320   7.946   2.139
  507POPC    OF26328   2.356   7.890   2.035
  507POPC   C1B26329   2.221   7.890   2.234
  507POPC   C1C26330   2.292   7.790   2.327
  507POPC   C1D26331   2.197   7.702   2.408
  507POPC   C1E26332   2.121   7.778   2.517
  507POPC   C1F26333   2.045   7.678   2.604
  507POPC   C1G26334   1.977   7.747   2.723
  507POPC   C1H26335   1.922   7.641   2.819
  507POPC   C1I26336   1.859   7.705   2.942
  507POPC   C1J26337   1.874   7.648   3.062
  507POPC   C1K26338   1.957   7.521   3.076
  507POPC   C1L26339   2.018   7.511   3.216
  507POPC   C1M26340   2.113   7.391   3.224
  507POPC   C1N26341   2.180   7.376   3.361
  507POPC   C1O26342   2.082   7.330   3.470
  507POPC   C1P26343   2.158   7.301   3.600
  507POPC   C1Q26344   2.064   7.246   3.707
  507POPC   C1R26345   2.140   7.213   3.835
  507POPC    CE26346   2.608   8.055   2.177
  507POPC    OG26347   2.618   8.078   2.319
  507POPC   C2A26348   2.710   8.008   2.384
  507POPC    OH26349   2.781   7.925   2.327
  507POPC   C2B26350   2.712   8.034   2.530
  507POPC   C2C26351   2.618   7.941   2.607
  507POPC   C2D26352   2.651   7.939   2.757
  507POPC   C2E26353   2.638   8.076   2.824
  507POPC   C2F26354   2.692   8.071   2.967
  507POPC   C2G26355   2.699   8.210   3.030
  507POPC   C2H26356   2.563   8.264   3.075
  507POPC   C2I26357   2.519   8.210   3.211
  507POPC   C2J26358   2.610   8.260   3.324
  507POPC   C2K26359   2.547   8.234   3.461
  507POPC   C2L26360   2.639   8.285   3.573
  507POPC   C2M26361   2.568   8.292   3.709
  507POPC   C2N26362   2.521   8.156   3.761
  507POPC   C2O26363   2.448   8.172   3.894
  507POPC   C2P26364   2.394   8.038   3.944
  508POPC   CN126365   2.952   8.786   2.331
  508POPC   CN226366   3.175   8.865   2.345
  508POPC   CN326367   3.102   8.698   2.498
  508POPC   NTM26368   3.091   8.745   2.359
  508POPC    CA26369   3.137   8.642   2.264
  508POPC    CB26370   3.059   8.509   2.246
  508POPC    OA26371   3.043   8.430   2.363
  508POPC     P26372   2.948   8.307   2.339
  508POPC    OB26373   2.967   8.257   2.202
  508POPC    OC26374   2.964   8.216   2.453
  508POPC    OD26375   2.812   8.385   2.351
  508POPC    CC26376   2.778   8.410   2.487
  508POPC    CD26377   2.675   8.522   2.509
  508POPC    OE26378   2.679   8.575   2.644
  508POPC   C1A26379   2.730   8.696   2.664
  508POPC    OF26380   2.757   8.770   2.569
  508POPC   C1B26381   2.743   8.730   2.807
  508POPC   C1C26382   2.886   8.706   2.856
  508POPC   C1D26383   2.895   8.719   3.008
  508POPC   C1E26384   2.834   8.598   3.078
  508POPC   C1F26385   2.799   8.628   3.223
  508POPC   C1G26386   2.676   8.720   3.230
  508POPC   C1H26387   2.640   8.761   3.373
  508POPC   C1I26388   2.739   8.863   3.430
  508POPC   C1J26389   2.756   8.870   3.562
  508POPC   C1K26390   2.679   8.774   3.653
  508POPC   C1L26391   2.750   8.760   3.787
  508POPC   C1M26392   2.677   8.660   3.877
  508POPC   C1N26393   2.743   8.656   4.014
  508POPC   C1O26394   2.672   8.554   4.105
  508POPC   C1P26395   2.725   8.560   4.249
  508POPC   C1Q26396   2.685   8.691   4.318
  508POPC   C1R26397   2.733   8.694   4.463
  508POPC    CE26398   2.539   8.473   2.457
  508POPC    OG26399   2.486   8.353   2.515
  508POPC   C2A26400   2.361   8.322   2.484
  508POPC    OH26401   2.292   8.393   2.410
  508POPC   C2B26402   2.312   8.200   2.552
  508POPC   C2C26403   2.263   8.236   2.692
  508POPC   C2D26404   2.217   8.113   2.771
  508POPC   C2E26405   2.187   8.152   2.915
  508POPC   C2F26406   2.142   8.031   2.997
  508POPC   C2G26407   2.123   8.068   3.144
  508POPC   C2H26408   2.082   7.945   3.224
  508POPC   C2I26409   2.080   7.974   3.374
  508POPC   C2J26410   2.050   7.845   3.451
  508POPC   C2K26411   2.064   7.865   3.601
  508POPC   C2L26412   2.047   7.731   3.673
  508POPC   C2M26413   2.073   7.745   3.823
  508POPC   C2N26414   2.062   7.609   3.891
  508POPC   C2O26415   2.088   7.615   4.042
  508POPC   C2P26416   2.233   7.649   4.075
  509POPC   CN126417   3.034   9.496   1.678
  509POPC   CN226418   3.259   9.556   1.624
  509POPC   CN326419   3.118   9.713   1.733
  509POPC   NTM26420   3.152   9.570   1.723
  509POPC    CA26421   3.203   9.517   1.852
  509POPC    CB26422   3.109   9.501   1.974
  509POPC    OA26423   3.039   9.620   2.007
  509POPC     P26424   2.972   9.617   2.147
  509POPC    OB26425   3.051   9.533   2.237
  509POPC    OC26426   2.942   9.758   2.176
  509POPC    OD26427   2.839   9.541   2.112
  509POPC    CC26428   2.753   9.559   2.224
  509POPC    CD26429   2.632   9.466   2.235
  509POPC    OE26430   2.532   9.525   2.323
  509POPC   C1A26431   2.420   9.461   2.356
  509POPC    OF26432   2.378   9.369   2.284
  509POPC   C1B26433   2.344   9.528   2.463
  509POPC   C1C26434   2.394   9.485   2.601
  509POPC   C1D26435   2.326   9.561   2.716
  509POPC   C1E26436   2.364   9.709   2.722
  509POPC   C1F26437   2.326   9.766   2.859
  509POPC   C1G26438   2.371   9.911   2.875
  509POPC   C1H26439   2.351   9.957   3.019
  509POPC   C1I26440   2.381  10.106   3.035
  509POPC   C1J26441   2.432  10.154   3.148
  509POPC   C1K26442   2.463  10.062   3.265
  509POPC   C1L26443   2.567  10.127   3.358
  509POPC   C1M26444   2.601  10.034   3.475
  509POPC   C1N26445   2.707  10.098   3.564
  509POPC   C1O26446   2.750  10.003   3.676
  509POPC   C1P26447   2.860  10.063   3.765
  509POPC   C1Q26448   2.991  10.086   3.688
  509POPC   C1R26449   3.100  10.141   3.781
  509POPC    CE26450   2.689   9.326   2.268
  509POPC    OG26451   2.768   9.320   2.387
  509POPC   C2A26452   2.833   9.206   2.411
  509POPC    OH26453   2.830   9.112   2.331
  509POPC   C2B26454   2.910   9.210   2.538
  509POPC   C2C26455   2.937   9.070   2.594
  509POPC   C2D26456   3.025   9.073   2.719
  509POPC   C2E26457   2.950   9.129   2.840
  509POPC   C2F26458   3.039   9.128   2.964
  509POPC   C2G26459   2.960   9.174   3.087
  509POPC   C2H26460   3.049   9.176   3.212
  509POPC   C2I26461   2.965   9.214   3.334
  509POPC   C2J26462   3.051   9.218   3.460
  509POPC   C2K26463   2.964   9.249   3.582
  509POPC   C2L26464   3.047   9.257   3.710
  509POPC   C2M26465   2.955   9.284   3.829
  509POPC   C2N26466   3.034   9.300   3.959
  509POPC   C2O26467   2.938   9.328   4.074
  509POPC   C2P26468   3.013   9.352   4.204
  510POPC   CN126469   2.880  11.410   1.872
  510POPC   CN226470   3.108  11.458   1.822
  510POPC   CN326471   3.037  11.459   2.047
  510POPC   NTM26472   3.019  11.392   1.918
  510POPC    CA26473   3.057  11.248   1.921
  510POPC    CB26474   2.978  11.148   2.009
  510POPC    OA26475   2.974  11.183   2.147
  510POPC     P26476   2.902  11.074   2.234
  510POPC    OB26477   2.768  11.072   2.172
  510POPC    OC26478   3.000  10.966   2.220
  510POPC    OD26479   2.917  11.163   2.362
  510POPC    CC26480   2.803  11.248   2.382
  510POPC    CD26481   2.812  11.346   2.502
  510POPC    OE26482   2.884  11.471   2.477
  510POPC   C1A26483   2.811  11.581   2.452
  510POPC    OF26484   2.691  11.573   2.423
  510POPC   C1B26485   2.889  11.707   2.450
  510POPC   C1C26486   2.983  11.726   2.569
  510POPC   C1D26487   3.048  11.865   2.566
  510POPC   C1E26488   3.159  11.881   2.670
  510POPC   C1F26489   3.109  11.868   2.815
  510POPC   C1G26490   3.224  11.892   2.914
  510POPC   C1H26491   3.176  11.875   3.058
  510POPC   C1I26492   3.286  11.915   3.157
  510POPC   C1J26493   3.294  11.859   3.277
  510POPC   C1K26494   3.195  11.752   3.322
  510POPC   C1L26495   3.184  11.750   3.475
  510POPC   C1M26496   3.102  11.631   3.524
  510POPC   C1N26497   3.101  11.626   3.677
  510POPC   C1O26498   3.038  11.498   3.733
  510POPC   C1P26499   2.888  11.485   3.702
  510POPC   C1Q26500   2.826  11.360   3.765
  510POPC   C1R26501   2.822  11.367   3.918
  510POPC    CE26502   2.865  11.265   2.622
  510POPC    OG26503   2.776  11.164   2.672
  510POPC   C2A26504   2.824  11.087   2.769
  510POPC    OH26505   2.938  11.104   2.815
  510POPC   C2B26506   2.728  10.984   2.815
  510POPC   C2C26507   2.800  10.864   2.877
  510POPC   C2D26508   2.703  10.763   2.937
  510POPC   C2E26509   2.779  10.659   3.019
  510POPC   C2F26510   2.684  10.558   3.083
  510POPC   C2G26511   2.758  10.463   3.178
  510POPC   C2H26512   2.799  10.531   3.308
  510POPC   C2I26513   2.880  10.435   3.395
  510POPC   C2J26514   2.911  10.494   3.533
  510POPC   C2K26515   2.786  10.501   3.621
  510POPC   C2L26516   2.813  10.558   3.761
  510POPC   C2M26517   2.905  10.469   3.845
  510POPC   C2N26518   2.918  10.517   3.990
  510POPC   C2O26519   2.987  10.652   4.003
  510POPC   C2P26520   3.002  10.692   4.150
  511POPC   CN126521   1.297  12.310   2.627
  511POPC   CN226522   1.183  12.105   2.637
  511POPC   CN326523   1.307  12.156   2.442
  511POPC   NTM26524   1.305  12.168   2.588
  511POPC    CA26525   1.421  12.100   2.650
  511POPC    CB26526   1.563  12.139   2.604
  511POPC    OA26527   1.596  12.277   2.617
  511POPC     P26528   1.729  12.317   2.547
  511POPC    OB26529   1.725  12.251   2.415
  511POPC    OC26530   1.728  12.464   2.561
  511POPC    OD26531   1.827  12.247   2.649
  511POPC    CC26532   1.846  12.326   2.767
  511POPC    CD26533   1.839  12.249   2.900
  511POPC    OE26534   1.861  12.335   3.015
  511POPC   C1A26535   1.764  12.340   3.105
  511POPC    OF26536   1.647  12.331   3.068
  511POPC   C1B26537   1.807  12.395   3.236
  511POPC   C1C26538   1.737  12.327   3.354
  511POPC   C1D26539   1.786  12.381   3.488
  511POPC   C1E26540   1.934  12.346   3.513
  511POPC   C1F26541   1.985  12.402   3.646
  511POPC   C1G26542   1.922  12.339   3.771
  511POPC   C1H26543   1.982  12.205   3.815
  511POPC   C1I26544   1.930  12.082   3.740
  511POPC   C1J26545   1.914  11.969   3.806
  511POPC   C1K26546   1.944  11.966   3.956
  511POPC   C1L26547   2.007  11.834   4.000
  511POPC   C1M26548   2.052  11.839   4.147
  511POPC   C1N26549   2.163  11.942   4.168
  511POPC   C1O26550   2.203  11.953   4.315
  511POPC   C1P26551   2.308  12.064   4.332
  511POPC   C1Q26552   2.356  12.073   4.476
  511POPC   C1R26553   2.465  12.181   4.489
  511POPC    CE26554   1.939  12.132   2.889
  511POPC    OG26555   1.946  12.044   3.003
  511POPC   C2A26556   2.023  11.937   2.991
  511POPC    OH26557   2.086  11.913   2.888
  511POPC   C2B26558   2.029  11.856   3.115
  511POPC   C2C26559   2.162  11.875   3.187
  511POPC   C2D26560   2.174  11.784   3.310
  511POPC   C2E26561   2.082  11.830   3.424
  511POPC   C2F26562   2.070  11.726   3.536
  511POPC   C2G26563   2.203  11.696   3.606
  511POPC   C2H26564   2.180  11.600   3.723
  511POPC   C2I26565   2.311  11.561   3.791
  511POPC   C2J26566   2.285  11.486   3.922
  511POPC   C2K26567   2.415  11.456   3.996
  511POPC   C2L26568   2.390  11.400   4.136
  511POPC   C2M26569   2.326  11.503   4.229
  511POPC   C2N26570   2.304  11.445   4.369
  511POPC   C2O26571   2.242  11.550   4.461
  511POPC   C2P26572   2.224  11.494   4.603
  512POPC   CN126573   3.351  12.406   2.236
  512POPC   CN226574   3.386  12.327   2.013
  512POPC   CN326575   3.168  12.325   2.106
  512POPC   NTM26576   3.294  12.400   2.100
  512POPC    CA26577   3.279  12.535   2.041
  512POPC    CB26578   3.187  12.641   2.105
  512POPC    OA26579   3.046  12.613   2.108
  512POPC     P26580   2.966  12.732   2.174
  512POPC    OB26581   3.030  12.853   2.120
  512POPC    OC26582   2.823  12.706   2.152
  512POPC    OD26583   3.009  12.700   2.322
  512POPC    CC26584   2.919  12.604   2.379
  512POPC    CD26585   2.951  12.554   2.521
  512POPC    OE26586   2.844  12.469   2.573
  512POPC   C1A26587   2.831  12.344   2.528
  512POPC    OF26588   2.912  12.294   2.449
  512POPC   C1B26589   2.710  12.277   2.582
  512POPC   C1C26590   2.739  12.216   2.720
  512POPC   C1D26591   2.611  12.162   2.784
  512POPC   C1E26592   2.639  12.114   2.927
  512POPC   C1F26593   2.724  11.986   2.928
  512POPC   C1G26594   2.790  11.962   3.064
  512POPC   C1H26595   2.693  11.938   3.180
  512POPC   C1I26596   2.626  11.801   3.176
  512POPC   C1J26597   2.623  11.729   3.287
  512POPC   C1K26598   2.692  11.786   3.411
  512POPC   C1L26599   2.615  11.753   3.539
  512POPC   C1M26600   2.681  11.822   3.659
  512POPC   C1N26601   2.602  11.796   3.786
  512POPC   C1O26602   2.668  11.862   3.907
  512POPC   C1P26603   2.587  11.836   4.034
  512POPC   C1Q26604   2.653  11.898   4.158
  512POPC   C1R26605   2.649  12.051   4.157
  512POPC    CE26606   2.985  12.680   2.603
  512POPC    OG26607   3.001  12.668   2.746
  512POPC   C2A26608   3.083  12.756   2.804
  512POPC    OH26609   3.147  12.837   2.737
  512POPC   C2B26610   3.074  12.754   2.952
  512POPC   C2C26611   3.204  12.712   3.021
  512POPC   C2D26612   3.190  12.723   3.173
  512POPC   C2E26613   3.320  12.681   3.241
  512POPC   C2F26614   3.317  12.704   3.392
  512POPC   C2G26615   3.455  12.675   3.449
  512POPC   C2H26616   3.467  12.706   3.598
  512POPC   C2I26617   3.615  12.696   3.638
  512POPC   C2J26618   3.644  12.737   3.782
  512POPC   C2K26619   3.605  12.629   3.883
  512POPC   C2L26620   3.653  12.670   4.023
  512POPC   C2M26621   3.626  12.560   4.126
  512POPC   C2N26622   3.676  12.598   4.265
  512POPC   C2O26623   3.829  12.605   4.273
  512POPC   C2P26624   3.875  12.638   4.414
  513POPC   CN126625   2.474  13.073   2.227
  513POPC   CN226626   2.570  13.292   2.242
  513POPC   CN326627   2.337  13.261   2.276
  513POPC   NTM26628   2.470  13.201   2.298
  513POPC    CA26629   2.489  13.187   2.445
  513POPC    CB26630   2.607  13.104   2.500
  513POPC    OA26631   2.736  13.132   2.443
  513POPC     P26632   2.846  13.040   2.507
  513POPC    OB26633   2.790  12.904   2.519
  513POPC    OC26634   2.969  13.069   2.432
  513POPC    OD26635   2.848  13.110   2.646
  513POPC    CC26636   2.973  13.100   2.711
  513POPC    CD26637   2.978  13.163   2.851
  513POPC    OE26638   3.100  13.126   2.922
  513POPC   C1A26639   3.216  13.188   2.900
  513POPC    OF26640   3.226  13.275   2.813
  513POPC   C1B26641   3.325  13.134   2.984
  513POPC   C1C26642   3.336  13.210   3.117
  513POPC   C1D26643   3.433  13.141   3.213
  513POPC   C1E26644   3.448  13.223   3.341
  513POPC   C1F26645   3.537  13.153   3.444
  513POPC   C1G26646   3.564  13.247   3.562
  513POPC   C1H26647   3.649  13.181   3.670
  513POPC   C1I26648   3.684  13.283   3.778
  513POPC   C1J26649   3.690  13.248   3.907
  513POPC   C1K26650   3.661  13.104   3.949
  513POPC   C1L26651   3.712  13.072   4.090
  513POPC   C1M26652   3.865  13.065   4.100
  513POPC   C1N26653   3.909  13.030   4.243
  513POPC   C1O26654   4.061  13.019   4.252
  513POPC   C1P26655   4.104  12.976   4.392
  513POPC   C1Q26656   4.256  12.955   4.398
  513POPC   C1R26657   4.300  12.907   4.536
  513POPC    CE26658   2.851  13.114   2.923
  513POPC    OG26659   2.824  13.168   3.053
  513POPC   C2A26660   2.724  13.114   3.121
  513POPC    OH26661   2.650  13.029   3.070
  513POPC   C2B26662   2.709  13.169   3.258
  513POPC   C2C26663   2.791  13.089   3.359
  513POPC   C2D26664   2.761  13.136   3.502
  513POPC   C2E26665   2.840  13.058   3.608
  513POPC   C2F26666   2.988  13.095   3.610
  513POPC   C2G26667   3.062  13.015   3.718
  513POPC   C2H26668   3.207  13.062   3.733
  513POPC   C2I26669   3.283  12.984   3.841
  513POPC   C2J26670   3.227  13.006   3.982
  513POPC   C2K26671   3.303  12.923   4.085
  513POPC   C2L26672   3.241  12.931   4.225
  513POPC   C2M26673   3.260  13.067   4.293
  513POPC   C2N26674   3.405  13.091   4.335
  513POPC   C2O26675   3.423  13.228   4.400
  513POPC   C2P26676   3.569  13.250   4.441
  514POPC   CN126677   2.842  15.057   2.929
  514POPC   CN226678   2.762  15.165   2.731
  514POPC   CN326679   2.991  15.111   2.756
  514POPC   NTM26680   2.855  15.064   2.784
  514POPC    CA26681   2.836  14.931   2.721
  514POPC    CB26682   2.702  14.855   2.735
  514POPC    OA26683   2.585  14.922   2.685
  514POPC     P26684   2.459  14.827   2.682
  514POPC    OB26685   2.350  14.915   2.638
  514POPC    OC26686   2.497  14.709   2.604
  514POPC    OD26687   2.440  14.791   2.834
  514POPC    CC26688   2.378  14.895   2.910
  514POPC    CD26689   2.329  14.848   3.048
  514POPC    OE26690   2.267  14.953   3.128
  514POPC   C1A26691   2.141  14.990   3.106
  514POPC    OF26692   2.085  14.965   2.998
  514POPC   C1B26693   2.088  15.079   3.210
  514POPC   C1C26694   2.009  14.998   3.313
  514POPC   C1D26695   1.950  15.089   3.421
  514POPC   C1E26696   1.862  15.011   3.518
  514POPC   C1F26697   1.736  14.958   3.450
  514POPC   C1G26698   1.646  14.880   3.546
  514POPC   C1H26699   1.586  14.964   3.660
  514POPC   C1I26700   1.486  15.068   3.609
  514POPC   C1J26701   1.453  15.172   3.686
  514POPC   C1K26702   1.513  15.187   3.825
  514POPC   C1L26703   1.410  15.248   3.920
  514POPC   C1M26704   1.468  15.276   4.058
  514POPC   C1N26705   1.360  15.339   4.147
  514POPC   C1O26706   1.414  15.382   4.284
  514POPC   C1P26707   1.453  15.263   4.372
  514POPC   C1Q26708   1.504  15.312   4.507
  514POPC   C1R26709   1.544  15.195   4.596
  514POPC    CE26710   2.450  14.784   3.118
  514POPC    OG26711   2.417  14.694   3.225
  514POPC   C2A26712   2.513  14.667   3.314
  514POPC    OH26713   2.623  14.721   3.308
  514POPC   C2B26714   2.470  14.572   3.419
  514POPC   C2C26715   2.517  14.428   3.393
  514POPC   C2D26716   2.668  14.409   3.412
  514POPC   C2E26717   2.712  14.432   3.557
  514POPC   C2F26718   2.863  14.419   3.571
  514POPC   C2G26719   2.912  14.446   3.714
  514POPC   C2H26720   2.864  14.337   3.812
  514POPC   C2I26721   2.922  14.354   3.953
  514POPC   C2J26722   2.862  14.473   4.029
  514POPC   C2K26723   2.921  14.479   4.170
  514POPC   C2L26724   2.857  14.589   4.254
  514POPC   C2M26725   2.917  14.592   4.394
  514POPC   C2N26726   2.850  14.698   4.481
  514POPC   C2O26727   2.913  14.701   4.621
  514POPC   C2P26728   2.847  14.808   4.708
  515POPC   CN126729   2.532  15.954   3.042
  515POPC   CN226730   2.426  16.158   2.983
  515POPC   CN326731   2.602  16.074   2.847
  515POPC   NTM26732   2.486  16.035   2.929
  515POPC    CA26733   2.383  15.963   2.850
  515POPC    CB26734   2.425  15.846   2.757
  515POPC    OA26735   2.522  15.757   2.812
  515POPC     P26736   2.547  15.630   2.723
  515POPC    OB26737   2.519  15.660   2.581
  515POPC    OC26738   2.673  15.566   2.764
  515POPC    OD26739   2.425  15.545   2.770
  515POPC    CC26740   2.450  15.490   2.899
  515POPC    CD26741   2.328  15.421   2.961
  515POPC    OE26742   2.259  15.506   3.057
  515POPC   C1A26743   2.136  15.475   3.095
  515POPC    OF26744   2.073  15.386   3.037
  515POPC   C1B26745   2.090  15.561   3.207
  515POPC   C1C26746   1.940  15.588   3.213
  515POPC   C1D26747   1.887  15.665   3.092
  515POPC   C1E26748   1.768  15.750   3.137
  515POPC   C1F26749   1.692  15.813   3.020
  515POPC   C1G26750   1.603  15.930   3.064
  515POPC   C1H26751   1.516  15.900   3.187
  515POPC   C1I26752   1.411  16.009   3.206
  515POPC   C1J26753   1.374  16.051   3.327
  515POPC   C1K26754   1.439  16.001   3.456
  515POPC   C1L26755   1.408  16.101   3.567
  515POPC   C1M26756   1.476  16.068   3.700
  515POPC   C1N26757   1.435  16.172   3.805
  515POPC   C1O26758   1.502  16.147   3.940
  515POPC   C1P26759   1.454  16.245   4.047
  515POPC   C1Q26760   1.307  16.224   4.084
  515POPC   C1R26761   1.263  16.320   4.194
  515POPC    CE26762   2.384  15.289   3.018
  515POPC    OG26763   2.492  15.304   3.112
  515POPC   C2A26764   2.564  15.196   3.139
  515POPC    OH26765   2.568  15.103   3.057
  515POPC   C2B26766   2.656  15.214   3.253
  515POPC   C2C26767   2.649  15.098   3.353
  515POPC   C2D26768   2.515  15.093   3.427
  515POPC   C2E26769   2.516  14.982   3.531
  515POPC   C2F26770   2.383  14.972   3.605
  515POPC   C2G26771   2.387  14.859   3.707
  515POPC   C2H26772   2.251  14.842   3.776
  515POPC   C2I26773   2.251  14.723   3.872
  515POPC   C2J26774   2.334  14.747   3.998
  515POPC   C2K26775   2.336  14.620   4.085
  515POPC   C2L26776   2.410  14.640   4.217
  515POPC   C2M26777   2.332  14.728   4.315
  515POPC   C2N26778   2.408  14.743   4.447
  515POPC   C2O26779   2.334  14.830   4.549
  515POPC   C2P26780   2.207  14.764   4.602
  516POPC   CN126781   3.084  16.312   2.809
  516POPC   CN226782   3.228  16.412   2.650
  516POPC   CN326783   3.258  16.183   2.704
  516POPC   NTM26784   3.157  16.288   2.683
  516POPC    CA26785   3.064  16.254   2.573
  516POPC    CB26786   2.969  16.132   2.584
  516POPC    OA26787   3.035  16.008   2.610
  516POPC     P26788   2.936  15.886   2.619
  516POPC    OB26789   2.823  15.908   2.529
  516POPC    OC26790   3.019  15.766   2.607
  516POPC    OD26791   2.887  15.901   2.768
  516POPC    CC26792   2.992  15.869   2.859
  516POPC    CD26793   2.949  15.876   3.006
  516POPC    OE26794   3.062  15.898   3.095
  516POPC   C1A26795   3.119  16.018   3.097
  516POPC    OF26796   3.063  16.115   3.046
  516POPC   C1B26797   3.249  16.023   3.168
  516POPC   C1C26798   3.241  16.084   3.308
  516POPC   C1D26799   3.189  15.985   3.413
  516POPC   C1E26800   3.192  16.049   3.552
  516POPC   C1F26801   3.166  15.946   3.663
  516POPC   C1G26802   3.024  15.891   3.661
  516POPC   C1H26803   3.008  15.783   3.768
  516POPC   C1I26804   2.865  15.732   3.776
  516POPC   C1J26805   2.822  15.678   3.890
  516POPC   C1K26806   2.919  15.669   4.008
  516POPC   C1L26807   2.906  15.535   4.080
  516POPC   C1M26808   3.008  15.526   4.194
  516POPC   C1N26809   3.000  15.390   4.264
  516POPC   C1O26810   3.104  15.381   4.376
  516POPC   C1P26811   3.100  15.246   4.448
  516POPC   C1Q26812   3.147  15.130   4.360
  516POPC   C1R26813   3.139  14.998   4.436
  516POPC    CE26814   2.865  15.749   3.030
  516POPC    OG26815   2.783  15.749   3.148
  516POPC   C2A26816   2.763  15.631   3.207
  516POPC    OH26817   2.805  15.526   3.158
  516POPC   C2B26818   2.682  15.641   3.330
  516POPC   C2C26819   2.534  15.612   3.301
  516POPC   C2D26820   2.446  15.639   3.423
  516POPC   C2E26821   2.442  15.789   3.455
  516POPC   C2F26822   2.362  15.823   3.582
  516POPC   C2G26823   2.424  15.763   3.708
  516POPC   C2H26824   2.356  15.822   3.832
  516POPC   C2I26825   2.412  15.759   3.960
  516POPC   C2J26826   2.357  15.828   4.086
  516POPC   C2K26827   2.205  15.813   4.105
  516POPC   C2L26828   2.162  15.669   4.134
  516POPC   C2M26829   2.011  15.662   4.155
  516POPC   C2N26830   1.967  15.519   4.188
  516POPC   C2O26831   1.816  15.509   4.215
  516POPC   C2P26832   1.776  15.580   4.345
  517POPC   CN126833   2.872  16.793   2.361
  517POPC   CN226834   2.793  16.946   2.529
  517POPC   CN326835   2.741  16.980   2.301
  517POPC   NTM26836   2.760  16.877   2.403
  517POPC    CA26837   2.635  16.798   2.415
  517POPC    CB26838   2.614  16.693   2.527
  517POPC    OA26839   2.714  16.592   2.541
  517POPC     P26840   2.659  16.472   2.628
  517POPC    OB26841   2.522  16.442   2.585
  517POPC    OC26842   2.762  16.368   2.619
  517POPC    OD26843   2.655  16.542   2.767
  517POPC    CC26844   2.717  16.465   2.869
  517POPC    CD26845   2.750  16.545   2.996
  517POPC    OE26846   2.851  16.481   3.079
  517POPC   C1A26847   2.973  16.534   3.077
  517POPC    OF26848   3.005  16.614   2.989
  517POPC   C1B26849   3.066  16.473   3.175
  517POPC   C1C26850   3.071  16.552   3.305
  517POPC   C1D26851   3.172  16.490   3.402
  517POPC   C1E26852   3.180  16.570   3.532
  517POPC   C1F26853   3.280  16.504   3.627
  517POPC   C1G26854   3.286  16.579   3.760
  517POPC   C1H26855   3.380  16.506   3.857
  517POPC   C1I26856   3.373  16.570   3.996
  517POPC   C1J26857   3.476  16.561   4.080
  517POPC   C1K26858   3.604  16.487   4.039
  517POPC   C1L26859   3.673  16.416   4.156
  517POPC   C1M26860   3.722  16.513   4.264
  517POPC   C1N26861   3.791  16.438   4.378
  517POPC   C1O26862   3.824  16.535   4.493
  517POPC   C1P26863   3.893  16.464   4.610
  517POPC   C1Q26864   4.038  16.424   4.580
  517POPC   C1R26865   4.130  16.547   4.569
  517POPC    CE26866   2.619  16.588   3.063
  517POPC    OG26867   2.529  16.484   3.108
  517POPC   C2A26868   2.441  16.522   3.199
  517POPC    OH26869   2.430  16.640   3.233
  517POPC   C2B26870   2.353  16.414   3.248
  517POPC   C2C26871   2.343  16.417   3.400
  517POPC   C2D26872   2.239  16.319   3.454
  517POPC   C2E26873   2.238  16.321   3.607
  517POPC   C2F26874   2.124  16.236   3.662
  517POPC   C2G26875   2.129  16.230   3.814
  517POPC   C2H26876   2.006  16.156   3.869
  517POPC   C2I26877   2.013  16.146   4.021
  517POPC   C2J26878   1.886  16.080   4.077
  517POPC   C2K26879   1.898  16.052   4.228
  517POPC   C2L26880   1.903  16.177   4.315
  517POPC   C2M26881   1.768  16.247   4.327
  517POPC   C2N26882   1.777  16.366   4.423
  517POPC   C2O26883   1.641  16.433   4.444
  517POPC   C2P26884   1.590  16.506   4.320
  518POPC   CN126885   3.800   0.978   2.581
  518POPC   CN226886   3.970   0.986   2.415
  518POPC   CN326887   4.008   0.862   2.615
  518POPC   NTM26888   3.906   0.900   2.516
  518POPC    CA26889   3.852   0.781   2.446
  518POPC    CB26890   3.764   0.680   2.522
  518POPC    OA26891   3.822   0.615   2.635
  518POPC     P26892   3.713   0.549   2.727
  518POPC    OB26893   3.604   0.503   2.638
  518POPC    OC26894   3.780   0.453   2.816
  518POPC    OD26895   3.670   0.680   2.800
  518POPC    CC26896   3.747   0.707   2.916
  518POPC    CD26897   3.710   0.841   2.982
  518POPC    OE26898   3.798   0.877   3.092
  518POPC   C1A26899   3.818   1.006   3.120
  518POPC    OF26900   3.782   1.092   3.038
  518POPC   C1B26901   3.902   1.031   3.239
  518POPC   C1C26902   3.818   1.033   3.367
  518POPC   C1D26903   3.901   1.086   3.485
  518POPC   C1E26904   3.817   1.088   3.612
  518POPC   C1F26905   3.880   1.177   3.720
  518POPC   C1G26906   3.788   1.187   3.842
  518POPC   C1H26907   3.803   1.069   3.938
  518POPC   C1I26908   3.914   1.095   4.041
  518POPC   C1J26909   3.888   1.111   4.170
  518POPC   C1K26910   3.747   1.100   4.228
  518POPC   C1L26911   3.675   1.235   4.236
  518POPC   C1M26912   3.533   1.220   4.292
  518POPC   C1N26913   3.448   1.343   4.260
  518POPC   C1O26914   3.411   1.347   4.111
  518POPC   C1P26915   3.345   1.479   4.070
  518POPC   C1Q26916   3.443   1.597   4.069
  518POPC   C1R26917   3.552   1.582   3.962
  518POPC    CE26918   3.559   0.834   3.011
  518POPC    OG26919   3.515   0.723   3.092
  518POPC   C2A26920   3.387   0.687   3.080
  518POPC    OH26921   3.313   0.741   2.998
  518POPC   C2B26922   3.350   0.577   3.172
  518POPC   C2C26923   3.204   0.588   3.218
  518POPC   C2D26924   3.175   0.491   3.332
  518POPC   C2E26925   3.032   0.509   3.383
  518POPC   C2F26926   3.002   0.426   3.508
  518POPC   C2G26927   3.082   0.474   3.629
  518POPC   C2H26928   3.047   0.394   3.754
  518POPC   C2I26929   3.127   0.443   3.875
  518POPC   C2J26930   3.084   0.370   4.002
  518POPC   C2K26931   3.159   0.419   4.126
  518POPC   C2L26932   3.307   0.379   4.126
  518POPC   C2M26933   3.376   0.427   4.253
  518POPC   C2N26934   3.522   0.380   4.257
  518POPC   C2O26935   3.591   0.427   4.385
  518POPC   C2P26936   3.734   0.376   4.392
  519POPC   CN126937   3.183   0.547   2.389
  519POPC   CN226938   2.966   0.550   2.293
  519POPC   CN326939   3.000   0.617   2.522
  519POPC   NTM26940   3.056   0.621   2.386
  519POPC    CA26941   3.085   0.759   2.341
  519POPC    CB26942   2.971   0.861   2.315
  519POPC    OA26943   2.882   0.881   2.424
  519POPC     P26944   2.808   1.019   2.414
  519POPC    OB26945   2.908   1.121   2.379
  519POPC    OC26946   2.693   0.994   2.326
  519POPC    OD26947   2.762   1.036   2.562
  519POPC    CC26948   2.871   1.044   2.654
  519POPC    CD26949   2.832   1.074   2.800
  519POPC    OE26950   2.749   0.974   2.868
  519POPC   C1A26951   2.805   0.861   2.913
  519POPC    OF26952   2.916   0.825   2.874
  519POPC   C1B26953   2.715   0.781   2.999
  519POPC   C1C26954   2.738   0.814   3.147
  519POPC   C1D26955   2.659   0.720   3.239
  519POPC   C1E26956   2.691   0.745   3.386
  519POPC   C1F26957   2.624   0.871   3.443
  519POPC   C1G26958   2.476   0.846   3.474
  519POPC   C1H26959   2.409   0.971   3.531
  519POPC   C1I26960   2.267   0.939   3.576
  519POPC   C1J26961   2.206   1.014   3.668
  519POPC   C1K26962   2.275   1.136   3.729
  519POPC   C1L26963   2.170   1.241   3.765
  519POPC   C1M26964   2.233   1.370   3.818
  519POPC   C1N26965   2.129   1.479   3.847
  519POPC   C1O26966   2.058   1.526   3.719
  519POPC   C1P26967   1.951   1.632   3.747
  519POPC   C1Q26968   2.008   1.768   3.788
  519POPC   C1R26969   2.079   1.840   3.673
  519POPC    CE26970   2.765   1.212   2.797
  519POPC    OG26971   2.857   1.320   2.771
  519POPC   C2A26972   2.806   1.442   2.763
  519POPC    OH26973   2.684   1.462   2.764
  519POPC   C2B26974   2.908   1.548   2.743
  519POPC   C2C26975   2.973   1.594   2.873
  519POPC   C2D26976   2.879   1.676   2.963
  519POPC   C2E26977   2.950   1.710   3.094
  519POPC   C2F26978   2.861   1.793   3.187
  519POPC   C2G26979   2.932   1.813   3.321
  519POPC   C2H26980   2.844   1.890   3.419
  519POPC   C2I26981   2.905   1.894   3.559
  519POPC   C2J26982   3.031   1.982   3.568
  519POPC   C2K26983   3.104   1.965   3.701
  519POPC   C2L26984   3.020   2.008   3.822
  519POPC   C2M26985   3.096   1.985   3.952
  519POPC   C2N26986   3.011   2.026   4.073
  519POPC   C2O26987   3.087   2.003   4.204
  519POPC   C2P26988   3.002   2.044   4.324
  520POPC   CN126989   2.416   2.157   2.080
  520POPC   CN226990   2.572   1.981   2.125
  520POPC   CN326991   2.501   2.024   1.902
  520POPC   NTM26992   2.536   2.087   2.030
  520POPC    CA26993   2.647   2.182   2.004
  520POPC    CB26994   2.707   2.269   2.118
  520POPC    OA26995   2.766   2.198   2.226
  520POPC     P26996   2.831   2.301   2.325
  520POPC    OB26997   2.938   2.362   2.246
  520POPC    OC26998   2.719   2.379   2.377
  520POPC    OD26999   2.882   2.192   2.426
  520POPC    CC27000   2.783   2.159   2.524
  520POPC    CD27001   2.782   2.012   2.567
  520POPC    OE27002   2.677   1.981   2.663
  520POPC   C1A27003   2.554   1.952   2.621
  520POPC    OF27004   2.532   1.931   2.501
  520POPC   C1B27005   2.459   1.933   2.732
  520POPC   C1C27006   2.466   1.790   2.786
  520POPC   C1D27007   2.391   1.773   2.919
  520POPC   C1E27008   2.455   1.857   3.030
  520POPC   C1F27009   2.389   1.831   3.166
  520POPC   C1G27010   2.450   1.922   3.272
  520POPC   C1H27011   2.397   1.889   3.411
  520POPC   C1I27012   2.455   1.985   3.515
  520POPC   C1J27013   2.490   1.940   3.636
  520POPC   C1K27014   2.473   1.792   3.672
  520POPC   C1L27015   2.578   1.748   3.773
  520POPC   C1M27016   2.559   1.600   3.808
  520POPC   C1N27017   2.662   1.553   3.911
  520POPC   C1O27018   2.640   1.405   3.944
  520POPC   C1P27019   2.740   1.352   4.047
  520POPC   C1Q27020   2.883   1.345   3.993
  520POPC   C1R27021   2.979   1.290   4.098
  520POPC    CE27022   2.925   1.977   2.614
  520POPC    OG27023   2.973   2.042   2.733
  520POPC   C2A27024   3.102   2.025   2.760
  520POPC    OH27025   3.182   2.000   2.669
  520POPC   C2B27026   3.137   2.063   2.898
  520POPC   C2C27027   3.241   1.970   2.959
  520POPC   C2D27028   3.276   2.011   3.102
  520POPC   C2E27029   3.392   1.928   3.156
  520POPC   C2F27030   3.427   1.970   3.299
  520POPC   C2G27031   3.550   1.894   3.349
  520POPC   C2H27032   3.585   1.927   3.494
  520POPC   C2I27033   3.476   1.880   3.591
  520POPC   C2J27034   3.511   1.903   3.739
  520POPC   C2K27035   3.525   2.051   3.776
  520POPC   C2L27036   3.538   2.071   3.928
  520POPC   C2M27037   3.664   2.004   3.986
  520POPC   C2N27038   3.674   2.019   4.138
  520POPC   C2O27039   3.561   1.947   4.212
  520POPC   C2P27040   3.576   1.961   4.363
  521POPC   CN127041   3.069   2.577   1.637
  521POPC   CN227042   2.903   2.744   1.665
  521POPC   CN327043   2.937   2.585   1.837
  521POPC   NTM27044   3.006   2.666   1.735
  521POPC    CA27045   3.102   2.761   1.797
  521POPC    CB27046   3.235   2.713   1.859
  521POPC    OA27047   3.223   2.595   1.938
  521POPC     P27048   3.352   2.551   2.015
  521POPC    OB27049   3.328   2.411   2.050
  521POPC    OC27050   3.470   2.592   1.938
  521POPC    OD27051   3.332   2.641   2.142
  521POPC    CC27052   3.225   2.595   2.225
  521POPC    CD27053   3.213   2.672   2.357
  521POPC    OE27054   3.126   2.612   2.458
  521POPC   C1A27055   3.172   2.504   2.523
  521POPC    OF27056   3.273   2.445   2.485
  521POPC   C1B27057   3.092   2.465   2.641
  521POPC   C1C27058   3.167   2.511   2.766
  521POPC   C1D27059   3.115   2.446   2.894
  521POPC   C1E27060   3.209   2.479   3.010
  521POPC   C1F27061   3.172   2.402   3.137
  521POPC   C1G27062   3.267   2.440   3.251
  521POPC   C1H27063   3.239   2.364   3.382
  521POPC   C1I27064   3.100   2.395   3.440
  521POPC   C1J27065   3.084   2.422   3.569
  521POPC   C1K27066   3.203   2.426   3.666
  521POPC   C1L27067   3.154   2.399   3.808
  521POPC   C1M27068   3.264   2.422   3.912
  521POPC   C1N27069   3.213   2.397   4.054
  521POPC   C1O27070   3.103   2.495   4.095
  521POPC   C1P27071   3.047   2.462   4.233
  521POPC   C1Q27072   2.930   2.555   4.266
  521POPC   C1R27073   2.872   2.525   4.404
  521POPC    CE27074   3.182   2.818   2.317
  521POPC    OG27075   3.169   2.913   2.425
  521POPC   C2A27076   3.280   2.963   2.478
  521POPC    OH27077   3.392   2.936   2.434
  521POPC   C2B27078   3.251   3.050   2.595
  521POPC   C2C27079   3.349   3.167   2.609
  521POPC   C2D27080   3.315   3.260   2.726
  521POPC   C2E27081   3.329   3.191   2.862
  521POPC   C2F27082   3.299   3.288   2.977
  521POPC   C2G27083   3.320   3.219   3.112
  521POPC   C2H27084   3.298   3.315   3.228
  521POPC   C2I27085   3.325   3.245   3.362
  521POPC   C2J27086   3.303   3.341   3.479
  521POPC   C2K27087   3.323   3.270   3.613
  521POPC   C2L27088   3.283   3.362   3.729
  521POPC   C2M27089   3.294   3.289   3.863
  521POPC   C2N27090   3.248   3.376   3.981
  521POPC   C2O27091   3.098   3.404   3.978
  521POPC   C2P27092   3.056   3.490   4.097
  522POPC   CN127093   3.378   4.476   2.204
  522POPC   CN227094   3.558   4.583   2.098
  522POPC   CN327095   3.559   4.562   2.333
  522POPC   NTM27096   3.524   4.494   2.208
  522POPC    CA27097   3.602   4.370   2.188
  522POPC    CB27098   3.574   4.245   2.274
  522POPC    OA27099   3.447   4.186   2.246
  522POPC     P27100   3.419   4.067   2.345
  522POPC    OB27101   3.524   3.970   2.309
  522POPC    OC27102   3.411   4.132   2.476
  522POPC    OD27103   3.279   4.028   2.287
  522POPC    CC27104   3.179   4.124   2.318
  522POPC    CD27105   3.041   4.093   2.257
  522POPC    OE27106   2.960   4.212   2.240
  522POPC   C1A27107   2.864   4.215   2.148
  522POPC    OF27108   2.839   4.118   2.076
  522POPC   C1B27109   2.792   4.345   2.149
  522POPC   C1C27110   2.649   4.330   2.201
  522POPC   C1D27111   2.594   4.464   2.251
  522POPC   C1E27112   2.639   4.495   2.394
  522POPC   C1F27113   2.573   4.401   2.495
  522POPC   C1G27114   2.608   4.436   2.639
  522POPC   C1H27115   2.532   4.344   2.735
  522POPC   C1I27116   2.568   4.373   2.881
  522POPC   C1J27117   2.483   4.345   2.979
  522POPC   C1K27118   2.344   4.287   2.948
  522POPC   C1L27119   2.245   4.311   3.062
  522POPC   C1M27120   2.275   4.225   3.185
  522POPC   C1N27121   2.177   4.252   3.300
  522POPC   C1O27122   2.208   4.156   3.415
  522POPC   C1P27123   2.118   4.174   3.538
  522POPC   C1Q27124   2.147   4.305   3.611
  522POPC   C1R27125   2.064   4.314   3.740
  522POPC    CE27126   2.981   3.979   2.341
  522POPC    OG27127   2.995   3.990   2.484
  522POPC   C2A27128   2.915   3.913   2.557
  522POPC    OH27129   2.822   3.851   2.506
  522POPC   C2B27130   2.949   3.916   2.702
  522POPC   C2C27131   2.869   4.019   2.780
  522POPC   C2D27132   2.902   4.009   2.929
  522POPC   C2E27133   2.814   4.103   3.011
  522POPC   C2F27134   2.840   4.088   3.161
  522POPC   C2G27135   2.742   4.175   3.241
  522POPC   C2H27136   2.763   4.161   3.392
  522POPC   C2I27137   2.657   4.241   3.467
  522POPC   C2J27138   2.670   4.224   3.618
  522POPC   C2K27139   2.554   4.295   3.689
  522POPC   C2L27140   2.559   4.280   3.841
  522POPC   C2M27141   2.674   4.359   3.905
  522POPC   C2N27142   2.675   4.345   4.058
  522POPC   C2O27143   2.556   4.412   4.128
  522POPC   C2P27144   2.560   4.565   4.117
  523POPC   CN127145   2.908   4.762   1.419
  523POPC   CN227146   2.789   4.963   1.369
  523POPC   CN327147   2.676   4.755   1.365
  523POPC   NTM27148   2.780   4.831   1.434
  523POPC    CA27149   2.739   4.848   1.576
  523POPC    CB27150   2.835   4.908   1.681
  523POPC    OA27151   2.910   5.022   1.641
  523POPC     P27152   2.966   5.107   1.760
  523POPC    OB27153   3.031   5.221   1.694
  523POPC    OC27154   2.856   5.123   1.855
  523POPC    OD27155   3.079   5.009   1.812
  523POPC    CC27156   3.068   4.987   1.953
  523POPC    CD27157   3.125   4.853   2.002
  523POPC    OE27158   3.075   4.817   2.134
  523POPC   C1A27159   3.074   4.690   2.173
  523POPC    OF27160   3.096   4.600   2.091
  523POPC   C1B27161   3.024   4.671   2.311
  523POPC   C1C27162   3.138   4.680   2.413
  523POPC   C1D27163   3.093   4.662   2.559
  523POPC   C1E27164   3.007   4.778   2.610
  523POPC   C1F27165   2.999   4.780   2.764
  523POPC   C1G27166   2.924   4.661   2.824
  523POPC   C1H27167   2.928   4.668   2.977
  523POPC   C1I27168   2.852   4.551   3.040
  523POPC   C1J27169   2.800   4.561   3.162
  523POPC   C1K27170   2.819   4.688   3.245
  523POPC   C1L27171   2.807   4.658   3.395
  523POPC   C1M27172   2.826   4.783   3.481
  523POPC   C1N27173   2.970   4.835   3.478
  523POPC   C1O27174   2.983   4.973   3.545
  523POPC   C1P27175   2.964   4.973   3.697
  523POPC   C1Q27176   3.083   4.912   3.770
  523POPC   C1R27177   3.063   4.920   3.922
  523POPC    CE27178   3.278   4.861   1.984
  523POPC    OG27179   3.349   4.956   2.066
  523POPC   C2A27180   3.375   4.917   2.191
  523POPC    OH27181   3.381   4.797   2.217
  523POPC   C2B27182   3.419   5.026   2.282
  523POPC   C2C27183   3.467   4.969   2.416
  523POPC   C2D27184   3.486   5.076   2.524
  523POPC   C2E27185   3.529   5.014   2.658
  523POPC   C2F27186   3.425   4.916   2.712
  523POPC   C2G27187   3.464   4.855   2.847
  523POPC   C2H27188   3.454   4.957   2.961
  523POPC   C2I27189   3.484   4.891   3.096
  523POPC   C2J27190   3.458   4.985   3.214
  523POPC   C2K27191   3.310   5.023   3.226
  523POPC   C2L27192   3.281   5.113   3.346
  523POPC   C2M27193   3.345   5.252   3.336
  523POPC   C2N27194   3.304   5.342   3.453
  523POPC   C2O27195   3.353   5.289   3.589
  523POPC   C2P27196   3.312   5.382   3.703
  524POPC   CN127197   3.256   6.056   1.825
  524POPC   CN227198   3.333   5.872   1.956
  524POPC   CN327199   3.328   6.088   2.051
  524POPC   NTM27200   3.257   5.997   1.960
  524POPC    CA27201   3.120   5.965   2.008
  524POPC    CB27202   3.013   6.076   2.014
  524POPC    OA27203   3.046   6.185   2.100
  524POPC     P27204   2.957   6.312   2.080
  524POPC    OB27205   3.009   6.416   2.170
  524POPC    OC27206   2.941   6.334   1.935
  524POPC    OD27207   2.818   6.263   2.131
  524POPC    CC27208   2.812   6.246   2.272
  524POPC    CD27209   2.681   6.180   2.318
  524POPC    OE27210   2.654   6.191   2.460
  524POPC   C1A27211   2.601   6.303   2.509
  524POPC    OF27212   2.587   6.402   2.436
  524POPC   C1B27213   2.578   6.295   2.655
  524POPC   C1C27214   2.574   6.432   2.722
  524POPC   C1D27215   2.591   6.423   2.874
  524POPC   C1E27216   2.481   6.345   2.947
  524POPC   C1F27217   2.504   6.357   3.098
  524POPC   C1G27218   2.401   6.279   3.181
  524POPC   C1H27219   2.421   6.303   3.331
  524POPC   C1I27220   2.555   6.250   3.383
  524POPC   C1J27221   2.574   6.222   3.511
  524POPC   C1K27222   2.462   6.243   3.614
  524POPC   C1L27223   2.477   6.141   3.727
  524POPC   C1M27224   2.371   6.162   3.836
  524POPC   C1N27225   2.381   6.055   3.946
  524POPC   C1O27226   2.512   6.064   4.025
  524POPC   C1P27227   2.524   5.948   4.124
  524POPC   C1Q27228   2.653   5.954   4.206
  524POPC   C1R27229   2.778   5.931   4.120
  524POPC    CE27230   2.680   6.037   2.260
  524POPC    OG27231   2.794   5.956   2.293
  524POPC   C2A27232   2.781   5.825   2.275
  524POPC    OH27233   2.680   5.776   2.223
  524POPC   C2B27234   2.898   5.750   2.323
  524POPC   C2C27235   2.891   5.729   2.475
  524POPC   C2D27236   3.010   5.646   2.523
  524POPC   C2E27237   3.005   5.615   2.672
  524POPC   C2F27238   3.045   5.732   2.761
  524POPC   C2G27239   3.056   5.684   2.906
  524POPC   C2H27240   3.127   5.786   2.994
  524POPC   C2I27241   3.159   5.726   3.131
  524POPC   C2J27242   3.244   5.823   3.214
  524POPC   C2K27243   3.287   5.759   3.346
  524POPC   C2L27244   3.373   5.857   3.427
  524POPC   C2M27245   3.423   5.792   3.556
  524POPC   C2N27246   3.506   5.891   3.638
  524POPC   C2O27247   3.557   5.826   3.766
  524POPC   C2P27248   3.636   5.926   3.851
  525POPC   CN127249   4.236   7.585   1.763
  525POPC   CN227250   4.019   7.603   1.665
  525POPC   CN327251   4.093   7.398   1.766
  525POPC   NTM27252   4.096   7.544   1.776
  525POPC    CA27253   4.046   7.590   1.908
  525POPC    CB27254   3.896   7.593   1.944
  525POPC    OA27255   3.818   7.477   1.917
  525POPC     P27256   3.668   7.502   1.962
  525POPC    OB27257   3.632   7.642   1.937
  525POPC    OC27258   3.587   7.393   1.907
  525POPC    OD27259   3.685   7.477   2.115
  525POPC    CC27260   3.690   7.339   2.148
  525POPC    CD27261   3.688   7.312   2.299
  525POPC    OE27262   3.705   7.171   2.331
  525POPC   C1A27263   3.808   7.143   2.411
  525POPC    OF27264   3.914   7.204   2.395
  525POPC   C1B27265   3.795   7.011   2.475
  525POPC   C1C27266   3.712   7.011   2.604
  525POPC   C1D27267   3.783   7.082   2.720
  525POPC   C1E27268   3.724   7.031   2.852
  525POPC   C1F27269   3.799   7.086   2.973
  525POPC   C1G27270   3.773   7.002   3.098
  525POPC   C1H27271   3.627   7.009   3.146
  525POPC   C1I27272   3.605   6.913   3.263
  525POPC   C1J27273   3.518   6.943   3.359
  525POPC   C1K27274   3.440   7.074   3.353
  525POPC   C1L27275   3.317   7.074   3.445
  525POPC   C1M27276   3.205   6.982   3.395
  525POPC   C1N27277   3.085   6.982   3.490
  525POPC   C1O27278   3.014   7.117   3.495
  525POPC   C1P27279   2.899   7.119   3.598
  525POPC   C1Q27280   2.947   7.108   3.743
  525POPC   C1R27281   3.024   7.232   3.788
  525POPC    CE27282   3.559   7.377   2.353
  525POPC    OG27283   3.541   7.361   2.495
  525POPC   C2A27284   3.430   7.412   2.546
  525POPC    OH27285   3.356   7.486   2.482
  525POPC   C2B27286   3.415   7.377   2.689
  525POPC   C2C27287   3.485   7.476   2.783
  525POPC   C2D27288   3.483   7.417   2.924
  525POPC   C2E27289   3.537   7.512   3.031
  525POPC   C2F27290   3.525   7.440   3.166
  525POPC   C2G27291   3.558   7.527   3.287
  525POPC   C2H27292   3.536   7.441   3.412
  525POPC   C2I27293   3.558   7.515   3.544
  525POPC   C2J27294   3.531   7.418   3.658
  525POPC   C2K27295   3.550   7.481   3.796
  525POPC   C2L27296   3.524   7.377   3.905
  525POPC   C2M27297   3.539   7.437   4.045
  525POPC   C2N27298   3.510   7.330   4.151
  525POPC   C2O27299   3.522   7.384   4.294
  525POPC   C2P27300   3.412   7.485   4.328
  526POPC   CN127301   3.590   8.842   1.873
  526POPC   CN227302   3.691   8.660   1.987
  526POPC   CN327303   3.520   8.788   2.093
  526POPC   NTM27304   3.564   8.731   1.965
  526POPC    CA27305   3.461   8.643   1.903
  526POPC    CB27306   3.405   8.521   1.980
  526POPC    OA27307   3.501   8.426   2.026
  526POPC     P27308   3.436   8.311   2.112
  526POPC    OB27309   3.310   8.274   2.045
  526POPC    OC27310   3.547   8.216   2.133
  526POPC    OD27311   3.406   8.392   2.243
  526POPC    CC27312   3.511   8.381   2.340
  526POPC    CD27313   3.466   8.413   2.483
  526POPC    OE27314   3.572   8.393   2.580
  526POPC   C1A27315   3.642   8.498   2.621
  526POPC    OF27316   3.652   8.598   2.549
  526POPC   C1B27317   3.731   8.467   2.736
  526POPC   C1C27318   3.660   8.484   2.871
  526POPC   C1D27319   3.754   8.450   2.986
  526POPC   C1E27320   3.695   8.487   3.122
  526POPC   C1F27321   3.586   8.390   3.169
  526POPC   C1G27322   3.509   8.445   3.290
  526POPC   C1H27323   3.594   8.467   3.415
  526POPC   C1I27324   3.514   8.546   3.518
  526POPC   C1J27325   3.535   8.537   3.649
  526POPC   C1K27326   3.644   8.447   3.707
  526POPC   C1L27327   3.604   8.399   3.847
  526POPC   C1M27328   3.720   8.326   3.916
  526POPC   C1N27329   3.683   8.280   4.057
  526POPC   C1O27330   3.594   8.154   4.058
  526POPC   C1P27331   3.674   8.029   4.020
  526POPC   C1Q27332   3.589   7.902   4.021
  526POPC   C1R27333   3.487   7.900   3.907
  526POPC    CE27334   3.342   8.326   2.509
  526POPC    OG27335   3.258   8.373   2.615
  526POPC   C2A27336   3.177   8.281   2.669
  526POPC    OH27337   3.200   8.161   2.654
  526POPC   C2B27338   3.083   8.342   2.765
  526POPC   C2C27339   3.058   8.258   2.891
  526POPC   C2D27340   3.184   8.233   2.974
  526POPC   C2E27341   3.150   8.168   3.109
  526POPC   C2F27342   3.094   8.271   3.207
  526POPC   C2G27343   3.049   8.207   3.338
  526POPC   C2H27344   3.015   8.313   3.443
  526POPC   C2I27345   3.141   8.381   3.499
  526POPC   C2J27346   3.217   8.291   3.597
  526POPC   C2K27347   3.150   8.290   3.735
  526POPC   C2L27348   3.220   8.191   3.829
  526POPC   C2M27349   3.170   8.204   3.974
  526POPC   C2N27350   3.021   8.173   3.990
  526POPC   C2O27351   2.976   8.194   4.134
  526POPC   C2P27352   2.828   8.162   4.151
  527POPC   CN127353   3.133  10.059   2.529
  527POPC   CN227354   3.362  10.028   2.477
  527POPC   CN327355   3.231   9.844   2.549
  527POPC   NTM27356   3.229   9.966   2.468
  527POPC    CA27357   3.186   9.940   2.329
  527POPC    CB27358   3.261   9.840   2.238
  527POPC    OA27359   3.399   9.871   2.214
  527POPC     P27360   3.491   9.744   2.208
  527POPC    OB27361   3.429   9.647   2.116
  527POPC    OC27362   3.623   9.801   2.181
  527POPC    OD27363   3.482   9.696   2.358
  527POPC    CC27364   3.458   9.555   2.367
  527POPC    CD27365   3.440   9.496   2.507
  527POPC    OE27366   3.318   9.540   2.573
  527POPC   C1A27367   3.233   9.447   2.614
  527POPC    OF27368   3.243   9.331   2.572
  527POPC   C1B27369   3.122   9.498   2.698
  527POPC   C1C27370   3.157   9.504   2.847
  527POPC   C1D27371   3.233   9.633   2.883
  527POPC   C1E27372   3.294   9.629   3.023
  527POPC   C1F27373   3.193   9.626   3.138
  527POPC   C1G27374   3.270   9.614   3.269
  527POPC   C1H27375   3.181   9.605   3.393
  527POPC   C1I27376   3.269   9.572   3.514
  527POPC   C1J27377   3.240   9.615   3.637
  527POPC   C1K27378   3.114   9.698   3.664
  527POPC   C1L27379   3.072   9.692   3.812
  527POPC   C1M27380   3.172   9.763   3.904
  527POPC   C1N27381   3.130   9.751   4.050
  527POPC   C1O27382   3.229   9.825   4.141
  527POPC   C1P27383   3.194   9.811   4.289
  527POPC   C1Q27384   3.215   9.668   4.339
  527POPC   C1R27385   3.177   9.655   4.486
  527POPC    CE27386   3.571   9.525   2.583
  527POPC    OG27387   3.579   9.477   2.718
  527POPC   C2A27388   3.673   9.532   2.795
  527POPC    OH27389   3.747   9.621   2.753
  527POPC   C2B27390   3.661   9.491   2.937
  527POPC   C2C27391   3.724   9.355   2.970
  527POPC   C2D27392   3.683   9.313   3.111
  527POPC   C2E27393   3.533   9.278   3.117
  527POPC   C2F27394   3.476   9.283   3.259
  527POPC   C2G27395   3.532   9.176   3.353
  527POPC   C2H27396   3.476   9.199   3.493
  527POPC   C2I27397   3.530   9.096   3.592
  527POPC   C2J27398   3.491   9.135   3.735
  527POPC   C2K27399   3.544   9.032   3.835
  527POPC   C2L27400   3.522   9.079   3.978
  527POPC   C2M27401   3.580   8.976   4.076
  527POPC   C2N27402   3.583   9.031   4.218
  527POPC   C2O27403   3.649   8.932   4.313
  527POPC   C2P27404   3.664   8.991   4.453
  528POPC   CN127405   2.323   9.820   2.230
  528POPC   CN227406   2.331   9.665   2.051
  528POPC   CN327407   2.233   9.878   2.015
  528POPC   NTM27408   2.341   9.807   2.084
  528POPC    CA27409   2.475   9.855   2.043
  528POPC    CB27410   2.512  10.006   2.054
  528POPC    OA27411   2.496  10.064   2.184
  528POPC     P27412   2.552  10.210   2.190
  528POPC    OB27413   2.522  10.275   2.061
  528POPC    OC27414   2.507  10.270   2.316
  528POPC    OD27415   2.704  10.168   2.197
  528POPC    CC27416   2.766  10.175   2.326
  528POPC    CD27417   2.733  10.067   2.431
  528POPC    OE27418   2.807  10.086   2.554
  528POPC   C1A27419   2.739  10.099   2.668
  528POPC    OF27420   2.618  10.121   2.667
  528POPC   C1B27421   2.827  10.086   2.787
  528POPC   C1C27422   2.771  10.153   2.912
  528POPC   C1D27423   2.848  10.110   3.037
  528POPC   C1E27424   2.993  10.160   3.039
  528POPC   C1F27425   3.066  10.109   3.163
  528POPC   C1G27426   3.210  10.160   3.167
  528POPC   C1H27427   3.286  10.103   3.287
  528POPC   C1I27428   3.430  10.154   3.288
  528POPC   C1J27429   3.500  10.162   3.400
  528POPC   C1K27430   3.441  10.117   3.534
  528POPC   C1L27431   3.553  10.089   3.634
  528POPC   C1M27432   3.497  10.061   3.774
  528POPC   C1N27433   3.611  10.050   3.875
  528POPC   C1O27434   3.557  10.027   4.016
  528POPC   C1P27435   3.672  10.017   4.117
  528POPC   C1Q27436   3.620   9.997   4.259
  528POPC   C1R27437   3.735   9.997   4.359
  528POPC    CE27438   2.755   9.930   2.364
  528POPC    OG27439   2.722   9.814   2.445
  528POPC   C2A27440   2.820   9.763   2.519
  528POPC    OH27441   2.937   9.798   2.504
  528POPC   C2B27442   2.777   9.656   2.611
  528POPC   C2C27443   2.754   9.713   2.751
  528POPC   C2D27444   2.748   9.605   2.859
  528POPC   C2E27445   2.713   9.670   2.993
  528POPC   C2F27446   2.731   9.576   3.112
  528POPC   C2G27447   2.676   9.642   3.238
  528POPC   C2H27448   2.713   9.565   3.365
  528POPC   C2I27449   2.639   9.625   3.484
  528POPC   C2J27450   2.687   9.566   3.617
  528POPC   C2K27451   2.598   9.615   3.731
  528POPC   C2L27452   2.653   9.574   3.868
  528POPC   C2M27453   2.555   9.612   3.978
  528POPC   C2N27454   2.612   9.591   4.119
  528POPC   C2O27455   2.722   9.692   4.151
  528POPC   C2P27456   2.775   9.673   4.294
  529POPC   CN127457   3.127  10.895   2.684
  529POPC   CN227458   3.222  10.957   2.478
  529POPC   CN327459   3.319  10.777   2.602
  529POPC   NTM27460   3.192  10.841   2.564
  529POPC    CA27461   3.101  10.751   2.490
  529POPC    CB27462   3.039  10.628   2.561
  529POPC    OA27463   3.131  10.530   2.610
  529POPC     P27464   3.066  10.438   2.721
  529POPC    OB27465   2.928  10.410   2.680
  529POPC    OC27466   3.170  10.335   2.732
  529POPC    OD27467   3.073  10.539   2.841
  529POPC    CC27468   3.193  10.529   2.916
  529POPC    CD27469   3.231  10.659   2.988
  529POPC    OE27470   3.374  10.682   2.995
  529POPC   C1A27471   3.415  10.809   2.992
  529POPC    OF27472   3.341  10.894   2.942
  529POPC   C1B27473   3.559  10.825   3.020
  529POPC   C1C27474   3.594  10.962   3.080
  529POPC   C1D27475   3.546  10.982   3.224
  529POPC   C1E27476   3.622  10.895   3.324
  529POPC   C1F27477   3.581  10.927   3.467
  529POPC   C1G27478   3.649  10.830   3.564
  529POPC   C1H27479   3.612  10.860   3.710
  529POPC   C1I27480   3.662  10.746   3.799
  529POPC   C1J27481   3.696  10.764   3.926
  529POPC   C1K27482   3.685  10.901   3.994
  529POPC   C1L27483   3.677  10.880   4.146
  529POPC   C1M27484   3.686  11.013   4.221
  529POPC   C1N27485   3.687  10.991   4.373
  529POPC   C1O27486   3.814  10.919   4.421
  529POPC   C1P27487   3.810  10.889   4.571
  529POPC   C1Q27488   3.703  10.786   4.607
  529POPC   C1R27489   3.699  10.761   4.758
  529POPC    CE27490   3.150  10.666   3.119
  529POPC    OG27491   3.185  10.572   3.222
  529POPC   C2A27492   3.270  10.614   3.315
  529POPC    OH27493   3.317  10.728   3.313
  529POPC   C2B27494   3.297  10.513   3.420
  529POPC   C2C27495   3.308  10.578   3.558
  529POPC   C2D27496   3.329  10.474   3.668
  529POPC   C2E27497   3.338  10.541   3.805
  529POPC   C2F27498   3.360  10.438   3.915
  529POPC   C2G27499   3.376  10.505   4.051
  529POPC   C2H27500   3.401  10.400   4.159
  529POPC   C2I27501   3.432  10.465   4.295
  529POPC   C2J27502   3.473  10.356   4.395
  529POPC   C2K27503   3.520  10.416   4.527
  529POPC   C2L27504   3.578  10.305   4.615
  529POPC   C2M27505   3.636  10.362   4.745
  529POPC   C2N27506   3.707  10.250   4.822
  529POPC   C2O27507   3.770  10.302   4.951
  529POPC   C2P27508   3.845  10.190   5.023
  530POPC   CN127509   3.474  11.666   2.533
  530POPC   CN227510   3.502  11.485   2.377
  530POPC   CN327511   3.399  11.686   2.309
  530POPC   NTM27512   3.505  11.630   2.394
  530POPC    CA27513   3.635  11.686   2.349
  530POPC    CB27514   3.767  11.648   2.421
  530POPC    OA27515   3.783  11.695   2.555
  530POPC     P27516   3.912  11.636   2.624
  530POPC    OB27517   4.016  11.626   2.520
  530POPC    OC27518   3.931  11.724   2.740
  530POPC    OD27519   3.849  11.498   2.663
  530POPC    CC27520   3.786  11.505   2.791
  530POPC    CD27521   3.681  11.397   2.820
  530POPC    OE27522   3.596  11.440   2.930
  530POPC   C1A27523   3.478  11.383   2.951
  530POPC    OF27524   3.426  11.314   2.862
  530POPC   C1B27525   3.412  11.428   3.076
  530POPC   C1C27526   3.473  11.358   3.197
  530POPC   C1D27527   3.409  11.403   3.328
  530POPC   C1E27528   3.478  11.335   3.446
  530POPC   C1F27529   3.413  11.374   3.579
  530POPC   C1G27530   3.490  11.316   3.697
  530POPC   C1H27531   3.430  11.360   3.830
  530POPC   C1I27532   3.521  11.320   3.945
  530POPC   C1J27533   3.475  11.302   4.068
  530POPC   C1K27534   3.328  11.320   4.105
  530POPC   C1L27535   3.317  11.346   4.256
  530POPC   C1M27536   3.173  11.335   4.309
  530POPC   C1N27537   3.084  11.454   4.274
  530POPC   C1O27538   2.949  11.435   4.342
  530POPC   C1P27539   2.861  11.559   4.340
  530POPC   C1Q27540   2.732  11.531   4.418
  530POPC   C1R27541   2.651  11.659   4.442
  530POPC    CE27542   3.757  11.264   2.836
  530POPC    OG27543   3.852  11.259   2.944
  530POPC   C2A27544   3.913  11.143   2.968
  530POPC    OH27545   3.897  11.044   2.895
  530POPC   C2B27546   3.996  11.143   3.091
  530POPC   C2C27547   3.920  11.196   3.213
  530POPC   C2D27548   4.002  11.190   3.341
  530POPC   C2E27549   3.927  11.261   3.454
  530POPC   C2F27550   4.005  11.258   3.586
  530POPC   C2G27551   3.995  11.124   3.658
  530POPC   C2H27552   4.083  11.124   3.783
  530POPC   C2I27553   4.057  11.002   3.872
  530POPC   C2J27554   4.158  10.997   3.987
  530POPC   C2K27555   4.117  10.892   4.091
  530POPC   C2L27556   4.226  10.866   4.195
  530POPC   C2M27557   4.261  10.988   4.280
  530POPC   C2N27558   4.373  10.955   4.378
  530POPC   C2O27559   4.413  11.076   4.462
  530POPC   C2P27560   4.524  11.041   4.561
  531POPC   CN127561   3.473  13.194   2.439
  531POPC   CN227562   3.324  13.064   2.574
  531POPC   CN327563   3.249  13.259   2.458
  531POPC   NTM27564   3.336  13.142   2.450
  531POPC    CA27565   3.299  13.063   2.329
  531POPC    CB27566   3.365  12.926   2.301
  531POPC    OA27567   3.507  12.921   2.320
  531POPC     P27568   3.565  12.775   2.311
  531POPC    OB27569   3.509  12.710   2.192
  531POPC    OC27570   3.710  12.785   2.334
  531POPC    OD27571   3.493  12.710   2.434
  531POPC    CC27572   3.562  12.726   2.559
  531POPC    CD27573   3.472  12.692   2.679
  531POPC    OE27574   3.536  12.708   2.809
  531POPC   C1A27575   3.552  12.830   2.860
  531POPC    OF27576   3.540  12.931   2.790
  531POPC   C1B27577   3.583  12.828   3.004
  531POPC   C1C27578   3.729  12.796   3.038
  531POPC   C1D27579   3.744  12.791   3.191
  531POPC   C1E27580   3.886  12.758   3.234
  531POPC   C1F27581   3.900  12.763   3.386
  531POPC   C1G27582   4.045  12.739   3.429
  531POPC   C1H27583   4.065  12.742   3.581
  531POPC   C1I27584   4.043  12.881   3.641
  531POPC   C1J27585   4.032  12.899   3.773
  531POPC   C1K27586   4.048  12.782   3.870
  531POPC   C1L27587   4.183  12.787   3.941
  531POPC   C1M27588   4.198  12.670   4.039
  531POPC   C1N27589   4.335  12.675   4.107
  531POPC   C1O27590   4.353  12.556   4.201
  531POPC   C1P27591   4.491  12.560   4.267
  531POPC   C1Q27592   4.518  12.438   4.356
  531POPC   C1R27593   4.527  12.308   4.276
  531POPC    CE27594   3.418  12.550   2.654
  531POPC    OG27595   3.305  12.510   2.733
  531POPC   C2A27596   3.258  12.387   2.716
  531POPC    OH27597   3.290  12.321   2.617
  531POPC   C2B27598   3.146  12.354   2.807
  531POPC   C2C27599   3.194  12.309   2.945
  531POPC   C2D27600   3.076  12.313   3.042
  531POPC   C2E27601   3.124  12.293   3.186
  531POPC   C2F27602   3.021  12.350   3.284
  531POPC   C2G27603   3.077  12.349   3.426
  531POPC   C2H27604   2.995  12.440   3.517
  531POPC   C2I27605   3.055  12.441   3.657
  531POPC   C2J27606   2.984  12.542   3.748
  531POPC   C2K27607   3.029  12.528   3.894
  531POPC   C2L27608   3.176  12.566   3.916
  531POPC   C2M27609   3.220  12.535   4.060
  531POPC   C2N27610   3.234  12.385   4.083
  531POPC   C2O27611   3.268  12.350   4.228
  531POPC   C2P27612   3.150  12.375   4.323
  532POPC   CN127613   2.078  13.743   2.723
  532POPC   CN227614   2.308  13.758   2.670
  532POPC   CN327615   2.239  13.737   2.897
  532POPC   NTM27616   2.211  13.694   2.760
  532POPC    CA27617   2.210  13.546   2.749
  532POPC    CB27618   2.338  13.464   2.780
  532POPC    OA27619   2.450  13.489   2.694
  532POPC     P27620   2.583  13.429   2.752
  532POPC    OB27621   2.553  13.295   2.802
  532POPC    OC27622   2.687  13.454   2.652
  532POPC    OD27623   2.608  13.530   2.868
  532POPC    CC27624   2.718  13.488   2.948
  532POPC    CD27625   2.754  13.586   3.061
  532POPC    OE27626   2.861  13.543   3.150
  532POPC   C1A27627   2.989  13.542   3.112
  532POPC    OF27628   3.022  13.590   3.003
  532POPC   C1B27629   3.082  13.488   3.214
  532POPC   C1C27630   3.058  13.542   3.356
  532POPC   C1D27631   3.150  13.478   3.460
  532POPC   C1E27632   3.123  13.539   3.597
  532POPC   C1F27633   3.214  13.482   3.706
  532POPC   C1G27634   3.191  13.558   3.838
  532POPC   C1H27635   3.275  13.507   3.955
  532POPC   C1I27636   3.426  13.528   3.935
  532POPC   C1J27637   3.504  13.566   4.036
  532POPC   C1K27638   3.446  13.596   4.174
  532POPC   C1L27639   3.533  13.700   4.246
  532POPC   C1M27640   3.473  13.749   4.378
  532POPC   C1N27641   3.471  13.640   4.486
  532POPC   C1O27642   3.410  13.691   4.617
  532POPC   C1P27643   3.497  13.796   4.686
  532POPC   C1Q27644   3.430  13.847   4.814
  532POPC   C1R27645   3.519  13.947   4.887
  532POPC    CE27646   2.621  13.613   3.135
  532POPC    OG27647   2.557  13.497   3.191
  532POPC   C2A27648   2.425  13.501   3.201
  532POPC    OH27649   2.359  13.582   3.135
  532POPC   C2B27650   2.368  13.390   3.281
  532POPC   C2C27651   2.352  13.429   3.428
  532POPC   C2D27652   2.486  13.434   3.503
  532POPC   C2E27653   2.466  13.490   3.643
  532POPC   C2F27654   2.592  13.481   3.728
  532POPC   C2G27655   2.566  13.544   3.865
  532POPC   C2H27656   2.683  13.524   3.961
  532POPC   C2I27657   2.657  13.592   4.096
  532POPC   C2J27658   2.539  13.531   4.172
  532POPC   C2K27659   2.498  13.622   4.288
  532POPC   C2L27660   2.375  13.568   4.360
  532POPC   C2M27661   2.316  13.669   4.458
  532POPC   C2N27662   2.251  13.787   4.386
  532POPC   C2O27663   2.185  13.883   4.485
  532POPC   C2P27664   2.118  13.999   4.410
  533POPC   CN127665   2.987  14.033   2.633
  533POPC   CN227666   3.043  14.110   2.854
  533POPC   CN327667   3.213  14.071   2.695
  533POPC   NTM27668   3.076  14.120   2.711
  533POPC    CA27669   3.075  14.260   2.661
  533POPC    CB27670   2.947  14.346   2.670
  533POPC    OA27671   2.902  14.376   2.803
  533POPC     P27672   2.795  14.491   2.805
  533POPC    OB27673   2.781  14.544   2.941
  533POPC    OC27674   2.816  14.579   2.691
  533POPC    OD27675   2.671  14.402   2.766
  533POPC    CC27676   2.573  14.394   2.870
  533POPC    CD27677   2.474  14.277   2.852
  533POPC    OE27678   2.350  14.285   2.927
  533POPC   C1A27679   2.256  14.373   2.892
  533POPC    OF27680   2.250  14.409   2.774
  533POPC   C1B27681   2.151  14.390   2.995
  533POPC   C1C27682   2.106  14.535   3.006
  533POPC   C1D27683   2.008  14.561   3.122
  533POPC   C1E27684   2.072  14.545   3.260
  533POPC   C1F27685   1.969  14.571   3.369
  533POPC   C1G27686   2.024  14.544   3.509
  533POPC   C1H27687   1.911  14.550   3.612
  533POPC   C1I27688   1.958  14.509   3.752
  533POPC   C1J27689   1.889  14.547   3.860
  533POPC   C1K27690   1.762  14.630   3.843
  533POPC   C1L27691   1.659  14.599   3.952
  533POPC   C1M27692   1.527  14.671   3.922
  533POPC   C1N27693   1.415  14.636   4.020
  533POPC   C1O27694   1.431  14.701   4.158
  533POPC   C1P27695   1.403  14.852   4.157
  533POPC   C1Q27696   1.256  14.888   4.131
  533POPC   C1R27697   1.163  14.846   4.245
  533POPC    CE27698   2.556  14.148   2.874
  533POPC    OG27699   2.636  14.142   2.993
  533POPC   C2A27700   2.693  14.026   3.022
  533POPC    OH27701   2.674  13.926   2.953
  533POPC   C2B27702   2.785  14.031   3.138
  533POPC   C2C27703   2.719  13.988   3.269
  533POPC   C2D27704   2.829  13.958   3.370
  533POPC   C2E27705   2.777  13.913   3.507
  533POPC   C2F27706   2.895  13.861   3.588
  533POPC   C2G27707   2.862  13.830   3.735
  533POPC   C2H27708   2.843  13.958   3.816
  533POPC   C2I27709   2.831  13.930   3.966
  533POPC   C2J27710   2.965  13.884   4.026
  533POPC   C2K27711   2.948  13.847   4.173
  533POPC   C2L27712   3.081  13.800   4.233
  533POPC   C2M27713   3.063  13.743   4.374
  533POPC   C2N27714   2.987  13.611   4.373
  533POPC   C2O27715   2.973  13.553   4.514
  533POPC   C2P27716   2.896  13.421   4.512
  534POPC   CN127717   2.715  14.672   2.149
  534POPC   CN227718   2.796  14.879   2.238
  534POPC   CN327719   2.574  14.811   2.281
  534POPC   NTM27720   2.711  14.762   2.265
  534POPC    CA27721   2.752  14.691   2.389
  534POPC    CB27722   2.890  14.621   2.397
  534POPC    OA27723   3.003  14.704   2.374
  534POPC     P27724   3.138  14.624   2.380
  534POPC    OB27725   3.119  14.493   2.317
  534POPC    OC27726   3.235  14.720   2.324
  534POPC    OD27727   3.152  14.607   2.535
  534POPC    CC27728   3.250  14.694   2.592
  534POPC    CD27729   3.236  14.716   2.743
  534POPC    OE27730   3.345  14.794   2.801
  534POPC   C1A27731   3.339  14.926   2.796
  534POPC    OF27732   3.262  14.982   2.717
  534POPC   C1B27733   3.448  14.995   2.869
  534POPC   C1C27734   3.413  15.034   3.014
  534POPC   C1D27735   3.413  14.914   3.109
  534POPC   C1E27736   3.416  14.957   3.256
  534POPC   C1F27737   3.284  15.014   3.310
  534POPC   C1G27738   3.177  14.906   3.324
  534POPC   C1H27739   3.057  14.954   3.405
  534POPC   C1I27740   2.953  14.842   3.416
  534POPC   C1J27741   2.898  14.811   3.532
  534POPC   C1K27742   2.937  14.885   3.660
  534POPC   C1L27743   2.829  14.870   3.768
  534POPC   C1M27744   2.870  14.944   3.895
  534POPC   C1N27745   2.764  14.930   4.004
  534POPC   C1O27746   2.803  15.010   4.128
  534POPC   C1P27747   2.698  15.000   4.238
  534POPC   C1Q27748   2.736  15.087   4.357
  534POPC   C1R27749   2.632  15.079   4.469
  534POPC    CE27750   3.225  14.576   2.807
  534POPC    OG27751   3.151  14.572   2.931
  534POPC   C2A27752   3.147  14.454   2.993
  534POPC    OH27753   3.222  14.361   2.959
  534POPC   C2B27754   3.053  14.452   3.107
  534POPC   C2C27755   3.116  14.409   3.240
  534POPC   C2D27756   3.222  14.509   3.286
  534POPC   C2E27757   3.267  14.481   3.429
  534POPC   C2F27758   3.379  14.579   3.465
  534POPC   C2G27759   3.423  14.570   3.611
  534POPC   C2H27760   3.320  14.633   3.706
  534POPC   C2I27761   3.374  14.640   3.849
  534POPC   C2J27762   3.496  14.732   3.859
  534POPC   C2K27763   3.566  14.724   3.995
  534POPC   C2L27764   3.485  14.785   4.110
  534POPC   C2M27765   3.568  14.780   4.238
  534POPC   C2N27766   3.496  14.848   4.354
  534POPC   C2O27767   3.586  14.849   4.478
  534POPC   C2P27768   3.517  14.915   4.597
  535POPC   CN127769   3.223  15.670   2.144
  535POPC   CN227770   3.206  15.601   2.372
  535POPC   CN327771   3.031  15.553   2.223
  535POPC   NTM27772   3.176  15.563   2.233
  535POPC    CA27773   3.235  15.432   2.196
  535POPC    CB27774   3.389  15.415   2.198
  535POPC    OA27775   3.448  15.431   2.326
  535POPC     P27776   3.589  15.498   2.319
  535POPC    OB27777   3.665  15.420   2.220
  535POPC    OC27778   3.567  15.641   2.298
  535POPC    OD27779   3.648  15.471   2.462
  535POPC    CC27780   3.581  15.543   2.567
  535POPC    CD27781   3.486  15.453   2.647
  535POPC    OE27782   3.387  15.520   2.730
  535POPC   C1A27783   3.273  15.454   2.751
  535POPC    OF27784   3.236  15.368   2.671
  535POPC   C1B27785   3.192  15.511   2.860
  535POPC   C1C27786   3.226  15.445   2.994
  535POPC   C1D27787   3.169  15.528   3.109
  535POPC   C1E27788   3.191  15.464   3.246
  535POPC   C1F27789   3.144  15.561   3.355
  535POPC   C1G27790   3.151  15.502   3.496
  535POPC   C1H27791   3.044  15.395   3.519
  535POPC   C1I27792   3.041  15.354   3.667
  535POPC   C1J27793   2.925  15.321   3.723
  535POPC   C1K27794   2.796  15.323   3.640
  535POPC   C1L27795   2.674  15.376   3.715
  535POPC   C1M27796   2.632  15.289   3.834
  535POPC   C1N27797   2.513  15.349   3.907
  535POPC   C1O27798   2.480  15.268   4.032
  535POPC   C1P27799   2.363  15.329   4.109
  535POPC   C1Q27800   2.333  15.255   4.240
  535POPC   C1R27801   2.283  15.112   4.217
  535POPC    CE27802   3.576  15.348   2.715
  535POPC    OG27803   3.653  15.391   2.829
  535POPC   C2A27804   3.749  15.309   2.870
  535POPC    OH27805   3.789  15.217   2.799
  535POPC   C2B27806   3.805  15.343   3.003
  535POPC   C2C27807   3.719  15.282   3.115
  535POPC   C2D27808   3.779  15.306   3.253
  535POPC   C2E27809   3.695  15.235   3.359
  535POPC   C2F27810   3.766  15.229   3.494
  535POPC   C2G27811   3.688  15.139   3.591
  535POPC   C2H27812   3.770  15.102   3.715
  535POPC   C2I27813   3.791  15.219   3.812
  535POPC   C2J27814   3.872  15.179   3.936
  535POPC   C2K27815   3.800  15.071   4.019
  535POPC   C2L27816   3.882  15.023   4.138
  535POPC   C2M27817   3.892  15.127   4.250
  535POPC   C2N27818   3.964  15.068   4.371
  535POPC   C2O27819   3.972  15.168   4.486
  535POPC   C2P27820   4.044  15.107   4.606
  536POPC   CN127821   3.839  16.340   2.220
  536POPC   CN227822   3.894  16.344   2.452
  536POPC   CN327823   3.672  16.290   2.380
  536POPC   NTM27824   3.815  16.275   2.349
  536POPC    CA27825   3.855  16.133   2.338
  536POPC    CB27826   3.846  16.037   2.458
  536POPC    OA27827   3.713  16.024   2.510
  536POPC     P27828   3.697  15.902   2.607
  536POPC    OB27829   3.552  15.878   2.617
  536POPC    OC27830   3.792  15.796   2.569
  536POPC    OD27831   3.747  15.980   2.735
  536POPC    CC27832   3.648  16.066   2.792
  536POPC    CD27833   3.702  16.157   2.904
  536POPC    OE27834   3.600  16.221   2.987
  536POPC   C1A27835   3.514  16.312   2.942
  536POPC    OF27836   3.502  16.334   2.821
  536POPC   C1B27837   3.428  16.367   3.048
  536POPC   C1C27838   3.466  16.509   3.093
  536POPC   C1D27839   3.423  16.615   2.991
  536POPC   C1E27840   3.440  16.758   3.043
  536POPC   C1F27841   3.351  16.784   3.164
  536POPC   C1G27842   3.353  16.929   3.211
  536POPC   C1H27843   3.271  16.941   3.340
  536POPC   C1I27844   3.256   0.102   3.387
  536POPC   C1J27845   3.270   0.131   3.516
  536POPC   C1K27846   3.307   0.020   3.614
  536POPC   C1L27847   3.394   0.076   3.726
  536POPC   C1M27848   3.467  16.947   3.801
  536POPC   C1N27849   3.569   0.023   3.899
  536POPC   C1O27850   3.657  16.896   3.956
  536POPC   C1P27851   3.767  16.955   4.044
  536POPC   C1Q27852   3.863  16.845   4.092
  536POPC   C1R27853   3.974  16.903   4.179
  536POPC    CE27854   3.807  16.249   2.838
  536POPC    OG27855   3.893  16.324   2.926
  536POPC   C2A27856   3.857  16.446   2.965
  536POPC    OH27857   3.763  16.505   2.912
  536POPC   C2B27858   3.955  16.508   3.056
  536POPC   C2C27859   3.921  16.490   3.204
  536POPC   C2D27860   4.031  16.551   3.292
  536POPC   C2E27861   4.160  16.469   3.286
  536POPC   C2F27862   4.282  16.542   3.343
  536POPC   C2G27863   4.325  16.658   3.253
  536POPC   C2H27864   4.471  16.697   3.281
  536POPC   C2I27865   4.518  16.816   3.196
  536POPC   C2J27866   4.507  16.790   3.045
  536POPC   C2K27867   4.553  16.914   2.967
  536POPC   C2L27868   4.496  16.912   2.825
  536POPC   C2M27869   4.528   0.059   2.752
  536POPC   C2N27870   4.440   0.081   2.628
  536POPC   C2O27871   4.458  16.957   2.521
  536POPC   C2P27872   4.368   0.004   2.401
  537POPC   CN127873   3.779  16.953   2.536
  537POPC   CN227874   3.978   0.026   2.421
  537POPC   CN327875   3.770   0.129   2.361
  537POPC   NTM27876   3.851   0.080   2.473
  537POPC    CA27877   3.871   0.186   2.575
  537POPC    CB27878   3.935   0.321   2.534
  537POPC    OA27879   4.065   0.310   2.478
  537POPC     P27880   4.113   0.442   2.408
  537POPC    OB27881   4.230   0.400   2.329
  537POPC    OC27882   3.997   0.502   2.342
  537POPC    OD27883   4.150   0.525   2.536
  537POPC    CC27884   4.270   0.482   2.601
  537POPC    CD27885   4.289   0.546   2.739
  537POPC    OE27886   4.416   0.508   2.799
  537POPC   C1A27887   4.483   0.599   2.870
  537POPC    OF27888   4.456   0.720   2.859
  537POPC   C1B27889   4.602   0.542   2.937
  537POPC   C1C27890   4.625   0.598   3.078
  537POPC   C1D27891   4.743   0.529   3.146
  537POPC   C1E27892   4.770   0.579   3.288
  537POPC   C1F27893   4.663   0.537   3.389
  537POPC   C1G27894   4.694   0.595   3.528
  537POPC   C1H27895   4.588   0.556   3.631
  537POPC   C1I27896   4.614   0.624   3.765
  537POPC   C1J27897   4.577   0.567   3.880
  537POPC   C1K27898   4.509   0.430   3.881
  537POPC   C1L27899   4.420   0.412   4.004
  537POPC   C1M27900   4.351   0.276   3.998
  537POPC   C1N27901   4.258   0.246   4.117
  537POPC   C1O27902   4.335   0.229   4.249
  537POPC   C1P27903   4.246   0.167   4.358
  537POPC   C1Q27904   4.134   0.259   4.408
  537POPC   C1R27905   4.188   0.372   4.497
  537POPC    CE27906   4.163   0.510   2.822
  537POPC    OG27907   4.160   0.544   2.963
  537POPC   C2A27908   4.131   0.668   2.999
  537POPC    OH27909   4.089   0.750   2.917
  537POPC   C2B27910   4.140   0.690   3.145
  537POPC   C2C27911   4.284   0.717   3.188
  537POPC   C2D27912   4.304   0.720   3.340
  537POPC   C2E27913   4.258   0.849   3.407
  537POPC   C2F27914   4.300   0.845   3.554
  537POPC   C2G27915   4.269   0.975   3.629
  537POPC   C2H27916   4.321   0.962   3.773
  537POPC   C2I27917   4.294   1.087   3.857
  537POPC   C2J27918   4.349   1.067   3.998
  537POPC   C2K27919   4.330   1.190   4.086
  537POPC   C2L27920   4.388   1.163   4.225
  537POPC   C2M27921   4.372   1.282   4.319
  537POPC   C2N27922   4.426   1.249   4.458
  537POPC   C2O27923   4.411   1.367   4.553
  537POPC   C2P27924   4.460   1.331   4.694
  538POPC   CN127925   4.128   2.039   2.005
  538POPC   CN227926   4.193   1.937   2.208
  538POPC   CN327927   4.123   1.802   2.023
  538POPC   NTM27928   4.197   1.923   2.061
  538POPC    CA27929   4.336   1.922   2.009
  538POPC    CB27930   4.431   1.803   2.037
  538POPC    OA27931   4.454   1.770   2.174
  538POPC     P27932   4.501   1.620   2.184
  538POPC    OB27933   4.380   1.542   2.155
  538POPC    OC27934   4.620   1.607   2.100
  538POPC    OD27935   4.533   1.613   2.337
  538POPC    CC27936   4.417   1.626   2.419
  538POPC    CD27937   4.445   1.625   2.570
  538POPC    OE27938   4.324   1.638   2.650
  538POPC   C1A27939   4.245   1.533   2.667
  538POPC    OF27940   4.280   1.421   2.630
  538POPC   C1B27941   4.128   1.562   2.754
  538POPC   C1C27942   4.000   1.492   2.707
  538POPC   C1D27943   3.897   1.484   2.820
  538POPC   C1E27944   3.859   1.622   2.874
  538POPC   C1F27945   3.776   1.616   3.003
  538POPC   C1G27946   3.851   1.550   3.120
  538POPC   C1H27947   3.769   1.563   3.248
  538POPC   C1I27948   3.839   1.501   3.368
  538POPC   C1J27949   3.766   1.470   3.475
  538POPC   C1K27950   3.616   1.497   3.475
  538POPC   C1L27951   3.542   1.404   3.571
  538POPC   C1M27952   3.392   1.435   3.573
  538POPC   C1N27953   3.321   1.346   3.675
  538POPC   C1O27954   3.170   1.372   3.683
  538POPC   C1P27955   3.097   1.329   3.555
  538POPC   C1Q27956   2.945   1.347   3.566
  538POPC   C1R27957   2.903   1.494   3.576
  538POPC    CE27958   4.553   1.732   2.595
  538POPC    OG27959   4.592   1.757   2.731
  538POPC   C2A27960   4.546   1.868   2.788
  538POPC    OH27961   4.466   1.942   2.730
  538POPC   C2B27962   4.600   1.887   2.925
  538POPC   C2C27963   4.508   1.969   3.016
  538POPC   C2D27964   4.560   1.968   3.160
  538POPC   C2E27965   4.470   2.050   3.252
  538POPC   C2F27966   4.511   2.035   3.398
  538POPC   C2G27967   4.421   2.119   3.489
  538POPC   C2H27968   4.444   2.091   3.638
  538POPC   C2I27969   4.581   2.138   3.687
  538POPC   C2J27970   4.600   2.103   3.834
  538POPC   C2K27971   4.738   2.146   3.884
  538POPC   C2L27972   4.760   2.097   4.027
  538POPC   C2M27973   4.896   2.139   4.084
  538POPC   C2N27974   4.906   2.290   4.108
  538POPC   C2O27975   5.040   2.326   4.171
  538POPC   C2P27976   5.047   2.476   4.203
  539POPC   CN127977   3.549   1.549   2.264
  539POPC   CN227978   3.452   1.714   2.120
  539POPC   CN327979   3.554   1.523   2.028
  539POPC   NTM27980   3.473   1.570   2.140
  539POPC    CA27981   3.345   1.494   2.140
  539POPC    CB27982   3.244   1.511   2.256
  539POPC    OA27983   3.195   1.643   2.279
  539POPC     P27984   3.140   1.660   2.425
  539POPC    OB27985   3.051   1.776   2.425
  539POPC    OC27986   3.095   1.530   2.476
  539POPC    OD27987   3.280   1.691   2.489
  539POPC    CC27988   3.269   1.691   2.631
  539POPC    CD27989   3.397   1.647   2.704
  539POPC    OE27990   3.373   1.619   2.844
  539POPC   C1A27991   3.440   1.522   2.905
  539POPC    OF27992   3.517   1.448   2.842
  539POPC   C1B27993   3.416   1.519   3.051
  539POPC   C1C27994   3.295   1.437   3.097
  539POPC   C1D27995   3.312   1.287   3.074
  539POPC   C1E27996   3.215   1.210   3.163
  539POPC   C1F27997   3.229   1.059   3.144
  539POPC   C1G27998   3.167   0.982   3.261
  539POPC   C1H27999   3.250   0.992   3.389
  539POPC   C1I28000   3.379   0.910   3.382
  539POPC   C1J28001   3.454   0.892   3.490
  539POPC   C1K28002   3.415   0.960   3.621
  539POPC   C1L28003   3.432   0.866   3.741
  539POPC   C1M28004   3.397   0.935   3.874
  539POPC   C1N28005   3.251   0.983   3.884
  539POPC   C1O28006   3.150   0.868   3.886
  539POPC   C1P28007   3.007   0.921   3.881
  539POPC   C1Q28008   2.906   0.807   3.876
  539POPC   C1R28009   2.763   0.861   3.866
  539POPC    CE28010   3.505   1.752   2.672
  539POPC    OG28011   3.476   1.887   2.714
  539POPC   C2A28012   3.547   1.986   2.662
  539POPC    OH28013   3.616   1.967   2.562
  539POPC   C2B28014   3.515   2.118   2.720
  539POPC   C2C28015   3.611   2.156   2.832
  539POPC   C2D28016   3.557   2.277   2.910
  539POPC   C2E28017   3.653   2.329   3.018
  539POPC   C2F28018   3.688   2.221   3.121
  539POPC   C2G28019   3.772   2.273   3.237
  539POPC   C2H28020   3.688   2.346   3.341
  539POPC   C2I28021   3.770   2.370   3.468
  539POPC   C2J28022   3.682   2.421   3.582
  539POPC   C2K28023   3.761   2.428   3.712
  539POPC   C2L28024   3.670   2.471   3.827
  539POPC   C2M28025   3.744   2.469   3.960
  539POPC   C2N28026   3.651   2.510   4.074
  539POPC   C2O28027   3.721   2.509   4.211
  539POPC   C2P28028   3.760   2.369   4.257
  540POPC   CN128029   3.182   2.136   2.382
  540POPC   CN228030   3.362   1.987   2.353
  540POPC   CN328031   3.256   2.087   2.162
  540POPC   NTM28032   3.300   2.109   2.300
  540POPC    CA28033   3.389   2.227   2.313
  540POPC    CB28034   3.519   2.241   2.231
  540POPC    OA28035   3.612   2.133   2.245
  540POPC     P28036   3.752   2.167   2.183
  540POPC    OB28037   3.811   2.033   2.169
  540POPC    OC28038   3.735   2.259   2.070
  540POPC    OD28039   3.818   2.246   2.301
  540POPC    CC28040   3.843   2.166   2.416
  540POPC    CD28041   3.943   2.224   2.518
  540POPC    OE28042   3.957   2.141   2.637
  540POPC   C1A28043   4.021   2.024   2.634
  540POPC    OF28044   4.071   1.980   2.529
  540POPC   C1B28045   4.017   1.952   2.763
  540POPC   C1C28046   4.130   1.995   2.858
  540POPC   C1D28047   4.119   1.931   2.997
  540POPC   C1E28048   3.987   1.968   3.065
  540POPC   C1F28049   3.973   1.914   3.207
  540POPC   C1G28050   4.047   1.998   3.311
  540POPC   C1H28051   3.997   1.964   3.451
  540POPC   C1I28052   4.049   2.064   3.555
  540POPC   C1J28053   4.041   2.035   3.684
  540POPC   C1K28054   3.981   1.902   3.729
  540POPC   C1L28055   4.033   1.861   3.866
  540POPC   C1M28056   3.971   1.728   3.911
  540POPC   C1N28057   4.015   1.694   4.053
  540POPC   C1O28058   3.952   1.562   4.100
  540POPC   C1P28059   3.989   1.530   4.245
  540POPC   C1Q28060   3.927   1.626   4.347
  540POPC   C1R28061   3.775   1.609   4.359
  540POPC    CE28062   3.900   2.370   2.544
  540POPC    OG28063   3.763   2.389   2.587
  540POPC   C2A28064   3.712   2.511   2.575
  540POPC    OH28065   3.774   2.602   2.519
  540POPC   C2B28066   3.571   2.519   2.620
  540POPC   C2C28067   3.528   2.660   2.664
  540POPC   C2D28068   3.590   2.703   2.797
  540POPC   C2E28069   3.553   2.849   2.824
  540POPC   C2F28070   3.609   2.901   2.957
  540POPC   C2G28071   3.532   2.850   3.079
  540POPC   C2H28072   3.585   2.921   3.203
  540POPC   C2I28073   3.501   2.898   3.329
  540POPC   C2J28074   3.514   2.757   3.387
  540POPC   C2K28075   3.442   2.746   3.522
  540POPC   C2L28076   3.509   2.834   3.629
  540POPC   C2M28077   3.436   2.827   3.763
  540POPC   C2N28078   3.504   2.921   3.863
  540POPC   C2O28079   3.434   2.918   3.999
  540POPC   C2P28080   3.501   3.016   4.095
  541POPC   CN128081   3.707   2.940   2.390
  541POPC   CN228082   3.637   2.742   2.278
  541POPC   CN328083   3.652   2.944   2.157
  541POPC   NTM28084   3.715   2.865   2.263
  541POPC    CA28085   3.856   2.829   2.233
  541POPC    CB28086   3.959   2.940   2.200
  541POPC    OA28087   3.940   3.006   2.075
  541POPC     P28088   4.013   3.145   2.068
  541POPC    OB28089   4.149   3.129   2.120
  541POPC    OC28090   3.986   3.200   1.934
  541POPC    OD28091   3.923   3.225   2.167
  541POPC    CC28092   3.982   3.350   2.205
  541POPC    CD28093   3.877   3.459   2.237
  541POPC    OE28094   3.929   3.590   2.272
  541POPC   C1A28095   3.984   3.671   2.182
  541POPC    OF28096   4.017   3.626   2.072
  541POPC   C1B28097   4.021   3.807   2.228
  541POPC   C1C28098   3.923   3.874   2.325
  541POPC   C1D28099   3.965   4.019   2.350
  541POPC   C1E28100   3.868   4.092   2.443
  541POPC   C1F28101   3.886   4.061   2.592
  541POPC   C1G28102   4.017   4.118   2.645
  541POPC   C1H28103   4.028   4.113   2.798
  541POPC   C1I28104   3.934   4.212   2.867
  541POPC   C1J28105   3.907   4.200   2.996
  541POPC   C1K28106   3.972   4.087   3.077
  541POPC   C1L28107   3.993   4.124   3.224
  541POPC   C1M28108   3.862   4.131   3.303
  541POPC   C1N28109   3.888   4.160   3.451
  541POPC   C1O28110   3.757   4.161   3.529
  541POPC   C1P28111   3.781   4.190   3.677
  541POPC   C1Q28112   3.649   4.192   3.755
  541POPC   C1R28113   3.674   4.219   3.903
  541POPC    CE28114   3.785   3.398   2.344
  541POPC    OG28115   3.845   3.361   2.469
  541POPC   C2A28116   3.770   3.290   2.553
  541POPC    OH28117   3.661   3.243   2.518
  541POPC   C2B28118   3.837   3.270   2.684
  541POPC   C2C28119   3.743   3.284   2.804
  541POPC   C2D28120   3.824   3.282   2.934
  541POPC   C2E28121   3.735   3.292   3.058
  541POPC   C2F28122   3.820   3.302   3.185
  541POPC   C2G28123   3.733   3.301   3.310
  541POPC   C2H28124   3.815   3.326   3.437
  541POPC   C2I28125   3.726   3.314   3.560
  541POPC   C2J28126   3.797   3.357   3.689
  541POPC   C2K28127   3.702   3.340   3.808
  541POPC   C2L28128   3.756   3.400   3.939
  541POPC   C2M28129   3.878   3.326   3.994
  541POPC   C2N28130   3.919   3.387   4.129
  541POPC   C2O28131   4.042   3.317   4.186
  541POPC   C2P28132   4.081   3.376   4.322
  542POPC   CN128133   3.476   5.173   1.840
  542POPC   CN228134   3.609   4.980   1.802
  542POPC   CN328135   3.670   5.190   1.705
  542POPC   NTM28136   3.614   5.125   1.824
  542POPC    CA28137   3.689   5.161   1.947
  542POPC    CB28138   3.839   5.128   1.963
  542POPC    OA28139   3.874   4.990   1.973
  542POPC     P28140   4.027   4.963   1.945
  542POPC    OB28141   4.046   4.817   1.951
  542POPC    OC28142   4.062   5.040   1.825
  542POPC    OD28143   4.096   5.030   2.070
  542POPC    CC28144   4.098   4.943   2.184
  542POPC    CD28145   4.201   4.983   2.291
  542POPC    OE28146   4.232   4.881   2.388
  542POPC   C1A28147   4.314   4.780   2.361
  542POPC    OF28148   4.370   4.771   2.251
  542POPC   C1B28149   4.338   4.696   2.480
  542POPC   C1C28150   4.367   4.549   2.449
  542POPC   C1D28151   4.399   4.472   2.578
  542POPC   C1E28152   4.275   4.452   2.666
  542POPC   C1F28153   4.310   4.401   2.805
  542POPC   C1G28154   4.373   4.511   2.891
  542POPC   C1H28155   4.406   4.461   3.032
  542POPC   C1I28156   4.456   4.577   3.118
  542POPC   C1J28157   4.443   4.573   3.251
  542POPC   C1K28158   4.381   4.452   3.320
  542POPC   C1L28159   4.332   4.489   3.460
  542POPC   C1M28160   4.279   4.366   3.534
  542POPC   C1N28161   4.234   4.403   3.676
  542POPC   C1O28162   4.186   4.280   3.752
  542POPC   C1P28163   4.141   4.317   3.893
  542POPC   C1Q28164   4.091   4.193   3.968
  542POPC   C1R28165   4.045   4.230   4.110
  542POPC    CE28166   4.153   5.116   2.353
  542POPC    OG28167   4.038   5.109   2.439
  542POPC   C2A28168   4.025   5.210   2.524
  542POPC    OH28169   4.106   5.304   2.526
  542POPC   C2B28170   3.914   5.194   2.622
  542POPC   C2C28171   3.970   5.145   2.756
  542POPC   C2D28172   3.867   5.161   2.868
  542POPC   C2E28173   3.928   5.115   3.000
  542POPC   C2F28174   3.836   5.147   3.118
  542POPC   C2G28175   3.897   5.096   3.249
  542POPC   C2H28176   3.816   5.138   3.372
  542POPC   C2I28177   3.829   5.288   3.401
  542POPC   C2J28178   3.742   5.328   3.520
  542POPC   C2K28179   3.751   5.477   3.551
  542POPC   C2L28180   3.885   5.519   3.614
  542POPC   C2M28181   3.900   5.466   3.757
  542POPC   C2N28182   4.030   5.514   3.821
  542POPC   C2O28183   4.042   5.463   3.964
  542POPC   C2P28184   4.169   5.516   4.031
  543POPC   CN128185   3.863   5.776   2.531
  543POPC   CN228186   4.065   5.727   2.643
  543POPC   CN328187   3.886   5.571   2.650
  543POPC   NTM28188   3.956   5.668   2.564
  543POPC    CA28189   4.015   5.605   2.444
  543POPC    CB28190   3.928   5.537   2.335
  543POPC    OA28191   3.849   5.426   2.380
  543POPC     P28192   3.761   5.365   2.265
  543POPC    OB28193   3.821   5.389   2.134
  543POPC    OC28194   3.713   5.231   2.300
  543POPC    OD28195   3.639   5.465   2.272
  543POPC    CC28196   3.554   5.435   2.383
  543POPC    CD28197   3.518   5.556   2.471
  543POPC    OE28198   3.465   5.512   2.599
  543POPC   C1A28199   3.494   5.583   2.707
  543POPC    OF28200   3.581   5.671   2.703
  543POPC   C1B28201   3.425   5.532   2.828
  543POPC   C1C28202   3.522   5.484   2.937
  543POPC   C1D28203   3.556   5.597   3.034
  543POPC   C1E28204   3.661   5.553   3.137
  543POPC   C1F28205   3.803   5.550   3.078
  543POPC   C1G28206   3.862   5.690   3.060
  543POPC   C1H28207   3.898   5.754   3.195
  543POPC   C1I28208   3.943   5.899   3.177
  543POPC   C1J28209   3.954   5.978   3.283
  543POPC   C1K28210   3.925   5.923   3.423
  543POPC   C1L28211   4.020   5.985   3.525
  543POPC   C1M28212   4.002   5.921   3.663
  543POPC   C1N28213   4.102   5.974   3.767
  543POPC   C1O28214   4.246   5.936   3.730
  543POPC   C1P28215   4.348   5.987   3.833
  543POPC   C1Q28216   4.340   5.911   3.965
  543POPC   C1R28217   4.451   5.956   4.060
  543POPC    CE28218   3.429   5.650   2.388
  543POPC    OG28219   3.386   5.768   2.457
  543POPC   C2A28220   3.318   5.860   2.389
  543POPC    OH28221   3.290   5.843   2.270
  543POPC   C2B28222   3.282   5.977   2.472
  543POPC   C2C28223   3.160   6.054   2.419
  543POPC   C2D28224   3.127   6.177   2.503
  543POPC   C2E28225   3.073   6.141   2.642
  543POPC   C2F28226   3.020   6.267   2.713
  543POPC   C2G28227   2.952   6.233   2.845
  543POPC   C2H28228   3.049   6.207   2.960
  543POPC   C2I28229   2.970   6.168   3.085
  543POPC   C2J28230   3.056   6.168   3.212
  543POPC   C2K28231   2.971   6.122   3.330
  543POPC   C2L28232   3.038   6.151   3.465
  543POPC   C2M28233   2.949   6.100   3.578
  543POPC   C2N28234   2.998   6.142   3.717
  543POPC   C2O28235   2.975   6.291   3.742
  543POPC   C2P28236   3.017   6.330   3.884
  544POPC   CN128237   4.760   6.623   2.056
  544POPC   CN228238   4.668   6.404   2.035
  544POPC   CN328239   4.573   6.553   2.190
  544POPC   NTM28240   4.635   6.545   2.056
  544POPC    CA28241   4.543   6.588   1.948
  544POPC    CB28242   4.486   6.732   1.943
  544POPC    OA28243   4.408   6.766   2.057
  544POPC     P28244   4.366   6.917   2.060
  544POPC    OB28245   4.495   6.987   2.052
  544POPC    OC28246   4.266   6.923   1.953
  544POPC    OD28247   4.301   6.916   2.203
  544POPC    CC28248   4.399   6.894   2.304
  544POPC    CD28249   4.352   6.902   2.451
  544POPC    OE28250   4.458   6.868   2.545
  544POPC   C1A28251   4.559   6.950   2.570
  544POPC    OF28252   4.584   7.045   2.496
  544POPC   C1B28253   4.650   6.899   2.675
  544POPC   C1C28254   4.702   7.013   2.763
  544POPC   C1D28255   4.812   6.965   2.858
  544POPC   C1E28256   4.764   6.872   2.969
  544POPC   C1F28257   4.884   6.824   3.050
  544POPC   C1G28258   4.841   6.747   3.175
  544POPC   C1H28259   4.960   6.694   3.256
  544POPC   C1I28260   5.049   6.805   3.313
  544POPC   C1J28261   5.110   6.789   3.430
  544POPC   C1K28262   5.087   6.661   3.511
  544POPC   C1L28263   5.102   6.689   3.661
  544POPC   C1M28264   5.065   6.566   3.744
  544POPC   C1N28265   5.076   6.597   3.893
  544POPC   C1O28266   5.028   6.481   3.981
  544POPC   C1P28267   5.121   6.360   3.972
  544POPC   C1Q28268   5.070   6.244   4.058
  544POPC   C1R28269   5.167   6.127   4.056
  544POPC    CE28270   4.229   6.809   2.458
  544POPC    OG28271   4.147   6.811   2.575
  544POPC   C2A28272   4.033   6.742   2.567
  544POPC    OH28273   3.979   6.723   2.458
  544POPC   C2B28274   3.964   6.730   2.697
  544POPC   C2C28275   4.020   6.618   2.785
  544POPC   C2D28276   3.953   6.625   2.922
  544POPC   C2E28277   4.023   6.534   3.023
  544POPC   C2F28278   3.963   6.554   3.162
  544POPC   C2G28279   4.041   6.478   3.269
  544POPC   C2H28280   3.986   6.515   3.407
  544POPC   C2I28281   4.074   6.461   3.519
  544POPC   C2J28282   4.025   6.518   3.653
  544POPC   C2K28283   4.126   6.491   3.765
  544POPC   C2L28284   4.092   6.566   3.893
  544POPC   C2M28285   4.097   6.719   3.879
  544POPC   C2N28286   4.239   6.771   3.851
  544POPC   C2O28287   4.242   6.923   3.830
  544POPC   C2P28288   4.210   6.999   3.959
  545POPC   CN128289   2.968   7.748   2.501
  545POPC   CN228290   3.059   7.896   2.663
  545POPC   CN328291   3.201   7.741   2.553
  545POPC   NTM28292   3.085   7.830   2.535
  545POPC    CA28293   3.115   7.935   2.435
  545POPC    CB28294   3.121   7.902   2.284
  545POPC    OA28295   3.177   7.774   2.252
  545POPC     P28296   3.232   7.762   2.105
  545POPC    OB28297   3.248   7.619   2.076
  545POPC    OC28298   3.154   7.854   2.020
  545POPC    OD28299   3.372   7.829   2.126
  545POPC    CC28300   3.457   7.750   2.209
  545POPC    CD28301   3.594   7.813   2.237
  545POPC    OE28302   3.678   7.725   2.317
  545POPC   C1A28303   3.810   7.739   2.313
  545POPC    OF28304   3.864   7.826   2.244
  545POPC   C1B28305   3.883   7.638   2.394
  545POPC   C1C28306   3.862   7.656   2.544
  545POPC   C1D28307   3.928   7.542   2.622
  545POPC   C1E28308   3.905   7.554   2.773
  545POPC   C1F28309   3.977   7.674   2.834
  545POPC   C1G28310   3.947   7.690   2.984
  545POPC   C1H28311   4.007   7.577   3.068
  545POPC   C1I28312   3.978   7.599   3.217
  545POPC   C1J28313   3.963   7.494   3.298
  545POPC   C1K28314   3.977   7.352   3.242
  545POPC   C1L28315   4.002   7.247   3.351
  545POPC   C1M28316   3.878   7.224   3.438
  545POPC   C1N28317   3.899   7.109   3.536
  545POPC   C1O28318   3.772   7.088   3.620
  545POPC   C1P28319   3.786   6.968   3.713
  545POPC   C1Q28320   3.657   6.946   3.792
  545POPC   C1R28321   3.668   6.824   3.884
  545POPC    CE28322   3.566   7.953   2.297
  545POPC    OG28323   3.500   7.957   2.426
  545POPC   C2A28324   3.577   7.982   2.531
  545POPC    OH28325   3.695   8.016   2.518
  545POPC   C2B28326   3.503   7.979   2.659
  545POPC   C2C28327   3.594   7.944   2.777
  545POPC   C2D28328   3.523   7.962   2.911
  545POPC   C2E28329   3.620   7.942   3.026
  545POPC   C2F28330   3.556   7.977   3.160
  545POPC   C2G28331   3.659   7.968   3.273
  545POPC   C2H28332   3.601   8.018   3.405
  545POPC   C2I28333   3.704   8.013   3.519
  545POPC   C2J28334   3.738   7.869   3.559
  545POPC   C2K28335   3.845   7.865   3.668
  545POPC   C2L28336   3.866   7.722   3.716
  545POPC   C2M28337   3.972   7.713   3.825
  545POPC   C2N28338   3.981   7.573   3.887
  545POPC   C2O28339   4.026   7.467   3.786
  545POPC   C2P28340   4.029   7.329   3.851
  546POPC   CN128341   3.720   9.859   2.547
  546POPC   CN228342   3.870  10.041   2.522
  546POPC   CN328343   3.943   9.841   2.631
  546POPC   NTM28344   3.861   9.894   2.522
  546POPC    CA28345   3.905   9.846   2.390
  546POPC    CB28346   3.930   9.695   2.362
  546POPC    OA28347   3.823   9.604   2.383
  546POPC     P28348   3.849   9.467   2.310
  546POPC    OB28349   3.725   9.390   2.325
  546POPC    OC28350   3.903   9.499   2.177
  546POPC    OD28351   3.962   9.408   2.401
  546POPC    CC28352   3.911   9.351   2.521
  546POPC    CD28353   4.017   9.279   2.606
  546POPC    OE28354   3.964   9.190   2.708
  546POPC   C1A28355   3.946   9.061   2.680
  546POPC    OF28356   3.972   9.017   2.567
  546POPC   C1B28357   3.899   8.981   2.795
  546POPC   C1C28358   3.747   8.977   2.808
  546POPC   C1D28359   3.708   8.908   2.939
  546POPC   C1E28360   3.556   8.906   2.959
  546POPC   C1F28361   3.520   8.850   3.096
  546POPC   C1G28362   3.368   8.850   3.119
  546POPC   C1H28363   3.332   8.795   3.257
  546POPC   C1I28364   3.181   8.789   3.274
  546POPC   C1J28365   3.124   8.786   3.395
  546POPC   C1K28366   3.206   8.788   3.524
  546POPC   C1L28367   3.127   8.860   3.634
  546POPC   C1M28368   3.194   8.855   3.771
  546POPC   C1N28369   3.183   8.717   3.837
  546POPC   C1O28370   3.240   8.722   3.979
  546POPC   C1P28371   3.219   8.588   4.051
  546POPC   C1Q28372   3.271   8.590   4.195
  546POPC   C1R28373   3.424   8.599   4.203
  546POPC    CE28374   4.115   9.387   2.657
  546POPC    OG28375   4.063   9.485   2.748
  546POPC   C2A28376   4.151   9.540   2.831
  546POPC    OH28377   4.270   9.506   2.832
  546POPC   C2B28378   4.089   9.642   2.918
  546POPC   C2C28379   4.153   9.652   3.057
  546POPC   C2D28380   4.093   9.772   3.129
  546POPC   C2E28381   4.146   9.792   3.271
  546POPC   C2F28382   4.089   9.923   3.326
  546POPC   C2G28383   4.134   9.954   3.469
  546POPC   C2H28384   4.069   9.863   3.573
  546POPC   C2I28385   4.118   9.899   3.713
  546POPC   C2J28386   4.048   9.815   3.819
  546POPC   C2K28387   4.101   9.849   3.958
  546POPC   C2L28388   4.031   9.764   4.064
  546POPC   C2M28389   4.086   9.794   4.203
  546POPC   C2N28390   4.014   9.709   4.308
  546POPC   C2O28391   4.068   9.737   4.448
  546POPC   C2P28392   3.995   9.653   4.552
  547POPC   CN128393   4.208   9.284   2.203
  547POPC   CN228394   4.420   9.345   2.120
  547POPC   CN328395   4.221   9.414   2.004
  547POPC   NTM28396   4.281   9.392   2.136
  547POPC    CA28397   4.272   9.513   2.222
  547POPC    CB28398   4.337   9.646   2.178
  547POPC    OA28399   4.478   9.637   2.155
  547POPC     P28400   4.545   9.774   2.117
  547POPC    OB28401   4.683   9.742   2.075
  547POPC    OC28402   4.452   9.841   2.025
  547POPC    OD28403   4.550   9.841   2.258
  547POPC    CC28404   4.641   9.776   2.346
  547POPC    CD28405   4.656   9.839   2.486
  547POPC    OE28406   4.744   9.761   2.572
  547POPC   C1A28407   4.873   9.794   2.575
  547POPC    OF28408   4.924   9.855   2.481
  547POPC   C1B28409   4.951   9.733   2.685
  547POPC   C1C28410   4.960   9.828   2.805
  547POPC   C1D28411   5.071   9.784   2.900
  547POPC   C1E28412   5.077   9.872   3.025
  547POPC   C1F28413   5.199   9.836   3.110
  547POPC   C1G28414   5.201   9.915   3.241
  547POPC   C1H28415   5.329   9.896   3.322
  547POPC   C1I28416   5.348   9.753   3.375
  547POPC   C1J28417   5.410   9.733   3.491
  547POPC   C1K28418   5.458   9.852   3.573
  547POPC   C1L28419   5.586   9.820   3.651
  547POPC   C1M28420   5.631   9.935   3.741
  547POPC   C1N28421   5.672  10.060   3.661
  547POPC   C1O28422   5.714  10.173   3.755
  547POPC   C1P28423   5.751  10.298   3.676
  547POPC   C1Q28424   5.794  10.412   3.769
  547POPC   C1R28425   5.829  10.537   3.688
  547POPC    CE28426   4.514   9.857   2.544
  547POPC    OG28427   4.510   9.928   2.669
  547POPC   C2A28428   4.423   9.887   2.760
  547POPC    OH28429   4.338   9.800   2.736
  547POPC   C2B28430   4.439   9.955   2.891
  547POPC   C2C28431   4.547   9.883   2.973
  547POPC   C2D28432   4.560   9.937   3.115
  547POPC   C2E28433   4.660   9.852   3.195
  547POPC   C2F28434   4.661   9.883   3.345
  547POPC   C2G28435   4.523   9.860   3.406
  547POPC   C2H28436   4.519   9.874   3.559
  547POPC   C2I28437   4.561   9.745   3.629
  547POPC   C2J28438   4.520   9.751   3.776
  547POPC   C2K28439   4.536   9.615   3.843
  547POPC   C2L28440   4.474   9.616   3.983
  547POPC   C2M28441   4.481   9.477   4.046
  547POPC   C2N28442   4.414   9.476   4.183
  547POPC   C2O28443   4.424   9.339   4.251
  547POPC   C2P28444   4.568   9.304   4.290
  548POPC   CN128445   4.672  10.307   2.052
  548POPC   CN228446   4.626  10.204   2.260
  548POPC   CN328447   4.488  10.384   2.183
  548POPC   NTM28448   4.564  10.265   2.141
  548POPC    CA28449   4.478  10.167   2.070
  548POPC    CB28450   4.344  10.123   2.133
  548POPC    OA28451   4.350  10.080   2.268
  548POPC     P28452   4.211  10.048   2.331
  548POPC    OB28453   4.107  10.040   2.226
  548POPC    OC28454   4.225   9.935   2.424
  548POPC    OD28455   4.187  10.180   2.411
  548POPC    CC28456   4.279  10.193   2.520
  548POPC    CD28457   4.282  10.330   2.589
  548POPC    OE28458   4.400  10.350   2.670
  548POPC   C1A28459   4.516  10.383   2.613
  548POPC    OF28460   4.519  10.429   2.498
  548POPC   C1B28461   4.632  10.377   2.704
  548POPC   C1C28462   4.696  10.238   2.703
  548POPC   C1D28463   4.813  10.226   2.800
  548POPC   C1E28464   4.770  10.250   2.945
  548POPC   C1F28465   4.885  10.231   3.043
  548POPC   C1G28466   4.843  10.278   3.182
  548POPC   C1H28467   4.955  10.257   3.284
  548POPC   C1I28468   4.923  10.331   3.414
  548POPC   C1J28469   4.957  10.281   3.532
  548POPC   C1K28470   5.023  10.143   3.542
  548POPC   C1L28471   5.011  10.091   3.685
  548POPC   C1M28472   5.059   9.947   3.699
  548POPC   C1N28473   5.059   9.902   3.845
  548POPC   C1O28474   4.918   9.901   3.906
  548POPC   C1P28475   4.925   9.881   4.057
  548POPC   C1Q28476   4.785   9.889   4.119
  548POPC   C1R28477   4.793   9.881   4.272
  548POPC    CE28478   4.147  10.350   2.661
  548POPC    OG28479   4.108  10.242   2.748
  548POPC   C2A28480   4.011  10.264   2.837
  548POPC    OH28481   3.950  10.371   2.842
  548POPC   C2B28482   3.984  10.146   2.921
  548POPC   C2C28483   3.834  10.127   2.946
  548POPC   C2D28484   3.809   9.995   3.019
  548POPC   C2E28485   3.660   9.972   3.044
  548POPC   C2F28486   3.634   9.838   3.113
  548POPC   C2G28487   3.689   9.832   3.256
  548POPC   C2H28488   3.662   9.695   3.319
  548POPC   C2I28489   3.710   9.691   3.464
  548POPC   C2J28490   3.673   9.556   3.528
  548POPC   C2K28491   3.706   9.550   3.678
  548POPC   C2L28492   3.627   9.655   3.758
  548POPC   C2M28493   3.650   9.645   3.909
  548POPC   C2N28494   3.574   9.528   3.971
  548POPC   C2O28495   3.591   9.530   4.123
  548POPC   C2P28496   3.506   9.420   4.189
  549POPC   CN128497   4.061  10.767   2.100
  549POPC   CN228498   3.860  10.887   2.055
  549POPC   CN328499   3.910  10.812   2.276
  549POPC   NTM28500   3.967  10.868   2.153
  549POPC    CA28501   4.043  10.993   2.179
  549POPC    CB28502   3.974  11.122   2.230
  549POPC    OA28503   3.907  11.108   2.355
  549POPC     P28504   3.866  11.242   2.425
  549POPC    OB28505   3.818  11.335   2.322
  549POPC    OC28506   3.780  11.199   2.537
  549POPC    OD28507   4.006  11.295   2.467
  549POPC    CC28508   4.061  11.229   2.580
  549POPC    CD28509   4.210  11.264   2.597
  549POPC    OE28510   4.288  11.168   2.672
  549POPC   C1A28511   4.330  11.057   2.611
  549POPC    OF28512   4.298  11.032   2.495
  549POPC   C1B28513   4.412  10.970   2.698
  549POPC   C1C28514   4.328  10.856   2.755
  549POPC   C1D28515   4.414  10.767   2.844
  549POPC   C1E28516   4.335  10.647   2.896
  549POPC   C1F28517   4.423  10.564   2.990
  549POPC   C1G28518   4.348  10.441   3.041
  549POPC   C1H28519   4.429  10.372   3.151
  549POPC   C1I28520   4.348  10.259   3.214
  549POPC   C1J28521   4.355  10.240   3.345
  549POPC   C1K28522   4.443  10.329   3.432
  549POPC   C1L28523   4.480  10.257   3.562
  549POPC   C1M28524   4.567  10.344   3.652
  549POPC   C1N28525   4.601  10.274   3.784
  549POPC   C1O28526   4.477  10.252   3.871
  549POPC   C1P28527   4.512  10.182   4.002
  549POPC   C1Q28528   4.386  10.162   4.087
  549POPC   C1R28529   4.419  10.091   4.219
  549POPC    CE28530   4.218  11.410   2.645
  549POPC    OG28531   4.165  11.437   2.776
  549POPC   C2A28532   4.195  11.555   2.829
  549POPC    OH28533   4.253  11.642   2.764
  549POPC   C2B28534   4.158  11.565   2.972
  549POPC   C2C28535   4.282  11.538   3.057
  549POPC   C2D28536   4.251  11.526   3.206
  549POPC   C2E28537   4.380  11.493   3.281
  549POPC   C2F28538   4.358  11.450   3.426
  549POPC   C2G28539   4.313  11.565   3.517
  549POPC   C2H28540   4.305  11.513   3.661
  549POPC   C2I28541   4.274  11.625   3.760
  549POPC   C2J28542   4.279  11.571   3.903
  549POPC   C2K28543   4.263  11.683   4.005
  549POPC   C2L28544   4.277  11.633   4.149
  549POPC   C2M28545   4.418  11.580   4.179
  549POPC   C2N28546   4.434  11.532   4.324
  549POPC   C2O28547   4.425  11.647   4.424
  549POPC   C2P28548   4.442  11.596   4.568
  550POPC   CN128549   4.543  12.264   2.060
  550POPC   CN228550   4.564  12.497   2.096
  550POPC   CN328551   4.439  12.416   1.909
  550POPC   NTM28552   4.472  12.392   2.051
  550POPC    CA28553   4.351  12.381   2.135
  550POPC    CB28554   4.251  12.499   2.145
  550POPC    OA28555   4.299  12.618   2.207
  550POPC     P28556   4.203  12.741   2.187
  550POPC    OB28557   4.272  12.852   2.253
  550POPC    OC28558   4.165  12.740   2.044
  550POPC    OD28559   4.083  12.693   2.277
  550POPC    CC28560   4.107  12.708   2.417
  550POPC    CD28561   3.989  12.677   2.510
  550POPC    OE28562   4.029  12.666   2.650
  550POPC   C1A28563   4.046  12.776   2.724
  550POPC    OF28564   4.040  12.888   2.673
  550POPC   C1B28565   4.087  12.745   2.863
  550POPC   C1C28566   4.172  12.857   2.924
  550POPC   C1D28567   4.225  12.821   3.062
  550POPC   C1E28568   4.306  12.937   3.120
  550POPC   C1F28569   4.357  12.902   3.260
  550POPC   C1G28570   4.441  13.014   3.320
  550POPC   C1H28571   4.490  12.975   3.459
  550POPC   C1I28572   4.572  13.087   3.523
  550POPC   C1J28573   4.571  13.103   3.655
  550POPC   C1K28574   4.490  13.008   3.743
  550POPC   C1L28575   4.523  13.022   3.892
  550POPC   C1M28576   4.475  13.155   3.950
  550POPC   C1N28577   4.490  13.161   4.102
  550POPC   C1O28578   4.440  13.296   4.153
  550POPC   C1P28579   4.435  13.306   4.306
  550POPC   C1Q28580   4.574  13.304   4.370
  550POPC   C1R28581   4.563  13.320   4.522
  550POPC    CE28582   3.921  12.551   2.450
  550POPC    OG28583   3.822  12.479   2.528
  550POPC   C2A28584   3.871  12.387   2.611
  550POPC    OH28585   3.983  12.340   2.593
  550POPC   C2B28586   3.769  12.326   2.698
  550POPC   C2C28587   3.764  12.391   2.837
  550POPC   C2D28588   3.662  12.316   2.922
  550POPC   C2E28589   3.659  12.367   3.066
  550POPC   C2F28590   3.572  12.273   3.149
  550POPC   C2G28591   3.570  12.314   3.296
  550POPC   C2H28592   3.494  12.209   3.377
  550POPC   C2I28593   3.483  12.249   3.524
  550POPC   C2J28594   3.408  12.141   3.602
  550POPC   C2K28595   3.381  12.186   3.745
  550POPC   C2L28596   3.296  12.084   3.823
  550POPC   C2M28597   3.159  12.063   3.759
  550POPC   C2N28598   3.066  11.979   3.848
  550POPC   C2O28599   3.014  12.057   3.969
  550POPC   C2P28600   2.917  12.168   3.929
  551POPC   CN128601   4.704  13.538   2.697
  551POPC   CN228602   4.479  13.472   2.753
  551POPC   CN328603   4.660  13.426   2.900
  551POPC   NTM28604   4.606  13.525   2.806
  551POPC    CA28605   4.585  13.652   2.878
  551POPC    CB28606   4.550  13.784   2.804
  551POPC    OA28607   4.442  13.779   2.710
  551POPC     P28608   4.360  13.914   2.706
  551POPC    OB28609   4.456  14.024   2.721
  551POPC    OC28610   4.281  13.901   2.583
  551POPC    OD28611   4.271  13.888   2.832
  551POPC    CC28612   4.165  13.798   2.800
  551POPC    CD28613   4.078  13.740   2.912
  551POPC    OE28614   4.003  13.623   2.867
  551POPC   C1A28615   4.060  13.503   2.877
  551POPC    OF28616   4.178  13.492   2.908
  551POPC   C1B28617   3.970  13.394   2.832
  551POPC   C1C28618   3.978  13.265   2.915
  551POPC   C1D28619   3.939  13.289   3.061
  551POPC   C1E28620   3.920  13.157   3.135
  551POPC   C1F28621   3.908  13.178   3.286
  551POPC   C1G28622   4.043  13.211   3.347
  551POPC   C1H28623   4.034  13.229   3.499
  551POPC   C1I28624   4.175  13.239   3.557
  551POPC   C1J28625   4.197  13.300   3.673
  551POPC   C1K28626   4.082  13.362   3.754
  551POPC   C1L28627   4.119  13.361   3.902
  551POPC   C1M28628   4.015  13.432   3.989
  551POPC   C1N28629   4.059  13.422   4.135
  551POPC   C1O28630   3.956  13.483   4.230
  551POPC   C1P28631   4.000  13.460   4.375
  551POPC   C1Q28632   3.901  13.515   4.478
  551POPC   C1R28633   3.897  13.668   4.479
  551POPC    CE28634   3.991  13.853   2.971
  551POPC    OG28635   4.055  13.932   3.072
  551POPC   C2A28636   3.978  14.019   3.137
  551POPC    OH28637   3.859  14.036   3.109
  551POPC   C2B28638   4.055  14.093   3.239
  551POPC   C2C28639   3.986  14.103   3.376
  551POPC   C2D28640   4.086  14.161   3.476
  551POPC   C2E28641   4.030  14.169   3.618
  551POPC   C2F28642   4.143  14.202   3.716
  551POPC   C2G28643   4.092  14.204   3.860
  551POPC   C2H28644   4.204  14.203   3.965
  551POPC   C2I28645   4.287  14.332   3.969
  551POPC   C2J28646   4.386  14.333   4.086
  551POPC   C2K28647   4.315  14.330   4.222
  551POPC   C2L28648   4.414  14.334   4.339
  551POPC   C2M28649   4.339  14.318   4.472
  551POPC   C2N28650   4.433  14.326   4.593
  551POPC   C2O28651   4.484  14.468   4.622
  551POPC   C2P28652   4.373  14.559   4.675
  552POPC   CN128653   4.018  13.533   2.474
  552POPC   CN228654   3.878  13.357   2.398
  552POPC   CN328655   3.783  13.534   2.525
  552POPC   NTM28656   3.884  13.502   2.423
  552POPC    CA28657   3.855  13.570   2.295
  552POPC    CB28658   3.841  13.724   2.284
  552POPC    OA28659   3.956  13.802   2.317
  552POPC     P28660   3.929  13.956   2.297
  552POPC    OB28661   4.059  14.024   2.304
  552POPC    OC28662   3.841  13.980   2.181
  552POPC    OD28663   3.848  13.987   2.426
  552POPC    CC28664   3.929  14.004   2.542
  552POPC    CD28665   3.864  14.095   2.649
  552POPC    OE28666   3.952  14.133   2.758
  552POPC   C1A28667   4.041  14.231   2.740
  552POPC    OF28668   4.062  14.280   2.629
  552POPC   C1B28669   4.109  14.272   2.865
  552POPC   C1C28670   4.033  14.389   2.929
  552POPC   C1D28671   4.090  14.433   3.064
  552POPC   C1E28672   4.226  14.501   3.054
  552POPC   C1F28673   4.270  14.546   3.194
  552POPC   C1G28674   4.405  14.619   3.193
  552POPC   C1H28675   4.442  14.657   3.336
  552POPC   C1I28676   4.579  14.724   3.346
  552POPC   C1J28677   4.612  14.786   3.459
  552POPC   C1K28678   4.510  14.788   3.574
  552POPC   C1L28679   4.577  14.774   3.710
  552POPC   C1M28680   4.471  14.774   3.821
  552POPC   C1N28681   4.533  14.758   3.959
  552POPC   C1O28682   4.426  14.768   4.068
  552POPC   C1P28683   4.488  14.752   4.207
  552POPC   C1Q28684   4.385  14.768   4.319
  552POPC   C1R28685   4.334  14.912   4.331
  552POPC    CE28686   3.730  14.030   2.689
  552POPC    OG28687   3.738  13.895   2.741
  552POPC   C2A28688   3.623  13.837   2.773
  552POPC    OH28689   3.514  13.881   2.733
  552POPC   C2B28690   3.640  13.704   2.835
  552POPC   C2C28691   3.623  13.707   2.987
  552POPC   C2D28692   3.646  13.566   3.043
  552POPC   C2E28693   3.627  13.557   3.195
  552POPC   C2F28694   3.731  13.636   3.274
  552POPC   C2G28695   3.710  13.615   3.424
  552POPC   C2H28696   3.798  13.707   3.507
  552POPC   C2I28697   3.766  13.691   3.656
  552POPC   C2J28698   3.839  13.797   3.739
  552POPC   C2K28699   3.802  13.788   3.887
  552POPC   C2L28700   3.868  13.903   3.964
  552POPC   C2M28701   3.832  13.902   4.112
  552POPC   C2N28702   3.898  14.019   4.184
  552POPC   C2O28703   3.856  14.024   4.331
  552POPC   C2P28704   3.927  14.138   4.404
  553POPC   CN128705   3.624  14.789   2.404
  553POPC   CN228706   3.587  14.812   2.170
  553POPC   CN328707   3.755  14.664   2.248
  553POPC   NTM28708   3.622  14.717   2.276
  553POPC    CA28709   3.519  14.610   2.275
  553POPC    CB28710   3.527  14.490   2.373
  553POPC    OA28711   3.529  14.527   2.510
  553POPC     P28712   3.532  14.399   2.601
  553POPC    OB28713   3.408  14.328   2.567
  553POPC    OC28714   3.665  14.346   2.570
  553POPC    OD28715   3.528  14.475   2.738
  553POPC    CC28716   3.657  14.524   2.774
  553POPC    CD28717   3.661  14.621   2.893
  553POPC    OE28718   3.796  14.662   2.931
  553POPC   C1A28719   3.858  14.761   2.868
  553POPC    OF28720   3.823  14.795   2.754
  553POPC   C1B28721   3.982  14.802   2.936
  553POPC   C1C28722   3.956  14.907   3.044
  553POPC   C1D28723   4.072  14.911   3.145
  553POPC   C1E28724   4.051  15.023   3.247
  553POPC   C1F28725   4.152  15.014   3.362
  553POPC   C1G28726   4.149  15.143   3.445
  553POPC   C1H28727   4.245  15.138   3.565
  553POPC   C1I28728   4.182  15.070   3.687
  553POPC   C1J28729   4.234  15.089   3.808
  553POPC   C1K28730   4.360  15.175   3.825
  553POPC   C1L28731   4.341  15.293   3.920
  553POPC   C1M28732   4.327  15.252   4.067
  553POPC   C1N28733   4.307  15.377   4.153
  553POPC   C1O28734   4.299  15.344   4.302
  553POPC   C1P28735   4.269  15.469   4.387
  553POPC   C1Q28736   4.382  15.572   4.380
  553POPC   C1R28737   4.349  15.696   4.464
  553POPC    CE28738   3.581  14.554   3.007
  553POPC    OG28739   3.602  14.606   3.139
  553POPC   C2A28740   3.696  14.547   3.212
  553POPC    OH28741   3.728  14.430   3.189
  553POPC   C2B28742   3.735  14.625   3.331
  553POPC   C2C28743   3.870  14.582   3.388
  553POPC   C2D28744   3.912  14.669   3.505
  553POPC   C2E28745   4.041  14.615   3.568
  553POPC   C2F28746   4.098  14.709   3.676
  553POPC   C2G28747   4.012  14.724   3.802
  553POPC   C2H28748   4.006  14.594   3.883
  553POPC   C2I28749   3.937  14.615   4.018
  553POPC   C2J28750   3.926  14.482   4.093
  553POPC   C2K28751   3.864  14.497   4.232
  553POPC   C2L28752   3.955  14.573   4.329
  553POPC   C2M28753   3.892  14.580   4.468
  553POPC   C2N28754   3.980  14.660   4.565
  553POPC   C2O28755   3.914  14.668   4.702
  553POPC   C2P28756   4.000  14.749   4.799
  554POPC   CN128757   4.144  15.388   2.404
  554POPC   CN228758   3.933  15.281   2.397
  554POPC   CN328759   3.970  15.448   2.559
  554POPC   NTM28760   4.000  15.409   2.420
  554POPC    CA28761   3.947  15.508   2.323
  554POPC    CB28762   3.985  15.659   2.329
  554POPC    OA28763   4.124  15.686   2.317
  554POPC     P28764   4.158  15.839   2.316
  554POPC    OB28765   4.300  15.846   2.278
  554POPC    OC28766   4.058  15.910   2.235
  554POPC    OD28767   4.137  15.871   2.467
  554POPC    CC28768   4.241  15.819   2.551
  554POPC    CD28769   4.216  15.838   2.702
  554POPC    OE28770   4.322  15.783   2.785
  554POPC   C1A28771   4.433  15.852   2.808
  554POPC    OF28772   4.464  15.949   2.737
  554POPC   C1B28773   4.519  15.790   2.911
  554POPC   C1C28774   4.489  15.847   3.050
  554POPC   C1D28775   4.563  15.771   3.160
  554POPC   C1E28776   4.545  15.840   3.295
  554POPC   C1F28777   4.611  15.761   3.408
  554POPC   C1G28778   4.616  15.843   3.537
  554POPC   C1H28779   4.678  15.762   3.651
  554POPC   C1I28780   4.713  15.850   3.771
  554POPC   C1J28781   4.640  15.855   3.882
  554POPC   C1K28782   4.513  15.772   3.902
  554POPC   C1L28783   4.412  15.846   3.991
  554POPC   C1M28784   4.341  15.959   3.915
  554POPC   C1N28785   4.281  16.065   4.008
  554POPC   C1O28786   4.172  16.012   4.101
  554POPC   C1P28787   4.121  16.125   4.191
  554POPC   C1Q28788   4.016  16.078   4.292
  554POPC   C1R28789   4.074  15.983   4.398
  554POPC    CE28790   4.079  15.774   2.727
  554POPC    OG28791   4.019  15.793   2.856
  554POPC   C2A28792   3.916  15.713   2.883
  554POPC    OH28793   3.907  15.603   2.829
  554POPC   C2B28794   3.841  15.755   3.003
  554POPC   C2C28795   3.692  15.725   2.990
  554POPC   C2D28796   3.611  15.773   3.112
  554POPC   C2E28797   3.651  15.699   3.239
  554POPC   C2F28798   3.565  15.740   3.359
  554POPC   C2G28799   3.608  15.660   3.481
  554POPC   C2H28800   3.516  15.682   3.600
  554POPC   C2I28801   3.557  15.587   3.713
  554POPC   C2J28802   3.456  15.584   3.827
  554POPC   C2K28803   3.495  15.473   3.924
  554POPC   C2L28804   3.386  15.447   4.028
  554POPC   C2M28805   3.411  15.318   4.106
  554POPC   C2N28806   3.400  15.192   4.020
  554POPC   C2O28807   3.258  15.168   3.968
  554POPC   C2P28808   3.254  15.048   3.873
  555POPC   CN128809   4.642  16.786   2.194
  555POPC   CN228810   4.432  16.684   2.138
  555POPC   CN328811   4.605  16.697   1.976
  555POPC   NTM28812   4.577  16.677   2.119
  555POPC    CA28813   4.630  16.543   2.157
  555POPC    CB28814   4.637  16.503   2.306
  555POPC    OA28815   4.515  16.514   2.379
  555POPC     P28816   4.542  16.490   2.531
  555POPC    OB28817   4.587  16.351   2.536
  555POPC    OC28818   4.622  16.606   2.572
  555POPC    OD28819   4.392  16.500   2.566
  555POPC    CC28820   4.367  16.552   2.696
  555POPC    CD28821   4.215  16.553   2.719
  555POPC    OE28822   4.167  16.651   2.815
  555POPC   C1A28823   4.120  16.766   2.769
  555POPC    OF28824   4.092  16.778   2.649
  555POPC   C1B28825   4.085  16.861   2.877
  555POPC   C1C28826   4.102   0.024   2.834
  555POPC   C1D28827   4.091   0.122   2.951
  555POPC   C1E28828   4.208   0.106   3.048
  555POPC   C1F28829   4.204   0.206   3.163
  555POPC   C1G28830   4.321   0.179   3.258
  555POPC   C1H28831   4.318   0.272   3.380
  555POPC   C1I28832   4.426   0.232   3.481
  555POPC   C1J28833   4.393   0.170   3.595
  555POPC   C1K28834   4.246   0.140   3.625
  555POPC   C1L28835   4.230   0.014   3.710
  555POPC   C1M28836   4.081  16.961   3.726
  555POPC   C1N28837   4.022  16.912   3.593
  555POPC   C1O28838   3.870  16.901   3.600
  555POPC   C1P28839   3.810  16.845   3.471
  555POPC   C1Q28840   3.837  16.935   3.350
  555POPC   C1R28841   3.780  16.873   3.222
  555POPC    CE28842   4.171  16.407   2.732
  555POPC    OG28843   4.224  16.332   2.843
  555POPC   C2A28844   4.183  16.206   2.852
  555POPC    OH28845   4.113  16.155   2.764
  555POPC   C2B28846   4.227  16.140   2.977
  555POPC   C2C28847   4.107  16.108   3.065
  555POPC   C2D28848   4.145  16.074   3.209
  555POPC   C2E28849   4.016  16.055   3.290
  555POPC   C2F28850   4.043  16.048   3.440
  555POPC   C2G28851   3.910  16.027   3.514
  555POPC   C2H28852   3.928  16.025   3.666
  555POPC   C2I28853   3.793  16.005   3.734
  555POPC   C2J28854   3.805  16.010   3.886
  555POPC   C2K28855   3.667  15.989   3.951
  555POPC   C2L28856   3.676  16.002   4.103
  555POPC   C2M28857   3.539  15.983   4.170
  555POPC   C2N28858   3.489  15.839   4.161
  555POPC   C2O28859   3.351  15.820   4.223
  555POPC   C2P28860   3.241  15.888   4.141
  556POPC   CN128861   4.626   1.115   2.539
  556POPC   CN228862   4.785   1.178   2.702
  556POPC   CN328863   4.661   0.978   2.731
  556POPC   NTM28864   4.728   1.063   2.632
  556POPC    CA28865   4.838   0.991   2.564
  556POPC    CB28866   4.808   0.881   2.459
  556POPC    OA28867   4.710   0.785   2.497
  556POPC     P28868   4.693   0.668   2.393
  556POPC    OB28869   4.567   0.601   2.424
  556POPC    OC28870   4.717   0.720   2.258
  556POPC    OD28871   4.816   0.581   2.437
  556POPC    CC28872   4.788   0.506   2.555
  556POPC    CD28873   4.912   0.473   2.640
  556POPC    OE28874   4.877   0.386   2.750
  556POPC   C1A28875   4.915   0.259   2.748
  556POPC    OF28876   4.967   0.211   2.646
  556POPC   C1B28877   4.868   0.182   2.866
  556POPC   C1C28878   4.952   0.208   2.991
  556POPC   C1D28879   4.878   0.152   3.113
  556POPC   C1E28880   4.952   0.185   3.243
  556POPC   C1F28881   4.865   0.149   3.364
  556POPC   C1G28882   4.936   0.183   3.495
  556POPC   C1H28883   4.844   0.157   3.614
  556POPC   C1I28884   4.917   0.184   3.746
  556POPC   C1J28885   4.879   0.119   3.855
  556POPC   C1K28886   4.763   0.020   3.849
  556POPC   C1L28887   4.698   0.003   3.986
  556POPC   C1M28888   4.579  16.890   3.980
  556POPC   C1N28889   4.522  16.868   4.120
  556POPC   C1O28890   4.397  16.780   4.116
  556POPC   C1P28891   4.341  16.754   4.256
  556POPC   C1Q28892   4.429  16.660   4.340
  556POPC   C1R28893   4.420  16.515   4.290
  556POPC    CE28894   4.973   0.608   2.682
  556POPC    OG28895   5.094   0.599   2.760
  556POPC   C2A28896   5.114   0.696   2.849
  556POPC    OH28897   5.041   0.795   2.855
  556POPC   C2B28898   5.230   0.673   2.939
  556POPC   C2C28899   5.194   0.566   3.042
  556POPC   C2D28900   5.285   0.569   3.165
  556POPC   C2E28901   5.269   0.438   3.243
  556POPC   C2F28902   5.302   0.453   3.391
  556POPC   C2G28903   5.186   0.518   3.466
  556POPC   C2H28904   5.212   0.524   3.616
  556POPC   C2I28905   5.087   0.574   3.689
  556POPC   C2J28906   5.112   0.588   3.839
  556POPC   C2K28907   4.986   0.636   3.910
  556POPC   C2L28908   5.014   0.666   4.057
  556POPC   C2M28909   4.889   0.720   4.127
  556POPC   C2N28910   4.920   0.754   4.273
  556POPC   C2O28911   4.799   0.810   4.348
  556POPC   C2P28912   4.756   0.948   4.297
  557POPC   CN128913   4.454   0.889   1.928
  557POPC   CN228914   4.446   1.128   1.951
  557POPC   CN328915   4.308   0.991   2.085
  557POPC   NTM28916   4.440   1.001   2.023
  557POPC    CA28917   4.538   0.995   2.133
  557POPC    CB28918   4.690   0.985   2.105
  557POPC    OA28919   4.750   1.088   2.026
  557POPC     P28920   4.903   1.056   2.003
  557POPC    OB28921   4.910   0.911   1.975
  557POPC    OC28922   4.935   1.156   1.901
  557POPC    OD28923   4.954   1.093   2.146
  557POPC    CC28924   4.981   1.232   2.164
  557POPC    CD28925   5.002   1.264   2.313
  557POPC    OE28926   4.996   1.406   2.346
  557POPC   C1A28927   4.901   1.438   2.434
  557POPC    OF28928   4.799   1.370   2.442
  557POPC   C1B28929   4.926   1.566   2.505
  557POPC   C1C28930   4.909   1.542   2.655
  557POPC   C1D28931   4.942   1.664   2.742
  557POPC   C1E28932   4.913   1.635   2.890
  557POPC   C1F28933   5.006   1.529   2.950
  557POPC   C1G28934   4.959   1.477   3.086
  557POPC   C1H28935   4.962   1.582   3.198
  557POPC   C1I28936   4.899   1.525   3.325
  557POPC   C1J28937   4.932   1.569   3.446
  557POPC   C1K28938   5.037   1.679   3.466
  557POPC   C1L28939   5.102   1.674   3.605
  557POPC   C1M28940   5.004   1.713   3.717
  557POPC   C1N28941   5.072   1.703   3.854
  557POPC   C1O28942   4.974   1.739   3.966
  557POPC   C1P28943   5.036   1.728   4.105
  557POPC   C1Q28944   5.146   1.833   4.129
  557POPC   C1R28945   5.204   1.820   4.269
  557POPC    CE28946   5.129   1.189   2.359
  557POPC    OG28947   5.137   1.179   2.502
  557POPC   C2A28948   5.242   1.115   2.552
  557POPC    OH28949   5.341   1.089   2.483
  557POPC   C2B28950   5.235   1.105   2.700
  557POPC   C2C28951   5.307   1.224   2.764
  557POPC   C2D28952   5.289   1.235   2.916
  557POPC   C2E28953   5.346   1.116   2.993
  557POPC   C2F28954   5.360   1.151   3.142
  557POPC   C2G28955   5.418   1.033   3.221
  557POPC   C2H28956   5.472   1.076   3.358
  557POPC   C2I28957   5.363   1.124   3.454
  557POPC   C2J28958   5.420   1.169   3.589
  557POPC   C2K28959   5.482   1.056   3.673
  557POPC   C2L28960   5.378   0.954   3.721
  557POPC   C2M28961   5.439   0.843   3.806
  557POPC   C2N28962   5.486   0.889   3.945
  557POPC   C2O28963   5.369   0.924   4.037
  557POPC   C2P28964   5.418   0.970   4.174
  558POPC   CN128965   4.364   2.715   1.797
  558POPC   CN228966   4.167   2.785   1.912
  558POPC   CN328967   4.254   2.564   1.941
  558POPC   NTM28968   4.290   2.705   1.923
  558POPC    CA28969   4.378   2.754   2.032
  558POPC    CB28970   4.326   2.757   2.178
  558POPC    OA28971   4.288   2.631   2.233
  558POPC     P28972   4.224   2.645   2.376
  558POPC    OB28973   4.143   2.768   2.374
  558POPC    OC28974   4.163   2.515   2.406
  558POPC    OD28975   4.353   2.668   2.463
  558POPC    CC28976   4.322   2.637   2.598
  558POPC    CD28977   4.443   2.613   2.690
  558POPC    OE28978   4.411   2.538   2.810
  558POPC   C1A28979   4.392   2.407   2.803
  558POPC    OF28980   4.430   2.344   2.703
  558POPC   C1B28981   4.347   2.348   2.931
  558POPC   C1C28982   4.198   2.374   2.954
  558POPC   C1D28983   4.156   2.341   3.098
  558POPC   C1E28984   4.218   2.439   3.198
  558POPC   C1F28985   4.175   2.405   3.341
  558POPC   C1G28986   4.233   2.506   3.440
  558POPC   C1H28987   4.186   2.475   3.582
  558POPC   C1I28988   4.234   2.582   3.680
  558POPC   C1J28989   4.250   2.553   3.809
  558POPC   C1K28990   4.222   2.412   3.861
  558POPC   C1L28991   4.157   2.418   3.999
  558POPC   C1M28992   4.153   2.281   4.069
  558POPC   C1N28993   4.292   2.232   4.112
  558POPC   C1O28994   4.356   2.326   4.215
  558POPC   C1P28995   4.498   2.281   4.252
  558POPC   C1Q28996   4.569   2.383   4.341
  558POPC   C1R28997   4.601   2.513   4.266
  558POPC    CE28998   4.513   2.748   2.714
  558POPC    OG28999   4.436   2.851   2.780
  558POPC   C2A29000   4.499   2.966   2.805
  558POPC    OH29001   4.618   2.983   2.781
  558POPC   C2B29002   4.413   3.061   2.880
  558POPC   C2C29003   4.448   3.058   3.029
  558POPC   C2D29004   4.351   3.145   3.109
  558POPC   C2E29005   4.387   3.141   3.257
  558POPC   C2F29006   4.280   3.210   3.341
  558POPC   C2G29007   4.318   3.207   3.489
  558POPC   C2H29008   4.205   3.261   3.577
  558POPC   C2I29009   4.244   3.269   3.725
  558POPC   C2J29010   4.278   3.132   3.785
  558POPC   C2K29011   4.309   3.144   3.934
  558POPC   C2L29012   4.345   3.009   3.994
  558POPC   C2M29013   4.360   3.020   4.146
  558POPC   C2N29014   4.396   2.885   4.208
  558POPC   C2O29015   4.396   2.890   4.361
  558POPC   C2P29016   4.506   2.981   4.418
  559POPC   CN129017   5.070   3.297   2.323
  559POPC   CN229018   4.883   3.274   2.468
  559POPC   CN329019   4.864   3.216   2.238
  559POPC   NTM29020   4.954   3.213   2.354
  559POPC    CA29021   5.002   3.077   2.390
  559POPC    CB29022   4.900   2.968   2.429
  559POPC    OA29023   4.811   2.930   2.323
  559POPC     P29024   4.671   2.882   2.375
  559POPC    OB29025   4.606   2.835   2.253
  559POPC    OC29026   4.701   2.790   2.485
  559POPC    OD29027   4.610   3.018   2.419
  559POPC    CC29028   4.469   3.008   2.431
  559POPC    CD29029   4.390   3.140   2.452
  559POPC    OE29030   4.430   3.217   2.569
  559POPC   C1A29031   4.532   3.301   2.560
  559POPC    OF29032   4.580   3.333   2.451
  559POPC   C1B29033   4.569   3.357   2.692
  559POPC   C1C29034   4.587   3.509   2.691
  559POPC   C1D29035   4.609   3.564   2.833
  559POPC   C1E29036   4.487   3.539   2.922
  559POPC   C1F29037   4.505   3.594   3.064
  559POPC   C1G29038   4.614   3.521   3.143
  559POPC   C1H29039   4.614   3.570   3.288
  559POPC   C1I29040   4.728   3.505   3.367
  559POPC   C1J29041   4.711   3.475   3.495
  559POPC   C1K29042   4.578   3.501   3.565
  559POPC   C1L29043   4.593   3.537   3.713
  559POPC   C1M29044   4.652   3.422   3.796
  559POPC   C1N29045   4.673   3.467   3.941
  559POPC   C1O29046   4.750   3.361   4.021
  559POPC   C1P29047   4.779   3.409   4.164
  559POPC   C1Q29048   4.873   3.530   4.167
  559POPC   C1R29049   4.895   3.579   4.310
  559POPC    CE29050   4.241   3.100   2.453
  559POPC    OG29051   4.204   3.004   2.554
  559POPC   C2A29052   4.075   2.976   2.568
  559POPC    OH29053   3.988   3.035   2.503
  559POPC   C2B29054   4.048   2.877   2.675
  559POPC   C2C29055   4.036   2.946   2.811
  559POPC   C2D29056   4.020   2.846   2.926
  559POPC   C2E29057   4.010   2.922   3.058
  559POPC   C2F29058   3.991   2.829   3.178
  559POPC   C2G29059   3.978   2.912   3.306
  559POPC   C2H29060   3.956   2.825   3.430
  559POPC   C2I29061   3.944   2.912   3.554
  559POPC   C2J29062   3.931   2.827   3.681
  559POPC   C2K29063   3.929   2.915   3.806
  559POPC   C2L29064   3.932   2.830   3.932
  559POPC   C2M29065   3.939   2.917   4.058
  559POPC   C2N29066   3.952   2.831   4.183
  559POPC   C2O29067   3.966   2.915   4.311
  559POPC   C2P29068   3.838   2.993   4.344
  560POPC   CN129069   4.605   4.416   2.191
  560POPC   CN229070   4.610   4.590   2.028
  560POPC   CN329071   4.798   4.554   2.166
  560POPC   NTM29072   4.690   4.485   2.094
  560POPC    CA29073   4.750   4.389   1.998
  560POPC    CB29074   4.659   4.301   1.909
  560POPC    OA29075   4.570   4.375   1.825
  560POPC     P29076   4.469   4.286   1.743
  560POPC    OB29077   4.399   4.379   1.652
  560POPC    OC29078   4.551   4.177   1.689
  560POPC    OD29079   4.370   4.239   1.857
  560POPC    CC29080   4.299   4.348   1.916
  560POPC    CD29081   4.179   4.313   2.007
  560POPC    OE29082   4.134   4.428   2.083
  560POPC   C1A29083   4.018   4.425   2.150
  560POPC    OF29084   3.936   4.335   2.130
  560POPC   C1B29085   4.000   4.543   2.237
  560POPC   C1C29086   3.938   4.504   2.372
  560POPC   C1D29087   3.942   4.618   2.472
  560POPC   C1E29088   3.874   4.576   2.602
  560POPC   C1F29089   3.904   4.672   2.717
  560POPC   C1G29090   3.826   4.630   2.842
  560POPC   C1H29091   3.871   4.702   2.970
  560POPC   C1I29092   4.006   4.650   3.021
  560POPC   C1J29093   4.029   4.640   3.151
  560POPC   C1K29094   3.924   4.681   3.254
  560POPC   C1L29095   3.931   4.592   3.378
  560POPC   C1M29096   3.832   4.636   3.487
  560POPC   C1N29097   3.873   4.768   3.554
  560POPC   C1O29098   3.775   4.811   3.663
  560POPC   C1P29099   3.639   4.854   3.606
  560POPC   C1Q29100   3.540   4.896   3.716
  560POPC   C1R29101   3.584   5.022   3.791
  560POPC    CE29102   4.220   4.190   2.092
  560POPC    OG29103   4.330   4.205   2.184
  560POPC   C2A29104   4.357   4.098   2.258
  560POPC    OH29105   4.314   3.987   2.226
  560POPC   C2B29106   4.456   4.124   2.364
  560POPC   C2C29107   4.419   4.052   2.494
  560POPC   C2D29108   4.526   4.074   2.601
  560POPC   C2E29109   4.483   4.008   2.732
  560POPC   C2F29110   4.582   4.037   2.844
  560POPC   C2G29111   4.527   3.983   2.976
  560POPC   C2H29112   4.619   4.017   3.093
  560POPC   C2I29113   4.555   3.970   3.224
  560POPC   C2J29114   4.640   4.010   3.344
  560POPC   C2K29115   4.571   3.968   3.474
  560POPC   C2L29116   4.646   4.024   3.595
  560POPC   C2M29117   4.577   3.983   3.725
  560POPC   C2N29118   4.648   4.045   3.845
  560POPC   C2O29119   4.586   4.001   3.978
  560POPC   C2P29120   4.610   3.853   4.007
  561POPC   CN129121   4.628   5.608   1.941
  561POPC   CN229122   4.758   5.550   2.132
  561POPC   CN329123   4.795   5.755   2.021
  561POPC   NTM29124   4.691   5.660   2.062
  561POPC    CA29125   4.595   5.729   2.151
  561POPC    CB29126   4.463   5.660   2.192
  561POPC    OA29127   4.477   5.523   2.230
  561POPC     P29128   4.343   5.453   2.272
  561POPC    OB29129   4.234   5.523   2.203
  561POPC    OC29130   4.370   5.311   2.245
  561POPC    OD29131   4.347   5.489   2.424
  561POPC    CC29132   4.434   5.400   2.495
  561POPC    CD29133   4.462   5.441   2.641
  561POPC    OE29134   4.564   5.359   2.705
  561POPC   C1A29135   4.692   5.391   2.692
  561POPC    OF29136   4.730   5.456   2.594
  561POPC   C1B29137   4.780   5.311   2.780
  561POPC   C1C29138   4.762   5.345   2.929
  561POPC   C1D29139   4.834   5.239   3.013
  561POPC   C1E29140   4.816   5.254   3.164
  561POPC   C1F29141   4.670   5.244   3.208
  561POPC   C1G29142   4.658   5.206   3.356
  561POPC   C1H29143   4.690   5.057   3.376
  561POPC   C1I29144   4.677   5.013   3.522
  561POPC   C1J29145   4.729   4.896   3.557
  561POPC   C1K29146   4.797   4.811   3.450
  561POPC   C1L29147   4.777   4.662   3.476
  561POPC   C1M29148   4.823   4.581   3.354
  561POPC   C1N29149   4.796   4.431   3.374
  561POPC   C1O29150   4.814   4.351   3.245
  561POPC   C1P29151   4.959   4.348   3.195
  561POPC   C1Q29152   4.967   4.266   3.066
  561POPC   C1R29153   5.110   4.263   3.012
  561POPC    CE29154   4.327   5.444   2.714
  561POPC    OG29155   4.330   5.496   2.848
  561POPC   C2A29156   4.215   5.502   2.913
  561POPC    OH29157   4.107   5.493   2.854
  561POPC   C2B29158   4.229   5.537   3.056
  561POPC   C2C29159   4.224   5.411   3.143
  561POPC   C2D29160   4.221   5.440   3.293
  561POPC   C2E29161   4.350   5.504   3.344
  561POPC   C2F29162   4.351   5.508   3.497
  561POPC   C2G29163   4.477   5.577   3.550
  561POPC   C2H29164   4.488   5.571   3.702
  561POPC   C2I29165   4.524   5.430   3.751
  561POPC   C2J29166   4.531   5.421   3.904
  561POPC   C2K29167   4.644   5.504   3.965
  561POPC   C2L29168   4.641   5.493   4.117
  561POPC   C2M29169   4.751   5.575   4.184
  561POPC   C2N29170   4.743   5.562   4.336
  561POPC   C2O29171   4.853   5.644   4.404
  561POPC   C2P29172   4.842   5.633   4.556
  562POPC   CN129173   3.769   6.206   2.082
  562POPC   CN229174   3.812   6.126   1.861
  562POPC   CN329175   3.796   6.361   1.904
  562POPC   NTM29176   3.842   6.232   1.958
  562POPC    CA29177   3.988   6.245   1.983
  562POPC    CB29178   4.074   6.121   2.017
  562POPC    OA29179   4.020   6.036   2.118
  562POPC     P29180   4.092   5.898   2.125
  562POPC    OB29181   4.005   5.819   2.213
  562POPC    OC29182   4.120   5.858   1.985
  562POPC    OD29183   4.225   5.940   2.198
  562POPC    CC29184   4.210   5.956   2.339
  562POPC    CD29185   4.348   5.971   2.404
  562POPC    OE29186   4.357   5.913   2.538
  562POPC   C1A29187   4.477   5.881   2.584
  562POPC    OF29188   4.574   5.875   2.506
  562POPC   C1B29189   4.479   5.836   2.725
  562POPC   C1C29190   4.610   5.875   2.792
  562POPC   C1D29191   4.639   5.791   2.917
  562POPC   C1E29192   4.777   5.829   2.972
  562POPC   C1F29193   4.831   5.727   3.073
  562POPC   C1G29194   4.755   5.727   3.206
  562POPC   C1H29195   4.810   5.623   3.304
  562POPC   C1I29196   4.951   5.656   3.354
  562POPC   C1J29197   4.997   5.598   3.465
  562POPC   C1K29198   4.910   5.496   3.539
  562POPC   C1L29199   4.995   5.398   3.619
  562POPC   C1M29200   4.908   5.297   3.693
  562POPC   C1N29201   4.992   5.199   3.775
  562POPC   C1O29202   4.902   5.095   3.841
  562POPC   C1P29203   4.984   4.992   3.920
  562POPC   C1Q29204   4.898   4.878   3.975
  562POPC   C1R29205   4.796   4.925   4.079
  562POPC    CE29206   4.389   6.118   2.384
  562POPC    OG29207   4.338   6.211   2.482
  562POPC   C2A29208   4.397   6.330   2.488
  562POPC    OH29209   4.494   6.356   2.416
  562POPC   C2B29210   4.348   6.412   2.602
  562POPC   C2C29211   4.449   6.521   2.641
  562POPC   C2D29212   4.416   6.585   2.776
  562POPC   C2E29213   4.456   6.494   2.892
  562POPC   C2F29214   4.428   6.560   3.027
  562POPC   C2G29215   4.489   6.478   3.140
  562POPC   C2H29216   4.455   6.536   3.277
  562POPC   C2I29217   4.530   6.462   3.387
  562POPC   C2J29218   4.490   6.513   3.525
  562POPC   C2K29219   4.576   6.450   3.635
  562POPC   C2L29220   4.531   6.502   3.771
  562POPC   C2M29221   4.617   6.447   3.884
  562POPC   C2N29222   4.565   6.495   4.020
  562POPC   C2O29223   4.652   6.448   4.137
  562POPC   C2P29224   4.651   6.296   4.154
  563POPC   CN129225   3.841   6.883   1.995
  563POPC   CN229226   3.985   6.888   2.183
  563POPC   CN329227   3.824   6.712   2.161
  563POPC   NTM29228   3.918   6.799   2.087
  563POPC    CA29229   4.017   6.723   2.007
  563POPC    CB29230   4.118   6.628   2.077
  563POPC    OA29231   4.058   6.520   2.147
  563POPC     P29232   4.167   6.443   2.230
  563POPC    OB29233   4.248   6.376   2.127
  563POPC    OC29234   4.226   6.539   2.322
  563POPC    OD29235   4.070   6.342   2.301
  563POPC    CC29236   3.993   6.410   2.399
  563POPC    CD29237   3.869   6.332   2.447
  563POPC    OE29238   3.769   6.416   2.511
  563POPC   C1A29239   3.679   6.478   2.436
  563POPC    OF29240   3.669   6.450   2.316
  563POPC   C1B29241   3.591   6.570   2.511
  563POPC   C1C29242   3.444   6.549   2.473
  563POPC   C1D29243   3.351   6.653   2.537
  563POPC   C1E29244   3.372   6.792   2.476
  563POPC   C1F29245   3.289   6.899   2.548
  563POPC   C1G29246   3.335   6.916   2.693
  563POPC   C1H29247   3.257   7.026   2.765
  563POPC   C1I29248   3.302   7.036   2.910
  563POPC   C1J29249   3.216   7.080   3.002
  563POPC   C1K29250   3.076   7.122   2.958
  563POPC   C1L29251   2.974   7.093   3.068
  563POPC   C1M29252   2.839   7.156   3.033
  563POPC   C1N29253   2.738   7.129   3.144
  563POPC   C1O29254   2.619   7.224   3.132
  563POPC   C1P29255   2.520   7.208   3.248
  563POPC   C1Q29256   2.578   7.237   3.387
  563POPC   C1R29257   2.622   7.383   3.405
  563POPC    CE29258   3.920   6.211   2.527
  563POPC    OG29259   4.002   6.244   2.641
  563POPC   C2A29260   4.036   6.144   2.721
  563POPC    OH29261   4.006   6.027   2.695
  563POPC   C2B29262   4.107   6.192   2.841
  563POPC   C2C29263   4.194   6.085   2.909
  563POPC   C2D29264   4.252   6.144   3.037
  563POPC   C2E29265   4.334   6.040   3.114
  563POPC   C2F29266   4.389   6.100   3.243
  563POPC   C2G29267   4.472   5.997   3.318
  563POPC   C2H29268   4.539   6.055   3.442
  563POPC   C2I29269   4.622   5.945   3.507
  563POPC   C2J29270   4.699   5.989   3.631
  563POPC   C2K29271   4.776   5.866   3.680
  563POPC   C2L29272   4.863   5.891   3.804
  563POPC   C2M29273   4.937   5.760   3.832
  563POPC   C2N29274   5.033   5.770   3.950
  563POPC   C2O29275   5.103   5.635   3.967
  563POPC   C2P29276   5.201   5.638   4.084
  564POPC   CN129277   4.833   7.789   1.826
  564POPC   CN229278   4.735   7.622   1.965
  564POPC   CN329279   4.815   7.827   2.060
  564POPC   NTM29280   4.748   7.767   1.944
  564POPC    CA29281   4.616   7.832   1.919
  564POPC    CB29282   4.502   7.824   2.023
  564POPC    OA29283   4.450   7.693   2.043
  564POPC     P29284   4.326   7.690   2.138
  564POPC    OB29285   4.246   7.811   2.118
  564POPC    OC29286   4.263   7.559   2.117
  564POPC    OD29287   4.397   7.690   2.278
  564POPC    CC29288   4.314   7.625   2.373
  564POPC    CD29289   4.377   7.602   2.512
  564POPC    OE29290   4.299   7.507   2.591
  564POPC   C1A29291   4.365   7.430   2.678
  564POPC    OF29292   4.488   7.419   2.671
  564POPC   C1B29293   4.274   7.353   2.766
  564POPC   C1C29294   4.319   7.209   2.789
  564POPC   C1D29295   4.211   7.131   2.864
  564POPC   C1E29296   4.250   6.984   2.885
  564POPC   C1F29297   4.360   6.964   2.991
  564POPC   C1G29298   4.305   6.979   3.133
  564POPC   C1H29299   4.418   6.966   3.235
  564POPC   C1I29300   4.364   6.969   3.378
  564POPC   C1J29301   4.439   6.928   3.481
  564POPC   C1K29302   4.584   6.881   3.460
  564POPC   C1L29303   4.689   6.982   3.507
  564POPC   C1M29304   4.696   7.000   3.659
  564POPC   C1N29305   4.746   6.875   3.731
  564POPC   C1O29306   4.764   6.898   3.881
  564POPC   C1P29307   4.631   6.919   3.954
  564POPC   C1Q29308   4.650   6.955   4.102
  564POPC   C1R29309   4.716   6.843   4.183
  564POPC    CE29310   4.392   7.742   2.575
  564POPC    OG29311   4.460   7.745   2.701
  564POPC   C2A29312   4.422   7.838   2.789
  564POPC    OH29313   4.339   7.925   2.760
  564POPC   C2B29314   4.486   7.819   2.921
  564POPC   C2C29315   4.410   7.711   2.998
  564POPC   C2D29316   4.478   7.672   3.129
  564POPC   C2E29317   4.401   7.555   3.192
  564POPC   C2F29318   4.463   7.507   3.323
  564POPC   C2G29319   4.389   7.382   3.371
  564POPC   C2H29320   4.447   7.322   3.499
  564POPC   C2I29321   4.414   7.402   3.625
  564POPC   C2J29322   4.463   7.326   3.749
  564POPC   C2K29323   4.431   7.403   3.878
  564POPC   C2L29324   4.483   7.328   4.001
  564POPC   C2M29325   4.459   7.406   4.130
  564POPC   C2N29326   4.311   7.413   4.171
  564POPC   C2O29327   4.261   7.278   4.225
  564POPC   C2P29328   4.114   7.288   4.266
  565POPC   CN129329   4.052   7.992   2.526
  565POPC   CN229330   3.941   8.102   2.345
  565POPC   CN329331   3.941   8.198   2.563
  565POPC   NTM29332   4.021   8.123   2.466
  565POPC    CA29333   4.142   8.203   2.436
  565POPC    CB29334   4.252   8.149   2.342
  565POPC    OA29335   4.328   8.042   2.397
  565POPC     P29336   4.477   8.048   2.348
  565POPC    OB29337   4.553   7.934   2.400
  565POPC    OC29338   4.479   8.083   2.205
  565POPC    OD29339   4.526   8.175   2.427
  565POPC    CC29340   4.541   8.151   2.567
  565POPC    CD29341   4.608   8.267   2.641
  565POPC    OE29342   4.637   8.237   2.779
  565POPC   C1A29343   4.739   8.297   2.838
  565POPC    OF29344   4.831   8.345   2.769
  565POPC   C1B29345   4.734   8.290   2.985
  565POPC   C1C29346   4.809   8.172   3.047
  565POPC   C1D29347   4.779   8.161   3.197
  565POPC   C1E29348   4.827   8.284   3.275
  565POPC   C1F29349   4.773   8.291   3.418
  565POPC   C1G29350   4.836   8.188   3.511
  565POPC   C1H29351   4.777   8.201   3.651
  565POPC   C1I29352   4.844   8.106   3.750
  565POPC   C1J29353   4.830   8.125   3.881
  565POPC   C1K29354   4.747   8.244   3.931
  565POPC   C1L29355   4.635   8.202   4.027
  565POPC   C1M29356   4.683   8.145   4.161
  565POPC   C1N29357   4.753   8.247   4.251
  565POPC   C1O29358   4.657   8.355   4.302
  565POPC   C1P29359   4.729   8.455   4.392
  565POPC   C1Q29360   4.633   8.565   4.438
  565POPC   C1R29361   4.705   8.665   4.528
  565POPC    CE29362   4.518   8.391   2.616
  565POPC    OG29363   4.385   8.385   2.669
  565POPC   C2A29364   4.302   8.479   2.625
  565POPC    OH29365   4.305   8.509   2.506
  565POPC   C2B29366   4.185   8.499   2.714
  565POPC   C2C29367   4.219   8.595   2.828
  565POPC   C2D29368   4.110   8.599   2.934
  565POPC   C2E29369   4.160   8.679   3.054
  565POPC   C2F29370   4.064   8.668   3.173
  565POPC   C2G29371   4.130   8.733   3.295
  565POPC   C2H29372   4.049   8.720   3.424
  565POPC   C2I29373   3.921   8.804   3.424
  565POPC   C2J29374   3.864   8.816   3.566
  565POPC   C2K29375   3.954   8.904   3.653
  565POPC   C2L29376   3.915   8.903   3.801
  565POPC   C2M29377   3.939   8.767   3.867
  565POPC   C2N29378   3.906   8.773   4.017
  565POPC   C2O29379   3.926   8.637   4.083
  565POPC   C2P29380   3.893   8.642   4.232
  566POPC   CN129381   4.786   8.508   2.112
  566POPC   CN229382   4.804   8.543   2.345
  566POPC   CN329383   4.839   8.726   2.195
  566POPC   NTM29384   4.759   8.604   2.219
  566POPC    CA29385   4.614   8.632   2.218
  566POPC    CB29386   4.550   8.731   2.318
  566POPC    OA29387   4.567   8.698   2.456
  566POPC     P29388   4.473   8.781   2.550
  566POPC    OB29389   4.347   8.810   2.479
  566POPC    OC29390   4.476   8.720   2.684
  566POPC    OD29391   4.554   8.916   2.550
  566POPC    CC29392   4.660   8.911   2.645
  566POPC    CD29393   4.722   9.047   2.683
  566POPC    OE29394   4.833   9.039   2.775
  566POPC   C1A29395   4.953   9.000   2.733
  566POPC    OF29396   4.975   8.994   2.611
  566POPC   C1B29397   5.056   9.004   2.839
  566POPC   C1C29398   5.062   8.875   2.921
  566POPC   C1D29399   5.155   8.890   3.042
  566POPC   C1E29400   5.098   8.987   3.146
  566POPC   C1F29401   5.185   8.997   3.271
  566POPC   C1G29402   5.315   9.075   3.247
  566POPC   C1H29403   5.400   9.081   3.374
  566POPC   C1I29404   5.518   9.176   3.355
  566POPC   C1J29405   5.578   9.232   3.460
  566POPC   C1K29406   5.532   9.198   3.602
  566POPC   C1L29407   5.563   9.314   3.698
  566POPC   C1M29408   5.534   9.272   3.842
  566POPC   C1N29409   5.560   9.384   3.943
  566POPC   C1O29410   5.460   9.499   3.931
  566POPC   C1P29411   5.478   9.601   4.043
  566POPC   C1Q29412   5.371   9.710   4.034
  566POPC   C1R29413   5.386   9.810   4.149
  566POPC    CE29414   4.607   9.140   2.726
  566POPC    OG29415   4.506   9.085   2.814
  566POPC   C2A29416   4.381   9.119   2.788
  566POPC    OH29417   4.352   9.187   2.689
  566POPC   C2B29418   4.283   9.060   2.882
  566POPC   C2C29419   4.230   9.165   2.980
  566POPC   C2D29420   4.133   9.104   3.081
  566POPC   C2E29421   4.077   9.206   3.181
  566POPC   C2F29422   4.186   9.268   3.268
  566POPC   C2G29423   4.127   9.350   3.383
  566POPC   C2H29424   4.239   9.410   3.468
  566POPC   C2I29425   4.188   9.467   3.601
  566POPC   C2J29426   4.137   9.355   3.693
  566POPC   C2K29427   4.095   9.408   3.830
  566POPC   C2L29428   4.048   9.292   3.918
  566POPC   C2M29429   4.009   9.341   4.057
  566POPC   C2N29430   3.961   9.223   4.143
  566POPC   C2O29431   3.924   9.267   4.285
  566POPC   C2P29432   4.046   9.310   4.367
  567POPC   CN129433   5.030  10.687   2.246
  567POPC   CN229434   5.229  10.773   2.350
  567POPC   CN329435   5.236  10.568   2.231
  567POPC   NTM29436   5.176  10.702   2.233
  567POPC    CA29437   5.213  10.773   2.109
  567POPC    CB29438   5.157  10.915   2.078
  567POPC    OA29439   5.175  11.013   2.180
  567POPC     P29440   5.133  11.158   2.135
  567POPC    OB29441   5.187  11.257   2.230
  567POPC    OC29442   5.160  11.170   1.991
  567POPC    OD29443   4.978  11.140   2.157
  567POPC    CC29444   4.941  11.163   2.294
  567POPC    CD29445   4.791  11.145   2.325
  567POPC    OE29446   4.754  11.202   2.453
  567POPC   C1A29447   4.654  11.290   2.458
  567POPC    OF29448   4.577  11.301   2.362
  567POPC   C1B29449   4.637  11.348   2.593
  567POPC   C1C29450   4.616  11.499   2.590
  567POPC   C1D29451   4.598  11.558   2.731
  567POPC   C1E29452   4.727  11.554   2.814
  567POPC   C1F29453   4.701  11.607   2.955
  567POPC   C1G29454   4.831  11.613   3.037
  567POPC   C1H29455   4.806  11.671   3.177
  567POPC   C1I29456   4.938  11.689   3.252
  567POPC   C1J29457   4.942  11.695   3.385
  567POPC   C1K29458   4.815  11.683   3.470
  567POPC   C1L29459   4.827  11.768   3.596
  567POPC   C1M29460   4.706  11.747   3.689
  567POPC   C1N29461   4.708  11.840   3.811
  567POPC   C1O29462   4.827  11.815   3.904
  567POPC   C1P29463   4.822  11.902   4.031
  567POPC   C1Q29464   4.707  11.861   4.124
  567POPC   C1R29465   4.707  11.946   4.252
  567POPC    CE29466   4.760  10.995   2.308
  567POPC    OG29467   4.835  10.908   2.395
  567POPC   C2A29468   4.766  10.848   2.492
  567POPC    OH29469   4.646  10.825   2.479
  567POPC   C2B29470   4.856  10.790   2.595
  567POPC   C2C29471   4.785  10.765   2.728
  567POPC   C2D29472   4.885  10.726   2.838
  567POPC   C2E29473   4.811  10.683   2.965
  567POPC   C2F29474   4.905  10.666   3.084
  567POPC   C2G29475   4.942  10.801   3.147
  567POPC   C2H29476   5.043  10.789   3.262
  567POPC   C2I29477   4.993  10.710   3.384
  567POPC   C2J29478   4.877  10.779   3.457
  567POPC   C2K29479   4.842  10.704   3.585
  567POPC   C2L29480   4.724  10.771   3.657
  567POPC   C2M29481   4.696  10.704   3.792
  567POPC   C2N29482   4.573  10.767   3.858
  567POPC   C2O29483   4.545  10.707   3.997
  567POPC   C2P29484   4.651  10.748   4.100
  568POPC   CN129485   4.088  12.039   2.493
  568POPC   CN229486   4.172  12.129   2.696
  568POPC   CN329487   4.232  11.910   2.635
  568POPC   NTM29488   4.205  12.044   2.581
  568POPC    CA29489   4.324  12.102   2.513
  568POPC    CB29490   4.386  12.035   2.388
  568POPC    OA29491   4.432  11.900   2.402
  568POPC     P29492   4.536  11.863   2.290
  568POPC    OB29493   4.558  11.718   2.300
  568POPC    OC29494   4.492  11.921   2.163
  568POPC    OD29495   4.659  11.945   2.346
  568POPC    CC29496   4.729  11.870   2.445
  568POPC    CD29497   4.829  11.955   2.523
  568POPC    OE29498   4.944  11.880   2.570
  568POPC   C1A29499   5.057  11.946   2.597
  568POPC    OF29500   5.075  12.058   2.549
  568POPC   C1B29501   5.158  11.860   2.661
  568POPC   C1C29502   5.130  11.843   2.811
  568POPC   C1D29503   5.219  11.738   2.877
  568POPC   C1E29504   5.190  11.598   2.823
  568POPC   C1F29505   5.262  11.491   2.905
  568POPC   C1G29506   5.234  11.349   2.854
  568POPC   C1H29507   5.086  11.313   2.863
  568POPC   C1I29508   5.059  11.169   2.820
  568POPC   C1J29509   4.954  11.106   2.873
  568POPC   C1K29510   4.865  11.183   2.971
  568POPC   C1L29511   4.723  11.127   2.976
  568POPC   C1M29512   4.635  11.215   3.064
  568POPC   C1N29513   4.496  11.154   3.086
  568POPC   C1O29514   4.503  11.031   3.177
  568POPC   C1P29515   4.363  10.973   3.202
  568POPC   C1Q29516   4.368  10.850   3.292
  568POPC   C1R29517   4.406  10.884   3.436
  568POPC    CE29518   4.746  12.037   2.623
  568POPC    OG29519   4.669  11.960   2.716
  568POPC   C2A29520   4.581  12.026   2.791
  568POPC    OH29521   4.541  12.137   2.758
  568POPC   C2B29522   4.523  11.942   2.899
  568POPC   C2C29523   4.491  12.025   3.023
  568POPC   C2D29524   4.452  11.937   3.142
  568POPC   C2E29525   4.420  12.028   3.261
  568POPC   C2F29526   4.408  11.949   3.392
  568POPC   C2G29527   4.374  12.046   3.505
  568POPC   C2H29528   4.373  11.979   3.642
  568POPC   C2I29529   4.340  12.079   3.753
  568POPC   C2J29530   4.445  12.190   3.762
  568POPC   C2K29531   4.390  12.315   3.832
  568POPC   C2L29532   4.447  12.442   3.768
  568POPC   C2M29533   4.403  12.455   3.622
  568POPC   C2N29534   4.480  12.563   3.547
  568POPC   C2O29535   4.452  12.554   3.396
  568POPC   C2P29536   4.511  12.427   3.333
  569POPC   CN129537   4.676  12.842   2.623
  569POPC   CN229538   4.439  12.841   2.658
  569POPC   CN329539   4.539  13.014   2.533
  569POPC   NTM29540   4.545  12.870   2.562
  569POPC    CA29541   4.527  12.794   2.436
  569POPC    CB29542   4.520  12.639   2.438
  569POPC    OA29543   4.636  12.570   2.487
  569POPC     P29544   4.600  12.421   2.527
  569POPC    OB29545   4.514  12.365   2.422
  569POPC    OC29546   4.729  12.357   2.562
  569POPC    OD29547   4.511  12.452   2.653
  569POPC    CC29548   4.585  12.473   2.773
  569POPC    CD29549   4.497  12.518   2.891
  569POPC    OE29550   4.575  12.565   3.005
  569POPC   C1A29551   4.622  12.689   3.008
  569POPC    OF29552   4.607  12.767   2.914
  569POPC   C1B29553   4.689  12.724   3.135
  569POPC   C1C29554   4.833  12.671   3.145
  569POPC   C1D29555   4.895  12.711   3.279
  569POPC   C1E29556   4.928  12.860   3.282
  569POPC   C1F29557   4.946  12.916   3.424
  569POPC   C1G29558   5.060  12.850   3.501
  569POPC   C1H29559   5.075  12.918   3.638
  569POPC   C1I29560   5.173  12.840   3.725
  569POPC   C1J29561   5.169  12.850   3.858
  569POPC   C1K29562   5.073  12.944   3.931
  569POPC   C1L29563   5.145  13.064   3.996
  569POPC   C1M29564   5.245  13.021   4.104
  569POPC   C1N29565   5.327  13.138   4.159
  569POPC   C1O29566   5.244  13.230   4.249
  569POPC   C1P29567   5.325  13.350   4.300
  569POPC   C1Q29568   5.441  13.310   4.392
  569POPC   C1R29569   5.518  13.434   4.439
  569POPC    CE29570   4.400  12.402   2.920
  569POPC    OG29571   4.289  12.432   3.007
  569POPC   C2A29572   4.206  12.331   3.035
  569POPC    OH29573   4.219  12.220   2.984
  569POPC   C2B29574   4.094  12.369   3.125
  569POPC   C2C29575   4.119  12.328   3.270
  569POPC   C2D29576   3.993  12.353   3.354
  569POPC   C2E29577   4.011  12.316   3.501
  569POPC   C2F29578   3.878  12.333   3.576
  569POPC   C2G29579   3.884  12.290   3.723
  569POPC   C2H29580   3.964  12.387   3.810
  569POPC   C2I29581   3.966  12.346   3.958
  569POPC   C2J29582   4.045  12.217   3.981
  569POPC   C2K29583   4.063  12.186   4.129
  569POPC   C2L29584   4.153  12.062   4.144
  569POPC   C2M29585   4.186  12.028   4.290
  569POPC   C2N29586   4.064  11.978   4.369
  569POPC   C2O29587   4.106  11.939   4.510
  569POPC   C2P29588   3.986  11.893   4.593
  570POPC   CN129589   4.810  13.849   2.097
  570POPC   CN229590   4.692  13.981   2.256
  570POPC   CN329591   4.696  13.747   2.282
  570POPC   NTM29592   4.776  13.862   2.239
  570POPC    CA29593   4.895  13.876   2.326
  570POPC    CB29594   5.018  13.783   2.308
  570POPC    OA29595   4.993  13.643   2.285
  570POPC     P29596   5.126  13.574   2.237
  570POPC    OB29597   5.093  13.437   2.194
  570POPC    OC29598   5.193  13.665   2.143
  570POPC    OD29599   5.201  13.573   2.375
  570POPC    CC29600   5.206  13.446   2.440
  570POPC    CD29601   5.256  13.453   2.585
  570POPC    OE29602   5.301  13.325   2.636
  570POPC   C1A29603   5.411  13.319   2.709
  570POPC    OF29604   5.492  13.413   2.709
  570POPC   C1B29605   5.430  13.190   2.779
  570POPC   C1C29606   5.371  13.197   2.920
  570POPC   C1D29607   5.390  13.064   2.995
  570POPC   C1E29608   5.326  13.066   3.134
  570POPC   C1F29609   5.402  13.152   3.235
  570POPC   C1G29610   5.321  13.166   3.364
  570POPC   C1H29611   5.400  13.240   3.472
  570POPC   C1I29612   5.309  13.271   3.591
  570POPC   C1J29613   5.346  13.250   3.717
  570POPC   C1K29614   5.483  13.190   3.751
  570POPC   C1L29615   5.578  13.295   3.810
  570POPC   C1M29616   5.715  13.236   3.846
  570POPC   C1N29617   5.795  13.190   3.724
  570POPC   C1O29618   5.843  13.306   3.637
  570POPC   C1P29619   5.926  13.258   3.518
  570POPC   C1Q29620   5.842  13.184   3.413
  570POPC   C1R29621   5.930  13.136   3.298
  570POPC    CE29622   5.140  13.516   2.665
  570POPC    OG29623   5.174  13.561   2.798
  570POPC   C2A29624   5.077  13.554   2.890
  570POPC    OH29625   4.970  13.498   2.867
  570POPC   C2B29626   5.124  13.600   3.023
  570POPC   C2C29627   5.014  13.671   3.103
  570POPC   C2D29628   5.067  13.719   3.238
  570POPC   C2E29629   4.959  13.801   3.310
  570POPC   C2F29630   5.005  13.841   3.451
  570POPC   C2G29631   4.900  13.929   3.519
  570POPC   C2H29632   4.939  13.967   3.662
  570POPC   C2I29633   4.936  13.846   3.757
  570POPC   C2J29634   4.969  13.883   3.902
  570POPC   C2K29635   4.866  13.979   3.962
  570POPC   C2L29636   4.891  14.004   4.110
  570POPC   C2M29637   4.787  14.102   4.164
  570POPC   C2N29638   4.801  14.127   4.314
  570POPC   C2O29639   4.762  14.005   4.398
  570POPC   C2P29640   4.774  14.037   4.547
  571POPC   CN129641   5.309  13.962   2.995
  571POPC   CN229642   5.305  14.162   2.864
  571POPC   CN329643   5.502  14.030   2.878
  571POPC   NTM29644   5.356  14.024   2.871
  571POPC    CA29645   5.317  13.947   2.751
  571POPC    CB29646   5.168  13.933   2.710
  571POPC    OA29647   5.083  13.884   2.813
  571POPC     P29648   4.932  13.878   2.769
  571POPC    OB29649   4.925  13.846   2.626
  571POPC    OC29650   4.855  13.803   2.868
  571POPC    OD29651   4.895  14.031   2.785
  571POPC    CC29652   4.890  14.068   2.924
  571POPC    CD29653   4.846  14.213   2.948
  571POPC    OE29654   4.873  14.263   3.082
  571POPC   C1A29655   4.994  14.309   3.115
  571POPC    OF29656   5.081  14.325   3.029
  571POPC   C1B29657   5.005  14.347   3.257
  571POPC   C1C29658   4.987  14.497   3.278
  571POPC   C1D29659   5.017  14.536   3.423
  571POPC   C1E29660   5.010  14.687   3.441
  571POPC   C1F29661   5.054  14.727   3.582
  571POPC   C1G29662   5.057  14.879   3.597
  571POPC   C1H29663   5.101  14.925   3.736
  571POPC   C1I29664   5.249  14.899   3.765
  571POPC   C1J29665   5.288  14.876   3.890
  571POPC   C1K29666   5.186  14.876   4.003
  571POPC   C1L29667   5.249  14.911   4.138
  571POPC   C1M29668   5.146  14.901   4.250
  571POPC   C1N29669   5.210  14.930   4.387
  571POPC   C1O29670   5.112  14.909   4.503
  571POPC   C1P29671   4.997  15.010   4.501
  571POPC   C1Q29672   4.900  14.991   4.619
  571POPC   C1R29673   4.819  14.861   4.608
  571POPC    CE29674   4.698  14.221   2.906
  571POPC    OG29675   4.613  14.132   2.981
  571POPC   C2A29676   4.483  14.160   2.981
  571POPC    OH29677   4.438  14.258   2.921
  571POPC   C2B29678   4.405  14.070   3.070
  571POPC   C2C29679   4.461  14.057   3.212
  571POPC   C2D29680   4.450  14.188   3.290
  571POPC   C2E29681   4.511  14.178   3.430
  571POPC   C2F29682   4.482  14.307   3.507
  571POPC   C2G29683   4.542  14.310   3.647
  571POPC   C2H29684   4.694  14.327   3.646
  571POPC   C2I29685   4.744  14.352   3.788
  571POPC   C2J29686   4.895  14.378   3.791
  571POPC   C2K29687   4.942  14.421   3.931
  571POPC   C2L29688   4.886  14.558   3.970
  571POPC   C2M29689   4.929  14.601   4.111
  571POPC   C2N29690   4.866  14.516   4.221
  571POPC   C2O29691   4.913  14.564   4.359
  571POPC   C2P29692   4.853  14.479   4.471
  572POPC   CN129693   4.949  14.529   2.455
  572POPC   CN229694   4.763  14.619   2.570
  572POPC   CN329695   4.951  14.757   2.528
  572POPC   NTM29696   4.868  14.650   2.472
  572POPC    CA29697   4.803  14.690   2.345
  572POPC    CB29698   4.887  14.728   2.220
  572POPC    OA29699   4.972  14.841   2.234
  572POPC     P29700   5.059  14.860   2.105
  572POPC    OB29701   5.142  14.739   2.103
  572POPC    OC29702   4.966  14.897   1.997
  572POPC    OD29703   5.140  14.987   2.149
  572POPC    CC29704   5.241  14.954   2.246
  572POPC    CD29705   5.325  15.076   2.284
  572POPC    OE29706   5.449  15.042   2.352
  572POPC   C1A29707   5.533  15.141   2.382
  572POPC    OF29708   5.529  15.246   2.317
  572POPC   C1B29709   5.642  15.100   2.474
  572POPC   C1C29710   5.593  15.102   2.619
  572POPC   C1D29711   5.701  15.046   2.712
  572POPC   C1E29712   5.653  15.046   2.857
  572POPC   C1F29713   5.768  15.001   2.947
  572POPC   C1G29714   5.732  15.004   3.096
  572POPC   C1H29715   5.852  14.966   3.184
  572POPC   C1I29716   5.893  14.819   3.168
  572POPC   C1J29717   5.975  14.763   3.257
  572POPC   C1K29718   6.031  14.846   3.372
  572POPC   C1L29719   6.051  14.762   3.498
  572POPC   C1M29720   6.106  14.849   3.610
  572POPC   C1N29721   6.111  14.774   3.743
  572POPC   C1O29722   6.165  14.864   3.854
  572POPC   C1P29723   6.157  14.794   3.990
  572POPC   C1Q29724   6.213  14.882   4.102
  572POPC   C1R29725   6.365  14.899   4.094
  572POPC    CE29726   5.228  15.171   2.358
  572POPC    OG29727   5.187  15.129   2.489
  572POPC   C2A29728   5.097  15.204   2.549
  572POPC    OH29729   5.033  15.289   2.486
  572POPC   C2B29730   5.086  15.179   2.695
  572POPC   C2C29731   5.180  15.273   2.771
  572POPC   C2D29732   5.173  15.252   2.922
  572POPC   C2E29733   5.273  15.343   2.993
  572POPC   C2F29734   5.275  15.325   3.145
  572POPC   C2G29735   5.323  15.185   3.187
  572POPC   C2H29736   5.346  15.172   3.338
  572POPC   C2I29737   5.468  15.253   3.382
  572POPC   C2J29738   5.512  15.224   3.526
  572POPC   C2K29739   5.413  15.272   3.632
  572POPC   C2L29740   5.471  15.249   3.772
  572POPC   C2M29741   5.377  15.302   3.880
  572POPC   C2N29742   5.436  15.277   4.019
  572POPC   C2O29743   5.343  15.331   4.128
  572POPC   C2P29744   5.401  15.302   4.267
  573POPC   CN129745   4.721  15.415   2.204
  573POPC   CN229746   4.576  15.255   2.104
  573POPC   CN329747   4.749  15.358   1.976
  573POPC   NTM29748   4.714  15.304   2.108
  573POPC    CA29749   4.810  15.195   2.141
  573POPC    CB29750   4.814  15.133   2.282
  573POPC    OA29751   4.691  15.082   2.335
  573POPC     P29752   4.690  15.102   2.492
  573POPC    OB29753   4.572  15.034   2.547
  573POPC    OC29754   4.822  15.072   2.545
  573POPC    OD29755   4.666  15.257   2.496
  573POPC    CC29756   4.698  15.307   2.625
  573POPC    CD29757   4.673  15.457   2.643
  573POPC    OE29758   4.751  15.516   2.752
  573POPC   C1A29759   4.861  15.585   2.724
  573POPC    OF29760   4.881  15.627   2.609
  573POPC   C1B29761   4.942  15.618   2.843
  573POPC   C1C29762   4.917  15.762   2.891
  573POPC   C1D29763   4.990  15.786   3.023
  573POPC   C1E29764   4.970  15.929   3.074
  573POPC   C1F29765   5.029  15.944   3.214
  573POPC   C1G29766   5.010  16.086   3.267
  573POPC   C1H29767   5.054  16.095   3.413
  573POPC   C1I29768   5.031  16.235   3.470
  573POPC   C1J29769   4.994  16.249   3.597
  573POPC   C1K29770   4.973  16.125   3.684
  573POPC   C1L29771   4.991  16.151   3.834
  573POPC   C1M29772   5.137  16.178   3.873
  573POPC   C1N29773   5.152  16.184   4.025
  573POPC   C1O29774   5.298  16.200   4.065
  573POPC   C1P29775   5.318  16.205   4.217
  573POPC   C1Q29776   5.293  16.070   4.287
  573POPC   C1R29777   5.402  15.967   4.253
  573POPC    CE29778   4.521  15.477   2.648
  573POPC    OG29779   4.452  15.412   2.757
  573POPC   C2A29780   4.321  15.430   2.763
  573POPC    OH29781   4.258  15.479   2.669
  573POPC   C2B29782   4.261  15.377   2.888
  573POPC   C2C29783   4.245  15.492   2.988
  573POPC   C2D29784   4.198  15.446   3.126
  573POPC   C2E29785   4.183  15.569   3.214
  573POPC   C2F29786   4.153  15.536   3.360
  573POPC   C2G29787   4.145  15.668   3.438
  573POPC   C2H29788   4.127  15.652   3.589
  573POPC   C2I29789   3.994  15.587   3.629
  573POPC   C2J29790   3.957  15.620   3.774
  573POPC   C2K29791   4.060  15.569   3.875
  573POPC   C2L29792   4.038  15.627   4.015
  573POPC   C2M29793   3.912  15.576   4.084
  573POPC   C2N29794   3.901  15.637   4.223
  573POPC   C2O29795   3.779  15.585   4.298
  573POPC   C2P29796   3.768  15.651   4.436
  574POPC   CN129797   4.963  15.978   2.375
  574POPC   CN229798   5.060  16.002   2.593
  574POPC   CN329799   5.129  15.828   2.445
  574POPC   NTM29800   5.087  15.968   2.452
  574POPC    CA29801   5.194  16.052   2.392
  574POPC    CB29802   5.189  16.207   2.395
  574POPC    OA29803   5.069  16.270   2.347
  574POPC     P29804   5.077  16.425   2.376
  574POPC    OB29805   5.211  16.475   2.343
  574POPC    OC29806   4.958  16.489   2.317
  574POPC    OD29807   5.059  16.425   2.531
  574POPC    CC29808   4.927  16.398   2.577
  574POPC    CD29809   4.915  16.415   2.729
  574POPC    OE29810   4.787  16.377   2.785
  574POPC   C1A29811   4.759  16.248   2.804
  574POPC    OF29812   4.818  16.159   2.742
  574POPC   C1B29813   4.643  16.230   2.895
  574POPC   C1C29814   4.693  16.236   3.040
  574POPC   C1D29815   4.580  16.234   3.143
  574POPC   C1E29816   4.640  16.248   3.283
  574POPC   C1F29817   4.531  16.248   3.390
  574POPC   C1G29818   4.592  16.269   3.529
  574POPC   C1H29819   4.482  16.280   3.635
  574POPC   C1I29820   4.541  16.305   3.774
  574POPC   C1J29821   4.475  16.385   3.858
  574POPC   C1K29822   4.345  16.451   3.813
  574POPC   C1L29823   4.245  16.463   3.929
  574POPC   C1M29824   4.113  16.527   3.885
  574POPC   C1N29825   4.037  16.439   3.785
  574POPC   C1O29826   3.905  16.505   3.743
  574POPC   C1P29827   3.835  16.419   3.638
  574POPC   C1Q29828   3.703  16.481   3.594
  574POPC   C1R29829   3.636  16.395   3.486
  574POPC    CE29830   4.948  16.564   2.753
  574POPC    OG29831   4.974  16.602   2.888
  574POPC   C2A29832   4.965  16.731   2.918
  574POPC    OH29833   4.935  16.815   2.832
  574POPC   C2B29834   5.003  16.761   3.058
  574POPC   C2C29835   4.906  16.705   3.162
  574POPC   C2D29836   4.961  16.726   3.303
  574POPC   C2E29837   4.872  16.664   3.410
  574POPC   C2F29838   4.936  16.678   3.548
  574POPC   C2G29839   4.850  16.615   3.657
  574POPC   C2H29840   4.922  16.617   3.792
  574POPC   C2I29841   4.836  16.553   3.901
  574POPC   C2J29842   4.909  16.549   4.036
  574POPC   C2K29843   4.825  16.487   4.147
  574POPC   C2L29844   4.797  16.338   4.123
  574POPC   C2M29845   4.713  16.278   4.236
  574POPC   C2N29846   4.680  16.131   4.206
  574POPC   C2O29847   4.587  16.070   4.312
  574POPC   C2P29848   4.655  16.056   4.448
  575POPC   CN129849   5.074   0.388   2.256
  575POPC   CN229850   5.159   0.446   2.040
  575POPC   CN329851   4.948   0.337   2.062
  575POPC   NTM29852   5.038   0.437   2.122
  575POPC    CA29853   4.967   0.567   2.127
  575POPC    CB29854   5.041   0.696   2.172
  575POPC    OA29855   5.111   0.684   2.295
  575POPC     P29856   5.189   0.813   2.337
  575POPC    OB29857   5.221   0.892   2.216
  575POPC    OC29858   5.119   0.867   2.454
  575POPC    OD29859   5.323   0.740   2.371
  575POPC    CC29860   5.319   0.675   2.498
  575POPC    CD29861   5.448   0.595   2.521
  575POPC    OE29862   5.444   0.494   2.624
  575POPC   C1A29863   5.403   0.371   2.593
  575POPC    OF29864   5.345   0.346   2.487
  575POPC   C1B29865   5.429   0.275   2.703
  575POPC   C1C29866   5.314   0.269   2.802
  575POPC   C1D29867   5.354   0.196   2.931
  575POPC   C1E29868   5.376   0.046   2.911
  575POPC   C1F29869   5.424  16.963   3.041
  575POPC   C1G29870   5.321  16.977   3.153
  575POPC   C1H29871   5.373  16.923   3.286
  575POPC   C1I29872   5.270  16.948   3.396
  575POPC   C1J29873   5.310  16.967   3.521
  575POPC   C1K29874   5.459  16.962   3.555
  575POPC   C1L29875   5.485  16.929   3.703
  575POPC   C1M29876   5.441   0.060   3.795
  575POPC   C1N29877   5.472   0.030   3.941
  575POPC   C1O29878   5.430   0.145   4.033
  575POPC   C1P29879   5.278   0.162   4.040
  575POPC   C1Q29880   5.241   0.279   4.132
  575POPC   C1R29881   5.090   0.294   4.140
  575POPC    CE29882   5.563   0.696   2.532
  575POPC    OG29883   5.554   0.792   2.639
  575POPC   C2A29884   5.663   0.865   2.661
  575POPC    OH29885   5.761   0.858   2.587
  575POPC   C2B29886   5.648   0.957   2.776
  575POPC   C2C29887   5.769   0.956   2.870
  575POPC   C2D29888   5.748   1.062   2.979
  575POPC   C2E29889   5.860   1.067   3.082
  575POPC   C2F29890   5.826   1.177   3.184
  575POPC   C2G29891   5.920   1.181   3.304
  575POPC   C2H29892   5.868   1.286   3.403
  575POPC   C2I29893   5.947   1.290   3.534
  575POPC   C2J29894   5.878   1.387   3.630
  575POPC   C2K29895   5.943   1.394   3.769
  575POPC   C2L29896   6.080   1.461   3.767
  575POPC   C2M29897   6.129   1.484   3.911
  575POPC   C2N29898   6.263   1.558   3.913
  575POPC   C2O29899   6.308   1.592   4.056
  575POPC   C2P29900   6.339   1.468   4.140
  576POPC   CN129901   5.187   1.948   2.138
  576POPC   CN229902   5.383   1.820   2.110
  576POPC   CN329903   5.236   1.777   2.295
  576POPC   NTM29904   5.242   1.813   2.153
  576POPC    CA29905   5.160   1.720   2.071
  576POPC    CB29906   5.193   1.569   2.067
  576POPC    OA29907   5.321   1.539   2.009
  576POPC     P29908   5.386   1.411   2.070
  576POPC    OB29909   5.285   1.308   2.095
  576POPC    OC29910   5.507   1.385   1.991
  576POPC    OD29911   5.430   1.477   2.205
  576POPC    CC29912   5.493   1.381   2.288
  576POPC    CD29913   5.633   1.422   2.337
  576POPC    OE29914   5.697   1.316   2.416
  576POPC   C1A29915   5.828   1.329   2.441
  576POPC    OF29916   5.900   1.377   2.354
  576POPC   C1B29917   5.873   1.246   2.556
  576POPC   C1C29918   5.838   1.308   2.691
  576POPC   C1D29919   5.916   1.436   2.723
  576POPC   C1E29920   5.864   1.497   2.854
  576POPC   C1F29921   5.943   1.622   2.891
  576POPC   C1G29922   5.880   1.690   3.013
  576POPC   C1H29923   5.958   1.815   3.054
  576POPC   C1I29924   5.884   1.893   3.163
  576POPC   C1J29925   5.924   1.893   3.291
  576POPC   C1K29926   6.047   1.815   3.337
  576POPC   C1L29927   6.042   1.779   3.486
  576POPC   C1M29928   6.055   1.903   3.575
  576POPC   C1N29929   6.053   1.866   3.723
  576POPC   C1O29930   6.071   1.991   3.810
  576POPC   C1P29931   6.079   1.956   3.958
  576POPC   C1Q29932   6.102   2.082   4.041
  576POPC   C1R29933   6.115   2.049   4.190
  576POPC    CE29934   5.614   1.557   2.410
  576POPC    OG29935   5.523   1.553   2.521
  576POPC   C2A29936   5.480   1.668   2.570
  576POPC    OH29937   5.495   1.773   2.508
  576POPC   C2B29938   5.391   1.654   2.688
  576POPC   C2C29939   5.469   1.662   2.820
  576POPC   C2D29940   5.371   1.676   2.937
  576POPC   C2E29941   5.444   1.687   3.071
  576POPC   C2F29942   5.491   1.551   3.125
  576POPC   C2G29943   5.586   1.567   3.244
  576POPC   C2H29944   5.524   1.638   3.364
  576POPC   C2I29945   5.635   1.692   3.455
  576POPC   C2J29946   5.580   1.780   3.567
  576POPC   C2K29947   5.547   1.701   3.693
  576POPC   C2L29948   5.492   1.795   3.800
  576POPC   C2M29949   5.495   1.733   3.940
  576POPC   C2N29950   5.638   1.724   3.993
  576POPC   C2O29951   5.642   1.666   4.135
  576POPC   C2P29952   5.785   1.660   4.187
  577POPC   CN129953   4.580   2.447   2.246
  577POPC   CN229954   4.723   2.438   2.433
  577POPC   CN329955   4.778   2.315   2.236
  577POPC   NTM29956   4.720   2.440   2.286
  577POPC    CA29957   4.786   2.558   2.226
  577POPC    CB29958   4.920   2.616   2.278
  577POPC    OA29959   5.037   2.536   2.292
  577POPC     P29960   5.145   2.633   2.355
  577POPC    OB29961   5.167   2.737   2.254
  577POPC    OC29962   5.092   2.660   2.489
  577POPC    OD29963   5.265   2.531   2.356
  577POPC    CC29964   5.269   2.452   2.474
  577POPC    CD29965   5.368   2.335   2.462
  577POPC    OE29966   5.343   2.219   2.548
  577POPC   C1A29967   5.228   2.151   2.538
  577POPC    OF29968   5.164   2.154   2.433
  577POPC   C1B29969   5.211   2.053   2.647
  577POPC   C1C29970   5.135   2.114   2.766
  577POPC   C1D29971   5.129   2.013   2.880
  577POPC   C1E29972   5.050   2.064   3.000
  577POPC   C1F29973   5.050   1.957   3.108
  577POPC   C1G29974   4.956   1.988   3.225
  577POPC   C1H29975   5.008   2.099   3.318
  577POPC   C1I29976   4.911   2.115   3.435
  577POPC   C1J29977   4.953   2.153   3.555
  577POPC   C1K29978   5.099   2.185   3.584
  577POPC   C1L29979   5.132   2.151   3.730
  577POPC   C1M29980   5.274   2.197   3.766
  577POPC   C1N29981   5.308   2.159   3.910
  577POPC   C1O29982   5.446   2.214   3.947
  577POPC   C1P29983   5.491   2.165   4.085
  577POPC   C1Q29984   5.632   2.216   4.115
  577POPC   C1R29985   5.685   2.160   4.246
  577POPC    CE29986   5.510   2.395   2.472
  577POPC    OG29987   5.538   2.477   2.587
  577POPC   C2A29988   5.665   2.509   2.606
  577POPC    OH29989   5.755   2.463   2.536
  577POPC   C2B29990   5.687   2.600   2.720
  577POPC   C2C29991   5.703   2.525   2.853
  577POPC   C2D29992   5.739   2.623   2.964
  577POPC   C2E29993   5.742   2.557   3.102
  577POPC   C2F29994   5.789   2.660   3.205
  577POPC   C2G29995   5.773   2.613   3.350
  577POPC   C2H29996   5.819   2.725   3.443
  577POPC   C2I29997   5.792   2.696   3.591
  577POPC   C2J29998   5.832   2.818   3.673
  577POPC   C2K29999   5.800   2.803   3.822
  577POPC   C2L30000   5.835   2.933   3.895
  577POPC   C2M30001   5.803   2.926   4.044
  577POPC   C2N30002   5.837   3.059   4.112
  577POPC   C2O30003   5.807   3.055   4.262
  577POPC   C2P30004   5.840   3.189   4.328
  578POPC   CN130005   4.414   3.869   1.959
  578POPC   CN230006   4.531   3.665   1.917
  578POPC   CN330007   4.387   3.757   1.752
  578POPC   NTM30008   4.484   3.790   1.857
  578POPC    CA30009   4.597   3.865   1.795
  578POPC    CB30010   4.721   3.907   1.878
  578POPC    OA30011   4.692   3.988   1.992
  578POPC     P30012   4.813   3.997   2.092
  578POPC    OB30013   4.934   4.006   2.009
  578POPC    OC30014   4.773   4.105   2.183
  578POPC    OD30015   4.791   3.853   2.153
  578POPC    CC30016   4.694   3.855   2.257
  578POPC    CD30017   4.646   3.717   2.303
  578POPC    OE30018   4.528   3.723   2.386
  578POPC   C1A30019   4.416   3.662   2.348
  578POPC    OF30020   4.405   3.612   2.236
  578POPC   C1B30021   4.314   3.668   2.455
  578POPC   C1C30022   4.224   3.544   2.460
  578POPC   C1D30023   4.149   3.532   2.594
  578POPC   C1E30024   4.070   3.658   2.632
  578POPC   C1F30025   4.004   3.648   2.770
  578POPC   C1G30026   4.105   3.616   2.881
  578POPC   C1H30027   4.042   3.619   3.020
  578POPC   C1I30028   4.130   3.541   3.118
  578POPC   C1J30029   4.157   3.586   3.240
  578POPC   C1K30030   4.104   3.722   3.288
  578POPC   C1L30031   4.069   3.719   3.437
  578POPC   C1M30032   4.190   3.701   3.529
  578POPC   C1N30033   4.146   3.673   3.673
  578POPC   C1O30034   4.080   3.794   3.740
  578POPC   C1P30035   4.019   3.758   3.877
  578POPC   C1Q30036   4.122   3.713   3.981
  578POPC   C1R30037   4.215   3.826   4.024
  578POPC    CE30038   4.767   3.646   2.367
  578POPC    OG30039   4.830   3.718   2.475
  578POPC   C2A30040   4.943   3.668   2.522
  578POPC    OH30041   4.987   3.559   2.485
  578POPC   C2B30042   5.002   3.751   2.630
  578POPC   C2C30043   4.966   3.698   2.769
  578POPC   C2D30044   5.023   3.789   2.877
  578POPC   C2E30045   4.997   3.731   3.017
  578POPC   C2F30046   5.057   3.822   3.124
  578POPC   C2G30047   5.048   3.757   3.262
  578POPC   C2H30048   5.116   3.845   3.367
  578POPC   C2I30049   5.122   3.776   3.504
  578POPC   C2J30050   4.984   3.762   3.569
  578POPC   C2K30051   4.992   3.686   3.701
  578POPC   C2L30052   4.959   3.772   3.824
  578POPC   C2M30053   5.067   3.876   3.855
  578POPC   C2N30054   5.026   3.962   3.975
  578POPC   C2O30055   5.134   4.067   4.005
  578POPC   C2P30056   5.089   4.158   4.119
  579POPC   CN130057   5.434   3.285   1.797
  579POPC   CN230058   5.212   3.253   1.720
  579POPC   CN330059   5.257   3.265   1.954
  579POPC   NTM30060   5.294   3.319   1.822
  579POPC    CA30061   5.280   3.466   1.817
  579POPC    CB30062   5.141   3.535   1.825
  579POPC    OA30063   5.062   3.497   1.937
  579POPC     P30064   4.954   3.606   1.973
  579POPC    OB30065   4.896   3.650   1.845
  579POPC    OC30066   4.870   3.538   2.072
  579POPC    OD30067   5.054   3.708   2.037
  579POPC    CC30068   5.083   3.677   2.174
  579POPC    CD30069   5.204   3.753   2.231
  579POPC    OE30070   5.254   3.705   2.359
  579POPC   C1A30071   5.321   3.590   2.369
  579POPC    OF30072   5.318   3.507   2.278
  579POPC   C1B30073   5.382   3.569   2.503
  579POPC   C1C30074   5.295   3.481   2.593
  579POPC   C1D30075   5.342   3.480   2.738
  579POPC   C1E30076   5.477   3.409   2.757
  579POPC   C1F30077   5.523   3.415   2.903
  579POPC   C1G30078   5.566   3.556   2.945
  579POPC   C1H30079   5.606   3.563   3.093
  579POPC   C1I30080   5.485   3.560   3.187
  579POPC   C1J30081   5.500   3.587   3.316
  579POPC   C1K30082   5.640   3.618   3.372
  579POPC   C1L30083   5.655   3.560   3.513
  579POPC   C1M30084   5.798   3.575   3.564
  579POPC   C1N30085   5.813   3.502   3.698
  579POPC   C1O30086   5.957   3.508   3.748
  579POPC   C1P30087   5.974   3.429   3.878
  579POPC   C1Q30088   6.119   3.430   3.924
  579POPC   C1R30089   6.137   3.349   4.053
  579POPC    CE30090   5.165   3.902   2.232
  579POPC    OG30091   5.064   3.940   2.327
  579POPC   C2A30092   5.050   4.070   2.350
  579POPC    OH30093   5.103   4.154   2.277
  579POPC   C2B30094   4.958   4.097   2.463
  579POPC   C2C30095   5.005   4.212   2.553
  579POPC   C2D30096   4.967   4.350   2.497
  579POPC   C2E30097   4.819   4.385   2.521
  579POPC   C2F30098   4.788   4.426   2.665
  579POPC   C2G30099   4.862   4.555   2.701
  579POPC   C2H30100   4.837   4.601   2.845
  579POPC   C2I30101   4.944   4.705   2.879
  579POPC   C2J30102   4.929   4.767   3.018
  579POPC   C2K30103   5.054   4.847   3.057
  579POPC   C2L30104   5.085   4.961   2.960
  579POPC   C2M30105   5.210   5.037   3.001
  579POPC   C2N30106   5.234   5.155   2.906
  579POPC   C2O30107   5.356   5.239   2.946
  579POPC   C2P30108   5.338   5.309   3.081
  580POPC   CN130109   5.547   4.157   1.754
  580POPC   CN230110   5.402   4.199   1.934
  580POPC   CN330111   5.638   4.195   1.968
  580POPC   NTM30112   5.531   4.236   1.876
  580POPC    CA30113   5.543   4.380   1.842
  580POPC    CB30114   5.530   4.488   1.953
  580POPC    OA30115   5.402   4.491   2.017
  580POPC     P30116   5.412   4.525   2.170
  580POPC    OB30117   5.506   4.637   2.182
  580POPC    OC30118   5.271   4.536   2.211
  580POPC    OD30119   5.472   4.387   2.214
  580POPC    CC30120   5.412   4.336   2.334
  580POPC    CD30121   5.481   4.209   2.386
  580POPC    OE30122   5.404   4.135   2.484
  580POPC   C1A30123   5.437   4.009   2.510
  580POPC    OF30124   5.532   3.956   2.452
  580POPC   C1B30125   5.352   3.944   2.613
  580POPC   C1C30126   5.414   3.946   2.753
  580POPC   C1D30127   5.407   4.084   2.819
  580POPC   C1E30128   5.482   4.091   2.953
  580POPC   C1F30129   5.428   3.993   3.058
  580POPC   C1G30130   5.492   4.016   3.195
  580POPC   C1H30131   5.432   4.138   3.266
  580POPC   C1I30132   5.507   4.169   3.396
  580POPC   C1J30133   5.441   4.197   3.508
  580POPC   C1K30134   5.288   4.197   3.513
  580POPC   C1L30135   5.238   4.285   3.628
  580POPC   C1M30136   5.085   4.281   3.636
  580POPC   C1N30137   5.035   4.373   3.748
  580POPC   C1O30138   4.882   4.369   3.756
  580POPC   C1P30139   4.829   4.466   3.861
  580POPC   C1Q30140   4.676   4.466   3.861
  580POPC   C1R30141   4.621   4.565   3.964
  580POPC    CE30142   5.624   4.252   2.425
  580POPC    OG30143   5.637   4.364   2.514
  580POPC   C2A30144   5.759   4.413   2.531
  580POPC    OH30145   5.851   4.382   2.454
  580POPC   C2B30146   5.767   4.518   2.635
  580POPC   C2C30147   5.767   4.463   2.778
  580POPC   C2D30148   5.891   4.380   2.812
  580POPC   C2E30149   5.887   4.334   2.958
  580POPC   C2F30150   5.898   4.452   3.055
  580POPC   C2G30151   5.880   4.407   3.200
  580POPC   C2H30152   5.888   4.528   3.293
  580POPC   C2I30153   5.864   4.487   3.438
  580POPC   C2J30154   5.872   4.608   3.531
  580POPC   C2K30155   5.846   4.570   3.677
  580POPC   C2L30156   5.700   4.529   3.701
  580POPC   C2M30157   5.678   4.493   3.847
  580POPC   C2N30158   5.531   4.462   3.876
  580POPC   C2O30159   5.511   4.432   4.024
  580POPC   C2P30160   5.363   4.412   4.055
  581POPC   CN130161   5.283   5.078   1.992
  581POPC   CN230162   5.285   4.843   2.004
  581POPC   CN330163   5.440   4.951   1.859
  581POPC   NTM30164   5.371   4.961   1.989
  581POPC    CA30165   5.470   4.962   2.100
  581POPC    CB30166   5.578   5.073   2.101
  581POPC    OA30167   5.534   5.209   2.104
  581POPC     P30168   5.521   5.266   2.251
  581POPC    OB30169   5.626   5.203   2.331
  581POPC    OC30170   5.516   5.412   2.236
  581POPC    OD30171   5.380   5.209   2.288
  581POPC    CC30172   5.341   5.262   2.414
  581POPC    CD30173   5.189   5.255   2.440
  581POPC    OE30174   5.146   5.343   2.547
  581POPC   C1A30175   5.117   5.470   2.520
  581POPC    OF30176   5.117   5.512   2.404
  581POPC   C1B30177   5.073   5.547   2.639
  581POPC   C1C30178   5.191   5.617   2.708
  581POPC   C1D30179   5.142   5.700   2.827
  581POPC   C1E30180   5.255   5.775   2.896
  581POPC   C1F30181   5.352   5.682   2.969
  581POPC   C1G30182   5.470   5.761   3.027
  581POPC   C1H30183   5.566   5.669   3.102
  581POPC   C1I30184   5.688   5.747   3.152
  581POPC   C1J30185   5.740   5.721   3.271
  581POPC   C1K30186   5.676   5.614   3.361
  581POPC   C1L30187   5.772   5.560   3.468
  581POPC   C1M30188   5.805   5.664   3.576
  581POPC   C1N30189   5.899   5.607   3.683
  581POPC   C1O30190   6.038   5.574   3.627
  581POPC   C1P30191   6.128   5.515   3.735
  581POPC   C1Q30192   6.265   5.479   3.677
  581POPC   C1R30193   6.357   5.422   3.785
  581POPC    CE30194   5.148   5.108   2.454
  581POPC    OG30195   5.005   5.089   2.462
  581POPC   C2A30196   4.960   4.964   2.475
  581POPC    OH30197   5.037   4.867   2.473
  581POPC   C2B30198   4.813   4.955   2.479
  581POPC   C2C30199   4.758   4.956   2.622
  581POPC   C2D30200   4.605   4.968   2.619
  581POPC   C2E30201   4.544   4.951   2.758
  581POPC   C2F30202   4.392   4.966   2.753
  581POPC   C2G30203   4.323   4.917   2.880
  581POPC   C2H30204   4.349   5.006   3.001
  581POPC   C2I30205   4.291   4.942   3.127
  581POPC   C2J30206   4.306   5.035   3.248
  581POPC   C2K30207   4.264   4.966   3.378
  581POPC   C2L30208   4.274   5.065   3.494
  581POPC   C2M30209   4.252   4.996   3.628
  581POPC   C2N30210   4.265   5.097   3.743
  581POPC   C2O30211   4.260   5.031   3.881
  581POPC   C2P30212   4.383   4.945   3.908
  582POPC   CN130213   5.449   6.687   2.338
  582POPC   CN230214   5.575   6.804   2.504
  582POPC   CN330215   5.663   6.775   2.287
  582POPC   NTM30216   5.539   6.800   2.362
  582POPC    CA30217   5.480   6.928   2.315
  582POPC    CB30218   5.362   6.996   2.390
  582POPC    OA30219   5.258   6.907   2.428
  582POPC     P30220   5.128   6.981   2.473
  582POPC    OB30221   5.102   7.094   2.383
  582POPC    OC30222   5.030   6.872   2.489
  582POPC    OD30223   5.170   7.037   2.613
  582POPC    CC30224   5.164   6.941   2.718
  582POPC    CD30225   5.255   6.975   2.837
  582POPC    OE30226   5.260   6.875   2.942
  582POPC   C1A30227   5.339   6.769   2.930
  582POPC    OF30228   5.398   6.747   2.823
  582POPC   C1B30229   5.341   6.684   3.051
  582POPC   C1C30230   5.480   6.626   3.076
  582POPC   C1D30231   5.487   6.540   3.203
  582POPC   C1E30232   5.479   6.622   3.332
  582POPC   C1F30233   5.520   6.534   3.451
  582POPC   C1G30234   5.524   6.613   3.581
  582POPC   C1H30235   5.579   6.531   3.699
  582POPC   C1I30236   5.485   6.419   3.745
  582POPC   C1J30237   5.485   6.381   3.872
  582POPC   C1K30238   5.580   6.446   3.973
  582POPC   C1L30239   5.605   6.358   4.096
  582POPC   C1M30240   5.483   6.351   4.189
  582POPC   C1N30241   5.504   6.257   4.308
  582POPC   C1O30242   5.611   6.307   4.406
  582POPC   C1P30243   5.637   6.207   4.519
  582POPC   C1Q30244   5.522   6.194   4.620
  582POPC   C1R30245   5.512   6.317   4.710
  582POPC    CE30246   5.219   7.117   2.884
  582POPC    OG30247   5.093   7.134   2.953
  582POPC   C2A30248   5.069   7.257   2.998
  582POPC    OH30249   5.120   7.354   2.942
  582POPC   C2B30250   4.960   7.265   3.098
  582POPC   C2C30251   5.018   7.277   3.238
  582POPC   C2D30252   4.910   7.302   3.344
  582POPC   C2E30253   4.975   7.332   3.479
  582POPC   C2F30254   4.872   7.370   3.585
  582POPC   C2G30255   4.943   7.413   3.714
  582POPC   C2H30256   4.844   7.463   3.819
  582POPC   C2I30257   4.918   7.522   3.939
  582POPC   C2J30258   4.821   7.593   4.034
  582POPC   C2K30259   4.898   7.670   4.142
  582POPC   C2L30260   4.808   7.763   4.223
  582POPC   C2M30261   4.717   7.691   4.322
  582POPC   C2N30262   4.633   7.793   4.400
  582POPC   C2O30263   4.553   7.731   4.515
  582POPC   C2P30264   4.445   7.632   4.468
  583POPC   CN130265   6.093   7.283   2.451
  583POPC   CN230266   5.948   7.429   2.570
  583POPC   CN330267   5.880   7.334   2.361
  583POPC   NTM30268   5.953   7.308   2.486
  583POPC    CA30269   5.900   7.188   2.555
  583POPC    CB30270   5.762   7.192   2.624
  583POPC    OA30271   5.656   7.245   2.544
  583POPC     P30272   5.521   7.266   2.621
  583POPC    OB30273   5.425   7.297   2.515
  583POPC    OC30274   5.504   7.149   2.709
  583POPC    OD30275   5.558   7.396   2.703
  583POPC    CC30276   5.565   7.511   2.618
  583POPC    CD30277   5.601   7.644   2.686
  583POPC    OE30278   5.731   7.639   2.751
  583POPC   C1A30279   5.814   7.740   2.736
  583POPC    OF30280   5.806   7.813   2.636
  583POPC   C1B30281   5.929   7.736   2.830
  583POPC   C1C30282   5.918   7.842   2.940
  583POPC   C1D30283   5.810   7.818   3.046
  583POPC   C1E30284   5.847   7.703   3.141
  583POPC   C1F30285   5.753   7.696   3.262
  583POPC   C1G30286   5.611   7.654   3.225
  583POPC   C1H30287   5.521   7.655   3.349
  583POPC   C1I30288   5.381   7.601   3.317
  583POPC   C1J30289   5.299   7.567   3.416
  583POPC   C1K30290   5.342   7.586   3.561
  583POPC   C1L30291   5.254   7.689   3.632
  583POPC   C1M30292   5.310   7.721   3.771
  583POPC   C1N30293   5.226   7.826   3.843
  583POPC   C1O30294   5.290   7.872   3.974
  583POPC   C1P30295   5.419   7.952   3.949
  583POPC   C1Q30296   5.488   7.996   4.079
  583POPC   C1R30297   5.546   7.878   4.157
  583POPC    CE30298   5.482   7.674   2.779
  583POPC    OG30299   5.476   7.805   2.840
  583POPC   C2A30300   5.373   7.823   2.924
  583POPC    OH30301   5.283   7.739   2.932
  583POPC   C2B30302   5.378   7.951   2.999
  583POPC   C2C30303   5.312   7.935   3.136
  583POPC   C2D30304   5.310   8.062   3.220
  583POPC   C2E30305   5.235   8.033   3.350
  583POPC   C2F30306   5.216   8.155   3.442
  583POPC   C2G30307   5.346   8.199   3.509
  583POPC   C2H30308   5.323   8.313   3.609
  583POPC   C2I30309   5.244   8.268   3.733
  583POPC   C2J30310   5.227   8.382   3.832
  583POPC   C2K30311   5.160   8.332   3.960
  583POPC   C2L30312   5.147   8.439   4.068
  583POPC   C2M30313   5.039   8.544   4.038
  583POPC   C2N30314   5.030   8.644   4.153
  583POPC   C2O30315   4.914   8.743   4.139
  583POPC   C2P30316   4.932   8.839   4.021
  584POPC   CN130317   5.030   7.515   2.701
  584POPC   CN230318   4.950   7.299   2.645
  584POPC   CN330319   4.904   7.482   2.501
  584POPC   NTM30320   5.006   7.423   2.589
  584POPC    CA30321   5.132   7.393   2.518
  584POPC    CB30322   5.200   7.502   2.431
  584POPC    OA30323   5.209   7.630   2.494
  584POPC     P30324   5.260   7.742   2.397
  584POPC    OB30325   5.404   7.754   2.423
  584POPC    OC30326   5.208   7.718   2.262
  584POPC    OD30327   5.179   7.863   2.456
  584POPC    CC30328   5.238   7.918   2.574
  584POPC    CD30329   5.163   8.041   2.628
  584POPC    OE30330   5.242   8.123   2.719
  584POPC   C1A30331   5.244   8.255   2.703
  584POPC    OF30332   5.211   8.306   2.595
  584POPC   C1B30333   5.303   8.328   2.817
  584POPC   C1C30334   5.193   8.367   2.917
  584POPC   C1D30335   5.251   8.442   3.036
  584POPC   C1E30336   5.143   8.475   3.139
  584POPC   C1F30337   5.203   8.552   3.257
  584POPC   C1G30338   5.099   8.579   3.366
  584POPC   C1H30339   5.163   8.657   3.480
  584POPC   C1I30340   5.069   8.670   3.600
  584POPC   C1J30341   5.078   8.772   3.685
  584POPC   C1K30342   5.181   8.885   3.669
  584POPC   C1L30343   5.287   8.887   3.780
  584POPC   C1M30344   5.403   8.792   3.751
  584POPC   C1N30345   5.504   8.785   3.866
  584POPC   C1O30346   5.445   8.710   3.986
  584POPC   C1P30347   5.549   8.693   4.097
  584POPC   C1Q30348   5.491   8.612   4.213
  584POPC   C1R30349   5.595   8.589   4.322
  584POPC    CE30350   5.028   7.991   2.684
  584POPC    OG30351   5.036   7.894   2.790
  584POPC   C2A30352   4.923   7.840   2.835
  584POPC    OH30353   4.819   7.850   2.769
  584POPC   C2B30354   4.944   7.747   2.949
  584POPC   C2C30355   4.923   7.807   3.088
  584POPC   C2D30356   4.966   7.704   3.193
  584POPC   C2E30357   4.945   7.751   3.337
  584POPC   C2F30358   4.797   7.749   3.378
  584POPC   C2G30359   4.784   7.780   3.528
  584POPC   C2H30360   4.640   7.769   3.575
  584POPC   C2I30361   4.632   7.797   3.726
  584POPC   C2J30362   4.489   7.783   3.778
  584POPC   C2K30363   4.483   7.822   3.926
  584POPC   C2L30364   4.340   7.813   3.979
  584POPC   C2M30365   4.333   7.861   4.124
  584POPC   C2N30366   4.190   7.850   4.178
  584POPC   C2O30367   4.183   7.901   4.322
  584POPC   C2P30368   4.041   7.886   4.377
  585POPC   CN130369   6.016   9.405   2.234
  585POPC   CN230370   6.074   9.630   2.188
  585POPC   CN330371   6.078   9.472   2.012
  585POPC   NTM30372   6.006   9.512   2.133
  585POPC    CA30373   5.866   9.549   2.102
  585POPC    CB30374   5.765   9.447   2.044
  585POPC    OA30375   5.731   9.338   2.129
  585POPC     P30376   5.618   9.248   2.067
  585POPC    OB30377   5.513   9.334   2.011
  585POPC    OC30378   5.685   9.145   1.986
  585POPC    OD30379   5.569   9.181   2.199
  585POPC    CC30380   5.503   9.275   2.284
  585POPC    CD30381   5.525   9.247   2.434
  585POPC    OE30382   5.466   9.348   2.519
  585POPC   C1A30383   5.337   9.342   2.552
  585POPC    OF30384   5.257   9.282   2.480
  585POPC   C1B30385   5.300   9.435   2.660
  585POPC   C1C30386   5.321   9.369   2.797
  585POPC   C1D30387   5.278   9.465   2.908
  585POPC   C1E30388   5.327   9.422   3.046
  585POPC   C1F30389   5.480   9.430   3.060
  585POPC   C1G30390   5.532   9.574   3.046
  585POPC   C1H30391   5.684   9.577   3.057
  585POPC   C1I30392   5.738   9.718   3.035
  585POPC   C1J30393   5.838   9.763   3.110
  585POPC   C1K30394   5.898   9.672   3.218
  585POPC   C1L30395   5.936   9.752   3.342
  585POPC   C1M30396   5.991   9.664   3.455
  585POPC   C1N30397   5.887   9.563   3.505
  585POPC   C1O30398   5.936   9.486   3.628
  585POPC   C1P30399   5.942   9.575   3.752
  585POPC   C1Q30400   5.985   9.496   3.876
  585POPC   C1R30401   5.988   9.586   3.999
  585POPC    CE30402   5.678   9.239   2.450
  585POPC    OG30403   5.728   9.171   2.566
  585POPC   C2A30404   5.859   9.180   2.587
  585POPC    OH30405   5.934   9.235   2.506
  585POPC   C2B30406   5.902   9.118   2.714
  585POPC   C2C30407   5.887   9.217   2.829
  585POPC   C2D30408   5.939   9.161   2.962
  585POPC   C2E30409   5.920   9.264   3.073
  585POPC   C2F30410   5.975   9.220   3.208
  585POPC   C2G30411   5.900   9.099   3.266
  585POPC   C2H30412   5.951   9.066   3.406
  585POPC   C2I30413   5.878   8.945   3.463
  585POPC   C2J30414   5.926   8.908   3.604
  585POPC   C2K30415   5.890   9.015   3.707
  585POPC   C2L30416   5.932   8.970   3.847
  585POPC   C2M30417   5.898   9.076   3.951
  585POPC   C2N30418   5.937   9.029   4.092
  585POPC   C2O30419   5.906   9.134   4.199
  585POPC   C2P30420   5.755   9.155   4.217
  586POPC   CN130421   5.657  11.032   1.742
  586POPC   CN230422   5.580  11.225   1.628
  586POPC   CN330423   5.426  11.052   1.686
  586POPC   NTM30424   5.545  11.126   1.731
  586POPC    CA30425   5.516  11.199   1.857
  586POPC    CB30426   5.492  11.120   1.987
  586POPC    OA30427   5.611  11.066   2.047
  586POPC     P30428   5.580  10.945   2.143
  586POPC    OB30429   5.500  10.850   2.065
  586POPC    OC30430   5.710  10.908   2.200
  586POPC    OD30431   5.492  11.019   2.250
  586POPC    CC30432   5.572  11.089   2.345
  586POPC    CD30433   5.494  11.186   2.435
  586POPC    OE30434   5.583  11.275   2.509
  586POPC   C1A30435   5.529  11.376   2.577
  586POPC    OF30436   5.417  11.419   2.547
  586POPC   C1B30437   5.624  11.441   2.670
  586POPC   C1C30438   5.631  11.364   2.802
  586POPC   C1D30439   5.728  11.427   2.902
  586POPC   C1E30440   5.738  11.346   3.031
  586POPC   C1F30441   5.607  11.342   3.110
  586POPC   C1G30442   5.625  11.262   3.240
  586POPC   C1H30443   5.497  11.249   3.322
  586POPC   C1I30444   5.446  11.382   3.379
  586POPC   C1J30445   5.320  11.394   3.417
  586POPC   C1K30446   5.226  11.274   3.404
  586POPC   C1L30447   5.080  11.316   3.416
  586POPC   C1M30448   4.988  11.193   3.411
  586POPC   C1N30449   4.842  11.225   3.445
  586POPC   C1O30450   4.828  11.276   3.589
  586POPC   C1P30451   4.682  11.290   3.634
  586POPC   C1Q30452   4.616  11.153   3.654
  586POPC   C1R30453   4.474  11.167   3.709
  586POPC    CE30454   5.398  11.097   2.518
  586POPC    OG30455   5.462  11.009   2.612
  586POPC   C2A30456   5.387  10.911   2.662
  586POPC    OH30457   5.269  10.896   2.629
  586POPC   C2B30458   5.456  10.822   2.757
  586POPC   C2C30459   5.429  10.863   2.902
  586POPC   C2D30460   5.449  10.744   2.997
  586POPC   C2E30461   5.333  10.644   2.985
  586POPC   C2F30462   5.356  10.513   3.061
  586POPC   C2G30463   5.372  10.532   3.212
  586POPC   C2H30464   5.391  10.395   3.279
  586POPC   C2I30465   5.428  10.405   3.427
  586POPC   C2J30466   5.314  10.459   3.514
  586POPC   C2K30467   5.354  10.458   3.661
  586POPC   C2L30468   5.238  10.505   3.750
  586POPC   C2M30469   5.279  10.500   3.897
  586POPC   C2N30470   5.165  10.544   3.990
  586POPC   C2O30471   5.046  10.447   3.993
  586POPC   C2P30472   5.081  10.312   4.058
  587POPC   CN130473   6.474  11.769   1.873
  587POPC   CN230474   6.247  11.840   1.839
  587POPC   CN330475   6.327  11.639   1.739
  587POPC   NTM30476   6.335  11.723   1.858
  587POPC    CA30477   6.292  11.640   1.973
  587POPC    CB30478   6.296  11.696   2.118
  587POPC    OA30479   6.213  11.808   2.144
  587POPC     P30480   6.236  11.860   2.291
  587POPC    OB30481   6.380  11.856   2.320
  587POPC    OC30482   6.155  11.982   2.303
  587POPC    OD30483   6.162  11.743   2.364
  587POPC    CC30484   6.136  11.776   2.499
  587POPC    CD30485   6.006  11.715   2.551
  587POPC    OE30486   5.953  11.784   2.667
  587POPC   C1A30487   5.829  11.832   2.664
  587POPC    OF30488   5.758  11.819   2.564
  587POPC   C1B30489   5.789  11.901   2.789
  587POPC   C1C30490   5.700  11.811   2.874
  587POPC   C1D30491   5.667  11.878   3.008
  587POPC   C1E30492   5.566  11.793   3.086
  587POPC   C1F30493   5.535  11.856   3.221
  587POPC   C1G30494   5.422  11.778   3.290
  587POPC   C1H30495   5.391  11.828   3.431
  587POPC   C1I30496   5.502  11.793   3.531
  587POPC   C1J30497   5.468  11.745   3.651
  587POPC   C1K30498   5.321  11.725   3.685
  587POPC   C1L30499   5.300  11.603   3.775
  587POPC   C1M30500   5.151  11.585   3.806
  587POPC   C1N30501   5.125  11.463   3.894
  587POPC   C1O30502   4.976  11.451   3.924
  587POPC   C1P30503   4.945  11.329   4.011
  587POPC   C1Q30504   4.795  11.320   4.040
  587POPC   C1R30505   4.762  11.196   4.123
  587POPC    CE30506   6.027  11.563   2.564
  587POPC    OG30507   6.123  11.522   2.663
  587POPC   C2A30508   6.111  11.397   2.709
  587POPC    OH30509   6.019  11.323   2.672
  587POPC   C2B30510   6.206  11.363   2.817
  587POPC   C2C30511   6.148  11.403   2.953
  587POPC   C2D30512   6.177  11.300   3.063
  587POPC   C2E30513   6.103  11.169   3.037
  587POPC   C2F30514   6.123  11.068   3.149
  587POPC   C2G30515   6.055  10.935   3.114
  587POPC   C2H30516   6.073  10.829   3.222
  587POPC   C2I30517   5.992  10.856   3.350
  587POPC   C2J30518   5.841  10.843   3.329
  587POPC   C2K30519   5.766  10.866   3.460
  587POPC   C2L30520   5.615  10.857   3.442
  587POPC   C2M30521   5.545  10.878   3.576
  587POPC   C2N30522   5.393  10.885   3.561
  587POPC   C2O30523   5.329  10.915   3.697
  587POPC   C2P30524   5.177  10.927   3.685
  588POPC   CN130525   5.334  12.034   2.334
  588POPC   CN230526   5.227  11.859   2.218
  588POPC   CN330527   5.138  12.078   2.205
  588POPC   NTM30528   5.263  12.001   2.210
  588POPC    CA30529   5.345  12.021   2.088
  588POPC    CB30530   5.434  12.147   2.070
  588POPC    OA30531   5.375  12.275   2.096
  588POPC     P30532   5.480  12.393   2.084
  588POPC    OB30533   5.571  12.361   1.973
  588POPC    OC30534   5.403  12.518   2.091
  588POPC    OD30535   5.563  12.368   2.214
  588POPC    CC30536   5.493  12.412   2.329
  588POPC    CD30537   5.561  12.372   2.461
  588POPC    OE30538   5.463  12.353   2.567
  588POPC   C1A30539   5.455  12.233   2.623
  588POPC    OF30540   5.506  12.134   2.569
  588POPC   C1B30541   5.364  12.232   2.739
  588POPC   C1C30542   5.411  12.134   2.847
  588POPC   C1D30543   5.330  12.144   2.976
  588POPC   C1E30544   5.356  12.276   3.049
  588POPC   C1F30545   5.289  12.275   3.186
  588POPC   C1G30546   5.333  12.397   3.267
  588POPC   C1H30547   5.281  12.386   3.410
  588POPC   C1I30548   5.343  12.493   3.500
  588POPC   C1J30549   5.373  12.462   3.625
  588POPC   C1K30550   5.345  12.321   3.676
  588POPC   C1L30551   5.447  12.277   3.782
  588POPC   C1M30552   5.415  12.140   3.840
  588POPC   C1N30553   5.286  12.141   3.922
  588POPC   C1O30554   5.254  12.005   3.985
  588POPC   C1P30555   5.356  11.965   4.092
  588POPC   C1Q30556   5.323  11.830   4.157
  588POPC   C1R30557   5.197  11.837   4.243
  588POPC    CE30558   5.673  12.475   2.485
  588POPC    OG30559   5.756  12.452   2.600
  588POPC   C2A30560   5.722  12.512   2.714
  588POPC    OH30561   5.624  12.587   2.723
  588POPC   C2B30562   5.810  12.476   2.827
  588POPC   C2C30563   5.740  12.375   2.917
  588POPC   C2D30564   5.822  12.348   3.043
  588POPC   C2E30565   5.737  12.270   3.144
  588POPC   C2F30566   5.809  12.257   3.278
  588POPC   C2G30567   5.713  12.204   3.385
  588POPC   C2H30568   5.777  12.197   3.524
  588POPC   C2I30569   5.825  12.334   3.573
  588POPC   C2J30570   5.877  12.325   3.716
  588POPC   C2K30571   5.941  12.457   3.759
  588POPC   C2L30572   5.975  12.459   3.908
  588POPC   C2M30573   5.848  12.462   3.993
  588POPC   C2N30574   5.880  12.461   4.143
  588POPC   C2O30575   5.754  12.475   4.229
  588POPC   C2P30576   5.659  12.356   4.215
  589POPC   CN130577   5.361  13.060   2.374
  589POPC   CN230578   5.242  13.047   2.165
  589POPC   CN330579   5.398  12.880   2.225
  589POPC   NTM30580   5.295  12.970   2.278
  589POPC    CA30581   5.191  12.888   2.345
  589POPC    CB30582   5.057  12.952   2.388
  589POPC    OA30583   5.070  13.079   2.451
  589POPC     P30584   4.932  13.145   2.487
  589POPC    OB30585   4.955  13.285   2.522
  589POPC    OC30586   4.840  13.113   2.377
  589POPC    OD30587   4.899  13.061   2.616
  589POPC    CC30588   4.971  13.112   2.728
  589POPC    CD30589   4.966  13.029   2.858
  589POPC    OE30590   5.006  13.106   2.974
  589POPC   C1A30591   4.913  13.177   3.038
  589POPC    OF30592   4.794  13.166   3.007
  589POPC   C1B30593   4.969  13.263   3.145
  589POPC   C1C30594   4.883  13.265   3.272
  589POPC   C1D30595   4.948  13.349   3.382
  589POPC   C1E30596   4.877  13.324   3.514
  589POPC   C1F30597   4.935  13.404   3.631
  589POPC   C1G30598   4.868  13.357   3.760
  589POPC   C1H30599   4.908  13.438   3.883
  589POPC   C1I30600   4.837  13.378   4.005
  589POPC   C1J30601   4.867  13.411   4.130
  589POPC   C1K30602   4.971  13.517   4.166
  589POPC   C1L30603   4.942  13.568   4.307
  589POPC   C1M30604   5.047  13.665   4.359
  589POPC   C1N30605   5.015  13.699   4.505
  589POPC   C1O30606   5.120  13.789   4.570
  589POPC   C1P30607   5.083  13.811   4.716
  589POPC   C1Q30608   5.186  13.898   4.788
  589POPC   C1R30609   5.149  13.913   4.936
  589POPC    CE30610   5.050  12.902   2.837
  589POPC    OG30611   4.991  12.798   2.757
  589POPC   C2A30612   5.057  12.683   2.753
  589POPC    OH30613   5.169  12.671   2.803
  589POPC   C2B30614   4.984  12.578   2.678
  589POPC   C2C30615   5.006  12.436   2.733
  589POPC   C2D30616   4.941  12.416   2.870
  589POPC   C2E30617   4.949  12.271   2.916
  589POPC   C2F30618   4.879  12.255   3.051
  589POPC   C2G30619   4.893  12.113   3.106
  589POPC   C2H30620   4.826  12.097   3.242
  589POPC   C2I30621   4.895  12.180   3.351
  589POPC   C2J30622   4.826  12.164   3.487
  589POPC   C2K30623   4.896  12.246   3.595
  589POPC   C2L30624   4.877  12.397   3.577
  589POPC   C2M30625   4.970  12.479   3.667
  589POPC   C2N30626   4.943  12.464   3.818
  589POPC   C2O30627   4.815  12.537   3.860
  589POPC   C2P30628   4.790  12.518   4.010
  590POPC   CN130629   6.115  14.959   2.144
  590POPC   CN230630   6.042  15.035   2.359
  590POPC   CN330631   5.896  15.041   2.172
  590POPC   NTM30632   6.002  14.964   2.237
  590POPC    CA30633   5.950  14.828   2.264
  590POPC    CB30634   6.034  14.725   2.344
  590POPC    OA30635   6.163  14.691   2.292
  590POPC     P30636   6.259  14.645   2.409
  590POPC    OB30637   6.393  14.618   2.359
  590POPC    OC30638   6.235  14.733   2.524
  590POPC    OD30639   6.195  14.506   2.435
  590POPC    CC30640   6.242  14.453   2.558
  590POPC    CD30641   6.210  14.304   2.568
  590POPC    OE30642   6.198  14.257   2.705
  590POPC   C1A30643   6.114  14.158   2.731
  590POPC    OF30644   6.049  14.105   2.641
  590POPC   C1B30645   6.103  14.129   2.876
  590POPC   C1C30646   6.092  13.979   2.906
  590POPC   C1D30647   6.077  13.954   3.056
  590POPC   C1E30648   6.201  13.999   3.134
  590POPC   C1F30649   6.179  13.981   3.285
  590POPC   C1G30650   6.303  14.025   3.363
  590POPC   C1H30651   6.284  14.000   3.512
  590POPC   C1I30652   6.405  14.047   3.591
  590POPC   C1J30653   6.441  13.982   3.702
  590POPC   C1K30654   6.360  13.861   3.747
  590POPC   C1L30655   6.358  13.844   3.899
  590POPC   C1M30656   6.284  13.957   3.971
  590POPC   C1N30657   6.278  13.928   4.121
  590POPC   C1O30658   6.206  14.040   4.196
  590POPC   C1P30659   6.193  14.003   4.344
  590POPC   C1Q30660   6.114  14.109   4.420
  590POPC   C1R30661   6.092  14.064   4.564
  590POPC    CE30662   6.313  14.233   2.477
  590POPC    OG30663   6.445  14.213   2.533
  590POPC   C2A30664   6.457  14.105   2.610
  590POPC    OH30665   6.390  14.005   2.587
  590POPC   C2B30666   6.576  14.106   2.698
  590POPC   C2C30667   6.536  14.070   2.842
  590POPC   C2D30668   6.657  14.072   2.935
  590POPC   C2E30669   6.611  14.079   3.081
  590POPC   C2F30670   6.730  14.092   3.176
  590POPC   C2G30671   6.681  14.135   3.315
  590POPC   C2H30672   6.794  14.139   3.418
  590POPC   C2I30673   6.740  14.194   3.550
  590POPC   C2J30674   6.840  14.185   3.665
  590POPC   C2K30675   6.868  14.040   3.707
  590POPC   C2L30676   6.967  14.034   3.825
  590POPC   C2M30677   6.908  14.081   3.958
  590POPC   C2N30678   6.807  13.981   4.016
  590POPC   C2O30679   6.757  14.029   4.152
  590POPC   C2P30680   6.661  13.928   4.215
  591POPC   CN130681   5.777  14.317   2.060
  591POPC   CN230682   5.775  14.127   2.203
  591POPC   CN330683   5.873  14.330   2.277
  591POPC   NTM30684   5.762  14.273   2.199
  591POPC    CA30685   5.628  14.309   2.253
  591POPC    CB30686   5.580  14.456   2.263
  591POPC    OA30687   5.653  14.542   2.352
  591POPC     P30688   5.599  14.690   2.353
  591POPC    OB30689   5.700  14.763   2.431
  591POPC    OC30690   5.571  14.728   2.213
  591POPC    OD30691   5.465  14.664   2.431
  591POPC    CC30692   5.463  14.732   2.557
  591POPC    CD30693   5.357  14.677   2.653
  591POPC    OE30694   5.311  14.774   2.750
  591POPC   C1A30695   5.192  14.758   2.807
  591POPC    OF30696   5.117  14.667   2.771
  591POPC   C1B30697   5.160  14.860   2.909
  591POPC   C1C30698   5.181  14.810   3.052
  591POPC   C1D30699   5.329  14.797   3.090
  591POPC   C1E30700   5.339  14.756   3.236
  591POPC   C1F30701   5.483  14.759   3.287
  591POPC   C1G30702   5.483  14.725   3.436
  591POPC   C1H30703   5.621  14.734   3.501
  591POPC   C1I30704   5.669  14.878   3.518
  591POPC   C1J30705   5.710  14.921   3.637
  591POPC   C1K30706   5.709  14.830   3.759
  591POPC   C1L30707   5.684  14.913   3.885
  591POPC   C1M30708   5.689  14.829   4.012
  591POPC   C1N30709   5.656  14.917   4.132
  591POPC   C1O30710   5.663  14.839   4.263
  591POPC   C1P30711   5.623  14.929   4.380
  591POPC   C1Q30712   5.636  14.859   4.516
  591POPC   C1R30713   5.782  14.832   4.552
  591POPC    CE30714   5.415  14.545   2.708
  591POPC    OG30715   5.536  14.558   2.785
  591POPC   C2A30716   5.599  14.446   2.821
  591POPC    OH30717   5.554  14.336   2.789
  591POPC   C2B30718   5.721  14.466   2.902
  591POPC   C2C30719   5.692  14.458   3.051
  591POPC   C2D30720   5.817  14.418   3.129
  591POPC   C2E30721   5.792  14.417   3.279
  591POPC   C2F30722   5.903  14.341   3.352
  591POPC   C2G30723   5.884  14.345   3.504
  591POPC   C2H30724   5.980  14.247   3.571
  591POPC   C2I30725   5.980  14.255   3.724
  591POPC   C2J30726   6.048  14.382   3.774
  591POPC   C2K30727   6.065  14.385   3.926
  591POPC   C2L30728   5.932  14.401   4.001
  591POPC   C2M30729   5.956  14.408   4.151
  591POPC   C2N30730   5.825  14.425   4.228
  591POPC   C2O30731   5.849  14.429   4.378
  591POPC   C2P30732   5.717  14.444   4.455
  592POPC   CN130733   5.300  15.932   1.749
  592POPC   CN230734   5.359  15.718   1.672
  592POPC   CN330735   5.499  15.902   1.619
  592POPC   NTM30736   5.415  15.843   1.724
  592POPC    CA30737   5.493  15.812   1.846
  592POPC    CB30738   5.564  15.926   1.924
  592POPC    OA30739   5.478  16.021   1.988
  592POPC     P30740   5.560  16.136   2.058
  592POPC    OB30741   5.657  16.186   1.958
  592POPC    OC30742   5.452  16.222   2.107
  592POPC    OD30743   5.632  16.056   2.172
  592POPC    CC30744   5.546  16.025   2.282
  592POPC    CD30745   5.598  15.915   2.376
  592POPC    OE30746   5.497  15.874   2.473
  592POPC   C1A30747   5.504  15.750   2.521
  592POPC    OF30748   5.544  15.659   2.448
  592POPC   C1B30749   5.420  15.730   2.641
  592POPC   C1C30750   5.500  15.735   2.771
  592POPC   C1D30751   5.406  15.730   2.892
  592POPC   C1E30752   5.483  15.715   3.023
  592POPC   C1F30753   5.390  15.726   3.144
  592POPC   C1G30754   5.461  15.684   3.272
  592POPC   C1H30755   5.370  15.700   3.395
  592POPC   C1I30756   5.434  15.635   3.517
  592POPC   C1J30757   5.419  15.685   3.640
  592POPC   C1K30758   5.339  15.814   3.663
  592POPC   C1L30759   5.297  15.831   3.809
  592POPC   C1M30760   5.180  15.741   3.850
  592POPC   C1N30761   5.138  15.772   3.994
  592POPC   C1O30762   5.009  15.698   4.031
  592POPC   C1P30763   4.961  15.736   4.171
  592POPC   C1Q30764   4.831  15.663   4.204
  592POPC   C1R30765   4.783  15.697   4.346
  592POPC    CE30766   5.730  15.971   2.434
  592POPC    OG30767   5.786  15.897   2.544
  592POPC   C2A30768   5.898  15.943   2.598
  592POPC    OH30769   5.970  16.023   2.538
  592POPC   C2B30770   5.930  15.875   2.725
  592POPC   C2C30771   5.863  15.948   2.842
  592POPC   C2D30772   5.887  15.875   2.974
  592POPC   C2E30773   5.822  15.948   3.091
  592POPC   C2F30774   5.844  15.870   3.220
  592POPC   C2G30775   5.783  15.942   3.341
  592POPC   C2H30776   5.810  15.862   3.469
  592POPC   C2I30777   5.751  15.931   3.592
  592POPC   C2J30778   5.781  15.849   3.717
  592POPC   C2K30779   5.721  15.913   3.842
  592POPC   C2L30780   5.749  15.831   3.968
  592POPC   C2M30781   5.677  15.696   3.967
  592POPC   C2N30782   5.711  15.611   4.090
  592POPC   C2O30783   5.658  15.672   4.220
  592POPC   C2P30784   5.697  15.586   4.340
  593POPC   CN130785   5.620  16.791   2.436
  593POPC   CN230786   5.440  16.913   2.529
  593POPC   CN330787   5.403  16.774   2.341
  593POPC   NTM30788   5.477  16.785   2.467
  593POPC    CA30789   5.443  16.676   2.561
  593POPC    CB30790   5.469  16.527   2.525
  593POPC    OA30791   5.603  16.496   2.488
  593POPC     P30792   5.646  16.351   2.529
  593POPC    OB30793   5.528  16.263   2.534
  593POPC    OC30794   5.763  16.321   2.445
  593POPC    OD30795   5.688  16.392   2.675
  593POPC    CC30796   5.829  16.404   2.700
  593POPC    CD30797   5.898  16.539   2.669
  593POPC    OE30798   6.043  16.525   2.669
  593POPC   C1A30799   6.123  16.623   2.626
  593POPC    OF30800   6.079  16.723   2.569
  593POPC   C1B30801   6.267  16.588   2.636
  593POPC   C1C30802   6.325  16.623   2.772
  593POPC   C1D30803   6.472  16.582   2.782
  593POPC   C1E30804   6.525  16.614   2.922
  593POPC   C1F30805   6.671  16.573   2.938
  593POPC   C1G30806   6.717  16.600   3.081
  593POPC   C1H30807   6.859  16.551   3.105
  593POPC   C1I30808   6.900  16.571   3.251
  593POPC   C1J30809   6.978  16.483   3.311
  593POPC   C1K30810   7.032  16.360   3.236
  593POPC   C1L30811   7.021  16.232   3.319
  593POPC   C1M30812   7.107  16.234   3.445
  593POPC   C1N30813   7.074  16.115   3.536
  593POPC   C1O30814   7.146  16.128   3.670
  593POPC   C1P30815   7.102  16.020   3.767
  593POPC   C1Q30816   7.169  16.039   3.903
  593POPC   C1R30817   7.120  15.936   4.005
  593POPC    CE30818   5.835  16.646   2.760
  593POPC    OG30819   5.833  16.623   2.902
  593POPC   C2A30820   5.792  16.724   2.979
  593POPC    OH30821   5.753  16.830   2.930
  593POPC   C2B30822   5.793  16.689   3.123
  593POPC   C2C30823   5.830  16.807   3.214
  593POPC   C2D30824   5.844  16.761   3.359
  593POPC   C2E30825   5.889  16.876   3.450
  593POPC   C2F30826   5.887  16.836   3.597
  593POPC   C2G30827   5.921  16.954   3.689
  593POPC   C2H30828   6.069   0.008   3.683
  593POPC   C2I30829   6.097   0.139   3.756
  593POPC   C2J30830   6.247   0.163   3.768
  593POPC   C2K30831   6.279   0.303   3.821
  593POPC   C2L30832   6.430   0.320   3.838
  593POPC   C2M30833   6.473   0.466   3.852
  593POPC   C2N30834   6.423   0.534   3.980
  593POPC   C2O30835   6.471   0.679   3.985
  593POPC   C2P30836   6.423   0.749   4.112
  594POPC   CN130837   6.275   0.342   2.419
  594POPC   CN230838   6.349   0.164   2.281
  594POPC   CN330839   6.143   0.145   2.394
  594POPC   NTM30840   6.231   0.239   2.324
  594POPC    CA30841   6.165   0.296   2.204
  594POPC    CB30842   6.049   0.397   2.219
  594POPC    OA30843   5.944   0.360   2.309
  594POPC     P30844   5.840   0.477   2.327
  594POPC    OB30845   5.811   0.530   2.192
  594POPC    OC30846   5.736   0.418   2.412
  594POPC    OD30847   5.928   0.578   2.408
  594POPC    CC30848   5.918   0.556   2.548
  594POPC    CD30849   6.034   0.605   2.638
  594POPC    OE30850   6.008   0.581   2.779
  594POPC   C1A30851   5.997   0.459   2.832
  594POPC    OF30852   6.005   0.358   2.761
  594POPC   C1B30853   5.974   0.462   2.978
  594POPC   C1C30854   5.829   0.496   3.013
  594POPC   C1D30855   5.732   0.378   3.001
  594POPC   C1E30856   5.751   0.273   3.112
  594POPC   C1F30857   5.724   0.332   3.251
  594POPC   C1G30858   5.754   0.231   3.361
  594POPC   C1H30859   5.760   0.294   3.500
  594POPC   C1I30860   5.623   0.339   3.553
  594POPC   C1J30861   5.613   0.382   3.679
  594POPC   C1K30862   5.739   0.385   3.767
  594POPC   C1L30863   5.743   0.512   3.853
  594POPC   C1M30864   5.876   0.587   3.837
  594POPC   C1N30865   5.894   0.648   3.697
  594POPC   C1O30866   5.801   0.767   3.674
  594POPC   C1P30867   5.800   0.813   3.528
  594POPC   C1Q30868   5.727   0.713   3.437
  594POPC   C1R30869   5.728   0.760   3.292
  594POPC    CE30870   6.053   0.753   2.601
  594POPC    OG30871   6.154   0.832   2.667
  594POPC   C2A30872   6.162   0.958   2.627
  594POPC    OH30873   6.097   1.001   2.531
  594POPC   C2B30874   6.258   1.040   2.703
  594POPC   C2C30875   6.193   1.106   2.825
  594POPC   C2D30876   6.290   1.202   2.891
  594POPC   C2E30877   6.242   1.246   3.029
  594POPC   C2F30878   6.348   1.334   3.095
  594POPC   C2G30879   6.321   1.352   3.245
  594POPC   C2H30880   6.431   1.437   3.307
  594POPC   C2I30881   6.425   1.443   3.460
  594POPC   C2J30882   6.461   1.308   3.522
  594POPC   C2K30883   6.479   1.320   3.674
  594POPC   C2L30884   6.518   1.185   3.735
  594POPC   C2M30885   6.545   1.196   3.885
  594POPC   C2N30886   6.674   1.274   3.915
  594POPC   C2O30887   6.699   1.291   4.066
  594POPC   C2P30888   6.726   1.158   4.137
  595POPC   CN130889   5.836   1.101   2.144
  595POPC   CN230890   6.050   1.093   2.244
  595POPC   CN330891   5.883   0.935   2.307
  595POPC   NTM30892   5.940   1.010   2.195
  595POPC    CA30893   5.983   0.919   2.085
  595POPC    CB30894   6.086   0.806   2.114
  595POPC    OA30895   6.216   0.846   2.157
  595POPC     P30896   6.287   0.722   2.222
  595POPC    OB30897   6.216   0.688   2.345
  595POPC    OC30898   6.299   0.623   2.114
  595POPC    OD30899   6.426   0.790   2.248
  595POPC    CC30900   6.427   0.857   2.375
  595POPC    CD30901   6.554   0.938   2.401
  595POPC    OE30902   6.588   0.943   2.542
  595POPC   C1A30903   6.713   0.973   2.578
  595POPC    OF30904   6.798   0.995   2.492
  595POPC   C1B30905   6.741   0.969   2.724
  595POPC   C1C30906   6.633   1.035   2.811
  595POPC   C1D30907   6.661   1.016   2.960
  595POPC   C1E30908   6.786   1.093   3.006
  595POPC   C1F30909   6.823   1.062   3.150
  595POPC   C1G30910   6.724   1.115   3.254
  595POPC   C1H30911   6.765   1.074   3.396
  595POPC   C1I30912   6.746   0.924   3.421
  595POPC   C1J30913   6.833   0.854   3.494
  595POPC   C1K30914   6.956   0.920   3.558
  595POPC   C1L30915   6.939   0.933   3.709
  595POPC   C1M30916   7.064   0.994   3.774
  595POPC   C1N30917   7.041   1.009   3.925
  595POPC   C1O30918   7.162   1.069   3.999
  595POPC   C1P30919   7.195   1.211   3.953
  595POPC   C1Q30920   7.299   1.279   4.043
  595POPC   C1R30921   7.436   1.210   4.040
  595POPC    CE30922   6.536   1.072   2.327
  595POPC    OG30923   6.422   1.151   2.366
  595POPC   C2A30924   6.408   1.269   2.306
  595POPC    OH30925   6.478   1.301   2.210
  595POPC   C2B30926   6.294   1.349   2.358
  595POPC   C2C30927   6.340   1.463   2.448
  595POPC   C2D30928   6.222   1.554   2.484
  595POPC   C2E30929   6.263   1.676   2.566
  595POPC   C2F30930   6.311   1.640   2.707
  595POPC   C2G30931   6.341   1.765   2.789
  595POPC   C2H30932   6.380   1.726   2.932
  595POPC   C2I30933   6.403   1.847   3.021
  595POPC   C2J30934   6.434   1.799   3.163
  595POPC   C2K30935   6.455   1.913   3.263
  595POPC   C2L30936   6.479   1.854   3.402
  595POPC   C2M30937   6.493   1.961   3.509
  595POPC   C2N30938   6.508   1.896   3.647
  595POPC   C2O30939   6.517   2.001   3.758
  595POPC   C2P30940   6.530   1.935   3.895
  596POPC   CN130941   6.699   1.559   1.499
  596POPC   CN230942   6.561   1.385   1.589
  596POPC   CN330943   6.704   1.515   1.730
  596POPC   NTM30944   6.615   1.520   1.613
  596POPC    CA30945   6.510   1.623   1.633
  596POPC    CB30946   6.383   1.602   1.719
  596POPC    OA30947   6.393   1.541   1.848
  596POPC     P30948   6.263   1.574   1.934
  596POPC    OB30949   6.151   1.604   1.843
  596POPC    OC30950   6.251   1.469   2.036
  596POPC    OD30951   6.313   1.709   1.994
  596POPC    CC30952   6.383   1.695   2.117
  596POPC    CD30953   6.440   1.827   2.172
  596POPC    OE30954   6.517   1.809   2.294
  596POPC   C1A30955   6.607   1.901   2.328
  596POPC    OF30956   6.633   1.994   2.251
  596POPC   C1B30957   6.673   1.874   2.458
  596POPC   C1C30958   6.821   1.913   2.456
  596POPC   C1D30959   6.890   1.868   2.585
  596POPC   C1E30960   7.040   1.893   2.580
  596POPC   C1F30961   7.108   1.826   2.699
  596POPC   C1G30962   7.260   1.844   2.695
  596POPC   C1H30963   7.332   1.763   2.803
  596POPC   C1I30964   7.326   1.612   2.775
  596POPC   C1J30965   7.329   1.524   2.875
  596POPC   C1K30966   7.339   1.568   3.021
  596POPC   C1L30967   7.287   1.458   3.113
  596POPC   C1M30968   7.313   1.491   3.260
  596POPC   C1N30969   7.283   1.371   3.351
  596POPC   C1O30970   7.135   1.356   3.388
  596POPC   C1P30971   7.097   1.453   3.500
  596POPC   C1Q30972   6.954   1.427   3.549
  596POPC   C1R30973   6.919   1.520   3.665
  596POPC    CE30974   6.321   1.926   2.180
  596POPC    OG30975   6.210   1.888   2.264
  596POPC   C2A30976   6.088   1.904   2.215
  596POPC    OH30977   6.071   1.932   2.095
  596POPC   C2B30978   5.980   1.886   2.315
  596POPC   C2C30979   5.936   2.022   2.370
  596POPC   C2D30980   5.820   2.015   2.470
  596POPC   C2E30981   5.861   1.963   2.608
  596POPC   C2F30982   5.746   1.974   2.709
  596POPC   C2G30983   5.706   2.119   2.737
  596POPC   C2H30984   5.583   2.133   2.827
  596POPC   C2I30985   5.610   2.097   2.973
  596POPC   C2J30986   5.482   2.111   3.055
  596POPC   C2K30987   5.502   2.078   3.203
  596POPC   C2L30988   5.581   2.185   3.278
  596POPC   C2M30989   5.598   2.144   3.425
  596POPC   C2N30990   5.671   2.252   3.505
  596POPC   C2O30991   5.696   2.205   3.648
  596POPC   C2P30992   5.765   2.314   3.731
  597POPC   CN130993   5.507   2.482   1.865
  597POPC   CN230994   5.276   2.449   1.820
  597POPC   CN330995   5.368   2.372   2.025
  597POPC   NTM30996   5.373   2.481   1.926
  597POPC    CA30997   5.335   2.611   1.986
  597POPC    CB30998   5.420   2.673   2.099
  597POPC    OA30999   5.552   2.714   2.063
  597POPC     P31000   5.645   2.723   2.190
  597POPC    OB31001   5.625   2.601   2.268
  597POPC    OC31002   5.776   2.757   2.134
  597POPC    OD31003   5.588   2.849   2.263
  597POPC    CC31004   5.669   2.874   2.378
  597POPC    CD31005   5.645   3.010   2.446
  597POPC    OE31006   5.751   3.050   2.537
  597POPC   C1A31007   5.835   3.145   2.498
  597POPC    OF31008   5.814   3.210   2.395
  597POPC   C1B31009   5.944   3.175   2.593
  597POPC   C1C31010   5.910   3.294   2.682
  597POPC   C1D31011   6.037   3.356   2.739
  597POPC   C1E31012   6.006   3.480   2.823
  597POPC   C1F31013   6.001   3.453   2.974
  597POPC   C1G31014   6.141   3.425   3.028
  597POPC   C1H31015   6.143   3.420   3.181
  597POPC   C1I31016   6.285   3.395   3.231
  597POPC   C1J31017   6.329   3.449   3.344
  597POPC   C1K31018   6.238   3.538   3.429
  597POPC   C1L31019   6.318   3.650   3.496
  597POPC   C1M31020   6.227   3.738   3.582
  597POPC   C1N31021   6.300   3.861   3.639
  597POPC   C1O31022   6.405   3.826   3.745
  597POPC   C1P31023   6.343   3.774   3.875
  597POPC   C1Q31024   6.449   3.734   3.978
  597POPC   C1R31025   6.531   3.612   3.934
  597POPC    CE31026   5.501   3.010   2.502
  597POPC    OG31027   5.473   2.909   2.601
  597POPC   C2A31028   5.349   2.907   2.649
  597POPC    OH31029   5.260   2.977   2.600
  597POPC   C2B31030   5.336   2.816   2.766
  597POPC   C2C31031   5.202   2.743   2.771
  597POPC   C2D31032   5.184   2.663   2.900
  597POPC   C2E31033   5.280   2.544   2.914
  597POPC   C2F31034   5.266   2.478   3.052
  597POPC   C2G31035   5.316   2.569   3.164
  597POPC   C2H31036   5.286   2.513   3.303
  597POPC   C2I31037   5.341   2.607   3.410
  597POPC   C2J31038   5.304   2.561   3.551
  597POPC   C2K31039   5.364   2.654   3.655
  597POPC   C2L31040   5.323   2.615   3.797
  597POPC   C2M31041   5.388   2.707   3.900
  597POPC   C2N31042   5.347   2.668   4.042
  597POPC   C2O31043   5.416   2.757   4.145
  597POPC   C2P31044   5.372   2.721   4.287
  598POPC   CN131045   6.050   3.316   2.216
  598POPC   CN231046   6.039   3.513   2.350
  598POPC   CN331047   6.227   3.474   2.207
  598POPC   NTM31048   6.081   3.460   2.219
  598POPC    CA31049   6.009   3.523   2.106
  598POPC    CB31050   6.010   3.677   2.086
  598POPC    OA31051   6.140   3.738   2.084
  598POPC     P31052   6.140   3.881   2.018
  598POPC    OB31053   6.279   3.919   1.991
  598POPC    OC31054   6.037   3.885   1.913
  598POPC    OD31055   6.086   3.962   2.142
  598POPC    CC31056   6.190   3.993   2.236
  598POPC    CD31057   6.135   4.045   2.370
  598POPC    OE31058   6.237   4.095   2.461
  598POPC   C1A31059   6.277   4.221   2.452
  598POPC    OF31060   6.263   4.285   2.347
  598POPC   C1B31061   6.357   4.263   2.569
  598POPC   C1C31062   6.323   4.405   2.615
  598POPC   C1D31063   6.384   4.438   2.752
  598POPC   C1E31064   6.315   4.360   2.864
  598POPC   C1F31065   6.375   4.396   3.001
  598POPC   C1G31066   6.302   4.322   3.113
  598POPC   C1H31067   6.364   4.358   3.249
  598POPC   C1I31068   6.289   4.292   3.365
  598POPC   C1J31069   6.352   4.265   3.478
  598POPC   C1K31070   6.501   4.297   3.493
  598POPC   C1L31071   6.540   4.348   3.632
  598POPC   C1M31072   6.525   4.243   3.742
  598POPC   C1N31073   6.549   4.309   3.879
  598POPC   C1O31074   6.528   4.210   3.993
  598POPC   C1P31075   6.531   4.284   4.127
  598POPC   C1Q31076   6.498   4.189   4.243
  598POPC   C1R31077   6.488   4.265   4.375
  598POPC    CE31078   6.052   3.928   2.425
  598POPC    OG31079   5.955   3.959   2.525
  598POPC   C2A31080   5.876   3.860   2.564
  598POPC    OH31081   5.880   3.749   2.511
  598POPC   C2B31082   5.783   3.897   2.673
  598POPC   C2C31083   5.833   3.851   2.811
  598POPC   C2D31084   5.948   3.937   2.864
  598POPC   C2E31085   6.004   3.884   2.996
  598POPC   C2F31086   5.900   3.881   3.108
  598POPC   C2G31087   5.961   3.832   3.240
  598POPC   C2H31088   6.054   3.936   3.303
  598POPC   C2I31089   5.978   4.048   3.375
  598POPC   C2J31090   5.917   4.001   3.508
  598POPC   C2K31091   5.852   4.119   3.580
  598POPC   C2L31092   5.803   4.085   3.721
  598POPC   C2M31093   5.686   3.987   3.724
  598POPC   C2N31094   5.629   3.979   3.866
  598POPC   C2O31095   5.509   3.885   3.877
  598POPC   C2P31096   5.549   3.738   3.865
  599POPC   CN131097   6.195   4.962   2.194
  599POPC   CN231098   6.158   5.171   2.081
  599POPC   CN331099   6.353   5.043   2.039
  599POPC   NTM31100   6.209   5.034   2.066
  599POPC    CA31101   6.142   4.964   1.953
  599POPC    CB31102   5.994   4.918   1.959
  599POPC    OA31103   5.973   4.797   2.032
  599POPC     P31104   5.821   4.753   2.042
  599POPC    OB31105   5.749   4.810   1.928
  599POPC    OC31106   5.830   4.607   2.062
  599POPC    OD31107   5.789   4.836   2.171
  599POPC    CC31108   5.836   4.773   2.289
  599POPC    CD31109   5.833   4.865   2.412
  599POPC    OE31110   5.910   4.813   2.524
  599POPC   C1A31111   6.033   4.859   2.543
  599POPC    OF31112   6.073   4.959   2.482
  599POPC   C1B31113   6.105   4.788   2.651
  599POPC   C1C31114   6.103   4.869   2.781
  599POPC   C1D31115   6.153   4.784   2.898
  599POPC   C1E31116   6.162   4.870   3.024
  599POPC   C1F31117   6.187   4.783   3.148
  599POPC   C1G31118   6.205   4.872   3.271
  599POPC   C1H31119   6.200   4.795   3.403
  599POPC   C1I31120   6.318   4.698   3.422
  599POPC   C1J31121   6.362   4.672   3.544
  599POPC   C1K31122   6.299   4.740   3.666
  599POPC   C1L31123   6.291   4.645   3.785
  599POPC   C1M31124   6.244   4.720   3.909
  599POPC   C1N31125   6.222   4.624   4.027
  599POPC   C1O31126   6.181   4.698   4.155
  599POPC   C1P31127   6.046   4.771   4.146
  599POPC   C1Q31128   5.928   4.674   4.136
  599POPC   C1R31129   5.796   4.750   4.124
  599POPC    CE31130   5.685   4.896   2.440
  599POPC    OG31131   5.605   4.781   2.474
  599POPC   C2A31132   5.474   4.798   2.484
  599POPC    OH31133   5.419   4.902   2.448
  599POPC   C2B31134   5.408   4.677   2.535
  599POPC   C2C31135   5.315   4.708   2.653
  599POPC   C2D31136   5.260   4.579   2.715
  599POPC   C2E31137   5.358   4.510   2.811
  599POPC   C2F31138   5.375   4.586   2.943
  599POPC   C2G31139   5.452   4.500   3.044
  599POPC   C2H31140   5.471   4.568   3.180
  599POPC   C2I31141   5.339   4.595   3.253
  599POPC   C2J31142   5.365   4.641   3.397
  599POPC   C2K31143   5.233   4.680   3.465
  599POPC   C2L31144   5.248   4.702   3.617
  599POPC   C2M31145   5.341   4.818   3.654
  599POPC   C2N31146   5.349   4.832   3.806
  599POPC   C2O31147   5.444   4.945   3.850
  599POPC   C2P31148   5.590   4.914   3.818
  600POPC   CN131149   5.341   5.714   2.282
  600POPC   CN231150   5.282   5.690   2.053
  600POPC   CN331151   5.375   5.895   2.129
  600POPC   NTM31152   5.380   5.749   2.144
  600POPC    CA31153   5.512   5.690   2.110
  600POPC    CB31154   5.639   5.732   2.188
  600POPC    OA31155   5.674   5.870   2.173
  600POPC     P31156   5.761   5.923   2.293
  600POPC    OB31157   5.853   5.817   2.336
  600POPC    OC31158   5.806   6.058   2.259
  600POPC    OD31159   5.645   5.937   2.398
  600POPC    CC31160   5.702   5.947   2.529
  600POPC    CD31161   5.601   5.924   2.642
  600POPC    OE31162   5.652   5.959   2.773
  600POPC   C1A31163   5.641   6.085   2.816
  600POPC    OF31164   5.582   6.170   2.748
  600POPC   C1B31165   5.709   6.108   2.945
  600POPC   C1C31166   5.621   6.189   3.042
  600POPC   C1D31167   5.699   6.236   3.165
  600POPC   C1E31168   5.739   6.125   3.261
  600POPC   C1F31169   5.805   6.188   3.384
  600POPC   C1G31170   5.840   6.084   3.491
  600POPC   C1H31171   5.898   6.155   3.614
  600POPC   C1I31172   5.928   6.056   3.727
  600POPC   C1J31173   6.021   6.085   3.817
  600POPC   C1K31174   6.099   6.216   3.810
  600POPC   C1L31175   6.240   6.196   3.866
  600POPC   C1M31176   6.329   6.319   3.845
  600POPC   C1N31177   6.472   6.286   3.886
  600POPC   C1O31178   6.566   6.406   3.868
  600POPC   C1P31179   6.710   6.367   3.901
  600POPC   C1Q31180   6.805   6.485   3.879
  600POPC   C1R31181   6.949   6.445   3.910
  600POPC    CE31182   5.545   5.781   2.625
  600POPC    OG31183   5.641   5.676   2.605
  600POPC   C2A31184   5.594   5.559   2.562
  600POPC    OH31185   5.476   5.546   2.530
  600POPC   C2B31186   5.698   5.454   2.549
  600POPC   C2C31187   5.700   5.363   2.672
  600POPC   C2D31188   5.810   5.257   2.658
  600POPC   C2E31189   5.814   5.158   2.774
  600POPC   C2F31190   5.689   5.069   2.779
  600POPC   C2G31191   5.697   4.958   2.884
  600POPC   C2H31192   5.701   5.013   3.027
  600POPC   C2I31193   5.691   4.900   3.130
  600POPC   C2J31194   5.692   4.953   3.274
  600POPC   C2K31195   5.571   5.042   3.304
  600POPC   C2L31196   5.583   5.103   3.444
  600POPC   C2M31197   5.473   5.207   3.467
  600POPC   C2N31198   5.493   5.276   3.602
  600POPC   C2O31199   5.390   5.387   3.623
  600POPC   C2P31200   5.411   5.457   3.757
  601POPC   CN131201   6.192   6.744   1.989
  601POPC   CN231202   6.390   6.784   1.864
  601POPC   CN331203   6.356   6.902   2.066
  601POPC   NTM31204   6.336   6.773   2.000
  601POPC    CA31205   6.408   6.665   2.070
  601POPC    CB31206   6.372   6.627   2.217
  601POPC    OA31207   6.250   6.557   2.239
  601POPC     P31208   6.284   6.403   2.250
  601POPC    OB31209   6.309   6.357   2.113
  601POPC    OC31210   6.386   6.387   2.354
  601POPC    OD31211   6.146   6.344   2.298
  601POPC    CC31212   6.129   6.368   2.437
  601POPC    CD31213   6.030   6.274   2.508
  601POPC    OE31214   6.004   6.311   2.647
  601POPC   C1A31215   5.930   6.417   2.678
  601POPC    OF31216   5.855   6.468   2.593
  601POPC   C1B31217   5.937   6.454   2.821
  601POPC   C1C31218   6.031   6.574   2.839
  601POPC   C1D31219   6.062   6.606   2.985
  601POPC   C1E31220   5.940   6.650   3.066
  601POPC   C1F31221   5.983   6.686   3.208
  601POPC   C1G31222   5.864   6.722   3.297
  601POPC   C1H31223   5.906   6.758   3.439
  601POPC   C1I31224   5.971   6.897   3.448
  601POPC   C1J31225   5.982   6.961   3.564
  601POPC   C1K31226   5.933   6.899   3.696
  601POPC   C1L31227   6.048   6.841   3.781
  601POPC   C1M31228   6.142   6.948   3.838
  601POPC   C1N31229   6.077   7.030   3.950
  601POPC   C1O31230   6.168   7.143   3.999
  601POPC   C1P31231   6.297   7.092   4.065
  601POPC   C1Q31232   6.386   7.209   4.109
  601POPC   C1R31233   6.516   7.159   4.171
  601POPC    CE31234   6.085   6.131   2.487
  601POPC    OG31235   6.217   6.107   2.540
  601POPC   C2A31236   6.285   6.003   2.492
  601POPC    OH31237   6.252   5.949   2.386
  601POPC   C2B31238   6.414   5.983   2.562
  601POPC   C2C31239   6.404   5.880   2.674
  601POPC   C2D31240   6.523   5.891   2.769
  601POPC   C2E31241   6.517   5.785   2.879
  601POPC   C2F31242   6.619   5.811   2.990
  601POPC   C2G31243   6.576   5.928   3.078
  601POPC   C2H31244   6.680   5.961   3.185
  601POPC   C2I31245   6.627   6.071   3.278
  601POPC   C2J31246   6.730   6.121   3.379
  601POPC   C2K31247   6.775   6.013   3.478
  601POPC   C2L31248   6.878   6.069   3.576
  601POPC   C2M31249   6.926   5.962   3.674
  601POPC   C2N31250   7.029   6.019   3.771
  601POPC   C2O31251   7.076   5.911   3.869
  601POPC   C2P31252   7.179   5.967   3.967
  602POPC   CN131253   6.815   7.240   2.410
  602POPC   CN231254   6.680   7.367   2.557
  602POPC   CN331255   6.822   7.477   2.403
  602POPC   NTM31256   6.734   7.361   2.420
  602POPC    CA31257   6.629   7.354   2.316
  602POPC    CB31258   6.527   7.469   2.296
  602POPC    OA31259   6.450   7.496   2.413
  602POPC     P31260   6.341   7.606   2.397
  602POPC    OB31261   6.279   7.592   2.264
  602POPC    OC31262   6.264   7.586   2.521
  602POPC    OD31263   6.430   7.734   2.403
  602POPC    CC31264   6.469   7.764   2.537
  602POPC    CD31265   6.530   7.904   2.556
  602POPC    OE31266   6.580   7.925   2.691
  602POPC   C1A31267   6.698   7.875   2.726
  602POPC    OF31268   6.782   7.850   2.638
  602POPC   C1B31269   6.722   7.882   2.872
  602POPC   C1C31270   6.811   7.770   2.925
  602POPC   C1D31271   6.836   7.792   3.074
  602POPC   C1E31272   6.939   7.696   3.132
  602POPC   C1F31273   6.969   7.733   3.277
  602POPC   C1G31274   7.074   7.640   3.339
  602POPC   C1H31275   7.101   7.682   3.484
  602POPC   C1I31276   7.203   7.590   3.551
  602POPC   C1J31277   7.319   7.638   3.595
  602POPC   C1K31278   7.351   7.787   3.580
  602POPC   C1L31279   7.447   7.835   3.689
  602POPC   C1M31280   7.482   7.983   3.669
  602POPC   C1N31281   7.584   8.027   3.774
  602POPC   C1O31282   7.630   8.172   3.753
  602POPC   C1P31283   7.522   8.274   3.787
  602POPC   C1Q31284   7.571   8.419   3.774
  602POPC   C1R31285   7.674   8.456   3.881
  602POPC    CE31286   6.421   8.003   2.508
  602POPC    OG31287   6.299   8.000   2.583
  602POPC   C2A31288   6.187   8.035   2.521
  602POPC    OH31289   6.181   8.049   2.398
  602POPC   C2B31290   6.070   8.037   2.612
  602POPC   C2C31291   6.036   8.178   2.659
  602POPC   C2D31292   5.920   8.174   2.758
  602POPC   C2E31293   5.871   8.313   2.800
  602POPC   C2F31294   5.767   8.302   2.912
  602POPC   C2G31295   5.833   8.260   3.043
  602POPC   C2H31296   5.733   8.221   3.151
  602POPC   C2I31297   5.811   8.181   3.276
  602POPC   C2J31298   5.724   8.111   3.381
  602POPC   C2K31299   5.811   8.071   3.500
  602POPC   C2L31300   5.738   7.975   3.594
  602POPC   C2M31301   5.832   7.931   3.707
  602POPC   C2N31302   5.774   7.816   3.790
  602POPC   C2O31303   5.766   7.686   3.709
  602POPC   C2P31304   5.707   7.573   3.793
  603POPC   CN131305   5.876   8.173   2.295
  603POPC   CN231306   5.658   8.085   2.329
  603POPC   CN331307   5.718   8.295   2.425
  603POPC   NTM31308   5.734   8.209   2.307
  603POPC    CA31309   5.682   8.274   2.184
  603POPC    CB31310   5.734   8.412   2.137
  603POPC    OA31311   5.876   8.422   2.130
  603POPC     P31312   5.932   8.514   2.018
  603POPC    OB31313   6.077   8.498   2.010
  603POPC    OC31314   5.850   8.495   1.897
  603POPC    OD31315   5.898   8.658   2.071
  603POPC    CC31316   5.990   8.703   2.170
  603POPC    CD31317   5.992   8.857   2.185
  603POPC    OE31318   6.104   8.903   2.266
  603POPC   C1A31319   6.133   9.033   2.266
  603POPC    OF31320   6.122   9.098   2.160
  603POPC   C1B31321   6.207   9.076   2.387
  603POPC   C1C31322   6.353   9.114   2.361
  603POPC   C1D31323   6.425   9.154   2.490
  603POPC   C1E31324   6.365   9.278   2.558
  603POPC   C1F31325   6.443   9.315   2.685
  603POPC   C1G31326   6.578   9.383   2.654
  603POPC   C1H31327   6.662   9.405   2.780
  603POPC   C1I31328   6.732   9.278   2.827
  603POPC   C1J31329   6.749   9.252   2.956
  603POPC   C1K31330   6.695   9.350   3.061
  603POPC   C1L31331   6.752   9.329   3.202
  603POPC   C1M31332   6.716   9.192   3.261
  603POPC   C1N31333   6.732   9.184   3.413
  603POPC   C1O31334   6.876   9.207   3.462
  603POPC   C1P31335   6.887   9.192   3.614
  603POPC   C1Q31336   6.808   9.300   3.690
  603POPC   C1R31337   6.818   9.278   3.841
  603POPC    CE31338   5.850   8.896   2.231
  603POPC    OG31339   5.811   8.844   2.360
  603POPC   C2A31340   5.682   8.821   2.380
  603POPC    OH31341   5.606   8.802   2.284
  603POPC   C2B31342   5.652   8.785   2.521
  603POPC   C2C31343   5.521   8.848   2.569
  603POPC   C2D31344   5.473   8.788   2.702
  603POPC   C2E31345   5.568   8.814   2.819
  603POPC   C2F31346   5.520   8.738   2.942
  603POPC   C2G31347   5.616   8.751   3.060
  603POPC   C2H31348   5.570   8.661   3.175
  603POPC   C2I31349   5.669   8.663   3.292
  603POPC   C2J31350   5.623   8.567   3.402
  603POPC   C2K31351   5.723   8.564   3.518
  603POPC   C2L31352   5.675   8.468   3.627
  603POPC   C2M31353   5.770   8.466   3.746
  603POPC   C2N31354   5.715   8.373   3.855
  603POPC   C2O31355   5.803   8.370   3.980
  603POPC   C2P31356   5.939   8.304   3.955
  604POPC   CN131357   5.003   9.437   2.170
  604POPC   CN231358   5.043   9.670   2.133
  604POPC   CN331359   5.143   9.558   2.319
  604POPC   NTM31360   5.104   9.544   2.178
  604POPC    CA31361   5.220   9.504   2.094
  604POPC    CB31362   5.337   9.603   2.069
  604POPC    OA31363   5.396   9.656   2.187
  604POPC     P31364   5.494   9.773   2.153
  604POPC    OB31365   5.611   9.711   2.091
  604POPC    OC31366   5.415   9.872   2.080
  604POPC    OD31367   5.525   9.821   2.299
  604POPC    CC31368   5.606   9.726   2.368
  604POPC    CD31369   5.650   9.773   2.508
  604POPC    OE31370   5.741   9.680   2.573
  604POPC   C1A31371   5.869   9.676   2.535
  604POPC    OF31372   5.911   9.743   2.440
  604POPC   C1B31373   5.950   9.578   2.613
  604POPC   C1C31374   6.028   9.647   2.725
  604POPC   C1D31375   6.106   9.547   2.811
  604POPC   C1E31376   6.181   9.621   2.922
  604POPC   C1F31377   6.246   9.527   3.023
  604POPC   C1G31378   6.313   9.608   3.134
  604POPC   C1H31379   6.372   9.520   3.244
  604POPC   C1I31380   6.442   9.609   3.347
  604POPC   C1J31381   6.462   9.570   3.473
  604POPC   C1K31382   6.416   9.433   3.524
  604POPC   C1L31383   6.398   9.437   3.676
  604POPC   C1M31384   6.374   9.297   3.733
  604POPC   C1N31385   6.363   9.302   3.886
  604POPC   C1O31386   6.354   9.161   3.945
  604POPC   C1P31387   6.343   9.167   4.097
  604POPC   C1Q31388   6.343   9.026   4.157
  604POPC   C1R31389   6.325   9.031   4.309
  604POPC    CE31390   5.519   9.802   2.583
  604POPC    OG31391   5.527   9.905   2.683
  604POPC   C2A31392   5.417   9.972   2.714
  604POPC    OH31393   5.311   9.956   2.652
  604POPC   C2B31394   5.438  10.078   2.817
  604POPC   C2C31395   5.520  10.032   2.938
  604POPC   C2D31396   5.573  10.154   3.014
  604POPC   C2E31397   5.668  10.114   3.128
  604POPC   C2F31398   5.748  10.237   3.172
  604POPC   C2G31399   5.852  10.204   3.279
  604POPC   C2H31400   5.945  10.325   3.296
  604POPC   C2I31401   6.053  10.302   3.402
  604POPC   C2J31402   6.157  10.414   3.390
  604POPC   C2K31403   6.270  10.404   3.493
  604POPC   C2L31404   6.231  10.460   3.629
  604POPC   C2M31405   6.354  10.473   3.718
  604POPC   C2N31406   6.323  10.546   3.848
  604POPC   C2O31407   6.450  10.571   3.929
  604POPC   C2P31408   6.421  10.648   4.057
  605POPC   CN131409   5.616  10.414   1.890
  605POPC   CN231410   5.552  10.324   2.098
  605POPC   CN331411   5.784  10.370   2.053
  605POPC   NTM31412   5.646  10.417   2.033
  605POPC    CA31413   5.629  10.557   2.080
  605POPC    CB31414   5.651  10.594   2.229
  605POPC    OA31415   5.565  10.528   2.322
  605POPC     P31416   5.573  10.590   2.465
  605POPC    OB31417   5.577  10.736   2.454
  605POPC    OC31418   5.466  10.522   2.539
  605POPC    OD31419   5.715  10.539   2.509
  605POPC    CC31420   5.712  10.416   2.581
  605POPC    CD31421   5.850  10.367   2.627
  605POPC    OE31422   5.837  10.251   2.714
  605POPC   C1A31423   5.926  10.152   2.705
  605POPC    OF31424   5.998  10.142   2.604
  605POPC   C1B31425   5.909  10.048   2.808
  605POPC   C1C31426   6.040   9.999   2.870
  605POPC   C1D31427   6.111  10.107   2.952
  605POPC   C1E31428   6.234  10.049   3.022
  605POPC   C1F31429   6.311  10.160   3.094
  605POPC   C1G31430   6.435  10.109   3.167
  605POPC   C1H31431   6.402  10.034   3.296
  605POPC   C1I31432   6.532   9.985   3.361
  605POPC   C1J31433   6.550   9.989   3.493
  605POPC   C1K31434   6.442  10.043   3.587
  605POPC   C1L31435   6.459   9.985   3.727
  605POPC   C1M31436   6.356  10.041   3.825
  605POPC   C1N31437   6.373   9.985   3.966
  605POPC   C1O31438   6.500  10.034   4.037
  605POPC   C1P31439   6.492  10.182   4.076
  605POPC   C1Q31440   6.620  10.232   4.144
  605POPC   C1R31441   6.739  10.237   4.048
  605POPC    CE31442   5.918  10.488   2.695
  605POPC    OG31443   6.057  10.474   2.730
  605POPC   C2A31444   6.116  10.580   2.783
  605POPC    OH31445   6.057  10.688   2.798
  605POPC   C2B31446   6.259  10.556   2.815
  605POPC   C2C31447   6.288  10.553   2.965
  605POPC   C2D31448   6.438  10.534   2.986
  605POPC   C2E31449   6.481  10.526   3.133
  605POPC   C2F31450   6.466  10.658   3.209
  605POPC   C2G31451   6.539  10.648   3.343
  605POPC   C2H31452   6.536  10.779   3.422
  605POPC   C2I31453   6.627  10.768   3.544
  605POPC   C2J31454   6.628  10.897   3.626
  605POPC   C2K31455   6.730  10.888   3.739
  605POPC   C2L31456   6.730  11.013   3.828
  605POPC   C2M31457   6.605  11.021   3.917
  605POPC   C2N31458   6.602  11.149   4.002
  605POPC   C2O31459   6.577  11.274   3.917
  605POPC   C2P31460   6.576  11.400   4.004
  606POPC   CN131461   6.884  10.643   2.033
  606POPC   CN231462   7.101  10.738   2.040
  606POPC   CN331463   6.921  10.862   1.945
  606POPC   NTM31464   6.958  10.769   2.052
  606POPC    CA31465   6.933  10.827   2.187
  606POPC    CB31466   6.790  10.870   2.229
  606POPC    OA31467   6.734  10.979   2.157
  606POPC     P31468   6.581  10.999   2.184
  606POPC    OB31469   6.530  11.108   2.101
  606POPC    OC31470   6.513  10.868   2.184
  606POPC    OD31471   6.587  11.045   2.334
  606POPC    CC31472   6.617  11.183   2.348
  606POPC    CD31473   6.632  11.233   2.493
  606POPC    OE31474   6.639  11.378   2.505
  606POPC   C1A31475   6.527  11.450   2.505
  606POPC    OF31476   6.419  11.397   2.477
  606POPC   C1B31477   6.552  11.595   2.520
  606POPC   C1C31478   6.482  11.657   2.642
  606POPC   C1D31479   6.544  11.612   2.775
  606POPC   C1E31480   6.471  11.680   2.891
  606POPC   C1F31481   6.528  11.638   3.027
  606POPC   C1G31482   6.450  11.705   3.140
  606POPC   C1H31483   6.503  11.663   3.277
  606POPC   C1I31484   6.422  11.724   3.391
  606POPC   C1J31485   6.339  11.651   3.465
  606POPC   C1K31486   6.321  11.501   3.439
  606POPC   C1L31487   6.293  11.425   3.569
  606POPC   C1M31488   6.272  11.276   3.541
  606POPC   C1N31489   6.254  11.198   3.671
  606POPC   C1O31490   6.235  11.049   3.643
  606POPC   C1P31491   6.232  10.965   3.771
  606POPC   C1Q31492   6.109  10.988   3.859
  606POPC   C1R31493   5.981  10.931   3.796
  606POPC    CE31494   6.753  11.159   2.552
  606POPC    OG31495   6.727  11.032   2.614
  606POPC   C2A31496   6.829  10.947   2.619
  606POPC    OH31497   6.925  10.959   2.542
  606POPC   C2B31498   6.805  10.829   2.704
  606POPC   C2C31499   6.838  10.859   2.851
  606POPC   C2D31500   6.822  10.733   2.936
  606POPC   C2E31501   6.826  10.763   3.087
  606POPC   C2F31502   6.961  10.817   3.135
  606POPC   C2G31503   6.958  10.835   3.287
  606POPC   C2H31504   7.092  10.889   3.337
  606POPC   C2I31505   7.100  10.893   3.489
  606POPC   C2J31506   7.239  10.938   3.533
  606POPC   C2K31507   7.259  10.926   3.684
  606POPC   C2L31508   7.403  10.963   3.719
  606POPC   C2M31509   7.432  10.941   3.868
  606POPC   C2N31510   7.576  10.981   3.902
  606POPC   C2O31511   7.608  10.961   4.051
  606POPC   C2P31512   7.612  10.813   4.090
  607POPC   CN131513   5.963  12.425   2.148
  607POPC   CN231514   6.090  12.591   2.032
  607POPC   CN331515   6.024  12.391   1.922
  607POPC   NTM31516   5.981  12.493   2.019
  607POPC    CA31517   5.855  12.556   1.973
  607POPC    CB31518   5.799  12.679   2.050
  607POPC    OA31519   5.775  12.659   2.189
  607POPC     P31520   5.783  12.794   2.270
  607POPC    OB31521   5.743  12.904   2.181
  607POPC    OC31522   5.711  12.770   2.395
  607POPC    OD31523   5.939  12.792   2.290
  607POPC    CC31524   5.975  12.723   2.409
  607POPC    CD31525   6.125  12.690   2.421
  607POPC    OE31526   6.153  12.586   2.518
  607POPC   C1A31527   6.169  12.461   2.476
  607POPC    OF31528   6.197  12.439   2.358
  607POPC   C1B31529   6.172  12.364   2.587
  607POPC   C1C31530   6.105  12.232   2.549
  607POPC   C1D31531   6.093  12.136   2.668
  607POPC   C1E31532   6.230  12.097   2.726
  607POPC   C1F31533   6.219  11.990   2.835
  607POPC   C1G31534   6.138  12.035   2.957
  607POPC   C1H31535   6.130  11.921   3.059
  607POPC   C1I31536   6.042  11.959   3.178
  607POPC   C1J31537   5.986  11.864   3.251
  607POPC   C1K31538   6.009  11.716   3.216
  607POPC   C1L31539   5.905  11.623   3.278
  607POPC   C1M31540   5.919  11.615   3.430
  607POPC   C1N31541   5.817  11.519   3.492
  607POPC   C1O31542   5.833  11.517   3.644
  607POPC   C1P31543   5.732  11.425   3.713
  607POPC   C1Q31544   5.760  11.277   3.686
  607POPC   C1R31545   5.664  11.189   3.766
  607POPC    CE31546   6.201  12.822   2.440
  607POPC    OG31547   6.167  12.898   2.557
  607POPC   C2A31548   6.236  13.010   2.576
  607POPC    OH31549   6.323  13.047   2.498
  607POPC   C2B31550   6.198  13.081   2.700
  607POPC   C2C31551   6.282  13.044   2.823
  607POPC   C2D31552   6.430  13.080   2.807
  607POPC   C2E31553   6.501  13.091   2.942
  607POPC   C2F31554   6.512  12.958   3.018
  607POPC   C2G31555   6.556  12.984   3.163
  607POPC   C2H31556   6.443  13.049   3.242
  607POPC   C2I31557   6.492  13.105   3.376
  607POPC   C2J31558   6.374  13.167   3.452
  607POPC   C2K31559   6.421  13.244   3.575
  607POPC   C2L31560   6.301  13.303   3.649
  607POPC   C2M31561   6.346  13.397   3.760
  607POPC   C2N31562   6.229  13.454   3.841
  607POPC   C2O31563   6.162  13.350   3.932
  607POPC   C2P31564   6.254  13.305   4.046
  608POPC   CN131565   6.371  13.208   1.599
  608POPC   CN231566   6.249  13.014   1.656
  608POPC   CN331567   6.411  13.101   1.808
  608POPC   NTM31568   6.307  13.137   1.711
  608POPC    CA31569   6.202  13.225   1.768
  608POPC    CB31570   6.106  13.173   1.878
  608POPC    OA31571   6.171  13.122   1.995
  608POPC     P31572   6.084  13.012   2.069
  608POPC    OB31573   6.011  12.940   1.964
  608POPC    OC31574   6.186  12.945   2.151
  608POPC    OD31575   5.992  13.111   2.149
  608POPC    CC31576   6.048  13.145   2.276
  608POPC    CD31577   5.966  13.248   2.357
  608POPC    OE31578   6.047  13.320   2.454
  608POPC   C1A31579   5.997  13.427   2.517
  608POPC    OF31580   5.893  13.479   2.477
  608POPC   C1B31581   6.087  13.486   2.619
  608POPC   C1C31582   6.016  13.508   2.753
  608POPC   C1D31583   5.998  13.375   2.828
  608POPC   C1E31584   5.917  13.387   2.957
  608POPC   C1F31585   5.768  13.409   2.930
  608POPC   C1G31586   5.685  13.386   3.057
  608POPC   C1H31587   5.700  13.497   3.162
  608POPC   C1I31588   5.617  13.621   3.127
  608POPC   C1J31589   5.565  13.694   3.225
  608POPC   C1K31590   5.592  13.655   3.370
  608POPC   C1L31591   5.473  13.688   3.461
  608POPC   C1M31592   5.509  13.659   3.607
  608POPC   C1N31593   5.392  13.691   3.700
  608POPC   C1O31594   5.433  13.670   3.846
  608POPC   C1P31595   5.317  13.701   3.940
  608POPC   C1Q31596   5.354  13.682   4.087
  608POPC   C1R31597   5.457  13.784   4.137
  608POPC    CE31598   5.838  13.174   2.405
  608POPC    OG31599   5.858  13.070   2.502
  608POPC   C2A31600   5.748  13.025   2.564
  608POPC    OH31601   5.636  13.066   2.533
  608POPC   C2B31602   5.777  12.929   2.674
  608POPC   C2C31603   5.811  13.004   2.803
  608POPC   C2D31604   5.843  12.913   2.923
  608POPC   C2E31605   5.718  12.849   2.984
  608POPC   C2F31606   5.751  12.787   3.120
  608POPC   C2G31607   5.625  12.737   3.192
  608POPC   C2H31608   5.653  12.700   3.338
  608POPC   C2I31609   5.693  12.824   3.420
  608POPC   C2J31610   5.737  12.794   3.563
  608POPC   C2K31611   5.622  12.781   3.663
  608POPC   C2L31612   5.682  12.780   3.805
  608POPC   C2M31613   5.578  12.784   3.918
  608POPC   C2N31614   5.499  12.654   3.931
  608POPC   C2O31615   5.412  12.657   4.057
  608POPC   C2P31616   5.324  12.532   4.067
  609POPC   CN131617   6.626  13.008   2.447
  609POPC   CN231618   6.597  13.097   2.230
  609POPC   CN331619   6.563  13.236   2.422
  609POPC   NTM31620   6.645  13.128   2.365
  609POPC    CA31621   6.789  13.162   2.368
  609POPC    CB31622   6.846  13.275   2.279
  609POPC    OA31623   6.786  13.403   2.295
  609POPC     P31624   6.853  13.508   2.201
  609POPC    OB31625   6.992  13.516   2.246
  609POPC    OC31626   6.822  13.463   2.064
  609POPC    OD31627   6.763  13.630   2.245
  609POPC    CC31628   6.820  13.688   2.363
  609POPC    CD31629   6.742  13.799   2.434
  609POPC    OE31630   6.827  13.870   2.528
  609POPC   C1A31631   6.883  13.985   2.492
  609POPC    OF31632   6.828  14.056   2.407
  609POPC   C1B31633   7.002  14.020   2.572
  609POPC   C1C31634   6.970  14.084   2.706
  609POPC   C1D31635   7.093  14.080   2.797
  609POPC   C1E31636   7.063  14.133   2.937
  609POPC   C1F31637   7.181  14.107   3.030
  609POPC   C1G31638   7.145  14.147   3.173
  609POPC   C1H31639   7.252  14.101   3.272
  609POPC   C1I31640   7.212  14.137   3.415
  609POPC   C1J31641   7.304  14.150   3.510
  609POPC   C1K31642   7.451  14.125   3.478
  609POPC   C1L31643   7.524  14.078   3.603
  609POPC   C1M31644   7.670  14.044   3.574
  609POPC   C1N31645   7.742  14.006   3.704
  609POPC   C1O31646   7.887  13.965   3.678
  609POPC   C1P31647   7.963  13.936   3.808
  609POPC   C1Q31648   7.912  13.812   3.882
  609POPC   C1R31649   7.946  13.682   3.808
  609POPC    CE31650   6.615  13.736   2.495
  609POPC    OG31651   6.638  13.627   2.587
  609POPC   C2A31652   6.534  13.579   2.654
  609POPC    OH31653   6.419  13.609   2.623
  609POPC   C2B31654   6.573  13.477   2.753
  609POPC   C2C31655   6.496  13.485   2.886
  609POPC   C2D31656   6.523  13.614   2.965
  609POPC   C2E31657   6.475  13.602   3.110
  609POPC   C2F31658   6.324  13.582   3.124
  609POPC   C2G31659   6.288  13.534   3.265
  609POPC   C2H31660   6.140  13.496   3.275
  609POPC   C2I31661   6.051  13.610   3.325
  609POPC   C2J31662   6.067  13.630   3.476
  609POPC   C2K31663   5.965  13.731   3.531
  609POPC   C2L31664   5.977  13.740   3.683
  609POPC   C2M31665   5.879  13.841   3.742
  609POPC   C2N31666   5.895  13.848   3.894
  609POPC   C2O31667   5.801  13.953   3.954
  609POPC   C2P31668   5.820  13.962   4.106
  610POPC   CN131669   6.868  14.484   2.317
  610POPC   CN231670   6.895  14.660   2.161
  610POPC   CN331671   6.813  14.445   2.089
  610POPC   NTM31672   6.811  14.546   2.196
  610POPC    CA31673   6.672  14.586   2.229
  610POPC    CB31674   6.582  14.664   2.130
  610POPC    OA31675   6.617  14.800   2.100
  610POPC     P31676   6.490  14.881   2.049
  610POPC    OB31677   6.528  15.010   1.990
  610POPC    OC31678   6.405  14.788   1.971
  610POPC    OD31679   6.422  14.909   2.187
  610POPC    CC31680   6.475  15.021   2.259
  610POPC    CD31681   6.458  15.009   2.412
  610POPC    OE31682   6.489  15.129   2.488
  610POPC   C1A31683   6.399  15.226   2.503
  610POPC    OF31684   6.309  15.241   2.420
  610POPC   C1B31685   6.443  15.324   2.606
  610POPC   C1C31686   6.328  15.381   2.690
  610POPC   C1D31687   6.383  15.461   2.807
  610POPC   C1E31688   6.274  15.533   2.887
  610POPC   C1F31689   6.335  15.594   3.014
  610POPC   C1G31690   6.236  15.680   3.091
  610POPC   C1H31691   6.298  15.730   3.222
  610POPC   C1I31692   6.206  15.831   3.291
  610POPC   C1J31693   6.197  15.838   3.424
  610POPC   C1K31694   6.277  15.743   3.514
  610POPC   C1L31695   6.203  15.715   3.644
  610POPC   C1M31696   6.283  15.619   3.732
  610POPC   C1N31697   6.208  15.576   3.859
  610POPC   C1O31698   6.189  15.690   3.959
  610POPC   C1P31699   6.135  15.638   4.092
  610POPC   C1Q31700   6.125  15.750   4.195
  610POPC   C1R31701   6.078  15.696   4.330
  610POPC    CE31702   6.549  14.890   2.446
  610POPC    OG31703   6.551  14.839   2.579
  610POPC   C2A31704   6.634  14.738   2.599
  610POPC    OH31705   6.722  14.708   2.518
  610POPC   C2B31706   6.619  14.680   2.734
  610POPC   C2C31707   6.630  14.527   2.731
  610POPC   C2D31708   6.606  14.468   2.870
  610POPC   C2E31709   6.461  14.487   2.915
  610POPC   C2F31710   6.442  14.439   3.058
  610POPC   C2G31711   6.300  14.468   3.108
  610POPC   C2H31712   6.283  14.429   3.255
  610POPC   C2I31713   6.373  14.512   3.347
  610POPC   C2J31714   6.357  14.468   3.493
  610POPC   C2K31715   6.451  14.545   3.584
  610POPC   C2L31716   6.431  14.502   3.729
  610POPC   C2M31717   6.526  14.575   3.824
  610POPC   C2N31718   6.501  14.537   3.970
  610POPC   C2O31719   6.529  14.389   3.999
  610POPC   C2P31720   6.499  14.356   4.145
  611POPC   CN131721   6.243  16.291   2.219
  611POPC   CN231722   6.225  16.116   2.382
  611POPC   CN331723   6.117  16.321   2.417
  611POPC   NTM31724   6.153  16.225   2.313
  611POPC    CA31725   6.028  16.177   2.249
  611POPC    CB31726   6.033  16.076   2.131
  611POPC    OA31727   6.105  15.955   2.157
  611POPC     P31728   6.022  15.832   2.107
  611POPC    OB31729   5.884  15.850   2.152
  611POPC    OC31730   6.055  15.813   1.965
  611POPC    OD31731   6.096  15.720   2.184
  611POPC    CC31732   6.054  15.707   2.320
  611POPC    CD31733   6.123  15.585   2.385
  611POPC    OE31734   6.067  15.542   2.511
  611POPC   C1A31735   5.979  15.442   2.510
  611POPC    OF31736   5.936  15.396   2.403
  611POPC   C1B31737   5.933  15.400   2.644
  611POPC   C1C31738   5.807  15.476   2.687
  611POPC   C1D31739   5.758  15.432   2.825
  611POPC   C1E31740   5.851  15.475   2.939
  611POPC   C1F31741   5.799  15.427   3.074
  611POPC   C1G31742   5.886  15.481   3.188
  611POPC   C1H31743   5.838  15.431   3.324
  611POPC   C1I31744   5.917  15.499   3.436
  611POPC   C1J31745   5.935  15.438   3.553
  611POPC   C1K31746   5.882  15.296   3.577
  611POPC   C1L31747   5.946  15.228   3.698
  611POPC   C1M31748   5.898  15.287   3.831
  611POPC   C1N31749   5.963  15.216   3.949
  611POPC   C1O31750   5.908  15.268   4.081
  611POPC   C1P31751   5.969  15.194   4.200
  611POPC   C1Q31752   5.911  15.245   4.332
  611POPC   C1R31753   5.969  15.168   4.450
  611POPC    CE31754   6.275  15.610   2.378
  611POPC    OG31755   6.324  15.735   2.430
  611POPC   C2A31756   6.455  15.756   2.418
  611POPC    OH31757   6.526  15.684   2.347
  611POPC   C2B31758   6.501  15.882   2.481
  611POPC   C2C31759   6.540  15.862   2.628
  611POPC   C2D31760   6.423  15.878   2.726
  611POPC   C2E31761   6.378  16.024   2.737
  611POPC   C2F31762   6.276  16.040   2.849
  611POPC   C2G31763   6.238  16.186   2.872
  611POPC   C2H31764   6.145  16.196   2.992
  611POPC   C2I31765   6.110  16.340   3.029
  611POPC   C2J31766   6.025  16.346   3.157
  611POPC   C2K31767   6.101  16.292   3.278
  611POPC   C2L31768   6.017  16.295   3.406
  611POPC   C2M31769   6.098  16.235   3.521
  611POPC   C2N31770   6.020  16.238   3.652
  611POPC   C2O31771   6.102  16.175   3.765
  611POPC   C2P31772   6.026  16.177   3.897
  612POPC   CN131773   6.684  16.330   1.793
  612POPC   CN231774   6.615  16.413   1.584
  612POPC   CN331775   6.497  16.478   1.780
  612POPC   NTM31776   6.630  16.449   1.725
  612POPC    CA31777   6.720  16.567   1.732
  612POPC    CB31778   6.764  16.627   1.868
  612POPC    OA31779   6.848  16.542   1.948
  612POPC     P31780   6.889  16.607   2.085
  612POPC    OB31781   6.991  16.516   2.137
  612POPC    OC31782   6.919  16.749   2.062
  612POPC    OD31783   6.752  16.593   2.160
  612POPC    CC31784   6.763  16.656   2.288
  612POPC    CD31785   6.629  16.679   2.362
  612POPC    OE31786   6.639  16.753   2.487
  612POPC   C1A31787   6.640  16.886   2.488
  612POPC    OF31788   6.635  16.950   2.383
  612POPC   C1B31789   6.635  16.944   2.624
  612POPC   C1C31790   6.768  16.935   2.698
  612POPC   C1D31791   6.752   0.008   2.840
  612POPC   C1E31792   6.878  16.971   2.924
  612POPC   C1F31793   6.857   0.044   3.065
  612POPC   C1G31794   6.981   0.021   3.152
  612POPC   C1H31795   6.960   0.081   3.292
  612POPC   C1I31796   7.084   0.061   3.378
  612POPC   C1J31797   7.074   0.056   3.511
  612POPC   C1K31798   6.938   0.071   3.580
  612POPC   C1L31799   6.952   0.085   3.732
  612POPC   C1M31800   7.011   0.220   3.774
  612POPC   C1N31801   7.050   0.223   3.923
  612POPC   C1O31802   7.171   0.135   3.951
  612POPC   C1P31803   7.215   0.137   4.098
  612POPC   C1Q31804   7.272   0.273   4.139
  612POPC   C1R31805   7.315   0.273   4.286
  612POPC    CE31806   6.561  16.542   2.379
  612POPC    OG31807   6.643  16.437   2.433
  612POPC   C2A31808   6.582  16.326   2.471
  612POPC    OH31809   6.459  16.312   2.462
  612POPC   C2B31810   6.676  16.224   2.524
  612POPC   C2C31811   6.712  16.252   2.670
  612POPC   C2D31812   6.802  16.142   2.728
  612POPC   C2E31813   6.851  16.179   2.869
  612POPC   C2F31814   6.738  16.189   2.972
  612POPC   C2G31815   6.702  16.055   3.037
  612POPC   C2H31816   6.589  16.069   3.140
  612POPC   C2I31817   6.622  16.171   3.250
  612POPC   C2J31818   6.516  16.177   3.360
  612POPC   C2K31819   6.526  16.061   3.461
  612POPC   C2L31820   6.655  16.068   3.543
  612POPC   C2M31821   6.663  15.960   3.651
  612POPC   C2N31822   6.565  15.985   3.765
  612POPC   C2O31823   6.584  15.882   3.877
  612POPC   C2P31824   6.495  15.915   3.997
  613POPC   CN131825   6.464   0.309   1.609
  613POPC   CN231826   6.489   0.313   1.373
  613POPC   CN331827   6.537   0.509   1.499
  613POPC   NTM31828   6.545   0.363   1.499
  613POPC    CA31829   6.685   0.315   1.508
  613POPC    CB31830   6.771   0.338   1.635
  613POPC    OA31831   6.787   0.473   1.678
  613POPC     P31832   6.937   0.501   1.720
  613POPC    OB31833   7.018   0.441   1.613
  613POPC    OC31834   6.932   0.646   1.744
  613POPC    OD31835   6.934   0.418   1.853
  613POPC    CC31836   6.885   0.495   1.963
  613POPC    CD31837   6.852   0.411   2.087
  613POPC    OE31838   6.787   0.488   2.192
  613POPC   C1A31839   6.674   0.439   2.244
  613POPC    OF31840   6.608   0.353   2.184
  613POPC   C1B31841   6.633   0.508   2.368
  613POPC   C1C31842   6.681   0.430   2.491
  613POPC   C1D31843   6.669   0.508   2.622
  613POPC   C1E31844   6.525   0.538   2.664
  613POPC   C1F31845   6.525   0.605   2.801
  613POPC   C1G31846   6.384   0.638   2.849
  613POPC   C1H31847   6.387   0.697   2.991
  613POPC   C1I31848   6.247   0.736   3.038
  613POPC   C1J31849   6.231   0.827   3.134
  613POPC   C1K31850   6.353   0.893   3.200
  613POPC   C1L31851   6.363   0.865   3.350
  613POPC   C1M31852   6.255   0.936   3.432
  613POPC   C1N31853   6.268   0.899   3.580
  613POPC   C1O31854   6.165   0.973   3.665
  613POPC   C1P31855   6.175   0.932   3.812
  613POPC   C1Q31856   6.069   1.004   3.896
  613POPC   C1R31857   6.074   0.958   4.041
  613POPC    CE31858   6.984   0.341   2.126
  613POPC    OG31859   6.978   0.253   2.239
  613POPC   C2A31860   7.077   0.165   2.252
  613POPC    OH31861   7.147   0.134   2.156
  613POPC   C2B31862   7.072   0.092   2.381
  613POPC   C2C31863   7.160   0.161   2.486
  613POPC   C2D31864   7.144   0.094   2.623
  613POPC   C2E31865   7.227   0.162   2.733
  613POPC   C2F31866   7.189   0.309   2.752
  613POPC   C2G31867   7.267   0.376   2.865
  613POPC   C2H31868   7.212   0.342   3.003
  613POPC   C2I31869   7.287   0.419   3.112
  613POPC   C2J31870   7.219   0.404   3.247
  613POPC   C2K31871   7.299   0.474   3.357
  613POPC   C2L31872   7.223   0.471   3.490
  613POPC   C2M31873   7.307   0.532   3.602
  613POPC   C2N31874   7.225   0.547   3.730
  613POPC   C2O31875   7.310   0.605   3.843
  613POPC   C2P31876   7.226   0.627   3.969
  614POPC   CN131877   7.428   2.292   1.370
  614POPC   CN231878   7.389   2.092   1.493
  614POPC   CN331879   7.464   2.290   1.605
  614POPC   NTM31880   7.378   2.239   1.497
  614POPC    CA31881   7.238   2.284   1.514
  614POPC    CB31882   7.154   2.247   1.639
  614POPC    OA31883   7.141   2.108   1.665
  614POPC     P31884   7.022   2.075   1.763
  614POPC    OB31885   6.915   2.171   1.734
  614POPC    OC31886   7.000   1.930   1.747
  614POPC    OD31887   7.089   2.109   1.901
  614POPC    CC31888   7.175   2.005   1.947
  614POPC    CD31889   7.126   1.933   2.075
  614POPC    OE31890   6.996   1.869   2.065
  614POPC   C1A31891   6.986   1.747   2.011
  614POPC    OF31892   7.083   1.686   1.966
  614POPC   C1B31893   6.846   1.699   2.008
  614POPC   C1C31894   6.799   1.630   2.137
  614POPC   C1D31895   6.866   1.495   2.165
  614POPC   C1E31896   6.799   1.419   2.279
  614POPC   C1F31897   6.815   1.489   2.414
  614POPC   C1G31898   6.733   1.422   2.523
  614POPC   C1H31899   6.750   1.499   2.654
  614POPC   C1I31900   6.664   1.444   2.768
  614POPC   C1J31901   6.714   1.442   2.891
  614POPC   C1K31902   6.857   1.491   2.913
  614POPC   C1L31903   6.888   1.532   3.057
  614POPC   C1M31904   6.812   1.658   3.101
  614POPC   C1N31905   6.863   1.713   3.235
  614POPC   C1O31906   7.004   1.773   3.227
  614POPC   C1P31907   7.010   1.895   3.135
  614POPC   C1Q31908   7.150   1.956   3.125
  614POPC   C1R31909   7.192   2.025   3.255
  614POPC    CE31910   7.128   2.039   2.186
  614POPC    OG31911   7.259   2.081   2.228
  614POPC   C2A31912   7.265   2.181   2.315
  614POPC    OH31913   7.164   2.240   2.352
  614POPC   C2B31914   7.404   2.214   2.353
  614POPC   C2C31915   7.420   2.244   2.502
  614POPC   C2D31916   7.567   2.277   2.533
  614POPC   C2E31917   7.593   2.306   2.681
  614POPC   C2F31918   7.523   2.433   2.730
  614POPC   C2G31919   7.562   2.472   2.873
  614POPC   C2H31920   7.517   2.370   2.978
  614POPC   C2I31921   7.561   2.417   3.117
  614POPC   C2J31922   7.523   2.316   3.226
  614POPC   C2K31923   7.571   2.367   3.362
  614POPC   C2L31924   7.536   2.269   3.474
  614POPC   C2M31925   7.585   2.322   3.609
  614POPC   C2N31926   7.554   2.227   3.725
  614POPC   C2O31927   7.404   2.214   3.752
  614POPC   C2P31928   7.378   2.120   3.870
  615POPC   CN131929   6.127   2.692   1.594
  615POPC   CN231930   6.130   2.901   1.711
  615POPC   CN331931   5.923   2.795   1.662
  615POPC   NTM31932   6.062   2.771   1.700
  615POPC    CA31933   6.062   2.698   1.830
  615POPC    CB31934   6.194   2.647   1.893
  615POPC    OA31935   6.288   2.749   1.927
  615POPC     P31936   6.430   2.696   1.965
  615POPC    OB31937   6.462   2.588   1.871
  615POPC    OC31938   6.520   2.812   1.976
  615POPC    OD31939   6.406   2.633   2.107
  615POPC    CC31940   6.364   2.728   2.205
  615POPC    CD31941   6.311   2.659   2.332
  615POPC    OE31942   6.221   2.743   2.410
  615POPC   C1A31943   6.150   2.684   2.506
  615POPC    OF31944   6.144   2.561   2.513
  615POPC   C1B31945   6.072   2.779   2.589
  615POPC   C1C31946   6.123   2.778   2.734
  615POPC   C1D31947   6.047   2.878   2.821
  615POPC   C1E31948   6.082   2.863   2.970
  615POPC   C1F31949   6.227   2.899   3.003
  615POPC   C1G31950   6.260   2.868   3.149
  615POPC   C1H31951   6.184   2.958   3.246
  615POPC   C1I31952   6.189   2.904   3.389
  615POPC   C1J31953   6.166   2.980   3.495
  615POPC   C1K31954   6.133   3.130   3.486
  615POPC   C1L31955   5.986   3.165   3.510
  615POPC   C1M31956   5.899   3.142   3.386
  615POPC   C1N31957   5.754   3.186   3.408
  615POPC   C1O31958   5.670   3.173   3.281
  615POPC   C1P31959   5.644   3.026   3.243
  615POPC   C1Q31960   5.571   3.012   3.109
  615POPC   C1R31961   5.661   3.048   2.990
  615POPC    CE31962   6.435   2.601   2.403
  615POPC    OG31963   6.529   2.701   2.448
  615POPC   C2A31964   6.626   2.661   2.530
  615POPC    OH31965   6.645   2.542   2.553
  615POPC   C2B31966   6.709   2.772   2.581
  615POPC   C2C31967   6.663   2.827   2.716
  615POPC   C2D31968   6.684   2.728   2.831
  615POPC   C2E31969   6.651   2.795   2.964
  615POPC   C2F31970   6.675   2.701   3.082
  615POPC   C2G31971   6.660   2.779   3.213
  615POPC   C2H31972   6.687   2.689   3.334
  615POPC   C2I31973   6.689   2.773   3.462
  615POPC   C2J31974   6.715   2.685   3.584
  615POPC   C2K31975   6.730   2.770   3.710
  615POPC   C2L31976   6.748   2.682   3.834
  615POPC   C2M31977   6.773   2.764   3.960
  615POPC   C2N31978   6.653   2.851   3.999
  615POPC   C2O31979   6.679   2.935   4.124
  615POPC   C2P31980   6.695   2.849   4.250
  616POPC   CN131981   7.064   3.217   1.883
  616POPC   CN231982   7.006   3.254   2.112
  616POPC   CN331983   7.205   3.346   2.024
  616POPC   NTM31984   7.066   3.315   1.993
  616POPC    CA31985   6.999   3.442   1.954
  616POPC    CB31986   6.852   3.442   1.907
  616POPC    OA31987   6.759   3.385   1.998
  616POPC     P31988   6.637   3.315   1.930
  616POPC    OB31989   6.511   3.376   1.974
  616POPC    OC31990   6.668   3.295   1.787
  616POPC    OD31991   6.653   3.177   2.003
  616POPC    CC31992   6.623   3.187   2.142
  616POPC    CD31993   6.586   3.056   2.212
  616POPC    OE31994   6.530   3.072   2.346
  616POPC   C1A31995   6.405   3.114   2.365
  616POPC    OF31996   6.331   3.135   2.269
  616POPC   C1B31997   6.362   3.121   2.507
  616POPC   C1C31998   6.470   3.175   2.602
  616POPC   C1D31999   6.427   3.166   2.749
  616POPC   C1E32000   6.546   3.205   2.837
  616POPC   C1F32001   6.517   3.187   2.986
  616POPC   C1G32002   6.645   3.212   3.065
  616POPC   C1H32003   6.628   3.185   3.215
  616POPC   C1I32004   6.764   3.198   3.284
  616POPC   C1J32005   6.774   3.228   3.413
  616POPC   C1K32006   6.650   3.251   3.500
  616POPC   C1L32007   6.674   3.206   3.645
  616POPC   C1M32008   6.782   3.289   3.716
  616POPC   C1N32009   6.816   3.230   3.853
  616POPC   C1O32010   6.934   3.305   3.915
  616POPC   C1P32011   6.976   3.242   4.048
  616POPC   C1Q32012   7.099   3.313   4.104
  616POPC   C1R32013   7.141   3.251   4.238
  616POPC    CE32014   6.709   2.964   2.206
  616POPC    OG32015   6.828   3.011   2.272
  616POPC   C2A32016   6.914   2.918   2.311
  616POPC    OH32017   6.886   2.798   2.306
  616POPC   C2B32018   7.036   2.974   2.373
  616POPC   C2C32019   7.023   2.994   2.524
  616POPC   C2D32020   7.158   3.029   2.586
  616POPC   C2E32021   7.149   3.076   2.731
  616POPC   C2F32022   7.103   2.968   2.830
  616POPC   C2G32023   7.088   3.030   2.969
  616POPC   C2H32024   7.046   2.930   3.077
  616POPC   C2I32025   7.159   2.831   3.111
  616POPC   C2J32026   7.119   2.743   3.229
  616POPC   C2K32027   7.231   2.645   3.264
  616POPC   C2L32028   7.198   2.558   3.386
  616POPC   C2M32029   7.194   2.639   3.516
  616POPC   C2N32030   7.167   2.548   3.636
  616POPC   C2O32031   7.163   2.627   3.766
  616POPC   C2P32032   7.136   2.535   3.885
  617POPC   CN132033   6.610   3.552   1.287
  617POPC   CN232034   6.778   3.387   1.310
  617POPC   CN332035   6.827   3.611   1.370
  617POPC   NTM32036   6.722   3.508   1.371
  617POPC    CA32037   6.678   3.474   1.509
  617POPC    CB32038   6.604   3.578   1.598
  617POPC    OA32039   6.673   3.701   1.621
  617POPC     P32040   6.579   3.810   1.686
  617POPC    OB32041   6.653   3.936   1.669
  617POPC    OC32042   6.444   3.796   1.628
  617POPC    OD32043   6.579   3.759   1.834
  617POPC    CC32044   6.679   3.819   1.916
  617POPC    CD32045   6.621   3.895   2.037
  617POPC    OE32046   6.719   3.979   2.104
  617POPC   C1A32047   6.681   4.099   2.148
  617POPC    OF32048   6.587   4.158   2.092
  617POPC   C1B32049   6.774   4.160   2.244
  617POPC   C1C32050   6.732   4.131   2.388
  617POPC   C1D32051   6.814   4.214   2.487
  617POPC   C1E32052   6.767   4.191   2.631
  617POPC   C1F32053   6.825   4.297   2.725
  617POPC   C1G32054   6.780   4.272   2.868
  617POPC   C1H32055   6.821   4.385   2.963
  617POPC   C1I32056   6.786   4.344   3.107
  617POPC   C1J32057   6.748   4.431   3.200
  617POPC   C1K32058   6.736   4.581   3.175
  617POPC   C1L32059   6.720   4.653   3.309
  617POPC   C1M32060   6.715   4.805   3.292
  617POPC   C1N32061   6.687   4.873   3.426
  617POPC   C1O32062   6.689   5.025   3.411
  617POPC   C1P32063   6.651   5.099   3.540
  617POPC   C1Q32064   6.501   5.089   3.573
  617POPC   C1R32065   6.415   5.165   3.472
  617POPC    CE32066   6.556   3.789   2.127
  617POPC    OG32067   6.649   3.690   2.173
  617POPC   C2A32068   6.612   3.612   2.273
  617POPC    OH32069   6.502   3.623   2.329
  617POPC   C2B32070   6.718   3.513   2.306
  617POPC   C2C32071   6.731   3.483   2.455
  617POPC   C2D32072   6.838   3.376   2.476
  617POPC   C2E32073   6.853   3.335   2.622
  617POPC   C2F32074   6.924   3.440   2.708
  617POPC   C2G32075   6.936   3.388   2.851
  617POPC   C2H32076   7.016   3.481   2.942
  617POPC   C2I32077   7.034   3.414   3.078
  617POPC   C2J32078   7.121   3.497   3.172
  617POPC   C2K32079   7.149   3.424   3.304
  617POPC   C2L32080   7.237   3.300   3.284
  617POPC   C2M32081   7.277   3.236   3.417
  617POPC   C2N32082   7.160   3.170   3.491
  617POPC   C2O32083   7.200   3.118   3.629
  617POPC   C2P32084   7.304   3.005   3.623
  618POPC   CN132085   7.167   4.968   1.852
  618POPC   CN232086   7.170   5.111   1.664
  618POPC   CN332087   7.027   4.921   1.663
  618POPC   NTM32088   7.083   5.028   1.747
  618POPC    CA32089   6.977   5.113   1.806
  618POPC    CB32090   6.855   5.048   1.877
  618POPC    OA32091   6.893   4.947   1.970
  618POPC     P32092   6.775   4.861   2.026
  618POPC    OB32093   6.688   4.835   1.909
  618POPC    OC32094   6.858   4.757   2.087
  618POPC    OD32095   6.717   4.970   2.122
  618POPC    CC32096   6.784   4.972   2.248
  618POPC    CD32097   6.805   5.113   2.307
  618POPC    OE32098   6.879   5.109   2.432
  618POPC   C1A32099   6.994   5.173   2.445
  618POPC    OF32100   7.044   5.234   2.350
  618POPC   C1B32101   7.048   5.158   2.582
  618POPC   C1C32102   7.198   5.128   2.587
  618POPC   C1D32103   7.237   5.082   2.728
  618POPC   C1E32104   7.182   4.942   2.758
  618POPC   C1F32105   7.211   4.898   2.901
  618POPC   C1G32106   7.171   4.752   2.920
  618POPC   C1H32107   7.204   4.702   3.061
  618POPC   C1I32108   7.181   4.551   3.069
  618POPC   C1J32109   7.149   4.492   3.184
  618POPC   C1K32110   7.134   4.573   3.313
  618POPC   C1L32111   7.144   4.482   3.435
  618POPC   C1M32112   7.121   4.562   3.563
  618POPC   C1N32113   7.126   4.476   3.690
  618POPC   C1O32114   7.009   4.378   3.699
  618POPC   C1P32115   7.006   4.302   3.832
  618POPC   C1Q32116   6.975   4.395   3.950
  618POPC   C1R32117   6.970   4.318   4.082
  618POPC    CE32118   6.666   5.178   2.317
  618POPC    OG32119   6.577   5.114   2.410
  618POPC   C2A32120   6.450   5.152   2.410
  618POPC    OH32121   6.402   5.211   2.313
  618POPC   C2B32122   6.374   5.098   2.526
  618POPC   C2C32123   6.348   5.204   2.634
  618POPC   C2D32124   6.475   5.253   2.703
  618POPC   C2E32125   6.447   5.366   2.803
  618POPC   C2F32126   6.363   5.320   2.922
  618POPC   C2G32127   6.330   5.439   3.013
  618POPC   C2H32128   6.242   5.401   3.133
  618POPC   C2I32129   6.103   5.351   3.092
  618POPC   C2J32130   6.009   5.334   3.212
  618POPC   C2K32131   6.060   5.232   3.314
  618POPC   C2L32132   5.966   5.220   3.434
  618POPC   C2M32133   6.024   5.128   3.541
  618POPC   C2N32134   5.929   5.115   3.660
  618POPC   C2O32135   5.987   5.029   3.772
  618POPC   C2P32136   6.105   5.096   3.843
  619POPC   CN132137   6.099   5.393   1.664
  619POPC   CN232138   6.124   5.621   1.598
  619POPC   CN332139   5.907   5.528   1.632
  619POPC   NTM32140   6.045   5.528   1.681
  619POPC    CA32141   6.042   5.569   1.823
  619POPC    CB32142   6.174   5.589   1.901
  619POPC    OA32143   6.260   5.476   1.904
  619POPC     P32144   6.403   5.514   1.956
  619POPC    OB32145   6.484   5.391   1.950
  619POPC    OC32146   6.443   5.638   1.887
  619POPC    OD32147   6.366   5.550   2.103
  619POPC    CC32148   6.475   5.534   2.194
  619POPC    CD32149   6.446   5.593   2.333
  619POPC    OE32150   6.552   5.571   2.429
  619POPC   C1A32151   6.658   5.652   2.435
  619POPC    OF32152   6.685   5.730   2.344
  619POPC   C1B32153   6.735   5.634   2.560
  619POPC   C1C32154   6.836   5.519   2.554
  619POPC   C1D32155   6.887   5.487   2.695
  619POPC   C1E32156   6.978   5.596   2.753
  619POPC   C1F32157   6.989   5.579   2.904
  619POPC   C1G32158   7.083   5.682   2.968
  619POPC   C1H32159   7.065   5.682   3.120
  619POPC   C1I32160   7.163   5.778   3.189
  619POPC   C1J32161   7.186   5.764   3.319
  619POPC   C1K32162   7.113   5.655   3.398
  619POPC   C1L32163   7.201   5.601   3.511
  619POPC   C1M32164   7.131   5.493   3.594
  619POPC   C1N32165   7.015   5.549   3.678
  619POPC   C1O32166   6.952   5.439   3.763
  619POPC   C1P32167   6.841   5.496   3.852
  619POPC   C1Q32168   6.781   5.387   3.941
  619POPC   C1R32169   6.674   5.445   4.034
  619POPC    CE32170   6.310   5.536   2.378
  619POPC    OG32171   6.257   5.592   2.500
  619POPC   C2A32172   6.155   5.529   2.557
  619POPC    OH32173   6.112   5.422   2.513
  619POPC   C2B32174   6.112   5.593   2.683
  619POPC   C2C32175   5.991   5.685   2.662
  619POPC   C2D32176   5.955   5.756   2.793
  619POPC   C2E32177   6.054   5.868   2.822
  619POPC   C2F32178   6.050   5.919   2.966
  619POPC   C2G32179   6.094   5.811   3.065
  619POPC   C2H32180   6.151   5.873   3.193
  619POPC   C2I32181   6.193   5.762   3.290
  619POPC   C2J32182   6.298   5.810   3.390
  619POPC   C2K32183   6.249   5.921   3.484
  619POPC   C2L32184   6.360   5.966   3.580
  619POPC   C2M32185   6.396   5.858   3.682
  619POPC   C2N32186   6.506   5.907   3.776
  619POPC   C2O32187   6.536   5.804   3.885
  619POPC   C2P32188   6.645   5.855   3.980
  620POPC   CN132189   7.518   5.951   2.147
  620POPC   CN232190   7.534   6.036   1.926
  620POPC   CN332191   7.351   6.100   2.068
  620POPC   NTM32192   7.495   6.070   2.064
  620POPC    CA32193   7.576   6.182   2.118
  620POPC    CB32194   7.580   6.320   2.047
  620POPC    OA32195   7.453   6.379   2.022
  620POPC     P32196   7.461   6.532   1.986
  620POPC    OB32197   7.585   6.557   1.912
  620POPC    OC32198   7.329   6.568   1.932
  620POPC    OD32199   7.481   6.583   2.133
  620POPC    CC32200   7.356   6.593   2.200
  620POPC    CD32201   7.365   6.636   2.348
  620POPC    OE32202   7.236   6.636   2.417
  620POPC   C1A32203   7.182   6.519   2.454
  620POPC    OF32204   7.228   6.412   2.414
  620POPC   C1B32205   7.058   6.536   2.535
  620POPC   C1C32206   7.026   6.416   2.623
  620POPC   C1D32207   6.910   6.443   2.719
  620POPC   C1E32208   6.953   6.529   2.838
  620POPC   C1F32209   6.843   6.551   2.942
  620POPC   C1G32210   6.729   6.637   2.887
  620POPC   C1H32211   6.620   6.667   2.990
  620POPC   C1I32212   6.508   6.747   2.923
  620POPC   C1J32213   6.435   6.835   2.990
  620POPC   C1K32214   6.457   6.860   3.139
  620POPC   C1L32215   6.328   6.913   3.204
  620POPC   C1M32216   6.341   6.930   3.355
  620POPC   C1N32217   6.439   7.042   3.394
  620POPC   C1O32218   6.450   7.058   3.546
  620POPC   C1P32219   6.513   6.936   3.613
  620POPC   C1Q32220   6.532   6.960   3.763
  620POPC   C1R32221   6.590   6.836   3.831
  620POPC    CE32222   7.439   6.771   2.345
  620POPC    OG32223   7.478   6.827   2.471
  620POPC   C2A32224   7.574   6.919   2.468
  620POPC    OH32225   7.651   6.927   2.372
  620POPC   C2B32226   7.595   6.984   2.600
  620POPC   C2C32227   7.649   6.882   2.700
  620POPC   C2D32228   7.657   6.934   2.844
  620POPC   C2E32229   7.678   6.812   2.934
  620POPC   C2F32230   7.701   6.847   3.081
  620POPC   C2G32231   7.711   6.717   3.160
  620POPC   C2H32232   7.756   6.741   3.304
  620POPC   C2I32233   7.764   6.608   3.380
  620POPC   C2J32234   7.837   6.622   3.514
  620POPC   C2K32235   7.986   6.649   3.494
  620POPC   C2L32236   8.063   6.659   3.626
  620POPC   C2M32237   8.027   6.785   3.705
  620POPC   C2N32238   8.107   6.790   3.836
  620POPC   C2O32239   8.078   6.917   3.914
  620POPC   C2P32240   8.157   6.919   4.045
  621POPC   CN132241   6.824   6.119   2.199
  621POPC   CN232242   6.636   6.201   2.075
  621POPC   CN332243   6.607   6.034   2.240
  621POPC   NTM32244   6.682   6.156   2.207
  621POPC    CA32245   6.659   6.257   2.313
  621POPC    CB32246   6.724   6.397   2.307
  621POPC    OA32247   6.685   6.480   2.197
  621POPC     P32248   6.759   6.618   2.191
  621POPC    OB32249   6.898   6.599   2.234
  621POPC    OC32250   6.727   6.678   2.061
  621POPC    OD32251   6.678   6.702   2.297
  621POPC    CC32252   6.751   6.739   2.414
  621POPC    CD32253   6.671   6.828   2.511
  621POPC    OE32254   6.749   6.874   2.625
  621POPC   C1A32255   6.718   6.990   2.681
  621POPC    OF32256   6.640   7.066   2.624
  621POPC   C1B32257   6.795   7.021   2.804
  621POPC   C1C32258   6.720   7.116   2.898
  621POPC   C1D32259   6.796   7.137   3.029
  621POPC   C1E32260   6.725   7.241   3.118
  621POPC   C1F32261   6.797   7.258   3.252
  621POPC   C1G32262   6.733   7.370   3.335
  621POPC   C1H32263   6.798   7.387   3.473
  621POPC   C1I32264   6.757   7.276   3.570
  621POPC   C1J32265   6.762   7.295   3.702
  621POPC   C1K32266   6.811   7.426   3.763
  621POPC   C1L32267   6.752   7.447   3.903
  621POPC   C1M32268   6.825   7.560   3.977
  621POPC   C1N32269   6.766   7.588   4.115
  621POPC   C1O32270   6.633   7.663   4.106
  621POPC   C1P32271   6.568   7.689   4.242
  621POPC   C1Q32272   6.514   7.561   4.306
  621POPC   C1R32273   6.442   7.591   4.437
  621POPC    CE32274   6.541   6.752   2.543
  621POPC    OG32275   6.554   6.615   2.587
  621POPC   C2A32276   6.441   6.550   2.614
  621POPC    OH32277   6.331   6.602   2.595
  621POPC   C2B32278   6.464   6.415   2.670
  621POPC   C2C32279   6.373   6.393   2.791
  621POPC   C2D32280   6.388   6.252   2.849
  621POPC   C2E32281   6.293   6.228   2.966
  621POPC   C2F32282   6.337   6.301   3.093
  621POPC   C2G32283   6.239   6.276   3.207
  621POPC   C2H32284   6.289   6.329   3.341
  621POPC   C2I32285   6.301   6.482   3.344
  621POPC   C2J32286   6.357   6.532   3.478
  621POPC   C2K32287   6.505   6.499   3.497
  621POPC   C2L32288   6.596   6.584   3.408
  621POPC   C2M32289   6.744   6.554   3.434
  621POPC   C2N32290   6.835   6.650   3.356
  621POPC   C2O32291   6.823   6.794   3.407
  621POPC   C2P32292   6.906   6.889   3.323
  622POPC   CN132293   6.407   7.739   1.773
  622POPC   CN232294   6.219   7.662   1.899
  622POPC   CN332295   6.426   7.547   1.911
  622POPC   NTM32296   6.365   7.680   1.901
  622POPC    CA32297   6.410   7.761   2.016
  622POPC    CB32298   6.352   7.902   2.042
  622POPC    OA32299   6.366   8.000   1.938
  622POPC     P32300   6.241   8.097   1.935
  622POPC    OB32301   6.266   8.187   1.821
  622POPC    OC32302   6.122   8.010   1.942
  622POPC    OD32303   6.258   8.170   2.073
  622POPC    CC32304   6.336   8.288   2.062
  622POPC    CD32305   6.371   8.360   2.193
  622POPC    OE32306   6.485   8.301   2.263
  622POPC   C1A32307   6.561   8.386   2.332
  622POPC    OF32308   6.571   8.502   2.293
  622POPC   C1B32309   6.656   8.318   2.424
  622POPC   C1C32310   6.663   8.384   2.562
  622POPC   C1D32311   6.537   8.362   2.646
  622POPC   C1E32312   6.562   8.404   2.790
  622POPC   C1F32313   6.438   8.394   2.880
  622POPC   C1G32314   6.388   8.251   2.900
  622POPC   C1H32315   6.278   8.250   3.006
  622POPC   C1I32316   6.220   8.110   3.033
  622POPC   C1J32317   6.259   8.035   3.136
  622POPC   C1K32318   6.369   8.079   3.233
  622POPC   C1L32319   6.499   8.003   3.204
  622POPC   C1M32320   6.621   8.067   3.270
  622POPC   C1N32321   6.632   8.047   3.422
  622POPC   C1O32322   6.656   7.901   3.461
  622POPC   C1P32323   6.723   7.887   3.598
  622POPC   C1Q32324   6.641   7.947   3.712
  622POPC   C1R32325   6.719   7.941   3.844
  622POPC    CE32326   6.239   8.376   2.270
  622POPC    OG32327   6.251   8.453   2.391
  622POPC   C2A32328   6.141   8.476   2.462
  622POPC    OH32329   6.031   8.431   2.430
  622POPC   C2B32330   6.173   8.551   2.586
  622POPC   C2C32331   6.058   8.633   2.643
  622POPC   C2D32332   6.099   8.678   2.783
  622POPC   C2E32333   5.986   8.746   2.861
  622POPC   C2F32334   6.023   8.761   3.009
  622POPC   C2G32335   6.034   8.623   3.076
  622POPC   C2H32336   6.079   8.630   3.222
  622POPC   C2I32337   6.087   8.487   3.275
  622POPC   C2J32338   6.134   8.480   3.420
  622POPC   C2K32339   6.140   8.334   3.465
  622POPC   C2L32340   6.193   8.321   3.607
  622POPC   C2M32341   6.200   8.173   3.647
  622POPC   C2N32342   6.261   8.158   3.787
  622POPC   C2O32343   6.261   8.011   3.829
  622POPC   C2P32344   6.327   7.993   3.965
  623POPC   CN132345   6.640   9.005   1.782
  623POPC   CN232346   6.487   8.981   1.965
  623POPC   CN332347   6.587   8.789   1.868
  623POPC   NTM32348   6.610   8.929   1.904
  623POPC    CA32349   6.723   8.931   2.000
  623POPC    CB32350   6.773   9.066   2.056
  623POPC    OA32351   6.680   9.139   2.136
  623POPC     P32352   6.741   9.270   2.198
  623POPC    OB32353   6.808   9.339   2.087
  623POPC    OC32354   6.637   9.337   2.277
  623POPC    OD32355   6.848   9.202   2.291
  623POPC    CC32356   6.790   9.149   2.410
  623POPC    CD32357   6.884   9.059   2.491
  623POPC    OE32358   6.817   9.000   2.606
  623POPC   C1A32359   6.758   8.882   2.591
  623POPC    OF32360   6.761   8.822   2.483
  623POPC   C1B32361   6.691   8.834   2.714
  623POPC   C1C32362   6.539   8.853   2.707
  623POPC   C1D32363   6.469   8.794   2.830
  623POPC   C1E32364   6.480   8.880   2.956
  623POPC   C1F32365   6.382   8.998   2.952
  623POPC   C1G32366   6.381   9.079   3.082
  623POPC   C1H32367   6.332   8.996   3.201
  623POPC   C1I32368   6.326   9.081   3.329
  623POPC   C1J32369   6.344   9.024   3.448
  623POPC   C1K32370   6.374   8.875   3.458
  623POPC   C1L32371   6.454   8.841   3.584
  623POPC   C1M32372   6.369   8.829   3.712
  623POPC   C1N32373   6.278   8.706   3.706
  623POPC   C1O32374   6.203   8.677   3.836
  623POPC   C1P32375   6.297   8.633   3.949
  623POPC   C1Q32376   6.222   8.579   4.071
  623POPC   C1R32377   6.137   8.685   4.142
  623POPC    CE32378   7.009   9.144   2.521
  623POPC    OG32379   7.119   9.075   2.582
  623POPC   C2A32380   7.234   9.142   2.594
  623POPC    OH32381   7.258   9.238   2.522
  623POPC   C2B32382   7.334   9.070   2.676
  623POPC   C2C32383   7.310   9.091   2.826
  623POPC   C2D32384   7.414   9.012   2.906
  623POPC   C2E32385   7.395   9.026   3.057
  623POPC   C2F32386   7.269   8.956   3.108
  623POPC   C2G32387   7.267   8.956   3.261
  623POPC   C2H32388   7.146   8.881   3.315
  623POPC   C2I32389   7.154   8.869   3.467
  623POPC   C2J32390   7.033   8.793   3.523
  623POPC   C2K32391   7.048   8.772   3.674
  623POPC   C2L32392   6.930   8.693   3.731
  623POPC   C2M32393   6.801   8.776   3.743
  623POPC   C2N32394   6.802   8.872   3.863
  623POPC   C2O32395   6.794   8.798   3.996
  623POPC   C2P32396   6.796   8.896   4.113
  624POPC   CN132397   6.730  10.151   1.543
  624POPC   CN232398   6.821  10.247   1.740
  624POPC   CN332399   6.688  10.050   1.754
  624POPC   NTM32400   6.789  10.120   1.674
  624POPC    CA32401   6.912  10.040   1.653
  624POPC    CB32402   7.002  10.002   1.773
  624POPC    OA32403   6.937   9.927   1.875
  624POPC     P32404   7.032   9.908   1.998
  624POPC    OB32405   7.153   9.850   1.940
  624POPC    OC32406   7.026  10.042   2.059
  624POPC    OD32407   6.937   9.800   2.061
  624POPC    CC32408   6.839   9.860   2.145
  624POPC    CD32409   6.720   9.770   2.186
  624POPC    OE32410   6.612   9.847   2.246
  624POPC   C1A32411   6.489   9.796   2.250
  624POPC    OF32412   6.462   9.693   2.189
  624POPC   C1B32413   6.391   9.883   2.319
  624POPC   C1C32414   6.314   9.811   2.430
  624POPC   C1D32415   6.401   9.765   2.548
  624POPC   C1E32416   6.466   9.884   2.620
  624POPC   C1F32417   6.551   9.837   2.738
  624POPC   C1G32418   6.623   9.957   2.801
  624POPC   C1H32419   6.703   9.920   2.926
  624POPC   C1I32420   6.824   9.829   2.898
  624POPC   C1J32421   6.869   9.752   2.995
  624POPC   C1K32422   6.801   9.757   3.132
  624POPC   C1L32423   6.897   9.722   3.245
  624POPC   C1M32424   6.827   9.741   3.379
  624POPC   C1N32425   6.914   9.702   3.498
  624POPC   C1O32426   6.842   9.739   3.627
  624POPC   C1P32427   6.918   9.694   3.751
  624POPC   C1Q32428   6.848   9.738   3.880
  624POPC   C1R32429   6.709   9.675   3.896
  624POPC    CE32430   6.779   9.651   2.265
  624POPC    OG32431   6.863   9.686   2.377
  624POPC   C2A32432   6.935   9.589   2.432
  624POPC    OH32433   6.949   9.481   2.376
  624POPC   C2B32434   7.013   9.634   2.550
  624POPC   C2C32435   7.036   9.523   2.652
  624POPC   C2D32436   7.122   9.573   2.768
  624POPC   C2E32437   7.135   9.470   2.880
  624POPC   C2F32438   7.208   9.532   2.999
  624POPC   C2G32439   7.204   9.443   3.123
  624POPC   C2H32440   7.250   9.524   3.245
  624POPC   C2I32441   7.225   9.452   3.377
  624POPC   C2J32442   7.336   9.352   3.413
  624POPC   C2K32443   7.306   9.278   3.545
  624POPC   C2L32444   7.291   9.373   3.664
  624POPC   C2M32445   7.251   9.297   3.791
  624POPC   C2N32446   7.214   9.391   3.906
  624POPC   C2O32447   7.333   9.469   3.960
  624POPC   C2P32448   7.290   9.563   4.073
  625POPC   CN132449   5.950  11.095   2.461
  625POPC   CN232450   6.048  10.964   2.635
  625POPC   CN332451   5.837  11.065   2.668
  625POPC   NTM32452   5.922  10.999   2.569
  625POPC    CA32453   5.850  10.880   2.518
  625POPC    CB32454   5.911  10.792   2.407
  625POPC    OA32455   6.034  10.729   2.439
  625POPC     P32456   6.084  10.636   2.324
  625POPC    OB32457   6.063  10.497   2.369
  625POPC    OC32458   6.034  10.685   2.194
  625POPC    OD32459   6.234  10.676   2.332
  625POPC    CC32460   6.306  10.605   2.433
  625POPC    CD32461   6.456  10.640   2.433
  625POPC    OE32462   6.542  10.534   2.484
  625POPC   C1A32463   6.671  10.536   2.449
  625POPC    OF32464   6.707  10.604   2.353
  625POPC   C1B32465   6.753  10.430   2.512
  625POPC   C1C32466   6.889  10.481   2.559
  625POPC   C1D32467   6.982  10.366   2.602
  625POPC   C1E32468   6.928  10.284   2.720
  625POPC   C1F32469   6.939  10.356   2.855
  625POPC   C1G32470   6.874  10.268   2.962
  625POPC   C1H32471   6.891  10.324   3.103
  625POPC   C1I32472   6.816  10.234   3.201
  625POPC   C1J32473   6.803  10.265   3.329
  625POPC   C1K32474   6.867  10.391   3.387
  625POPC   C1L32475   6.899  10.368   3.535
  625POPC   C1M32476   6.970  10.488   3.598
  625POPC   C1N32477   7.007  10.456   3.743
  625POPC   C1O32478   7.087  10.570   3.806
  625POPC   C1P32479   7.128  10.533   3.948
  625POPC   C1Q32480   7.212  10.645   4.011
  625POPC   C1R32481   7.252  10.609   4.155
  625POPC    CE32482   6.465  10.782   2.493
  625POPC    OG32483   6.437  10.792   2.634
  625POPC   C2A32484   6.418  10.915   2.681
  625POPC    OH32485   6.369  11.002   2.609
  625POPC   C2B32486   6.422  10.919   2.829
  625POPC   C2C32487   6.487  11.047   2.882
  625POPC   C2D32488   6.507  11.040   3.033
  625POPC   C2E32489   6.574  11.168   3.085
  625POPC   C2F32490   6.599  11.163   3.236
  625POPC   C2G32491   6.666  11.293   3.280
  625POPC   C2H32492   6.698  11.296   3.430
  625POPC   C2I32493   6.764  11.430   3.463
  625POPC   C2J32494   6.800  11.447   3.611
  625POPC   C2K32495   6.909  11.351   3.657
  625POPC   C2L32496   6.956  11.386   3.798
  625POPC   C2M32497   7.059  11.285   3.849
  625POPC   C2N32498   7.110  11.325   3.987
  625POPC   C2O32499   7.205  11.221   4.047
  625POPC   C2P32500   7.134  11.090   4.081
  626POPC   CN132501   7.806  11.717   2.387
  626POPC   CN232502   7.688  11.881   2.511
  626POPC   CN332503   7.685  11.885   2.271
  626POPC   NTM32504   7.684  11.798   2.390
  626POPC    CA32505   7.566  11.707   2.390
  626POPC    CB32506   7.423  11.766   2.380
  626POPC    OA32507   7.388  11.860   2.481
  626POPC     P32508   7.283  11.965   2.430
  626POPC    OB32509   7.270  12.075   2.526
  626POPC    OC32510   7.314  11.997   2.289
  626POPC    OD32511   7.150  11.881   2.430
  626POPC    CC32512   7.085  11.880   2.558
  626POPC    CD32513   6.943  11.824   2.549
  626POPC    OE32514   6.850  11.873   2.650
  626POPC   C1A32515   6.775  11.980   2.624
  626POPC    OF32516   6.768  12.026   2.510
  626POPC   C1B32517   6.690  12.018   2.739
  626POPC   C1C32518   6.682  12.170   2.757
  626POPC   C1D32519   6.583  12.211   2.866
  626POPC   C1E32520   6.625  12.168   3.007
  626POPC   C1F32521   6.521  12.217   3.108
  626POPC   C1G32522   6.559  12.183   3.252
  626POPC   C1H32523   6.450  12.232   3.347
  626POPC   C1I32524   6.481  12.199   3.493
  626POPC   C1J32525   6.382  12.162   3.574
  626POPC   C1K32526   6.241  12.151   3.517
  626POPC   C1L32527   6.177  12.014   3.547
  626POPC   C1M32528   6.124  12.001   3.689
  626POPC   C1N32529   6.068  11.860   3.711
  626POPC   C1O32530   5.985  11.848   3.839
  626POPC   C1P32531   5.851  11.923   3.827
  626POPC   C1Q32532   5.762  11.903   3.950
  626POPC   C1R32533   5.711  11.759   3.962
  626POPC    CE32534   6.955  11.672   2.536
  626POPC    OG32535   7.008  11.603   2.650
  626POPC   C2A32536   6.996  11.471   2.652
  626POPC    OH32537   6.960  11.408   2.552
  626POPC   C2B32538   7.035  11.411   2.781
  626POPC   C2C32539   6.913  11.392   2.873
  626POPC   C2D32540   6.952  11.325   3.004
  626POPC   C2E32541   7.045  11.412   3.089
  626POPC   C2F32542   7.085  11.341   3.218
  626POPC   C2G32543   7.186  11.425   3.295
  626POPC   C2H32544   7.232  11.353   3.422
  626POPC   C2I32545   7.338  11.435   3.494
  626POPC   C2J32546   7.384  11.367   3.623
  626POPC   C2K32547   7.491  11.452   3.692
  626POPC   C2L32548   7.538  11.387   3.822
  626POPC   C2M32549   7.651  11.470   3.883
  626POPC   C2N32550   7.707  11.402   4.008
  626POPC   C2O32551   7.826  11.481   4.062
  626POPC   C2P32552   7.884  11.414   4.187
  627POPC   CN132553   6.809  12.119   2.125
  627POPC   CN232554   6.974  12.150   2.297
  627POPC   CN332555   6.986  11.965   2.148
  627POPC   NTM32556   6.952  12.107   2.158
  627POPC    CA32557   7.036  12.184   2.063
  627POPC    CB32558   7.038  12.339   2.067
  627POPC    OA32559   6.912  12.406   2.059
  627POPC     P32560   6.931  12.560   2.033
  627POPC    OB32561   7.045  12.578   1.942
  627POPC    OC32562   6.797  12.607   1.995
  627POPC    OD32563   6.969  12.603   2.180
  627POPC    CC32564   6.854  12.635   2.259
  627POPC    CD32565   6.882  12.667   2.407
  627POPC    OE32566   6.760  12.699   2.479
  627POPC   C1A32567   6.692  12.602   2.540
  627POPC    OF32568   6.729  12.485   2.532
  627POPC   C1B32569   6.567  12.651   2.602
  627POPC   C1C32570   6.534  12.583   2.735
  627POPC   C1D32571   6.399  12.633   2.786
  627POPC   C1E32572   6.357  12.563   2.916
  627POPC   C1F32573   6.215  12.606   2.954
  627POPC   C1G32574   6.165  12.538   3.081
  627POPC   C1H32575   6.238  12.587   3.207
  627POPC   C1I32576   6.177  12.526   3.333
  627POPC   C1J32577   6.172  12.598   3.444
  627POPC   C1K32578   6.227  12.741   3.444
  627POPC   C1L32579   6.150  12.836   3.535
  627POPC   C1M32580   6.170  12.806   3.683
  627POPC   C1N32581   6.089  12.906   3.767
  627POPC   C1O32582   6.103  12.877   3.917
  627POPC   C1P32583   6.021  12.979   3.995
  627POPC   C1Q32584   6.034  12.960   4.146
  627POPC   C1R32585   5.960  13.072   4.219
  627POPC    CE32586   6.987  12.779   2.408
  627POPC    OG32587   7.055  12.803   2.533
  627POPC   C2A32588   7.001  12.891   2.618
  627POPC    OH32589   6.909  12.966   2.582
  627POPC   C2B32590   7.075  12.897   2.746
  627POPC   C2C32591   7.070  13.033   2.817
  627POPC   C2D32592   6.938  13.058   2.890
  627POPC   C2E32593   6.929  13.200   2.947
  627POPC   C2F32594   7.022  13.227   3.066
  627POPC   C2G32595   6.969  13.164   3.196
  627POPC   C2H32596   7.059  13.200   3.314
  627POPC   C2I32597   7.000  13.147   3.445
  627POPC   C2J32598   7.091  13.180   3.564
  627POPC   C2K32599   7.032  13.124   3.693
  627POPC   C2L32600   7.123  13.151   3.813
  627POPC   C2M32601   7.058  13.101   3.942
  627POPC   C2N32602   7.146  13.130   4.063
  627POPC   C2O32603   7.079  13.081   4.192
  627POPC   C2P32604   7.165  13.111   4.314
  628POPC   CN132605   7.472  12.561   2.046
  628POPC   CN232606   7.328  12.660   2.205
  628POPC   CN332607   7.511  12.785   2.112
  628POPC   NTM32608   7.406  12.686   2.083
  628POPC    CA32609   7.321  12.729   1.969
  628POPC    CB32610   7.246  12.864   1.972
  628POPC    OA32611   7.160  12.882   2.085
  628POPC     P32612   7.084  13.018   2.089
  628POPC    OB32613   7.064  13.072   1.953
  628POPC    OC32614   6.972  13.006   2.182
  628POPC    OD32615   7.197  13.105   2.157
  628POPC    CC32616   7.213  13.071   2.295
  628POPC    CD32617   7.330  13.141   2.368
  628POPC    OE32618   7.372  13.074   2.489
  628POPC   C1A32619   7.464  12.978   2.485
  628POPC    OF32620   7.531  12.960   2.382
  628POPC   C1B32621   7.487  12.911   2.615
  628POPC   C1C32622   7.607  12.974   2.688
  628POPC   C1D32623   7.635  12.911   2.824
  628POPC   C1E32624   7.525  12.940   2.927
  628POPC   C1F32625   7.563  12.889   3.065
  628POPC   C1G32626   7.458  12.930   3.168
  628POPC   C1H32627   7.499  12.894   3.311
  628POPC   C1I32628   7.402  12.960   3.409
  628POPC   C1J32629   7.374  12.908   3.528
  628POPC   C1K32630   7.439  12.778   3.578
  628POPC   C1L32631   7.405  12.753   3.725
  628POPC   C1M32632   7.258  12.713   3.745
  628POPC   C1N32633   7.220  12.706   3.893
  628POPC   C1O32634   7.072  12.670   3.908
  628POPC   C1P32635   7.023  12.676   4.052
  628POPC   C1Q32636   7.088  12.571   4.142
  628POPC   C1R32637   7.028  12.575   4.283
  628POPC    CE32638   7.293  13.290   2.382
  628POPC    OG32639   7.173  13.317   2.456
  628POPC   C2A32640   7.155  13.443   2.495
  628POPC    OH32641   7.232  13.534   2.460
  628POPC   C2B32642   7.038  13.460   2.583
  628POPC   C2C32643   7.065  13.562   2.694
  628POPC   C2D32644   6.941  13.582   2.782
  628POPC   C2E32645   6.967  13.681   2.896
  628POPC   C2F32646   7.065  13.624   3.000
  628POPC   C2G32647   7.099  13.727   3.108
  628POPC   C2H32648   6.983  13.759   3.204
  628POPC   C2I32649   6.956  13.644   3.302
  628POPC   C2J32650   6.856  13.689   3.409
  628POPC   C2K32651   6.843  13.584   3.518
  628POPC   C2L32652   6.756  13.636   3.633
  628POPC   C2M32653   6.752  13.537   3.749
  628POPC   C2N32654   6.672  13.596   3.865
  628POPC   C2O32655   6.665  13.498   3.982
  628POPC   C2P32656   6.574  13.554   4.092
  629POPC   CN132657   6.630  15.489   1.705
  629POPC   CN232658   6.843  15.408   1.769
  629POPC   CN332659   6.650  15.359   1.901
  629POPC   NTM32660   6.700  15.375   1.764
  629POPC    CA32661   6.673  15.254   1.683
  629POPC    CB32662   6.727  15.114   1.724
  629POPC    OA32663   6.870  15.103   1.732
  629POPC     P32664   6.912  14.970   1.804
  629POPC    OB32665   6.826  14.861   1.752
  629POPC    OC32666   7.058  14.962   1.794
  629POPC    OD32667   6.871  15.009   1.950
  629POPC    CC32668   6.966  15.093   2.017
  629POPC    CD32669   6.914  15.152   2.149
  629POPC    OE32670   7.009  15.244   2.211
  629POPC   C1A32671   6.984  15.374   2.197
  629POPC    OF32672   6.877  15.413   2.147
  629POPC   C1B32673   7.090  15.460   2.254
  629POPC   C1C32674   7.058  15.509   2.395
  629POPC   C1D32675   6.956  15.623   2.395
  629POPC   C1E32676   6.836  15.592   2.485
  629POPC   C1F32677   6.874  15.584   2.633
  629POPC   C1G32678   6.751  15.548   2.716
  629POPC   C1H32679   6.782  15.531   2.865
  629POPC   C1I32680   6.811  15.663   2.937
  629POPC   C1J32681   6.780  15.672   3.066
  629POPC   C1K32682   6.716  15.550   3.133
  629POPC   C1L32683   6.679  15.574   3.280
  629POPC   C1M32684   6.803  15.581   3.370
  629POPC   C1N32685   6.762  15.586   3.517
  629POPC   C1O32686   6.886  15.593   3.606
  629POPC   C1P32687   6.847  15.591   3.754
  629POPC   C1Q32688   6.971  15.599   3.842
  629POPC   C1R32689   6.932  15.595   3.990
  629POPC    CE32690   6.867  15.033   2.236
  629POPC    OG32691   6.817  15.067   2.366
  629POPC   C2A32692   6.900  15.049   2.469
  629POPC    OH32693   7.006  14.987   2.453
  629POPC   C2B32694   6.849  15.099   2.599
  629POPC   C2C32695   6.966  15.123   2.695
  629POPC   C2D32696   6.927  15.179   2.832
  629POPC   C2E32697   6.843  15.082   2.915
  629POPC   C2F32698   6.824  15.135   3.057
  629POPC   C2G32699   6.945  15.109   3.147
  629POPC   C2H32700   6.923  15.175   3.283
  629POPC   C2I32701   7.010  15.116   3.393
  629POPC   C2J32702   6.982  15.190   3.524
  629POPC   C2K32703   7.047  15.122   3.645
  629POPC   C2L32704   7.030  15.211   3.769
  629POPC   C2M32705   7.077  15.144   3.898
  629POPC   C2N32706   6.980  15.035   3.944
  629POPC   C2O32707   7.023  14.979   4.080
  629POPC   C2P32708   6.921  14.877   4.131
  630POPC   CN132709   7.275  16.121   1.698
  630POPC   CN232710   7.163  16.067   1.904
  630POPC   CN332711   7.129  15.938   1.708
  630POPC   NTM32712   7.229  16.012   1.785
  630POPC    CA32713   7.341  15.920   1.820
  630POPC    CB32714   7.452  15.959   1.922
  630POPC    OA32715   7.515  16.087   1.910
  630POPC     P32716   7.646  16.091   1.999
  630POPC    OB32717   7.724  15.968   1.978
  630POPC    OC32718   7.710  16.221   1.979
  630POPC    OD32719   7.583  16.087   2.142
  630POPC    CC32720   7.535  16.213   2.187
  630POPC    CD32721   7.475  16.208   2.328
  630POPC    OE32722   7.404  16.329   2.368
  630POPC   C1A32723   7.273  16.335   2.343
  630POPC    OF32724   7.215  16.239   2.293
  630POPC   C1B32725   7.210  16.462   2.383
  630POPC   C1C32726   7.137  16.446   2.517
  630POPC   C1D32727   7.065  16.575   2.556
  630POPC   C1E32728   6.996  16.562   2.692
  630POPC   C1F32729   7.096  16.553   2.809
  630POPC   C1G32730   7.164  16.687   2.837
  630POPC   C1H32731   7.269  16.672   2.947
  630POPC   C1I32732   7.341  16.805   2.972
  630POPC   C1J32733   7.409  16.825   3.084
  630POPC   C1K32734   7.418  16.717   3.193
  630POPC   C1L32735   7.325  16.749   3.310
  630POPC   C1M32736   7.333  16.641   3.418
  630POPC   C1N32737   7.235  16.673   3.531
  630POPC   C1O32738   7.239  16.566   3.640
  630POPC   C1P32739   7.134  16.591   3.748
  630POPC   C1Q32740   7.161  16.717   3.829
  630POPC   C1R32741   7.050  16.742   3.931
  630POPC    CE32742   7.588  16.163   2.422
  630POPC    OG32743   7.703  16.250   2.432
  630POPC   C2A32744   7.807  16.197   2.496
  630POPC    OH32745   7.817  16.075   2.510
  630POPC   C2B32746   7.910  16.295   2.537
  630POPC   C2C32747   7.950  16.265   2.681
  630POPC   C2D32748   8.057  16.358   2.737
  630POPC   C2E32749   8.076  16.320   2.883
  630POPC   C2F32750   8.180  16.405   2.957
  630POPC   C2G32751   8.189  16.362   3.104
  630POPC   C2H32752   8.057  16.388   3.179
  630POPC   C2I32753   8.059  16.338   3.324
  630POPC   C2J32754   8.163  16.411   3.409
  630POPC   C2K32755   8.148  16.377   3.557
  630POPC   C2L32756   8.257  16.449   3.637
  630POPC   C2M32757   8.233  16.435   3.787
  630POPC   C2N32758   8.345  16.505   3.865
  630POPC   C2O32759   8.319  16.509   4.015
  630POPC   C2P32760   8.205  16.605   4.052
  631POPC   CN132761   8.095  15.941   1.682
  631POPC   CN232762   8.145  15.873   1.904
  631POPC   CN332763   8.265  16.053   1.802
  631POPC   NTM32764   8.133  15.989   1.815
  631POPC    CA32765   8.029  16.085   1.860
  631POPC    CB32766   8.030  16.141   2.004
  631POPC    OA32767   8.145  16.216   2.045
  631POPC     P32768   8.127  16.244   2.199
  631POPC    OB32769   8.015  16.336   2.217
  631POPC    OC32770   8.127  16.111   2.262
  631POPC    OD32771   8.263  16.313   2.231
  631POPC    CC32772   8.279  16.317   2.373
  631POPC    CD32773   8.385  16.416   2.422
  631POPC    OE32774   8.432  16.385   2.556
  631POPC   C1A32775   8.562  16.398   2.583
  631POPC    OF32776   8.642  16.424   2.493
  631POPC   C1B32777   8.596  16.367   2.724
  631POPC   C1C32778   8.678  16.238   2.734
  631POPC   C1D32779   8.703  16.196   2.880
  631POPC   C1E32780   8.575  16.147   2.947
  631POPC   C1F32781   8.600  16.100   3.091
  631POPC   C1G32782   8.473  16.039   3.151
  631POPC   C1H32783   8.495  16.000   3.297
  631POPC   C1I32784   8.372  15.927   3.353
  631POPC   C1J32785   8.337  15.942   3.480
  631POPC   C1K32786   8.416  16.037   3.572
  631POPC   C1L32787   8.423  15.990   3.718
  631POPC   C1M32788   8.511  15.866   3.735
  631POPC   C1N32789   8.537  15.832   3.882
  631POPC   C1O32790   8.410  15.791   3.958
  631POPC   C1P32791   8.438  15.755   4.104
  631POPC   C1Q32792   8.483  15.873   4.190
  631POPC   C1R32793   8.371  15.975   4.213
  631POPC    CE32794   8.326  16.556   2.397
  631POPC    OG32795   8.197  16.581   2.456
  631POPC   C2A32796   8.119  16.671   2.396
  631POPC    OH32797   8.146  16.710   2.282
  631POPC   C2B32798   7.994  16.700   2.470
  631POPC   C2C32799   7.999  16.830   2.551
  631POPC   C2D32800   8.083  16.823   2.679
  631POPC   C2E32801   8.018  16.739   2.789
  631POPC   C2F32802   7.894  16.805   2.851
  631POPC   C2G32803   7.929  16.916   2.951
  631POPC   C2H32804   7.972  16.863   3.089
  631POPC   C2I32805   7.856  16.797   3.165
  631POPC   C2J32806   7.898  16.759   3.307
  631POPC   C2K32807   7.782  16.691   3.380
  631POPC   C2L32808   7.818  16.662   3.526
  631POPC   C2M32809   7.698  16.599   3.598
  631POPC   C2N32810   7.726  16.577   3.746
  631POPC   C2O32811   7.602  16.520   3.816
  631POPC   C2P32812   7.625  16.503   3.966
  632POPC   CN132813   7.191   0.161   1.802
  632POPC   CN232814   7.432   0.165   1.808
  632POPC   CN332815   7.318   0.068   1.625
  632POPC   NTM32816   7.314   0.178   1.722
  632POPC    CA32817   7.311   0.307   1.648
  632POPC    CB32818   7.332   0.440   1.723
  632POPC    OA32819   7.253   0.455   1.842
  632POPC     P32820   7.292   0.577   1.932
  632POPC    OB32821   7.350   0.683   1.847
  632POPC    OC32822   7.185   0.604   2.028
  632POPC    OD32823   7.413   0.514   2.010
  632POPC    CC32824   7.371   0.407   2.094
  632POPC    CD32825   7.464   0.377   2.212
  632POPC    OE32826   7.453   0.243   2.266
  632POPC   C1A32827   7.505   0.141   2.198
  632POPC    OF32828   7.571   0.159   2.095
  632POPC   C1B32829   7.481   0.009   2.262
  632POPC   C1C32830   7.607  16.946   2.336
  632POPC   C1D32831   7.587  16.810   2.404
  632POPC   C1E32832   7.496  16.820   2.526
  632POPC   C1F32833   7.481  16.687   2.600
  632POPC   C1G32834   7.615  16.634   2.653
  632POPC   C1H32835   7.599  16.537   2.771
  632POPC   C1I32836   7.530  16.405   2.735
  632POPC   C1J32837   7.534  16.306   2.824
  632POPC   C1K32838   7.607  16.327   2.957
  632POPC   C1L32839   7.537  16.252   3.070
  632POPC   C1M32840   7.611  16.272   3.203
  632POPC   C1N32841   7.544  16.193   3.315
  632POPC   C1O32842   7.624  16.203   3.445
  632POPC   C1P32843   7.559  16.118   3.555
  632POPC   C1Q32844   7.640  16.126   3.684
  632POPC   C1R32845   7.575  16.042   3.794
  632POPC    CE32846   7.442   0.494   2.310
  632POPC    OG32847   7.305   0.518   2.344
  632POPC   C2A32848   7.267   0.644   2.367
  632POPC    OH32849   7.350   0.736   2.370
  632POPC   C2B32850   7.122   0.655   2.394
  632POPC   C2C32851   7.091   0.638   2.543
  632POPC   C2D32852   7.115   0.767   2.622
  632POPC   C2E32853   7.108   0.748   2.774
  632POPC   C2F32854   6.980   0.678   2.820
  632POPC   C2G32855   6.963   0.680   2.972
  632POPC   C2H32856   6.861   0.575   3.012
  632POPC   C2I32857   6.812   0.593   3.156
  632POPC   C2J32858   6.726   0.472   3.194
  632POPC   C2K32859   6.637   0.501   3.315
  632POPC   C2L32860   6.564   0.373   3.356
  632POPC   C2M32861   6.443   0.401   3.446
  632POPC   C2N32862   6.328   0.464   3.367
  632POPC   C2O32863   6.202   0.479   3.453
  632POPC   C2P32864   6.087   0.535   3.370
  633POPC   CN132865   8.620   0.776   1.857
  633POPC   CN232866   8.574   0.995   1.778
  633POPC   CN332867   8.479   0.807   1.667
  633POPC   NTM32868   8.516   0.862   1.798
  633POPC    CA32869   8.397   0.878   1.884
  633POPC    CB32870   8.316   0.755   1.932
  633POPC    OA32871   8.384   0.668   2.023
  633POPC     P32872   8.302   0.538   2.056
  633POPC    OB32873   8.257   0.487   1.926
  633POPC    OC32874   8.393   0.458   2.140
  633POPC    OD32875   8.186   0.604   2.138
  633POPC    CC32876   8.221   0.623   2.275
  633POPC    CD32877   8.121   0.708   2.356
  633POPC    OE32878   8.165   0.741   2.491
  633POPC   C1A32879   8.253   0.839   2.511
  633POPC    OF32880   8.306   0.897   2.416
  633POPC   C1B32881   8.288   0.855   2.654
  633POPC   C1C32882   8.199   0.956   2.726
  633POPC   C1D32883   8.231   0.955   2.876
  633POPC   C1E32884   8.150   1.060   2.952
  633POPC   C1F32885   8.169   1.051   3.104
  633POPC   C1G32886   8.310   1.085   3.150
  633POPC   C1H32887   8.323   1.062   3.301
  633POPC   C1I32888   8.465   1.091   3.350
  633POPC   C1J32889   8.487   1.110   3.480
  633POPC   C1K32890   8.370   1.103   3.578
  633POPC   C1L32891   8.401   1.180   3.706
  633POPC   C1M32892   8.281   1.175   3.801
  633POPC   C1N32893   8.313   1.245   3.934
  633POPC   C1O32894   8.190   1.247   4.025
  633POPC   C1P32895   8.220   1.314   4.158
  633POPC   C1Q32896   8.099   1.308   4.251
  633POPC   C1R32897   8.130   1.369   4.388
  633POPC    CE32898   7.986   0.634   2.348
  633POPC    OG32899   7.986   0.496   2.390
  633POPC   C2A32900   7.875   0.427   2.367
  633POPC    OH32901   7.776   0.481   2.317
  633POPC   C2B32902   7.884   0.285   2.409
  633POPC   C2C32903   7.841   0.255   2.553
  633POPC   C2D32904   7.691   0.279   2.576
  633POPC   C2E32905   7.638   0.214   2.705
  633POPC   C2F32906   7.701   0.270   2.833
  633POPC   C2G32907   7.632   0.209   2.956
  633POPC   C2H32908   7.695   0.258   3.086
  633POPC   C2I32909   7.617   0.204   3.206
  633POPC   C2J32910   7.682   0.246   3.338
  633POPC   C2K32911   7.601   0.204   3.461
  633POPC   C2L32912   7.586   0.052   3.473
  633POPC   C2M32913   7.513   0.009   3.601
  633POPC   C2N32914   7.598   0.028   3.726
  633POPC   C2O32915   7.526  16.958   3.849
  633POPC   C2P32916   7.613  16.972   3.975
  634POPC   CN132917   6.762   2.524   2.163
  634POPC   CN232918   6.929   2.357   2.165
  634POPC   CN332919   6.843   2.436   1.957
  634POPC   NTM32920   6.881   2.476   2.093
  634POPC    CA32921   6.982   2.585   2.094
  634POPC    CB32922   7.116   2.573   2.018
  634POPC    OA32923   7.197   2.460   2.052
  634POPC     P32924   7.303   2.427   1.941
  634POPC    OB32925   7.350   2.289   1.953
  634POPC    OC32926   7.259   2.481   1.812
  634POPC    OD32927   7.421   2.523   1.983
  634POPC    CC32928   7.500   2.463   2.086
  634POPC    CD32929   7.588   2.562   2.162
  634POPC    OE32930   7.690   2.500   2.245
  634POPC   C1A32931   7.788   2.579   2.290
  634POPC    OF32932   7.805   2.690   2.239
  634POPC   C1B32933   7.879   2.514   2.386
  634POPC   C1C32934   8.001   2.456   2.315
  634POPC   C1D32935   8.101   2.394   2.413
  634POPC   C1E32936   8.049   2.265   2.477
  634POPC   C1F32937   8.155   2.211   2.573
  634POPC   C1G32938   8.114   2.076   2.631
  634POPC   C1H32939   8.224   2.025   2.725
  634POPC   C1I32940   8.190   1.886   2.778
  634POPC   C1J32941   8.229   1.850   2.900
  634POPC   C1K32942   8.307   1.946   2.989
  634POPC   C1L32943   8.280   1.914   3.136
  634POPC   C1M32944   8.365   2.000   3.230
  634POPC   C1N32945   8.340   1.959   3.375
  634POPC   C1O32946   8.427   2.040   3.471
  634POPC   C1P32947   8.404   1.997   3.615
  634POPC   C1Q32948   8.491   2.075   3.714
  634POPC   C1R32949   8.640   2.046   3.698
  634POPC    CE32950   7.489   2.658   2.232
  634POPC    OG32951   7.393   2.595   2.318
  634POPC   C2A32952   7.280   2.662   2.339
  634POPC    OH32953   7.258   2.768   2.280
  634POPC   C2B32954   7.186   2.594   2.430
  634POPC   C2C32955   7.206   2.638   2.575
  634POPC   C2D32956   7.089   2.594   2.664
  634POPC   C2E32957   7.085   2.444   2.689
  634POPC   C2F32958   6.956   2.408   2.763
  634POPC   C2G32959   6.954   2.261   2.806
  634POPC   C2H32960   6.818   2.219   2.862
  634POPC   C2I32961   6.775   2.291   2.991
  634POPC   C2J32962   6.862   2.252   3.111
  634POPC   C2K32963   6.804   2.308   3.241
  634POPC   C2L32964   6.886   2.261   3.361
  634POPC   C2M32965   6.820   2.302   3.492
  634POPC   C2N32966   6.900   2.256   3.615
  634POPC   C2O32967   6.905   2.103   3.627
  634POPC   C2P32968   6.986   2.062   3.750
  635POPC   CN132969   8.064   2.976   1.871
  635POPC   CN232970   7.842   3.059   1.848
  635POPC   CN332971   7.961   3.085   2.054
  635POPC   NTM32972   7.974   3.086   1.908
  635POPC    CA32973   8.034   3.213   1.861
  635POPC    CB32974   7.964   3.350   1.886
  635POPC    OA32975   7.839   3.369   1.819
  635POPC     P32976   7.749   3.475   1.895
  635POPC    OB32977   7.830   3.579   1.958
  635POPC    OC32978   7.626   3.499   1.820
  635POPC    OD32979   7.710   3.374   2.008
  635POPC    CC32980   7.616   3.434   2.097
  635POPC    CD32981   7.565   3.333   2.200
  635POPC    OE32982   7.438   3.375   2.260
  635POPC   C1A32983   7.374   3.298   2.347
  635POPC    OF32984   7.396   3.176   2.348
  635POPC   C1B32985   7.259   3.367   2.410
  635POPC   C1C32986   7.301   3.471   2.514
  635POPC   C1D32987   7.360   3.409   2.640
  635POPC   C1E32988   7.406   3.518   2.736
  635POPC   C1F32989   7.450   3.459   2.870
  635POPC   C1G32990   7.494   3.571   2.964
  635POPC   C1H32991   7.527   3.518   3.104
  635POPC   C1I32992   7.566   3.634   3.195
  635POPC   C1J32993   7.613   3.613   3.318
  635POPC   C1K32994   7.627   3.471   3.373
  635POPC   C1L32995   7.623   3.475   3.526
  635POPC   C1M32996   7.636   3.335   3.586
  635POPC   C1N32997   7.627   3.345   3.738
  635POPC   C1O32998   7.635   3.207   3.805
  635POPC   C1P32999   7.622   3.222   3.956
  635POPC   C1Q33000   7.625   3.086   4.026
  635POPC   C1R33001   7.610   3.104   4.177
  635POPC    CE33002   7.685   3.303   2.292
  635POPC    OG33003   7.737   3.414   2.366
  635POPC   C2A33004   7.848   3.392   2.436
  635POPC    OH33005   7.901   3.281   2.441
  635POPC   C2B33006   7.895   3.513   2.508
  635POPC   C2C33007   7.847   3.520   2.653
  635POPC   C2D33008   7.925   3.424   2.744
  635POPC   C2E33009   7.882   3.439   2.890
  635POPC   C2F33010   7.972   3.357   2.982
  635POPC   C2G33011   7.937   3.382   3.129
  635POPC   C2H33012   8.035   3.309   3.220
  635POPC   C2I33013   8.005   3.338   3.367
  635POPC   C2J33014   8.107   3.270   3.459
  635POPC   C2K33015   8.073   3.296   3.606
  635POPC   C2L33016   8.175   3.232   3.701
  635POPC   C2M33017   8.173   3.079   3.695
  635POPC   C2N33018   8.276   3.020   3.791
  635POPC   C2O33019   8.280   2.867   3.780
  635POPC   C2P33020   8.384   2.808   3.876
  636POPC   CN133021   7.451   4.198   1.322
  636POPC   CN233022   7.638   4.236   1.468
  636POPC   CN333023   7.506   4.418   1.390
  636POPC   NTM33024   7.500   4.278   1.435
  636POPC    CA33025   7.407   4.271   1.550
  636POPC    CB33026   7.377   4.134   1.617
  636POPC    OA33027   7.489   4.067   1.676
  636POPC     P33028   7.482   3.911   1.655
  636POPC    OB33029   7.408   3.881   1.532
  636POPC    OC33030   7.622   3.870   1.665
  636POPC    OD33031   7.398   3.862   1.779
  636POPC    CC33032   7.483   3.815   1.885
  636POPC    CD33033   7.435   3.846   2.028
  636POPC    OE33034   7.528   3.803   2.131
  636POPC   C1A33035   7.642   3.867   2.154
  636POPC    OF33036   7.686   3.952   2.075
  636POPC   C1B33037   7.706   3.829   2.282
  636POPC   C1C33038   7.695   3.945   2.380
  636POPC   C1D33039   7.758   3.913   2.516
  636POPC   C1E33040   7.756   4.036   2.606
  636POPC   C1F33041   7.811   4.008   2.746
  636POPC   C1G33042   7.719   3.916   2.826
  636POPC   C1H33043   7.767   3.893   2.970
  636POPC   C1I33044   7.895   3.809   2.977
  636POPC   C1J33045   7.964   3.802   3.091
  636POPC   C1K33046   7.915   3.879   3.214
  636POPC   C1L33047   7.944   3.801   3.342
  636POPC   C1M33048   7.896   3.880   3.464
  636POPC   C1N33049   7.917   3.802   3.594
  636POPC   C1O33050   7.883   3.891   3.714
  636POPC   C1P33051   7.887   3.814   3.847
  636POPC   C1Q33052   7.773   3.713   3.857
  636POPC   C1R33053   7.777   3.638   3.991
  636POPC    CE33054   7.298   3.777   2.043
  636POPC    OG33055   7.209   3.835   2.141
  636POPC   C2A33056   7.110   3.757   2.183
  636POPC    OH33057   7.112   3.635   2.164
  636POPC   C2B33058   7.008   3.829   2.263
  636POPC   C2C33059   7.009   3.793   2.412
  636POPC   C2D33060   7.125   3.856   2.488
  636POPC   C2E33061   7.114   3.827   2.638
  636POPC   C2F33062   7.225   3.898   2.716
  636POPC   C2G33063   7.216   3.871   2.866
  636POPC   C2H33064   7.325   3.951   2.938
  636POPC   C2I33065   7.332   3.928   3.090
  636POPC   C2J33066   7.205   3.973   3.163
  636POPC   C2K33067   7.224   3.980   3.315
  636POPC   C2L33068   7.254   3.845   3.381
  636POPC   C2M33069   7.280   3.867   3.530
  636POPC   C2N33070   7.322   3.740   3.606
  636POPC   C2O33071   7.206   3.641   3.624
  636POPC   C2P33072   7.249   3.524   3.712
  637POPC   CN133073   6.817   4.478   1.727
  637POPC   CN233074   6.706   4.419   1.932
  637POPC   CN333075   6.580   4.467   1.736
  637POPC   NTM33076   6.704   4.405   1.786
  637POPC    CA33077   6.705   4.263   1.742
  637POPC    CB33078   6.810   4.163   1.795
  637POPC    OA33079   6.945   4.208   1.803
  637POPC     P33080   7.046   4.089   1.787
  637POPC    OB33081   6.992   3.967   1.849
  637POPC    OC33082   7.080   4.088   1.644
  637POPC    OD33083   7.164   4.150   1.871
  637POPC    CC33084   7.138   4.148   2.011
  637POPC    CD33085   7.243   4.227   2.092
  637POPC    OE33086   7.235   4.204   2.235
  637POPC   C1A33087   7.345   4.220   2.310
  637POPC    OF33088   7.452   4.250   2.257
  637POPC   C1B33089   7.323   4.205   2.455
  637POPC   C1C33090   7.293   4.340   2.519
  637POPC   C1D33091   7.292   4.338   2.673
  637POPC   C1E33092   7.433   4.315   2.729
  637POPC   C1F33093   7.433   4.330   2.882
  637POPC   C1G33094   7.571   4.299   2.940
  637POPC   C1H33095   7.572   4.320   3.091
  637POPC   C1I33096   7.707   4.279   3.150
  637POPC   C1J33097   7.717   4.249   3.280
  637POPC   C1K33098   7.596   4.259   3.372
  637POPC   C1L33099   7.618   4.173   3.497
  637POPC   C1M33100   7.506   4.191   3.600
  637POPC   C1N33101   7.535   4.105   3.723
  637POPC   C1O33102   7.423   4.113   3.827
  637POPC   C1P33103   7.453   4.016   3.942
  637POPC   C1Q33104   7.339   4.008   4.044
  637POPC   C1R33105   7.323   4.136   4.126
  637POPC    CE33106   7.227   4.375   2.050
  637POPC    OG33107   7.102   4.437   2.087
  637POPC   C2A33108   7.095   4.483   2.212
  637POPC    OH33109   7.194   4.538   2.261
  637POPC   C2B33110   6.955   4.506   2.257
  637POPC   C2C33111   6.947   4.582   2.390
  637POPC   C2D33112   6.803   4.619   2.425
  637POPC   C2E33113   6.797   4.688   2.561
  637POPC   C2F33114   6.656   4.741   2.590
  637POPC   C2G33115   6.643   4.801   2.731
  637POPC   C2H33116   6.734   4.922   2.753
  637POPC   C2I33117   6.715   4.979   2.894
  637POPC   C2J33118   6.812   5.094   2.921
  637POPC   C2K33119   6.788   5.154   3.059
  637POPC   C2L33120   6.893   5.261   3.091
  637POPC   C2M33121   6.871   5.327   3.228
  637POPC   C2N33122   6.743   5.412   3.232
  637POPC   C2O33123   6.726   5.477   3.370
  637POPC   C2P33124   6.599   5.561   3.375
  638POPC   CN133125   7.996   5.790   2.354
  638POPC   CN233126   8.148   5.704   2.515
  638POPC   CN333127   7.916   5.706   2.565
  638POPC   NTM33128   8.014   5.687   2.457
  638POPC    CA33129   8.004   5.550   2.400
  638POPC    CB33130   7.870   5.501   2.339
  638POPC    OA33131   7.821   5.573   2.225
  638POPC     P33132   7.671   5.535   2.193
  638POPC    OB33133   7.636   5.595   2.064
  638POPC    OC33134   7.656   5.391   2.220
  638POPC    OD33135   7.600   5.616   2.307
  638POPC    CC33136   7.465   5.574   2.324
  638POPC    CD33137   7.388   5.646   2.437
  638POPC    OE33138   7.337   5.779   2.406
  638POPC   C1A33139   7.208   5.792   2.371
  638POPC    OF33140   7.139   5.694   2.341
  638POPC   C1B33141   7.166   5.933   2.357
  638POPC   C1C33142   7.122   6.000   2.488
  638POPC   C1D33143   6.998   5.934   2.549
  638POPC   C1E33144   6.941   6.011   2.669
  638POPC   C1F33145   7.039   6.025   2.786
  638POPC   C1G33146   6.972   6.102   2.900
  638POPC   C1H33147   7.070   6.139   3.011
  638POPC   C1I33148   7.002   6.233   3.111
  638POPC   C1J33149   7.051   6.257   3.232
  638POPC   C1K33150   7.182   6.194   3.280
  638POPC   C1L33151   7.249   6.286   3.382
  638POPC   C1M33152   7.379   6.225   3.435
  638POPC   C1N33153   7.445   6.317   3.538
  638POPC   C1O33154   7.574   6.257   3.594
  638POPC   C1P33155   7.549   6.133   3.682
  638POPC   C1Q33156   7.496   6.168   3.822
  638POPC   C1R33157   7.606   6.227   3.911
  638POPC    CE33158   7.478   5.641   2.561
  638POPC    OG33159   7.483   5.514   2.627
  638POPC   C2A33160   7.578   5.499   2.718
  638POPC    OH33161   7.677   5.572   2.721
  638POPC   C2B33162   7.561   5.377   2.800
  638POPC   C2C33163   7.476   5.403   2.924
  638POPC   C2D33164   7.462   5.276   3.008
  638POPC   C2E33165   7.368   5.298   3.127
  638POPC   C2F33166   7.353   5.170   3.209
  638POPC   C2G33167   7.252   5.190   3.322
  638POPC   C2H33168   7.234   5.064   3.405
  638POPC   C2I33169   7.128   5.087   3.513
  638POPC   C2J33170   7.112   4.966   3.604
  638POPC   C2K33171   7.006   4.993   3.711
  638POPC   C2L33172   6.993   4.876   3.809
  638POPC   C2M33173   6.888   4.904   3.916
  638POPC   C2N33174   6.743   4.894   3.865
  638POPC   C2O33175   6.698   4.749   3.841
  638POPC   C2P33176   6.680   4.672   3.972
  639POPC   CN133177   7.770   4.786   2.385
  639POPC   CN233178   7.773   4.651   2.190
  639POPC   CN333179   7.690   4.874   2.179
  639POPC   NTM33180   7.792   4.788   2.240
  639POPC    CA33181   7.930   4.828   2.205
  639POPC    CB33182   7.983   4.972   2.228
  639POPC    OA33183   7.963   5.021   2.359
  639POPC     P33184   8.026   5.161   2.386
  639POPC    OB33185   8.043   5.235   2.260
  639POPC    OC33186   7.952   5.220   2.498
  639POPC    OD33187   8.171   5.122   2.431
  639POPC    CC33188   8.174   5.051   2.555
  639POPC    CD33189   8.292   5.093   2.644
  639POPC    OE33190   8.329   4.994   2.744
  639POPC   C1A33191   8.452   4.996   2.794
  639POPC    OF33192   8.539   5.066   2.740
  639POPC   C1B33193   8.476   4.897   2.901
  639POPC   C1C33194   8.494   4.961   3.039
  639POPC   C1D33195   8.367   5.027   3.093
  639POPC   C1E33196   8.395   5.095   3.227
  639POPC   C1F33197   8.271   5.167   3.280
  639POPC   C1G33198   8.301   5.249   3.406
  639POPC   C1H33199   8.330   5.165   3.531
  639POPC   C1I33200   8.202   5.103   3.588
  639POPC   C1J33201   8.208   4.995   3.665
  639POPC   C1K33202   8.343   4.929   3.698
  639POPC   C1L33203   8.328   4.779   3.726
  639POPC   C1M33204   8.259   4.750   3.859
  639POPC   C1N33205   8.231   4.600   3.871
  639POPC   C1O33206   8.170   4.560   4.006
  639POPC   C1P33207   8.271   4.571   4.121
  639POPC   C1Q33208   8.214   4.506   4.247
  639POPC   C1R33209   8.310   4.521   4.365
  639POPC    CE33210   8.257   5.235   2.693
  639POPC    OG33211   8.134   5.247   2.767
  639POPC   C2A33212   8.078   5.367   2.775
  639POPC    OH33213   8.123   5.464   2.714
  639POPC   C2B33214   7.956   5.367   2.859
  639POPC   C2C33215   7.991   5.386   3.007
  639POPC   C2D33216   7.870   5.361   3.096
  639POPC   C2E33217   7.908   5.371   3.243
  639POPC   C2F33218   7.793   5.324   3.334
  639POPC   C2G33219   7.830   5.334   3.482
  639POPC   C2H33220   7.838   5.480   3.528
  639POPC   C2I33221   7.887   5.495   3.673
  639POPC   C2J33222   8.035   5.458   3.687
  639POPC   C2K33223   8.083   5.480   3.830
  639POPC   C2L33224   8.228   5.435   3.850
  639POPC   C2M33225   8.330   5.523   3.777
  639POPC   C2N33226   8.472   5.469   3.790
  639POPC   C2O33227   8.525   5.472   3.934
  639POPC   C2P33228   8.665   5.411   3.942
  640POPC   CN133229   7.433   7.000   1.532
  640POPC   CN233230   7.608   6.895   1.658
  640POPC   CN333231   7.662   7.050   1.487
  640POPC   NTM33232   7.565   7.020   1.593
  640POPC    CA33233   7.563   7.133   1.688
  640POPC    CB33234   7.464   7.132   1.807
  640POPC    OA33235   7.476   7.025   1.900
  640POPC     P33236   7.347   7.002   1.986
  640POPC    OB33237   7.239   6.995   1.886
  640POPC    OC33238   7.376   6.887   2.072
  640POPC    OD33239   7.344   7.138   2.067
  640POPC    CC33240   7.439   7.134   2.174
  640POPC    CD33241   7.443   7.255   2.269
  640POPC    OE33242   7.561   7.258   2.354
  640POPC   C1A33243   7.669   7.325   2.315
  640POPC    OF33244   7.663   7.402   2.218
  640POPC   C1B33245   7.785   7.309   2.405
  640POPC   C1C33246   7.871   7.190   2.361
  640POPC   C1D33247   7.995   7.169   2.448
  640POPC   C1E33248   7.963   7.134   2.593
  640POPC   C1F33249   8.090   7.098   2.671
  640POPC   C1G33250   8.146   6.959   2.636
  640POPC   C1H33251   8.065   6.843   2.695
  640POPC   C1I33252   8.075   6.838   2.848
  640POPC   C1J33253   8.056   6.726   2.917
  640POPC   C1K33254   8.024   6.593   2.849
  640POPC   C1L33255   8.039   6.479   2.949
  640POPC   C1M33256   8.014   6.342   2.886
  640POPC   C1N33257   8.038   6.232   2.989
  640POPC   C1O33258   8.032   6.093   2.926
  640POPC   C1P33259   8.070   5.986   3.029
  640POPC   C1Q33260   8.073   5.845   2.969
  640POPC   C1R33261   7.933   5.794   2.931
  640POPC    CE33262   7.309   7.257   2.345
  640POPC    OG33263   7.276   7.136   2.416
  640POPC   C2A33264   7.171   7.141   2.496
  640POPC    OH33265   7.105   7.244   2.512
  640POPC   C2B33266   7.137   7.010   2.556
  640POPC   C2C33267   7.214   6.978   2.684
  640POPC   C2D33268   7.182   6.834   2.722
  640POPC   C2E33269   7.267   6.777   2.837
  640POPC   C2F33270   7.227   6.834   2.973
  640POPC   C2G33271   7.296   6.754   3.084
  640POPC   C2H33272   7.262   6.811   3.221
  640POPC   C2I33273   7.323   6.727   3.334
  640POPC   C2J33274   7.290   6.785   3.472
  640POPC   C2K33275   7.359   6.920   3.494
  640POPC   C2L33276   7.317   6.988   3.624
  640POPC   C2M33277   7.171   7.035   3.622
  640POPC   C2N33278   7.133   7.110   3.749
  640POPC   C2O33279   7.205   7.245   3.760
  640POPC   C2P33280   7.170   7.316   3.891
  641POPC   CN133281   6.937   7.904   1.764
  641POPC   CN233282   7.130   7.783   1.827
  641POPC   CN333283   7.115   8.017   1.874
  641POPC   NTM33284   7.040   7.891   1.867
  641POPC    CA33285   6.974   7.860   1.997
  641POPC    CB33286   7.056   7.848   2.127
  641POPC    OA33287   7.163   7.752   2.128
  641POPC     P33288   7.126   7.611   2.187
  641POPC    OB33289   7.001   7.567   2.123
  641POPC    OC33290   7.247   7.528   2.183
  641POPC    OD33291   7.095   7.646   2.336
  641POPC    CC33292   7.212   7.673   2.413
  641POPC    CD33293   7.182   7.770   2.529
  641POPC    OE33294   7.297   7.837   2.587
  641POPC   C1A33295   7.361   7.933   2.519
  641POPC    OF33296   7.338   7.955   2.400
  641POPC   C1B33297   7.462   8.004   2.600
  641POPC   C1C33298   7.605   7.956   2.572
  641POPC   C1D33299   7.707   8.040   2.649
  641POPC   C1E33300   7.702   8.017   2.800
  641POPC   C1F33301   7.810   8.098   2.872
  641POPC   C1G33302   7.808   8.071   3.023
  641POPC   C1H33303   7.680   8.124   3.089
  641POPC   C1I33304   7.663   8.068   3.231
  641POPC   C1J33305   7.575   7.971   3.253
  641POPC   C1K33306   7.488   7.918   3.139
  641POPC   C1L33307   7.449   7.771   3.157
  641POPC   C1M33308   7.354   7.727   3.045
  641POPC   C1N33309   7.423   7.710   2.909
  641POPC   C1O33310   7.493   7.574   2.900
  641POPC   C1P33311   7.549   7.549   2.760
  641POPC   C1Q33312   7.584   7.402   2.737
  641POPC   C1R33313   7.695   7.351   2.830
  641POPC    CE33314   7.087   7.693   2.624
  641POPC    OG33315   7.137   7.571   2.682
  641POPC   C2A33316   7.048   7.486   2.731
  641POPC    OH33317   6.928   7.497   2.706
  641POPC   C2B33318   7.107   7.374   2.808
  641POPC   C2C33319   7.116   7.409   2.957
  641POPC   C2D33320   7.170   7.298   3.047
  641POPC   C2E33321   7.312   7.255   3.010
  641POPC   C2F33322   7.391   7.201   3.130
  641POPC   C2G33323   7.427   7.314   3.227
  641POPC   C2H33324   7.521   7.267   3.338
  641POPC   C2I33325   7.564   7.386   3.424
  641POPC   C2J33326   7.670   7.348   3.529
  641POPC   C2K33327   7.614   7.261   3.642
  641POPC   C2L33328   7.725   7.221   3.739
  641POPC   C2M33329   7.672   7.143   3.860
  641POPC   C2N33330   7.587   7.230   3.952
  641POPC   C2O33331   7.536   7.154   4.075
  641POPC   C2P33332   7.433   7.047   4.039
  642POPC   CN133333   7.120   9.468   1.949
  642POPC   CN233334   7.334   9.400   2.035
  642POPC   CN333335   7.206   9.568   2.147
  642POPC   NTM33336   7.198   9.443   2.071
  642POPC    CA33337   7.126   9.345   2.156
  642POPC    CB33338   7.110   9.198   2.114
  642POPC    OA33339   7.222   9.113   2.138
  642POPC     P33340   7.175   8.965   2.114
  642POPC    OB33341   7.052   8.939   2.190
  642POPC    OC33342   7.179   8.937   1.969
  642POPC    OD33343   7.293   8.885   2.177
  642POPC    CC33344   7.289   8.888   2.320
  642POPC    CD33345   7.365   8.773   2.386
  642POPC    OE33346   7.328   8.757   2.526
  642POPC   C1A33347   7.285   8.640   2.569
  642POPC    OF33348   7.273   8.544   2.491
  642POPC   C1B33349   7.256   8.640   2.714
  642POPC   C1C33350   7.107   8.657   2.744
  642POPC   C1D33351   7.083   8.651   2.894
  642POPC   C1E33352   6.934   8.639   2.925
  642POPC   C1F33353   6.908   8.627   3.075
  642POPC   C1G33354   6.759   8.604   3.100
  642POPC   C1H33355   6.727   8.589   3.249
  642POPC   C1I33356   6.578   8.562   3.269
  642POPC   C1J33357   6.536   8.493   3.374
  642POPC   C1K33358   6.635   8.440   3.477
  642POPC   C1L33359   6.571   8.438   3.616
  642POPC   C1M33360   6.667   8.382   3.721
  642POPC   C1N33361   6.605   8.392   3.861
  642POPC   C1O33362   6.700   8.338   3.967
  642POPC   C1P33363   6.643   8.355   4.109
  642POPC   C1Q33364   6.518   8.270   4.132
  642POPC   C1R33365   6.460   8.294   4.272
  642POPC    CE33366   7.516   8.794   2.361
  642POPC    OG33367   7.573   8.911   2.421
  642POPC   C2A33368   7.705   8.916   2.431
  642POPC    OH33369   7.777   8.821   2.397
  642POPC   C2B33370   7.754   9.044   2.487
  642POPC   C2C33371   7.758   9.048   2.640
  642POPC   C2D33372   7.864   8.954   2.700
  642POPC   C2E33373   7.873   8.972   2.852
  642POPC   C2F33374   7.980   8.881   2.912
  642POPC   C2G33375   7.992   8.906   3.062
  642POPC   C2H33376   8.088   8.806   3.128
  642POPC   C2I33377   8.094   8.830   3.279
  642POPC   C2J33378   8.187   8.729   3.347
  642POPC   C2K33379   8.202   8.757   3.497
  642POPC   C2L33380   8.073   8.736   3.576
  642POPC   C2M33381   8.094   8.773   3.723
  642POPC   C2N33382   7.966   8.750   3.804
  642POPC   C2O33383   7.981   8.791   3.951
  642POPC   C2P33384   8.081   8.703   4.027
  643POPC   CN133385   8.043  10.273   2.160
  643POPC   CN233386   7.919  10.155   1.994
  643POPC   CN333387   8.033  10.354   1.936
  643POPC   NTM33388   8.041  10.233   2.019
  643POPC    CA33389   8.164  10.159   1.980
  643POPC    CB33390   8.206  10.030   2.054
  643POPC    OA33391   8.106   9.929   2.059
  643POPC     P33392   8.164   9.801   2.126
  643POPC    OB33393   8.261   9.745   2.029
  643POPC    OC33394   8.205   9.838   2.262
  643POPC    OD33395   8.035   9.713   2.126
  643POPC    CC33396   7.945   9.746   2.232
  643POPC    CD33397   7.857   9.626   2.272
  643POPC    OE33398   7.734   9.663   2.341
  643POPC   C1A33399   7.620   9.606   2.306
  643POPC    OF33400   7.615   9.536   2.204
  643POPC   C1B33401   7.503   9.645   2.388
  643POPC   C1C33402   7.474   9.549   2.504
  643POPC   C1D33403   7.579   9.556   2.615
  643POPC   C1E33404   7.544   9.461   2.729
  643POPC   C1F33405   7.650   9.464   2.839
  643POPC   C1G33406   7.612   9.367   2.951
  643POPC   C1H33407   7.721   9.356   3.058
  643POPC   C1I33408   7.680   9.251   3.161
  643POPC   C1J33409   7.733   9.247   3.283
  643POPC   C1K33410   7.840   9.348   3.327
  643POPC   C1L33411   7.837   9.374   3.479
  643POPC   C1M33412   7.874   9.250   3.561
  643POPC   C1N33413   7.869   9.275   3.712
  643POPC   C1O33414   7.728   9.307   3.762
  643POPC   C1P33415   7.722   9.322   3.915
  643POPC   C1Q33416   7.802   9.442   3.966
  643POPC   C1R33417   7.788   9.456   4.118
  643POPC    CE33418   7.951   9.527   2.342
  643POPC    OG33419   8.019   9.579   2.458
  643POPC   C2A33420   8.129   9.518   2.499
  643POPC    OH33421   8.189   9.438   2.426
  643POPC   C2B33422   8.180   9.572   2.627
  643POPC   C2C33423   8.119   9.504   2.749
  643POPC   C2D33424   8.178   9.365   2.774
  643POPC   C2E33425   8.115   9.296   2.896
  643POPC   C2F33426   8.140   9.368   3.030
  643POPC   C2G33427   8.287   9.366   3.075
  643POPC   C2H33428   8.338   9.227   3.113
  643POPC   C2I33429   8.279   9.173   3.244
  643POPC   C2J33430   8.335   9.244   3.367
  643POPC   C2K33431   8.278   9.179   3.494
  643POPC   C2L33432   8.334   9.244   3.620
  643POPC   C2M33433   8.274   9.177   3.744
  643POPC   C2N33434   8.326   9.241   3.873
  643POPC   C2O33435   8.262   9.180   3.998
  643POPC   C2P33436   8.305   9.035   4.021
  644POPC   CN133437   7.609  10.624   1.648
  644POPC   CN233438   7.508  10.628   1.434
  644POPC   CN333439   7.657  10.452   1.492
  644POPC   NTM33440   7.551  10.540   1.543
  644POPC    CA33441   7.432  10.465   1.590
  644POPC    CB33442   7.441  10.367   1.710
  644POPC    OA33443   7.539  10.265   1.699
  644POPC     P33444   7.483  10.118   1.693
  644POPC    OB33445   7.370  10.117   1.598
  644POPC    OC33446   7.604  10.040   1.665
  644POPC    OD33447   7.435  10.102   1.841
  644POPC    CC33448   7.542  10.081   1.933
  644POPC    CD33449   7.504  10.120   2.077
  644POPC    OE33450   7.619  10.119   2.166
  644POPC   C1A33451   7.607  10.183   2.283
  644POPC    OF33452   7.546  10.291   2.289
  644POPC   C1B33453   7.702  10.134   2.386
  644POPC   C1C33454   7.652  10.000   2.442
  644POPC   C1D33455   7.736   9.943   2.556
  644POPC   C1E33456   7.707  10.013   2.688
  644POPC   C1F33457   7.761   9.929   2.804
  644POPC   C1G33458   7.733   9.998   2.938
  644POPC   C1H33459   7.776   9.908   3.054
  644POPC   C1I33460   7.760   9.982   3.187
  644POPC   C1J33461   7.721   9.917   3.296
  644POPC   C1K33462   7.687   9.768   3.291
  644POPC   C1L33463   7.583   9.729   3.396
  644POPC   C1M33464   7.639   9.739   3.538
  644POPC   C1N33465   7.531   9.713   3.643
  644POPC   C1O33466   7.588   9.722   3.785
  644POPC   C1P33467   7.633   9.864   3.822
  644POPC   C1Q33468   7.702   9.869   3.959
  644POPC   C1R33469   7.607   9.836   4.074
  644POPC    CE33470   7.388  10.026   2.116
  644POPC    OG33471   7.330  10.058   2.244
  644POPC   C2A33472   7.240   9.973   2.293
  644POPC    OH33473   7.220   9.863   2.242
  644POPC   C2B33474   7.183  10.018   2.422
  644POPC   C2C33475   7.264   9.964   2.541
  644POPC   C2D33476   7.204  10.015   2.672
  644POPC   C2E33477   7.280   9.963   2.795
  644POPC   C2F33478   7.213  10.019   2.921
  644POPC   C2G33479   7.279   9.969   3.049
  644POPC   C2H33480   7.205  10.028   3.170
  644POPC   C2I33481   7.262   9.979   3.303
  644POPC   C2J33482   7.184  10.041   3.418
  644POPC   C2K33483   7.237   9.995   3.554
  644POPC   C2L33484   7.156  10.060   3.667
  644POPC   C2M33485   7.204  10.014   3.804
  644POPC   C2N33486   7.119  10.078   3.914
  644POPC   C2O33487   7.158  10.031   4.055
  644POPC   C2P33488   7.297  10.080   4.097
  645POPC   CN133489   7.401  11.001   2.243
  645POPC   CN233490   7.620  11.090   2.279
  645POPC   CN333491   7.585  10.921   2.117
  645POPC   NTM33492   7.526  11.041   2.177
  645POPC    CA33493   7.504  11.142   2.071
  645POPC    CB33494   7.458  11.285   2.109
  645POPC    OA33495   7.331  11.295   2.173
  645POPC     P33496   7.309  11.436   2.237
  645POPC    OB33497   7.381  11.538   2.160
  645POPC    OC33498   7.163  11.447   2.250
  645POPC    OD33499   7.384  11.414   2.372
  645POPC    CC33500   7.304  11.352   2.473
  645POPC    CD33501   7.385  11.302   2.593
  645POPC    OE33502   7.307  11.228   2.691
  645POPC   C1A33503   7.274  11.101   2.667
  645POPC    OF33504   7.316  11.043   2.567
  645POPC   C1B33505   7.190  11.041   2.773
  645POPC   C1C33506   7.264  10.929   2.849
  645POPC   C1D33507   7.375  10.979   2.941
  645POPC   C1E33508   7.318  11.056   3.060
  645POPC   C1F33509   7.426  11.108   3.155
  645POPC   C1G33510   7.500  10.997   3.230
  645POPC   C1H33511   7.608  11.058   3.319
  645POPC   C1I33512   7.683  10.951   3.399
  645POPC   C1J33513   7.747  10.983   3.511
  645POPC   C1K33514   7.750  11.127   3.563
  645POPC   C1L33515   7.883  11.196   3.531
  645POPC   C1M33516   7.883  11.341   3.580
  645POPC   C1N33517   8.009  11.417   3.538
  645POPC   C1O33518   8.013  11.439   3.386
  645POPC   C1P33519   8.140  11.511   3.340
  645POPC   C1Q33520   8.147  11.657   3.386
  645POPC   C1R33521   8.046  11.746   3.313
  645POPC    CE33522   7.463  11.422   2.650
  645POPC    OG33523   7.384  11.534   2.696
  645POPC   C2A33524   7.450  11.639   2.744
  645POPC    OH33525   7.572  11.651   2.729
  645POPC   C2B33526   7.364  11.737   2.813
  645POPC   C2C33527   7.372  11.713   2.964
  645POPC   C2D33528   7.294  11.816   3.047
  645POPC   C2E33529   7.143  11.797   3.039
  645POPC   C2F33530   7.077  11.883   3.147
  645POPC   C2G33531   6.929  11.848   3.166
  645POPC   C2H33532   6.872  11.910   3.294
  645POPC   C2I33533   6.941  11.855   3.419
  645POPC   C2J33534   6.890  11.917   3.549
  645POPC   C2K33535   6.748  11.870   3.585
  645POPC   C2L33536   6.710  11.922   3.724
  645POPC   C2M33537   6.573  11.868   3.767
  645POPC   C2N33538   6.537  11.911   3.910
  645POPC   C2O33539   6.628  11.847   4.014
  645POPC   C2P33540   6.595  11.896   4.155
  646POPC   CN133541   7.979  12.731   2.123
  646POPC   CN233542   7.899  12.901   1.978
  646POPC   CN333543   8.134  12.866   2.000
  646POPC   NTM33544   8.003  12.799   1.995
  646POPC    CA33545   7.994  12.707   1.879
  646POPC    CB33546   8.082  12.580   1.869
  646POPC    OA33547   8.050  12.477   1.963
  646POPC     P33548   8.165  12.369   1.968
  646POPC    OB33549   8.108  12.248   2.030
  646POPC    OC33550   8.241  12.362   1.843
  646POPC    OD33551   8.257  12.445   2.070
  646POPC    CC33552   8.223  12.417   2.206
  646POPC    CD33553   8.338  12.447   2.302
  646POPC    OE33554   8.319  12.391   2.435
  646POPC   C1A33555   8.424  12.367   2.512
  646POPC    OF33556   8.539  12.373   2.466
  646POPC   C1B33557   8.388  12.315   2.646
  646POPC   C1C33558   8.352  12.428   2.744
  646POPC   C1D33559   8.318  12.379   2.885
  646POPC   C1E33560   8.190  12.296   2.891
  646POPC   C1F33561   8.133  12.283   3.033
  646POPC   C1G33562   8.220  12.201   3.129
  646POPC   C1H33563   8.158  12.201   3.269
  646POPC   C1I33564   8.238  12.118   3.369
  646POPC   C1J33565   8.177  12.071   3.478
  646POPC   C1K33566   8.029  12.103   3.499
  646POPC   C1L33567   7.954  12.002   3.587
  646POPC   C1M33568   7.992  12.013   3.735
  646POPC   C1N33569   7.904  11.924   3.824
  646POPC   C1O33570   7.759  11.973   3.828
  646POPC   C1P33571   7.669  11.886   3.916
  646POPC   C1Q33572   7.703  11.897   4.065
  646POPC   C1R33573   7.606  11.815   4.150
  646POPC    CE33574   8.362  12.599   2.295
  646POPC    OG33575   8.254  12.684   2.338
  646POPC   C2A33576   8.287  12.810   2.361
  646POPC    OH33577   8.381  12.862   2.302
  646POPC   C2B33578   8.187  12.881   2.444
  646POPC   C2C33579   8.226  12.867   2.591
  646POPC   C2D33580   8.118  12.921   2.686
  646POPC   C2E33581   8.166  12.900   2.829
  646POPC   C2F33582   8.060  12.937   2.933
  646POPC   C2G33583   8.119  12.914   3.072
  646POPC   C2H33584   8.020  12.939   3.185
  646POPC   C2I33585   8.092  12.915   3.318
  646POPC   C2J33586   8.001  12.923   3.440
  646POPC   C2K33587   8.088  12.915   3.565
  646POPC   C2L33588   8.006  12.910   3.694
  646POPC   C2M33589   8.096  12.927   3.817
  646POPC   C2N33590   8.202  12.817   3.832
  646POPC   C2O33591   8.294  12.840   3.952
  646POPC   C2P33592   8.383  12.963   3.934
  647POPC   CN133593   7.993  14.068   2.117
  647POPC   CN233594   8.157  14.156   1.966
  647POPC   CN333595   7.983  14.295   2.049
  647POPC   NTM33596   8.074  14.185   2.084
  647POPC    CA33597   8.157  14.229   2.199
  647POPC    CB33598   8.270  14.139   2.253
  647POPC    OA33599   8.233  14.009   2.299
  647POPC     P33600   8.358  13.925   2.340
  647POPC    OB33601   8.396  13.853   2.217
  647POPC    OC33602   8.451  14.016   2.407
  647POPC    OD33603   8.292  13.827   2.443
  647POPC    CC33604   8.227  13.718   2.378
  647POPC    CD33605   8.196  13.597   2.468
  647POPC    OE33606   8.070  13.608   2.540
  647POPC   C1A33607   7.961  13.553   2.486
  647POPC    OF33608   7.973  13.475   2.391
  647POPC   C1B33609   7.837  13.584   2.561
  647POPC   C1C33610   7.729  13.475   2.553
  647POPC   C1D33611   7.765  13.346   2.628
  647POPC   C1E33612   7.760  13.359   2.781
  647POPC   C1F33613   7.617  13.380   2.833
  647POPC   C1G33614   7.610  13.354   2.983
  647POPC   C1H33615   7.467  13.371   3.036
  647POPC   C1I33616   7.450  13.298   3.170
  647POPC   C1J33617   7.437  13.360   3.287
  647POPC   C1K33618   7.433  13.512   3.299
  647POPC   C1L33619   7.355  13.552   3.424
  647POPC   C1M33620   7.351  13.704   3.440
  647POPC   C1N33621   7.272  13.747   3.564
  647POPC   C1O33622   7.341  13.707   3.695
  647POPC   C1P33623   7.264  13.754   3.819
  647POPC   C1Q33624   7.130  13.681   3.839
  647POPC   C1R33625   7.148  13.534   3.878
  647POPC    CE33626   8.323  13.570   2.552
  647POPC    OG33627   8.323  13.453   2.637
  647POPC   C2A33628   8.287  13.473   2.764
  647POPC    OH33629   8.255  13.584   2.806
  647POPC   C2B33630   8.295  13.348   2.844
  647POPC   C2C33631   8.340  13.378   2.987
  647POPC   C2D33632   8.348  13.254   3.075
  647POPC   C2E33633   8.375  13.295   3.220
  647POPC   C2F33634   8.386  13.174   3.312
  647POPC   C2G33635   8.393  13.214   3.460
  647POPC   C2H33636   8.260  13.273   3.509
  647POPC   C2I33637   8.260  13.307   3.659
  647POPC   C2J33638   8.348  13.427   3.694
  647POPC   C2K33639   8.291  13.559   3.640
  647POPC   C2L33640   8.377  13.677   3.685
  647POPC   C2M33641   8.331  13.807   3.619
  647POPC   C2N33642   8.422  13.923   3.660
  647POPC   C2O33643   8.388  14.054   3.587
  647POPC   C2P33644   8.419  14.047   3.437
  648POPC   CN133645   7.370  14.819   2.617
  648POPC   CN233646   7.468  14.867   2.404
  648POPC   CN333647   7.583  14.921   2.604
  648POPC   NTM33648   7.495  14.822   2.541
  648POPC    CA33649   7.565  14.691   2.544
  648POPC    CB33650   7.502  14.567   2.477
  648POPC    OA33651   7.375  14.526   2.526
  648POPC     P33652   7.302  14.425   2.431
  648POPC    OB33653   7.169  14.403   2.489
  648POPC    OC33654   7.322  14.470   2.292
  648POPC    OD33655   7.395  14.302   2.449
  648POPC    CC33656   7.351  14.210   2.549
  648POPC    CD33657   7.463  14.111   2.585
  648POPC    OE33658   7.418  13.982   2.636
  648POPC   C1A33659   7.508  13.885   2.651
  648POPC    OF33660   7.614  13.890   2.589
  648POPC   C1B33661   7.457  13.766   2.723
  648POPC   C1C33662   7.454  13.784   2.876
  648POPC   C1D33663   7.592  13.810   2.938
  648POPC   C1E33664   7.581  13.820   3.090
  648POPC   C1F33665   7.712  13.860   3.158
  648POPC   C1G33666   7.748  14.005   3.128
  648POPC   C1H33667   7.877  14.050   3.197
  648POPC   C1I33668   7.907  14.195   3.157
  648POPC   C1J33669   7.973  14.278   3.237
  648POPC   C1K33670   8.025  14.233   3.374
  648POPC   C1L33671   8.017  14.348   3.475
  648POPC   C1M33672   8.081  14.307   3.607
  648POPC   C1N33673   8.065  14.416   3.713
  648POPC   C1O33674   8.142  14.378   3.840
  648POPC   C1P33675   8.122  14.482   3.950
  648POPC   C1Q33676   8.208  14.452   4.074
  648POPC   C1R33677   8.168  14.322   4.144
  648POPC    CE33678   7.561  14.193   2.672
  648POPC    OG33679   7.509  14.240   2.797
  648POPC   C2A33680   7.598  14.278   2.888
  648POPC    OH33681   7.718  14.251   2.874
  648POPC   C2B33682   7.537  14.332   3.011
  648POPC   C2C33683   7.625  14.440   3.075
  648POPC   C2D33684   7.572  14.480   3.213
  648POPC   C2E33685   7.665  14.584   3.277
  648POPC   C2F33686   7.622  14.624   3.418
  648POPC   C2G33687   7.634  14.508   3.517
  648POPC   C2H33688   7.601  14.553   3.660
  648POPC   C2I33689   7.600  14.432   3.753
  648POPC   C2J33690   7.563  14.471   3.896
  648POPC   C2K33691   7.531  14.346   3.978
  648POPC   C2L33692   7.488  14.383   4.120
  648POPC   C2M33693   7.426  14.264   4.195
  648POPC   C2N33694   7.524  14.152   4.225
  648POPC   C2O33695   7.454  14.039   4.302
  648POPC   C2P33696   7.552  13.928   4.340
  649POPC   CN133697   7.998  15.825   2.455
  649POPC   CN233698   7.911  15.610   2.398
  649POPC   CN333699   7.783  15.762   2.529
  649POPC   NTM33700   7.877  15.752   2.417
  649POPC    CA33701   7.827  15.813   2.292
  649POPC    CB33702   7.700  15.755   2.223
  649POPC    OA33703   7.583  15.763   2.303
  649POPC     P33704   7.461  15.690   2.238
  649POPC    OB33705   7.343  15.742   2.308
  649POPC    OC33706   7.472  15.696   2.091
  649POPC    OD33707   7.495  15.546   2.289
  649POPC    CC33708   7.455  15.525   2.425
  649POPC    CD33709   7.464  15.379   2.470
  649POPC    OE33710   7.400  15.357   2.599
  649POPC   C1A33711   7.357  15.235   2.629
  649POPC    OF33712   7.351  15.147   2.542
  649POPC   C1B33713   7.310  15.224   2.769
  649POPC   C1C33714   7.403  15.141   2.857
  649POPC   C1D33715   7.361  15.147   3.004
  649POPC   C1E33716   7.457  15.065   3.090
  649POPC   C1F33717   7.436  15.091   3.239
  649POPC   C1G33718   7.540  15.014   3.321
  649POPC   C1H33719   7.543  15.055   3.469
  649POPC   C1I33720   7.415  15.019   3.545
  649POPC   C1J33721   7.421  14.982   3.672
  649POPC   C1K33722   7.555  14.973   3.746
  649POPC   C1L33723   7.539  14.992   3.897
  649POPC   C1M33724   7.466  14.874   3.964
  649POPC   C1N33725   7.447  14.900   4.113
  649POPC   C1O33726   7.374  14.784   4.180
  649POPC   C1P33727   7.348  14.814   4.327
  649POPC   C1Q33728   7.272  14.699   4.394
  649POPC   C1R33729   7.238  14.732   4.539
  649POPC    CE33730   7.614  15.346   2.465
  649POPC    OG33731   7.695  15.409   2.567
  649POPC   C2A33732   7.723  15.332   2.672
  649POPC    OH33733   7.716  15.209   2.664
  649POPC   C2B33734   7.782  15.406   2.786
  649POPC   C2C33735   7.721  15.357   2.917
  649POPC   C2D33736   7.791  15.410   3.042
  649POPC   C2E33737   7.716  15.361   3.165
  649POPC   C2F33738   7.784  15.393   3.298
  649POPC   C2G33739   7.911  15.310   3.321
  649POPC   C2H33740   7.973  15.337   3.458
  649POPC   C2I33741   7.886  15.285   3.573
  649POPC   C2J33742   7.946  15.320   3.709
  649POPC   C2K33743   7.861  15.263   3.823
  649POPC   C2L33744   7.915  15.301   3.961
  649POPC   C2M33745   7.896  15.450   3.991
  649POPC   C2N33746   7.949  15.489   4.130
  649POPC   C2O33747   8.101  15.480   4.140
  649POPC   C2P33748   8.150  15.519   4.279
  650POPC   CN133749   8.534  15.652   1.994
  650POPC   CN233750   8.749  15.703   1.907
  650POPC   CN333751   8.710  15.721   2.140
  650POPC   NTM33752   8.678  15.642   2.020
  650POPC    CA33753   8.724  15.501   2.031
  650POPC    CB33754   8.658  15.404   2.132
  650POPC    OA33755   8.664  15.443   2.269
  650POPC     P33756   8.545  15.373   2.345
  650POPC    OB33757   8.426  15.441   2.294
  650POPC    OC33758   8.560  15.228   2.327
  650POPC    OD33759   8.574  15.421   2.491
  650POPC    CC33760   8.549  15.560   2.507
  650POPC    CD33761   8.527  15.607   2.651
  650POPC    OE33762   8.492  15.749   2.660
  650POPC   C1A33763   8.365  15.785   2.640
  650POPC    OF33764   8.282  15.705   2.596
  650POPC   C1B33765   8.339  15.929   2.663
  650POPC   C1C33766   8.280  15.958   2.801
  650POPC   C1D33767   8.137  15.907   2.818
  650POPC   C1E33768   8.079  15.947   2.953
  650POPC   C1F33769   7.934  15.899   2.968
  650POPC   C1G33770   7.866  15.959   3.092
  650POPC   C1H33771   7.930  15.918   3.225
  650POPC   C1I33772   7.903  15.772   3.262
  650POPC   C1J33773   7.923  15.732   3.387
  650POPC   C1K33774   7.975  15.832   3.490
  650POPC   C1L33775   7.944  15.787   3.633
  650POPC   C1M33776   8.000  15.888   3.732
  650POPC   C1N33777   7.973  15.845   3.876
  650POPC   C1O33778   8.031  15.945   3.977
  650POPC   C1P33779   7.957  16.079   3.975
  650POPC   C1Q33780   8.018  16.176   4.077
  650POPC   C1R33781   7.941  16.308   4.080
  650POPC    CE33782   8.655  15.568   2.728
  650POPC    OG33783   8.659  15.607   2.865
  650POPC   C2A33784   8.773  15.589   2.931
  650POPC    OH33785   8.867  15.525   2.881
  650POPC   C2B33786   8.767  15.649   3.066
  650POPC   C2C33787   8.838  15.567   3.173
  650POPC   C2D33788   8.813  15.628   3.311
  650POPC   C2E33789   8.875  15.543   3.422
  650POPC   C2F33790   8.848  15.605   3.559
  650POPC   C2G33791   8.915  15.523   3.669
  650POPC   C2H33792   8.892  15.590   3.805
  650POPC   C2I33793   8.962  15.513   3.917
  650POPC   C2J33794   8.938  15.582   4.051
  650POPC   C2K33795   9.008  15.508   4.165
  650POPC   C2L33796   8.979  15.576   4.299
  650POPC   C2M33797   9.044  15.505   4.417
  650POPC   C2N33798   9.197  15.518   4.417
  650POPC   C2O33799   9.257  15.446   4.537
  650POPC   C2P33800   9.409  15.464   4.541
  651POPC   CN133801   7.922  16.748   1.821
  651POPC   CN233802   8.027  16.780   1.609
  651POPC   CN333803   7.936  16.966   1.727
  651POPC   NTM33804   8.008  16.838   1.743
  651POPC    CA33805   8.141  16.853   1.806
  651POPC    CB33806   8.153  16.909   1.950
  651POPC    OA33807   8.104   0.059   1.968
  651POPC     P33808   8.059   0.084   2.117
  651POPC    OB33809   7.993   0.214   2.116
  651POPC    OC33810   7.993  16.945   2.165
  651POPC    OD33811   8.203   0.100   2.177
  651POPC    CC33812   8.207   0.061   2.314
  651POPC    CD33813   8.342   0.090   2.381
  651POPC    OE33814   8.362   0.013   2.503
  651POPC   C1A33815   8.483   0.008   2.557
  651POPC    OF33816   8.583   0.037   2.490
  651POPC   C1B33817   8.486  16.940   2.696
  651POPC   C1C33818   8.511  16.789   2.702
  651POPC   C1D33819   8.538  16.744   2.846
  651POPC   C1E33820   8.417  16.758   2.938
  651POPC   C1F33821   8.458  16.734   3.084
  651POPC   C1G33822   8.336  16.744   3.176
  651POPC   C1H33823   8.373  16.743   3.324
  651POPC   C1I33824   8.439  16.874   3.368
  651POPC   C1J33825   8.518  16.879   3.475
  651POPC   C1K33826   8.546  16.756   3.561
  651POPC   C1L33827   8.682  16.770   3.630
  651POPC   C1M33828   8.704  16.657   3.731
  651POPC   C1N33829   8.839  16.667   3.802
  651POPC   C1O33830   8.956  16.635   3.709
  651POPC   C1P33831   9.086  16.623   3.789
  651POPC   C1Q33832   9.204  16.576   3.703
  651POPC   C1R33833   9.249  16.682   3.602
  651POPC    CE33834   8.347   0.243   2.398
  651POPC    OG33835   8.254   0.289   2.497
  651POPC   C2A33836   8.289   0.396   2.568
  651POPC    OH33837   8.382   0.469   2.534
  651POPC   C2B33838   8.205   0.413   2.689
  651POPC   C2C33839   8.260   0.326   2.802
  651POPC   C2D33840   8.168   0.328   2.924
  651POPC   C2E33841   8.221   0.240   3.037
  651POPC   C2F33842   8.127   0.251   3.157
  651POPC   C2G33843   8.176   0.173   3.280
  651POPC   C2H33844   8.082   0.204   3.397
  651POPC   C2I33845   8.119   0.126   3.523
  651POPC   C2J33846   8.032   0.169   3.642
  651POPC   C2K33847   8.065   0.311   3.688
  651POPC   C2L33848   7.970   0.363   3.797
  651POPC   C2M33849   7.829   0.390   3.743
  651POPC   C2N33850   7.740   0.462   3.845
  651POPC   C2O33851   7.712   0.378   3.970
  651POPC   C2P33852   7.625   0.455   4.069
  652POPC   CN133853   7.703   0.671   2.022
  652POPC   CN233854   7.922   0.669   1.935
  652POPC   CN333855   7.735   0.625   1.791
  652POPC   NTM33856   7.784   0.706   1.904
  652POPC    CA33857   7.768   0.852   1.877
  652POPC    CB33858   7.836   0.922   1.757
  652POPC    OA33859   7.980   0.917   1.755
  652POPC     P33860   8.042   1.040   1.678
  652POPC    OB33861   8.188   1.021   1.683
  652POPC    OC33862   7.976   1.053   1.548
  652POPC    OD33863   7.994   1.160   1.766
  652POPC    CC33864   8.089   1.198   1.864
  652POPC    CD33865   8.076   1.345   1.906
  652POPC    OE33866   8.197   1.389   1.976
  652POPC   C1A33867   8.213   1.515   2.016
  652POPC    OF33868   8.127   1.601   1.992
  652POPC   C1B33869   8.342   1.540   2.084
  652POPC   C1C33870   8.361   1.459   2.212
  652POPC   C1D33871   8.278   1.513   2.329
  652POPC   C1E33872   8.288   1.415   2.447
  652POPC   C1F33873   8.236   1.478   2.575
  652POPC   C1G33874   8.229   1.373   2.686
  652POPC   C1H33875   8.204   1.436   2.824
  652POPC   C1I33876   8.333   1.496   2.883
  652POPC   C1J33877   8.344   1.508   3.014
  652POPC   C1K33878   8.228   1.464   3.104
  652POPC   C1L33879   8.224   1.545   3.233
  652POPC   C1M33880   8.106   1.503   3.320
  652POPC   C1N33881   8.095   1.586   3.448
  652POPC   C1O33882   8.208   1.557   3.546
  652POPC   C1P33883   8.186   1.635   3.676
  652POPC   C1Q33884   8.297   1.606   3.777
  652POPC   C1R33885   8.269   1.679   3.909
  652POPC    CE33886   7.939   1.359   1.977
  652POPC    OG33887   7.932   1.307   2.111
  652POPC   C2A33888   7.858   1.378   2.197
  652POPC    OH33889   7.806   1.485   2.163
  652POPC   C2B33890   7.870   1.329   2.336
  652POPC   C2C33891   7.743   1.348   2.420
  652POPC   C2D33892   7.779   1.337   2.569
  652POPC   C2E33893   7.655   1.342   2.658
  652POPC   C2F33894   7.690   1.365   2.806
  652POPC   C2G33895   7.779   1.255   2.866
  652POPC   C2H33896   7.824   1.288   3.008
  652POPC   C2I33897   7.712   1.276   3.112
  652POPC   C2J33898   7.762   1.321   3.249
  652POPC   C2K33899   7.656   1.299   3.357
  652POPC   C2L33900   7.690   1.368   3.490
  652POPC   C2M33901   7.815   1.311   3.557
  652POPC   C2N33902   7.846   1.378   3.691
  652POPC   C2O33903   7.743   1.344   3.799
  652POPC   C2P33904   7.780   1.411   3.932
  653POPC   CN133905   7.095   1.128   2.041
  653POPC   CN233906   7.028   0.920   1.950
  653POPC   CN333907   7.175   1.058   1.828
  653POPC   NTM33908   7.141   1.013   1.963
  653POPC    CA33909   7.253   0.941   2.029
  653POPC    CB33910   7.383   1.016   2.068
  653POPC    OA33911   7.448   1.089   1.964
  653POPC     P33912   7.527   1.213   2.020
  653POPC    OB33913   7.614   1.168   2.129
  653POPC    OC33914   7.578   1.283   1.902
  653POPC    OD33915   7.406   1.296   2.073
  653POPC    CC33916   7.453   1.405   2.153
  653POPC    CD33917   7.340   1.497   2.204
  653POPC    OE33918   7.388   1.612   2.278
  653POPC   C1A33919   7.441   1.717   2.216
  653POPC    OF33920   7.455   1.716   2.093
  653POPC   C1B33921   7.489   1.819   2.311
  653POPC   C1C33922   7.642   1.824   2.313
  653POPC   C1D33923   7.697   1.893   2.438
  653POPC   C1E33924   7.694   1.798   2.558
  653POPC   C1F33925   7.750   1.865   2.683
  653POPC   C1G33926   7.773   1.761   2.793
  653POPC   C1H33927   7.828   1.825   2.921
  653POPC   C1I33928   7.873   1.719   3.021
  653POPC   C1J33929   7.802   1.690   3.130
  653POPC   C1K33930   7.672   1.763   3.162
  653POPC   C1L33931   7.649   1.767   3.313
  653POPC   C1M33932   7.521   1.845   3.346
  653POPC   C1N33933   7.499   1.858   3.497
  653POPC   C1O33934   7.469   1.725   3.565
  653POPC   C1P33935   7.453   1.744   3.716
  653POPC   C1Q33936   7.424   1.612   3.786
  653POPC   C1R33937   7.415   1.632   3.937
  653POPC    CE33938   7.242   1.407   2.281
  653POPC    OG33939   7.299   1.331   2.389
  653POPC   C2A33940   7.237   1.219   2.425
  653POPC    OH33941   7.156   1.165   2.350
  653POPC   C2B33942   7.295   1.159   2.546
  653POPC   C2C33943   7.213   1.185   2.673
  653POPC   C2D33944   7.289   1.128   2.793
  653POPC   C2E33945   7.201   1.112   2.917
  653POPC   C2F33946   7.280   1.037   3.025
  653POPC   C2G33947   7.185   0.990   3.136
  653POPC   C2H33948   7.254   0.903   3.241
  653POPC   C2I33949   7.344   0.984   3.334
  653POPC   C2J33950   7.396   0.895   3.447
  653POPC   C2K33951   7.475   0.975   3.550
  653POPC   C2L33952   7.518   0.882   3.664
  653POPC   C2M33953   7.594   0.957   3.773
  653POPC   C2N33954   7.627   0.862   3.888
  653POPC   C2O33955   7.702   0.933   4.000
  653POPC   C2P33956   7.726   0.838   4.117
  654POPC   CN133957   8.352   2.718   2.027
  654POPC   CN233958   8.588   2.716   2.064
  654POPC   CN333959   8.489   2.577   1.898
  654POPC   NTM33960   8.483   2.709   1.961
  654POPC    CA33961   8.500   2.812   1.856
  654POPC    CB33962   8.506   2.964   1.891
  654POPC    OA33963   8.393   3.020   1.959
  654POPC     P33964   8.412   3.173   1.993
  654POPC    OB33965   8.469   3.234   1.871
  654POPC    OC33966   8.287   3.223   2.051
  654POPC    OD33967   8.523   3.161   2.104
  654POPC    CC33968   8.470   3.115   2.229
  654POPC    CD33969   8.574   3.046   2.319
  654POPC    OE33970   8.521   2.983   2.439
  654POPC   C1A33971   8.451   2.870   2.431
  654POPC    OF33972   8.420   2.821   2.322
  654POPC   C1B33973   8.409   2.820   2.565
  654POPC   C1C33974   8.278   2.741   2.561
  654POPC   C1D33975   8.224   2.703   2.700
  654POPC   C1E33976   8.318   2.610   2.778
  654POPC   C1F33977   8.256   2.561   2.909
  654POPC   C1G33978   8.143   2.460   2.884
  654POPC   C1H33979   8.078   2.412   3.013
  654POPC   C1I33980   7.970   2.309   2.980
  654POPC   C1J33981   7.918   2.229   3.073
  654POPC   C1K33982   7.960   2.236   3.220
  654POPC   C1L33983   7.928   2.104   3.290
  654POPC   C1M33984   7.949   2.112   3.441
  654POPC   C1N33985   7.910   1.980   3.507
  654POPC   C1O33986   7.914   1.988   3.660
  654POPC   C1P33987   7.868   1.855   3.721
  654POPC   C1Q33988   7.868   1.856   3.874
  654POPC   C1R33989   7.760   1.947   3.932
  654POPC    CE33990   8.686   3.150   2.344
  654POPC    OG33991   8.649   3.270   2.416
  654POPC   C2A33992   8.745   3.360   2.433
  654POPC    OH33993   8.845   3.360   2.360
  654POPC   C2B33994   8.710   3.469   2.527
  654POPC   C2C33995   8.752   3.439   2.670
  654POPC   C2D33996   8.713   3.556   2.761
  654POPC   C2E33997   8.746   3.533   2.909
  654POPC   C2F33998   8.667   3.418   2.970
  654POPC   C2G33999   8.684   3.413   3.122
  654POPC   C2H34000   8.605   3.296   3.181
  654POPC   C2I34001   8.600   3.298   3.334
  654POPC   C2J34002   8.738   3.283   3.398
  654POPC   C2K34003   8.733   3.286   3.551
  654POPC   C2L34004   8.663   3.163   3.610
  654POPC   C2M34005   8.664   3.163   3.763
  654POPC   C2N34006   8.805   3.146   3.820
  654POPC   C2O34007   8.806   3.144   3.974
  654POPC   C2P34008   8.737   3.019   4.030
  655POPC   CN134009   8.254   3.982   2.066
  655POPC   CN234010   8.024   3.944   2.121
  655POPC   CN334011   8.086   4.124   1.979
  655POPC   NTM34012   8.116   3.985   2.014
  655POPC    CA34013   8.098   3.900   1.894
  655POPC    CB34014   8.141   3.752   1.894
  655POPC    OA34015   8.282   3.734   1.885
  655POPC     P34016   8.323   3.584   1.870
  655POPC    OB34017   8.219   3.516   1.790
  655POPC    OC34018   8.460   3.593   1.816
  655POPC    OD34019   8.323   3.545   2.022
  655POPC    CC34020   8.440   3.591   2.088
  655POPC    CD34021   8.429   3.613   2.240
  655POPC    OE34022   8.550   3.669   2.297
  655POPC   C1A34023   8.567   3.801   2.294
  655POPC    OF34024   8.500   3.870   2.216
  655POPC   C1B34025   8.685   3.850   2.368
  655POPC   C1C34026   8.643   3.942   2.483
  655POPC   C1D34027   8.764   4.019   2.536
  655POPC   C1E34028   8.731   4.103   2.660
  655POPC   C1F34029   8.709   4.016   2.783
  655POPC   C1G34030   8.682   4.102   2.907
  655POPC   C1H34031   8.673   4.020   3.036
  655POPC   C1I34032   8.808   3.959   3.076
  655POPC   C1J34033   8.839   3.942   3.205
  655POPC   C1K34034   8.744   3.984   3.316
  655POPC   C1L34035   8.794   4.109   3.390
  655POPC   C1M34036   8.704   4.148   3.508
  655POPC   C1N34037   8.707   4.045   3.622
  655POPC   C1O34038   8.841   4.043   3.696
  655POPC   C1P34039   8.854   3.923   3.789
  655POPC   C1Q34040   8.757   3.928   3.907
  655POPC   C1R34041   8.770   3.802   3.993
  655POPC    CE34042   8.383   3.479   2.300
  655POPC    OG34043   8.363   3.474   2.442
  655POPC   C2A34044   8.315   3.361   2.492
  655POPC    OH34045   8.256   3.280   2.419
  655POPC   C2B34046   8.314   3.358   2.640
  655POPC   C2C34047   8.335   3.216   2.693
  655POPC   C2D34048   8.316   3.211   2.845
  655POPC   C2E34049   8.340   3.070   2.899
  655POPC   C2F34050   8.314   3.066   3.050
  655POPC   C2G34051   8.361   2.934   3.111
  655POPC   C2H34052   8.346   2.938   3.264
  655POPC   C2I34053   8.417   2.820   3.331
  655POPC   C2J34054   8.346   2.686   3.309
  655POPC   C2K34055   8.432   2.573   3.366
  655POPC   C2L34056   8.358   2.439   3.370
  655POPC   C2M34057   8.248   2.435   3.477
  655POPC   C2N34058   8.306   2.441   3.620
  655POPC   C2O34059   8.197   2.449   3.727
  655POPC   C2P34060   8.114   2.321   3.737
  656POPC   CN134061   8.604   5.059   2.280
  656POPC   CN234062   8.816   4.984   2.358
  656POPC   CN334063   8.620   4.916   2.472
  656POPC   NTM34064   8.676   4.945   2.339
  656POPC    CA34065   8.673   4.825   2.252
  656POPC    CB34066   8.539   4.769   2.197
  656POPC    OA34067   8.436   4.751   2.294
  656POPC     P34068   8.303   4.695   2.232
  656POPC    OB34069   8.194   4.707   2.330
  656POPC    OC34070   8.285   4.746   2.094
  656POPC    OD34071   8.343   4.544   2.217
  656POPC    CC34072   8.317   4.470   2.337
  656POPC    CD34073   8.394   4.338   2.353
  656POPC    OE34074   8.334   4.241   2.444
  656POPC   C1A34075   8.235   4.162   2.405
  656POPC    OF34076   8.168   4.188   2.305
  656POPC   C1B34077   8.201   4.061   2.508
  656POPC   C1C34078   8.194   3.919   2.452
  656POPC   C1D34079   8.171   3.817   2.565
  656POPC   C1E34080   8.295   3.808   2.654
  656POPC   C1F34081   8.260   3.750   2.791
  656POPC   C1G34082   8.382   3.761   2.883
  656POPC   C1H34083   8.345   3.747   3.031
  656POPC   C1I34084   8.307   3.605   3.072
  656POPC   C1J34085   8.307   3.576   3.201
  656POPC   C1K34086   8.342   3.688   3.300
  656POPC   C1L34087   8.403   3.633   3.428
  656POPC   C1M34088   8.442   3.748   3.521
  656POPC   C1N34089   8.499   3.698   3.655
  656POPC   C1O34090   8.393   3.625   3.738
  656POPC   C1P34091   8.449   3.584   3.874
  656POPC   C1Q34092   8.346   3.509   3.958
  656POPC   C1R34093   8.224   3.595   3.993
  656POPC    CE34094   8.538   4.379   2.388
  656POPC    OG34095   8.556   4.461   2.505
  656POPC   C2A34096   8.676   4.514   2.522
  656POPC    OH34097   8.759   4.518   2.431
  656POPC   C2B34098   8.691   4.583   2.652
  656POPC   C2C34099   8.752   4.492   2.758
  656POPC   C2D34100   8.778   4.568   2.888
  656POPC   C2E34101   8.842   4.477   2.994
  656POPC   C2F34102   8.884   4.554   3.120
  656POPC   C2G34103   9.000   4.650   3.093
  656POPC   C2H34104   9.039   4.727   3.219
  656POPC   C2I34105   9.151   4.827   3.189
  656POPC   C2J34106   9.195   4.899   3.316
  656POPC   C2K34107   9.309   4.997   3.288
  656POPC   C2L34108   9.362   5.064   3.415
  656POPC   C2M34109   9.258   5.152   3.484
  656POPC   C2N34110   9.314   5.205   3.616
  656POPC   C2O34111   9.209   5.286   3.692
  656POPC   C2P34112   9.263   5.329   3.829
  657POPC   CN134113   9.775   4.951   2.057
  657POPC   CN234114   9.656   4.745   2.057
  657POPC   CN334115   9.883   4.751   2.124
  657POPC   NTM34116   9.756   4.825   2.129
  657POPC    CA34117   9.721   4.845   2.272
  657POPC    CB34118   9.602   4.934   2.315
  657POPC    OA34119   9.472   4.898   2.266
  657POPC     P34120   9.366   5.009   2.304
  657POPC    OB34121   9.432   5.140   2.296
  657POPC    OC34122   9.246   4.979   2.224
  657POPC    OD34123   9.344   4.967   2.453
  657POPC    CC34124   9.254   4.857   2.467
  657POPC    CD34125   9.241   4.797   2.608
  657POPC    OE34126   9.157   4.867   2.703
  657POPC   C1A34127   9.025   4.864   2.690
  657POPC    OF34128   8.971   4.819   2.589
  657POPC   C1B34129   8.952   4.920   2.806
  657POPC   C1C34130   8.925   5.070   2.795
  657POPC   C1D34131   8.851   5.116   2.921
  657POPC   C1E34132   8.829   5.267   2.924
  657POPC   C1F34133   8.756   5.311   3.051
  657POPC   C1G34134   8.837   5.280   3.178
  657POPC   C1H34135   8.766   5.329   3.304
  657POPC   C1I34136   8.848   5.296   3.429
  657POPC   C1J34137   8.854   5.383   3.529
  657POPC   C1K34138   8.778   5.515   3.517
  657POPC   C1L34139   8.858   5.630   3.578
  657POPC   C1M34140   8.783   5.762   3.559
  657POPC   C1N34141   8.866   5.880   3.609
  657POPC   C1O34142   8.793   6.012   3.585
  657POPC   C1P34143   8.880   6.130   3.627
  657POPC   C1Q34144   8.805   6.262   3.608
  657POPC   C1R34145   8.894   6.380   3.651
  657POPC    CE34146   9.385   4.765   2.652
  657POPC    OG34147   9.433   4.644   2.591
  657POPC   C2A34148   9.565   4.631   2.576
  657POPC    OH34149   9.639   4.729   2.575
  657POPC   C2B34150   9.604   4.492   2.540
  657POPC   C2C34151   9.617   4.406   2.665
  657POPC   C2D34152   9.743   4.437   2.747
  657POPC   C2E34153   9.730   4.392   2.892
  657POPC   C2F34154   9.641   4.489   2.970
  657POPC   C2G34155   9.617   4.441   3.113
  657POPC   C2H34156   9.544   4.549   3.194
  657POPC   C2I34157   9.507   4.498   3.333
  657POPC   C2J34158   9.453   4.612   3.420
  657POPC   C2K34159   9.403   4.559   3.554
  657POPC   C2L34160   9.355   4.671   3.646
  657POPC   C2M34161   9.470   4.757   3.700
  657POPC   C2N34162   9.421   4.871   3.790
  657POPC   C2O34163   9.356   4.821   3.920
  657POPC   C2P34164   9.309   4.939   4.006
  658POPC   CN134165   8.268   6.052   1.815
  658POPC   CN234166   8.292   5.837   1.919
  658POPC   CN334167   8.482   5.964   1.856
  658POPC   NTM34168   8.346   5.974   1.911
  658POPC    CA34169   8.354   6.037   2.045
  658POPC    CB34170   8.228   6.065   2.131
  658POPC    OA34171   8.140   6.171   2.088
  658POPC     P34172   7.989   6.127   2.080
  658POPC    OB34173   7.915   6.239   2.018
  658POPC    OC34174   7.985   5.996   2.015
  658POPC    OD34175   7.947   6.111   2.230
  658POPC    CC34176   7.923   6.236   2.294
  658POPC    CD34177   7.882   6.225   2.442
  658POPC    OE34178   7.847   6.351   2.505
  658POPC   C1A34179   7.723   6.398   2.491
  658POPC    OF34180   7.652   6.361   2.397
  658POPC   C1B34181   7.696   6.514   2.579
  658POPC   C1C34182   7.567   6.498   2.660
  658POPC   C1D34183   7.580   6.393   2.771
  658POPC   C1E34184   7.447   6.378   2.845
  658POPC   C1F34185   7.456   6.282   2.964
  658POPC   C1G34186   7.487   6.137   2.922
  658POPC   C1H34187   7.488   6.047   3.045
  658POPC   C1I34188   7.526   5.903   3.010
  658POPC   C1J34189   7.588   5.829   3.102
  658POPC   C1K34190   7.616   5.889   3.240
  658POPC   C1L34191   7.751   5.844   3.295
  658POPC   C1M34192   7.778   5.910   3.430
  658POPC   C1N34193   7.915   5.870   3.485
  658POPC   C1O34194   7.940   5.928   3.625
  658POPC   C1P34195   7.955   6.081   3.624
  658POPC   C1Q34196   7.978   6.134   3.765
  658POPC   C1R34197   7.995   6.286   3.765
  658POPC    CE34198   7.999   6.152   2.511
  658POPC    OG34199   8.124   6.222   2.503
  658POPC   C2A34200   8.235   6.150   2.506
  658POPC    OH34201   8.230   6.027   2.494
  658POPC   C2B34202   8.355   6.236   2.510
  658POPC   C2C34203   8.484   6.180   2.449
  658POPC   C2D34204   8.548   6.071   2.536
  658POPC   C2E34205   8.693   6.043   2.495
  658POPC   C2F34206   8.790   6.153   2.541
  658POPC   C2G34207   8.812   6.148   2.693
  658POPC   C2H34208   8.906   6.260   2.739
  658POPC   C2I34209   8.930   6.249   2.890
  658POPC   C2J34210   9.019   6.363   2.941
  658POPC   C2K34211   9.040   6.351   3.091
  658POPC   C2L34212   9.123   6.469   3.144
  658POPC   C2M34213   9.135   6.464   3.296
  658POPC   C2N34214   9.205   6.590   3.348
  658POPC   C2O34215   9.212   6.594   3.501
  658POPC   C2P34216   9.307   6.488   3.559
  659POPC   CN134217   7.949   6.701   2.035
  659POPC   CN234218   7.798   6.618   2.198
  659POPC   CN334219   7.921   6.816   2.243
  659POPC   NTM34220   7.852   6.741   2.137
  659POPC    CA34221   7.738   6.817   2.080
  659POPC    CB34222   7.762   6.959   2.023
  659POPC    OA34223   7.853   6.965   1.913
  659POPC     P34224   7.898   7.112   1.880
  659POPC    OB34225   7.970   7.104   1.753
  659POPC    OC34226   7.783   7.201   1.895
  659POPC    OD34227   7.995   7.133   2.001
  659POPC    CC34228   8.124   7.079   1.975
  659POPC    CD34229   8.225   7.090   2.090
  659POPC    OE34230   8.218   6.980   2.184
  659POPC   C1A34231   8.320   6.894   2.185
  659POPC    OF34232   8.396   6.889   2.087
  659POPC   C1B34233   8.313   6.795   2.295
  659POPC   C1C34234   8.450   6.765   2.354
  659POPC   C1D34235   8.444   6.668   2.472
  659POPC   C1E34236   8.585   6.640   2.525
  659POPC   C1F34237   8.587   6.539   2.640
  659POPC   C1G34238   8.532   6.597   2.771
  659POPC   C1H34239   8.524   6.493   2.883
  659POPC   C1I34240   8.412   6.391   2.859
  659POPC   C1J34241   8.417   6.268   2.908
  659POPC   C1K34242   8.534   6.219   2.993
  659POPC   C1L34243   8.489   6.107   3.087
  659POPC   C1M34244   8.605   6.047   3.168
  659POPC   C1N34245   8.703   5.971   3.077
  659POPC   C1O34246   8.818   5.910   3.157
  659POPC   C1P34247   8.922   5.843   3.066
  659POPC   C1Q34248   8.866   5.721   2.994
  659POPC   C1R34249   8.969   5.661   2.898
  659POPC    CE34250   8.214   7.235   2.142
  659POPC    OG34251   8.313   7.280   2.236
  659POPC   C2A34252   8.310   7.409   2.268
  659POPC    OH34253   8.227   7.486   2.218
  659POPC   C2B34254   8.414   7.448   2.366
  659POPC   C2C34255   8.356   7.474   2.505
  659POPC   C2D34256   8.466   7.529   2.595
  659POPC   C2E34257   8.417   7.582   2.730
  659POPC   C2F34258   8.381   7.471   2.829
  659POPC   C2G34259   8.357   7.533   2.967
  659POPC   C2H34260   8.330   7.427   3.074
  659POPC   C2I34261   8.314   7.493   3.211
  659POPC   C2J34262   8.294   7.389   3.320
  659POPC   C2K34263   8.283   7.455   3.458
  659POPC   C2L34264   8.267   7.352   3.571
  659POPC   C2M34265   8.391   7.264   3.587
  659POPC   C2N34266   8.371   7.157   3.695
  659POPC   C2O34267   8.495   7.068   3.705
  659POPC   C2P34268   8.478   6.960   3.811
  660POPC   CN134269   8.038   8.573   1.918
  660POPC   CN234270   7.854   8.439   1.840
  660POPC   CN334271   7.953   8.604   1.698
  660POPC   NTM34272   7.981   8.503   1.801
  660POPC    CA34273   8.075   8.404   1.745
  660POPC    CB34274   8.121   8.282   1.829
  660POPC    OA34275   8.185   8.314   1.953
  660POPC     P34276   8.214   8.187   2.040
  660POPC    OB34277   8.241   8.074   1.949
  660POPC    OC34278   8.309   8.225   2.146
  660POPC    OD34279   8.068   8.171   2.097
  660POPC    CC34280   8.050   8.246   2.217
  660POPC    CD34281   7.906   8.250   2.270
  660POPC    OE34282   7.894   8.335   2.387
  660POPC   C1A34283   7.781   8.399   2.416
  660POPC    OF34284   7.686   8.397   2.338
  660POPC   C1B34285   7.788   8.476   2.543
  660POPC   C1C34286   7.651   8.493   2.609
  660POPC   C1D34287   7.658   8.571   2.741
  660POPC   C1E34288   7.723   8.489   2.852
  660POPC   C1F34289   7.730   8.562   2.987
  660POPC   C1G34290   7.591   8.592   3.045
  660POPC   C1H34291   7.596   8.651   3.186
  660POPC   C1I34292   7.657   8.792   3.190
  660POPC   C1J34293   7.678   8.854   3.305
  660POPC   C1K34294   7.639   8.789   3.438
  660POPC   C1L34295   7.618   8.895   3.545
  660POPC   C1M34296   7.583   8.831   3.680
  660POPC   C1N34297   7.583   8.936   3.791
  660POPC   C1O34298   7.563   8.873   3.929
  660POPC   C1P34299   7.419   8.830   3.958
  660POPC   C1Q34300   7.328   8.950   3.981
  660POPC   C1R34301   7.187   8.906   4.020
  660POPC    CE34302   7.865   8.102   2.289
  660POPC    OG34303   7.939   8.029   2.388
  660POPC   C2A34304   7.940   7.896   2.378
  660POPC    OH34305   7.905   7.840   2.274
  660POPC   C2B34306   8.001   7.829   2.495
  660POPC   C2C34307   7.942   7.690   2.519
  660POPC   C2D34308   7.992   7.623   2.647
  660POPC   C2E34309   7.945   7.697   2.773
  660POPC   C2F34310   7.969   7.613   2.898
  660POPC   C2G34311   7.911   7.683   3.022
  660POPC   C2H34312   7.906   7.587   3.141
  660POPC   C2I34313   7.846   7.653   3.265
  660POPC   C2J34314   7.944   7.748   3.333
  660POPC   C2K34315   7.880   7.830   3.446
  660POPC   C2L34316   7.829   7.746   3.564
  660POPC   C2M34317   7.943   7.690   3.650
  660POPC   C2N34318   7.890   7.608   3.768
  660POPC   C2O34319   7.811   7.694   3.868
  660POPC   C2P34320   7.755   7.609   3.982
  661POPC   CN134321   8.748   8.092   2.251
  661POPC   CN234322   8.665   8.193   2.053
  661POPC   CN334323   8.644   8.305   2.263
  661POPC   NTM34324   8.732   8.220   2.181
  661POPC    CA34325   8.866   8.280   2.164
  661POPC    CB34326   8.884   8.411   2.083
  661POPC    OA34327   8.810   8.523   2.129
  661POPC     P34328   8.807   8.640   2.025
  661POPC    OB34329   8.861   8.761   2.087
  661POPC    OC34330   8.865   8.597   1.896
  661POPC    OD34331   8.653   8.655   2.003
  661POPC    CC34332   8.588   8.725   2.109
  661POPC    CD34333   8.436   8.733   2.091
  661POPC    OE34334   8.373   8.835   2.174
  661POPC   C1A34335   8.254   8.883   2.141
  661POPC    OF34336   8.206   8.860   2.028
  661POPC   C1B34337   8.203   8.987   2.234
  661POPC   C1C34338   8.109   8.935   2.343
  661POPC   C1D34339   8.177   8.859   2.457
  661POPC   C1E34340   8.264   8.951   2.545
  661POPC   C1F34341   8.325   8.875   2.662
  661POPC   C1G34342   8.421   8.966   2.739
  661POPC   C1H34343   8.487   8.894   2.857
  661POPC   C1I34344   8.602   8.979   2.910
  661POPC   C1J34345   8.646   8.973   3.036
  661POPC   C1K34346   8.586   8.881   3.142
  661POPC   C1L34347   8.619   8.938   3.280
  661POPC   C1M34348   8.574   8.848   3.395
  661POPC   C1N34349   8.617   8.909   3.529
  661POPC   C1O34350   8.585   8.818   3.647
  661POPC   C1P34351   8.639   8.878   3.777
  661POPC   C1Q34352   8.613   8.785   3.895
  661POPC   C1R34353   8.670   8.843   4.025
  661POPC    CE34354   8.384   8.588   2.107
  661POPC    OG34355   8.396   8.531   2.238
  661POPC   C2A34356   8.282   8.516   2.306
  661POPC    OH34357   8.174   8.561   2.265
  661POPC   C2B34358   8.301   8.443   2.434
  661POPC   C2C34359   8.205   8.488   2.545
  661POPC   C2D34360   8.220   8.398   2.668
  661POPC   C2E34361   8.142   8.451   2.788
  661POPC   C2F34362   8.163   8.357   2.907
  661POPC   C2G34363   8.098   8.409   3.035
  661POPC   C2H34364   8.122   8.310   3.149
  661POPC   C2I34365   8.062   8.356   3.282
  661POPC   C2J34366   8.090   8.251   3.389
  661POPC   C2K34367   8.038   8.292   3.527
  661POPC   C2L34368   8.061   8.179   3.627
  661POPC   C2M34369   8.011   8.216   3.767
  661POPC   C2N34370   8.017   8.095   3.860
  661POPC   C2O34371   7.958   8.129   3.997
  661POPC   C2P34372   7.953   8.007   4.088
  662POPC   CN134373   8.539   9.494   2.433
  662POPC   CN234374   8.706   9.660   2.425
  662POPC   CN334375   8.652   9.534   2.228
  662POPC   NTM34376   8.597   9.598   2.348
  662POPC    CA34377   8.491   9.696   2.315
  662POPC    CB34378   8.520   9.817   2.222
  662POPC    OA34379   8.615   9.914   2.264
  662POPC     P34380   8.596  10.051   2.188
  662POPC    OB34381   8.716  10.134   2.206
  662POPC    OC34382   8.549  10.022   2.051
  662POPC    OD34383   8.475  10.104   2.272
  662POPC    CC34384   8.519  10.170   2.391
  662POPC    CD34385   8.414  10.180   2.502
  662POPC    OE34386   8.460  10.259   2.615
  662POPC   C1A34387   8.454  10.392   2.610
  662POPC    OF34388   8.411  10.449   2.509
  662POPC   C1B34389   8.507  10.460   2.730
  662POPC   C1C34390   8.407  10.456   2.847
  662POPC   C1D34391   8.433  10.566   2.950
  662POPC   C1E34392   8.574  10.561   3.010
  662POPC   C1F34393   8.596  10.682   3.100
  662POPC   C1G34394   8.743  10.692   3.143
  662POPC   C1H34395   8.766  10.816   3.228
  662POPC   C1I34396   8.916  10.836   3.250
  662POPC   C1J34397   8.962  10.897   3.359
  662POPC   C1K34398   8.867  10.950   3.467
  662POPC   C1L34399   8.935  11.063   3.545
  662POPC   C1M34400   8.850  11.115   3.661
  662POPC   C1N34401   8.834  11.011   3.772
  662POPC   C1O34402   8.751  11.067   3.887
  662POPC   C1P34403   8.729  10.960   3.994
  662POPC   C1Q34404   8.647  11.016   4.111
  662POPC   C1R34405   8.618  10.907   4.214
  662POPC    CE34406   8.379  10.035   2.540
  662POPC    OG34407   8.266  10.017   2.628
  662POPC   C2A34408   8.278   9.922   2.720
  662POPC    OH34409   8.371   9.841   2.717
  662POPC   C2B34410   8.164   9.920   2.814
  662POPC   C2C34411   8.196   9.862   2.953
  662POPC   C2D34412   8.297   9.947   3.031
  662POPC   C2E34413   8.321   9.894   3.173
  662POPC   C2F34414   8.387   9.755   3.173
  662POPC   C2G34415   8.415   9.703   3.315
  662POPC   C2H34416   8.524   9.783   3.386
  662POPC   C2I34417   8.564   9.717   3.518
  662POPC   C2J34418   8.681   9.791   3.582
  662POPC   C2K34419   8.736   9.717   3.705
  662POPC   C2L34420   8.638   9.720   3.823
  662POPC   C2M34421   8.690   9.639   3.942
  662POPC   C2N34422   8.686   9.488   3.916
  662POPC   C2O34423   8.733   9.411   4.039
  662POPC   C2P34424   8.720   9.260   4.017
  663POPC   CN134425   8.706  10.975   2.497
  663POPC   CN234426   8.481  10.927   2.551
  663POPC   CN334427   8.567  11.147   2.590
  663POPC   NTM34428   8.571  11.031   2.499
  663POPC    CA34429   8.535  11.070   2.361
  663POPC    CB34430   8.402  11.144   2.332
  663POPC    OA34431   8.285  11.077   2.379
  663POPC     P34432   8.160  11.168   2.361
  663POPC    OB34433   8.164  11.268   2.469
  663POPC    OC34434   8.154  11.208   2.220
  663POPC    OD34435   8.049  11.062   2.388
  663POPC    CC34436   8.038  11.026   2.525
  663POPC    CD34437   7.907  10.951   2.551
  663POPC    OE34438   7.856  10.968   2.685
  663POPC   C1A34439   7.781  11.076   2.708
  663POPC    OF34440   7.715  11.123   2.615
  663POPC   C1B34441   7.760  11.106   2.852
  663POPC   C1C34442   7.766  11.257   2.875
  663POPC   C1D34443   7.731  11.294   3.019
  663POPC   C1E34444   7.731  11.446   3.038
  663POPC   C1F34445   7.677  11.482   3.176
  663POPC   C1G34446   7.687  11.633   3.199
  663POPC   C1H34447   7.630  11.672   3.336
  663POPC   C1I34448   7.650  11.822   3.362
  663POPC   C1J34449   7.561  11.891   3.432
  663POPC   C1K34450   7.434  11.823   3.484
  663POPC   C1L34451   7.401  11.872   3.625
  663POPC   C1M34452   7.279  11.799   3.682
  663POPC   C1N34453   7.260  11.835   3.830
  663POPC   C1O34454   7.142  11.760   3.890
  663POPC   C1P34455   7.129  11.793   4.039
  663POPC   C1Q34456   7.010  11.720   4.102
  663POPC   C1R34457   6.997  11.755   4.250
  663POPC    CE34458   7.924  10.810   2.491
  663POPC    OG34459   8.013  10.722   2.561
  663POPC   C2A34460   8.050  10.613   2.495
  663POPC    OH34461   8.072  10.619   2.373
  663POPC   C2B34462   8.090  10.503   2.585
  663POPC   C2C34463   7.972  10.409   2.609
  663POPC   C2D34464   8.000  10.306   2.719
  663POPC   C2E34465   8.015  10.372   2.856
  663POPC   C2F34466   8.032  10.267   2.966
  663POPC   C2G34467   8.065  10.333   3.100
  663POPC   C2H34468   8.076  10.227   3.209
  663POPC   C2I34469   8.128  10.288   3.339
  663POPC   C2J34470   8.136  10.186   3.453
  663POPC   C2K34471   7.997  10.142   3.501
  663POPC   C2L34472   8.004  10.043   3.618
  663POPC   C2M34473   8.062   9.908   3.576
  663POPC   C2N34474   8.069   9.813   3.696
  663POPC   C2O34475   8.127   9.678   3.655
  663POPC   C2P34476   8.137   9.585   3.776
  664POPC   CN134477   8.899  11.656   2.230
  664POPC   CN234478   8.942  11.614   2.459
  664POPC   CN334479   9.021  11.814   2.360
  664POPC   NTM34480   8.909  11.720   2.362
  664POPC    CA34481   8.785  11.794   2.397
  664POPC    CB34482   8.646  11.727   2.387
  664POPC    OA34483   8.627  11.608   2.463
  664POPC     P34484   8.495  11.533   2.419
  664POPC    OB34485   8.397  11.631   2.372
  664POPC    OC34486   8.537  11.427   2.326
  664POPC    OD34487   8.453  11.467   2.555
  664POPC    CC34488   8.383  11.561   2.636
  664POPC    CD34489   8.349  11.512   2.778
  664POPC    OE34490   8.267  11.603   2.856
  664POPC   C1A34491   8.136  11.618   2.835
  664POPC    OF34492   8.072  11.543   2.760
  664POPC   C1B34493   8.079  11.720   2.926
  664POPC   C1C34494   7.959  11.796   2.868
  664POPC   C1D34495   7.912  11.897   2.972
  664POPC   C1E34496   7.776  11.957   2.937
  664POPC   C1F34497   7.728  12.043   3.053
  664POPC   C1G34498   7.583  12.088   3.031
  664POPC   C1H34499   7.532  12.167   3.151
  664POPC   C1I34500   7.387  12.209   3.126
  664POPC   C1J34501   7.304  12.244   3.224
  664POPC   C1K34502   7.345  12.247   3.371
  664POPC   C1L34503   7.219  12.237   3.457
  664POPC   C1M34504   7.249  12.248   3.606
  664POPC   C1N34505   7.120  12.233   3.686
  664POPC   C1O34506   7.146  12.231   3.836
  664POPC   C1P34507   7.016  12.201   3.912
  664POPC   C1Q34508   7.043  12.189   4.062
  664POPC   C1R34509   6.916  12.152   4.138
  664POPC    CE34510   8.484  11.477   2.844
  664POPC    OG34511   8.581  11.583   2.847
  664POPC   C2A34512   8.707  11.552   2.820
  664POPC    OH34513   8.738  11.437   2.785
  664POPC   C2B34514   8.797  11.669   2.822
  664POPC   C2C34515   8.947  11.635   2.826
  664POPC   C2D34516   8.998  11.592   2.963
  664POPC   C2E34517   9.009  11.711   3.058
  664POPC   C2F34518   9.077  11.671   3.190
  664POPC   C2G34519   8.984  11.595   3.284
  664POPC   C2H34520   9.065  11.533   3.398
  664POPC   C2I34521   8.977  11.469   3.506
  664POPC   C2J34522   8.909  11.571   3.597
  664POPC   C2K34523   9.010  11.648   3.684
  664POPC   C2L34524   8.943  11.738   3.788
  664POPC   C2M34525   8.869  11.655   3.893
  664POPC   C2N34526   8.799  11.744   3.996
  664POPC   C2O34527   8.720  11.658   4.095
  664POPC   C2P34528   8.641  11.744   4.193
  665POPC   CN134529   8.095  11.775   1.746
  665POPC   CN234530   8.107  11.815   1.981
  665POPC   CN334531   8.293  11.723   1.863
  665POPC   NTM34532   8.183  11.819   1.855
  665POPC    CA34533   8.230  11.956   1.824
  665POPC    CB34534   8.315  12.035   1.928
  665POPC    OA34535   8.429  11.965   1.977
  665POPC     P34536   8.469  12.014   2.122
  665POPC    OB34537   8.585  11.927   2.148
  665POPC    OC34538   8.476  12.160   2.114
  665POPC    OD34539   8.343  11.961   2.200
  665POPC    CC34540   8.308  12.048   2.308
  665POPC    CD34541   8.188  11.999   2.391
  665POPC    OE34542   8.132  12.104   2.475
  665POPC   C1A34543   8.002  12.128   2.476
  665POPC    OF34544   7.925  12.076   2.394
  665POPC   C1B34545   7.960  12.225   2.580
  665POPC   C1C34546   7.968  12.370   2.532
  665POPC   C1D34547   7.923  12.466   2.643
  665POPC   C1E34548   7.771  12.465   2.662
  665POPC   C1F34549   7.730  12.532   2.793
  665POPC   C1G34550   7.751  12.438   2.912
  665POPC   C1H34551   7.713  12.501   3.046
  665POPC   C1I34552   7.825  12.591   3.100
  665POPC   C1J34553   7.841  12.610   3.231
  665POPC   C1K34554   7.750  12.544   3.335
  665POPC   C1L34555   7.817  12.422   3.399
  665POPC   C1M34556   7.731  12.357   3.507
  665POPC   C1N34557   7.724  12.441   3.635
  665POPC   C1O34558   7.639  12.372   3.741
  665POPC   C1P34559   7.633  12.455   3.870
  665POPC   C1Q34560   7.542  12.388   3.973
  665POPC   C1R34561   7.532  12.474   4.099
  665POPC    CE34562   8.237  11.874   2.467
  665POPC    OG34563   8.265  11.883   2.608
  665POPC   C2A34564   8.379  11.937   2.649
  665POPC    OH34565   8.470  11.967   2.571
  665POPC   C2B34566   8.384  11.951   2.797
  665POPC   C2C34567   8.525  11.932   2.853
  665POPC   C2D34568   8.530  11.943   3.006
  665POPC   C2E34569   8.452  11.830   3.076
  665POPC   C2F34570   8.463  11.840   3.228
  665POPC   C2G34571   8.601  11.802   3.280
  665POPC   C2H34572   8.618  11.835   3.428
  665POPC   C2I34573   8.527  11.754   3.520
  665POPC   C2J34574   8.546  11.800   3.665
  665POPC   C2K34575   8.464  11.720   3.766
  665POPC   C2L34576   8.313  11.741   3.751
  665POPC   C2M34577   8.236  11.676   3.867
  665POPC   C2N34578   8.260  11.751   3.999
  665POPC   C2O34579   8.194  11.683   4.119
  665POPC   C2P34580   8.262  11.549   4.153
  666POPC   CN134581   8.819  12.847   2.191
  666POPC   CN234582   8.629  12.768   2.076
  666POPC   CN334583   8.625  12.989   2.162
  666POPC   NTM34584   8.711  12.887   2.100
  666POPC    CA34585   8.761  12.934   1.969
  666POPC    CB34586   8.843  13.065   1.959
  666POPC    OA34587   8.971  13.062   2.022
  666POPC     P34588   9.019  13.208   2.063
  666POPC    OB34589   9.163  13.195   2.087
  666POPC    OC34590   8.964  13.305   1.967
  666POPC    OD34591   8.937  13.218   2.196
  666POPC    CC34592   9.005  13.155   2.305
  666POPC    CD34593   8.967  13.210   2.443
  666POPC    OE34594   9.060  13.171   2.548
  666POPC   C1A34595   9.176  13.237   2.560
  666POPC    OF34596   9.206  13.327   2.480
  666POPC   C1B34597   9.262  13.186   2.669
  666POPC   C1C34598   9.210  13.230   2.806
  666POPC   C1D34599   9.290  13.168   2.921
  666POPC   C1E34600   9.220  13.193   3.055
  666POPC   C1F34601   9.226  13.339   3.099
  666POPC   C1G34602   9.125  13.371   3.210
  666POPC   C1H34603   9.148  13.290   3.338
  666POPC   C1I34604   9.034  13.314   3.437
  666POPC   C1J34605   9.053  13.293   3.567
  666POPC   C1K34606   9.189  13.245   3.619
  666POPC   C1L34607   9.214  13.287   3.764
  666POPC   C1M34608   9.121  13.216   3.863
  666POPC   C1N34609   9.148  13.263   4.006
  666POPC   C1O34610   9.049  13.200   4.103
  666POPC   C1P34611   9.069  13.257   4.244
  666POPC   C1Q34612   8.969  13.195   4.342
  666POPC   C1R34613   8.989  13.253   4.482
  666POPC    CE34614   8.818  13.181   2.467
  666POPC    OG34615   8.780  13.042   2.468
  666POPC   C2A34616   8.660  13.014   2.517
  666POPC    OH34617   8.569  13.098   2.515
  666POPC   C2B34618   8.642  12.870   2.546
  666POPC   C2C34619   8.671  12.840   2.693
  666POPC   C2D34620   8.666  12.689   2.717
  666POPC   C2E34621   8.687  12.653   2.865
  666POPC   C2F34622   8.567  12.691   2.952
  666POPC   C2G34623   8.582  12.628   3.090
  666POPC   C2H34624   8.455  12.643   3.174
  666POPC   C2I34625   8.470  12.565   3.305
  666POPC   C2J34626   8.343  12.569   3.389
  666POPC   C2K34627   8.363  12.489   3.517
  666POPC   C2L34628   8.236  12.485   3.602
  666POPC   C2M34629   8.261  12.404   3.730
  666POPC   C2N34630   8.135  12.397   3.817
  666POPC   C2O34631   8.158  12.319   3.946
  666POPC   C2P34632   8.253  12.391   4.043
  667POPC   CN134633   8.735  13.856   2.051
  667POPC   CN234634   8.639  13.670   1.932
  667POPC   CN334635   8.836  13.773   1.853
  667POPC   NTM34636   8.764  13.734   1.974
  667POPC    CA34637   8.850  13.640   2.052
  667POPC    CB34638   8.794  13.570   2.178
  667POPC    OA34639   8.743  13.659   2.276
  667POPC     P34640   8.677  13.580   2.394
  667POPC    OB34641   8.565  13.509   2.331
  667POPC    OC34642   8.791  13.508   2.454
  667POPC    OD34643   8.627  13.701   2.479
  667POPC    CC34644   8.729  13.753   2.563
  667POPC    CD34645   8.714  13.902   2.600
  667POPC    OE34646   8.829  13.956   2.670
  667POPC   C1A34647   8.881  14.071   2.629
  667POPC    OF34648   8.842  14.122   2.523
  667POPC   C1B34649   8.994  14.118   2.712
  667POPC   C1C34650   9.003  14.271   2.713
  667POPC   C1D34651   9.126  14.323   2.788
  667POPC   C1E34652   9.117  14.303   2.940
  667POPC   C1F34653   9.243  14.361   3.005
  667POPC   C1G34654   9.240  14.357   3.158
  667POPC   C1H34655   9.367  14.423   3.211
  667POPC   C1I34656   9.370  14.437   3.363
  667POPC   C1J34657   9.487  14.432   3.426
  667POPC   C1K34658   9.614  14.410   3.344
  667POPC   C1L34659   9.739  14.464   3.414
  667POPC   C1M34660   9.867  14.425   3.339
  667POPC   C1N34661   9.886  14.501   3.207
  667POPC   C1O34662   9.946  14.641   3.224
  667POPC   C1P34663  10.091  14.633   3.273
  667POPC   C1Q34664  10.159  14.771   3.283
  667POPC   C1R34665  10.187  14.831   3.145
  667POPC    CE34666   8.578  13.919   2.672
  667POPC    OG34667   8.556  13.844   2.792
  667POPC   C2A34668   8.451  13.880   2.866
  667POPC    OH34669   8.376  13.971   2.830
  667POPC   C2B34670   8.435  13.797   2.988
  667POPC   C2C34671   8.307  13.829   3.067
  667POPC   C2D34672   8.271  13.709   3.154
  667POPC   C2E34673   8.143  13.729   3.236
  667POPC   C2F34674   8.085  13.592   3.270
  667POPC   C2G34675   7.975  13.596   3.376
  667POPC   C2H34676   7.909  13.459   3.386
  667POPC   C2I34677   7.836  13.440   3.519
  667POPC   C2J34678   7.760  13.307   3.520
  667POPC   C2K34679   7.716  13.264   3.661
  667POPC   C2L34680   7.626  13.366   3.732
  667POPC   C2M34681   7.589  13.315   3.871
  667POPC   C2N34682   7.519  13.421   3.956
  667POPC   C2O34683   7.615  13.534   3.996
  667POPC   C2P34684   7.544  13.640   4.080
  668POPC   CN134685   8.151  14.077   2.648
  668POPC   CN234686   8.087  13.865   2.727
  668POPC   CN334687   7.955  14.052   2.786
  668POPC   NTM34688   8.035  13.992   2.678
  668POPC    CA34689   7.954  13.969   2.556
  668POPC    CB34690   7.876  14.087   2.493
  668POPC    OA34691   7.952  14.201   2.454
  668POPC     P34692   7.867  14.333   2.451
  668POPC    OB34693   7.940  14.429   2.367
  668POPC    OC34694   7.728  14.299   2.418
  668POPC    OD34695   7.873  14.369   2.603
  668POPC    CC34696   7.942  14.491   2.631
  668POPC    CD34697   7.932  14.531   2.780
  668POPC    OE34698   7.965  14.669   2.810
  668POPC   C1A34699   7.866  14.757   2.818
  668POPC    OF34700   7.748  14.722   2.803
  668POPC   C1B34701   7.911  14.894   2.852
  668POPC   C1C34702   7.839  14.955   2.972
  668POPC   C1D34703   7.867  14.882   3.104
  668POPC   C1E34704   8.014  14.893   3.147
  668POPC   C1F34705   8.045  14.810   3.272
  668POPC   C1G34706   7.979  14.866   3.398
  668POPC   C1H34707   8.016  14.781   3.520
  668POPC   C1I34708   7.959  14.840   3.649
  668POPC   C1J34709   8.037  14.906   3.735
  668POPC   C1K34710   8.187  14.921   3.708
  668POPC   C1L34711   8.265  14.971   3.830
  668POPC   C1M34712   8.268  14.871   3.946
  668POPC   C1N34713   8.350  14.926   4.063
  668POPC   C1O34714   8.351  14.829   4.180
  668POPC   C1P34715   8.439  14.883   4.294
  668POPC   C1Q34716   8.442  14.785   4.412
  668POPC   C1R34717   8.534  14.838   4.523
  668POPC    CE34718   8.010  14.424   2.859
  668POPC    OG34719   8.151  14.414   2.832
  668POPC   C2A34720   8.217  14.322   2.901
  668POPC    OH34721   8.157  14.225   2.948
  668POPC   C2B34722   8.364  14.334   2.890
  668POPC   C2C34723   8.430  14.299   3.023
  668POPC   C2D34724   8.581  14.315   3.018
  668POPC   C2E34725   8.639  14.279   3.155
  668POPC   C2F34726   8.792  14.292   3.158
  668POPC   C2G34727   8.847  14.247   3.293
  668POPC   C2H34728   8.815  14.344   3.406
  668POPC   C2I34729   8.824  14.276   3.543
  668POPC   C2J34730   8.965  14.226   3.578
  668POPC   C2K34731   8.962  14.129   3.696
  668POPC   C2L34732   8.891  13.999   3.657
  668POPC   C2M34733   8.876  13.904   3.776
  668POPC   C2N34734   8.801  13.777   3.733
  668POPC   C2O34735   8.776  13.681   3.849
  668POPC   C2P34736   8.680  13.739   3.953
  669POPC   CN134737   8.197  14.949   2.110
  669POPC   CN234738   8.393  15.050   2.030
  669POPC   CN334739   8.184  15.120   1.942
  669POPC   NTM34740   8.254  15.076   2.063
  669POPC    CA34741   8.253  15.183   2.166
  669POPC    CB34742   8.118  15.233   2.225
  669POPC    OA34743   8.044  15.126   2.282
  669POPC     P34744   7.921  15.170   2.368
  669POPC    OB34745   7.857  15.279   2.293
  669POPC    OC34746   7.852  15.041   2.388
  669POPC    OD34747   8.006  15.218   2.492
  669POPC    CC34748   8.053  15.110   2.571
  669POPC    CD34749   8.177  15.140   2.659
  669POPC    OE34750   8.216  15.025   2.739
  669POPC   C1A34751   8.297  14.932   2.689
  669POPC    OF34752   8.329  14.937   2.569
  669POPC   C1B34753   8.334  14.823   2.782
  669POPC   C1C34754   8.375  14.872   2.922
  669POPC   C1D34755   8.412  14.757   3.016
  669POPC   C1E34756   8.450  14.813   3.153
  669POPC   C1F34757   8.491  14.704   3.251
  669POPC   C1G34758   8.531  14.767   3.385
  669POPC   C1H34759   8.581  14.666   3.489
  669POPC   C1I34760   8.468  14.579   3.546
  669POPC   C1J34761   8.478  14.531   3.670
  669POPC   C1K34762   8.601  14.562   3.756
  669POPC   C1L34763   8.565  14.552   3.904
  669POPC   C1M34764   8.687  14.569   3.995
  669POPC   C1N34765   8.644  14.546   4.141
  669POPC   C1O34766   8.761  14.545   4.240
  669POPC   C1P34767   8.823  14.682   4.263
  669POPC   C1Q34768   8.933  14.672   4.370
  669POPC   C1R34769   8.993  14.809   4.401
  669POPC    CE34770   8.143  15.264   2.743
  669POPC    OG34771   8.244  15.309   2.836
  669POPC   C2A34772   8.209  15.404   2.922
  669POPC    OH34773   8.108  15.471   2.905
  669POPC   C2B34774   8.309  15.427   3.028
  669POPC   C2C34775   8.278  15.339   3.149
  669POPC   C2D34776   8.369  15.366   3.269
  669POPC   C2E34777   8.345  15.504   3.331
  669POPC   C2F34778   8.431  15.526   3.456
  669POPC   C2G34779   8.384  15.440   3.574
  669POPC   C2H34780   8.481  15.454   3.692
  669POPC   C2I34781   8.433  15.375   3.814
  669POPC   C2J34782   8.536  15.385   3.926
  669POPC   C2K34783   8.485  15.318   4.054
  669POPC   C2L34784   8.590  15.328   4.166
  669POPC   C2M34785   8.535  15.269   4.296
  669POPC   C2N34786   8.638  15.269   4.409
  669POPC   C2O34787   8.753  15.172   4.384
  669POPC   C2P34788   8.850  15.170   4.501
  670POPC   CN134789   8.775   0.779   2.378
  670POPC   CN234790   8.586   0.688   2.485
  670POPC   CN334791   8.562   0.792   2.272
  670POPC   NTM34792   8.649   0.707   2.354
  670POPC    CA34793   8.670   0.573   2.293
  670POPC    CB34794   8.729   0.558   2.151
  670POPC    OA34795   8.844   0.640   2.127
  670POPC     P34796   8.961   0.573   2.049
  670POPC    OB34797   8.902   0.504   1.933
  670POPC    OC34798   9.058   0.680   2.028
  670POPC    OD34799   9.010   0.473   2.159
  670POPC    CC34800   9.091   0.537   2.258
  670POPC    CD34801   9.087   0.465   2.394
  670POPC    OE34802   9.149   0.541   2.500
  670POPC   C1A34803   9.071   0.605   2.587
  670POPC    OF34804   8.948   0.610   2.569
  670POPC   C1B34805   9.147   0.659   2.702
  670POPC   C1C34806   9.073   0.767   2.782
  670POPC   C1D34807   9.144   0.795   2.915
  670POPC   C1E34808   9.136   0.672   3.007
  670POPC   C1F34809   9.222   0.686   3.133
  670POPC   C1G34810   9.219   0.552   3.207
  670POPC   C1H34811   9.311   0.549   3.330
  670POPC   C1I34812   9.310   0.408   3.389
  670POPC   C1J34813   9.414   0.360   3.457
  670POPC   C1K34814   9.537   0.446   3.487
  670POPC   C1L34815   9.617   0.384   3.602
  670POPC   C1M34816   9.733   0.474   3.645
  670POPC   C1N34817   9.820   0.400   3.747
  670POPC   C1O34818   9.930   0.492   3.803
  670POPC   C1P34819  10.029   0.416   3.893
  670POPC   C1Q34820   9.967   0.359   4.021
  670POPC   C1R34821   9.928   0.469   4.121
  670POPC    CE34822   9.143   0.323   2.372
  670POPC    OG34823   9.132   0.233   2.484
  670POPC   C2A34824   9.190   0.114   2.471
  670POPC    OH34825   9.247   0.081   2.367
  670POPC   C2B34826   9.177   0.029   2.592
  670POPC   C2C34827   9.059  16.916   2.582
  670POPC   C2D34828   9.055  16.820   2.702
  670POPC   C2E34829   8.941  16.719   2.688
  670POPC   C2F34830   8.943  16.612   2.798
  670POPC   C2G34831   8.911  16.668   2.937
  670POPC   C2H34832   8.913  16.558   3.043
  670POPC   C2I34833   8.885  16.614   3.183
  670POPC   C2J34834   8.905  16.508   3.292
  670POPC   C2K34835   8.795  16.401   3.290
  670POPC   C2L34836   8.844  16.267   3.347
  670POPC   C2M34837   8.873  16.265   3.498
  670POPC   C2N34838   8.746  16.273   3.583
  670POPC   C2O34839   8.764  16.207   3.720
  670POPC   C2P34840   8.870  16.272   3.808
  671POPC   CN134841   9.152   0.770   1.520
  671POPC   CN234842   9.368   0.724   1.603
  671POPC   CN334843   9.206   0.832   1.743
  671POPC   NTM34844   9.226   0.729   1.640
  671POPC    CA34845   9.173   0.597   1.683
  671POPC    CB34846   9.231   0.529   1.809
  671POPC    OA34847   9.370   0.500   1.804
  671POPC     P34848   9.428   0.477   1.947
  671POPC    OB34849   9.331   0.416   2.039
  671POPC    OC34850   9.563   0.424   1.926
  671POPC    OD34851   9.453   0.628   1.981
  671POPC    CC34852   9.477   0.640   2.121
  671POPC    CD34853   9.545   0.771   2.163
  671POPC    OE34854   9.600   0.759   2.297
  671POPC   C1A34855   9.684   0.851   2.344
  671POPC    OF34856   9.743   0.926   2.267
  671POPC   C1B34857   9.715   0.832   2.488
  671POPC   C1C34858   9.607   0.894   2.576
  671POPC   C1D34859   9.643   0.880   2.724
  671POPC   C1E34860   9.537   0.948   2.812
  671POPC   C1F34861   9.586   0.958   2.956
  671POPC   C1G34862   9.486   1.036   3.042
  671POPC   C1H34863   9.544   1.062   3.181
  671POPC   C1I34864   9.448   1.143   3.267
  671POPC   C1J34865   9.494   1.238   3.349
  671POPC   C1K34866   9.645   1.265   3.355
  671POPC   C1L34867   9.677   1.412   3.387
  671POPC   C1M34868   9.639   1.507   3.273
  671POPC   C1N34869   9.677   1.653   3.303
  671POPC   C1O34870   9.598   1.710   3.422
  671POPC   C1P34871   9.639   1.855   3.449
  671POPC   C1Q34872   9.563   1.910   3.570
  671POPC   C1R34873   9.608   2.053   3.601
  671POPC    CE34874   9.444   0.884   2.137
  671POPC    OG34875   9.323   0.875   2.214
  671POPC   C2A34876   9.240   0.978   2.210
  671POPC    OH34877   9.253   1.071   2.129
  671POPC   C2B34878   9.126   0.965   2.305
  671POPC   C2C34879   9.162   0.989   2.452
  671POPC   C2D34880   9.232   1.124   2.478
  671POPC   C2E34881   9.222   1.172   2.624
  671POPC   C2F34882   9.078   1.209   2.659
  671POPC   C2G34883   9.065   1.301   2.781
  671POPC   C2H34884   9.096   1.231   2.913
  671POPC   C2I34885   9.068   1.327   3.030
  671POPC   C2J34886   9.091   1.261   3.166
  671POPC   C2K34887   8.990   1.150   3.193
  671POPC   C2L34888   9.022   1.077   3.323
  671POPC   C2M34889   8.926   0.959   3.341
  671POPC   C2N34890   8.965   0.876   3.463
  671POPC   C2O34891   8.875   0.753   3.474
  671POPC   C2P34892   8.916   0.666   3.593
  672POPC   CN134893   9.157   1.637   2.077
  672POPC   CN234894   9.345   1.633   1.936
  672POPC   CN334895   9.288   1.437   2.055
  672POPC   NTM34896   9.232   1.552   1.984
  672POPC    CA34897   9.152   1.510   1.866
  672POPC    CB34898   9.017   1.435   1.884
  672POPC    OA34899   8.915   1.513   1.947
  672POPC     P34900   8.775   1.441   1.952
  672POPC    OB34901   8.681   1.545   1.996
  672POPC    OC34902   8.758   1.374   1.822
  672POPC    OD34903   8.807   1.338   2.065
  672POPC    CC34904   8.764   1.382   2.194
  672POPC    CD34905   8.831   1.300   2.305
  672POPC    OE34906   8.752   1.276   2.424
  672POPC   C1A34907   8.681   1.163   2.431
  672POPC    OF34908   8.690   1.078   2.342
  672POPC   C1B34909   8.612   1.143   2.561
  672POPC   C1C34910   8.704   1.066   2.656
  672POPC   C1D34911   8.639   1.033   2.790
  672POPC   C1E34912   8.740   0.961   2.879
  672POPC   C1F34913   8.682   0.916   3.013
  672POPC   C1G34914   8.583   0.800   2.998
  672POPC   C1H34915   8.531   0.755   3.134
  672POPC   C1I34916   8.426   0.645   3.120
  672POPC   C1J34917   8.404   0.561   3.220
  672POPC   C1K34918   8.482   0.574   3.351
  672POPC   C1L34919   8.400   0.523   3.469
  672POPC   C1M34920   8.476   0.533   3.602
  672POPC   C1N34921   8.503   0.679   3.643
  672POPC   C1O34922   8.572   0.685   3.779
  672POPC   C1P34923   8.604   0.829   3.818
  672POPC   C1Q34924   8.673   0.839   3.954
  672POPC   C1R34925   8.813   0.777   3.954
  672POPC    CE34926   8.974   1.354   2.321
  672POPC    OG34927   8.990   1.484   2.382
  672POPC   C2A34928   9.114   1.515   2.417
  672POPC    OH34929   9.209   1.470   2.354
  672POPC   C2B34930   9.123   1.625   2.516
  672POPC   C2C34931   9.157   1.760   2.453
  672POPC   C2D34932   9.163   1.867   2.562
  672POPC   C2E34933   9.189   2.007   2.505
  672POPC   C2F34934   9.194   2.108   2.619
  672POPC   C2G34935   9.213   2.251   2.570
  672POPC   C2H34936   9.216   2.344   2.692
  672POPC   C2I34937   9.230   2.492   2.656
  672POPC   C2J34938   9.234   2.573   2.785
  672POPC   C2K34939   9.245   2.724   2.761
  672POPC   C2L34940   9.245   2.796   2.895
  672POPC   C2M34941   9.247   2.948   2.878
  672POPC   C2N34942   9.243   3.017   3.015
  672POPC   C2O34943   9.242   3.170   3.005
  672POPC   C2P34944   9.112   3.224   2.944
  673POPC   CN134945   8.668   2.140   1.550
  673POPC   CN234946   8.667   1.991   1.737
  673POPC   CN334947   8.770   1.924   1.536
  673POPC   NTM34948   8.747   2.039   1.623
  673POPC    CA34949   8.878   2.093   1.667
  673POPC    CB34950   8.888   2.222   1.753
  673POPC    OA34951   8.810   2.220   1.872
  673POPC     P34952   8.827   2.344   1.967
  673POPC    OB34953   8.837   2.460   1.877
  673POPC    OC34954   8.711   2.324   2.057
  673POPC    OD34955   8.964   2.303   2.032
  673POPC    CC34956   8.953   2.214   2.144
  673POPC    CD34957   8.973   2.065   2.112
  673POPC    OE34958   8.935   1.974   2.218
  673POPC   C1A34959   8.832   1.893   2.197
  673POPC    OF34960   8.776   1.892   2.087
  673POPC   C1B34961   8.803   1.806   2.314
  673POPC   C1C34962   8.656   1.765   2.324
  673POPC   C1D34963   8.629   1.689   2.455
  673POPC   C1E34964   8.637   1.783   2.576
  673POPC   C1F34965   8.626   1.711   2.711
  673POPC   C1G34966   8.748   1.622   2.740
  673POPC   C1H34967   8.761   1.583   2.887
  673POPC   C1I34968   8.794   1.705   2.975
  673POPC   C1J34969   8.777   1.705   3.106
  673POPC   C1K34970   8.728   1.583   3.184
  673POPC   C1L34971   8.623   1.625   3.287
  673POPC   C1M34972   8.591   1.512   3.385
  673POPC   C1N34973   8.683   1.511   3.508
  673POPC   C1O34974   8.652   1.630   3.600
  673POPC   C1P34975   8.730   1.626   3.732
  673POPC   C1Q34976   8.880   1.651   3.713
  673POPC   C1R34977   8.954   1.644   3.846
  673POPC    CE34978   9.114   2.047   2.052
  673POPC    OG34979   9.225   2.095   2.130
  673POPC   C2A34980   9.329   2.013   2.138
  673POPC    OH34981   9.318   1.893   2.112
  673POPC   C2B34982   9.448   2.077   2.198
  673POPC   C2C34983   9.578   2.012   2.149
  673POPC   C2D34984   9.699   2.090   2.199
  673POPC   C2E34985   9.829   2.018   2.162
  673POPC   C2F34986   9.953   2.099   2.204
  673POPC   C2G34987   9.964   2.119   2.355
  673POPC   C2H34988  10.091   2.195   2.391
  673POPC   C2I34989  10.092   2.240   2.537
  673POPC   C2J34990  10.103   2.125   2.637
  673POPC   C2K34991  10.098   2.179   2.780
  673POPC   C2L34992  10.127   2.070   2.882
  673POPC   C2M34993  10.131   2.124   3.025
  673POPC   C2N34994   9.993   2.149   3.085
  673POPC   C2O34995   9.916   2.020   3.116
  673POPC   C2P34996   9.982   1.936   3.226
  674POPC   CN134997   8.900   3.497   2.092
  674POPC   CN234998   8.857   3.619   1.894
  674POPC   CN334999   9.031   3.459   1.896
  674POPC   NTM35000   8.896   3.488   1.945
  674POPC    CA35001   8.796   3.389   1.897
  674POPC    CB35002   8.802   3.241   1.941
  674POPC    OA35003   8.923   3.171   1.914
  674POPC     P35004   8.915   3.024   1.970
  674POPC    OB35005   8.852   3.029   2.102
  674POPC    OC35006   8.859   2.940   1.863
  674POPC    OD35007   9.070   3.004   1.978
  674POPC    CC35008   9.123   3.046   2.103
  674POPC    CD35009   9.276   3.041   2.112
  674POPC    OE35010   9.322   3.032   2.249
  674POPC   C1A35011   9.438   2.971   2.274
  674POPC    OF35012   9.519   2.952   2.182
  674POPC   C1B35013   9.462   2.939   2.417
  674POPC   C1C35014   9.560   3.036   2.482
  674POPC   C1D35015   9.600   2.986   2.622
  674POPC   C1E35016   9.699   3.083   2.687
  674POPC   C1F35017   9.754   3.033   2.821
  674POPC   C1G35018   9.648   3.023   2.931
  674POPC   C1H35019   9.712   2.981   3.063
  674POPC   C1I35020   9.607   2.968   3.174
  674POPC   C1J35021   9.639   3.001   3.299
  674POPC   C1K35022   9.779   3.052   3.331
  674POPC   C1L35023   9.812   3.042   3.480
  674POPC   C1M35024   9.953   3.095   3.505
  674POPC   C1N35025   9.994   3.092   3.653
  674POPC   C1O35026   9.918   3.195   3.738
  674POPC   C1P35027   9.972   3.195   3.881
  674POPC   C1Q35028   9.901   3.297   3.971
  674POPC   C1R35029   9.755   3.258   3.999
  674POPC    CE35030   9.326   3.159   2.026
  674POPC    OG35031   9.283   3.289   2.072
  674POPC   C2A35032   9.366   3.354   2.153
  674POPC    OH35033   9.488   3.335   2.144
  674POPC   C2B35034   9.303   3.470   2.220
  674POPC   C2C35035   9.249   3.436   2.359
  674POPC   C2D35036   9.361   3.413   2.461
  674POPC   C2E35037   9.302   3.383   2.599
  674POPC   C2F35038   9.410   3.365   2.707
  674POPC   C2G35039   9.489   3.493   2.735
  674POPC   C2H35040   9.592   3.474   2.847
  674POPC   C2I35041   9.526   3.459   2.985
  674POPC   C2J35042   9.632   3.447   3.094
  674POPC   C2K35043   9.568   3.445   3.233
  674POPC   C2L35044   9.675   3.439   3.342
  674POPC   C2M35045   9.617   3.441   3.484
  674POPC   C2N35046   9.553   3.577   3.519
  674POPC   C2O35047   9.495   3.579   3.660
  674POPC   C2P35048   9.604   3.570   3.768
  675POPC   CN135049   8.735   4.167   1.737
  675POPC   CN235050   8.646   4.230   1.527
  675POPC   CN335051   8.500   4.207   1.710
  675POPC   NTM35052   8.634   4.252   1.672
  675POPC    CA35053   8.651   4.396   1.700
  675POPC    CB35054   8.661   4.451   1.845
  675POPC    OA35055   8.777   4.406   1.916
  675POPC     P35056   8.776   4.452   2.066
  675POPC    OB35057   8.770   4.598   2.057
  675POPC    OC35058   8.667   4.371   2.120
  675POPC    OD35059   8.918   4.392   2.094
  675POPC    CC35060   8.911   4.260   2.146
  675POPC    CD35061   9.044   4.184   2.153
  675POPC    OE35062   9.024   4.049   2.205
  675POPC   C1A35063   9.127   3.965   2.217
  675POPC    OF35064   9.220   3.971   2.136
  675POPC   C1B35065   9.099   3.850   2.306
  675POPC   C1C35066   9.125   3.887   2.452
  675POPC   C1D35067   9.101   3.770   2.547
  675POPC   C1E35068   9.125   3.814   2.692
  675POPC   C1F35069   9.119   3.697   2.789
  675POPC   C1G35070   9.149   3.745   2.931
  675POPC   C1H35071   9.161   3.629   3.030
  675POPC   C1I35072   9.196   3.683   3.169
  675POPC   C1J35073   9.178   3.611   3.279
  675POPC   C1K35074   9.124   3.468   3.272
  675POPC   C1L35075   9.174   3.388   3.393
  675POPC   C1M35076   9.128   3.242   3.388
  675POPC   C1N35077   9.172   3.164   3.512
  675POPC   C1O35078   9.324   3.144   3.518
  675POPC   C1P35079   9.369   3.084   3.651
  675POPC   C1Q35080   9.350   3.182   3.767
  675POPC   C1R35081   9.395   3.121   3.900
  675POPC    CE35082   9.140   4.276   2.232
  675POPC    OG35083   9.102   4.301   2.368
  675POPC   C2A35084   9.172   4.394   2.433
  675POPC    OH35085   9.253   4.467   2.376
  675POPC   C2B35086   9.134   4.407   2.576
  675POPC   C2C35087   9.196   4.296   2.661
  675POPC   C2D35088   9.174   4.324   2.809
  675POPC   C2E35089   9.210   4.202   2.894
  675POPC   C2F35090   9.207   4.236   3.043
  675POPC   C2G35091   9.220   4.108   3.126
  675POPC   C2H35092   9.243   4.141   3.274
  675POPC   C2I35093   9.242   4.013   3.357
  675POPC   C2J35094   9.294   4.033   3.500
  675POPC   C2K35095   9.209   4.130   3.582
  675POPC   C2L35096   9.266   4.148   3.724
  675POPC   C2M35097   9.251   4.022   3.809
  675POPC   C2N35098   9.319   4.041   3.945
  675POPC   C2O35099   9.294   3.923   4.040
  675POPC   C2P35100   9.149   3.919   4.090
  676POPC   CN135101  10.104   4.208   1.856
  676POPC   CN235102  10.324   4.140   1.799
  676POPC   CN335103  10.213   4.037   1.982
  676POPC   NTM35104  10.194   4.092   1.847
  676POPC    CA35105  10.145   3.991   1.750
  676POPC    CB35106  10.007   3.924   1.767
  676POPC    OA35107   9.989   3.848   1.886
  676POPC     P35108   9.843   3.793   1.906
  676POPC    OB35109   9.784   3.776   1.772
  676POPC    OC35110   9.850   3.679   1.999
  676POPC    OD35111   9.781   3.919   1.974
  676POPC    CC35112   9.834   3.941   2.104
  676POPC    CD35113   9.803   4.082   2.157
  676POPC    OE35114   9.895   4.124   2.262
  676POPC   C1A35115   9.892   4.251   2.303
  676POPC    OF35116   9.827   4.335   2.240
  676POPC   C1B35117   9.979   4.277   2.420
  676POPC   C1C35118  10.020   4.424   2.435
  676POPC   C1D35119  10.109   4.440   2.558
  676POPC   C1E35120  10.146   4.586   2.584
  676POPC   C1F35121  10.228   4.602   2.712
  676POPC   C1G35122  10.148   4.566   2.838
  676POPC   C1H35123  10.234   4.573   2.964
  676POPC   C1I35124  10.154   4.529   3.086
  676POPC   C1J35125  10.186   4.568   3.209
  676POPC   C1K35126  10.306   4.661   3.235
  676POPC   C1L35127  10.262   4.804   3.270
  676POPC   C1M35128  10.202   4.819   3.410
  676POPC   C1N35129  10.308   4.804   3.520
  676POPC   C1O35130  10.247   4.833   3.657
  676POPC   C1P35131  10.350   4.830   3.770
  676POPC   C1Q35132  10.453   4.943   3.758
  676POPC   C1R35133  10.553   4.941   3.874
  676POPC    CE35134   9.653   4.080   2.192
  676POPC    OG35135   9.615   4.005   2.309
  676POPC   C2A35136   9.525   4.066   2.387
  676POPC    OH35137   9.476   4.175   2.358
  676POPC   C2B35138   9.489   3.986   2.507
  676POPC   C2C35139   9.579   4.014   2.627
  676POPC   C2D35140   9.529   3.934   2.747
  676POPC   C2E35141   9.615   3.954   2.872
  676POPC   C2F35142   9.555   3.874   2.988
  676POPC   C2G35143   9.636   3.879   3.117
  676POPC   C2H35144   9.640   4.018   3.181
  676POPC   C2I35145   9.686   4.009   3.326
  676POPC   C2J35146   9.689   4.146   3.393
  676POPC   C2K35147   9.695   4.136   3.546
  676POPC   C2L35148   9.827   4.080   3.598
  676POPC   C2M35149   9.819   4.061   3.750
  676POPC   C2N35150   9.951   4.011   3.808
  676POPC   C2O35151   9.941   3.982   3.958
  676POPC   C2P35152   9.916   4.108   4.042
  677POPC   CN135153   8.800   5.387   1.748
  677POPC   CN235154   8.656   5.469   1.919
  677POPC   CN335155   8.890   5.435   1.963
  677POPC   NTM35156   8.792   5.479   1.863
  677POPC    CA35157   8.823   5.616   1.814
  677POPC    CB35158   8.829   5.735   1.913
  677POPC    OA35159   8.706   5.765   1.978
  677POPC     P35160   8.725   5.818   2.125
  677POPC    OB35161   8.847   5.900   2.133
  677POPC    OC35162   8.596   5.862   2.177
  677POPC    OD35163   8.757   5.680   2.190
  677POPC    CC35164   8.765   5.698   2.331
  677POPC    CD35165   8.714   5.575   2.409
  677POPC    OE35166   8.681   5.601   2.548
  677POPC   C1A35167   8.556   5.636   2.576
  677POPC    OF35168   8.466   5.612   2.494
  677POPC   C1B35169   8.534   5.681   2.715
  677POPC   C1C35170   8.483   5.567   2.803
  677POPC   C1D35171   8.444   5.620   2.941
  677POPC   C1E35172   8.392   5.509   3.031
  677POPC   C1F35173   8.343   5.562   3.166
  677POPC   C1G35174   8.457   5.621   3.250
  677POPC   C1H35175   8.408   5.678   3.384
  677POPC   C1I35176   8.320   5.802   3.366
  677POPC   C1J35177   8.319   5.898   3.458
  677POPC   C1K35178   8.406   5.887   3.583
  677POPC   C1L35179   8.338   5.956   3.702
  677POPC   C1M35180   8.427   5.956   3.826
  677POPC   C1N35181   8.353   6.023   3.943
  677POPC   C1O35182   8.444   6.040   4.064
  677POPC   C1P35183   8.368   6.106   4.179
  677POPC   C1Q35184   8.458   6.137   4.299
  677POPC   C1R35185   8.511   6.011   4.368
  677POPC    CE35186   8.808   5.458   2.376
  677POPC    OG35187   8.947   5.474   2.406
  677POPC   C2A35188   9.028   5.379   2.360
  677POPC    OH35189   8.991   5.301   2.271
  677POPC   C2B35190   9.166   5.387   2.412
  677POPC   C2C35191   9.177   5.306   2.541
  677POPC   C2D35192   9.321   5.306   2.594
  677POPC   C2E35193   9.332   5.239   2.731
  677POPC   C2F35194   9.266   5.323   2.841
  677POPC   C2G35195   9.288   5.259   2.978
  677POPC   C2H35196   9.221   5.338   3.091
  677POPC   C2I35197   9.281   5.478   3.110
  677POPC   C2J35198   9.218   5.548   3.230
  677POPC   C2K35199   9.278   5.687   3.249
  677POPC   C2L35200   9.230   5.750   3.380
  677POPC   C2M35201   9.300   5.884   3.404
  677POPC   C2N35202   9.263   5.940   3.541
  677POPC   C2O35203   9.335   6.072   3.568
  677POPC   C2P35204   9.302   6.125   3.707
  678POPC   CN135205   8.554   6.688   1.669
  678POPC   CN235206   8.724   6.538   1.743
  678POPC   CN335207   8.770   6.770   1.727
  678POPC   NTM35208   8.667   6.672   1.763
  678POPC    CA35209   8.628   6.695   1.904
  678POPC    CB35210   8.511   6.617   1.971
  678POPC    OA35211   8.514   6.475   1.960
  678POPC     P35212   8.563   6.404   2.093
  678POPC    OB35213   8.477   6.456   2.201
  678POPC    OC35214   8.578   6.261   2.067
  678POPC    OD35215   8.707   6.463   2.101
  678POPC    CC35216   8.769   6.443   2.228
  678POPC    CD35217   8.920   6.475   2.224
  678POPC    OE35218   8.992   6.441   2.346
  678POPC   C1A35219   9.120   6.404   2.337
  678POPC    OF35220   9.177   6.399   2.227
  678POPC   C1B35221   9.181   6.371   2.467
  678POPC   C1C35222   9.255   6.491   2.526
  678POPC   C1D35223   9.309   6.464   2.666
  678POPC   C1E35224   9.371   6.591   2.724
  678POPC   C1F35225   9.423   6.571   2.866
  678POPC   C1G35226   9.484   6.701   2.919
  678POPC   C1H35227   9.542   6.683   3.059
  678POPC   C1I35228   9.612   6.811   3.105
  678POPC   C1J35229   9.637   6.834   3.233
  678POPC   C1K35230   9.598   6.732   3.340
  678POPC   C1L35231   9.572   6.795   3.478
  678POPC   C1M35232   9.698   6.858   3.540
  678POPC   C1N35233   9.674   6.910   3.681
  678POPC   C1O35234   9.654   6.797   3.782
  678POPC   C1P35235   9.637   6.848   3.926
  678POPC   C1Q35236   9.505   6.923   3.947
  678POPC   C1R35237   9.491   6.969   4.092
  678POPC    CE35238   8.936   6.620   2.172
  678POPC    OG35239   8.848   6.720   2.228
  678POPC   C2A35240   8.866   6.847   2.191
  678POPC    OH35241   8.953   6.879   2.110
  678POPC   C2B35242   8.764   6.936   2.249
  678POPC   C2C35243   8.818   7.072   2.296
  678POPC   C2D35244   8.716   7.144   2.385
  678POPC   C2E35245   8.692   7.063   2.513
  678POPC   C2F35246   8.587   7.122   2.607
  678POPC   C2G35247   8.566   7.022   2.721
  678POPC   C2H35248   8.473   7.074   2.830
  678POPC   C2I35249   8.460   6.968   2.940
  678POPC   C2J35250   8.377   7.019   3.058
  678POPC   C2K35251   8.364   6.911   3.165
  678POPC   C2L35252   8.285   6.960   3.287
  678POPC   C2M35253   8.139   6.990   3.252
  678POPC   C2N35254   8.066   7.052   3.371
  678POPC   C2O35255   7.922   7.092   3.337
  678POPC   C2P35256   7.915   7.203   3.231
  679POPC   CN135257   7.805   7.672   2.031
  679POPC   CN235258   8.042   7.696   2.036
  679POPC   CN335259   7.941   7.485   2.082
  679POPC   NTM35260   7.932   7.606   1.999
  679POPC    CA35261   7.932   7.571   1.855
  679POPC    CB35262   8.062   7.526   1.784
  679POPC    OA35263   8.138   7.422   1.847
  679POPC     P35264   8.264   7.383   1.761
  679POPC    OB35265   8.330   7.265   1.821
  679POPC    OC35266   8.227   7.385   1.619
  679POPC    OD35267   8.354   7.509   1.786
  679POPC    CC35268   8.413   7.506   1.916
  679POPC    CD35269   8.527   7.606   1.937
  679POPC    OE35270   8.601   7.577   2.058
  679POPC   C1A35271   8.730   7.609   2.065
  679POPC    OF35272   8.793   7.633   1.961
  679POPC   C1B35273   8.788   7.584   2.198
  679POPC   C1C35274   8.766   7.702   2.292
  679POPC   C1D35275   8.808   7.665   2.434
  679POPC   C1E35276   8.779   7.777   2.534
  679POPC   C1F35277   8.804   7.726   2.675
  679POPC   C1G35278   8.767   7.829   2.782
  679POPC   C1H35279   8.773   7.763   2.920
  679POPC   C1I35280   8.735   7.861   3.031
  679POPC   C1J35281   8.775   7.836   3.156
  679POPC   C1K35282   8.856   7.711   3.186
  679POPC   C1L35283   8.943   7.730   3.310
  679POPC   C1M35284   9.021   7.602   3.341
  679POPC   C1N35285   9.104   7.612   3.470
  679POPC   C1O35286   9.224   7.706   3.456
  679POPC   C1P35287   9.304   7.709   3.586
  679POPC   C1Q35288   9.428   7.797   3.572
  679POPC   C1R35289   9.508   7.800   3.703
  679POPC    CE35290   8.464   7.747   1.926
  679POPC    OG35291   8.367   7.779   2.028
  679POPC   C2A35292   8.409   7.857   2.127
  679POPC    OH35293   8.521   7.911   2.126
  679POPC   C2B35294   8.307   7.871   2.234
  679POPC   C2C35295   8.366   7.884   2.375
  679POPC   C2D35296   8.395   8.030   2.412
  679POPC   C2E35297   8.449   8.043   2.555
  679POPC   C2F35298   8.347   7.999   2.660
  679POPC   C2G35299   8.402   8.014   2.802
  679POPC   C2H35300   8.303   7.958   2.904
  679POPC   C2I35301   8.355   7.976   3.046
  679POPC   C2J35302   8.256   7.915   3.146
  679POPC   C2K35303   8.298   7.939   3.292
  679POPC   C2L35304   8.425   7.864   3.331
  679POPC   C2M35305   8.459   7.891   3.478
  679POPC   C2N35306   8.589   7.820   3.518
  679POPC   C2O35307   8.626   7.850   3.663
  679POPC   C2P35308   8.757   7.781   3.701
  680POPC   CN135309   9.348   8.397   1.575
  680POPC   CN235310   9.490   8.324   1.751
  680POPC   CN335311   9.467   8.558   1.702
  680POPC   NTM35312   9.396   8.429   1.710
  680POPC    CA35313   9.278   8.436   1.799
  680POPC    CB35314   9.291   8.479   1.948
  680POPC    OA35315   9.377   8.399   2.029
  680POPC     P35316   9.301   8.287   2.110
  680POPC    OB35317   9.196   8.234   2.021
  680POPC    OC35318   9.409   8.204   2.164
  680POPC    OD35319   9.234   8.379   2.217
  680POPC    CC35320   9.319   8.411   2.328
  680POPC    CD35321   9.257   8.517   2.421
  680POPC    OE35322   9.340   8.557   2.533
  680POPC   C1A35323   9.431   8.653   2.521
  680POPC    OF35324   9.464   8.695   2.410
  680POPC   C1B35325   9.492   8.688   2.652
  680POPC   C1C35326   9.529   8.836   2.665
  680POPC   C1D35327   9.525   8.883   2.811
  680POPC   C1E35328   9.635   8.821   2.897
  680POPC   C1F35329   9.625   8.859   3.045
  680POPC   C1G35330   9.507   8.792   3.115
  680POPC   C1H35331   9.505   8.823   3.265
  680POPC   C1I35332   9.385   8.756   3.332
  680POPC   C1J35333   9.385   8.724   3.461
  680POPC   C1K35334   9.503   8.755   3.553
  680POPC   C1L35335   9.453   8.776   3.696
  680POPC   C1M35336   9.568   8.803   3.793
  680POPC   C1N35337   9.514   8.829   3.934
  680POPC   C1O35338   9.627   8.857   4.033
  680POPC   C1P35339   9.569   8.892   4.171
  680POPC   C1Q35340   9.677   8.920   4.276
  680POPC   C1R35341   9.758   8.796   4.313
  680POPC    CE35342   9.118   8.463   2.461
  680POPC    OG35343   9.118   8.340   2.536
  680POPC   C2A35344   9.001   8.282   2.559
  680POPC    OH35345   8.903   8.304   2.487
  680POPC   C2B35346   9.011   8.176   2.661
  680POPC   C2C35347   8.973   8.231   2.798
  680POPC   C2D35348   9.022   8.140   2.911
  680POPC   C2E35349   8.974   8.190   3.046
  680POPC   C2F35350   9.048   8.120   3.160
  680POPC   C2G35351   8.991   8.158   3.297
  680POPC   C2H35352   9.079   8.102   3.408
  680POPC   C2I35353   9.017   8.119   3.547
  680POPC   C2J35354   9.119   8.071   3.650
  680POPC   C2K35355   9.062   8.062   3.792
  680POPC   C2L35356   9.174   8.018   3.887
  680POPC   C2M35357   9.122   7.987   4.027
  680POPC   C2N35358   9.239   7.948   4.118
  680POPC   C2O35359   9.194   7.898   4.256
  680POPC   C2P35360   9.129   7.760   4.247
  681POPC   CN135361   8.607   8.744   1.694
  681POPC   CN235362   8.734   8.739   1.494
  681POPC   CN335363   8.630   8.942   1.559
  681POPC   NTM35364   8.699   8.822   1.609
  681POPC    CA35365   8.825   8.856   1.681
  681POPC    CB35366   8.824   8.939   1.813
  681POPC    OA35367   8.787   9.076   1.801
  681POPC     P35368   8.717   9.127   1.932
  681POPC    OB35369   8.688   9.270   1.918
  681POPC    OC35370   8.607   9.034   1.960
  681POPC    OD35371   8.831   9.114   2.038
  681POPC    CC35372   8.776   9.140   2.167
  681POPC    CD35373   8.874   9.135   2.286
  681POPC    OE35374   8.966   9.247   2.299
  681POPC   C1A35375   8.934   9.344   2.385
  681POPC    OF35376   8.820   9.349   2.432
  681POPC   C1B35377   9.041   9.445   2.407
  681POPC   C1C35378   9.045   9.487   2.554
  681POPC   C1D35379   9.150   9.595   2.581
  681POPC   C1E35380   9.149   9.632   2.729
  681POPC   C1F35381   9.250   9.742   2.761
  681POPC   C1G35382   9.237   9.788   2.907
  681POPC   C1H35383   9.295   9.688   3.007
  681POPC   C1I35384   9.250   9.724   3.149
  681POPC   C1J35385   9.332   9.721   3.253
  681POPC   C1K35386   9.480   9.682   3.240
  681POPC   C1L35387   9.569   9.766   3.332
  681POPC   C1M35388   9.548   9.736   3.481
  681POPC   C1N35389   9.631   9.830   3.568
  681POPC   C1O35390   9.606   9.803   3.716
  681POPC   C1P35391   9.687   9.900   3.803
  681POPC   C1Q35392   9.666   9.876   3.953
  681POPC   C1R35393   9.727   9.744   4.000
  681POPC    CE35394   8.932   8.994   2.293
  681POPC    OG35395   8.841   8.903   2.356
  681POPC   C2A35396   8.887   8.780   2.378
  681POPC    OH35397   9.008   8.755   2.374
  681POPC   C2B35398   8.783   8.687   2.427
  681POPC   C2C35399   8.789   8.666   2.578
  681POPC   C2D35400   8.681   8.566   2.619
  681POPC   C2E35401   8.690   8.528   2.767
  681POPC   C2F35402   8.580   8.428   2.800
  681POPC   C2G35403   8.582   8.376   2.944
  681POPC   C2H35404   8.558   8.485   3.049
  681POPC   C2I35405   8.524   8.426   3.187
  681POPC   C2J35406   8.634   8.335   3.243
  681POPC   C2K35407   8.594   8.269   3.374
  681POPC   C2L35408   8.587   8.368   3.491
  681POPC   C2M35409   8.556   8.296   3.622
  681POPC   C2N35410   8.563   8.393   3.740
  681POPC   C2O35411   8.534   8.324   3.874
  681POPC   C2P35412   8.388   8.281   3.886
  682POPC   CN135413   9.128  10.351   2.196
  682POPC   CN235414   9.318  10.490   2.168
  682POPC   CN335415   9.108  10.588   2.213
  682POPC   NTM35416   9.194  10.473   2.244
  682POPC    CA35417   9.228  10.466   2.388
  682POPC    CB35418   9.118  10.444   2.495
  682POPC    OA35419   9.022  10.549   2.513
  682POPC     P35420   8.900  10.503   2.602
  682POPC    OB35421   8.794  10.484   2.502
  682POPC    OC35422   8.946  10.396   2.692
  682POPC    OD35423   8.877  10.637   2.680
  682POPC    CC35424   8.947  10.644   2.804
  682POPC    CD35425   9.075  10.729   2.803
  682POPC    OE35426   9.157  10.710   2.921
  682POPC   C1A35427   9.290  10.717   2.911
  682POPC    OF35428   9.340  10.713   2.798
  682POPC   C1B35429   9.366  10.703   3.037
  682POPC   C1C35430   9.297  10.758   3.162
  682POPC   C1D35431   9.378  10.732   3.289
  682POPC   C1E35432   9.301  10.782   3.411
  682POPC   C1F35433   9.377  10.761   3.542
  682POPC   C1G35434   9.292  10.813   3.658
  682POPC   C1H35435   9.365  10.797   3.792
  682POPC   C1I35436   9.278  10.844   3.909
  682POPC   C1J35437   9.224  10.756   3.993
  682POPC   C1K35438   9.250  10.606   3.977
  682POPC   C1L35439   9.246  10.535   4.112
  682POPC   C1M35440   9.278  10.386   4.095
  682POPC   C1N35441   9.275  10.316   4.231
  682POPC   C1O35442   9.315  10.168   4.222
  682POPC   C1P35443   9.464  10.146   4.190
  682POPC   C1Q35444   9.555  10.188   4.306
  682POPC   C1R35445   9.702  10.164   4.271
  682POPC    CE35446   9.029  10.873   2.773
  682POPC    OG35447   8.933  10.928   2.866
  682POPC   C2A35448   8.886  11.049   2.837
  682POPC    OH35449   8.898  11.096   2.724
  682POPC   C2B35450   8.800  11.107   2.943
  682POPC   C2C35451   8.885  11.182   3.046
  682POPC   C2D35452   8.809  11.297   3.111
  682POPC   C2E35453   8.691  11.256   3.199
  682POPC   C2F35454   8.616  11.383   3.241
  682POPC   C2G35455   8.494  11.353   3.329
  682POPC   C2H35456   8.531  11.315   3.472
  682POPC   C2I35457   8.405  11.286   3.552
  682POPC   C2J35458   8.436  11.259   3.700
  682POPC   C2K35459   8.308  11.218   3.774
  682POPC   C2L35460   8.338  11.193   3.922
  682POPC   C2M35461   8.216  11.137   3.994
  682POPC   C2N35462   8.248  11.112   4.141
  682POPC   C2O35463   8.133  11.044   4.216
  682POPC   C2P35464   8.109  10.900   4.171
  683POPC   CN135465   9.310  11.148   2.120
  683POPC   CN235466   9.213  11.146   1.904
  683POPC   CN335467   9.242  11.352   2.017
  683POPC   NTM35468   9.303  11.220   1.993
  683POPC    CA35469   9.435  11.235   1.926
  683POPC    CB35470   9.559  11.277   2.009
  683POPC    OA35471   9.540  11.385   2.099
  683POPC     P35472   9.655  11.391   2.206
  683POPC    OB35473   9.781  11.373   2.135
  683POPC    OC35474   9.614  11.517   2.271
  683POPC    OD35475   9.610  11.264   2.288
  683POPC    CC35476   9.553  11.297   2.415
  683POPC    CD35477   9.481  11.181   2.483
  683POPC    OE35478   9.405  11.226   2.598
  683POPC   C1A35479   9.308  11.150   2.649
  683POPC    OF35480   9.271  11.049   2.589
  683POPC   C1B35481   9.250  11.204   2.774
  683POPC   C1C35482   9.326  11.149   2.895
  683POPC   C1D35483   9.282  11.217   3.025
  683POPC   C1E35484   9.362  11.162   3.143
  683POPC   C1F35485   9.333  11.237   3.272
  683POPC   C1G35486   9.414  11.175   3.386
  683POPC   C1H35487   9.400  11.254   3.517
  683POPC   C1I35488   9.482  11.185   3.626
  683POPC   C1J35489   9.463  11.211   3.755
  683POPC   C1K35490   9.360  11.314   3.801
  683POPC   C1L35491   9.400  11.369   3.939
  683POPC   C1M35492   9.300  11.473   3.992
  683POPC   C1N35493   9.161  11.416   4.022
  683POPC   C1O35494   9.161  11.319   4.140
  683POPC   C1P35495   9.021  11.263   4.163
  683POPC   C1Q35496   9.015  11.162   4.279
  683POPC   C1R35497   9.040  11.228   4.415
  683POPC    CE35498   9.588  11.073   2.511
  683POPC    OG35499   9.694  11.115   2.598
  683POPC   C2A35500   9.779  11.023   2.641
  683POPC    OH35501   9.776  10.907   2.600
  683POPC   C2B35502   9.874  11.079   2.740
  683POPC   C2C35503   9.808  11.089   2.878
  683POPC   C2D35504   9.889  11.177   2.973
  683POPC   C2E35505   9.811  11.198   3.103
  683POPC   C2F35506   9.880  11.298   3.195
  683POPC   C2G35507   9.797  11.317   3.322
  683POPC   C2H35508   9.857  11.424   3.414
  683POPC   C2I35509   9.768  11.442   3.536
  683POPC   C2J35510   9.815  11.556   3.626
  683POPC   C2K35511   9.712  11.578   3.737
  683POPC   C2L35512   9.747  11.700   3.823
  683POPC   C2M35513   9.631  11.732   3.917
  683POPC   C2N35514   9.657  11.860   3.995
  683POPC   C2O35515   9.533  11.903   4.073
  683POPC   C2P35516   9.557  12.036   4.146
  684POPC   CN135517   9.912  12.199   1.992
  684POPC   CN235518   9.821  11.980   1.990
  684POPC   CN335519   9.797  12.122   2.182
  684POPC   NTM35520   9.798  12.118   2.035
  684POPC    CA35521   9.674  12.174   1.974
  684POPC    CB35522   9.535  12.113   2.006
  684POPC    OA35523   9.489  12.133   2.139
  684POPC     P35524   9.342  12.081   2.165
  684POPC    OB35525   9.277  12.152   2.275
  684POPC    OC35526   9.270  12.061   2.038
  684POPC    OD35527   9.380  11.936   2.213
  684POPC    CC35528   9.414  11.935   2.352
  684POPC    CD35529   9.485  11.808   2.402
  684POPC    OE35530   9.459  11.777   2.541
  684POPC   C1A35531   9.357  11.699   2.575
  684POPC    OF35532   9.272  11.666   2.492
  684POPC   C1B35533   9.353  11.673   2.721
  684POPC   C1C35534   9.448  11.558   2.759
  684POPC   C1D35535   9.476  11.552   2.909
  684POPC   C1E35536   9.555  11.675   2.956
  684POPC   C1F35537   9.595  11.671   3.103
  684POPC   C1G35538   9.475  11.672   3.198
  684POPC   C1H35539   9.520  11.697   3.342
  684POPC   C1I35540   9.402  11.684   3.438
  684POPC   C1J35541   9.381  11.773   3.535
  684POPC   C1K35542   9.473  11.894   3.553
  684POPC   C1L35543   9.398  12.019   3.598
  684POPC   C1M35544   9.339  12.008   3.739
  684POPC   C1N35545   9.259  12.132   3.775
  684POPC   C1O35546   9.206  12.124   3.918
  684POPC   C1P35547   9.124  12.249   3.952
  684POPC   C1Q35548   9.076  12.249   4.098
  684POPC   C1R35549   9.191  12.269   4.197
  684POPC    CE35550   9.633  11.822   2.365
  684POPC    OG35551   9.698  11.934   2.428
  684POPC   C2A35552   9.812  11.908   2.492
  684POPC    OH35553   9.884  11.816   2.455
  684POPC   C2B35554   9.849  12.012   2.591
  684POPC   C2C35555   9.795  11.972   2.728
  684POPC   C2D35556   9.813  12.081   2.834
  684POPC   C2E35557   9.742  12.037   2.962
  684POPC   C2F35558   9.728  12.149   3.066
  684POPC   C2G35559   9.854  12.175   3.148
  684POPC   C2H35560   9.824  12.289   3.246
  684POPC   C2I35561   9.933  12.309   3.352
  684POPC   C2J35562   9.890  12.424   3.443
  684POPC   C2K35563   9.979  12.440   3.566
  684POPC   C2L35564   9.925  12.553   3.653
  684POPC   C2M35565   9.998  12.564   3.787
  684POPC   C2N35566   9.939  12.680   3.868
  684POPC   C2O35567  10.000  12.692   4.008
  684POPC   C2P35568   9.952  12.580   4.101
  685POPC   CN135569   9.093  12.242   1.445
  685POPC   CN235570   8.918  12.116   1.545
  685POPC   CN335571   9.136  12.022   1.530
  685POPC   NTM35572   9.062  12.147   1.553
  685POPC    CA35573   9.089  12.201   1.688
  685POPC    CB35574   9.232  12.245   1.728
  685POPC    OA35575   9.283  12.360   1.660
  685POPC     P35576   9.437  12.383   1.688
  685POPC    OB35577   9.503  12.252   1.665
  685POPC    OC35578   9.474  12.502   1.613
  685POPC    OD35579   9.425  12.411   1.842
  685POPC    CC35580   9.405  12.547   1.879
  685POPC    CD35581   9.371  12.558   2.029
  685POPC    OE35582   9.337  12.690   2.078
  685POPC   C1A35583   9.218  12.699   2.139
  685POPC    OF35584   9.122  12.632   2.098
  685POPC   C1B35585   9.209  12.802   2.244
  685POPC   C1C35586   9.203  12.729   2.378
  685POPC   C1D35587   9.183  12.820   2.499
  685POPC   C1E35588   9.162  12.732   2.622
  685POPC   C1F35589   9.140  12.813   2.749
  685POPC   C1G35590   9.104  12.719   2.864
  685POPC   C1H35591   9.085  12.794   2.996
  685POPC   C1I35592   9.031  12.700   3.103
  685POPC   C1J35593   9.066  12.713   3.230
  685POPC   C1K35594   9.165  12.823   3.271
  685POPC   C1L35595   9.137  12.881   3.410
  685POPC   C1M35596   9.154  12.779   3.523
  685POPC   C1N35597   9.125  12.844   3.659
  685POPC   C1O35598   9.126  12.740   3.771
  685POPC   C1P35599   9.099  12.806   3.906
  685POPC   C1Q35600   9.087  12.704   4.019
  685POPC   C1R35601   8.959  12.620   4.008
  685POPC    CE35602   9.490  12.495   2.103
  685POPC    OG35603   9.459  12.451   2.236
  685POPC   C2A35604   9.557  12.390   2.302
  685POPC    OH35605   9.672  12.389   2.261
  685POPC   C2B35606   9.512  12.329   2.430
  685POPC   C2C35607   9.515  12.430   2.545
  685POPC   C2D35608   9.470  12.363   2.674
  685POPC   C2E35609   9.471  12.464   2.790
  685POPC   C2F35610   9.432  12.396   2.921
  685POPC   C2G35611   9.445  12.494   3.037
  685POPC   C2H35612   9.420  12.423   3.170
  685POPC   C2I35613   9.450  12.517   3.287
  685POPC   C2J35614   9.436  12.443   3.420
  685POPC   C2K35615   9.476  12.535   3.535
  685POPC   C2L35616   9.467  12.460   3.668
  685POPC   C2M35617   9.506  12.551   3.784
  685POPC   C2N35618   9.499  12.475   3.917
  685POPC   C2O35619   9.537  12.566   4.033
  685POPC   C2P35620   9.530  12.489   4.165
  686POPC   CN135621   9.787  14.423   2.168
  686POPC   CN235622   9.865  14.571   2.000
  686POPC   CN335623   9.735  14.383   1.936
  686POPC   NTM35624   9.752  14.486   2.039
  686POPC    CA35625   9.634  14.574   2.048
  686POPC    CB35626   9.504  14.526   2.117
  686POPC    OA35627   9.442  14.410   2.063
  686POPC     P35628   9.331  14.357   2.160
  686POPC    OB35629   9.261  14.470   2.224
  686POPC    OC35630   9.259  14.253   2.087
  686POPC    OD35631   9.422  14.288   2.266
  686POPC    CC35632   9.341  14.222   2.362
  686POPC    CD35633   9.420  14.116   2.442
  686POPC    OE35634   9.336  14.015   2.505
  686POPC   C1A35635   9.291  13.913   2.432
  686POPC    OF35636   9.314  13.905   2.311
  686POPC   C1B35637   9.205  13.820   2.509
  686POPC   C1C35638   9.288  13.725   2.596
  686POPC   C1D35639   9.202  13.627   2.676
  686POPC   C1E35640   9.103  13.698   2.768
  686POPC   C1F35641   9.023  13.603   2.858
  686POPC   C1G35642   8.933  13.505   2.782
  686POPC   C1H35643   8.847  13.427   2.881
  686POPC   C1I35644   8.769  13.314   2.813
  686POPC   C1J35645   8.730  13.210   2.885
  686POPC   C1K35646   8.762  13.206   3.035
  686POPC   C1L35647   8.752  13.065   3.092
  686POPC   C1M35648   8.767  13.068   3.244
  686POPC   C1N35649   8.740  12.931   3.305
  686POPC   C1O35650   8.739  12.939   3.458
  686POPC   C1P35651   8.709  12.802   3.519
  686POPC   C1Q35652   8.700  12.810   3.671
  686POPC   C1R35653   8.669  12.673   3.731
  686POPC    CE35654   9.523  14.189   2.530
  686POPC    OG35655   9.472  14.299   2.607
  686POPC   C2A35656   9.561  14.375   2.671
  686POPC    OH35657   9.683  14.356   2.659
  686POPC   C2B35658   9.497  14.489   2.740
  686POPC   C2C35659   9.574  14.544   2.860
  686POPC   C2D35660   9.504  14.671   2.907
  686POPC   C2E35661   9.570  14.733   3.030
  686POPC   C2F35662   9.496  14.862   3.068
  686POPC   C2G35663   9.555  14.927   3.194
  686POPC   C2H35664   9.526  14.846   3.320
  686POPC   C2I35665   9.588  14.914   3.443
  686POPC   C2J35666   9.557  14.836   3.570
  686POPC   C2K35667   9.624  14.902   3.691
  686POPC   C2L35668   9.591  14.825   3.819
  686POPC   C2M35669   9.661  14.888   3.940
  686POPC   C2N35670   9.631  14.808   4.067
  686POPC   C2O35671   9.703  14.863   4.190
  686POPC   C2P35672   9.854  14.844   4.184
  687POPC   CN135673  10.310  14.749   2.770
  687POPC   CN235674  10.291  14.962   2.661
  687POPC   CN335675  10.493  14.898   2.769
  687POPC   NTM35676  10.380  14.849   2.689
  687POPC    CA35677  10.436  14.788   2.566
  687POPC    CB35678  10.343  14.721   2.462
  687POPC    OA35679  10.245  14.804   2.400
  687POPC     P35680  10.161  14.724   2.294
  687POPC    OB35681  10.089  14.825   2.214
  687POPC    OC35682  10.249  14.628   2.226
  687POPC    OD35683  10.060  14.650   2.390
  687POPC    CC35684   9.953  14.735   2.432
  687POPC    CD35685   9.840  14.668   2.514
  687POPC    OE35686   9.721  14.749   2.531
  687POPC   C1A35687   9.636  14.770   2.431
  687POPC    OF35688   9.663  14.731   2.316
  687POPC   C1B35689   9.515  14.845   2.471
  687POPC   C1C35690   9.399  14.751   2.502
  687POPC   C1D35691   9.280  14.826   2.561
  687POPC   C1E35692   9.170  14.728   2.602
  687POPC   C1F35693   9.049  14.800   2.663
  687POPC   C1G35694   9.077  14.864   2.800
  687POPC   C1H35695   9.087  14.762   2.915
  687POPC   C1I35696   8.951  14.700   2.949
  687POPC   C1J35697   8.920  14.662   3.073
  687POPC   C1K35698   9.018  14.679   3.190
  687POPC   C1L35699   8.983  14.801   3.275
  687POPC   C1M35700   9.075  14.817   3.397
  687POPC   C1N35701   9.048  14.710   3.503
  687POPC   C1O35702   9.136  14.733   3.626
  687POPC   C1P35703   9.101  14.633   3.736
  687POPC   C1Q35704   9.186  14.658   3.861
  687POPC   C1R35705   9.146  14.562   3.974
  687POPC    CE35706   9.900  14.631   2.651
  687POPC    OG35707   9.982  14.514   2.659
  687POPC   C2A35708  10.045  14.498   2.776
  687POPC    OH35709  10.060  14.593   2.853
  687POPC   C2B35710  10.105  14.364   2.797
  687POPC   C2C35711  10.015  14.282   2.890
  687POPC   C2D35712  10.095  14.170   2.958
  687POPC   C2E35713  10.004  14.090   3.052
  687POPC   C2F35714  10.085  13.987   3.131
  687POPC   C2G35715   9.996  13.891   3.211
  687POPC   C2H35716   9.909  13.961   3.316
  687POPC   C2I35717   9.831  13.857   3.397
  687POPC   C2J35718   9.734  13.922   3.497
  687POPC   C2K35719   9.613  13.985   3.426
  687POPC   C2L35720   9.516  14.052   3.524
  687POPC   C2M35721   9.442  13.954   3.616
  687POPC   C2N35722   9.344  13.865   3.539
  687POPC   C2O35723   9.269  13.772   3.635
  687POPC   C2P35724   9.177  13.676   3.558
  688POPC   CN135725   8.877  14.975   1.704
  688POPC   CN235726   8.893  14.738   1.702
  688POPC   CN335727   9.089  14.870   1.675
  688POPC   NTM35728   8.960  14.861   1.745
  688POPC    CA35729   8.980  14.853   1.892
  688POPC    CB35730   9.051  14.969   1.968
  688POPC    OA35731   8.977  15.091   1.975
  688POPC     P35732   9.067  15.210   2.025
  688POPC    OB35733   9.182  15.205   1.933
  688POPC    OC35734   8.977  15.325   2.023
  688POPC    OD35735   9.099  15.163   2.172
  688POPC    CC35736   8.991  15.191   2.262
  688POPC    CD35737   9.014  15.144   2.407
  688POPC    OE35738   8.898  15.168   2.492
  688POPC   C1A35739   8.812  15.069   2.514
  688POPC    OF35740   8.827  14.957   2.463
  688POPC   C1B35741   8.698  15.107   2.601
  688POPC   C1C35742   8.738  15.121   2.747
  688POPC   C1D35743   8.620  15.178   2.828
  688POPC   C1E35744   8.667  15.235   2.962
  688POPC   C1F35745   8.701  15.130   3.067
  688POPC   C1G35746   8.774  15.199   3.183
  688POPC   C1H35747   8.777  15.118   3.313
  688POPC   C1I35748   8.643  15.125   3.386
  688POPC   C1J35749   8.640  15.124   3.519
  688POPC   C1K35750   8.771  15.116   3.598
  688POPC   C1L35751   8.746  15.057   3.737
  688POPC   C1M35752   8.875  15.047   3.817
  688POPC   C1N35753   8.847  14.996   3.958
  688POPC   C1O35754   8.974  14.979   4.042
  688POPC   C1P35755   9.045  15.111   4.071
  688POPC   C1Q35756   9.162  15.095   4.169
  688POPC   C1R35757   9.275  15.007   4.113
  688POPC    CE35758   9.144  15.210   2.455
  688POPC    OG35759   9.180  15.179   2.590
  688POPC   C2A35760   9.286  15.242   2.641
  688POPC    OH35761   9.353  15.320   2.574
  688POPC   C2B35762   9.309  15.210   2.783
  688POPC   C2C35763   9.254  15.323   2.871
  688POPC   C2D35764   9.279  15.298   3.020
  688POPC   C2E35765   9.191  15.187   3.078
  688POPC   C2F35766   9.215  15.170   3.229
  688POPC   C2G35767   9.173  15.295   3.307
  688POPC   C2H35768   9.217  15.293   3.454
  688POPC   C2I35769   9.369  15.287   3.469
  688POPC   C2J35770   9.419  15.324   3.609
  688POPC   C2K35771   9.364  15.235   3.721
  688POPC   C2L35772   9.426  15.271   3.856
  688POPC   C2M35773   9.390  15.413   3.901
  688POPC   C2N35774   9.466  15.450   4.028
  688POPC   C2O35775   9.441  15.595   4.068
  688POPC   C2P35776   9.523  15.633   4.191
  689POPC   CN135777   9.538  15.814   2.530
  689POPC   CN235778   9.383  15.634   2.525
  689POPC   CN335779   9.367  15.804   2.362
  689POPC   NTM35780   9.462  15.725   2.441
  689POPC    CA35781   9.551  15.643   2.356
  689POPC    CB35782   9.654  15.708   2.260
  689POPC    OA35783   9.604  15.797   2.159
  689POPC     P35784   9.721  15.865   2.079
  689POPC    OB35785   9.819  15.759   2.051
  689POPC    OC35786   9.652  15.933   1.968
  689POPC    OD35787   9.773  15.964   2.188
  689POPC    CC35788   9.693  16.081   2.208
  689POPC    CD35789   9.698  16.126   2.355
  689POPC    OE35790   9.615  16.241   2.387
  689POPC   C1A35791   9.489  16.220   2.424
  689POPC    OF35792   9.435  16.109   2.409
  689POPC   C1B35793   9.419  16.340   2.475
  689POPC   C1C35794   9.417  16.344   2.628
  689POPC   C1D35795   9.328  16.457   2.680
  689POPC   C1E35796   9.382  16.597   2.647
  689POPC   C1F35797   9.501  16.634   2.736
  689POPC   C1G35798   9.567  16.762   2.685
  689POPC   C1H35799   9.685  16.801   2.774
  689POPC   C1I35800   9.773  16.905   2.705
  689POPC   C1J35801   9.832   0.017   2.777
  689POPC   C1K35802   9.806   0.026   2.928
  689POPC   C1L35803   9.935   0.060   3.003
  689POPC   C1M35804   9.908   0.100   3.148
  689POPC   C1N35805   9.848  16.970   3.233
  689POPC   C1O35806   9.822   0.037   3.375
  689POPC   C1P35807   9.753  16.914   3.459
  689POPC   C1Q35808   9.724  16.967   3.600
  689POPC   C1R35809   9.648  16.864   3.683
  689POPC    CE35810   9.846  16.139   2.392
  689POPC    OG35811   9.873  16.104   2.529
  689POPC   C2A35812   9.996  16.060   2.558
  689POPC    OH35813  10.084  16.054   2.472
  689POPC   C2B35814  10.009  16.028   2.702
  689POPC   C2C35815  10.109  15.917   2.733
  689POPC   C2D35816  10.100  15.884   2.882
  689POPC   C2E35817  10.201  15.777   2.922
  689POPC   C2F35818  10.180  15.735   3.068
  689POPC   C2G35819  10.284  15.629   3.108
  689POPC   C2H35820  10.264  15.578   3.251
  689POPC   C2I35821  10.282  15.689   3.355
  689POPC   C2J35822  10.274  15.634   3.498
  689POPC   C2K35823  10.270  15.747   3.602
  689POPC   C2L35824  10.398  15.831   3.602
  689POPC   C2M35825  10.382  15.953   3.693
  689POPC   C2N35826  10.505  16.043   3.686
  689POPC   C2O35827  10.488  16.171   3.769
  689POPC   C2P35828  10.385  16.267   3.708
  690POPC   CN135829   9.946  16.621   1.913
  690POPC   CN235830  10.098  16.751   2.036
  690POPC   CN335831  10.138  16.707   1.805
  690POPC   NTM35832  10.034  16.737   1.905
  690POPC    CA35833   9.953  16.856   1.870
  690POPC    CB35834  10.016   0.010   1.834
  690POPC    OA35835  10.124   0.052   1.917
  690POPC     P35836  10.127   0.207   1.941
  690POPC    OB35837  10.194   0.268   1.826
  690POPC    OC35838   9.997   0.253   1.990
  690POPC    OD35839  10.233   0.209   2.056
  690POPC    CC35840  10.177   0.155   2.176
  690POPC    CD35841  10.278   0.131   2.290
  690POPC    OE35842  10.224   0.052   2.398
  690POPC   C1A35843  10.229  16.902   2.392
  690POPC    OF35844  10.275  16.845   2.292
  690POPC   C1B35845  10.166  16.836   2.508
  690POPC   C1C35846  10.261  16.831   2.628
  690POPC   C1D35847  10.194  16.761   2.746
  690POPC   C1E35848  10.286  16.759   2.868
  690POPC   C1F35849  10.222  16.680   2.982
  690POPC   C1G35850  10.310  16.677   3.106
  690POPC   C1H35851  10.247  16.585   3.211
  690POPC   C1I35852  10.328  16.584   3.341
  690POPC   C1J35853  10.264  16.558   3.455
  690POPC   C1K35854  10.114  16.529   3.451
  690POPC   C1L35855  10.037  16.587   3.570
  690POPC   C1M35856  10.071  16.518   3.703
  690POPC   C1N35857   9.986  16.569   3.819
  690POPC   C1O35858  10.011  16.716   3.851
  690POPC   C1P35859   9.933  16.761   3.974
  690POPC   C1Q35860   9.962  16.908   4.006
  690POPC   C1R35861   9.889  16.950   4.133
  690POPC    CE35862  10.338   0.268   2.327
  690POPC    OG35863  10.242   0.371   2.360
  690POPC   C2A35864  10.249   0.415   2.486
  690POPC    OH35865  10.352   0.403   2.552
  690POPC   C2B35866  10.134   0.500   2.525
  690POPC   C2C35867  10.011   0.418   2.567
  690POPC   C2D35868  10.035   0.333   2.693
  690POPC   C2E35869  10.039   0.413   2.824
  690POPC   C2F35870   9.901   0.467   2.862
  690POPC   C2G35871   9.902   0.525   3.003
  690POPC   C2H35872   9.763   0.579   3.041
  690POPC   C2I35873   9.755   0.623   3.187
  690POPC   C2J35874   9.843   0.744   3.219
  690POPC   C2K35875   9.830   0.780   3.368
  690POPC   C2L35876   9.920   0.898   3.404
  690POPC   C2M35877   9.909   0.929   3.554
  690POPC   C2N35878   9.998   1.047   3.594
  690POPC   C2O35879   9.985   1.075   3.743
  690POPC   C2P35880  10.072   1.194   3.785
  691POPC   CN135881  10.127   0.581   2.127
  691POPC   CN235882  10.048   0.776   2.009
  691POPC   CN335883  10.043   0.769   2.246
  691POPC   NTM35884  10.120   0.728   2.128
  691POPC    CA35885  10.253   0.790   2.139
  691POPC    CB35886  10.359   0.778   2.026
  691POPC    OA35887  10.400   0.645   1.990
  691POPC     P35888  10.553   0.641   1.952
  691POPC    OB35889  10.572   0.509   1.890
  691POPC    OC35890  10.586   0.763   1.877
  691POPC    OD35891  10.614   0.649   2.096
  691POPC    CC35892  10.615   0.521   2.159
  691POPC    CD35893  10.662   0.514   2.306
  691POPC    OE35894  10.680   0.378   2.353
  691POPC   C1A35895  10.793   0.311   2.327
  691POPC    OF35896  10.873   0.356   2.245
  691POPC   C1B35897  10.807   0.177   2.390
  691POPC   C1C35898  10.695   0.126   2.482
  691POPC   C1D35899  10.685   0.200   2.616
  691POPC   C1E35900  10.584   0.131   2.707
  691POPC   C1F35901  10.567   0.206   2.839
  691POPC   C1G35902  10.489   0.119   2.938
  691POPC   C1H35903  10.463   0.193   3.070
  691POPC   C1I35904  10.402   0.097   3.173
  691POPC   C1J35905  10.308   0.138   3.257
  691POPC   C1K35906  10.255   0.282   3.253
  691POPC   C1L35907  10.170   0.310   3.378
  691POPC   C1M35908  10.101   0.446   3.372
  691POPC   C1N35909  10.195   0.564   3.399
  691POPC   C1O35910  10.236   0.571   3.546
  691POPC   C1P35911  10.316   0.699   3.574
  691POPC   C1Q35912  10.351   0.709   3.723
  691POPC   C1R35913  10.425   0.840   3.752
  691POPC    CE35914  10.562   0.593   2.392
  691POPC    OG35915  10.580   0.736   2.396
  691POPC   C2A35916  10.477   0.804   2.445
  691POPC    OH35917  10.363   0.758   2.440
  691POPC   C2B35918  10.514   0.944   2.477
  691POPC   C2C35919  10.435   1.002   2.595
  691POPC   C2D35920  10.466   1.150   2.609
  691POPC   C2E35921  10.376   1.215   2.715
  691POPC   C2F35922  10.382   1.368   2.706
  691POPC   C2G35923  10.506   1.431   2.771
  691POPC   C2H35924  10.503   1.417   2.923
  691POPC   C2I35925  10.617   1.496   2.987
  691POPC   C2J35926  10.618   1.476   3.139
  691POPC   C2K35927  10.728   1.560   3.203
  691POPC   C2L35928  10.739   1.530   3.353
  691POPC   C2M35929  10.836   1.627   3.420
  691POPC   C2N35930  10.853   1.595   3.568
  691POPC   C2O35931  10.937   1.701   3.641
  691POPC   C2P35932  11.082   1.708   3.591
  692POPC   CN135933  10.827   1.429   1.683
  692POPC   CN235934  10.661   1.345   1.534
  692POPC   CN335935  10.825   1.200   1.623
  692POPC   NTM35936  10.740   1.315   1.654
  692POPC    CA35937  10.652   1.282   1.768
  692POPC    CB35938  10.562   1.391   1.832
  692POPC    OA35939  10.477   1.461   1.742
  692POPC     P35940  10.380   1.556   1.819
  692POPC    OB35941  10.438   1.606   1.944
  692POPC    OC35942  10.316   1.646   1.723
  692POPC    OD35943  10.270   1.449   1.854
  692POPC    CC35944  10.185   1.504   1.954
  692POPC    CD35945  10.047   1.438   1.965
  692POPC    OE35946   9.954   1.521   2.041
  692POPC   C1A35947   9.823   1.501   2.028
  692POPC    OF35948   9.780   1.418   1.948
  692POPC   C1B35949   9.742   1.586   2.118
  692POPC   C1C35950   9.703   1.510   2.246
  692POPC   C1D35951   9.628   1.597   2.347
  692POPC   C1E35952   9.718   1.705   2.409
  692POPC   C1F35953   9.646   1.783   2.519
  692POPC   C1G35954   9.739   1.892   2.574
  692POPC   C1H35955   9.679   1.972   2.691
  692POPC   C1I35956   9.676   1.892   2.821
  692POPC   C1J35957   9.598   1.929   2.922
  692POPC   C1K35958   9.510   2.054   2.912
  692POPC   C1L35959   9.486   2.116   3.050
  692POPC   C1M35960   9.392   2.236   3.039
  692POPC   C1N35961   9.367   2.301   3.175
  692POPC   C1O35962   9.268   2.417   3.161
  692POPC   C1P35963   9.240   2.488   3.294
  692POPC   C1Q35964   9.362   2.565   3.346
  692POPC   C1R35965   9.329   2.636   3.478
  692POPC    CE35966  10.071   1.296   2.017
  692POPC    OG35967  10.113   1.289   2.155
  692POPC   C2A35968  10.114   1.168   2.210
  692POPC    OH35969  10.103   1.066   2.142
  692POPC   C2B35970  10.132   1.173   2.357
  692POPC   C2C35971   9.996   1.181   2.428
  692POPC   C2D35972  10.017   1.194   2.579
  692POPC   C2E35973   9.887   1.193   2.661
  692POPC   C2F35974   9.800   1.317   2.641
  692POPC   C2G35975   9.691   1.320   2.748
  692POPC   C2H35976   9.606   1.447   2.739
  692POPC   C2I35977   9.509   1.456   2.857
  692POPC   C2J35978   9.426   1.584   2.849
  692POPC   C2K35979   9.340   1.601   2.975
  692POPC   C2L35980   9.255   1.728   2.968
  692POPC   C2M35981   9.168   1.747   3.092
  692POPC   C2N35982   9.249   1.775   3.219
  692POPC   C2O35983   9.161   1.785   3.344
  692POPC   C2P35984   9.099   1.650   3.381
  693POPC   CN135985   9.844   2.478   1.550
  693POPC   CN235986   9.645   2.491   1.422
  693POPC   CN335987   9.692   2.295   1.552
  693POPC   NTM35988   9.702   2.442   1.548
  693POPC    CA35989   9.637   2.506   1.665
  693POPC    CB35990   9.486   2.486   1.696
  693POPC    OA35991   9.446   2.358   1.749
  693POPC     P35992   9.290   2.347   1.766
  693POPC    OB35993   9.234   2.390   1.637
  693POPC    OC35994   9.261   2.213   1.817
  693POPC    OD35995   9.265   2.458   1.875
  693POPC    CC35996   9.303   2.416   2.007
  693POPC    CD35997   9.288   2.527   2.112
  693POPC    OE35998   9.360   2.503   2.236
  693POPC   C1A35999   9.488   2.537   2.244
  693POPC    OF36000   9.553   2.564   2.142
  693POPC   C1B36001   9.542   2.531   2.381
  693POPC   C1C36002   9.610   2.397   2.411
  693POPC   C1D36003   9.655   2.386   2.557
  693POPC   C1E36004   9.765   2.487   2.592
  693POPC   C1F36005   9.805   2.478   2.740
  693POPC   C1G36006   9.693   2.527   2.833
  693POPC   C1H36007   9.728   2.509   2.981
  693POPC   C1I36008   9.842   2.600   3.027
  693POPC   C1J36009   9.876   2.602   3.156
  693POPC   C1K36010   9.801   2.514   3.255
  693POPC   C1L36011   9.894   2.466   3.367
  693POPC   C1M36012   9.821   2.378   3.470
  693POPC   C1N36013   9.718   2.455   3.554
  693POPC   C1O36014   9.784   2.557   3.647
  693POPC   C1P36015   9.679   2.635   3.725
  693POPC   C1Q36016   9.746   2.741   3.814
  693POPC   C1R36017   9.642   2.821   3.892
  693POPC    CE36018   9.137   2.552   2.126
  693POPC    OG36019   9.098   2.665   2.206
  693POPC   C2A36020   8.968   2.685   2.223
  693POPC    OH36021   8.883   2.621   2.160
  693POPC   C2B36022   8.940   2.802   2.310
  693POPC   C2C36023   8.925   2.768   2.458
  693POPC   C2D36024   8.902   2.898   2.535
  693POPC   C2E36025   8.852   2.873   2.677
  693POPC   C2F36026   8.816   3.006   2.744
  693POPC   C2G36027   8.753   2.988   2.882
  693POPC   C2H36028   8.850   2.926   2.983
  693POPC   C2I36029   8.784   2.912   3.120
  693POPC   C2J36030   8.880   2.846   3.220
  693POPC   C2K36031   8.808   2.823   3.352
  693POPC   C2L36032   8.895   2.744   3.451
  693POPC   C2M36033   8.812   2.708   3.574
  693POPC   C2N36034   8.893   2.623   3.672
  693POPC   C2O36035   8.807   2.576   3.790
  693POPC   C2P36036   8.700   2.474   3.748
  694POPC   CN136037  10.798   2.606   1.676
  694POPC   CN236038  10.774   2.835   1.741
  694POPC   CN336039  10.820   2.777   1.516
  694POPC   NTM36040  10.746   2.737   1.635
  694POPC    CA36041  10.602   2.726   1.599
  694POPC    CB36042  10.492   2.707   1.706
  694POPC    OA36043  10.469   2.823   1.787
  694POPC     P36044  10.335   2.809   1.867
  694POPC    OB36045  10.229   2.820   1.765
  694POPC    OC36046  10.350   2.690   1.951
  694POPC    OD36047  10.346   2.944   1.945
  694POPC    CC36048  10.412   2.926   2.070
  694POPC    CD36049  10.488   3.050   2.122
  694POPC    OE36050  10.562   3.019   2.243
  694POPC   C1A36051  10.650   3.106   2.291
  694POPC    OF36052  10.694   3.196   2.218
  694POPC   C1B36053  10.702   3.070   2.425
  694POPC   C1C36054  10.599   3.098   2.534
  694POPC   C1D36055  10.649   3.061   2.674
  694POPC   C1E36056  10.539   3.080   2.779
  694POPC   C1F36057  10.503   3.228   2.799
  694POPC   C1G36058  10.373   3.247   2.878
  694POPC   C1H36059  10.382   3.205   3.025
  694POPC   C1I36060  10.245   3.217   3.090
  694POPC   C1J36061  10.230   3.254   3.217
  694POPC   C1K36062  10.351   3.284   3.307
  694POPC   C1L36063  10.311   3.273   3.454
  694POPC   C1M36064  10.428   3.303   3.546
  694POPC   C1N36065  10.384   3.304   3.693
  694POPC   C1O36066  10.501   3.338   3.785
  694POPC   C1P36067  10.454   3.355   3.929
  694POPC   C1Q36068  10.572   3.390   4.020
  694POPC   C1R36069  10.525   3.422   4.162
  694POPC    CE36070  10.384   3.163   2.132
  694POPC    OG36071  10.281   3.148   2.232
  694POPC   C2A36072  10.193   3.246   2.241
  694POPC    OH36073  10.171   3.318   2.143
  694POPC   C2B36074  10.102   3.232   2.357
  694POPC   C2C36075  10.084   3.363   2.435
  694POPC   C2D36076   9.965   3.347   2.530
  694POPC   C2E36077   9.942   3.467   2.622
  694POPC   C2F36078  10.034   3.466   2.744
  694POPC   C2G36079   9.985   3.569   2.846
  694POPC   C2H36080  10.059   3.559   2.979
  694POPC   C2I36081   9.990   3.648   3.082
  694POPC   C2J36082  10.056   3.642   3.220
  694POPC   C2K36083   9.973   3.725   3.319
  694POPC   C2L36084  10.034   3.737   3.459
  694POPC   C2M36085  10.042   3.604   3.534
  694POPC   C2N36086  10.083   3.623   3.680
  694POPC   C2O36087  10.223   3.682   3.696
  694POPC   C2P36088  10.257   3.705   3.843
  695POPC   CN136089   9.909   3.318   1.989
  695POPC   CN236090  10.065   3.189   1.862
  695POPC   CN336091   9.832   3.158   1.833
  695POPC   NTM36092   9.936   3.259   1.857
  695POPC    CA36093   9.929   3.363   1.751
  695POPC    CB36094  10.022   3.487   1.753
  695POPC    OA36095  10.161   3.457   1.750
  695POPC     P36096  10.255   3.583   1.747
  695POPC    OB36097  10.386   3.521   1.728
  695POPC    OC36098  10.207   3.679   1.646
  695POPC    OD36099  10.239   3.641   1.892
  695POPC    CC36100  10.302   3.563   1.993
  695POPC    CD36101  10.317   3.634   2.129
  695POPC    OE36102  10.369   3.547   2.232
  695POPC   C1A36103  10.499   3.537   2.258
  695POPC    OF36104  10.584   3.588   2.184
  695POPC   C1B36105  10.525   3.446   2.372
  695POPC   C1C36106  10.560   3.518   2.503
  695POPC   C1D36107  10.443   3.584   2.576
  695POPC   C1E36108  10.501   3.670   2.688
  695POPC   C1F36109  10.401   3.710   2.796
  695POPC   C1G36110  10.473   3.800   2.896
  695POPC   C1H36111  10.401   3.816   3.030
  695POPC   C1I36112  10.483   3.907   3.121
  695POPC   C1J36113  10.502   3.880   3.250
  695POPC   C1K36114  10.439   3.757   3.315
  695POPC   C1L36115  10.532   3.689   3.416
  695POPC   C1M36116  10.643   3.610   3.346
  695POPC   C1N36117  10.733   3.537   3.446
  695POPC   C1O36118  10.833   3.448   3.370
  695POPC   C1P36119  10.922   3.370   3.466
  695POPC   C1Q36120  11.018   3.280   3.388
  695POPC   C1R36121  11.106   3.198   3.483
  695POPC    CE36122  10.181   3.693   2.169
  695POPC    OG36123  10.195   3.798   2.267
  695POPC   C2A36124  10.093   3.820   2.350
  695POPC    OH36125   9.982   3.769   2.332
  695POPC   C2B36126  10.125   3.923   2.452
  695POPC   C2C36127  10.058   3.898   2.587
  695POPC   C2D36128  10.099   4.009   2.684
  695POPC   C2E36129  10.042   3.987   2.824
  695POPC   C2F36130  10.095   4.095   2.919
  695POPC   C2G36131  10.064   4.061   3.065
  695POPC   C2H36132  10.142   4.153   3.158
  695POPC   C2I36133  10.142   4.099   3.301
  695POPC   C2J36134  10.245   4.175   3.386
  695POPC   C2K36135  10.277   4.097   3.513
  695POPC   C2L36136  10.397   4.158   3.587
  695POPC   C2M36137  10.361   4.284   3.665
  695POPC   C2N36138  10.294   4.254   3.799
  695POPC   C2O36139  10.391   4.190   3.899
  695POPC   C2P36140  10.322   4.161   4.032
  696POPC   CN136141   9.513   5.870   1.832
  696POPC   CN236142   9.393   6.051   1.926
  696POPC   CN336143   9.565   5.949   2.053
  696POPC   NTM36144   9.526   5.989   1.917
  696POPC    CA36145   9.618   6.089   1.858
  696POPC    CB36146   9.763   6.046   1.822
  696POPC    OA36147   9.845   6.005   1.932
  696POPC     P36148   9.984   5.945   1.887
  696POPC    OB36149   9.991   5.939   1.740
  696POPC    OC36150  10.082   6.019   1.964
  696POPC    OD36151   9.962   5.797   1.934
  696POPC    CC36152   9.956   5.781   2.075
  696POPC    CD36153   9.913   5.640   2.121
  696POPC    OE36154   9.864   5.637   2.258
  696POPC   C1A36155   9.797   5.530   2.301
  696POPC    OF36156   9.765   5.439   2.223
  696POPC   C1B36157   9.759   5.536   2.444
  696POPC   C1C36158   9.754   5.396   2.505
  696POPC   C1D36159   9.689   5.392   2.644
  696POPC   C1E36160   9.777   5.447   2.756
  696POPC   C1F36161   9.703   5.439   2.890
  696POPC   C1G36162   9.795   5.475   3.006
  696POPC   C1H36163   9.723   5.474   3.140
  696POPC   C1I36164   9.823   5.503   3.253
  696POPC   C1J36165   9.788   5.563   3.367
  696POPC   C1K36166   9.644   5.604   3.397
  696POPC   C1L36167   9.571   5.505   3.490
  696POPC   C1M36168   9.626   5.500   3.633
  696POPC   C1N36169   9.598   5.628   3.712
  696POPC   C1O36170   9.654   5.620   3.855
  696POPC   C1P36171   9.585   5.513   3.939
  696POPC   C1Q36172   9.645   5.503   4.079
  696POPC   C1R36173   9.575   5.393   4.160
  696POPC    CE36174  10.032   5.547   2.088
  696POPC    OG36175  10.152   5.568   2.163
  696POPC   C2A36176  10.245   5.473   2.156
  696POPC    OH36177  10.228   5.368   2.094
  696POPC   C2B36178  10.365   5.504   2.236
  696POPC   C2C36179  10.345   5.465   2.383
  696POPC   C2D36180  10.471   5.494   2.464
  696POPC   C2E36181  10.448   5.472   2.614
  696POPC   C2F36182  10.579   5.497   2.690
  696POPC   C2G36183  10.563   5.501   2.842
  696POPC   C2H36184  10.481   5.623   2.885
  696POPC   C2I36185  10.492   5.654   3.035
  696POPC   C2J36186  10.634   5.697   3.074
  696POPC   C2K36187  10.640   5.766   3.211
  696POPC   C2L36188  10.600   5.675   3.327
  696POPC   C2M36189  10.613   5.752   3.459
  696POPC   C2N36190  10.576   5.665   3.579
  696POPC   C2O36191  10.594   5.743   3.709
  696POPC   C2P36192  10.559   5.656   3.830
  697POPC   CN136193  10.047   6.430   2.230
  697POPC   CN236194  10.127   6.603   2.086
  697POPC   CN336195  10.277   6.440   2.169
  697POPC   NTM36196  10.140   6.461   2.121
  697POPC    CA36197  10.120   6.372   2.004
  697POPC    CB36198   9.983   6.365   1.933
  697POPC    OA36199   9.934   6.490   1.885
  697POPC     P36200   9.801   6.478   1.804
  697POPC    OB36201   9.766   6.601   1.732
  697POPC    OC36202   9.799   6.349   1.732
  697POPC    OD36203   9.700   6.461   1.921
  697POPC    CC36204   9.686   6.579   2.001
  697POPC    CD36205   9.555   6.581   2.081
  697POPC    OE36206   9.532   6.703   2.158
  697POPC   C1A36207   9.409   6.753   2.155
  697POPC    OF36208   9.332   6.727   2.061
  697POPC   C1B36209   9.380   6.850   2.263
  697POPC   C1C36210   9.242   6.820   2.322
  697POPC   C1D36211   9.213   6.895   2.452
  697POPC   C1E36212   9.085   6.840   2.513
  697POPC   C1F36213   9.061   6.897   2.653
  697POPC   C1G36214   8.940   6.828   2.717
  697POPC   C1H36215   8.908   6.884   2.856
  697POPC   C1I36216   9.007   6.840   2.964
  697POPC   C1J36217   8.966   6.825   3.090
  697POPC   C1K36218   8.819   6.849   3.125
  697POPC   C1L36219   8.740   6.721   3.154
  697POPC   C1M36220   8.776   6.659   3.289
  697POPC   C1N36221   8.701   6.528   3.315
  697POPC   C1O36222   8.550   6.549   3.332
  697POPC   C1P36223   8.480   6.416   3.362
  697POPC   C1Q36224   8.329   6.435   3.374
  697POPC   C1R36225   8.259   6.302   3.403
  697POPC    CE36226   9.551   6.451   2.165
  697POPC    OG36227   9.657   6.435   2.260
  697POPC   C2A36228   9.635   6.350   2.360
  697POPC    OH36229   9.530   6.285   2.367
  697POPC   C2B36230   9.744   6.348   2.461
  697POPC   C2C36231   9.736   6.474   2.547
  697POPC   C2D36232   9.846   6.480   2.653
  697POPC   C2E36233   9.847   6.620   2.714
  697POPC   C2F36234   9.949   6.638   2.827
  697POPC   C2G36235   9.905   6.569   2.957
  697POPC   C2H36236   9.991   6.618   3.073
  697POPC   C2I36237   9.944   6.558   3.206
  697POPC   C2J36238  10.027   6.615   3.321
  697POPC   C2K36239   9.978   6.561   3.456
  697POPC   C2L36240  10.061   6.619   3.571
  697POPC   C2M36241  10.005   6.572   3.705
  697POPC   C2N36242  10.088   6.627   3.821
  697POPC   C2O36243  10.031   6.586   3.957
  697POPC   C2P36244  10.036   6.435   3.982
  698POPC   CN136245   9.562   7.549   1.321
  698POPC   CN236246   9.380   7.437   1.214
  698POPC   CN336247   9.562   7.312   1.302
  698POPC   NTM36248   9.476   7.429   1.324
  698POPC    CA36249   9.408   7.411   1.455
  698POPC    CB36250   9.302   7.514   1.504
  698POPC    OA36251   9.345   7.650   1.516
  698POPC     P36252   9.398   7.687   1.659
  698POPC    OB36253   9.478   7.574   1.708
  698POPC    OC36254   9.449   7.824   1.653
  698POPC    OD36255   9.263   7.687   1.739
  698POPC    CC36256   9.297   7.711   1.876
  698POPC    CD36257   9.180   7.727   1.973
  698POPC    OE36258   9.223   7.784   2.100
  698POPC   C1A36259   9.136   7.856   2.172
  698POPC    OF36260   9.025   7.885   2.126
  698POPC   C1B36261   9.192   7.906   2.299
  698POPC   C1C36262   9.171   7.805   2.412
  698POPC   C1D36263   9.238   7.850   2.541
  698POPC   C1E36264   9.207   7.752   2.655
  698POPC   C1F36265   9.284   7.784   2.783
  698POPC   C1G36266   9.434   7.756   2.766
  698POPC   C1H36267   9.512   7.789   2.893
  698POPC   C1I36268   9.661   7.763   2.870
  698POPC   C1J36269   9.743   7.736   2.971
  698POPC   C1K36270   9.694   7.730   3.116
  698POPC   C1L36271   9.793   7.650   3.200
  698POPC   C1M36272   9.759   7.653   3.349
  698POPC   C1N36273   9.868   7.581   3.428
  698POPC   C1O36274   9.844   7.591   3.579
  698POPC   C1P36275   9.956   7.522   3.656
  698POPC   C1Q36276   9.936   7.529   3.808
  698POPC   C1R36277   9.814   7.449   3.855
  698POPC    CE36278   9.108   7.590   1.980
  698POPC    OG36279   9.187   7.481   2.029
  698POPC   C2A36280   9.126   7.365   2.052
  698POPC    OH36281   9.008   7.346   2.022
  698POPC   C2B36282   9.213   7.264   2.115
  698POPC   C2C36283   9.194   7.254   2.267
  698POPC   C2D36284   9.243   7.378   2.343
  698POPC   C2E36285   9.227   7.362   2.495
  698POPC   C2F36286   9.081   7.366   2.540
  698POPC   C2G36287   9.071   7.333   2.689
  698POPC   C2H36288   8.928   7.353   2.740
  698POPC   C2I36289   8.913   7.301   2.883
  698POPC   C2J36290   8.773   7.333   2.938
  698POPC   C2K36291   8.739   7.255   3.065
  698POPC   C2L36292   8.828   7.290   3.185
  698POPC   C2M36293   8.791   7.203   3.305
  698POPC   C2N36294   8.882   7.234   3.425
  698POPC   C2O36295   8.857   7.140   3.543
  698POPC   C2P36296   8.899   6.996   3.514
  699POPC   CN136297   9.274   9.104   1.965
  699POPC   CN236298   9.092   9.233   1.884
  699POPC   CN336299   9.203   9.300   2.082
  699POPC   NTM36300   9.223   9.241   1.949
  699POPC    CA36301   9.312   9.324   1.864
  699POPC    CB36302   9.460   9.348   1.902
  699POPC    OA36303   9.479   9.417   2.026
  699POPC     P36304   9.627   9.428   2.077
  699POPC    OB36305   9.713   9.429   1.957
  699POPC    OC36306   9.613   9.545   2.165
  699POPC    OD36307   9.627   9.287   2.144
  699POPC    CC36308   9.564   9.284   2.272
  699POPC    CD36309   9.543   9.141   2.326
  699POPC    OE36310   9.445   9.133   2.432
  699POPC   C1A36311   9.317   9.111   2.401
  699POPC    OF36312   9.286   9.076   2.287
  699POPC   C1B36313   9.226   9.119   2.517
  699POPC   C1C36314   9.200   8.983   2.580
  699POPC   C1D36315   9.107   8.994   2.702
  699POPC   C1E36316   9.093   8.859   2.771
  699POPC   C1F36317   8.994   8.869   2.888
  699POPC   C1G36318   8.977   8.735   2.961
  699POPC   C1H36319   9.099   8.698   3.046
  699POPC   C1I36320   9.084   8.561   3.112
  699POPC   C1J36321   9.044   8.546   3.238
  699POPC   C1K36322   9.010   8.666   3.327
  699POPC   C1L36323   8.902   8.634   3.430
  699POPC   C1M36324   8.949   8.546   3.547
  699POPC   C1N36325   9.045   8.622   3.639
  699POPC   C1O36326   9.080   8.542   3.765
  699POPC   C1P36327   8.961   8.527   3.859
  699POPC   C1Q36328   8.999   8.449   3.985
  699POPC   C1R36329   8.880   8.438   4.080
  699POPC    CE36330   9.682   9.081   2.355
  699POPC    OG36331   9.757   9.146   2.459
  699POPC   C2A36332   9.871   9.089   2.496
  699POPC    OH36333   9.915   8.988   2.441
  699POPC   C2B36334   9.934   9.160   2.610
  699POPC   C2C36335   9.897   9.097   2.745
  699POPC   C2D36336   9.949   9.187   2.857
  699POPC   C2E36337   9.928   9.129   2.996
  699POPC   C2F36338  10.019   9.009   3.023
  699POPC   C2G36339  10.009   8.960   3.168
  699POPC   C2H36340  10.065   9.062   3.267
  699POPC   C2I36341  10.054   9.011   3.410
  699POPC   C2J36342  10.111   9.113   3.509
  699POPC   C2K36343  10.104   9.064   3.654
  699POPC   C2L36344   9.960   9.056   3.706
  699POPC   C2M36345   9.953   9.001   3.849
  699POPC   C2N36346  10.023   9.092   3.951
  699POPC   C2O36347  10.014   9.038   4.094
  699POPC   C2P36348  10.091   8.907   4.112
  700POPC   CN136349   9.970   9.716   2.042
  700POPC   CN236350  10.163   9.773   1.916
  700POPC   CN336351  10.187   9.688   2.136
  700POPC   NTM36352  10.108   9.677   2.012
  700POPC    CA36353  10.116   9.541   1.953
  700POPC    CB36354  10.049   9.422   2.026
  700POPC    OA36355  10.094   9.403   2.160
  700POPC     P36356   9.998   9.314   2.245
  700POPC    OB36357   9.943   9.212   2.155
  700POPC    OC36358  10.077   9.273   2.361
  700POPC    OD36359   9.893   9.425   2.281
  700POPC    CC36360   9.934   9.502   2.393
  700POPC    CD36361   9.852   9.631   2.414
  700POPC    OE36362   9.913   9.726   2.504
  700POPC   C1A36363  10.003   9.813   2.459
  700POPC    OF36364  10.010   9.838   2.338
  700POPC   C1B36365  10.067   9.891   2.566
  700POPC   C1C36366  10.201   9.830   2.605
  700POPC   C1D36367  10.260   9.896   2.729
  700POPC   C1E36368  10.188   9.850   2.856
  700POPC   C1F36369  10.252   9.912   2.980
  700POPC   C1G36370  10.180   9.865   3.106
  700POPC   C1H36371  10.237   9.935   3.229
  700POPC   C1I36372  10.161   9.891   3.354
  700POPC   C1J36373  10.219   9.896   3.474
  700POPC   C1K36374  10.363   9.948   3.487
  700POPC   C1L36375  10.435   9.886   3.608
  700POPC   C1M36376  10.374   9.929   3.741
  700POPC   C1N36377  10.443   9.861   3.858
  700POPC   C1O36378  10.377   9.901   3.990
  700POPC   C1P36379  10.442   9.833   4.111
  700POPC   C1Q36380  10.586   9.880   4.135
  700POPC   C1R36381  10.645   9.813   4.259
  700POPC    CE36382   9.709   9.588   2.450
  700POPC    OG36383   9.689   9.520   2.575
  700POPC   C2A36384   9.565   9.483   2.604
  700POPC    OH36385   9.473   9.498   2.522
  700POPC   C2B36386   9.551   9.437   2.743
  700POPC   C2C36387   9.463   9.312   2.756
  700POPC   C2D36388   9.413   9.291   2.900
  700POPC   C2E36389   9.526   9.271   3.002
  700POPC   C2F36390   9.468   9.255   3.142
  700POPC   C2G36391   9.578   9.240   3.248
  700POPC   C2H36392   9.514   9.220   3.385
  700POPC   C2I36393   9.620   9.203   3.495
  700POPC   C2J36394   9.555   9.175   3.631
  700POPC   C2K36395   9.478   9.295   3.688
  700POPC   C2L36396   9.570   9.404   3.745
  700POPC   C2M36397   9.635   9.364   3.878
  700POPC   C2N36398   9.531   9.359   3.991
  700POPC   C2O36399   9.597   9.323   4.124
  700POPC   C2P36400   9.493   9.317   4.236
  701POPC   CN136401   9.641  10.593   2.531
  701POPC   CN236402   9.753  10.608   2.320
  701POPC   CN336403   9.876  10.618   2.521
  701POPC   NTM36404   9.761  10.554   2.456
  701POPC    CA36405   9.787  10.408   2.456
  701POPC    CB36406   9.682  10.305   2.407
  701POPC    OA36407   9.628  10.317   2.275
  701POPC     P36408   9.555  10.184   2.234
  701POPC    OB36409   9.505  10.202   2.097
  701POPC    OC36410   9.639  10.068   2.268
  701POPC    OD36411   9.432  10.190   2.330
  701POPC    CC36412   9.373  10.061   2.341
  701POPC    CD36413   9.294  10.037   2.471
  701POPC    OE36414   9.164  10.101   2.480
  701POPC   C1A36415   9.059  10.042   2.424
  701POPC    OF36416   9.074   9.969   2.325
  701POPC   C1B36417   8.930  10.088   2.481
  701POPC   C1C36418   8.868   9.974   2.562
  701POPC   C1D36419   8.759  10.020   2.659
  701POPC   C1E36420   8.818  10.074   2.789
  701POPC   C1F36421   8.708  10.103   2.891
  701POPC   C1G36422   8.768  10.117   3.031
  701POPC   C1H36423   8.659  10.135   3.138
  701POPC   C1I36424   8.718  10.119   3.278
  701POPC   C1J36425   8.666  10.180   3.384
  701POPC   C1K36426   8.544  10.273   3.371
  701POPC   C1L36427   8.577  10.419   3.403
  701POPC   C1M36428   8.611  10.444   3.551
  701POPC   C1N36429   8.645  10.591   3.574
  701POPC   C1O36430   8.674  10.622   3.721
  701POPC   C1P36431   8.803  10.556   3.771
  701POPC   C1Q36432   8.832  10.585   3.919
  701POPC   C1R36433   8.728  10.523   4.013
  701POPC    CE36434   9.389  10.072   2.587
  701POPC    OG36435   9.499   9.980   2.600
  701POPC   C2A36436   9.604  10.022   2.669
  701POPC    OH36437   9.622  10.142   2.692
  701POPC   C2B36438   9.704   9.917   2.695
  701POPC   C2C36439   9.688   9.853   2.833
  701POPC   C2D36440   9.795   9.746   2.853
  701POPC   C2E36441   9.784   9.679   2.990
  701POPC   C2F36442   9.888   9.568   3.003
  701POPC   C2G36443   9.878   9.493   3.136
  701POPC   C2H36444   9.922   9.579   3.255
  701POPC   C2I36445   9.916   9.497   3.384
  701POPC   C2J36446   9.964   9.580   3.503
  701POPC   C2K36447   9.965   9.497   3.631
  701POPC   C2L36448  10.023   9.577   3.748
  701POPC   C2M36449  10.030   9.490   3.873
  701POPC   C2N36450  10.097   9.565   3.988
  701POPC   C2O36451  10.106   9.476   4.112
  701POPC   C2P36452  10.177   9.548   4.227
  702POPC   CN136453  10.128  10.653   1.906
  702POPC   CN236454  10.135  10.864   2.018
  702POPC   CN336455  10.170  10.853   1.784
  702POPC   NTM36456  10.093  10.795   1.895
  702POPC    CA36457   9.949  10.815   1.867
  702POPC    CB36458   9.836  10.761   1.959
  702POPC    OA36459   9.821  10.813   2.092
  702POPC     P36460   9.745  10.950   2.106
  702POPC    OB36461   9.704  10.996   1.971
  702POPC    OC36462   9.645  10.932   2.212
  702POPC    OD36463   9.871  11.030   2.154
  702POPC    CC36464   9.900  11.004   2.291
  702POPC    CD36465  10.040  11.049   2.336
  702POPC    OE36466  10.083  10.993   2.462
  702POPC   C1A36467  10.137  10.872   2.469
  702POPC    OF36468  10.153  10.801   2.369
  702POPC   C1B36469  10.166  10.835   2.610
  702POPC   C1C36470  10.299  10.763   2.631
  702POPC   C1D36471  10.319  10.749   2.782
  702POPC   C1E36472  10.452  10.683   2.819
  702POPC   C1F36473  10.472  10.685   2.971
  702POPC   C1G36474  10.495  10.827   3.023
  702POPC   C1H36475  10.513  10.829   3.175
  702POPC   C1I36476  10.553  10.968   3.224
  702POPC   C1J36477  10.529  11.005   3.349
  702POPC   C1K36478  10.461  10.908   3.446
  702POPC   C1L36479  10.501  10.938   3.591
  702POPC   C1M36480  10.437  10.835   3.685
  702POPC   C1N36481  10.477  10.856   3.832
  702POPC   C1O36482  10.415  10.982   3.893
  702POPC   C1P36483  10.453  10.994   4.040
  702POPC   C1Q36484  10.387  11.115   4.105
  702POPC   C1R36485  10.425  11.126   4.253
  702POPC    CE36486  10.041  11.203   2.329
  702POPC    OG36487   9.959  11.272   2.425
  702POPC   C2A36488   9.970  11.404   2.426
  702POPC    OH36489  10.037  11.465   2.341
  702POPC   C2B36490   9.901  11.469   2.539
  702POPC   C2C36491   9.999  11.486   2.654
  702POPC   C2D36492   9.939  11.568   2.769
  702POPC   C2E36493  10.040  11.580   2.883
  702POPC   C2F36494   9.986  11.671   2.993
  702POPC   C2G36495  10.080  11.677   3.113
  702POPC   C2H36496  10.024  11.776   3.215
  702POPC   C2I36497  10.108  11.780   3.343
  702POPC   C2J36498  10.054  11.891   3.433
  702POPC   C2K36499  10.123  11.894   3.569
  702POPC   C2L36500  10.066  12.011   3.650
  702POPC   C2M36501  10.114  12.010   3.795
  702POPC   C2N36502  10.057  12.128   3.875
  702POPC   C2O36503   9.904  12.123   3.884
  702POPC   C2P36504   9.850  12.241   3.965
  703POPC   CN136505  10.178  11.602   1.805
  703POPC   CN236506  10.297  11.792   1.885
  703POPC   CN336507  10.238  11.617   2.034
  703POPC   NTM36508  10.283  11.646   1.898
  703POPC    CA36509  10.409  11.574   1.865
  703POPC    CB36510  10.534  11.591   1.954
  703POPC    OA36511  10.586  11.724   1.964
  703POPC     P36512  10.645  11.753   2.107
  703POPC    OB36513  10.713  11.632   2.158
  703POPC    OC36514  10.708  11.884   2.100
  703POPC    OD36515  10.508  11.768   2.183
  703POPC    CC36516  10.531  11.823   2.312
  703POPC    CD36517  10.405  11.834   2.401
  703POPC    OE36518  10.428  11.903   2.527
  703POPC   C1A36519  10.408  12.034   2.537
  703POPC    OF36520  10.361  12.098   2.442
  703POPC   C1B36521  10.443  12.087   2.670
  703POPC   C1C36522  10.327  12.076   2.769
  703POPC   C1D36523  10.375  12.104   2.912
  703POPC   C1E36524  10.262  12.084   3.014
  703POPC   C1F36525  10.313  12.086   3.159
  703POPC   C1G36526  10.364  12.223   3.204
  703POPC   C1H36527  10.419  12.216   3.347
  703POPC   C1I36528  10.467  12.354   3.392
  703POPC   C1J36529  10.483  12.385   3.520
  703POPC   C1K36530  10.458  12.283   3.632
  703POPC   C1L36531  10.417  12.356   3.760
  703POPC   C1M36532  10.425  12.265   3.883
  703POPC   C1N36533  10.388  12.342   4.010
  703POPC   C1O36534  10.404  12.254   4.134
  703POPC   C1P36535  10.370  12.329   4.264
  703POPC   C1Q36536  10.221  12.361   4.275
  703POPC   C1R36537  10.190  12.437   4.404
  703POPC    CE36538  10.347  11.691   2.413
  703POPC    OG36539  10.437  11.591   2.463
  703POPC   C2A36540  10.418  11.466   2.422
  703POPC    OH36541  10.350  11.442   2.323
  703POPC   C2B36542  10.508  11.369   2.490
  703POPC   C2C36543  10.441  11.234   2.519
  703POPC   C2D36544  10.342  11.239   2.637
  703POPC   C2E36545  10.414  11.258   2.771
  703POPC   C2F36546  10.315  11.261   2.887
  703POPC   C2G36547  10.388  11.284   3.020
  703POPC   C2H36548  10.289  11.300   3.135
  703POPC   C2I36549  10.362  11.334   3.265
  703POPC   C2J36550  10.262  11.365   3.377
  703POPC   C2K36551  10.332  11.410   3.505
  703POPC   C2L36552  10.227  11.451   3.609
  703POPC   C2M36553  10.291  11.503   3.738
  703POPC   C2N36554  10.182  11.546   3.836
  703POPC   C2O36555  10.237  11.605   3.966
  703POPC   C2P36556  10.307  11.499   4.053
  704POPC   CN136557   9.829  12.788   1.436
  704POPC   CN236558   9.848  12.550   1.414
  704POPC   CN336559   9.996  12.694   1.295
  704POPC   NTM36560   9.924  12.676   1.422
  704POPC    CA36561  10.025  12.675   1.530
  704POPC    CB36562   9.982  12.673   1.679
  704POPC    OA36563   9.903  12.562   1.721
  704POPC     P36564   9.824  12.596   1.854
  704POPC    OB36565   9.776  12.734   1.844
  704POPC    OC36566   9.736  12.484   1.884
  704POPC    OD36567   9.947  12.589   1.952
  704POPC    CC36568   9.900  12.587   2.087
  704POPC    CD36569  10.014  12.575   2.189
  704POPC    OE36570   9.971  12.544   2.324
  704POPC   C1A36571   9.991  12.421   2.370
  704POPC    OF36572  10.032  12.330   2.298
  704POPC   C1B36573   9.971  12.413   2.517
  704POPC   C1C36574  10.105  12.434   2.586
  704POPC   C1D36575  10.095  12.512   2.718
  704POPC   C1E36576  10.024  12.433   2.829
  704POPC   C1F36577  10.019  12.512   2.960
  704POPC   C1G36578  10.159  12.535   3.019
  704POPC   C1H36579  10.151  12.605   3.155
  704POPC   C1I36580  10.291  12.624   3.213
  704POPC   C1J36581  10.314  12.709   3.313
  704POPC   C1K36582  10.199  12.789   3.375
  704POPC   C1L36583  10.235  12.834   3.517
  704POPC   C1M36584  10.127  12.926   3.574
  704POPC   C1N36585  10.170  12.984   3.709
  704POPC   C1O36586  10.065  13.084   3.757
  704POPC   C1P36587  10.107  13.160   3.883
  704POPC   C1Q36588  10.110  13.071   4.008
  704POPC   C1R36589  10.157  13.151   4.130
  704POPC    CE36590  10.098  12.703   2.178
  704POPC    OG36591  10.214  12.706   2.262
  704POPC   C2A36592  10.284  12.818   2.263
  704POPC    OH36593  10.283  12.895   2.166
  704POPC   C2B36594  10.379  12.825   2.377
  704POPC   C2C36595  10.314  12.888   2.500
  704POPC   C2D36596  10.408  12.886   2.620
  704POPC   C2E36597  10.341  12.952   2.742
  704POPC   C2F36598  10.433  12.950   2.864
  704POPC   C2G36599  10.368  13.027   2.980
  704POPC   C2H36600  10.459  13.031   3.103
  704POPC   C2I36601  10.398  13.119   3.212
  704POPC   C2J36602  10.485  13.117   3.338
  704POPC   C2K36603  10.426  13.209   3.446
  704POPC   C2L36604  10.506  13.200   3.576
  704POPC   C2M36605  10.449  13.294   3.682
  704POPC   C2N36606  10.527  13.284   3.813
  704POPC   C2O36607  10.472  13.377   3.921
  704POPC   C2P36608  10.494  13.525   3.889
  705POPC   CN136609   9.540  13.368   1.920
  705POPC   CN236610   9.757  13.429   1.988
  705POPC   CN336611   9.636  13.253   2.101
  705POPC   NTM36612   9.666  13.315   1.971
  705POPC    CA36613   9.720  13.216   1.874
  705POPC    CB36614   9.835  13.120   1.916
  705POPC    OA36615   9.945  13.182   1.984
  705POPC     P36616  10.050  13.074   2.028
  705POPC    OB36617   9.968  12.982   2.108
  705POPC    OC36618  10.107  13.044   1.895
  705POPC    OD36619  10.132  13.178   2.111
  705POPC    CC36620  10.088  13.189   2.246
  705POPC    CD36621  10.132  13.320   2.314
  705POPC    OE36622  10.115  13.320   2.459
  705POPC   C1A36623  10.187  13.407   2.530
  705POPC    OF36624  10.292  13.453   2.484
  705POPC   C1B36625  10.134  13.428   2.667
  705POPC   C1C36626  10.201  13.340   2.773
  705POPC   C1D36627  10.131  13.355   2.908
  705POPC   C1E36628  10.147  13.495   2.968
  705POPC   C1F36629  10.064  13.516   3.095
  705POPC   C1G36630  10.109  13.428   3.211
  705POPC   C1H36631  10.029  13.460   3.337
  705POPC   C1I36632  10.072  13.369   3.452
  705POPC   C1J36633  10.073  13.413   3.578
  705POPC   C1K36634  10.028  13.555   3.613
  705POPC   C1L36635   9.989  13.562   3.761
  705POPC   C1M36636   9.947  13.704   3.800
  705POPC   C1N36637   9.916  13.717   3.950
  705POPC   C1O36638  10.041  13.695   4.036
  705POPC   C1P36639  10.012  13.713   4.185
  705POPC   C1Q36640  10.138  13.697   4.270
  705POPC   C1R36641  10.195  13.555   4.265
  705POPC    CE36642  10.052  13.431   2.243
  705POPC    OG36643   9.909  13.422   2.264
  705POPC   C2A36644   9.859  13.491   2.367
  705POPC    OH36645   9.913  13.595   2.404
  705POPC   C2B36646   9.719  13.451   2.397
  705POPC   C2C36647   9.704  13.367   2.524
  705POPC   C2D36648   9.711  13.455   2.649
  705POPC   C2E36649   9.682  13.375   2.776
  705POPC   C2F36650   9.676  13.469   2.896
  705POPC   C2G36651   9.645  13.392   3.024
  705POPC   C2H36652   9.635  13.488   3.143
  705POPC   C2I36653   9.610  13.412   3.273
  705POPC   C2J36654   9.603  13.508   3.391
  705POPC   C2K36655   9.587  13.432   3.523
  705POPC   C2L36656   9.582  13.531   3.639
  705POPC   C2M36657   9.566  13.459   3.773
  705POPC   C2N36658   9.551  13.562   3.886
  705POPC   C2O36659   9.535  13.493   4.021
  705POPC   C2P36660   9.523  13.597   4.133
  706POPC   CN136661  10.282  14.030   2.055
  706POPC   CN236662  10.215  14.082   2.277
  706POPC   CN336663  10.439  14.010   2.230
  706POPC   NTM36664  10.327  14.091   2.181
  706POPC    CA36665  10.364  14.232   2.157
  706POPC    CB36666  10.429  14.317   2.270
  706POPC    OA36667  10.359  14.328   2.394
  706POPC     P36668  10.456  14.374   2.510
  706POPC    OB36669  10.547  14.475   2.454
  706POPC    OC36670  10.368  14.411   2.621
  706POPC    OD36671  10.525  14.234   2.530
  706POPC    CC36672  10.456  14.155   2.626
  706POPC    CD36673  10.490  14.005   2.619
  706POPC    OE36674  10.394  13.924   2.692
  706POPC   C1A36675  10.286  13.880   2.629
  706POPC    OF36676  10.287  13.868   2.505
  706POPC   C1B36677  10.179  13.831   2.719
  706POPC   C1C36678  10.041  13.858   2.658
  706POPC   C1D36679   9.926  13.832   2.756
  706POPC   C1E36680   9.793  13.855   2.685
  706POPC   C1F36681   9.675  13.861   2.783
  706POPC   C1G36682   9.675  13.993   2.861
  706POPC   C1H36683   9.561  14.003   2.963
  706POPC   C1I36684   9.422  14.011   2.898
  706POPC   C1J36685   9.316  13.970   2.968
  706POPC   C1K36686   9.337  13.916   3.109
  706POPC   C1L36687   9.215  13.841   3.163
  706POPC   C1M36688   9.101  13.936   3.203
  706POPC   C1N36689   8.985  13.861   3.270
  706POPC   C1O36690   8.909  13.772   3.171
  706POPC   C1P36691   8.814  13.674   3.239
  706POPC   C1Q36692   8.698  13.743   3.311
  706POPC   C1R36693   8.606  13.638   3.373
  706POPC    CE36694  10.640  13.990   2.652
  706POPC    OG36695  10.682  14.021   2.786
  706POPC   C2A36696  10.813  14.015   2.809
  706POPC    OH36697  10.894  13.994   2.719
  706POPC   C2B36698  10.848  14.029   2.952
  706POPC   C2C36699  10.881  14.174   2.990
  706POPC   C2D36700  10.926  14.185   3.136
  706POPC   C2E36701  10.815  14.147   3.235
  706POPC   C2F36702  10.860  14.157   3.381
  706POPC   C2G36703  10.969  14.054   3.417
  706POPC   C2H36704  11.004  14.057   3.566
  706POPC   C2I36705  11.077  14.185   3.607
  706POPC   C2J36706  11.097  14.189   3.758
  706POPC   C2K36707  11.176  14.313   3.800
  706POPC   C2L36708  11.190  14.319   3.952
  706POPC   C2M36709  11.271  14.441   3.999
  706POPC   C2N36710  11.420  14.434   3.963
  706POPC   C2O36711  11.498  14.326   4.041
  706POPC   C2P36712  11.510  14.360   4.190
  707POPC   CN136713   9.628  15.484   1.919
  707POPC   CN236714   9.389  15.505   1.914
  707POPC   CN336715   9.509  15.443   1.718
  707POPC   NTM36716   9.504  15.428   1.864
  707POPC    CA36717   9.494  15.284   1.897
  707POPC    CB36718   9.468  15.236   2.042
  707POPC    OA36719   9.556  15.282   2.145
  707POPC     P36720   9.476  15.277   2.279
  707POPC    OB36721   9.381  15.388   2.265
  707POPC    OC36722   9.429  15.139   2.296
  707POPC    OD36723   9.598  15.315   2.371
  707POPC    CC36724   9.634  15.208   2.458
  707POPC    CD36725   9.729  15.243   2.574
  707POPC    OE36726   9.736  15.135   2.670
  707POPC   C1A36727   9.852  15.074   2.693
  707POPC    OF36728   9.945  15.082   2.613
  707POPC   C1B36729   9.849  14.984   2.811
  707POPC   C1C36730   9.923  15.040   2.933
  707POPC   C1D36731   9.859  15.168   2.990
  707POPC   C1E36732   9.926  15.218   3.118
  707POPC   C1F36733   9.898  15.126   3.238
  707POPC   C1G36734   9.943  15.187   3.371
  707POPC   C1H36735  10.096  15.197   3.384
  707POPC   C1I36736  10.136  15.261   3.517
  707POPC   C1J36737  10.181  15.189   3.619
  707POPC   C1K36738  10.198  15.037   3.608
  707POPC   C1L36739  10.308  14.984   3.701
  707POPC   C1M36740  10.267  14.985   3.849
  707POPC   C1N36741  10.383  14.940   3.937
  707POPC   C1O36742  10.344  14.930   4.085
  707POPC   C1P36743  10.251  14.812   4.116
  707POPC   C1Q36744  10.320  14.677   4.098
  707POPC   C1R36745  10.224  14.562   4.129
  707POPC    CE36746   9.678  15.374   2.635
  707POPC    OG36747   9.752  15.427   2.746
  707POPC   C2A36748   9.715  15.547   2.791
  707POPC    OH36749   9.616  15.605   2.746
  707POPC   C2B36750   9.792  15.588   2.911
  707POPC   C2C36751   9.709  15.567   3.038
  707POPC   C2D36752   9.793  15.592   3.164
  707POPC   C2E36753   9.704  15.589   3.289
  707POPC   C2F36754   9.785  15.603   3.417
  707POPC   C2G36755   9.693  15.624   3.537
  707POPC   C2H36756   9.767  15.623   3.671
  707POPC   C2I36757   9.809  15.481   3.711
  707POPC   C2J36758   9.880  15.481   3.846
  707POPC   C2K36759   9.914  15.338   3.889
  707POPC   C2L36760   9.992  15.332   4.021
  707POPC   C2M36761   9.911  15.374   4.144
  707POPC   C2N36762   9.804  15.271   4.181
  707POPC   C2O36763   9.731  15.311   4.309
  707POPC   C2P36764   9.620  15.211   4.342
  708POPC   CN136765  10.340  15.885   2.126
  708POPC   CN236766  10.365  15.669   2.222
  708POPC   CN336767  10.304  15.858   2.357
  708POPC   NTM36768  10.286  15.793   2.226
  708POPC    CA36769  10.143  15.770   2.196
  708POPC    CB36770  10.062  15.667   2.279
  708POPC    OA36771  10.058  15.690   2.419
  708POPC     P36772   9.969  15.587   2.497
  708POPC    OB36773   9.922  15.656   2.617
  708POPC    OC36774   9.875  15.524   2.403
  708POPC    OD36775  10.082  15.480   2.526
  708POPC    CC36776  10.135  15.495   2.658
  708POPC    CD36777  10.258  15.407   2.688
  708POPC    OE36778  10.262  15.362   2.826
  708POPC   C1A36779  10.345  15.266   2.865
  708POPC    OF36780  10.425  15.214   2.787
  708POPC   C1B36781  10.320  15.224   3.005
  708POPC   C1C36782  10.447  15.190   3.085
  708POPC   C1D36783  10.534  15.314   3.106
  708POPC   C1E36784  10.637  15.294   3.218
  708POPC   C1F36785  10.569  15.280   3.355
  708POPC   C1G36786  10.673  15.276   3.467
  708POPC   C1H36787  10.605  15.254   3.602
  708POPC   C1I36788  10.704  15.262   3.717
  708POPC   C1J36789  10.661  15.307   3.834
  708POPC   C1K36790  10.513  15.346   3.845
  708POPC   C1L36791  10.492  15.467   3.937
  708POPC   C1M36792  10.344  15.507   3.934
  708POPC   C1N36793  10.313  15.628   4.023
  708POPC   C1O36794  10.330  15.596   4.171
  708POPC   C1P36795  10.284  15.711   4.261
  708POPC   C1Q36796  10.133  15.732   4.254
  708POPC   C1R36797  10.089  15.848   4.344
  708POPC    CE36798  10.380  15.479   2.627
  708POPC    OG36799  10.403  15.615   2.669
  708POPC   C2A36800  10.500  15.681   2.606
  708POPC    OH36801  10.527  15.652   2.490
  708POPC   C2B36802  10.530  15.813   2.667
  708POPC   C2C36803  10.652  15.813   2.760
  708POPC   C2D36804  10.624  15.741   2.892
  708POPC   C2E36805  10.740  15.759   2.989
  708POPC   C2F36806  10.704  15.698   3.125
  708POPC   C2G36807  10.809  15.734   3.230
  708POPC   C2H36808  10.765  15.684   3.367
  708POPC   C2I36809  10.856  15.739   3.476
  708POPC   C2J36810  10.801  15.704   3.614
  708POPC   C2K36811  10.874  15.784   3.722
  708POPC   C2L36812  10.808  15.764   3.859
  708POPC   C2M36813  10.860  15.862   3.964
  708POPC   C2N36814  10.829  16.007   3.926
  708POPC   C2O36815  10.867  16.107   4.035
  708POPC   C2P36816  10.776  16.097   4.157
  709POPC   CN136817   9.200  16.844   1.790
  709POPC   CN236818   9.379  16.852   1.947
  709POPC   CN336819   9.172  16.748   2.004
  709POPC   NTM36820   9.269  16.769   1.896
  709POPC    CA36821   9.315  16.640   1.838
  709POPC    CB36822   9.388  16.534   1.924
  709POPC    OA36823   9.514  16.574   1.979
  709POPC     P36824   9.571  16.459   2.071
  709POPC    OB36825   9.461  16.425   2.162
  709POPC    OC36826   9.624  16.360   1.975
  709POPC    OD36827   9.689  16.535   2.139
  709POPC    CC36828   9.640  16.617   2.245
  709POPC    CD36829   9.742  16.715   2.307
  709POPC    OE36830   9.787  16.827   2.225
  709POPC   C1A36831   9.702  16.926   2.200
  709POPC    OF36832   9.580  16.906   2.202
  709POPC   C1B36833   9.767   0.066   2.151
  709POPC   C1C36834   9.748   0.185   2.247
  709POPC   C1D36835   9.606   0.242   2.239
  709POPC   C1E36836   9.575   0.343   2.350
  709POPC   C1F36837   9.568   0.275   2.487
  709POPC   C1G36838   9.513   0.371   2.593
  709POPC   C1H36839   9.507   0.300   2.729
  709POPC   C1I36840   9.433   0.384   2.833
  709POPC   C1J36841   9.368   0.321   2.931
  709POPC   C1K36842   9.372   0.168   2.935
  709POPC   C1L36843   9.361   0.115   3.078
  709POPC   C1M36844   9.382  16.947   3.078
  709POPC   C1N36845   9.366  16.887   3.218
  709POPC   C1O36846   9.396  16.737   3.220
  709POPC   C1P36847   9.298  16.656   3.134
  709POPC   C1Q36848   9.327  16.506   3.137
  709POPC   C1R36849   9.297  16.444   3.274
  709POPC    CE36850   9.853  16.628   2.366
  709POPC    OG36851   9.816  16.567   2.491
  709POPC   C2A36852   9.905  16.485   2.547
  709POPC    OH36853  10.008  16.452   2.488
  709POPC   C2B36854   9.862  16.436   2.680
  709POPC   C2C36855   9.982  16.422   2.775
  709POPC   C2D36856   9.942  16.369   2.913
  709POPC   C2E36857   9.865  16.471   2.997
  709POPC   C2F36858   9.824  16.405   3.128
  709POPC   C2G36859   9.754  16.501   3.225
  709POPC   C2H36860   9.706  16.421   3.346
  709POPC   C2I36861   9.648  16.509   3.457
  709POPC   C2J36862   9.595  16.427   3.574
  709POPC   C2K36863   9.703  16.343   3.642
  709POPC   C2L36864   9.648  16.267   3.763
  709POPC   C2M36865   9.757  16.182   3.829
  709POPC   C2N36866   9.702  16.112   3.953
  709POPC   C2O36867   9.809  16.026   4.019
  709POPC   C2P36868   9.755  15.960   4.147
  710POPC   CN136869  11.458  16.625   2.176
  710POPC   CN236870  11.335  16.667   2.374
  710POPC   CN336871  11.460  16.843   2.276
  710POPC   NTM36872  11.377  16.725   2.246
  710POPC    CA36873  11.256  16.760   2.168
  710POPC    CB36874  11.270  16.820   2.026
  710POPC    OA36875  11.336  16.946   2.011
  710POPC     P36876  11.243   0.087   2.041
  710POPC    OB36877  11.291   0.200   1.960
  710POPC    OC36878  11.102   0.046   2.040
  710POPC    OD36879  11.283   0.111   2.190
  710POPC    CC36880  11.222   0.229   2.243
  710POPC    CD36881  11.270   0.269   2.385
  710POPC    OE36882  11.397   0.339   2.394
  710POPC   C1A36883  11.398   0.472   2.394
  710POPC    OF36884  11.295   0.536   2.367
  710POPC   C1B36885  11.531   0.531   2.420
  710POPC   C1C36886  11.525   0.637   2.530
  710POPC   C1D36887  11.654   0.719   2.538
  710POPC   C1E36888  11.775   0.645   2.597
  710POPC   C1F36889  11.776   0.646   2.750
  710POPC   C1G36890  11.914   0.606   2.801
  710POPC   C1H36891  11.925   0.614   2.954
  710POPC   C1I36892  12.071   0.598   2.996
  710POPC   C1J36893  12.112   0.626   3.119
  710POPC   C1K36894  12.011   0.671   3.225
  710POPC   C1L36895  12.051   0.621   3.364
  710POPC   C1M36896  11.937   0.645   3.463
  710POPC   C1N36897  11.964   0.585   3.601
  710POPC   C1O36898  11.839   0.601   3.687
  710POPC   C1P36899  11.854   0.531   3.822
  710POPC   C1Q36900  11.722   0.540   3.900
  710POPC   C1R36901  11.732   0.467   4.034
  710POPC    CE36902  11.267   0.142   2.470
  710POPC    OG36903  11.140   0.107   2.527
  710POPC   C2A36904  11.136  16.974   2.590
  710POPC    OH36905  11.214  16.883   2.560
  710POPC   C2B36906  11.021  16.960   2.682
  710POPC   C2C36907  11.055   0.040   2.817
  710POPC   C2D36908  10.938   0.033   2.915
  710POPC   C2E36909  10.968   0.111   3.043
  710POPC   C2F36910  11.077   0.045   3.129
  710POPC   C2G36911  11.119   0.136   3.245
  710POPC   C2H36912  11.217   0.069   3.342
  710POPC   C2I36913  11.347   0.026   3.274
  710POPC   C2J36914  11.437  16.934   3.372
  710POPC   C2K36915  11.549  16.863   3.297
  710POPC   C2L36916  11.638  16.782   3.392
  710POPC   C2M36917  11.741  16.699   3.316
  710POPC   C2N36918  11.676  16.583   3.240
  710POPC   C2O36919  11.775  16.509   3.150
  710POPC   C2P36920  11.817  16.594   3.030
  711POPC   CN136921  10.855   0.887   2.291
  711POPC   CN236922  10.916   1.106   2.214
  711POPC   CN336923  11.039   0.917   2.143
  711POPC   NTM36924  10.905   0.965   2.176
  711POPC    CA36925  10.819   0.946   2.058
  711POPC    CB36926  10.668   0.983   2.063
  711POPC    OA36927  10.635   1.118   2.087
  711POPC     P36928  10.478   1.134   2.087
  711POPC    OB36929  10.441   1.100   1.949
  711POPC    OC36930  10.433   1.052   2.200
  711POPC    OD36931  10.473   1.288   2.117
  711POPC    CC36932  10.520   1.319   2.248
  711POPC    CD36933  10.576   1.461   2.261
  711POPC    OE36934  10.657   1.483   2.380
  711POPC   C1A36935  10.785   1.448   2.384
  711POPC    OF36936  10.844   1.402   2.285
  711POPC   C1B36937  10.845   1.477   2.517
  711POPC   C1C36938  10.933   1.365   2.575
  711POPC   C1D36939  10.859   1.231   2.587
  711POPC   C1E36940  10.912   1.145   2.702
  711POPC   C1F36941  10.855   1.196   2.835
  711POPC   C1G36942  10.901   1.113   2.955
  711POPC   C1H36943  10.822   1.154   3.079
  711POPC   C1I36944  10.863   1.077   3.204
  711POPC   C1J36945  10.769   1.039   3.290
  711POPC   C1K36946  10.623   1.067   3.257
  711POPC   C1L36947  10.530   0.965   3.324
  711POPC   C1M36948  10.386   0.976   3.274
  711POPC   C1N36949  10.373   0.928   3.129
  711POPC   C1O36950  10.229   0.936   3.080
  711POPC   C1P36951  10.219   0.881   2.937
  711POPC   C1Q36952  10.076   0.889   2.884
  711POPC   C1R36953  10.068   0.833   2.742
  711POPC    CE36954  10.458   1.558   2.243
  711POPC    OG36955  10.347   1.540   2.334
  711POPC   C2A36956  10.246   1.626   2.324
  711POPC    OH36957  10.251   1.725   2.249
  711POPC   C2B36958  10.136   1.597   2.419
  711POPC   C2C36959  10.158   1.670   2.552
  711POPC   C2D36960  10.063   1.616   2.659
  711POPC   C2E36961  10.095   1.678   2.796
  711POPC   C2F36962  10.021   1.608   2.911
  711POPC   C2G36963  10.073   1.465   2.931
  711POPC   C2H36964   9.997   1.389   3.041
  711POPC   C2I36965  10.032   1.435   3.183
  711POPC   C2J36966  10.172   1.390   3.227
  711POPC   C2K36967  10.194   1.426   3.374
  711POPC   C2L36968  10.331   1.380   3.424
  711POPC   C2M36969  10.347   1.412   3.573
  711POPC   C2N36970  10.485   1.376   3.627
  711POPC   C2O36971  10.509   1.225   3.632
  711POPC   C2P36972  10.651   1.195   3.680
  712POPC   CN136973  11.119   2.088   1.783
  712POPC   CN236974  11.182   2.003   1.571
  712POPC   CN336975  11.160   1.855   1.756
  712POPC   NTM36976  11.104   1.975   1.691
  712POPC    CA36977  10.962   1.956   1.651
  712POPC    CB36978  10.852   1.939   1.758
  712POPC    OA36979  10.870   1.827   1.845
  712POPC     P36980  10.735   1.774   1.906
  712POPC    OB36981  10.636   1.792   1.799
  712POPC    OC36982  10.780   1.642   1.953
  712POPC    OD36983  10.721   1.879   2.022
  712POPC    CC36984  10.797   1.838   2.136
  712POPC    CD36985  10.856   1.955   2.217
  712POPC    OE36986  10.966   1.922   2.306
  712POPC   C1A36987  11.085   1.891   2.256
  712POPC    OF36988  11.105   1.888   2.134
  712POPC   C1B36989  11.185   1.858   2.360
  712POPC   C1C36990  11.183   1.707   2.388
  712POPC   C1D36991  11.297   1.668   2.481
  712POPC   C1E36992  11.304   1.516   2.497
  712POPC   C1F36993  11.425   1.474   2.581
  712POPC   C1G36994  11.558   1.503   2.510
  712POPC   C1H36995  11.679   1.487   2.601
  712POPC   C1I36996  11.715   1.342   2.635
  712POPC   C1J36997  11.704   1.295   2.759
  712POPC   C1K36998  11.652   1.384   2.872
  712POPC   C1L36999  11.705   1.341   3.009
  712POPC   C1M37000  11.635   1.420   3.119
  712POPC   C1N37001  11.688   1.387   3.259
  712POPC   C1O37002  11.661   1.242   3.299
  712POPC   C1P37003  11.728   1.208   3.432
  712POPC   C1Q37004  11.715   1.059   3.465
  712POPC   C1R37005  11.790   0.972   3.363
  712POPC    CE37006  10.735   2.027   2.280
  712POPC    OG37007  10.650   1.946   2.363
  712POPC   C2A37008  10.538   2.002   2.406
  712POPC    OH37009  10.487   2.097   2.345
  712POPC   C2B37010  10.472   1.923   2.513
  712POPC   C2C37011  10.524   1.968   2.650
  712POPC   C2D37012  10.463   1.886   2.763
  712POPC   C2E37013  10.516   1.936   2.898
  712POPC   C2F37014  10.449   1.863   3.015
  712POPC   C2G37015  10.501   1.916   3.148
  712POPC   C2H37016  10.434   1.845   3.265
  712POPC   C2I37017  10.495   1.890   3.398
  712POPC   C2J37018  10.434   1.812   3.515
  712POPC   C2K37019  10.501   1.849   3.647
  712POPC   C2L37020  10.443   1.766   3.761
  712POPC   C2M37021  10.513   1.796   3.893
  712POPC   C2N37022  10.458   1.705   4.004
  712POPC   C2O37023  10.529   1.732   4.137
  712POPC   C2P37024  10.477   1.638   4.245
  713POPC   CN137025  10.176   1.884   1.987
  713POPC   CN237026  10.253   2.109   1.983
  713POPC   CN337027  10.399   1.933   2.052
  713POPC   NTM37028  10.292   1.969   1.958
  713POPC    CA37029  10.330   1.946   1.817
  713POPC    CB37030  10.448   2.021   1.752
  713POPC    OA37031  10.436   2.163   1.734
  713POPC     P37032  10.567   2.223   1.668
  713POPC    OB37033  10.607   2.126   1.565
  713POPC    OC37034  10.527   2.360   1.631
  713POPC    OD37035  10.661   2.220   1.794
  713POPC    CC37036  10.639   2.333   1.878
  713POPC    CD37037  10.714   2.328   2.012
  713POPC    OE37038  10.668   2.430   2.107
  713POPC   C1A37039  10.690   2.560   2.086
  713POPC    OF37040  10.754   2.599   1.987
  713POPC   C1B37041  10.638   2.647   2.193
  713POPC   C1C37042  10.750   2.708   2.279
  713POPC   C1D37043  10.817   2.608   2.373
  713POPC   C1E37044  10.724   2.566   2.488
  713POPC   C1F37045  10.793   2.469   2.584
  713POPC   C1G37046  10.820   2.333   2.518
  713POPC   C1H37047  10.912   2.244   2.602
  713POPC   C1I37048  10.847   2.189   2.729
  713POPC   C1J37049  10.892   2.072   2.776
  713POPC   C1K37050  11.005   2.002   2.700
  713POPC   C1L37051  11.094   1.916   2.791
  713POPC   C1M37052  11.025   1.786   2.835
  713POPC   C1N37053  11.121   1.703   2.920
  713POPC   C1O37054  11.056   1.570   2.961
  713POPC   C1P37055  11.149   1.486   3.050
  713POPC   C1Q37056  11.174   1.552   3.186
  713POPC   C1R37057  11.265   1.466   3.273
  713POPC    CE37058  10.866   2.318   1.984
  713POPC    OG37059  10.944   2.284   2.099
  713POPC   C2A37060  11.076   2.300   2.091
  713POPC    OH37061  11.131   2.323   1.983
  713POPC   C2B37062  11.147   2.271   2.217
  713POPC   C2C37063  11.176   2.398   2.298
  713POPC   C2D37064  11.253   2.363   2.425
  713POPC   C2E37065  11.285   2.489   2.506
  713POPC   C2F37066  11.372   2.459   2.628
  713POPC   C2G37067  11.297   2.381   2.737
  713POPC   C2H37068  11.391   2.357   2.856
  713POPC   C2I37069  11.320   2.282   2.969
  713POPC   C2J37070  11.418   2.259   3.085
  713POPC   C2K37071  11.355   2.187   3.204
  713POPC   C2L37072  11.253   2.274   3.278
  713POPC   C2M37073  11.196   2.204   3.402
  713POPC   C2N37074  11.107   2.083   3.371
  713POPC   C2O37075  10.975   2.124   3.305
  713POPC   C2P37076  10.889   2.002   3.273
  714POPC   CN137077  10.791   3.818   1.303
  714POPC   CN237078  10.948   3.640   1.295
  714POPC   CN337079  11.022   3.867   1.301
  714POPC   NTM37080  10.921   3.773   1.352
  714POPC    CA37081  10.913   3.769   1.500
  714POPC    CB37082  11.035   3.735   1.589
  714POPC    OA37083  11.130   3.841   1.604
  714POPC     P37084  11.264   3.795   1.676
  714POPC    OB37085  11.298   3.669   1.611
  714POPC    OC37086  11.340   3.919   1.660
  714POPC    OD37087  11.204   3.774   1.818
  714POPC    CC37088  11.202   3.891   1.900
  714POPC    CD37089  11.095   3.878   2.009
  714POPC    OE37090  11.060   3.997   2.084
  714POPC   C1A37091  10.983   4.091   2.030
  714POPC    OF37092  10.959   4.092   1.908
  714POPC   C1B37093  10.934   4.187   2.130
  714POPC   C1C37094  11.026   4.308   2.148
  714POPC   C1D37095  10.988   4.389   2.273
  714POPC   C1E37096  10.846   4.445   2.267
  714POPC   C1F37097  10.810   4.509   2.401
  714POPC   C1G37098  10.670   4.572   2.397
  714POPC   C1H37099  10.635   4.646   2.527
  714POPC   C1I37100  10.726   4.767   2.551
  714POPC   C1J37101  10.682   4.876   2.613
  714POPC   C1K37102  10.537   4.883   2.662
  714POPC   C1L37103  10.524   4.990   2.771
  714POPC   C1M37104  10.382   4.993   2.825
  714POPC   C1N37105  10.367   5.103   2.931
  714POPC   C1O37106  10.227   5.099   2.992
  714POPC   C1P37107  10.207   5.205   3.099
  714POPC   C1Q37108  10.203   5.347   3.042
  714POPC   C1R37109  10.184   5.449   3.154
  714POPC    CE37110  11.137   3.758   2.095
  714POPC    OG37111  11.263   3.768   2.164
  714POPC   C2A37112  11.303   3.660   2.230
  714POPC    OH37113  11.261   3.548   2.200
  714POPC   C2B37114  11.410   3.688   2.329
  714POPC   C2C37115  11.346   3.729   2.461
  714POPC   C2D37116  11.447   3.750   2.574
  714POPC   C2E37117  11.373   3.792   2.701
  714POPC   C2F37118  11.469   3.805   2.819
  714POPC   C2G37119  11.402   3.856   2.947
  714POPC   C2H37120  11.301   3.757   3.005
  714POPC   C2I37121  11.251   3.807   3.141
  714POPC   C2J37122  11.157   3.705   3.206
  714POPC   C2K37123  11.122   3.741   3.351
  714POPC   C2L37124  11.031   3.863   3.363
  714POPC   C2M37125  11.009   3.896   3.511
  714POPC   C2N37126  10.911   4.012   3.529
  714POPC   C2O37127  10.898   4.050   3.676
  714POPC   C2P37128  10.798   4.164   3.695
  715POPC   CN137129  10.537   4.843   1.843
  715POPC   CN237130  10.707   4.693   1.771
  715POPC   CN337131  10.649   4.701   2.000
  715POPC   NTM37132  10.594   4.710   1.864
  715POPC    CA37133  10.495   4.605   1.833
  715POPC    CB37134  10.364   4.589   1.914
  715POPC    OA37135  10.385   4.552   2.051
  715POPC     P37136  10.251   4.551   2.135
  715POPC    OB37137  10.147   4.497   2.048
  715POPC    OC37138  10.290   4.488   2.261
  715POPC    OD37139  10.232   4.707   2.151
  715POPC    CC37140  10.321   4.763   2.248
  715POPC    CD37141  10.352   4.910   2.218
  715POPC    OE37142  10.482   4.950   2.269
  715POPC   C1A37143  10.564   5.027   2.197
  715POPC    OF37144  10.537   5.057   2.080
  715POPC   C1B37145  10.695   5.047   2.262
  715POPC   C1C37146  10.700   5.174   2.348
  715POPC   C1D37147  10.836   5.179   2.418
  715POPC   C1E37148  10.856   5.308   2.497
  715POPC   C1F37149  10.997   5.315   2.558
  715POPC   C1G37150  11.019   5.215   2.673
  715POPC   C1H37151  10.939   5.253   2.798
  715POPC   C1I37152  10.961   5.150   2.908
  715POPC   C1J37153  10.955   5.184   3.036
  715POPC   C1K37154  10.925   5.328   3.079
  715POPC   C1L37155  10.988   5.355   3.216
  715POPC   C1M37156  10.964   5.499   3.259
  715POPC   C1N37157  11.036   5.530   3.390
  715POPC   C1O37158  11.016   5.676   3.429
  715POPC   C1P37159  11.097   5.713   3.553
  715POPC   C1Q37160  11.077   5.859   3.594
  715POPC   C1R37161  11.133   5.958   3.491
  715POPC    CE37162  10.227   4.992   2.255
  715POPC    OG37163  10.184   4.985   2.393
  715POPC   C2A37164  10.068   5.043   2.423
  715POPC    OH37165   9.986   5.070   2.335
  715POPC   C2B37166  10.044   5.058   2.569
  715POPC   C2C37167   9.953   4.950   2.629
  715POPC   C2D37168   9.932   4.977   2.778
  715POPC   C2E37169   9.847   4.869   2.846
  715POPC   C2F37170   9.835   4.890   2.998
  715POPC   C2G37171   9.750   5.012   3.035
  715POPC   C2H37172   9.740   5.034   3.187
  715POPC   C2I37173   9.874   5.079   3.247
  715POPC   C2J37174   9.868   5.111   3.397
  715POPC   C2K37175   9.840   4.988   3.484
  715POPC   C2L37176   9.864   5.016   3.633
  715POPC   C2M37177   9.762   5.114   3.694
  715POPC   C2N37178   9.790   5.143   3.842
  715POPC   C2O37179   9.772   5.020   3.931
  715POPC   C2P37180   9.797   5.055   4.078
  716POPC   CN137181  10.318   6.093   1.684
  716POPC   CN237182  10.295   6.074   1.448
  716POPC   CN337183  10.489   5.987   1.554
  716POPC   NTM37184  10.344   6.006   1.569
  716POPC    CA37185  10.274   5.875   1.579
  716POPC    CB37186  10.290   5.789   1.706
  716POPC    OA37187  10.424   5.763   1.749
  716POPC     P37188  10.426   5.713   1.899
  716POPC    OB37189  10.326   5.606   1.905
  716POPC    OC37190  10.568   5.688   1.923
  716POPC    OD37191  10.376   5.845   1.968
  716POPC    CC37192  10.450   5.881   2.084
  716POPC    CD37193  10.408   6.018   2.140
  716POPC    OE37194  10.506   6.082   2.226
  716POPC   C1A37195  10.564   6.195   2.184
  716POPC    OF37196  10.534   6.243   2.075
  716POPC   C1B37197  10.654   6.259   2.283
  716POPC   C1C37198  10.574   6.350   2.376
  716POPC   C1D37199  10.663   6.444   2.457
  716POPC   C1E37200  10.577   6.538   2.542
  716POPC   C1F37201  10.661   6.653   2.600
  716POPC   C1G37202  10.580   6.742   2.695
  716POPC   C1H37203  10.542   6.665   2.822
  716POPC   C1I37204  10.463   6.752   2.921
  716POPC   C1J37205  10.456   6.711   3.048
  716POPC   C1K37206  10.529   6.582   3.086
  716POPC   C1L37207  10.452   6.492   3.183
  716POPC   C1M37208  10.324   6.430   3.126
  716POPC   C1N37209  10.347   6.344   3.001
  716POPC   C1O37210  10.214   6.285   2.953
  716POPC   C1P37211  10.226   6.216   2.817
  716POPC   C1Q37212  10.248   6.316   2.703
  716POPC   C1R37213  10.250   6.245   2.567
  716POPC    CE37214  10.267   6.003   2.198
  716POPC    OG37215  10.247   5.909   2.305
  716POPC   C2A37216  10.125   5.905   2.358
  716POPC    OH37217  10.037   5.984   2.322
  716POPC   C2B37218  10.109   5.805   2.466
  716POPC   C2C37219  10.114   5.873   2.602
  716POPC   C2D37220  10.079   5.776   2.715
  716POPC   C2E37221  10.076   5.853   2.847
  716POPC   C2F37222  10.033   5.763   2.964
  716POPC   C2G37223  10.033   5.838   3.097
  716POPC   C2H37224  10.174   5.882   3.136
  716POPC   C2I37225  10.176   5.962   3.266
  716POPC   C2J37226  10.318   6.014   3.289
  716POPC   C2K37227  10.328   6.100   3.415
  716POPC   C2L37228  10.468   6.160   3.423
  716POPC   C2M37229  10.482   6.253   3.544
  716POPC   C2N37230  10.616   6.327   3.543
  716POPC   C2O37231  10.736   6.234   3.560
  716POPC   C2P37232  10.866   6.314   3.563
  717POPC   CN137233   9.919   7.313   1.922
  717POPC   CN237234  10.052   7.449   2.066
  717POPC   CN337235  10.057   7.481   1.830
  717POPC   NTM37236   9.971   7.449   1.944
  717POPC    CA37237   9.864   7.551   1.952
  717POPC    CB37238   9.735   7.527   2.034
  717POPC    OA37239   9.754   7.469   2.163
  717POPC     P37240   9.621   7.414   2.226
  717POPC    OB37241   9.529   7.383   2.116
  717POPC    OC37242   9.669   7.312   2.320
  717POPC    OD37243   9.579   7.548   2.300
  717POPC    CC37244   9.620   7.556   2.437
  717POPC    CD37245   9.765   7.599   2.467
  717POPC    OE37246   9.811   7.563   2.600
  717POPC   C1A37247   9.935   7.516   2.612
  717POPC    OF37248  10.008   7.504   2.513
  717POPC   C1B37249   9.970   7.474   2.750
  717POPC   C1C37250  10.065   7.571   2.822
  717POPC   C1D37251  10.089   7.519   2.963
  717POPC   C1E37252  10.187   7.604   3.044
  717POPC   C1F37253  10.201   7.544   3.184
  717POPC   C1G37254  10.304   7.615   3.272
  717POPC   C1H37255  10.306   7.547   3.409
  717POPC   C1I37256  10.415   7.601   3.502
  717POPC   C1J37257  10.470   7.518   3.589
  717POPC   C1K37258  10.421   7.372   3.591
  717POPC   C1L37259  10.435   7.302   3.727
  717POPC   C1M37260  10.580   7.268   3.763
  717POPC   C1N37261  10.583   7.179   3.888
  717POPC   C1O37262  10.724   7.140   3.931
  717POPC   C1P37263  10.802   7.259   3.988
  717POPC   C1Q37264  10.944   7.222   4.032
  717POPC   C1R37265  10.946   7.127   4.152
  717POPC    CE37266   9.780   7.746   2.423
  717POPC    OG37267   9.679   7.838   2.469
  717POPC   C2A37268   9.691   7.964   2.431
  717POPC    OH37269   9.789   8.002   2.366
  717POPC   C2B37270   9.579   8.050   2.474
  717POPC   C2C37271   9.608   8.116   2.610
  717POPC   C2D37272   9.489   8.200   2.656
  717POPC   C2E37273   9.517   8.262   2.793
  717POPC   C2F37274   9.398   8.346   2.840
  717POPC   C2G37275   9.422   8.408   2.978
  717POPC   C2H37276   9.426   8.302   3.089
  717POPC   C2I37277   9.449   8.366   3.226
  717POPC   C2J37278   9.454   8.258   3.334
  717POPC   C2K37279   9.486   8.317   3.472
  717POPC   C2L37280   9.499   8.205   3.575
  717POPC   C2M37281   9.539   8.256   3.714
  717POPC   C2N37282   9.428   8.339   3.780
  717POPC   C2O37283   9.467   8.386   3.920
  717POPC   C2P37284   9.482   8.270   4.019
  718POPC   CN137285   9.780   8.284   2.224
  718POPC   CN237286  10.004   8.207   2.231
  718POPC   CN337287   9.901   8.256   2.021
  718POPC   NTM37288   9.911   8.298   2.161
  718POPC    CA37289   9.952   8.440   2.176
  718POPC    CB37290  10.081   8.496   2.109
  718POPC    OA37291  10.199   8.420   2.132
  718POPC     P37292  10.333   8.496   2.099
  718POPC    OB37293  10.419   8.385   2.055
  718POPC    OC37294  10.302   8.608   2.009
  718POPC    OD37295  10.360   8.543   2.246
  718POPC    CC37296  10.434   8.445   2.319
  718POPC    CD37297  10.415   8.442   2.472
  718POPC    OE37298  10.506   8.351   2.540
  718POPC   C1A37299  10.624   8.396   2.582
  718POPC    OF37300  10.658   8.513   2.562
  718POPC   C1B37301  10.702   8.294   2.655
  718POPC   C1C37302  10.667   8.298   2.804
  718POPC   C1D37303  10.733   8.186   2.884
  718POPC   C1E37304  10.687   8.195   3.030
  718POPC   C1F37305  10.742   8.080   3.115
  718POPC   C1G37306  10.690   8.092   3.258
  718POPC   C1H37307  10.734   7.974   3.345
  718POPC   C1I37308  10.681   7.992   3.487
  718POPC   C1J37309  10.739   7.929   3.589
  718POPC   C1K37310  10.859   7.837   3.564
  718POPC   C1L37311  10.859   7.717   3.659
  718POPC   C1M37312  10.896   7.753   3.803
  718POPC   C1N37313  10.862   7.636   3.895
  718POPC   C1O37314  10.905   7.660   4.041
  718POPC   C1P37315  11.056   7.644   4.060
  718POPC   C1Q37316  11.091   7.653   4.209
  718POPC   C1R37317  11.240   7.627   4.231
  718POPC    CE37318  10.268   8.404   2.498
  718POPC    OG37319  10.174   8.512   2.505
  718POPC   C2A37320  10.049   8.477   2.533
  718POPC    OH37321  10.008   8.364   2.505
  718POPC   C2B37322   9.962   8.592   2.567
  718POPC   C2C37323   9.877   8.562   2.691
  718POPC   C2D37324   9.960   8.565   2.820
  718POPC   C2E37325   9.873   8.530   2.941
  718POPC   C2F37326   9.944   8.564   3.071
  718POPC   C2G37327   9.854   8.536   3.192
  718POPC   C2H37328   9.921   8.582   3.321
  718POPC   C2I37329   9.842   8.539   3.444
  718POPC   C2J37330   9.914   8.581   3.571
  718POPC   C2K37331   9.848   8.520   3.695
  718POPC   C2L37332   9.924   8.558   3.822
  718POPC   C2M37333   9.864   8.489   3.945
  718POPC   C2N37334   9.941   8.522   4.073
  718POPC   C2O37335  10.083   8.463   4.072
  718POPC   C2P37336  10.157   8.498   4.201
  719POPC   CN137337  10.325   9.045   2.377
  719POPC   CN237338  10.433   8.873   2.252
  719POPC   CN337339  10.243   8.821   2.384
  719POPC   NTM37340  10.302   8.924   2.297
  719POPC    CA37341  10.208   8.949   2.185
  719POPC    CB37342  10.232   9.065   2.086
  719POPC    OA37343  10.359   9.065   2.020
  719POPC     P37344  10.378   9.198   1.936
  719POPC    OB37345  10.505   9.180   1.865
  719POPC    OC37346  10.254   9.226   1.863
  719POPC    OD37347  10.399   9.305   2.048
  719POPC    CC37348  10.522   9.291   2.118
  719POPC    CD37349  10.575   9.421   2.180
  719POPC    OE37350  10.704   9.402   2.242
  719POPC   C1A37351  10.800   9.493   2.226
  719POPC    OF37352  10.792   9.576   2.135
  719POPC   C1B37353  10.920   9.464   2.307
  719POPC   C1C37354  10.911   9.531   2.444
  719POPC   C1D37355  11.025   9.483   2.534
  719POPC   C1E37356  11.022   9.560   2.666
  719POPC   C1F37357  11.125   9.505   2.764
  719POPC   C1G37358  11.122   9.588   2.893
  719POPC   C1H37359  11.209   9.525   3.002
  719POPC   C1I37360  11.211   9.618   3.124
  719POPC   C1J37361  11.210   9.569   3.248
  719POPC   C1K37362  11.203   9.418   3.273
  719POPC   C1L37363  11.286   9.377   3.395
  719POPC   C1M37364  11.233   9.433   3.527
  719POPC   C1N37365  11.330   9.402   3.640
  719POPC   C1O37366  11.283   9.461   3.773
  719POPC   C1P37367  11.386   9.430   3.882
  719POPC   C1Q37368  11.343   9.489   4.017
  719POPC   C1R37369  11.450   9.461   4.123
  719POPC    CE37370  10.463   9.477   2.271
  719POPC    OG37371  10.420   9.394   2.381
  719POPC   C2A37372  10.322   9.444   2.456
  719POPC    OH37373  10.268   9.552   2.429
  719POPC   C2B37374  10.298   9.360   2.576
  719POPC   C2C37375  10.271   9.442   2.702
  719POPC   C2D37376  10.306   9.360   2.827
  719POPC   C2E37377  10.286   9.442   2.954
  719POPC   C2F37378  10.348   9.370   3.074
  719POPC   C2G37379  10.326   9.449   3.203
  719POPC   C2H37380  10.404   9.387   3.319
  719POPC   C2I37381  10.370   9.456   3.451
  719POPC   C2J37382  10.456   9.403   3.566
  719POPC   C2K37383  10.404   9.456   3.700
  719POPC   C2L37384  10.492   9.416   3.818
  719POPC   C2M37385  10.621   9.499   3.823
  719POPC   C2N37386  10.707   9.467   3.946
  719POPC   C2O37387  10.777   9.330   3.939
  719POPC   C2P37388  10.889   9.329   3.834
  720POPC   CN137389  10.767  10.014   2.089
  720POPC   CN237390  10.867  10.208   2.186
  720POPC   CN337391  10.979  10.090   2.013
  720POPC   NTM37392  10.847  10.134   2.061
  720POPC    CA37393  10.785  10.217   1.956
  720POPC    CB37394  10.640  10.269   1.973
  720POPC    OA37395  10.616  10.350   2.088
  720POPC     P37396  10.474  10.416   2.091
  720POPC    OB37397  10.479  10.530   2.183
  720POPC    OC37398  10.424  10.430   1.953
  720POPC    OD37399  10.394  10.295   2.153
  720POPC    CC37400  10.393  10.302   2.296
  720POPC    CD37401  10.291  10.209   2.364
  720POPC    OE37402  10.267  10.237   2.505
  720POPC   C1A37403  10.181  10.333   2.540
  720POPC    OF37404  10.120  10.398   2.455
  720POPC   C1B37405  10.168  10.349   2.687
  720POPC   C1C37406  10.058  10.260   2.745
  720POPC   C1D37407  10.049  10.276   2.897
  720POPC   C1E37408   9.938  10.188   2.955
  720POPC   C1F37409   9.922  10.212   3.105
  720POPC   C1G37410   9.806  10.129   3.162
  720POPC   C1H37411   9.769  10.167   3.307
  720POPC   C1I37412   9.877  10.131   3.410
  720POPC   C1J37413   9.888  10.198   3.525
  720POPC   C1K37414   9.793  10.313   3.560
  720POPC   C1L37415   9.690  10.272   3.666
  720POPC   C1M37416   9.589  10.384   3.693
  720POPC   C1N37417   9.644  10.500   3.776
  720POPC   C1O37418   9.658  10.465   3.924
  720POPC   C1P37419   9.693  10.590   4.005
  720POPC   C1Q37420   9.694  10.560   4.155
  720POPC   C1R37421   9.721  10.687   4.236
  720POPC    CE37422  10.336  10.064   2.333
  720POPC    OG37423  10.471  10.031   2.372
  720POPC   C2A37424  10.510   9.905   2.360
  720POPC    OH37425  10.458   9.833   2.275
  720POPC   C2B37426  10.643   9.882   2.421
  720POPC   C2C37427  10.635   9.854   2.572
  720POPC   C2D37428  10.602   9.708   2.602
  720POPC   C2E37429  10.572   9.684   2.750
  720POPC   C2F37430  10.687   9.717   2.845
  720POPC   C2G37431  10.645   9.686   2.989
  720POPC   C2H37432  10.757   9.714   3.088
  720POPC   C2I37433  10.716   9.669   3.229
  720POPC   C2J37434  10.826   9.698   3.330
  720POPC   C2K37435  10.788   9.645   3.469
  720POPC   C2L37436  10.893   9.676   3.576
  720POPC   C2M37437  10.900   9.825   3.609
  720POPC   C2N37438  11.001   9.855   3.720
  720POPC   C2O37439  10.959   9.799   3.856
  720POPC   C2P37440  11.063   9.829   3.963
  721POPC   CN137441  11.141  10.838   2.361
  721POPC   CN237442  11.030  10.999   2.222
  721POPC   CN337443  11.262  11.020   2.270
  721POPC   NTM37444  11.155  10.924   2.243
  721POPC    CA37445  11.194  10.845   2.123
  721POPC    CB37446  11.110  10.724   2.076
  721POPC    OA37447  10.972  10.751   2.046
  721POPC     P37448  10.885  10.620   2.044
  721POPC    OB37449  10.757  10.657   1.981
  721POPC    OC37450  10.965  10.508   1.994
  721POPC    OD37451  10.868  10.605   2.199
  721POPC    CC37452  10.763  10.686   2.252
  721POPC    CD37453  10.730  10.665   2.401
  721POPC    OE37454  10.819  10.732   2.495
  721POPC   C1A37455  10.803  10.861   2.523
  721POPC    OF37456  10.758  10.939   2.438
  721POPC   C1B37457  10.874  10.902   2.647
  721POPC   C1C37458  10.801  11.015   2.720
  721POPC   C1D37459  10.871  11.047   2.852
  721POPC   C1E37460  10.801  11.162   2.925
  721POPC   C1F37461  10.864  11.183   3.063
  721POPC   C1G37462  10.797  11.300   3.136
  721POPC   C1H37463  10.852  11.311   3.278
  721POPC   C1I37464  10.790  11.430   3.352
  721POPC   C1J37465  10.771  11.424   3.483
  721POPC   C1K37466  10.808  11.297   3.560
  721POPC   C1L37467  10.733  11.284   3.693
  721POPC   C1M37468  10.783  11.384   3.798
  721POPC   C1N37469  10.708  11.368   3.930
  721POPC   C1O37470  10.766  11.461   4.036
  721POPC   C1P37471  10.692  11.446   4.169
  721POPC   C1Q37472  10.754  11.536   4.276
  721POPC   C1R37473  10.678  11.525   4.408
  721POPC    CE37474  10.715  10.513   2.416
  721POPC    OG37475  10.687  10.459   2.546
  721POPC   C2A37476  10.702  10.327   2.559
  721POPC    OH37477  10.731  10.255   2.463
  721POPC   C2B37478  10.689  10.280   2.699
  721POPC   C2C37479  10.549  10.227   2.731
  721POPC   C2D37480  10.546  10.157   2.867
  721POPC   C2E37481  10.567  10.254   2.984
  721POPC   C2F37482  10.587  10.177   3.115
  721POPC   C2G37483  10.611  10.271   3.233
  721POPC   C2H37484  10.482  10.339   3.281
  721POPC   C2I37485  10.514  10.448   3.383
  721POPC   C2J37486  10.388  10.507   3.448
  721POPC   C2K37487  10.331  10.414   3.555
  721POPC   C2L37488  10.209  10.479   3.622
  721POPC   C2M37489  10.158  10.398   3.742
  721POPC   C2N37490  10.256  10.401   3.860
  721POPC   C2O37491  10.205  10.321   3.981
  721POPC   C2P37492  10.081  10.385   4.045
  722POPC   CN137493  11.914  11.989   1.912
  722POPC   CN237494  11.752  11.834   1.837
  722POPC   CN337495  11.916  11.770   2.000
  722POPC   NTM37496  11.828  11.879   1.955
  722POPC    CA37497  11.740  11.929   2.064
  722POPC    CB37498  11.639  11.836   2.133
  722POPC    OA37499  11.534  11.787   2.049
  722POPC     P37500  11.505  11.634   2.067
  722POPC    OB37501  11.404  11.596   1.968
  722POPC    OC37502  11.635  11.566   2.072
  722POPC    OD37503  11.445  11.629   2.212
  722POPC    CC37504  11.312  11.680   2.222
  722POPC    CD37505  11.265  11.699   2.368
  722POPC    OE37506  11.121  11.721   2.380
  722POPC   C1A37507  11.053  11.633   2.453
  722POPC    OF37508  11.103  11.526   2.487
  722POPC   C1B37509  10.912  11.674   2.478
  722POPC   C1C37510  10.867  11.634   2.618
  722POPC   C1D37511  10.730  11.693   2.651
  722POPC   C1E37512  10.684  11.652   2.792
  722POPC   C1F37513  10.551  11.719   2.826
  722POPC   C1G37514  10.495  11.675   2.961
  722POPC   C1H37515  10.578  11.723   3.081
  722POPC   C1I37516  10.518  11.667   3.209
  722POPC   C1J37517  10.533  11.725   3.328
  722POPC   C1K37518  10.613  11.854   3.345
  722POPC   C1L37519  10.683  11.861   3.482
  722POPC   C1M37520  10.585  11.868   3.600
  722POPC   C1N37521  10.660  11.872   3.733
  722POPC   C1O37522  10.563  11.871   3.851
  722POPC   C1P37523  10.637  11.882   3.984
  722POPC   C1Q37524  10.539  11.880   4.101
  722POPC   C1R37525  10.612  11.901   4.234
  722POPC    CE37526  11.353  11.812   2.426
  722POPC    OG37527  11.329  11.848   2.563
  722POPC   C2A37528  11.386  11.961   2.606
  722POPC    OH37529  11.467  12.023   2.536
  722POPC   C2B37530  11.352  11.992   2.747
  722POPC   C2C37531  11.340  12.142   2.772
  722POPC   C2D37532  11.312  12.176   2.919
  722POPC   C2E37533  11.431  12.143   3.010
  722POPC   C2F37534  11.403  12.187   3.154
  722POPC   C2G37535  11.520  12.150   3.245
  722POPC   C2H37536  11.501  12.191   3.392
  722POPC   C2I37537  11.377  12.128   3.456
  722POPC   C2J37538  11.386  12.118   3.608
  722POPC   C2K37539  11.396  12.253   3.680
  722POPC   C2L37540  11.412  12.231   3.830
  722POPC   C2M37541  11.426  12.363   3.906
  722POPC   C2N37542  11.450  12.341   4.056
  722POPC   C2O37543  11.329  12.279   4.126
  722POPC   C2P37544  11.359  12.254   4.274
  723POPC   CN137545  11.001  12.042   1.832
  723POPC   CN237546  11.038  11.833   1.942
  723POPC   CN337547  11.025  11.844   1.706
  723POPC   NTM37548  11.073  11.915   1.825
  723POPC    CA37549  11.219  11.937   1.812
  723POPC    CB37550  11.304  11.989   1.931
  723POPC    OA37551  11.267  12.113   1.994
  723POPC     P37552  11.358  12.128   2.122
  723POPC    OB37553  11.317  12.014   2.205
  723POPC    OC37554  11.494  12.147   2.070
  723POPC    OD37555  11.301  12.260   2.182
  723POPC    CC37556  11.350  12.275   2.315
  723POPC    CD37557  11.288  12.394   2.391
  723POPC    OE37558  11.350  12.420   2.520
  723POPC   C1A37559  11.465  12.486   2.528
  723POPC    OF37560  11.512  12.544   2.429
  723POPC   C1B37561  11.516  12.492   2.667
  723POPC   C1C37562  11.665  12.461   2.677
  723POPC   C1D37563  11.711  12.439   2.821
  723POPC   C1E37564  11.693  12.561   2.912
  723POPC   C1F37565  11.749  12.531   3.051
  723POPC   C1G37566  11.729  12.648   3.148
  723POPC   C1H37567  11.796  12.614   3.281
  723POPC   C1I37568  11.774  12.723   3.387
  723POPC   C1J37569  11.782  12.688   3.516
  723POPC   C1K37570  11.812  12.542   3.550
  723POPC   C1L37571  11.768  12.501   3.691
  723POPC   C1M37572  11.858  12.559   3.800
  723POPC   C1N37573  11.823  12.499   3.936
  723POPC   C1O37574  11.915  12.552   4.045
  723POPC   C1P37575  11.883  12.487   4.180
  723POPC   C1Q37576  11.979  12.535   4.288
  723POPC   C1R37577  11.949  12.466   4.422
  723POPC    CE37578  11.137  12.367   2.398
  723POPC    OG37579  11.097  12.250   2.472
  723POPC   C2A37580  10.967  12.222   2.474
  723POPC    OH37581  10.890  12.272   2.391
  723POPC   C2B37582  10.932  12.112   2.566
  723POPC   C2C37583  10.891  12.165   2.704
  723POPC   C2D37584  10.845  12.049   2.793
  723POPC   C2E37585  10.789  12.096   2.927
  723POPC   C2F37586  10.897  12.138   3.027
  723POPC   C2G37587  10.831  12.179   3.159
  723POPC   C2H37588  10.933  12.197   3.271
  723POPC   C2I37589  10.860  12.233   3.400
  723POPC   C2J37590  10.952  12.230   3.522
  723POPC   C2K37591  10.869  12.252   3.649
  723POPC   C2L37592  10.952  12.233   3.776
  723POPC   C2M37593  10.862  12.249   3.899
  723POPC   C2N37594  10.941  12.228   4.028
  723POPC   C2O37595  10.849  12.244   4.149
  723POPC   C2P37596  10.927  12.229   4.280
  724POPC   CN137597  10.358  12.216   2.151
  724POPC   CN237598  10.401  12.415   2.273
  724POPC   CN337599  10.576  12.257   2.234
  724POPC   NTM37600  10.458  12.321   2.175
  724POPC    CA37601  10.486  12.386   2.045
  724POPC    CB37602  10.599  12.491   2.028
  724POPC    OA37603  10.597  12.601   2.118
  724POPC     P37604  10.692  12.717   2.069
  724POPC    OB37605  10.819  12.651   2.042
  724POPC    OC37606  10.617  12.782   1.961
  724POPC    OD37607  10.687  12.796   2.204
  724POPC    CC37608  10.808  12.782   2.279
  724POPC    CD37609  10.786  12.767   2.431
  724POPC    OE37610  10.897  12.808   2.515
  724POPC   C1A37611  11.016  12.748   2.513
  724POPC    OF37612  11.045  12.668   2.424
  724POPC   C1B37613  11.110  12.801   2.616
  724POPC   C1C37614  11.086  12.738   2.754
  724POPC   C1D37615  11.124  12.589   2.757
  724POPC   C1E37616  11.093  12.523   2.892
  724POPC   C1F37617  11.173  12.583   3.008
  724POPC   C1G37618  11.149  12.501   3.135
  724POPC   C1H37619  11.221  12.556   3.258
  724POPC   C1I37620  11.151  12.679   3.316
  724POPC   C1J37621  11.142  12.691   3.448
  724POPC   C1K37622  11.203  12.583   3.537
  724POPC   C1L37623  11.224  12.628   3.682
  724POPC   C1M37624  11.094  12.633   3.762
  724POPC   C1N37625  11.122  12.662   3.909
  724POPC   C1O37626  10.995  12.653   3.993
  724POPC   C1P37627  11.027  12.672   4.142
  724POPC   C1Q37628  10.902  12.655   4.227
  724POPC   C1R37629  10.934  12.672   4.376
  724POPC    CE37630  10.729  12.625   2.451
  724POPC    OG37631  10.644  12.610   2.567
  724POPC   C2A37632  10.597  12.489   2.594
  724POPC    OH37633  10.615  12.395   2.516
  724POPC   C2B37634  10.506  12.484   2.711
  724POPC   C2C37635  10.575  12.458   2.845
  724POPC   C2D37636  10.635  12.585   2.905
  724POPC   C2E37637  10.674  12.562   3.051
  724POPC   C2F37638  10.713  12.694   3.117
  724POPC   C2G37639  10.734  12.677   3.267
  724POPC   C2H37640  10.761  12.813   3.332
  724POPC   C2I37641  10.781  12.805   3.484
  724POPC   C2J37642  10.653  12.767   3.559
  724POPC   C2K37643  10.681  12.760   3.709
  724POPC   C2L37644  10.557  12.711   3.784
  724POPC   C2M37645  10.588  12.687   3.933
  724POPC   C2N37646  10.598  12.816   4.014
  724POPC   C2O37647  10.462  12.880   4.043
  724POPC   C2P37648  10.377  12.795   4.138
  725POPC   CN137649  10.596  13.173   1.940
  725POPC   CN237650  10.453  13.285   2.093
  725POPC   CN337651  10.559  13.084   2.159
  725POPC   NTM37652  10.577  13.207   2.082
  725POPC    CA37653  10.688  13.287   2.138
  725POPC    CB37654  10.835  13.246   2.114
  725POPC    OA37655  10.871  13.111   2.145
  725POPC     P37656  11.007  13.068   2.079
  725POPC    OB37657  11.027  12.925   2.100
  725POPC    OC37658  11.009  13.127   1.943
  725POPC    OD37659  11.104  13.154   2.170
  725POPC    CC37660  11.145  13.077   2.284
  725POPC    CD37661  11.217  13.159   2.393
  725POPC    OE37662  11.308  13.080   2.474
  725POPC   C1A37663  11.433  13.057   2.433
  725POPC    OF37664  11.482  13.125   2.342
  725POPC   C1B37665  11.499  12.950   2.511
  725POPC   C1C37666  11.634  12.990   2.570
  725POPC   C1D37667  11.697  12.865   2.631
  725POPC   C1E37668  11.837  12.887   2.689
  725POPC   C1F37669  11.838  12.961   2.822
  725POPC   C1G37670  11.979  12.958   2.879
  725POPC   C1H37671  11.991  13.024   3.016
  725POPC   C1I37672  12.135  13.010   3.066
  725POPC   C1J37673  12.167  13.025   3.194
  725POPC   C1K37674  12.062  13.059   3.300
  725POPC   C1L37675  12.109  13.015   3.438
  725POPC   C1M37676  12.008  13.052   3.546
  725POPC   C1N37677  12.055  13.003   3.683
  725POPC   C1O37678  11.952  13.035   3.791
  725POPC   C1P37679  11.997  12.978   3.926
  725POPC   C1Q37680  11.896  13.009   4.036
  725POPC   C1R37681  11.938  12.946   4.169
  725POPC    CE37682  11.107  13.234   2.471
  725POPC    OG37683  11.005  13.152   2.529
  725POPC   C2A37684  10.926  13.207   2.621
  725POPC    OH37685  10.929  13.328   2.643
  725POPC   C2B37686  10.826  13.112   2.677
  725POPC   C2C37687  10.801  13.131   2.827
  725POPC   C2D37688  10.914  13.075   2.915
  725POPC   C2E37689  10.885  13.091   3.064
  725POPC   C2F37690  10.900  13.237   3.110
  725POPC   C2G37691  10.852  13.262   3.253
  725POPC   C2H37692  10.931  13.186   3.360
  725POPC   C2I37693  10.887  13.229   3.501
  725POPC   C2J37694  10.956  13.142   3.606
  725POPC   C2K37695  10.926  13.187   3.749
  725POPC   C2L37696  10.998  13.095   3.848
  725POPC   C2M37697  10.982  13.140   3.994
  725POPC   C2N37698  10.838  13.128   4.043
  725POPC   C2O37699  10.823  13.170   4.190
  725POPC   C2P37700  10.893  13.074   4.286
  726POPC   CN137701  11.235  14.297   2.370
  726POPC   CN237702  11.195  14.521   2.300
  726POPC   CN337703  11.365  14.391   2.195
  726POPC   NTM37704  11.230  14.386   2.254
  726POPC    CA37705  11.137  14.338   2.149
  726POPC    CB37706  10.986  14.317   2.180
  726POPC    OA37707  10.956  14.212   2.272
  726POPC     P37708  10.806  14.216   2.321
  726POPC    OB37709  10.726  14.254   2.204
  726POPC    OC37710  10.783  14.087   2.387
  726POPC    OD37711  10.824  14.335   2.421
  726POPC    CC37712  10.877  14.295   2.548
  726POPC    CD37713  10.915  14.417   2.633
  726POPC    OE37714  11.017  14.389   2.733
  726POPC   C1A37715  11.142  14.427   2.712
  726POPC    OF37716  11.171  14.507   2.623
  726POPC   C1B37717  11.236  14.378   2.816
  726POPC   C1C37718  11.251  14.481   2.928
  726POPC   C1D37719  11.353  14.441   3.035
  726POPC   C1E37720  11.306  14.321   3.119
  726POPC   C1F37721  11.401  14.294   3.237
  726POPC   C1G37722  11.397  14.408   3.339
  726POPC   C1H37723  11.495  14.385   3.454
  726POPC   C1I37724  11.491  14.504   3.551
  726POPC   C1J37725  11.598  14.540   3.621
  726POPC   C1K37726  11.730  14.463   3.611
  726POPC   C1L37727  11.805  14.471   3.744
  726POPC   C1M37728  11.936  14.392   3.741
  726POPC   C1N37729  12.004  14.400   3.878
  726POPC   C1O37730  12.134  14.320   3.881
  726POPC   C1P37731  12.201  14.324   4.019
  726POPC   C1Q37732  12.119  14.253   4.127
  726POPC   C1R37733  12.186  14.263   4.264
  726POPC    CE37734  10.784  14.483   2.681
  726POPC    OG37735  10.698  14.407   2.768
  726POPC   C2A37736  10.596  14.473   2.823
  726POPC    OH37737  10.579  14.593   2.804
  726POPC   C2B37738  10.512  14.391   2.914
  726POPC   C2C37739  10.545  14.420   3.060
  726POPC   C2D37740  10.442  14.357   3.154
  726POPC   C2E37741  10.478  14.388   3.299
  726POPC   C2F37742  10.370  14.343   3.398
  726POPC   C2G37743  10.415  14.375   3.541
  726POPC   C2H37744  10.308  14.350   3.647
  726POPC   C2I37745  10.190  14.448   3.636
  726POPC   C2J37746  10.101  14.439   3.759
  726POPC   C2K37747   9.982  14.536   3.749
  726POPC   C2L37748   9.905  14.548   3.881
  726POPC   C2M37749   9.834  14.420   3.927
  726POPC   C2N37750   9.716  14.383   3.837
  726POPC   C2O37751   9.644  14.256   3.885
  726POPC   C2P37752   9.732  14.131   3.874
  727POPC   CN137753  10.370  16.108   1.842
  727POPC   CN237754  10.232  16.102   1.649
  727POPC   CN337755  10.385  16.280   1.679
  727POPC   NTM37756  10.366  16.136   1.698
  727POPC    CA37757  10.465  16.054   1.625
  727POPC    CB37758  10.617  16.077   1.645
  727POPC    OA37759  10.668  16.055   1.776
  727POPC     P37760  10.812  16.118   1.787
  727POPC    OB37761  10.890  16.060   1.676
  727POPC    OC37762  10.788  16.262   1.799
  727POPC    OD37763  10.843  16.048   1.924
  727POPC    CC37764  10.795  16.122   2.036
  727POPC    CD37765  10.772  16.041   2.165
  727POPC    OE37766  10.721  16.120   2.275
  727POPC   C1A37767  10.594  16.159   2.278
  727POPC    OF37768  10.518  16.129   2.185
  727POPC   C1B37769  10.559  16.237   2.399
  727POPC   C1C37770  10.410  16.228   2.432
  727POPC   C1D37771  10.372  16.294   2.565
  727POPC   C1E37772  10.428  16.217   2.685
  727POPC   C1F37773  10.367  16.267   2.816
  727POPC   C1G37774  10.420  16.187   2.935
  727POPC   C1H37775  10.343  16.224   3.062
  727POPC   C1I37776  10.401  16.152   3.185
  727POPC   C1J37777  10.321  16.116   3.285
  727POPC   C1K37778  10.171  16.143   3.280
  727POPC   C1L37779  10.097  16.052   3.379
  727POPC   C1M37780   9.945  16.069   3.375
  727POPC   C1N37781   9.884  16.011   3.246
  727POPC   C1O37782   9.732  16.027   3.247
  727POPC   C1P37783   9.666  15.970   3.121
  727POPC   C1Q37784   9.705  16.046   2.993
  727POPC   C1R37785   9.641  15.983   2.870
  727POPC    CE37786  10.905  15.968   2.194
  727POPC    OG37787  10.899  15.874   2.304
  727POPC   C2A37788  11.006  15.799   2.326
  727POPC    OH37789  11.106  15.804   2.254
  727POPC   C2B37790  10.994  15.715   2.447
  727POPC   C2C37791  11.077  15.778   2.560
  727POPC   C2D37792  11.070  15.697   2.689
  727POPC   C2E37793  11.163  15.762   2.792
  727POPC   C2F37794  11.161  15.690   2.927
  727POPC   C2G37795  11.264  15.754   3.019
  727POPC   C2H37796  11.273  15.685   3.156
  727POPC   C2I37797  11.389  15.747   3.234
  727POPC   C2J37798  11.406  15.684   3.372
  727POPC   C2K37799  11.523  15.752   3.444
  727POPC   C2L37800  11.539  15.700   3.587
  727POPC   C2M37801  11.647  15.779   3.660
  727POPC   C2N37802  11.655  15.740   3.808
  727POPC   C2O37803  11.757  15.824   3.884
  727POPC   C2P37804  11.715  15.971   3.895
  728POPC   CN137805  10.683  16.913   1.788
  728POPC   CN237806  10.697  16.913   1.549
  728POPC   CN337807  10.659   0.131   1.665
  728POPC   NTM37808  10.731   0.004   1.671
  728POPC    CA37809  10.877   0.031   1.675
  728POPC    CB37810  10.976  16.902   1.714
  728POPC    OA37811  10.955  16.772   1.656
  728POPC     P37812  11.052  16.667   1.722
  728POPC    OB37813  11.034  16.541   1.648
  728POPC    OC37814  11.184  16.726   1.739
  728POPC    OD37815  10.987  16.656   1.865
  728POPC    CC37816  10.873  16.571   1.871
  728POPC    CD37817  10.827  16.535   2.014
  728POPC    OE37818  10.775  16.647   2.092
  728POPC   C1A37819  10.678  16.616   2.178
  728POPC    OF37820  10.587  16.541   2.140
  728POPC   C1B37821  10.666  16.710   2.292
  728POPC   C1C37822  10.667  16.634   2.424
  728POPC   C1D37823  10.637  16.729   2.541
  728POPC   C1E37824  10.636  16.657   2.677
  728POPC   C1F37825  10.777  16.623   2.726
  728POPC   C1G37826  10.775  16.554   2.863
  728POPC   C1H37827  10.718  16.643   2.974
  728POPC   C1I37828  10.717  16.569   3.108
  728POPC   C1J37829  10.713  16.635   3.223
  728POPC   C1K37830  10.708  16.789   3.227
  728POPC   C1L37831  10.783  16.847   3.348
  728POPC   C1M37832  10.720  16.814   3.484
  728POPC   C1N37833  10.591  16.892   3.510
  728POPC   C1O37834  10.532  16.853   3.645
  728POPC   C1P37835  10.411  16.938   3.685
  728POPC   C1Q37836  10.290  16.918   3.592
  728POPC   C1R37837  10.172   0.021   3.638
  728POPC    CE37838  10.950  16.469   2.078
  728POPC    OG37839  10.930  16.418   2.210
  728POPC   C2A37840  11.040  16.392   2.280
  728POPC    OH37841  11.147  16.449   2.253
  728POPC   C2B37842  11.013  16.321   2.407
  728POPC   C2C37843  11.132  16.235   2.452
  728POPC   C2D37844  11.114  16.173   2.591
  728POPC   C2E37845  11.102  16.280   2.700
  728POPC   C2F37846  11.106  16.224   2.842
  728POPC   C2G37847  10.990  16.129   2.874
  728POPC   C2H37848  10.988  16.091   3.022
  728POPC   C2I37849  10.943  16.208   3.109
  728POPC   C2J37850  10.944  16.174   3.258
  728POPC   C2K37851  10.887  16.292   3.337
  728POPC   C2L37852  10.891  16.269   3.488
  728POPC   C2M37853  10.827  16.388   3.558
  728POPC   C2N37854  10.839  16.377   3.710
  728POPC   C2O37855  10.775  16.498   3.778
  728POPC   C2P37856  10.793  16.491   3.930
  729POPC   CN137857  12.143   0.263   1.881
  729POPC   CN237858  12.043   0.272   2.097
  729POPC   CN337859  11.906   0.263   1.903
  729POPC   NTM37860  12.031   0.214   1.962
  729POPC    CA37861  12.025   0.066   1.967
  729POPC    CB37862  12.148  16.966   2.012
  729POPC    OA37863  12.205   0.024   2.137
  729POPC     P37864  12.312  16.907   2.191
  729POPC    OB37865  12.389  16.854   2.078
  729POPC    OC37866  12.378   0.003   2.296
  729POPC    OD37867  12.213  16.800   2.247
  729POPC    CC37868  12.148  16.841   2.367
  729POPC    CD37869  12.010  16.775   2.387
  729POPC    OE37870  11.930  16.840   2.490
  729POPC   C1A37871  11.799  16.816   2.495
  729POPC    OF37872  11.741  16.764   2.399
  729POPC   C1B37873  11.735  16.866   2.618
  729POPC   C1C37874  11.677   0.023   2.601
  729POPC   C1D37875  11.619   0.069   2.735
  729POPC   C1E37876  11.570   0.214   2.729
  729POPC   C1F37877  11.531   0.261   2.869
  729POPC   C1G37878  11.486   0.406   2.869
  729POPC   C1H37879  11.474   0.458   3.012
  729POPC   C1I37880  11.434   0.605   3.016
  729POPC   C1J37881  11.483   0.685   3.110
  729POPC   C1K37882  11.584   0.633   3.213
  729POPC   C1L37883  11.536   0.648   3.358
  729POPC   C1M37884  11.429   0.545   3.395
  729POPC   C1N37885  11.384   0.560   3.540
  729POPC   C1O37886  11.279   0.454   3.573
  729POPC   C1P37887  11.224   0.469   3.715
  729POPC   C1Q37888  11.329   0.439   3.823
  729POPC   C1R37889  11.267   0.453   3.962
  729POPC    CE37890  12.038  16.625   2.408
  729POPC    OG37891  12.115  16.592   2.525
  729POPC   C2A37892  12.137  16.464   2.550
  729POPC    OH37893  12.096  16.376   2.474
  729POPC   C2B37894  12.208  16.437   2.679
  729POPC   C2C37895  12.171  16.533   2.793
  729POPC   C2D37896  12.226  16.483   2.926
  729POPC   C2E37897  12.201  16.582   3.040
  729POPC   C2F37898  12.235  16.518   3.174
  729POPC   C2G37899  12.220  16.616   3.291
  729POPC   C2H37900  12.248  16.544   3.423
  729POPC   C2I37901  12.253  16.639   3.544
  729POPC   C2J37902  12.118  16.705   3.573
  729POPC   C2K37903  12.126  16.800   3.693
  729POPC   C2L37904  12.214  16.923   3.665
  729POPC   C2M37905  12.213   0.036   3.784
  729POPC   C2N37906  12.288   0.166   3.754
  729POPC   C2O37907  12.440   0.150   3.748
  729POPC   C2P37908  12.501   0.124   3.887
  730POPC   CN137909  11.554   1.492   1.799
  730POPC   CN237910  11.502   1.263   1.749
  730POPC   CN337911  11.556   1.418   1.575
  730POPC   NTM37912  11.587   1.378   1.713
  730POPC    CA37913  11.731   1.346   1.720
  730POPC    CB37914  11.797   1.285   1.847
  730POPC    OA37915  11.770   1.348   1.973
  730POPC     P37916  11.892   1.328   2.071
  730POPC    OB37917  12.016   1.342   1.993
  730POPC    OC37918  11.855   1.420   2.180
  730POPC    OD37919  11.859   1.178   2.106
  730POPC    CC37920  11.778   1.161   2.222
  730POPC    CD37921  11.705   1.025   2.229
  730POPC    OE37922  11.602   1.016   2.332
  730POPC   C1A37923  11.480   1.067   2.313
  730POPC    OF37924  11.450   1.113   2.202
  730POPC   C1B37925  11.384   1.048   2.424
  730POPC   C1C37926  11.444   1.062   2.565
  730POPC   C1D37927  11.339   1.043   2.674
  730POPC   C1E37928  11.404   1.057   2.812
  730POPC   C1F37929  11.302   1.050   2.926
  730POPC   C1G37930  11.370   1.074   3.061
  730POPC   C1H37931  11.273   1.073   3.179
  730POPC   C1I37932  11.223   0.932   3.215
  730POPC   C1J37933  11.191   0.904   3.341
  730POPC   C1K37934  11.201   1.013   3.448
  730POPC   C1L37935  11.105   0.992   3.566
  730POPC   C1M37936  11.147   0.874   3.655
  730POPC   C1N37937  11.054   0.855   3.775
  730POPC   C1O37938  10.914   0.808   3.734
  730POPC   C1P37939  10.822   0.786   3.855
  730POPC   C1Q37940  10.789   0.917   3.928
  730POPC   C1R37941  10.690   0.893   4.042
  730POPC    CE37942  11.812   0.915   2.234
  730POPC    OG37943  11.911   0.926   2.339
  730POPC   C2A37944  12.004   0.831   2.345
  730POPC    OH37945  11.999   0.730   2.274
  730POPC   C2B37946  12.104   0.858   2.451
  730POPC   C2C37947  12.166   0.732   2.510
  730POPC   C2D37948  12.259   0.771   2.624
  730POPC   C2E37949  12.324   0.649   2.691
  730POPC   C2F37950  12.407   0.692   2.812
  730POPC   C2G37951  12.534   0.768   2.772
  730POPC   C2H37952  12.581   0.863   2.882
  730POPC   C2I37953  12.620   0.794   3.013
  730POPC   C2J37954  12.664   0.899   3.115
  730POPC   C2K37955  12.704   0.834   3.247
  730POPC   C2L37956  12.756   0.939   3.345
  730POPC   C2M37957  12.803   0.877   3.477
  730POPC   C2N37958  12.686   0.818   3.557
  730POPC   C2O37959  12.732   0.754   3.688
  730POPC   C2P37960  12.787   0.856   3.788
  731POPC   CN137961  12.437   0.656   1.616
  731POPC   CN237962  12.307   0.661   1.813
  731POPC   CN337963  12.412   0.860   1.733
  731POPC   NTM37964  12.342   0.737   1.693
  731POPC    CA37965  12.224   0.765   1.607
  731POPC    CB37966  12.114   0.863   1.656
  731POPC    OA37967  12.047   0.827   1.777
  731POPC     P37968  11.974   0.951   1.843
  731POPC    OB37969  11.910   1.023   1.731
  731POPC    OC37970  11.888   0.889   1.944
  731POPC    OD37971  12.102   1.019   1.902
  731POPC    CC37972  12.137   0.959   2.027
  731POPC    CD37973  12.274   1.001   2.079
  731POPC    OE37974  12.326   0.911   2.181
  731POPC   C1A37975  12.452   0.871   2.173
  731POPC    OF37976  12.515   0.879   2.067
  731POPC   C1B37977  12.501   0.810   2.299
  731POPC   C1C37978  12.625   0.882   2.352
  731POPC   C1D37979  12.601   1.029   2.389
  731POPC   C1E37980  12.734   1.104   2.407
  731POPC   C1F37981  12.815   1.056   2.529
  731POPC   C1G37982  12.766   1.120   2.660
  731POPC   C1H37983  12.813   1.265   2.677
  731POPC   C1I37984  12.964   1.273   2.704
  731POPC   C1J37985  13.015   1.373   2.775
  731POPC   C1K37986  12.927   1.485   2.829
  731POPC   C1L37987  12.977   1.537   2.965
  731POPC   C1M37988  12.939   1.447   3.083
  731POPC   C1N37989  12.790   1.458   3.116
  731POPC   C1O37990  12.754   1.376   3.240
  731POPC   C1P37991  12.611   1.407   3.284
  731POPC   C1Q37992  12.576   1.330   3.412
  731POPC   C1R37993  12.440   1.375   3.466
  731POPC    CE37994  12.261   1.148   2.122
  731POPC    OG37995  12.175   1.170   2.234
  731POPC   C2A37996  12.188   1.285   2.299
  731POPC    OH37997  12.274   1.368   2.266
  731POPC   C2B37998  12.101   1.294   2.418
  731POPC   C2C37999  12.173   1.238   2.541
  731POPC   C2D38000  12.082   1.240   2.664
  731POPC   C2E38001  12.143   1.170   2.785
  731POPC   C2F38002  12.264   1.245   2.843
  731POPC   C2G38003  12.323   1.172   2.964
  731POPC   C2H38004  12.228   1.174   3.085
  731POPC   C2I38005  12.285   1.091   3.200
  731POPC   C2J38006  12.193   1.099   3.322
  731POPC   C2K38007  12.249   1.016   3.438
  731POPC   C2L38008  12.164   1.036   3.564
  731POPC   C2M38009  12.215   0.952   3.682
  731POPC   C2N38010  12.352   0.996   3.736
  731POPC   C2O38011  12.348   1.131   3.806
  731POPC   C2P38012  12.486   1.168   3.862
  732POPC   CN138013  12.419   1.589   1.978
  732POPC   CN238014  12.642   1.676   1.972
  732POPC   CN338015  12.608   1.446   2.006
  732POPC   NTM38016  12.557   1.563   1.933
  732POPC    CA38017  12.564   1.534   1.788
  732POPC    CB38018  12.501   1.632   1.684
  732POPC    OA38019  12.542   1.768   1.695
  732POPC     P38020  12.479   1.862   1.585
  732POPC    OB38021  12.547   1.992   1.585
  732POPC    OC38022  12.459   1.788   1.460
  732POPC    OD38023  12.334   1.879   1.643
  732POPC    CC38024  12.330   1.964   1.758
  732POPC    CD38025  12.191   2.021   1.791
  732POPC    OE38026  12.198   2.125   1.892
  732POPC   C1A38027  12.091   2.201   1.915
  732POPC    OF38028  12.013   2.221   1.822
  732POPC   C1B38029  12.097   2.276   2.042
  732POPC   C1C38030  12.050   2.188   2.159
  732POPC   C1D38031  12.062   2.260   2.293
  732POPC   C1E38032  12.019   2.167   2.407
  732POPC   C1F38033  12.022   2.237   2.543
  732POPC   C1G38034  11.973   2.140   2.652
  732POPC   C1H38035  11.976   2.201   2.792
  732POPC   C1I38036  11.934   2.095   2.894
  732POPC   C1J38037  11.897   2.124   3.018
  732POPC   C1K38038  11.895   2.267   3.073
  732POPC   C1L38039  11.809   2.272   3.199
  732POPC   C1M38040  11.811   2.409   3.267
  732POPC   C1N38041  11.725   2.408   3.393
  732POPC   C1O38042  11.728   2.541   3.469
  732POPC   C1P38043  11.865   2.568   3.533
  732POPC   C1Q38044  11.864   2.701   3.607
  732POPC   C1R38045  12.001   2.730   3.670
  732POPC    CE38046  12.098   1.902   1.822
  732POPC    OG38047  12.134   1.822   1.937
  732POPC   C2A38048  12.044   1.735   1.980
  732POPC    OH38049  11.944   1.706   1.913
  732POPC   C2B38050  12.080   1.672   2.109
  732POPC   C2C38051  12.022   1.749   2.228
  732POPC   C2D38052  12.053   1.674   2.357
  732POPC   C2E38053  12.000   1.744   2.483
  732POPC   C2F38054  12.037   1.659   2.604
  732POPC   C2G38055  11.990   1.718   2.737
  732POPC   C2H38056  12.030   1.623   2.850
  732POPC   C2I38057  11.993   1.677   2.988
  732POPC   C2J38058  12.041   1.579   3.096
  732POPC   C2K38059  12.010   1.632   3.236
  732POPC   C2L38060  12.055   1.532   3.343
  732POPC   C2M38061  12.019   1.583   3.482
  732POPC   C2N38062  12.058   1.481   3.590
  732POPC   C2O38063  12.021   1.529   3.731
  732POPC   C2P38064  11.869   1.536   3.753
  733POPC   CN138065  11.979   4.543   1.716
  733POPC   CN238066  12.144   4.444   1.854
  733POPC   CN338067  11.912   4.386   1.879
  733POPC   NTM38068  12.018   4.419   1.782
  733POPC    CA38069  12.037   4.315   1.678
  733POPC    CB38070  12.067   4.167   1.715
  733POPC    OA38071  11.958   4.091   1.768
  733POPC     P38072  12.007   3.944   1.798
  733POPC    OB38073  12.052   3.896   1.666
  733POPC    OC38074  12.096   3.964   1.914
  733POPC    OD38075  11.867   3.887   1.838
  733POPC    CC38076  11.832   3.918   1.972
  733POPC    CD38077  11.686   3.887   2.012
  733POPC    OE38078  11.636   3.968   2.122
  733POPC   C1A38079  11.597   4.093   2.101
  733POPC    OF38080  11.614   4.148   1.992
  733POPC   C1B38081  11.554   4.160   2.226
  733POPC   C1C38082  11.423   4.239   2.212
  733POPC   C1D38083  11.391   4.320   2.339
  733POPC   C1E38084  11.371   4.232   2.463
  733POPC   C1F38085  11.344   4.317   2.587
  733POPC   C1G38086  11.326   4.227   2.709
  733POPC   C1H38087  11.292   4.307   2.835
  733POPC   C1I38088  11.268   4.210   2.952
  733POPC   C1J38089  11.276   4.247   3.079
  733POPC   C1K38090  11.305   4.392   3.120
  733POPC   C1L38091  11.245   4.418   3.258
  733POPC   C1M38092  11.269   4.562   3.304
  733POPC   C1N38093  11.205   4.590   3.441
  733POPC   C1O38094  11.274   4.513   3.555
  733POPC   C1P38095  11.207   4.542   3.689
  733POPC   C1Q38096  11.274   4.469   3.806
  733POPC   C1R38097  11.415   4.522   3.835
  733POPC    CE38098  11.676   3.735   2.030
  733POPC    OG38099  11.766   3.677   2.125
  733POPC   C2A38100  11.759   3.545   2.144
  733POPC    OH38101  11.668   3.478   2.094
  733POPC   C2B38102  11.863   3.495   2.236
  733POPC   C2C38103  11.815   3.478   2.380
  733POPC   C2D38104  11.935   3.447   2.470
  733POPC   C2E38105  11.898   3.374   2.599
  733POPC   C2F38106  11.817   3.456   2.699
  733POPC   C2G38107  11.785   3.367   2.820
  733POPC   C2H38108  11.694   3.433   2.924
  733POPC   C2I38109  11.765   3.539   3.009
  733POPC   C2J38110  11.675   3.589   3.122
  733POPC   C2K38111  11.645   3.479   3.225
  733POPC   C2L38112  11.538   3.519   3.327
  733POPC   C2M38113  11.585   3.627   3.425
  733POPC   C2N38114  11.474   3.657   3.526
  733POPC   C2O38115  11.519   3.761   3.629
  733POPC   C2P38116  11.406   3.793   3.726
  734POPC   CN138117  11.819   5.270   1.803
  734POPC   CN238118  11.617   5.291   1.679
  734POPC   CN338119  11.812   5.401   1.605
  734POPC   NTM38120  11.763   5.279   1.668
  734POPC    CA38121  11.800   5.163   1.584
  734POPC    CB38122  11.783   5.018   1.636
  734POPC    OA38123  11.653   4.979   1.681
  734POPC     P38124  11.665   4.832   1.735
  734POPC    OB38125  11.702   4.750   1.619
  734POPC    OC38126  11.750   4.838   1.855
  734POPC    OD38127  11.515   4.803   1.773
  734POPC    CC38128  11.475   4.870   1.893
  734POPC    CD38129  11.363   4.796   1.968
  734POPC    OE38130  11.296   4.875   2.071
  734POPC   C1A38131  11.168   4.851   2.098
  734POPC    OF38132  11.099   4.785   2.020
  734POPC   C1B38133  11.116   4.928   2.214
  734POPC   C1C38134  11.077   4.839   2.333
  734POPC   C1D38135  11.198   4.775   2.402
  734POPC   C1E38136  11.160   4.691   2.524
  734POPC   C1F38137  11.107   4.775   2.640
  734POPC   C1G38138  11.077   4.686   2.761
  734POPC   C1H38139  11.026   4.768   2.881
  734POPC   C1I38140  11.008   4.677   3.003
  734POPC   C1J38141  10.922   4.707   3.100
  734POPC   C1K38142  10.839   4.835   3.099
  734POPC   C1L38143  10.706   4.814   3.172
  734POPC   C1M38144  10.628   4.945   3.193
  734POPC   C1N38145  10.698   5.039   3.292
  734POPC   C1O38146  10.619   5.168   3.317
  734POPC   C1P38147  10.491   5.143   3.397
  734POPC   C1Q38148  10.420   5.274   3.431
  734POPC   C1R38149  10.291   5.248   3.508
  734POPC    CE38150  11.427   4.665   2.016
  734POPC    OG38151  11.545   4.679   2.097
  734POPC   C2A38152  11.635   4.581   2.096
  734POPC    OH38153  11.626   4.486   2.017
  734POPC   C2B38154  11.747   4.604   2.189
  734POPC   C2C38155  11.711   4.555   2.329
  734POPC   C2D38156  11.824   4.579   2.430
  734POPC   C2E38157  11.777   4.538   2.570
  734POPC   C2F38158  11.885   4.561   2.675
  734POPC   C2G38159  11.834   4.530   2.816
  734POPC   C2H38160  11.729   4.632   2.862
  734POPC   C2I38161  11.663   4.598   2.996
  734POPC   C2J38162  11.761   4.598   3.114
  734POPC   C2K38163  11.684   4.590   3.245
  734POPC   C2L38164  11.778   4.579   3.365
  734POPC   C2M38165  11.700   4.592   3.496
  734POPC   C2N38166  11.786   4.568   3.620
  734POPC   C2O38167  11.898   4.670   3.637
  734POPC   C2P38168  11.974   4.646   3.768
  735POPC   CN138169  11.435   5.342   1.098
  735POPC   CN238170  11.260   5.217   1.000
  735POPC   CN338171  11.313   5.185   1.230
  735POPC   NTM38172  11.302   5.285   1.123
  735POPC    CA38173  11.200   5.388   1.154
  735POPC    CB38174  11.221   5.488   1.271
  735POPC    OA38175  11.239   5.433   1.402
  735POPC     P38176  11.353   5.513   1.475
  735POPC    OB38177  11.478   5.473   1.408
  735POPC    OC38178  11.308   5.653   1.468
  735POPC    OD38179  11.337   5.453   1.619
  735POPC    CC38180  11.258   5.538   1.703
  735POPC    CD38181  11.227   5.484   1.843
  735POPC    OE38182  11.152   5.580   1.922
  735POPC   C1A38183  11.022   5.564   1.943
  735POPC    OF38184  10.954   5.495   1.865
  735POPC   C1B38185  10.970   5.654   2.048
  735POPC   C1C38186  10.862   5.587   2.135
  735POPC   C1D38187  10.837   5.666   2.265
  735POPC   C1E38188  10.787   5.808   2.237
  735POPC   C1F38189  10.785   5.896   2.361
  735POPC   C1G38190  10.673   5.862   2.460
  735POPC   C1H38191  10.673   5.967   2.572
  735POPC   C1I38192  10.560   5.944   2.673
  735POPC   C1J38193  10.578   5.982   2.799
  735POPC   C1K38194  10.710   6.048   2.840
  735POPC   C1L38195  10.692   6.136   2.963
  735POPC   C1M38196  10.821   6.209   2.999
  735POPC   C1N38197  10.797   6.302   3.118
  735POPC   C1O38198  10.917   6.392   3.150
  735POPC   C1P38199  11.033   6.316   3.213
  735POPC   C1Q38200  11.144   6.414   3.254
  735POPC   C1R38201  11.255   6.342   3.331
  735POPC    CE38202  11.362   5.443   1.904
  735POPC    OG38203  11.354   5.371   2.028
  735POPC   C2A38204  11.446   5.278   2.051
  735POPC    OH38205  11.542   5.261   1.974
  735POPC   C2B38206  11.418   5.199   2.173
  735POPC   C2C38207  11.540   5.132   2.236
  735POPC   C2D38208  11.494   5.052   2.357
  735POPC   C2E38209  11.610   4.981   2.427
  735POPC   C2F38210  11.564   4.905   2.552
  735POPC   C2G38211  11.506   4.999   2.658
  735POPC   C2H38212  11.467   4.922   2.784
  735POPC   C2I38213  11.409   5.016   2.889
  735POPC   C2J38214  11.382   4.942   3.020
  735POPC   C2K38215  11.326   5.037   3.126
  735POPC   C2L38216  11.312   4.967   3.261
  735POPC   C2M38217  11.262   5.064   3.368
  735POPC   C2N38218  11.259   4.999   3.507
  735POPC   C2O38219  11.400   4.966   3.557
  735POPC   C2P38220  11.395   4.898   3.694
  736POPC   CN138221  11.847   6.614   1.681
  736POPC   CN238222  11.822   6.688   1.455
  736POPC   CN338223  11.873   6.461   1.503
  736POPC   NTM38224  11.796   6.577   1.548
  736POPC    CA38225  11.653   6.541   1.547
  736POPC    CB38226  11.548   6.603   1.643
  736POPC    OA38227  11.552   6.742   1.675
  736POPC     P38228  11.410   6.796   1.717
  736POPC    OB38229  11.434   6.928   1.776
  736POPC    OC38230  11.318   6.779   1.603
  736POPC    OD38231  11.361   6.696   1.829
  736POPC    CC38232  11.383   6.742   1.962
  736POPC    CD38233  11.263   6.718   2.055
  736POPC    OE38234  11.265   6.800   2.175
  736POPC   C1A38235  11.153   6.820   2.244
  736POPC    OF38236  11.044   6.785   2.198
  736POPC   C1B38237  11.169   6.887   2.376
  736POPC   C1C38238  11.281   6.991   2.388
  736POPC   C1D38239  11.297   7.029   2.535
  736POPC   C1E38240  11.426   7.106   2.565
  736POPC   C1F38241  11.451   7.103   2.716
  736POPC   C1G38242  11.587   7.160   2.755
  736POPC   C1H38243  11.613   7.131   2.903
  736POPC   C1I38244  11.746   7.189   2.951
  736POPC   C1J38245  11.768   7.202   3.081
  736POPC   C1K38246  11.661   7.157   3.180
  736POPC   C1L38247  11.723   7.098   3.307
  736POPC   C1M38248  11.615   7.045   3.401
  736POPC   C1N38249  11.678   6.979   3.524
  736POPC   C1O38250  11.574   6.923   3.621
  736POPC   C1P38251  11.497   6.804   3.564
  736POPC   C1Q38252  11.396   6.750   3.665
  736POPC   C1R38253  11.316   6.634   3.606
  736POPC    CE38254  11.253   6.566   2.076
  736POPC    OG38255  11.370   6.505   2.134
  736POPC   C2A38256  11.359   6.379   2.176
  736POPC    OH38257  11.253   6.317   2.164
  736POPC   C2B38258  11.483   6.328   2.236
  736POPC   C2C38259  11.487   6.350   2.387
  736POPC   C2D38260  11.623   6.310   2.445
  736POPC   C2E38261  11.624   6.323   2.598
  736POPC   C2F38262  11.539   6.215   2.664
  736POPC   C2G38263  11.521   6.242   2.813
  736POPC   C2H38264  11.445   6.126   2.878
  736POPC   C2I38265  11.411   6.154   3.024
  736POPC   C2J38266  11.343   6.034   3.091
  736POPC   C2K38267  11.211   5.996   3.023
  736POPC   C2L38268  11.153   5.867   3.082
  736POPC   C2M38269  11.034   5.816   3.001
  736POPC   C2N38270  11.075   5.774   2.860
  736POPC   C2O38271  10.957   5.722   2.779
  736POPC   C2P38272  11.001   5.688   2.637
  737POPC   CN138273  10.600   7.994   1.618
  737POPC   CN238274  10.432   8.149   1.684
  737POPC   CN338275  10.371   7.924   1.639
  737POPC   NTM38276  10.476   8.010   1.696
  737POPC    CA38277  10.501   7.982   1.839
  737POPC    CB38278  10.556   7.844   1.883
  737POPC    OA38279  10.473   7.730   1.856
  737POPC     P38280  10.557   7.597   1.863
  737POPC    OB38281  10.463   7.491   1.824
  737POPC    OC38282  10.679   7.624   1.785
  737POPC    OD38283  10.586   7.593   2.017
  737POPC    CC38284  10.476   7.546   2.094
  737POPC    CD38285  10.508   7.516   2.242
  737POPC    OE38286  10.391   7.472   2.318
  737POPC   C1A38287  10.375   7.341   2.333
  737POPC    OF38288  10.423   7.263   2.249
  737POPC   C1B38289  10.277   7.306   2.438
  737POPC   C1C38290  10.293   7.164   2.493
  737POPC   C1D38291  10.199   7.143   2.611
  737POPC   C1E38292  10.199   6.997   2.657
  737POPC   C1F38293  10.124   6.979   2.789
  737POPC   C1G38294  10.203   7.037   2.906
  737POPC   C1H38295  10.133   7.020   3.042
  737POPC   C1I38296  10.011   7.111   3.058
  737POPC   C1J38297   9.984   7.163   3.177
  737POPC   C1K38298  10.076   7.133   3.295
  737POPC   C1L38299   9.999   7.135   3.427
  737POPC   C1M38300  10.092   7.105   3.544
  737POPC   C1N38301  10.017   7.108   3.677
  737POPC   C1O38302  10.113   7.085   3.794
  737POPC   C1P38303  10.040   7.094   3.928
  737POPC   C1Q38304  10.136   7.085   4.046
  737POPC   C1R38305  10.203   6.948   4.059
  737POPC    CE38306  10.576   7.641   2.302
  737POPC    OG38307  10.608   7.622   2.441
  737POPC   C2A38308  10.648   7.726   2.513
  737POPC    OH38309  10.659   7.838   2.463
  737POPC   C2B38310  10.667   7.689   2.655
  737POPC   C2C38311  10.655   7.807   2.752
  737POPC   C2D38312  10.645   7.760   2.898
  737POPC   C2E38313  10.767   7.681   2.945
  737POPC   C2F38314  10.751   7.641   3.091
  737POPC   C2G38315  10.867   7.552   3.138
  737POPC   C2H38316  10.854   7.518   3.287
  737POPC   C2I38317  10.731   7.431   3.318
  737POPC   C2J38318  10.752   7.283   3.285
  737POPC   C2K38319  10.617   7.211   3.290
  737POPC   C2L38320  10.628   7.059   3.296
  737POPC   C2M38321  10.674   7.013   3.435
  737POPC   C2N38322  10.660   6.861   3.454
  737POPC   C2O38323  10.515   6.812   3.453
  737POPC   C2P38324  10.433   6.866   3.571
  738POPC   CN138325  10.879   9.047   1.528
  738POPC   CN238326  10.743   9.239   1.579
  738POPC   CN338327  10.647   9.045   1.477
  738POPC   NTM38328  10.747   9.092   1.574
  738POPC    CA38329  10.714   9.033   1.706
  738POPC    CB38330  10.795   9.072   1.832
  738POPC    OA38331  10.935   9.045   1.824
  738POPC     P38332  11.018   9.103   1.944
  738POPC    OB38333  11.154   9.050   1.927
  738POPC    OC38334  10.989   9.248   1.948
  738POPC    OD38335  10.953   9.024   2.063
  738POPC    CC38336  10.929   9.105   2.178
  738POPC    CD38337  10.866   9.030   2.296
  738POPC    OE38338  10.820   9.123   2.397
  738POPC   C1A38339  10.722   9.087   2.480
  738POPC    OF38340  10.664   8.979   2.470
  738POPC   C1B38341  10.684   9.195   2.574
  738POPC   C1C38342  10.758   9.186   2.708
  738POPC   C1D38343  10.719   9.305   2.796
  738POPC   C1E38344  10.796   9.313   2.928
  738POPC   C1F38345  10.751   9.210   3.032
  738POPC   C1G38346  10.822   9.238   3.164
  738POPC   C1H38347  10.780   9.139   3.273
  738POPC   C1I38348  10.856   9.167   3.403
  738POPC   C1J38349  10.813   9.119   3.519
  738POPC   C1K38350  10.685   9.034   3.526
  738POPC   C1L38351  10.631   9.028   3.669
  738POPC   C1M38352  10.501   8.948   3.673
  738POPC   C1N38353  10.446   8.930   3.815
  738POPC   C1O38354  10.534   8.839   3.901
  738POPC   C1P38355  10.469   8.812   4.037
  738POPC   C1Q38356  10.555   8.724   4.127
  738POPC   C1R38357  10.682   8.795   4.174
  738POPC    CE38358  10.973   8.928   2.341
  738POPC    OG38359  10.935   8.842   2.448
  738POPC   C2A38360  11.024   8.754   2.493
  738POPC    OH38361  11.136   8.747   2.443
  738POPC   C2B38362  10.970   8.667   2.599
  738POPC   C2C38363  11.069   8.639   2.712
  738POPC   C2D38364  11.001   8.555   2.819
  738POPC   C2E38365  11.091   8.530   2.940
  738POPC   C2F38366  11.014   8.450   3.045
  738POPC   C2G38367  11.096   8.430   3.173
  738POPC   C2H38368  11.011   8.358   3.278
  738POPC   C2I38369  11.083   8.345   3.412
  738POPC   C2J38370  10.989   8.286   3.517
  738POPC   C2K38371  11.058   8.271   3.652
  738POPC   C2L38372  10.961   8.216   3.756
  738POPC   C2M38373  11.034   8.187   3.888
  738POPC   C2N38374  10.937   8.132   3.993
  738POPC   C2O38375  11.009   8.089   4.121
  738POPC   C2P38376  11.074   8.205   4.195
  739POPC   CN138377  11.414   9.869   1.482
  739POPC   CN238378  11.639   9.807   1.533
  739POPC   CN338379  11.495   9.895   1.702
  739POPC   NTM38380  11.501   9.809   1.584
  739POPC    CA38381  11.450   9.673   1.613
  739POPC    CB38382  11.526   9.573   1.704
  739POPC    OA38383  11.570   9.625   1.829
  739POPC     P38384  11.636   9.516   1.921
  739POPC    OB38385  11.710   9.422   1.836
  739POPC    OC38386  11.705   9.593   2.025
  739POPC    OD38387  11.505   9.448   1.976
  739POPC    CC38388  11.456   9.519   2.091
  739POPC    CD38389  11.310   9.495   2.132
  739POPC    OE38390  11.274   9.572   2.250
  739POPC   C1A38391  11.239   9.699   2.239
  739POPC    OF38392  11.195   9.742   2.132
  739POPC   C1B38393  11.241   9.771   2.369
  739POPC   C1C38394  11.123   9.867   2.388
  739POPC   C1D38395  11.134   9.931   2.527
  739POPC   C1E38396  11.006  10.007   2.563
  739POPC   C1F38397  11.016  10.073   2.701
  739POPC   C1G38398  11.026   9.973   2.817
  739POPC   C1H38399  11.047  10.047   2.949
  739POPC   C1I38400  11.060   9.947   3.064
  739POPC   C1J38401  11.060   9.987   3.191
  739POPC   C1K38402  11.047  10.134   3.228
  739POPC   C1L38403  11.006  10.147   3.375
  739POPC   C1M38404  11.001  10.293   3.420
  739POPC   C1N38405  10.968  10.307   3.569
  739POPC   C1O38406  10.825  10.262   3.601
  739POPC   C1P38407  10.796  10.273   3.751
  739POPC   C1Q38408  10.654  10.228   3.781
  739POPC   C1R38409  10.624  10.235   3.931
  739POPC    CE38410  11.292   9.343   2.152
  739POPC    OG38411  11.375   9.285   2.254
  739POPC   C2A38412  11.330   9.174   2.312
  739POPC    OH38413  11.250   9.101   2.253
  739POPC   C2B38414  11.408   9.138   2.433
  739POPC   C2C38415  11.328   9.061   2.539
  739POPC   C2D38416  11.214   9.145   2.598
  739POPC   C2E38417  11.135   9.069   2.705
  739POPC   C2F38418  11.209   9.059   2.838
  739POPC   C2G38419  11.125   8.979   2.938
  739POPC   C2H38420  11.188   8.979   3.077
  739POPC   C2I38421  11.106   8.891   3.172
  739POPC   C2J38422  11.159   8.898   3.315
  739POPC   C2K38423  11.081   8.802   3.405
  739POPC   C2L38424  11.126   8.815   3.551
  739POPC   C2M38425  11.056   8.712   3.638
  739POPC   C2N38426  11.095   8.730   3.785
  739POPC   C2O38427  11.037   8.620   3.876
  739POPC   C2P38428  10.884   8.623   3.882
  740POPC   CN138429  11.897  11.046   2.083
  740POPC   CN238430  11.745  11.138   2.243
  740POPC   CN338431  11.797  11.257   2.046
  740POPC   NTM38432  11.773  11.122   2.099
  740POPC    CA38433  11.661  11.061   2.024
  740POPC    CB38434  11.615  10.916   2.055
  740POPC    OA38435  11.562  10.897   2.186
  740POPC     P38436  11.557  10.744   2.223
  740POPC    OB38437  11.468  10.689   2.120
  740POPC    OC38438  11.700  10.712   2.232
  740POPC    OD38439  11.484  10.770   2.360
  740POPC    CC38440  11.578  10.807   2.462
  740POPC    CD38441  11.511  10.840   2.596
  740POPC    OE38442  11.600  10.901   2.692
  740POPC   C1A38443  11.584  11.029   2.721
  740POPC    OF38444  11.490  11.093   2.673
  740POPC   C1B38445  11.683  11.081   2.819
  740POPC   C1C38446  11.627  11.075   2.961
  740POPC   C1D38447  11.719  11.143   3.062
  740POPC   C1E38448  11.649  11.151   3.198
  740POPC   C1F38449  11.726  11.236   3.299
  740POPC   C1G38450  11.636  11.261   3.420
  740POPC   C1H38451  11.699  11.358   3.520
  740POPC   C1I38452  11.591  11.402   3.619
  740POPC   C1J38453  11.619  11.449   3.740
  740POPC   C1K38454  11.762  11.463   3.792
  740POPC   C1L38455  11.766  11.455   3.945
  740POPC   C1M38456  11.700  11.576   4.014
  740POPC   C1N38457  11.666  11.548   4.160
  740POPC   C1O38458  11.554  11.443   4.172
  740POPC   C1P38459  11.512  11.421   4.317
  740POPC   C1Q38460  11.399  11.318   4.324
  740POPC   C1R38461  11.347  11.301   4.467
  740POPC    CE38462  11.438  10.713   2.642
  740POPC    OG38463  11.369  10.720   2.769
  740POPC   C2A38464  11.258  10.792   2.778
  740POPC    OH38465  11.201  10.839   2.679
  740POPC   C2B38466  11.208  10.803   2.917
  740POPC   C2C38467  11.257  10.931   2.985
  740POPC   C2D38468  11.211  10.935   3.130
  740POPC   C2E38469  11.256  11.064   3.198
  740POPC   C2F38470  11.216  11.071   3.345
  740POPC   C2G38471  11.290  10.969   3.431
  740POPC   C2H38472  11.253  10.981   3.579
  740POPC   C2I38473  11.305  11.111   3.641
  740POPC   C2J38474  11.264  11.126   3.788
  740POPC   C2K38475  11.325  11.018   3.877
  740POPC   C2L38476  11.284  11.038   4.023
  740POPC   C2M38477  11.335  10.926   4.114
  740POPC   C2N38478  11.488  10.923   4.123
  740POPC   C2O38479  11.534  10.807   4.212
  740POPC   C2P38480  11.687  10.799   4.217
  741POPC   CN138481  12.023   9.864   2.299
  741POPC   CN238482  11.935  10.087   2.304
  741POPC   CN338483  12.081  10.009   2.476
  741POPC   NTM38484  12.053  10.004   2.332
  741POPC    CA38485  12.171  10.043   2.251
  741POPC    CB38486  12.219  10.191   2.250
  741POPC    OA38487  12.248  10.249   2.378
  741POPC     P38488  12.266  10.404   2.370
  741POPC    OB38489  12.334  10.460   2.488
  741POPC    OC38490  12.307  10.445   2.235
  741POPC    OD38491  12.117  10.447   2.377
  741POPC    CC38492  12.060  10.434   2.507
  741POPC    CD38493  11.942  10.529   2.526
  741POPC    OE38494  11.900  10.538   2.665
  741POPC   C1A38495  11.869  10.659   2.712
  741POPC    OF38496  11.881  10.758   2.640
  741POPC   C1B38497  11.825  10.659   2.853
  741POPC   C1C38498  11.940  10.681   2.951
  741POPC   C1D38499  11.889  10.671   3.095
  741POPC   C1E38500  12.000  10.697   3.196
  741POPC   C1F38501  11.951  10.686   3.341
  741POPC   C1G38502  11.845  10.791   3.375
  741POPC   C1H38503  11.804  10.783   3.522
  741POPC   C1I38504  11.691  10.882   3.551
  741POPC   C1J38505  11.684  10.943   3.669
  741POPC   C1K38506  11.789  10.915   3.776
  741POPC   C1L38507  11.807  11.037   3.867
  741POPC   C1M38508  11.912  11.009   3.975
  741POPC   C1N38509  11.923  11.127   4.071
  741POPC   C1O38510  12.025  11.099   4.182
  741POPC   C1P38511  12.036  11.215   4.281
  741POPC   C1Q38512  11.909  11.233   4.365
  741POPC   C1R38513  11.924  11.350   4.461
  741POPC    CE38514  11.835  10.485   2.424
  741POPC    OG38515  11.769  10.361   2.454
  741POPC   C2A38516  11.643  10.374   2.495
  741POPC    OH38517  11.578  10.476   2.472
  741POPC   C2B38518  11.587  10.249   2.552
  741POPC   C2C38519  11.491  10.278   2.668
  741POPC   C2D38520  11.564  10.333   2.791
  741POPC   C2E38521  11.466  10.397   2.890
  741POPC   C2F38522  11.542  10.454   3.009
  741POPC   C2G38523  11.459  10.554   3.092
  741POPC   C2H38524  11.339  10.492   3.166
  741POPC   C2I38525  11.381  10.390   3.273
  741POPC   C2J38526  11.454  10.452   3.393
  741POPC   C2K38527  11.358  10.518   3.492
  741POPC   C2L38528  11.435  10.562   3.617
  741POPC   C2M38529  11.343  10.604   3.732
  741POPC   C2N38530  11.261  10.489   3.791
  741POPC   C2O38531  11.348  10.383   3.860
  741POPC   C2P38532  11.263  10.267   3.912
  742POPC   CN138533  11.599  12.518   1.970
  742POPC   CN238534  11.792  12.419   1.870
  742POPC   CN338535  11.815  12.604   2.018
  742POPC   NTM38536  11.739  12.480   1.992
  742POPC    CA38537  11.743  12.386   2.107
  742POPC    CB38538  11.879  12.339   2.164
  742POPC    OA38539  11.966  12.270   2.074
  742POPC     P38540  12.109  12.235   2.129
  742POPC    OB38541  12.195  12.223   2.009
  742POPC    OC38542  12.139  12.331   2.236
  742POPC    OD38543  12.081  12.089   2.183
  742POPC    CC38544  12.050  12.080   2.322
  742POPC    CD38545  11.995  11.941   2.359
  742POPC    OE38546  11.892  11.944   2.463
  742POPC   C1A38547  11.824  11.832   2.486
  742POPC    OF38548  11.815  11.748   2.397
  742POPC   C1B38549  11.743  11.837   2.610
  742POPC   C1C38550  11.817  11.780   2.731
  742POPC   C1D38551  11.741  11.811   2.859
  742POPC   C1E38552  11.811  11.755   2.983
  742POPC   C1F38553  11.744  11.809   3.110
  742POPC   C1G38554  11.802  11.746   3.237
  742POPC   C1H38555  11.735  11.807   3.360
  742POPC   C1I38556  11.782  11.739   3.489
  742POPC   C1J38557  11.785  11.805   3.604
  742POPC   C1K38558  11.745  11.953   3.610
  742POPC   C1L38559  11.806  12.027   3.729
  742POPC   C1M38560  11.748  11.982   3.863
  742POPC   C1N38561  11.812  12.056   3.980
  742POPC   C1O38562  11.754  12.007   4.113
  742POPC   C1P38563  11.821  12.075   4.232
  742POPC   C1Q38564  11.764  12.023   4.363
  742POPC   C1R38565  11.835  12.087   4.483
  742POPC    CE38566  12.117  11.849   2.382
  742POPC    OG38567  12.194  11.883   2.498
  742POPC   C2A38568  12.257  11.782   2.559
  742POPC    OH38569  12.239  11.665   2.524
  742POPC   C2B38570  12.326  11.825   2.683
  742POPC   C2C38571  12.240  11.795   2.806
  742POPC   C2D38572  12.309  11.837   2.935
  742POPC   C2E38573  12.220  11.803   3.055
  742POPC   C2F38574  12.286  11.842   3.187
  742POPC   C2G38575  12.194  11.807   3.305
  742POPC   C2H38576  12.259  11.839   3.439
  742POPC   C2I38577  12.165  11.801   3.553
  742POPC   C2J38578  12.227  11.826   3.690
  742POPC   C2K38579  12.132  11.778   3.800
  742POPC   C2L38580  12.191  11.800   3.939
  742POPC   C2M38581  12.096  11.746   4.046
  742POPC   C2N38582  12.153  11.766   4.186
  742POPC   C2O38583  12.057  11.711   4.292
  742POPC   C2P38584  12.113  11.732   4.433
  743POPC   CN138585  12.938  11.905   1.930
  743POPC   CN238586  12.714  11.985   1.922
  743POPC   CN338587  12.757  11.751   1.907
  743POPC   NTM38588  12.800  11.876   1.971
  743POPC    CA38589  12.801  11.863   2.118
  743POPC    CB38590  12.669  11.851   2.199
  743POPC    OA38591  12.592  11.971   2.210
  743POPC     P38592  12.464  11.940   2.296
  743POPC    OB38593  12.377  11.871   2.199
  743POPC    OC38594  12.511  11.871   2.416
  743POPC    OD38595  12.417  12.087   2.325
  743POPC    CC38596  12.481  12.142   2.440
  743POPC    CD38597  12.454  12.292   2.463
  743POPC    OE38598  12.546  12.356   2.556
  743POPC   C1A38599  12.603  12.470   2.519
  743POPC    OF38600  12.608  12.500   2.399
  743POPC   C1B38601  12.682  12.535   2.626
  743POPC   C1C38602  12.676  12.688   2.618
  743POPC   C1D38603  12.747  12.756   2.736
  743POPC   C1E38604  12.684  12.719   2.870
  743POPC   C1F38605  12.746  12.794   2.988
  743POPC   C1G38606  12.682  12.745   3.118
  743POPC   C1H38607  12.733  12.823   3.238
  743POPC   C1I38608  12.670  12.769   3.367
  743POPC   C1J38609  12.725  12.798   3.484
  743POPC   C1K38610  12.848  12.889   3.489
  743POPC   C1L38611  12.946  12.847   3.599
  743POPC   C1M38612  12.896  12.876   3.741
  743POPC   C1N38613  12.997  12.823   3.842
  743POPC   C1O38614  12.959  12.858   3.985
  743POPC   C1P38615  13.062  12.798   4.082
  743POPC   C1Q38616  13.030  12.837   4.226
  743POPC   C1R38617  13.126  12.766   4.322
  743POPC    CE38618  12.304  12.308   2.497
  743POPC    OG38619  12.250  12.228   2.604
  743POPC   C2A38620  12.125  12.256   2.641
  743POPC    OH38621  12.070  12.359   2.603
  743POPC   C2B38622  12.067  12.159   2.736
  743POPC   C2C38623  12.053  12.218   2.877
  743POPC   C2D38624  11.972  12.124   2.967
  743POPC   C2E38625  11.944  12.181   3.106
  743POPC   C2F38626  12.069  12.186   3.195
  743POPC   C2G38627  12.032  12.229   3.337
  743POPC   C2H38628  12.151  12.219   3.431
  743POPC   C2I38629  12.110  12.256   3.574
  743POPC   C2J38630  12.224  12.234   3.674
  743POPC   C2K38631  12.180  12.279   3.813
  743POPC   C2L38632  12.289  12.255   3.918
  743POPC   C2M38633  12.250  12.321   4.050
  743POPC   C2N38634  12.353  12.299   4.161
  743POPC   C2O38635  12.346  12.159   4.223
  743POPC   C2P38636  12.220  12.140   4.309
  744POPC   CN138637  12.445  13.490   2.240
  744POPC   CN238638  12.499  13.589   2.030
  744POPC   CN338639  12.656  13.592   2.209
  744POPC   NTM38640  12.553  13.511   2.143
  744POPC    CA38641  12.614  13.383   2.099
  744POPC    CB38642  12.534  13.281   2.014
  744POPC    OA38643  12.410  13.234   2.067
  744POPC     P38644  12.428  13.094   2.138
  744POPC    OB38645  12.462  13.001   2.030
  744POPC    OC38646  12.522  13.122   2.247
  744POPC    OD38647  12.280  13.081   2.187
  744POPC    CC38648  12.255  13.165   2.299
  744POPC    CD38649  12.111  13.160   2.351
  744POPC    OE38650  12.078  13.275   2.436
  744POPC   C1A38651  11.953  13.293   2.477
  744POPC    OF38652  11.861  13.244   2.411
  744POPC   C1B38653  11.938  13.396   2.582
  744POPC   C1C38654  12.011  13.355   2.711
  744POPC   C1D38655  12.000  13.461   2.821
  744POPC   C1E38656  12.081  13.414   2.942
  744POPC   C1F38657  12.061  13.505   3.063
  744POPC   C1G38658  12.146  13.453   3.180
  744POPC   C1H38659  12.119  13.531   3.308
  744POPC   C1I38660  12.204  13.475   3.423
  744POPC   C1J38661  12.154  13.470   3.546
  744POPC   C1K38662  12.010  13.517   3.571
  744POPC   C1L38663  11.948  13.445   3.690
  744POPC   C1M38664  11.800  13.483   3.704
  744POPC   C1N38665  11.735  13.415   3.824
  744POPC   C1O38666  11.586  13.449   3.829
  744POPC   C1P38667  11.520  13.386   3.952
  744POPC   C1Q38668  11.370  13.413   3.953
  744POPC   C1R38669  11.304  13.353   4.077
  744POPC    CE38670  12.091  13.017   2.404
  744POPC    OG38671  12.182  12.974   2.507
  744POPC   C2A38672  12.194  12.843   2.526
  744POPC    OH38673  12.146  12.760   2.448
  744POPC   C2B38674  12.281  12.809   2.641
  744POPC   C2C38675  12.223  12.693   2.722
  744POPC   C2D38676  12.322  12.645   2.828
  744POPC   C2E38677  12.267  12.525   2.906
  744POPC   C2F38678  12.186  12.564   3.031
  744POPC   C2G38679  12.280  12.608   3.143
  744POPC   C2H38680  12.207  12.617   3.277
  744POPC   C2I38681  12.306  12.647   3.389
  744POPC   C2J38682  12.239  12.646   3.526
  744POPC   C2K38683  12.340  12.681   3.636
  744POPC   C2L38684  12.273  12.681   3.773
  744POPC   C2M38685  12.370  12.728   3.881
  744POPC   C2N38686  12.300  12.732   4.017
  744POPC   C2O38687  12.392  12.786   4.128
  744POPC   C2P38688  12.424  12.935   4.110
  745POPC   CN138689  11.108  13.681   2.358
  745POPC   CN238690  10.876  13.729   2.389
  745POPC   CN338691  11.039  13.885   2.462
  745POPC   NTM38692  11.006  13.787   2.357
  745POPC    CA38693  10.991  13.852   2.224
  745POPC    CB38694  11.106  13.934   2.162
  745POPC    OA38695  11.231  13.866   2.141
  745POPC     P38696  11.344  13.966   2.094
  745POPC    OB38697  11.453  13.878   2.052
  745POPC    OC38698  11.280  14.059   1.999
  745POPC    OD38699  11.371  14.033   2.233
  745POPC    CC38700  11.448  13.945   2.316
  745POPC    CD38701  11.496  14.003   2.451
  745POPC    OE38702  11.392  14.023   2.551
  745POPC   C1A38703  11.351  13.918   2.622
  745POPC    OF38704  11.342  13.806   2.568
  745POPC   C1B38705  11.285  13.955   2.750
  745POPC   C1C38706  11.326  13.855   2.858
  745POPC   C1D38707  11.253  13.877   2.991
  745POPC   C1E38708  11.291  13.764   3.087
  745POPC   C1F38709  11.213  13.772   3.218
  745POPC   C1G38710  11.241  13.649   3.304
  745POPC   C1H38711  11.151  13.650   3.428
  745POPC   C1I38712  11.173  13.526   3.516
  745POPC   C1J38713  11.138  13.533   3.644
  745POPC   C1K38714  11.077  13.663   3.696
  745POPC   C1L38715  10.989  13.642   3.818
  745POPC   C1M38716  10.937  13.777   3.867
  745POPC   C1N38717  10.867  13.765   4.003
  745POPC   C1O38718  10.834  13.904   4.057
  745POPC   C1P38719  10.789  13.896   4.202
  745POPC   C1Q38720  10.767  14.036   4.261
  745POPC   C1R38721  10.732  14.026   4.410
  745POPC    CE38722  11.575  14.129   2.413
  745POPC    OG38723  11.653  14.186   2.520
  745POPC   C2A38724  11.679  14.317   2.513
  745POPC    OH38725  11.625  14.389   2.428
  745POPC   C2B38726  11.765  14.367   2.623
  745POPC   C2C38727  11.733  14.309   2.761
  745POPC   C2D38728  11.830  14.355   2.870
  745POPC   C2E38729  11.974  14.307   2.845
  745POPC   C2F38730  12.060  14.337   2.968
  745POPC   C2G38731  12.206  14.295   2.947
  745POPC   C2H38732  12.285  14.307   3.077
  745POPC   C2I38733  12.245  14.200   3.179
  745POPC   C2J38734  12.287  14.232   3.323
  745POPC   C2K38735  12.438  14.243   3.342
  745POPC   C2L38736  12.472  14.271   3.488
  745POPC   C2M38737  12.623  14.285   3.509
  745POPC   C2N38738  12.655  14.307   3.656
  745POPC   C2O38739  12.806  14.317   3.678
  745POPC   C2P38740  12.840  14.336   3.826
  746POPC   CN138741  11.548  15.507   2.219
  746POPC   CN238742  11.489  15.351   2.389
  746POPC   CN338743  11.372  15.558   2.369
  746POPC   NTM38744  11.436  15.449   2.294
  746POPC    CA38745  11.344  15.386   2.196
  746POPC    CB38746  11.223  15.303   2.247
  746POPC    OA38747  11.139  15.370   2.339
  746POPC     P38748  11.008  15.291   2.375
  746POPC    OB38749  10.912  15.391   2.427
  746POPC    OC38750  10.976  15.203   2.262
  746POPC    OD38751  11.069  15.204   2.491
  746POPC    CC38752  11.081  15.281   2.611
  746POPC    CD38753  11.085  15.201   2.742
  746POPC    OE38754  11.085  15.288   2.859
  746POPC   C1A38755  10.968  15.323   2.913
  746POPC    OF38756  10.864  15.319   2.846
  746POPC   C1B38757  10.982  15.388   3.045
  746POPC   C1C38758  11.034  15.292   3.152
  746POPC   C1D38759  11.037  15.356   3.291
  746POPC   C1E38760  11.085  15.255   3.395
  746POPC   C1F38761  11.068  15.303   3.539
  746POPC   C1G38762  11.160  15.420   3.575
  746POPC   C1H38763  11.134  15.464   3.720
  746POPC   C1I38764  11.227  15.579   3.759
  746POPC   C1J38765  11.261  15.597   3.887
  746POPC   C1K38766  11.204  15.506   3.995
  746POPC   C1L38767  11.309  15.478   4.103
  746POPC   C1M38768  11.248  15.396   4.218
  746POPC   C1N38769  11.352  15.358   4.324
  746POPC   C1O38770  11.411  15.476   4.401
  746POPC   C1P38771  11.309  15.543   4.495
  746POPC   C1Q38772  11.375  15.658   4.571
  746POPC   C1R38773  11.273  15.731   4.659
  746POPC    CE38774  11.204  15.104   2.735
  746POPC    OG38775  11.222  15.021   2.851
  746POPC   C2A38776  11.321  14.932   2.853
  746POPC    OH38777  11.389  14.912   2.752
  746POPC   C2B38778  11.334  14.854   2.979
  746POPC   C2C38779  11.299  14.929   3.108
  746POPC   C2D38780  11.314  14.840   3.231
  746POPC   C2E38781  11.273  14.916   3.357
  746POPC   C2F38782  11.291  14.832   3.484
  746POPC   C2G38783  11.247  14.913   3.607
  746POPC   C2H38784  11.270  14.835   3.737
  746POPC   C2I38785  11.228  14.920   3.857
  746POPC   C2J38786  11.260  14.850   3.989
  746POPC   C2K38787  11.223  14.939   4.108
  746POPC   C2L38788  11.271  14.880   4.241
  746POPC   C2M38789  11.194  14.755   4.283
  746POPC   C2N38790  11.252  14.698   4.413
  746POPC   C2O38791  11.171  14.580   4.468
  746POPC   C2P38792  11.178  14.456   4.378
  747POPC   CN138793  11.324  15.778   1.627
  747POPC   CN238794  11.425  15.885   1.814
  747POPC   CN338795  11.363  16.013   1.622
  747POPC   NTM38796  11.324  15.901   1.708
  747POPC    CA38797  11.187  15.922   1.760
  747POPC    CB38798  11.162  16.028   1.870
  747POPC    OA38799  11.202  16.163   1.843
  747POPC     P38800  11.219  16.241   1.979
  747POPC    OB38801  11.231  16.383   1.947
  747POPC    OC38802  11.122  16.190   2.077
  747POPC    OD38803  11.361  16.186   2.011
  747POPC    CC38804  11.384  16.184   2.151
  747POPC    CD38805  11.508  16.102   2.187
  747POPC    OE38806  11.502  16.056   2.324
  747POPC   C1A38807  11.520  15.926   2.351
  747POPC    OF38808  11.527  15.845   2.258
  747POPC   C1B38809  11.507  15.891   2.495
  747POPC   C1C38810  11.543  16.003   2.594
  747POPC   C1D38811  11.504  15.968   2.737
  747POPC   C1E38812  11.526  16.089   2.829
  747POPC   C1F38813  11.476  16.061   2.971
  747POPC   C1G38814  11.493  16.183   3.061
  747POPC   C1H38815  11.430  16.159   3.199
  747POPC   C1I38816  11.446  16.285   3.285
  747POPC   C1J38817  11.440  16.282   3.418
  747POPC   C1K38818  11.413  16.155   3.497
  747POPC   C1L38819  11.355  16.191   3.634
  747POPC   C1M38820  11.339  16.069   3.724
  747POPC   C1N38821  11.295  16.112   3.863
  747POPC   C1O38822  11.289  15.993   3.959
  747POPC   C1P38823  11.253  16.039   4.101
  747POPC   C1Q38824  11.247  15.924   4.201
  747POPC   C1R38825  11.385  15.861   4.225
  747POPC    CE38826  11.631  16.187   2.147
  747POPC    OG38827  11.655  16.306   2.227
  747POPC   C2A38828  11.722  16.284   2.340
  747POPC    OH38829  11.796  16.186   2.353
  747POPC   C2B38830  11.716  16.400   2.432
  747POPC   C2C38831  11.731  16.357   2.579
  747POPC   C2D38832  11.684  16.464   2.677
  747POPC   C2E38833  11.532  16.485   2.665
  747POPC   C2F38834  11.478  16.577   2.774
  747POPC   C2G38835  11.327  16.594   2.756
  747POPC   C2H38836  11.259  16.666   2.873
  747POPC   C2I38837  11.267  16.583   3.002
  747POPC   C2J38838  11.187  16.649   3.114
  747POPC   C2K38839  11.216  16.580   3.247
  747POPC   C2L38840  11.141  16.648   3.361
  747POPC   C2M38841  11.196  16.599   3.496
  747POPC   C2N38842  11.125  16.671   3.611
  747POPC   C2O38843  11.187  16.634   3.747
  747POPC   C2P38844  11.325  16.696   3.766
  748POPC   CN138845  12.263  16.127   1.885
  748POPC   CN238846  12.367  16.108   1.673
  748POPC   CN338847  12.137  16.172   1.687
  748POPC   NTM38848  12.269  16.186   1.751
  748POPC    CA38849  12.314  16.327   1.757
  748POPC    CB38850  12.221  16.439   1.809
  748POPC    OA38851  12.152  16.416   1.932
  748POPC     P38852  12.148  16.547   2.021
  748POPC    OB38853  12.138  16.662   1.929
  748POPC    OC38854  12.038  16.516   2.114
  748POPC    OD38855  12.290  16.525   2.085
  748POPC    CC38856  12.284  16.442   2.201
  748POPC    CD38857  12.418  16.400   2.263
  748POPC    OE38858  12.402  16.308   2.375
  748POPC   C1A38859  12.400  16.177   2.354
  748POPC    OF38860  12.422  16.130   2.242
  748POPC   C1B38861  12.366  16.099   2.476
  748POPC   C1C38862  12.491  16.060   2.556
  748POPC   C1D38863  12.456  15.986   2.686
  748POPC   C1E38864  12.384  16.075   2.787
  748POPC   C1F38865  12.372  16.006   2.923
  748POPC   C1G38866  12.310  16.100   3.026
  748POPC   C1H38867  12.313  16.040   3.166
  748POPC   C1I38868  12.249  16.136   3.267
  748POPC   C1J38869  12.285  16.136   3.395
  748POPC   C1K38870  12.391  16.039   3.448
  748POPC   C1L38871  12.363  15.994   3.592
  748POPC   C1M38872  12.378  16.107   3.694
  748POPC   C1N38873  12.336  16.059   3.834
  748POPC   C1O38874  12.348  16.169   3.940
  748POPC   C1P38875  12.253  16.286   3.913
  748POPC   C1Q38876  12.270  16.395   4.019
  748POPC   C1R38877  12.180  16.515   3.988
  748POPC    CE38878  12.499  16.527   2.293
  748POPC    OG38879  12.451  16.614   2.398
  748POPC   C2A38880  12.534  16.712   2.435
  748POPC    OH38881  12.643  16.729   2.381
  748POPC   C2B38882  12.486  16.790   2.551
  748POPC   C2C38883  12.563  16.753   2.677
  748POPC   C2D38884  12.518  16.837   2.796
  748POPC   C2E38885  12.589  16.796   2.925
  748POPC   C2F38886  12.537  16.880   3.041
  748POPC   C2G38887  12.590  16.834   3.177
  748POPC   C2H38888  12.524  16.919   3.286
  748POPC   C2I38889  12.553  16.871   3.428
  748POPC   C2J38890  12.698  16.895   3.471
  748POPC   C2K38891  12.719  16.859   3.618
  748POPC   C2L38892  12.707  16.708   3.644
  748POPC   C2M38893  12.710  16.676   3.794
  748POPC   C2N38894  12.580  16.720   3.863
  748POPC   C2O38895  12.582  16.692   4.014
  748POPC   C2P38896  12.683  16.780   4.088
  749POPC   CN138897  13.033   1.262   1.281
  749POPC   CN238898  12.994   1.466   1.171
  749POPC   CN338899  12.832   1.291   1.157
  749POPC   NTM38900  12.928   1.358   1.245
  749POPC    CA38901  12.864   1.416   1.366
  749POPC    CB38902  12.768   1.333   1.454
  749POPC    OA38903  12.812   1.199   1.478
  749POPC     P38904  12.731   1.123   1.587
  749POPC    OB38905  12.588   1.161   1.586
  749POPC    OC38906  12.771   0.981   1.574
  749POPC    OD38907  12.796   1.185   1.715
  749POPC    CC38908  12.931   1.144   1.734
  749POPC    CD38909  12.985   1.170   1.876
  749POPC    OE38910  12.930   1.077   1.975
  749POPC   C1A38911  13.009   0.977   2.015
  749POPC    OF38912  13.113   0.949   1.954
  749POPC   C1B38913  12.954   0.905   2.133
  749POPC   C1C38914  12.982   0.755   2.132
  749POPC   C1D38915  12.940   0.692   2.265
  749POPC   C1E38916  12.963   0.540   2.267
  749POPC   C1F38917  12.921   0.476   2.399
  749POPC   C1G38918  12.770   0.484   2.425
  749POPC   C1H38919  12.730   0.430   2.563
  749POPC   C1I38920  12.746   0.279   2.576
  749POPC   C1J38921  12.779   0.225   2.693
  749POPC   C1K38922  12.802   0.313   2.816
  749POPC   C1L38923  12.801   0.230   2.945
  749POPC   C1M38924  12.835   0.318   3.066
  749POPC   C1N38925  12.843   0.234   3.194
  749POPC   C1O38926  12.879   0.317   3.317
  749POPC   C1P38927  12.768   0.413   3.361
  749POPC   C1Q38928  12.646   0.339   3.418
  749POPC   C1R38929  12.536   0.437   3.458
  749POPC    CE38930  12.967   1.320   1.908
  749POPC    OG38931  13.016   1.355   2.039
  749POPC   C2A38932  12.996   1.478   2.084
  749POPC    OH38933  12.939   1.563   2.015
  749POPC   C2B38934  13.044   1.494   2.224
  749POPC   C2C38935  12.957   1.584   2.313
  749POPC   C2D38936  12.979   1.733   2.286
  749POPC   C2E38937  12.895   1.818   2.381
  749POPC   C2F38938  12.916   1.967   2.353
  749POPC   C2G38939  12.831   2.056   2.444
  749POPC   C2H38940  12.877   2.053   2.590
  749POPC   C2I38941  12.790   2.147   2.675
  749POPC   C2J38942  12.835   2.148   2.821
  749POPC   C2K38943  12.748   2.245   2.901
  749POPC   C2L38944  12.793   2.253   3.047
  749POPC   C2M38945  12.709   2.357   3.123
  749POPC   C2N38946  12.756   2.376   3.267
  749POPC   C2O38947  12.732   2.253   3.354
  749POPC   C2P38948  12.780   2.277   3.498
  750POPC   CN138949  13.177   1.839   1.967
  750POPC   CN238950  13.240   1.936   1.758
  750POPC   CN338951  13.405   1.836   1.895
  750POPC   NTM38952  13.265   1.825   1.850
  750POPC    CA38953  13.250   1.693   1.785
  750POPC    CB38954  13.110   1.645   1.737
  750POPC    OA38955  13.047   1.723   1.634
  750POPC     P38956  12.891   1.696   1.634
  750POPC    OB38957  12.846   1.737   1.500
  750POPC    OC38958  12.862   1.562   1.683
  750POPC    OD38959  12.858   1.808   1.740
  750POPC    CC38960  12.860   1.938   1.680
  750POPC    CD38961  12.835   2.058   1.773
  750POPC    OE38962  12.950   2.095   1.854
  750POPC   C1A38963  12.986   2.222   1.850
  750POPC    OF38964  12.973   2.286   1.745
  750POPC   C1B38965  13.072   2.261   1.964
  750POPC   C1C38966  12.985   2.305   2.082
  750POPC   C1D38967  13.069   2.354   2.199
  750POPC   C1E38968  12.978   2.411   2.309
  750POPC   C1F38969  13.060   2.448   2.432
  750POPC   C1G38970  12.968   2.504   2.541
  750POPC   C1H38971  13.048   2.531   2.669
  750POPC   C1I38972  12.958   2.589   2.778
  750POPC   C1J38973  12.984   2.561   2.905
  750POPC   C1K38974  13.104   2.474   2.941
  750POPC   C1L38975  13.139   2.487   3.090
  750POPC   C1M38976  13.261   2.401   3.122
  750POPC   C1N38977  13.303   2.410   3.269
  750POPC   C1O38978  13.206   2.338   3.363
  750POPC   C1P38979  13.261   2.340   3.506
  750POPC   C1Q38980  13.171   2.260   3.601
  750POPC   C1R38981  13.228   2.261   3.742
  750POPC    CE38982  12.709   2.023   1.854
  750POPC    OG38983  12.644   2.128   1.928
  750POPC   C2A38984  12.551   2.085   2.015
  750POPC    OH38985  12.524   1.966   2.027
  750POPC   C2B38986  12.484   2.195   2.088
  750POPC   C2C38987  12.556   2.227   2.219
  750POPC   C2D38988  12.479   2.334   2.296
  750POPC   C2E38989  12.551   2.368   2.427
  750POPC   C2F38990  12.470   2.469   2.508
  750POPC   C2G38991  12.540   2.500   2.640
  750POPC   C2H38992  12.457   2.594   2.729
  750POPC   C2I38993  12.328   2.526   2.778
  750POPC   C2J38994  12.245   2.619   2.867
  750POPC   C2K38995  12.314   2.650   3.000
  750POPC   C2L38996  12.232   2.747   3.086
  750POPC   C2M38997  12.102   2.685   3.137
  750POPC   C2N38998  12.020   2.783   3.221
  750POPC   C2O38999  11.962   2.898   3.138
  750POPC   C2P39000  11.883   2.994   3.227
  751POPC   CN139001  11.240   3.227   1.952
  751POPC   CN239002  11.208   3.448   1.877
  751POPC   CN339003  11.426   3.376   1.935
  751POPC   NTM39004  11.300   3.334   1.871
  751POPC    CA39005  11.320   3.298   1.728
  751POPC    CB39006  11.410   3.179   1.687
  751POPC    OA39007  11.368   3.051   1.737
  751POPC     P39008  11.467   2.938   1.689
  751POPC    OB39009  11.428   2.912   1.550
  751POPC    OC39010  11.603   2.976   1.727
  751POPC    OD39011  11.420   2.818   1.781
  751POPC    CC39012  11.429   2.850   1.920
  751POPC    CD39013  11.402   2.736   2.020
  751POPC    OE39014  11.366   2.787   2.151
  751POPC   C1A39015  11.238   2.806   2.182
  751POPC    OF39016  11.150   2.798   2.095
  751POPC   C1B39017  11.220   2.844   2.324
  751POPC   C1C39018  11.111   2.949   2.345
  751POPC   C1D39019  11.095   2.985   2.493
  751POPC   C1E39020  11.044   2.867   2.576
  751POPC   C1F39021  11.031   2.902   2.724
  751POPC   C1G39022  10.978   2.780   2.801
  751POPC   C1H39023  10.965   2.808   2.950
  751POPC   C1I39024  10.908   2.685   3.021
  751POPC   C1J39025  10.836   2.697   3.132
  751POPC   C1K39026  10.812   2.833   3.197
  751POPC   C1L39027  10.672   2.837   3.261
  751POPC   C1M39028  10.655   2.952   3.361
  751POPC   C1N39029  10.745   2.932   3.483
  751POPC   C1O39030  10.709   3.027   3.597
  751POPC   C1P39031  10.801   3.011   3.719
  751POPC   C1Q39032  10.796   2.872   3.784
  751POPC   C1R39033  10.659   2.840   3.845
  751POPC    CE39034  11.526   2.644   2.015
  751POPC    OG39035  11.533   2.542   2.117
  751POPC   C2A39036  11.651   2.483   2.135
  751POPC    OH39037  11.746   2.506   2.061
  751POPC   C2B39038  11.657   2.398   2.256
  751POPC   C2C39039  11.604   2.256   2.235
  751POPC   C2D39040  11.627   2.177   2.364
  751POPC   C2E39041  11.558   2.039   2.363
  751POPC   C2F39042  11.590   1.961   2.490
  751POPC   C2G39043  11.545   2.035   2.617
  751POPC   C2H39044  11.594   1.967   2.745
  751POPC   C2I39045  11.508   1.848   2.787
  751POPC   C2J39046  11.561   1.780   2.914
  751POPC   C2K39047  11.569   1.876   3.033
  751POPC   C2L39048  11.621   1.806   3.158
  751POPC   C2M39049  11.651   1.909   3.268
  751POPC   C2N39050  11.695   1.843   3.399
  751POPC   C2O39051  11.580   1.775   3.474
  751POPC   C2P39052  11.478   1.876   3.527
  752POPC   CN139053  11.685   3.866   1.274
  752POPC   CN239054  11.792   4.072   1.325
  752POPC   CN339055  11.576   4.031   1.411
  752POPC   NTM39056  11.704   3.968   1.378
  752POPC    CA39057  11.766   3.914   1.501
  752POPC    CB39058  11.692   3.807   1.586
  752POPC    OA39059  11.663   3.682   1.524
  752POPC     P39060  11.639   3.575   1.637
  752POPC    OB39061  11.586   3.634   1.761
  752POPC    OC39062  11.582   3.451   1.582
  752POPC    OD39063  11.791   3.548   1.659
  752POPC    CC39064  11.814   3.462   1.770
  752POPC    CD39065  11.960   3.413   1.775
  752POPC    OE39066  11.978   3.304   1.870
  752POPC   C1A39067  12.013   3.184   1.826
  752POPC    OF39068  12.022   3.159   1.705
  752POPC   C1B39069  12.030   3.085   1.935
  752POPC   C1C39070  11.912   2.988   1.944
  752POPC   C1D39071  11.780   3.050   1.992
  752POPC   C1E39072  11.781   3.076   2.143
  752POPC   C1F39073  11.640   3.111   2.191
  752POPC   C1G39074  11.637   3.115   2.344
  752POPC   C1H39075  11.495   3.128   2.401
  752POPC   C1I39076  11.436   3.269   2.384
  752POPC   C1J39077  11.406   3.339   2.493
  752POPC   C1K39078  11.429   3.280   2.632
  752POPC   C1L39079  11.343   3.346   2.740
  752POPC   C1M39080  11.194   3.311   2.729
  752POPC   C1N39081  11.115   3.383   2.837
  752POPC   C1O39082  10.965   3.352   2.827
  752POPC   C1P39083  10.884   3.433   2.929
  752POPC   C1Q39084  10.886   3.582   2.897
  752POPC   C1R39085  10.812   3.663   3.004
  752POPC    CE39086  12.049   3.537   1.798
  752POPC    OG39087  12.045   3.597   1.929
  752POPC   C2A39088  12.156   3.660   1.967
  752POPC    OH39089  12.252   3.675   1.891
  752POPC   C2B39090  12.153   3.704   2.109
  752POPC   C2C39091  12.279   3.658   2.182
  752POPC   C2D39092  12.276   3.698   2.330
  752POPC   C2E39093  12.405   3.651   2.399
  752POPC   C2F39094  12.412   3.695   2.546
  752POPC   C2G39095  12.308   3.624   2.633
  752POPC   C2H39096  12.324   3.666   2.780
  752POPC   C2I39097  12.224   3.593   2.869
  752POPC   C2J39098  12.245   3.630   3.015
  752POPC   C2K39099  12.149   3.551   3.105
  752POPC   C2L39100  12.174   3.585   3.253
  752POPC   C2M39101  12.083   3.502   3.344
  752POPC   C2N39102  12.114   3.532   3.491
  752POPC   C2O39103  12.026   3.447   3.583
  752POPC   C2P39104  12.059   3.476   3.730
  753POPC   CN139105  12.531   3.811   1.809
  753POPC   CN239106  12.623   3.779   1.589
  753POPC   CN339107  12.487   3.611   1.689
  753POPC   NTM39108  12.506   3.756   1.675
  753POPC    CA39109  12.382   3.813   1.617
  753POPC    CB39110  12.379   3.961   1.570
  753POPC    OA39111  12.420   4.058   1.667
  753POPC     P39112  12.430   4.202   1.606
  753POPC    OB39113  12.561   4.204   1.542
  753POPC    OC39114  12.308   4.223   1.526
  753POPC    OD39115  12.427   4.281   1.742
  753POPC    CC39116  12.556   4.284   1.804
  753POPC    CD39117  12.555   4.284   1.957
  753POPC    OE39118  12.686   4.300   2.019
  753POPC   C1A39119  12.732   4.421   2.047
  753POPC    OF39120  12.664   4.522   2.023
  753POPC   C1B39121  12.859   4.420   2.123
  753POPC   C1C39122  12.832   4.460   2.268
  753POPC   C1D39123  12.952   4.439   2.361
  753POPC   C1E39124  12.920   4.496   2.499
  753POPC   C1F39125  13.027   4.469   2.605
  753POPC   C1G39126  13.032   4.321   2.645
  753POPC   C1H39127  13.127   4.299   2.762
  753POPC   C1I39128  13.130   4.152   2.803
  753POPC   C1J39129  13.144   4.118   2.931
  753POPC   C1K39130  13.154   4.227   3.039
  753POPC   C1L39131  13.104   4.180   3.176
  753POPC   C1M39132  12.953   4.150   3.181
  753POPC   C1N39133  12.864   4.273   3.165
  753POPC   C1O39134  12.868   4.366   3.287
  753POPC   C1P39135  12.773   4.483   3.268
  753POPC   C1Q39136  12.775   4.576   3.389
  753POPC   C1R39137  12.679   4.694   3.370
  753POPC    CE39138  12.478   4.157   1.998
  753POPC    OG39139  12.491   4.114   2.134
  753POPC   C2A39140  12.585   4.022   2.157
  753POPC    OH39141  12.629   3.951   2.067
  753POPC   C2B39142  12.606   3.996   2.302
  753POPC   C2C39143  12.720   4.082   2.358
  753POPC   C2D39144  12.752   4.047   2.503
  753POPC   C2E39145  12.638   4.079   2.599
  753POPC   C2F39146  12.675   4.040   2.742
  753POPC   C2G39147  12.560   4.070   2.839
  753POPC   C2H39148  12.599   4.031   2.981
  753POPC   C2I39149  12.488   4.063   3.081
  753POPC   C2J39150  12.532   4.028   3.223
  753POPC   C2K39151  12.424   4.056   3.328
  753POPC   C2L39152  12.304   3.962   3.312
  753POPC   C2M39153  12.197   3.983   3.420
  753POPC   C2N39154  12.243   3.934   3.557
  753POPC   C2O39155  12.133   3.950   3.661
  753POPC   C2P39156  12.177   3.897   3.798
  754POPC   CN139157  12.652   4.757   1.820
  754POPC   CN239158  12.471   4.888   1.896
  754POPC   CN339159  12.675   4.993   1.833
  754POPC   NTM39160  12.582   4.885   1.800
  754POPC    CA39161  12.539   4.894   1.659
  754POPC    CB39162  12.451   5.012   1.610
  754POPC    OA39163  12.318   5.011   1.663
  754POPC     P39164  12.231   5.137   1.626
  754POPC    OB39165  12.266   5.175   1.488
  754POPC    OC39166  12.093   5.101   1.658
  754POPC    OD39167  12.286   5.241   1.729
  754POPC    CC39168  12.244   5.207   1.862
  754POPC    CD39169  12.309   5.291   1.973
  754POPC    OE39170  12.319   5.222   2.101
  754POPC   C1A39171  12.442   5.183   2.135
  754POPC    OF39172  12.526   5.159   2.048
  754POPC   C1B39173  12.459   5.149   2.279
  754POPC   C1C39174  12.526   5.264   2.354
  754POPC   C1D39175  12.544   5.232   2.502
  754POPC   C1E39176  12.606   5.350   2.577
  754POPC   C1F39177  12.623   5.324   2.728
  754POPC   C1G39178  12.489   5.306   2.800
  754POPC   C1H39179  12.500   5.313   2.953
  754POPC   C1I39180  12.572   5.193   3.016
  754POPC   C1J39181  12.540   5.157   3.140
  754POPC   C1K39182  12.432   5.235   3.216
  754POPC   C1L39183  12.347   5.144   3.306
  754POPC   C1M39184  12.410   5.115   3.442
  754POPC   C1N39185  12.325   5.013   3.518
  754POPC   C1O39186  12.365   4.999   3.665
  754POPC   C1P39187  12.323   5.121   3.748
  754POPC   C1Q39188  12.353   5.100   3.896
  754POPC   C1R39189  12.306   5.220   3.979
  754POPC    CE39190  12.240   5.429   1.972
  754POPC    OG39191  12.098   5.425   1.995
  754POPC   C2A39192  12.039   5.542   2.016
  754POPC    OH39193  12.100   5.648   2.008
  754POPC   C2B39194  11.896   5.529   2.051
  754POPC   C2C39195  11.875   5.549   2.201
  754POPC   C2D39196  11.733   5.513   2.243
  754POPC   C2E39197  11.710   5.550   2.389
  754POPC   C2F39198  11.576   5.500   2.441
  754POPC   C2G39199  11.562   5.536   2.589
  754POPC   C2H39200  11.442   5.468   2.653
  754POPC   C2I39201  11.436   5.504   2.802
  754POPC   C2J39202  11.324   5.429   2.873
  754POPC   C2K39203  11.313   5.468   3.021
  754POPC   C2L39204  11.435   5.427   3.104
  754POPC   C2M39205  11.412   5.461   3.251
  754POPC   C2N39206  11.531   5.420   3.338
  754POPC   C2O39207  11.502   5.451   3.485
  754POPC   C2P39208  11.623   5.418   3.572
  755POPC   CN139209  11.303   6.128   1.909
  755POPC   CN239210  11.198   5.918   1.865
  755POPC   CN339211  11.125   6.116   1.755
  755POPC   NTM39212  11.243   6.045   1.805
  755POPC    CA39213  11.335   6.023   1.691
  755POPC    CB39214  11.472   5.955   1.712
  755POPC    OA39215  11.468   5.822   1.764
  755POPC     P39216  11.610   5.769   1.804
  755POPC    OB39217  11.600   5.627   1.834
  755POPC    OC39218  11.708   5.817   1.705
  755POPC    OD39219  11.629   5.852   1.936
  755POPC    CC39220  11.559   5.793   2.046
  755POPC    CD39221  11.531   5.883   2.168
  755POPC    OE39222  11.403   5.951   2.172
  755POPC   C1A39223  11.301   5.884   2.226
  755POPC    OF39224  11.300   5.761   2.229
  755POPC   C1B39225  11.190   5.972   2.269
  755POPC   C1C39226  11.206   6.004   2.418
  755POPC   C1D39227  11.108   6.111   2.465
  755POPC   C1E39228  11.130   6.139   2.613
  755POPC   C1F39229  11.049   6.257   2.666
  755POPC   C1G39230  11.092   6.390   2.602
  755POPC   C1H39231  11.027   6.510   2.671
  755POPC   C1I39232  11.090   6.538   2.808
  755POPC   C1J39233  11.077   6.658   2.864
  755POPC   C1K39234  10.996   6.768   2.795
  755POPC   C1L39235  11.058   6.906   2.820
  755POPC   C1M39236  10.973   7.020   2.764
  755POPC   C1N39237  10.845   7.041   2.845
  755POPC   C1O39238  10.765   7.159   2.790
  755POPC   C1P39239  10.642   7.186   2.876
  755POPC   C1Q39240  10.566   7.309   2.824
  755POPC   C1R39241  10.448   7.341   2.916
  755POPC    CE39242  11.654   5.970   2.196
  755POPC    OG39243  11.751   5.903   2.279
  755POPC   C2A39244  11.851   5.978   2.325
  755POPC    OH39245  11.890   6.075   2.261
  755POPC   C2B39246  11.924   5.913   2.436
  755POPC   C2C39247  11.854   5.936   2.570
  755POPC   C2D39248  11.938   5.884   2.687
  755POPC   C2E39249  11.866   5.896   2.821
  755POPC   C2F39250  11.755   5.792   2.837
  755POPC   C2G39251  11.671   5.813   2.964
  755POPC   C2H39252  11.749   5.793   3.094
  755POPC   C2I39253  11.659   5.823   3.214
  755POPC   C2J39254  11.734   5.804   3.347
  755POPC   C2K39255  11.645   5.835   3.468
  755POPC   C2L39256  11.614   5.985   3.481
  755POPC   C2M39257  11.524   6.011   3.602
  755POPC   C2N39258  11.501   6.160   3.626
  755POPC   C2O39259  11.628   6.231   3.675
  755POPC   C2P39260  11.603   6.380   3.699
  756POPC   CN139261  12.093   6.117   1.975
  756POPC   CN239262  12.167   5.920   1.866
  756POPC   CN339263  11.967   5.918   1.993
  756POPC   NTM39264  12.048   5.998   1.901
  756POPC    CA39265  11.972   6.030   1.778
  756POPC    CB39266  11.837   6.106   1.784
  756POPC    OA39267  11.845   6.239   1.834
  756POPC     P39268  11.700   6.287   1.875
  756POPC    OB39269  11.628   6.297   1.748
  756POPC    OC39270  11.656   6.198   1.982
  756POPC    OD39271  11.746   6.428   1.926
  756POPC    CC39272  11.803   6.419   2.057
  756POPC    CD39273  11.902   6.532   2.085
  756POPC    OE39274  11.993   6.507   2.196
  756POPC   C1A39275  12.105   6.440   2.171
  756POPC    OF39276  12.135   6.408   2.055
  756POPC   C1B39277  12.187   6.416   2.292
  756POPC   C1C39278  12.163   6.278   2.351
  756POPC   C1D39279  12.250   6.257   2.475
  756POPC   C1E39280  12.242   6.112   2.522
  756POPC   C1F39281  12.330   6.083   2.644
  756POPC   C1G39282  12.277   6.150   2.771
  756POPC   C1H39283  12.365   6.113   2.891
  756POPC   C1I39284  12.313   6.176   3.020
  756POPC   C1J39285  12.399   6.205   3.117
  756POPC   C1K39286  12.548   6.179   3.094
  756POPC   C1L39287  12.615   6.123   3.220
  756POPC   C1M39288  12.762   6.093   3.193
  756POPC   C1N39289  12.828   6.019   3.310
  756POPC   C1O39290  12.850   6.105   3.435
  756POPC   C1P39291  12.961   6.209   3.414
  756POPC   C1Q39292  12.989   6.289   3.541
  756POPC   C1R39293  13.051   6.204   3.652
  756POPC    CE39294  11.824   6.664   2.088
  756POPC    OG39295  11.724   6.673   2.191
  756POPC   C2A39296  11.710   6.793   2.248
  756POPC    OH39297  11.773   6.891   2.208
  756POPC   C2B39298  11.613   6.790   2.359
  756POPC   C2C39299  11.681   6.756   2.491
  756POPC   C2D39300  11.577   6.734   2.601
  756POPC   C2E39301  11.643   6.712   2.737
  756POPC   C2F39302  11.535   6.693   2.844
  756POPC   C2G39303  11.595   6.684   2.984
  756POPC   C2H39304  11.486   6.679   3.092
  756POPC   C2I39305  11.404   6.808   3.095
  756POPC   C2J39306  11.287   6.798   3.192
  756POPC   C2K39307  11.199   6.924   3.180
  756POPC   C2L39308  11.073   6.918   3.267
  756POPC   C2M39309  11.101   6.935   3.416
  756POPC   C2N39310  11.157   7.074   3.449
  756POPC   C2O39311  11.174   7.097   3.599
  756POPC   C2P39312  11.039   7.112   3.669
  757POPC   CN139313  11.045   8.395   1.897
  757POPC   CN239314  11.265   8.425   1.985
  757POPC   CN339315  11.090   8.362   2.130
  757POPC   NTM39316  11.143   8.344   1.994
  757POPC    CA39317  11.179   8.202   1.969
  757POPC    CB39318  11.070   8.094   1.949
  757POPC    OA39319  10.966   8.083   2.047
  757POPC     P39320  10.879   7.956   2.016
  757POPC    OB39321  10.755   7.968   2.093
  757POPC    OC39322  10.874   7.926   1.872
  757POPC    OD39323  10.971   7.847   2.082
  757POPC    CC39324  10.945   7.828   2.221
  757POPC    CD39325  11.070   7.791   2.302
  757POPC    OE39326  11.044   7.718   2.425
  757POPC   C1A39327  11.024   7.586   2.421
  757POPC    OF39328  11.029   7.524   2.315
  757POPC   C1B39329  10.995   7.528   2.554
  757POPC   C1C39330  11.121   7.473   2.622
  757POPC   C1D39331  11.101   7.470   2.774
  757POPC   C1E39332  11.223   7.411   2.845
  757POPC   C1F39333  11.222   7.454   2.992
  757POPC   C1G39334  11.335   7.388   3.071
  757POPC   C1H39335  11.359   7.455   3.207
  757POPC   C1I39336  11.238   7.451   3.301
  757POPC   C1J39337  11.255   7.447   3.433
  757POPC   C1K39338  11.396   7.446   3.493
  757POPC   C1L39339  11.392   7.488   3.640
  757POPC   C1M39340  11.530   7.475   3.704
  757POPC   C1N39341  11.528   7.503   3.855
  757POPC   C1O39342  11.447   7.401   3.935
  757POPC   C1P39343  11.509   7.261   3.934
  757POPC   C1Q39344  11.419   7.161   4.006
  757POPC   C1R39345  11.479   7.021   4.003
  757POPC    CE39346  11.153   7.920   2.316
  757POPC    OG39347  11.087   8.027   2.386
  757POPC   C2A39348  11.160   8.134   2.415
  757POPC    OH39349  11.259   8.163   2.348
  757POPC   C2B39350  11.096   8.224   2.514
  757POPC   C2C39351  11.146   8.198   2.657
  757POPC   C2D39352  11.096   8.065   2.715
  757POPC   C2E39353  11.162   8.034   2.849
  757POPC   C2F39354  11.110   7.900   2.902
  757POPC   C2G39355  11.187   7.849   3.025
  757POPC   C2H39356  11.167   7.934   3.150
  757POPC   C2I39357  11.241   7.869   3.267
  757POPC   C2J39358  11.228   7.949   3.396
  757POPC   C2K39359  11.302   7.877   3.509
  757POPC   C2L39360  11.292   7.954   3.641
  757POPC   C2M39361  11.365   7.879   3.752
  757POPC   C2N39362  11.357   7.955   3.885
  757POPC   C2O39363  11.434   7.881   3.994
  757POPC   C2P39364  11.426   7.955   4.127
  758POPC   CN139365  11.520   9.084   1.933
  758POPC   CN239366  11.692   9.064   2.099
  758POPC   CN339367  11.497   8.928   2.113
  758POPC   NTM39368  11.593   8.989   2.020
  758POPC    CA39369  11.654   8.878   1.944
  758POPC    CB39370  11.754   8.905   1.828
  758POPC    OA39371  11.871   8.981   1.859
  758POPC     P39372  11.995   8.886   1.880
  758POPC    OB39373  11.964   8.808   2.000
  758POPC    OC39374  12.015   8.818   1.752
  758POPC    OD39375  12.106   8.993   1.906
  758POPC    CC39376  12.100   9.037   2.042
  758POPC    CD39377  12.188   9.160   2.074
  758POPC    OE39378  12.195   9.193   2.215
  758POPC   C1A39379  12.256   9.113   2.302
  758POPC    OF39380  12.321   9.015   2.264
  758POPC   C1B39381  12.239   9.160   2.441
  758POPC   C1C39382  12.244   9.047   2.544
  758POPC   C1D39383  12.225   9.098   2.688
  758POPC   C1E39384  12.332   9.201   2.728
  758POPC   C1F39385  12.335   9.227   2.879
  758POPC   C1G39386  12.207   9.291   2.934
  758POPC   C1H39387  12.218   9.298   3.086
  758POPC   C1I39388  12.098   9.366   3.151
  758POPC   C1J39389  12.112   9.419   3.272
  758POPC   C1K39390  12.248   9.408   3.343
  758POPC   C1L39391  12.231   9.381   3.492
  758POPC   C1M39392  12.368   9.366   3.560
  758POPC   C1N39393  12.355   9.328   3.708
  758POPC   C1O39394  12.293   9.439   3.792
  758POPC   C1P39395  12.272   9.393   3.936
  758POPC   C1Q39396  12.203   9.503   4.018
  758POPC   C1R39397  12.169   9.452   4.158
  758POPC    CE39398  12.125   9.274   1.991
  758POPC    OG39399  11.994   9.314   2.036
  758POPC   C2A39400  11.996   9.408   2.131
  758POPC    OH39401  12.075   9.502   2.119
  758POPC   C2B39402  11.877   9.406   2.219
  758POPC   C2C39403  11.919   9.436   2.363
  758POPC   C2D39404  11.803   9.429   2.463
  758POPC   C2E39405  11.855   9.461   2.603
  758POPC   C2F39406  11.746   9.452   2.709
  758POPC   C2G39407  11.802   9.494   2.845
  758POPC   C2H39408  11.694   9.488   2.954
  758POPC   C2I39409  11.745   9.547   3.085
  758POPC   C2J39410  11.634   9.547   3.190
  758POPC   C2K39411  11.672   9.626   3.316
  758POPC   C2L39412  11.772   9.556   3.409
  758POPC   C2M39413  11.710   9.432   3.474
  758POPC   C2N39414  11.796   9.376   3.588
  758POPC   C2O39415  11.793   9.468   3.710
  758POPC   C2P39416  11.870   9.406   3.827
  759POPC   CN139417  12.045   9.482   1.632
  759POPC   CN239418  12.210   9.596   1.758
  759POPC   CN339419  12.063   9.719   1.614
  759POPC   NTM39420  12.073   9.605   1.706
  759POPC    CA39421  11.978   9.611   1.819
  759POPC    CB39422  11.964   9.740   1.903
  759POPC    OA39423  11.890   9.842   1.837
  759POPC     P39424  11.890   9.978   1.916
  759POPC    OB39425  12.029  10.006   1.953
  759POPC    OC39426  11.810  10.074   1.837
  759POPC    OD39427  11.811   9.941   2.046
  759POPC    CC39428  11.673   9.916   2.021
  759POPC    CD39429  11.581   9.911   2.144
  759POPC    OE39430  11.542  10.042   2.195
  759POPC   C1A39431  11.457  10.118   2.125
  759POPC    OF39432  11.409  10.078   2.018
  759POPC   C1B39433  11.424  10.246   2.193
  759POPC   C1C39434  11.286  10.299   2.152
  759POPC   C1D39435  11.236  10.413   2.241
  759POPC   C1E39436  11.205  10.363   2.382
  759POPC   C1F39437  11.138  10.469   2.470
  759POPC   C1G39438  11.126  10.411   2.611
  759POPC   C1H39439  11.055  10.501   2.712
  759POPC   C1I39440  11.067  10.435   2.850
  759POPC   C1J39441  10.984  10.460   2.951
  759POPC   C1K39442  10.868  10.559   2.940
  759POPC   C1L39443  10.877  10.671   3.045
  759POPC   C1M39444  10.865  10.620   3.189
  759POPC   C1N39445  10.884  10.735   3.289
  759POPC   C1O39446  10.872  10.685   3.433
  759POPC   C1P39447  10.892  10.799   3.532
  759POPC   C1Q39448  10.884  10.748   3.676
  759POPC   C1R39449  10.903  10.863   3.775
  759POPC    CE39450  11.651   9.816   2.243
  759POPC    OG39451  11.583   9.788   2.367
  759POPC   C2A39452  11.641   9.829   2.479
  759POPC    OH39453  11.753   9.881   2.478
  759POPC   C2B39454  11.565   9.791   2.600
  759POPC   C2C39455  11.574   9.895   2.712
  759POPC   C2D39456  11.505   9.847   2.839
  759POPC   C2E39457  11.513   9.953   2.949
  759POPC   C2F39458  11.465   9.896   3.083
  759POPC   C2G39459  11.471  10.001   3.194
  759POPC   C2H39460  11.431   9.939   3.328
  759POPC   C2I39461  11.419  10.045   3.437
  759POPC   C2J39462  11.380   9.987   3.573
  759POPC   C2K39463  11.498   9.918   3.643
  759POPC   C2L39464  11.452   9.857   3.776
  759POPC   C2M39465  11.569   9.804   3.859
  759POPC   C2N39466  11.653   9.918   3.920
  759POPC   C2O39467  11.763   9.862   4.010
  759POPC   C2P39468  11.841   9.975   4.076
  760POPC   CN139469  12.603   9.857   1.818
  760POPC   CN239470  12.532  10.030   1.671
  760POPC   CN339471  12.378   9.938   1.826
  760POPC   NTM39472  12.518   9.977   1.807
  760POPC    CA39473  12.557  10.084   1.903
  760POPC    CB39474  12.578  10.048   2.052
  760POPC    OA39475  12.477   9.966   2.108
  760POPC     P39476  12.522   9.893   2.240
  760POPC    OB39477  12.413   9.803   2.278
  760POPC    OC39478  12.659   9.843   2.219
  760POPC    OD39479  12.521  10.018   2.334
  760POPC    CC39480  12.616  10.006   2.439
  760POPC    CD39481  12.616  10.124   2.537
  760POPC    OE39482  12.719  10.106   2.639
  760POPC   C1A39483  12.764  10.213   2.704
  760POPC    OF39484  12.745  10.327   2.660
  760POPC   C1B39485  12.858  10.178   2.813
  760POPC   C1C39486  12.795  10.181   2.953
  760POPC   C1D39487  12.689  10.073   2.975
  760POPC   C1E39488  12.640  10.075   3.120
  760POPC   C1F39489  12.533   9.968   3.143
  760POPC   C1G39490  12.496   9.961   3.291
  760POPC   C1H39491  12.390   9.855   3.322
  760POPC   C1I39492  12.251   9.896   3.272
  760POPC   C1J39493  12.141   9.868   3.343
  760POPC   C1K39494  12.149   9.798   3.479
  760POPC   C1L39495  12.143   9.897   3.595
  760POPC   C1M39496  12.158   9.825   3.729
  760POPC   C1N39497  12.163   9.923   3.847
  760POPC   C1O39498  12.291  10.006   3.849
  760POPC   C1P39499  12.291  10.105   3.966
  760POPC   C1Q39500  12.420  10.186   3.969
  760POPC   C1R39501  12.417  10.289   4.082
  760POPC    CE39502  12.472  10.130   2.592
  760POPC    OG39503  12.442  10.238   2.681
  760POPC   C2A39504  12.319  10.243   2.729
  760POPC    OH39505  12.235  10.157   2.702
  760POPC   C2B39506  12.295  10.360   2.816
  760POPC   C2C39507  12.333  10.332   2.961
  760POPC   C2D39508  12.294  10.452   3.047
  760POPC   C2E39509  12.332  10.439   3.195
  760POPC   C2F39510  12.265  10.321   3.266
  760POPC   C2G39511  12.254  10.343   3.417
  760POPC   C2H39512  12.390  10.363   3.485
  760POPC   C2I39513  12.376  10.402   3.633
  760POPC   C2J39514  12.304  10.536   3.651
  760POPC   C2K39515  12.300  10.577   3.799
  760POPC   C2L39516  12.220  10.707   3.816
  760POPC   C2M39517  12.222  10.757   3.961
  760POPC   C2N39518  12.360  10.811   4.000
  760POPC   C2O39519  12.360  10.864   4.144
  760POPC   C2P39520  12.496  10.922   4.181
  761POPC   CN139521  12.638  10.568   2.253
  761POPC   CN239522  12.578  10.798   2.255
  761POPC   CN339523  12.767  10.721   2.381
  761POPC   NTM39524  12.692  10.705   2.255
  761POPC    CA39525  12.775  10.723   2.134
  761POPC    CB39526  12.866  10.846   2.112
  761POPC    OA39527  12.815  10.978   2.137
  761POPC     P39528  12.915  11.089   2.086
  761POPC    OB39529  12.959  11.060   1.948
  761POPC    OC39530  12.856  11.219   2.118
  761POPC    OD39531  13.042  11.060   2.175
  761POPC    CC39532  13.055  11.141   2.292
  761POPC    CD39533  13.009  11.075   2.424
  761POPC    OE39534  13.028  11.165   2.537
  761POPC   C1A39535  12.930  11.176   2.626
  761POPC    OF39536  12.826  11.111   2.614
  761POPC   C1B39537  12.958  11.273   2.735
  761POPC   C1C39538  12.993  11.205   2.868
  761POPC   C1D39539  13.036  11.309   2.971
  761POPC   C1E39540  13.047  11.246   3.110
  761POPC   C1F39541  13.089  11.344   3.221
  761POPC   C1G39542  12.997  11.467   3.231
  761POPC   C1H39543  12.978  11.516   3.375
  761POPC   C1I39544  12.879  11.427   3.450
  761POPC   C1J39545  12.860  11.436   3.581
  761POPC   C1K39546  12.935  11.537   3.668
  761POPC   C1L39547  12.957  11.480   3.808
  761POPC   C1M39548  13.018  11.580   3.906
  761POPC   C1N39549  13.155  11.631   3.861
  761POPC   C1O39550  13.223  11.717   3.968
  761POPC   C1P39551  13.277  11.631   4.083
  761POPC   C1Q39552  13.358  11.715   4.182
  761POPC   C1R39553  13.420  11.625   4.290
  761POPC    CE39554  13.086  10.942   2.435
  761POPC    OG39555  13.041  10.852   2.537
  761POPC   C2A39556  13.108  10.853   2.652
  761POPC    OH39557  13.213  10.915   2.665
  761POPC   C2B39558  13.046  10.770   2.757
  761POPC   C2C39559  13.098  10.626   2.757
  761POPC   C2D39560  13.035  10.542   2.869
  761POPC   C2E39561  13.087  10.581   3.008
  761POPC   C2F39562  13.024  10.499   3.121
  761POPC   C2G39563  12.876  10.534   3.142
  761POPC   C2H39564  12.811  10.451   3.252
  761POPC   C2I39565  12.869  10.479   3.391
  761POPC   C2J39566  12.800  10.398   3.501
  761POPC   C2K39567  12.827  10.247   3.489
  761POPC   C2L39568  12.752  10.170   3.598
  761POPC   C2M39569  12.778  10.019   3.585
  761POPC   C2N39570  12.696   9.942   3.688
  761POPC   C2O39571  12.716   9.791   3.673
  761POPC   C2P39572  12.629   9.715   3.773
  762POPC   CN139573  12.440  11.230   2.435
  762POPC   CN239574  12.473  11.465   2.447
  762POPC   CN339575  12.587  11.317   2.598
  762POPC   NTM39576  12.539  11.335   2.460
  762POPC    CA39577  12.650  11.319   2.364
  762POPC    CB39578  12.766  11.421   2.354
  762POPC    OA39579  12.847  11.443   2.470
  762POPC     P39580  12.978  11.523   2.434
  762POPC    OB39581  13.076  11.520   2.544
  762POPC    OC39582  13.022  11.488   2.298
  762POPC    OD39583  12.911  11.665   2.420
  762POPC    CC39584  12.949  11.755   2.524
  762POPC    CD39585  12.841  11.860   2.554
  762POPC    OE39586  12.887  11.971   2.636
  762POPC   C1A39587  12.854  12.095   2.603
  762POPC    OF39588  12.843  12.128   2.484
  762POPC   C1B39589  12.864  12.186   2.719
  762POPC   C1C39590  12.731  12.190   2.794
  762POPC   C1D39591  12.741  12.262   2.928
  762POPC   C1E39592  12.600  12.296   2.980
  762POPC   C1F39593  12.603  12.353   3.122
  762POPC   C1G39594  12.599  12.241   3.227
  762POPC   C1H39595  12.623  12.292   3.370
  762POPC   C1I39596  12.771  12.324   3.393
  762POPC   C1J39597  12.814  12.380   3.505
  762POPC   C1K39598  12.718  12.415   3.619
  762POPC   C1L39599  12.791  12.407   3.753
  762POPC   C1M39600  12.703  12.454   3.869
  762POPC   C1N39601  12.781  12.445   4.000
  762POPC   C1O39602  12.700  12.502   4.117
  762POPC   C1P39603  12.777  12.489   4.248
  762POPC   C1Q39604  12.701  12.547   4.368
  762POPC   C1R39605  12.692  12.700   4.363
  762POPC    CE39606  12.724  11.779   2.616
  762POPC    OG39607  12.757  11.705   2.735
  762POPC   C2A39608  12.664  11.626   2.786
  762POPC    OH39609  12.561  11.599   2.723
  762POPC   C2B39610  12.702  11.563   2.914
  762POPC   C2C39611  12.655  11.642   3.036
  762POPC   C2D39612  12.734  11.771   3.055
  762POPC   C2E39613  12.683  11.858   3.171
  762POPC   C2F39614  12.697  11.790   3.307
  762POPC   C2G39615  12.656  11.887   3.419
  762POPC   C2H39616  12.665  11.821   3.556
  762POPC   C2I39617  12.630  11.921   3.666
  762POPC   C2J39618  12.635  11.855   3.803
  762POPC   C2K39619  12.596  11.954   3.913
  762POPC   C2L39620  12.590  11.888   4.051
  762POPC   C2M39621  12.727  11.847   4.106
  762POPC   C2N39622  12.812  11.969   4.145
  762POPC   C2O39623  12.946  11.924   4.203
  762POPC   C2P39624  13.032  12.045   4.241
  763POPC   CN139625  12.974  12.786   2.126
  763POPC   CN239626  12.794  12.849   1.980
  763POPC   CN339627  12.764  12.675   2.139
  763POPC   NTM39628  12.828  12.805   2.116
  763POPC    CA39629  12.777  12.900   2.219
  763POPC    CB39630  12.816  13.050   2.211
  763POPC    OA39631  12.956  13.077   2.209
  763POPC     P39632  12.992  13.221   2.159
  763POPC    OB39633  13.137  13.225   2.136
  763POPC    OC39634  12.900  13.256   2.049
  763POPC    OD39635  12.951  13.311   2.279
  763POPC    CC39636  13.030  13.291   2.396
  763POPC    CD39637  13.009  13.400   2.503
  763POPC    OE39638  13.091  13.385   2.621
  763POPC   C1A39639  13.140  13.493   2.680
  763POPC    OF39640  13.101  13.606   2.649
  763POPC   C1B39641  13.226  13.462   2.797
  763POPC   C1C39642  13.359  13.397   2.758
  763POPC   C1D39643  13.444  13.374   2.883
  763POPC   C1E39644  13.576  13.305   2.848
  763POPC   C1F39645  13.666  13.296   2.971
  763POPC   C1G39646  13.797  13.224   2.940
  763POPC   C1H39647  13.890  13.230   3.061
  763POPC   C1I39648  14.020  13.154   3.037
  763POPC   C1J39649  14.134  13.204   3.083
  763POPC   C1K39650  14.135  13.340   3.154
  763POPC   C1L39651  14.230  13.342   3.274
  763POPC   C1M39652  14.234  13.482   3.335
  763POPC   C1N39653  14.316  13.490   3.464
  763POPC   C1O39654  14.249  13.416   3.581
  763POPC   C1P39655  14.330  13.434   3.709
  763POPC   C1Q39656  14.263  13.363   3.826
  763POPC   C1R39657  14.345  13.382   3.954
  763POPC    CE39658  12.857  13.412   2.527
  763POPC    OG39659  12.783  13.292   2.557
  763POPC   C2A39660  12.651  13.301   2.551
  763POPC    OH39661  12.595  13.406   2.516
  763POPC   C2B39662  12.584  13.173   2.586
  763POPC   C2C39663  12.443  13.191   2.643
  763POPC   C2D39664  12.438  13.259   2.780
  763POPC   C2E39665  12.492  13.171   2.893
  763POPC   C2F39666  12.478  13.243   3.026
  763POPC   C2G39667  12.515  13.153   3.144
  763POPC   C2H39668  12.491  13.225   3.276
  763POPC   C2I39669  12.510  13.130   3.394
  763POPC   C2J39670  12.486  13.202   3.527
  763POPC   C2K39671  12.501  13.106   3.645
  763POPC   C2L39672  12.489  13.178   3.780
  763POPC   C2M39673  12.607  13.273   3.804
  763POPC   C2N39674  12.594  13.344   3.939
  763POPC   C2O39675  12.709  13.442   3.965
  763POPC   C2P39676  12.844  13.371   3.981
  764POPC   CN139677  11.706  13.349   2.077
  764POPC   CN239678  11.837  13.515   1.971
  764POPC   CN339679  11.603  13.552   2.012
  764POPC   NTM39680  11.727  13.494   2.066
  764POPC    CA39681  11.757  13.546   2.201
  764POPC    CB39682  11.771  13.698   2.224
  764POPC    OA39683  11.871  13.765   2.147
  764POPC     P39684  11.883  13.914   2.192
  764POPC    OB39685  11.982  13.967   2.098
  764POPC    OC39686  11.749  13.972   2.203
  764POPC    OD39687  11.947  13.893   2.332
  764POPC    CC39688  11.972  14.018   2.395
  764POPC    CD39689  12.009  14.009   2.544
  764POPC    OE39690  12.145  13.964   2.569
  764POPC   C1A39691  12.239  14.057   2.586
  764POPC    OF39692  12.220  14.173   2.546
  764POPC   C1B39693  12.370  14.004   2.627
  764POPC   C1C39694  12.386  13.982   2.778
  764POPC   C1D39695  12.304  13.862   2.830
  764POPC   C1E39696  12.330  13.829   2.977
  764POPC   C1F39697  12.473  13.779   3.003
  764POPC   C1G39698  12.501  13.644   2.936
  764POPC   C1H39699  12.649  13.605   2.941
  764POPC   C1I39700  12.736  13.695   2.853
  764POPC   C1J39701  12.865  13.710   2.881
  764POPC   C1K39702  12.927  13.637   3.000
  764POPC   C1L39703  13.058  13.702   3.044
  764POPC   C1M39704  13.124  13.618   3.153
  764POPC   C1N39705  13.262  13.672   3.190
  764POPC   C1O39706  13.324  13.588   3.301
  764POPC   C1P39707  13.462  13.641   3.340
  764POPC   C1Q39708  13.525  13.563   3.456
  764POPC   C1R39709  13.451  13.585   3.588
  764POPC    CE39710  11.896  13.928   2.610
  764POPC    OG39711  11.883  13.945   2.752
  764POPC   C2A39712  11.783  13.881   2.812
  764POPC    OH39713  11.706  13.808   2.750
  764POPC   C2B39714  11.778  13.909   2.958
  764POPC   C2C39715  11.729  13.788   3.038
  764POPC   C2D39716  11.725  13.820   3.188
  764POPC   C2E39717  11.673  13.701   3.268
  764POPC   C2F39718  11.668  13.728   3.419
  764POPC   C2G39719  11.567  13.837   3.456
  764POPC   C2H39720  11.560  13.856   3.608
  764POPC   C2I39721  11.461  13.967   3.644
  764POPC   C2J39722  11.448  13.989   3.795
  764POPC   C2K39723  11.381  13.871   3.866
  764POPC   C2L39724  11.355  13.903   4.014
  764POPC   C2M39725  11.286  13.786   4.083
  764POPC   C2N39726  11.246  13.817   4.228
  764POPC   C2O39727  11.367  13.836   4.320
  764POPC   C2P39728  11.322  13.864   4.464
  765POPC   CN139729  12.270  14.168   2.202
  765POPC   CN239730  12.312  14.378   2.096
  765POPC   CN339731  12.384  14.176   1.994
  765POPC   NTM39732  12.276  14.238   2.073
  765POPC    CA39733  12.150  14.226   1.995
  765POPC    CB39734  12.014  14.264   2.060
  765POPC    OA39735  12.003  14.394   2.119
  765POPC     P39736  11.873  14.395   2.209
  765POPC    OB39737  11.765  14.386   2.110
  765POPC    OC39738  11.896  14.292   2.309
  765POPC    OD39739  11.894  14.540   2.262
  765POPC    CC39740  11.986  14.540   2.370
  765POPC    CD39741  12.052  14.675   2.397
  765POPC    OE39742  12.176  14.660   2.473
  765POPC   C1A39743  12.278  14.739   2.442
  765POPC    OF39744  12.275  14.801   2.335
  765POPC   C1B39745  12.397  14.733   2.530
  765POPC   C1C39746  12.368  14.699   2.677
  765POPC   C1D39747  12.495  14.716   2.760
  765POPC   C1E39748  12.474  14.669   2.904
  765POPC   C1F39749  12.595  14.707   2.989
  765POPC   C1G39750  12.581  14.652   3.131
  765POPC   C1H39751  12.682  14.714   3.228
  765POPC   C1I39752  12.648  14.860   3.260
  765POPC   C1J39753  12.678  14.910   3.379
  765POPC   C1K39754  12.747  14.822   3.483
  765POPC   C1L39755  12.706  14.862   3.625
  765POPC   C1M39756  12.776  14.773   3.728
  765POPC   C1N39757  12.726  14.805   3.868
  765POPC   C1O39758  12.794  14.715   3.972
  765POPC   C1P39759  12.737  14.736   4.113
  765POPC   C1Q39760  12.592  14.689   4.129
  765POPC   C1R39761  12.579  14.536   4.120
  765POPC    CE39762  11.944  14.770   2.452
  765POPC    OG39763  11.880  14.726   2.573
  765POPC   C2A39764  11.787  14.807   2.625
  765POPC    OH39765  11.753  14.911   2.570
  765POPC   C2B39766  11.729  14.756   2.752
  765POPC   C2C39767  11.812  14.800   2.874
  765POPC   C2D39768  11.742  14.760   3.005
  765POPC   C2E39769  11.828  14.791   3.128
  765POPC   C2F39770  11.946  14.695   3.140
  765POPC   C2G39771  12.037  14.729   3.259
  765POPC   C2H39772  12.154  14.631   3.263
  765POPC   C2I39773  12.264  14.667   3.363
  765POPC   C2J39774  12.222  14.656   3.510
  765POPC   C2K39775  12.346  14.673   3.598
  765POPC   C2L39776  12.316  14.668   3.748
  765POPC   C2M39777  12.239  14.791   3.796
  765POPC   C2N39778  12.219  14.786   3.948
  765POPC   C2O39779  12.150  14.914   3.997
  765POPC   C2P39780  12.132  14.910   4.149
  766POPC   CN139781  12.068  15.429   2.098
  766POPC   CN239782  12.266  15.393   1.971
  766POPC   CN339783  12.255  15.323   2.198
  766POPC   NTM39784  12.178  15.335   2.074
  766POPC    CA39785  12.132  15.203   2.023
  766POPC    CB39786  12.035  15.113   2.104
  766POPC    OA39787  11.904  15.165   2.126
  766POPC     P39788  11.820  15.073   2.223
  766POPC    OB39789  11.688  15.136   2.215
  766POPC    OC39790  11.845  14.935   2.180
  766POPC    OD39791  11.900  15.110   2.353
  766POPC    CC39792  11.835  15.205   2.436
  766POPC    CD39793  11.923  15.320   2.489
  766POPC    OE39794  11.932  15.436   2.401
  766POPC   C1A39795  11.848  15.537   2.420
  766POPC    OF39796  11.747  15.521   2.490
  766POPC   C1B39797  11.873  15.655   2.334
  766POPC   C1C39798  11.968  15.758   2.397
  766POPC   C1D39799  11.909  15.823   2.522
  766POPC   C1E39800  12.011  15.915   2.590
  766POPC   C1F39801  11.957  15.972   2.722
  766POPC   C1G39802  11.930  15.863   2.826
  766POPC   C1H39803  11.871  15.924   2.953
  766POPC   C1I39804  11.833  15.816   3.055
  766POPC   C1J39805  11.838  15.846   3.184
  766POPC   C1K39806  11.880  15.987   3.225
  766POPC   C1L39807  11.831  16.023   3.364
  766POPC   C1M39808  11.877  16.165   3.400
  766POPC   C1N39809  11.840  16.201   3.544
  766POPC   C1O39810  11.887  16.342   3.577
  766POPC   C1P39811  11.852  16.383   3.720
  766POPC   C1Q39812  11.701  16.396   3.745
  766POPC   C1R39813  11.640  16.515   3.671
  766POPC    CE39814  12.056  15.259   2.533
  766POPC    OG39815  12.046  15.172   2.647
  766POPC   C2A39816  12.150  15.093   2.671
  766POPC    OH39817  12.244  15.083   2.592
  766POPC   C2B39818  12.137  15.019   2.799
  766POPC   C2C39819  12.205  15.100   2.909
  766POPC   C2D39820  12.188  15.040   3.048
  766POPC   C2E39821  12.266  15.127   3.147
  766POPC   C2F39822  12.249  15.081   3.292
  766POPC   C2G39823  12.339  15.165   3.382
  766POPC   C2H39824  12.324  15.126   3.529
  766POPC   C2I39825  12.431  15.197   3.612
  766POPC   C2J39826  12.419  15.159   3.759
  766POPC   C2K39827  12.543  15.205   3.836
  766POPC   C2L39828  12.534  15.167   3.983
  766POPC   C2M39829  12.668  15.192   4.052
  766POPC   C2N39830  12.664  15.158   4.201
  766POPC   C2O39831  12.587  15.260   4.285
  766POPC   C2P39832  12.660  15.394   4.294
  767POPC   CN139833  12.912  16.633   2.240
  767POPC   CN239834  12.781  16.796   2.122
  767POPC   CN339835  12.943  16.865   2.281
  767POPC   NTM39836  12.914  16.766   2.176
  767POPC    CA39837  13.018  16.777   2.071
  767POPC    CB39838  13.010  16.689   1.943
  767POPC    OA39839  13.019  16.550   1.970
  767POPC     P39840  12.987  16.462   1.846
  767POPC    OB39841  12.842  16.458   1.822
  767POPC    OC39842  13.084  16.499   1.741
  767POPC    OD39843  13.030  16.322   1.903
  767POPC    CC39844  12.958  16.287   2.022
  767POPC    CD39845  13.034  16.183   2.105
  767POPC    OE39846  12.955  16.120   2.211
  767POPC   C1A39847  12.942  15.988   2.206
  767POPC    OF39848  13.010  15.920   2.128
  767POPC   C1B39849  12.847  15.933   2.305
  767POPC   C1C39850  12.919  15.858   2.417
  767POPC   C1D39851  12.817  15.795   2.512
  767POPC   C1E39852  12.884  15.702   2.613
  767POPC   C1F39853  12.781  15.625   2.696
  767POPC   C1G39854  12.705  15.711   2.797
  767POPC   C1H39855  12.794  15.759   2.912
  767POPC   C1I39856  12.715  15.847   3.009
  767POPC   C1J39857  12.744  15.847   3.139
  767POPC   C1K39858  12.857  15.760   3.193
  767POPC   C1L39859  12.833  15.714   3.337
  767POPC   C1M39860  12.837  15.829   3.438
  767POPC   C1N39861  12.818  15.783   3.583
  767POPC   C1O39862  12.678  15.727   3.609
  767POPC   C1P39863  12.662  15.689   3.756
  767POPC   C1Q39864  12.522  15.636   3.786
  767POPC   C1R39865  12.507  15.602   3.934
  767POPC    CE39866  13.166  16.249   2.146
  767POPC    OG39867  13.157  16.359   2.237
  767POPC   C2A39868  13.261  16.441   2.240
  767POPC    OH39869  13.330  16.458   2.139
  767POPC   C2B39870  13.270  16.520   2.365
  767POPC   C2C39871  13.341  16.437   2.471
  767POPC   C2D39872  13.351  16.503   2.608
  767POPC   C2E39873  13.418  16.403   2.703
  767POPC   C2F39874  13.441  16.454   2.846
  767POPC   C2G39875  13.310  16.479   2.922
  767POPC   C2H39876  13.335  16.498   3.072
  767POPC   C2I39877  13.375  16.366   3.139
  767POPC   C2J39878  13.416  16.383   3.285
  767POPC   C2K39879  13.301  16.426   3.376
  767POPC   C2L39880  13.349  16.433   3.521
  767POPC   C2M39881  13.237  16.478   3.615
  767POPC   C2N39882  13.281  16.477   3.762
  767POPC   C2O39883  13.309  16.336   3.813
  767POPC   C2P39884  13.354  16.339   3.959
  768POPC   CN139885  13.806   1.361   1.997
  768POPC   CN239886  13.942   1.369   1.803
  768POPC   CN339887  13.808   1.177   1.843
  768POPC   NTM39888  13.813   1.323   1.855
  768POPC    CA39889  13.706   1.387   1.774
  768POPC    CB39890  13.556   1.363   1.801
  768POPC    OA39891  13.509   1.421   1.922
  768POPC     P39892  13.358   1.386   1.952
  768POPC    OB39893  13.313   1.485   2.050
  768POPC    OC39894  13.288   1.374   1.822
  768POPC    OD39895  13.388   1.244   2.012
  768POPC    CC39896  13.330   1.224   2.141
  768POPC    CD39897  13.387   1.097   2.206
  768POPC    OE39898  13.306   1.040   2.312
  768POPC   C1A39899  13.338   0.923   2.367
  768POPC    OF39900  13.427   0.851   2.320
  768POPC   C1B39901  13.246   0.883   2.476
  768POPC   C1C39902  13.258   0.968   2.603
  768POPC   C1D39903  13.396   0.959   2.669
  768POPC   C1E39904  13.407   1.045   2.795
  768POPC   C1F39905  13.382   1.194   2.767
  768POPC   C1G39906  13.414   1.285   2.886
  768POPC   C1H39907  13.327   1.260   3.009
  768POPC   C1I39908  13.367   1.358   3.120
  768POPC   C1J39909  13.350   1.328   3.248
  768POPC   C1K39910  13.288   1.195   3.291
  768POPC   C1L39911  13.342   1.152   3.427
  768POPC   C1M39912  13.270   1.028   3.479
  768POPC   C1N39913  13.325   0.986   3.615
  768POPC   C1O39914  13.248   0.868   3.676
  768POPC   C1P39915  13.266   0.738   3.598
  768POPC   C1Q39916  13.188   0.624   3.663
  768POPC   C1R39917  13.207   0.493   3.588
  768POPC    CE39918  13.535   1.131   2.237
  768POPC    OG39919  13.562   1.229   2.338
  768POPC   C2A39920  13.690   1.257   2.361
  768POPC    OH39921  13.779   1.216   2.285
  768POPC   C2B39922  13.714   1.346   2.476
  768POPC   C2C39923  13.755   1.267   2.601
  768POPC   C2D39924  13.769   1.362   2.719
  768POPC   C2E39925  13.811   1.289   2.846
  768POPC   C2F39926  13.802   1.383   2.966
  768POPC   C2G39927  13.837   1.310   3.095
  768POPC   C2H39928  13.807   1.397   3.217
  768POPC   C2I39929  13.842   1.322   3.346
  768POPC   C2J39930  13.810   1.404   3.471
  768POPC   C2K39931  13.659   1.423   3.491
  768POPC   C2L39932  13.631   1.505   3.617
  768POPC   C2M39933  13.481   1.525   3.642
  768POPC   C2N39934  13.414   1.611   3.534
  768POPC   C2O39935  13.267   1.640   3.565
  768POPC   C2P39936  13.179   1.514   3.560
  769POPC   CN139937  13.534  16.637   1.468
  769POPC   CN239938  13.315  16.716   1.412
  769POPC   CN339939  13.350  16.489   1.482
  769POPC   NTM39940  13.391  16.628   1.503
  769POPC    CA39941  13.364  16.663   1.644
  769POPC    CB39942  13.402  16.802   1.700
  769POPC    OA39943  13.542  16.828   1.702
  769POPC     P39944  13.577  16.965   1.768
  769POPC    OB39945  13.723  16.978   1.758
  769POPC    OC39946  13.492   0.085   1.708
  769POPC    OD39947  13.531  16.939   1.917
  769POPC    CC39948  13.638  16.893   1.999
  769POPC    CD39949  13.606  16.782   2.100
  769POPC    OE39950  13.615  16.648   2.046
  769POPC   C1A39951  13.734  16.588   2.041
  769POPC    OF39952  13.838  16.652   2.060
  769POPC   C1B39953  13.728  16.445   2.003
  769POPC   C1C39954  13.659  16.359   2.110
  769POPC   C1D39955  13.730  16.363   2.246
  769POPC   C1E39956  13.665  16.263   2.341
  769POPC   C1F39957  13.734  16.263   2.477
  769POPC   C1G39958  13.687  16.145   2.561
  769POPC   C1H39959  13.753  16.145   2.698
  769POPC   C1I39960  13.703  16.027   2.781
  769POPC   C1J39961  13.688  16.039   2.912
  769POPC   C1K39962  13.722  16.171   2.980
  769POPC   C1L39963  13.754  16.149   3.128
  769POPC   C1M39964  13.789  16.282   3.194
  769POPC   C1N39965  13.813  16.266   3.343
  769POPC   C1O39966  13.844  16.401   3.406
  769POPC   C1P39967  13.868  16.388   3.556
  769POPC   C1Q39968  13.905  16.524   3.616
  769POPC   C1R39969  13.927  16.513   3.766
  769POPC    CE39970  13.470  16.811   2.166
  769POPC    OG39971  13.461  16.930   2.247
  769POPC   C2A39972  13.354  16.936   2.326
  769POPC    OH39973  13.263  16.853   2.318
  769POPC   C2B39974  13.356   0.071   2.416
  769POPC   C2C39975  13.229   0.088   2.500
  769POPC   C2D39976  13.224  16.974   2.619
  769POPC   C2E39977  13.083  16.968   2.677
  769POPC   C2F39978  13.074  16.874   2.797
  769POPC   C2G39979  13.119  16.940   2.927
  769POPC   C2H39980  13.115  16.838   3.041
  769POPC   C2I39981  13.120  16.904   3.178
  769POPC   C2J39982  13.124  16.796   3.287
  769POPC   C2K39983  13.082  16.848   3.425
  769POPC   C2L39984  13.177  16.953   3.485
  769POPC   C2M39985  13.131   0.013   3.625
  769POPC   C2N39986  13.138  16.882   3.726
  769POPC   C2O39987  13.081  16.925   3.862
  769POPC   C2P39988  13.086  16.810   3.962
  770POPC   CN139989  12.957   2.623   1.909
  770POPC   CN239990  12.951   2.631   1.671
  770POPC   CN339991  12.852   2.804   1.802
  770POPC   NTM39992  12.965   2.711   1.793
  770POPC    CA39993  13.091   2.790   1.793
  770POPC    CB39994  13.226   2.719   1.767
  770POPC    OA39995  13.259   2.613   1.857
  770POPC     P39996  13.362   2.511   1.798
  770POPC    OB39997  13.374   2.397   1.889
  770POPC    OC39998  13.326   2.491   1.657
  770POPC    OD39999  13.490   2.603   1.804
  770POPC    CC40000  13.547   2.608   1.935
  770POPC    CD40001  13.640   2.730   1.948
  770POPC    OE40002  13.747   2.714   2.044
  770POPC   C1A40003  13.855   2.791   2.033
  770POPC    OF40004  13.877   2.849   1.926
  770POPC   C1B40005  13.954   2.777   2.143
  770POPC   C1C40006  13.898   2.755   2.284
  770POPC   C1D40007  13.852   2.884   2.354
  770POPC   C1E40008  13.810   2.848   2.496
  770POPC   C1F40009  13.799   2.968   2.590
  770POPC   C1G40010  13.778   2.914   2.732
  770POPC   C1H40011  13.790   3.018   2.843
  770POPC   C1I40012  13.790   2.943   2.976
  770POPC   C1J40013  13.755   2.998   3.092
  770POPC   C1K40014  13.715   3.144   3.109
  770POPC   C1L40015  13.722   3.179   3.257
  770POPC   C1M40016  13.680   3.322   3.290
  770POPC   C1N40017  13.688   3.342   3.441
  770POPC   C1O40018  13.657   3.486   3.483
  770POPC   C1P40019  13.670   3.506   3.634
  770POPC   C1Q40020  13.813   3.485   3.685
  770POPC   C1R40021  13.823   3.506   3.836
  770POPC    CE40022  13.546   2.851   1.966
  770POPC    OG40023  13.476   2.857   2.092
  770POPC   C2A40024  13.382   2.949   2.106
  770POPC    OH40025  13.338   3.011   2.009
  770POPC   C2B40026  13.337   2.965   2.246
  770POPC   C2C40027  13.227   2.865   2.285
  770POPC   C2D40028  13.182   2.883   2.431
  770POPC   C2E40029  13.292   2.850   2.532
  770POPC   C2F40030  13.243   2.874   2.675
  770POPC   C2G40031  13.349   2.837   2.779
  770POPC   C2H40032  13.296   2.860   2.920
  770POPC   C2I40033  13.400   2.825   3.026
  770POPC   C2J40034  13.345   2.849   3.167
  770POPC   C2K40035  13.449   2.817   3.274
  770POPC   C2L40036  13.393   2.840   3.414
  770POPC   C2M40037  13.498   2.816   3.524
  770POPC   C2N40038  13.609   2.922   3.521
  770POPC   C2O40039  13.718   2.899   3.626
  770POPC   C2P40040  13.667   2.918   3.770
  771POPC   CN140041  12.123   2.593   1.700
  771POPC   CN240042  12.311   2.455   1.752
  771POPC   CN340043  12.158   2.392   1.580
  771POPC   NTM40044  12.226   2.506   1.643
  771POPC    CA40045  12.303   2.578   1.539
  771POPC    CB40046  12.396   2.696   1.579
  771POPC    OA40047  12.340   2.807   1.650
  771POPC     P40048  12.454   2.895   1.716
  771POPC    OB40049  12.566   2.900   1.621
  771POPC    OC40050  12.389   3.017   1.763
  771POPC    OD40051  12.495   2.799   1.833
  771POPC    CC40052  12.411   2.812   1.947
  771POPC    CD40053  12.439   2.702   2.052
  771POPC    OE40054  12.342   2.691   2.160
  771POPC   C1A40055  12.218   2.647   2.138
  771POPC    OF40056  12.178   2.620   2.024
  771POPC   C1B40057  12.138   2.636   2.262
  771POPC   C1C40058  12.087   2.772   2.310
  771POPC   C1D40059  12.008   2.756   2.440
  771POPC   C1E40060  11.975   2.893   2.499
  771POPC   C1F40061  11.891   2.884   2.627
  771POPC   C1G40062  11.747   2.840   2.596
  771POPC   C1H40063  11.663   2.837   2.723
  771POPC   C1I40064  11.516   2.810   2.689
  771POPC   C1J40065  11.418   2.851   2.770
  771POPC   C1K40066  11.448   2.924   2.901
  771POPC   C1L40067  11.433   2.830   3.021
  771POPC   C1M40068  11.471   2.902   3.151
  771POPC   C1N40069  11.463   2.809   3.273
  771POPC   C1O40070  11.318   2.769   3.305
  771POPC   C1P40071  11.314   2.674   3.426
  771POPC   C1Q40072  11.171   2.636   3.464
  771POPC   C1R40073  11.092   2.755   3.519
  771POPC    CE40074  12.585   2.720   2.096
  771POPC    OG40075  12.621   2.851   2.144
  771POPC   C2A40076  12.749   2.872   2.173
  771POPC    OH40077  12.837   2.795   2.133
  771POPC   C2B40078  12.775   3.004   2.235
  771POPC   C2C40079  12.754   2.999   2.387
  771POPC   C2D40080  12.782   3.136   2.449
  771POPC   C2E40081  12.747   3.139   2.599
  771POPC   C2F40082  12.840   3.051   2.683
  771POPC   C2G40083  12.790   3.044   2.827
  771POPC   C2H40084  12.883   2.958   2.913
  771POPC   C2I40085  12.826   2.938   3.053
  771POPC   C2J40086  12.923   2.858   3.140
  771POPC   C2K40087  12.868   2.835   3.280
  771POPC   C2L40088  12.972   2.766   3.368
  771POPC   C2M40089  12.919   2.747   3.511
  771POPC   C2N40090  13.028   2.688   3.601
  771POPC   C2O40091  12.976   2.670   3.743
  771POPC   C2P40092  13.086   2.617   3.836
  772POPC   CN140093  12.327   3.101   1.133
  772POPC   CN240094  12.368   3.250   1.313
  772POPC   CN340095  12.430   3.024   1.335
  772POPC   NTM40096  12.421   3.136   1.239
  772POPC    CA40097  12.552   3.177   1.184
  772POPC    CB40098  12.653   3.075   1.125
  772POPC    OA40099  12.711   2.979   1.214
  772POPC     P40100  12.832   3.034   1.300
  772POPC    OB40101  12.892   2.919   1.368
  772POPC    OC40102  12.909   3.125   1.214
  772POPC    OD40103  12.754   3.120   1.405
  772POPC    CC40104  12.842   3.194   1.488
  772POPC    CD40105  12.771   3.289   1.586
  772POPC    OE40106  12.864   3.374   1.659
  772POPC   C1A40107  12.892   3.495   1.613
  772POPC    OF40108  12.830   3.543   1.517
  772POPC   C1B40109  12.998   3.566   1.688
  772POPC   C1C40110  12.947   3.652   1.804
  772POPC   C1D40111  12.906   3.570   1.926
  772POPC   C1E40112  12.876   3.662   2.044
  772POPC   C1F40113  12.848   3.583   2.171
  772POPC   C1G40114  12.835   3.679   2.290
  772POPC   C1H40115  12.809   3.610   2.424
  772POPC   C1I40116  12.928   3.527   2.473
  772POPC   C1J40117  12.966   3.533   2.600
  772POPC   C1K40118  12.893   3.625   2.698
  772POPC   C1L40119  12.904   3.572   2.841
  772POPC   C1M40120  12.847   3.672   2.941
  772POPC   C1N40121  12.872   3.625   3.084
  772POPC   C1O40122  12.828   3.730   3.186
  772POPC   C1P40123  12.863   3.686   3.328
  772POPC   C1Q40124  12.823   3.792   3.429
  772POPC   C1R40125  12.860   3.749   3.571
  772POPC    CE40126  12.678   3.201   1.672
  772POPC    OG40127  12.609   3.266   1.780
  772POPC   C2A40128  12.637   3.221   1.902
  772POPC    OH40129  12.728   3.140   1.922
  772POPC   C2B40130  12.559   3.286   2.010
  772POPC   C2C40131  12.450   3.193   2.063
  772POPC   C2D40132  12.391   3.244   2.194
  772POPC   C2E40133  12.289   3.142   2.247
  772POPC   C2F40134  12.231   3.181   2.384
  772POPC   C2G40135  12.334   3.171   2.497
  772POPC   C2H40136  12.264   3.184   2.633
  772POPC   C2I40137  12.363   3.174   2.749
  772POPC   C2J40138  12.288   3.168   2.882
  772POPC   C2K40139  12.385   3.165   3.001
  772POPC   C2L40140  12.307   3.146   3.132
  772POPC   C2M40141  12.396   3.151   3.256
  772POPC   C2N40142  12.448   3.293   3.282
  772POPC   C2O40143  12.525   3.300   3.415
  772POPC   C2P40144  12.566   3.444   3.444
  773POPC   CN140145  12.523   4.352   1.004
  773POPC   CN240146  12.456   4.135   1.073
  773POPC   CN340147  12.666   4.221   1.143
  773POPC   NTM40148  12.526   4.256   1.115
  773POPC    CA40149  12.458   4.306   1.236
  773POPC    CB40150  12.495   4.442   1.301
  773POPC    OA40151  12.633   4.462   1.330
  773POPC     P40152  12.648   4.587   1.423
  773POPC    OB40153  12.634   4.698   1.329
  773POPC    OC40154  12.557   4.574   1.538
  773POPC    OD40155  12.799   4.565   1.461
  773POPC    CC40156  12.809   4.465   1.563
  773POPC    CD40157  12.949   4.411   1.595
  773POPC    OE40158  12.945   4.303   1.693
  773POPC   C1A40159  12.979   4.179   1.658
  773POPC    OF40160  12.990   4.149   1.538
  773POPC   C1B40161  12.979   4.081   1.769
  773POPC   C1C40162  13.040   4.134   1.900
  773POPC   C1D40163  13.055   4.024   2.005
  773POPC   C1E40164  13.113   4.082   2.134
  773POPC   C1F40165  13.135   3.974   2.239
  773POPC   C1G40166  13.177   4.036   2.372
  773POPC   C1H40167  13.199   3.932   2.482
  773POPC   C1I40168  13.331   3.855   2.465
  773POPC   C1J40169  13.390   3.803   2.572
  773POPC   C1K40170  13.326   3.818   2.710
  773POPC   C1L40171  13.348   3.690   2.792
  773POPC   C1M40172  13.275   3.692   2.927
  773POPC   C1N40173  13.340   3.785   3.030
  773POPC   C1O40174  13.268   3.771   3.164
  773POPC   C1P40175  13.338   3.851   3.274
  773POPC   C1Q40176  13.267   3.838   3.410
  773POPC   C1R40177  13.275   3.696   3.467
  773POPC    CE40178  13.040   4.528   1.635
  773POPC    OG40179  12.990   4.620   1.734
  773POPC   C2A40180  13.078   4.710   1.779
  773POPC    OH40181  13.195   4.712   1.741
  773POPC   C2B40182  13.021   4.802   1.880
  773POPC   C2C40183  13.060   4.756   2.021
  773POPC   C2D40184  13.011   4.854   2.128
  773POPC   C2E40185  13.062   4.811   2.265
  773POPC   C2F40186  13.025   4.907   2.378
  773POPC   C2G40187  12.875   4.912   2.405
  773POPC   C2H40188  12.844   4.988   2.535
  773POPC   C2I40189  12.878   4.905   2.660
  773POPC   C2J40190  12.843   4.982   2.787
  773POPC   C2K40191  12.856   4.897   2.914
  773POPC   C2L40192  13.001   4.857   2.944
  773POPC   C2M40193  13.007   4.772   3.072
  773POPC   C2N40194  13.149   4.729   3.108
  773POPC   C2O40195  13.210   4.633   3.006
  773POPC   C2P40196  13.350   4.589   3.049
  774POPC   CN140197  13.115   6.467   1.813
  774POPC   CN240198  13.256   6.472   2.004
  774POPC   CN340199  13.025   6.446   2.034
  774POPC   NTM40200  13.137   6.409   1.946
  774POPC    CA40201  13.160   6.263   1.942
  774POPC    CB40202  13.059   6.165   1.876
  774POPC    OA40203  12.925   6.172   1.923
  774POPC     P40204  12.873   6.028   1.962
  774POPC    OB40205  12.849   5.961   1.835
  774POPC    OC40206  12.968   5.975   2.061
  774POPC    OD40207  12.738   6.079   2.024
  774POPC    CC40208  12.757   6.124   2.159
  774POPC    CD40209  12.644   6.215   2.210
  774POPC    OE40210  12.671   6.272   2.341
  774POPC   C1A40211  12.627   6.395   2.368
  774POPC    OF40212  12.588   6.469   2.276
  774POPC   C1B40213  12.645   6.431   2.510
  774POPC   C1C40214  12.551   6.539   2.563
  774POPC   C1D40215  12.555   6.537   2.716
  774POPC   C1E40216  12.489   6.660   2.779
  774POPC   C1F40217  12.471   6.645   2.931
  774POPC   C1G40218  12.603   6.624   3.006
  774POPC   C1H40219  12.579   6.610   3.156
  774POPC   C1I40220  12.710   6.581   3.229
  774POPC   C1J40221  12.709   6.525   3.350
  774POPC   C1K40222  12.576   6.492   3.418
  774POPC   C1L40223  12.589   6.503   3.570
  774POPC   C1M40224  12.454   6.478   3.638
  774POPC   C1N40225  12.463   6.488   3.791
  774POPC   C1O40226  12.542   6.372   3.854
  774POPC   C1P40227  12.467   6.239   3.844
  774POPC   C1Q40228  12.552   6.121   3.892
  774POPC   C1R40229  12.669   6.094   3.796
  774POPC    CE40230  12.511   6.137   2.195
  774POPC    OG40231  12.508   6.000   2.240
  774POPC   C2A40232  12.399   5.931   2.210
  774POPC    OH40233  12.300   5.985   2.161
  774POPC   C2B40234  12.408   5.788   2.245
  774POPC   C2C40235  12.301   5.747   2.347
  774POPC   C2D40236  12.311   5.597   2.378
  774POPC   C2E40237  12.215   5.552   2.489
  774POPC   C2F40238  12.251   5.614   2.624
  774POPC   C2G40239  12.169   5.553   2.737
  774POPC   C2H40240  12.199   5.622   2.870
  774POPC   C2I40241  12.131   5.550   2.986
  774POPC   C2J40242  12.151   5.627   3.117
  774POPC   C2K40243  12.095   5.547   3.236
  774POPC   C2L40244  12.097   5.627   3.367
  774POPC   C2M40245  12.238   5.666   3.412
  774POPC   C2N40246  12.233   5.742   3.545
  774POPC   C2O40247  12.371   5.791   3.591
  774POPC   C2P40248  12.427   5.902   3.502
  775POPC   CN140249  12.278   7.494   1.359
  775POPC   CN240250  12.054   7.546   1.413
  775POPC   CN340251  12.116   7.319   1.380
  775POPC   NTM40252  12.161   7.449   1.435
  775POPC    CA40253  12.190   7.443   1.580
  775POPC    CB40254  12.303   7.353   1.635
  775POPC    OA40255  12.284   7.212   1.617
  775POPC     P40256  12.412   7.128   1.651
  775POPC    OB40257  12.383   6.987   1.618
  775POPC    OC40258  12.529   7.195   1.592
  775POPC    OD40259  12.418   7.142   1.807
  775POPC    CC40260  12.311   7.077   1.875
  775POPC    CD40261  12.318   7.094   2.028
  775POPC    OE40262  12.214   7.022   2.100
  775POPC   C1A40263  12.255   6.932   2.190
  775POPC    OF40264  12.373   6.893   2.191
  775POPC   C1B40265  12.145   6.872   2.268
  775POPC   C1C40266  12.195   6.816   2.402
  775POPC   C1D40267  12.082   6.744   2.476
  775POPC   C1E40268  12.139   6.677   2.601
  775POPC   C1F40269  12.032   6.601   2.679
  775POPC   C1G40270  12.093   6.541   2.806
  775POPC   C1H40271  11.988   6.480   2.899
  775POPC   C1I40272  11.934   6.346   2.850
  775POPC   C1J40273  11.887   6.262   2.942
  775POPC   C1K40274  11.890   6.305   3.088
  775POPC   C1L40275  11.888   6.186   3.184
  775POPC   C1M40276  11.903   6.233   3.329
  775POPC   C1N40277  12.047   6.274   3.361
  775POPC   C1O40278  12.060   6.344   3.497
  775POPC   C1P40279  12.019   6.258   3.618
  775POPC   C1Q40280  12.113   6.140   3.642
  775POPC   C1R40281  12.064   6.057   3.761
  775POPC    CE40282  12.330   7.246   2.055
  775POPC    OG40283  12.348   7.288   2.192
  775POPC   C2A40284  12.469   7.274   2.247
  775POPC    OH40285  12.560   7.214   2.190
  775POPC   C2B40286  12.474   7.320   2.387
  775POPC   C2C40287  12.490   7.201   2.482
  775POPC   C2D40288  12.530   7.248   2.621
  775POPC   C2E40289  12.558   7.128   2.712
  775POPC   C2F40290  12.618   7.176   2.844
  775POPC   C2G40291  12.645   7.059   2.938
  775POPC   C2H40292  12.715   7.108   3.065
  775POPC   C2I40293  12.731   6.995   3.166
  775POPC   C2J40294  12.801   7.045   3.292
  775POPC   C2K40295  12.796   6.940   3.402
  775POPC   C2L40296  12.859   6.994   3.530
  775POPC   C2M40297  12.824   6.909   3.653
  775POPC   C2N40298  12.675   6.914   3.690
  775POPC   C2O40299  12.631   7.053   3.733
  775POPC   C2P40300  12.480   7.058   3.758
  776POPC   CN140301  11.426   7.390   2.047
  776POPC   CN240302  11.243   7.291   1.928
  776POPC   CN340303  11.227   7.330   2.162
  776POPC   NTM40304  11.279   7.384   2.036
  776POPC    CA40305  11.216   7.516   2.016
  776POPC    CB40306  11.256   7.610   1.899
  776POPC    OA40307  11.388   7.665   1.904
  776POPC     P40308  11.385   7.808   1.971
  776POPC    OB40309  11.307   7.896   1.884
  776POPC    OC40310  11.349   7.786   2.111
  776POPC    OD40311  11.538   7.842   1.959
  776POPC    CC40312  11.616   7.763   2.048
  776POPC    CD40313  11.765   7.753   2.012
  776POPC    OE40314  11.834   7.651   2.088
  776POPC   C1A40315  11.950   7.603   2.045
  776POPC    OF40316  11.993   7.632   1.933
  776POPC   C1B40317  12.007   7.504   2.139
  776POPC   C1C40318  11.948   7.365   2.112
  776POPC   C1D40319  11.964   7.272   2.233
  776POPC   C1E40320  11.872   7.313   2.348
  776POPC   C1F40321  11.879   7.215   2.466
  776POPC   C1G40322  12.016   7.218   2.534
  776POPC   C1H40323  12.022   7.113   2.645
  776POPC   C1I40324  12.162   7.109   2.708
  776POPC   C1J40325  12.183   7.042   2.820
  776POPC   C1K40326  12.067   6.969   2.888
  776POPC   C1L40327  12.110   6.917   3.025
  776POPC   C1M40328  11.996   6.841   3.094
  776POPC   C1N40329  12.040   6.781   3.227
  776POPC   C1O40330  12.074   6.889   3.331
  776POPC   C1P40331  12.135   6.830   3.459
  776POPC   C1Q40332  12.275   6.772   3.438
  776POPC   C1R40333  12.379   6.879   3.405
  776POPC    CE40334  11.822   7.895   2.021
  776POPC    OG40335  11.800   7.963   2.146
  776POPC   C2A40336  11.830   8.092   2.149
  776POPC    OH40337  11.882   8.146   2.051
  776POPC   C2B40338  11.802   8.153   2.281
  776POPC   C2C40339  11.927   8.162   2.368
  776POPC   C2D40340  11.886   8.167   2.516
  776POPC   C2E40341  12.006   8.181   2.610
  776POPC   C2F40342  11.960   8.156   2.753
  776POPC   C2G40343  12.066   8.193   2.858
  776POPC   C2H40344  12.015   8.149   2.995
  776POPC   C2I40345  12.097   8.203   3.113
  776POPC   C2J40346  12.047   8.136   3.241
  776POPC   C2K40347  12.103   8.197   3.370
  776POPC   C2L40348  12.038   8.332   3.401
  776POPC   C2M40349  12.071   8.378   3.543
  776POPC   C2N40350  11.998   8.509   3.576
  776POPC   C2O40351  12.017   8.552   3.722
  776POPC   C2P40352  12.162   8.592   3.753
  777POPC   CN140353  12.230   8.358   1.811
  777POPC   CN240354  12.132   8.314   2.021
  777POPC   CN340355  12.213   8.533   1.971
  777POPC   NTM40356  12.145   8.415   1.916
  777POPC    CA40357  12.014   8.450   1.855
  777POPC    CB40358  11.899   8.515   1.935
  777POPC    OA40359  11.848   8.445   2.049
  777POPC     P40360  11.715   8.508   2.103
  777POPC    OB40361  11.642   8.570   1.992
  777POPC    OC40362  11.644   8.416   2.195
  777POPC    OD40363  11.775   8.625   2.187
  777POPC    CC40364  11.832   8.580   2.309
  777POPC    CD40365  11.971   8.639   2.342
  777POPC    OE40366  12.023   8.582   2.464
  777POPC   C1A40367  12.154   8.580   2.486
  777POPC    OF40368  12.233   8.587   2.391
  777POPC   C1B40369  12.187   8.541   2.625
  777POPC   C1C40370  12.198   8.663   2.717
  777POPC   C1D40371  12.203   8.623   2.865
  777POPC   C1E40372  12.063   8.590   2.917
  777POPC   C1F40373  12.012   8.695   3.016
  777POPC   C1G40374  12.074   8.675   3.155
  777POPC   C1H40375  12.024   8.778   3.256
  777POPC   C1I40376  12.100   8.911   3.247
  777POPC   C1J40377  12.102   8.992   3.352
  777POPC   C1K40378  12.023   8.956   3.478
  777POPC   C1L40379  12.092   9.007   3.605
  777POPC   C1M40380  12.000   8.988   3.726
  777POPC   C1N40381  12.068   9.036   3.855
  777POPC   C1O40382  11.972   9.037   3.974
  777POPC   C1P40383  11.928   8.898   4.022
  777POPC   C1Q40384  12.041   8.824   4.094
  777POPC   C1R40385  11.993   8.688   4.145
  777POPC    CE40386  11.954   8.792   2.341
  777POPC    OG40387  11.859   8.842   2.437
  777POPC   C2A40388  11.841   8.973   2.445
  777POPC    OH40389  11.878   9.047   2.354
  777POPC   C2B40390  11.749   9.012   2.554
  777POPC   C2C40391  11.816   9.016   2.691
  777POPC   C2D40392  11.713   9.053   2.798
  777POPC   C2E40393  11.770   9.046   2.939
  777POPC   C2F40394  11.661   9.078   3.041
  777POPC   C2G40395  11.709   9.054   3.184
  777POPC   C2H40396  11.594   9.077   3.283
  777POPC   C2I40397  11.632   9.030   3.423
  777POPC   C2J40398  11.515   9.050   3.520
  777POPC   C2K40399  11.549   9.000   3.660
  777POPC   C2L40400  11.432   9.028   3.754
  777POPC   C2M40401  11.459   8.977   3.896
  777POPC   C2N40402  11.342   9.014   3.988
  777POPC   C2O40403  11.358   8.958   4.129
  777POPC   C2P40404  11.345   8.806   4.133
  778POPC   CN140405  12.830   8.900   2.179
  778POPC   CN240406  12.639   9.024   2.242
  778POPC   CN340407  12.839   9.136   2.168
  778POPC   NTM40408  12.751   9.020   2.148
  778POPC    CA40409  12.703   9.011   2.008
  778POPC    CB40410  12.608   9.119   1.950
  778POPC    OA40411  12.660   9.253   1.944
  778POPC     P40412  12.543   9.359   1.932
  778POPC    OB40413  12.610   9.484   1.893
  778POPC    OC40414  12.434   9.303   1.851
  778POPC    OD40415  12.498   9.363   2.082
  778POPC    CC40416  12.576   9.454   2.159
  778POPC    CD40417  12.553   9.454   2.311
  778POPC    OE40418  12.611   9.339   2.379
  778POPC   C1A40419  12.727   9.358   2.442
  778POPC    OF40420  12.805   9.443   2.399
  778POPC   C1B40421  12.765   9.241   2.525
  778POPC   C1C40422  12.832   9.280   2.657
  778POPC   C1D40423  12.876   9.153   2.731
  778POPC   C1E40424  12.924   9.182   2.873
  778POPC   C1F40425  12.968   9.053   2.941
  778POPC   C1G40426  12.991   9.072   3.091
  778POPC   C1H40427  13.033   8.941   3.157
  778POPC   C1I40428  13.041   8.955   3.309
  778POPC   C1J40429  13.047   8.848   3.388
  778POPC   C1K40430  13.054   8.709   3.325
  778POPC   C1L40431  12.976   8.605   3.406
  778POPC   C1M40432  12.997   8.464   3.349
  778POPC   C1N40433  13.137   8.411   3.384
  778POPC   C1O40434  13.178   8.291   3.297
  778POPC   C1P40435  13.214   8.337   3.155
  778POPC   C1Q40436  13.265   8.220   3.070
  778POPC   C1R40437  13.302   8.268   2.929
  778POPC    CE40438  12.403   9.486   2.333
  778POPC    OG40439  12.371   9.507   2.471
  778POPC   C2A40440  12.262   9.578   2.499
  778POPC    OH40441  12.191   9.628   2.413
  778POPC   C2B40442  12.240   9.585   2.645
  778POPC   C2C40443  12.192   9.721   2.694
  778POPC   C2D40444  12.173   9.717   2.846
  778POPC   C2E40445  12.117   9.847   2.904
  778POPC   C2F40446  11.976   9.878   2.854
  778POPC   C2G40447  11.903   9.979   2.943
  778POPC   C2H40448  11.967  10.119   2.945
  778POPC   C2I40449  11.895  10.211   3.044
  778POPC   C2J40450  11.912  10.163   3.189
  778POPC   C2K40451  11.834  10.250   3.288
  778POPC   C2L40452  11.855  10.198   3.430
  778POPC   C2M40453  11.769  10.277   3.530
  778POPC   C2N40454  11.787  10.227   3.674
  778POPC   C2O40455  11.921  10.266   3.736
  778POPC   C2P40456  11.929  10.416   3.765
  779POPC   CN140457  13.224   9.921   2.178
  779POPC   CN240458  13.187   9.695   2.244
  779POPC   CN340459  13.167   9.756   2.017
  779POPC   NTM40460  13.244   9.781   2.140
  779POPC    CA40461  13.387   9.754   2.113
  779POPC    CB40462  13.493   9.777   2.224
  779POPC    OA40463  13.477   9.692   2.338
  779POPC     P40464  13.524   9.759   2.473
  779POPC    OB40465  13.526   9.654   2.574
  779POPC    OC40466  13.645   9.837   2.440
  779POPC    OD40467  13.403   9.857   2.490
  779POPC    CC40468  13.359   9.861   2.625
  779POPC    CD40469  13.274   9.986   2.656
  779POPC    OE40470  13.264  10.016   2.798
  779POPC   C1A40471  13.266  10.144   2.835
  779POPC    OF40472  13.298  10.232   2.754
  779POPC   C1B40473  13.233  10.165   2.978
  779POPC   C1C40474  13.357  10.162   3.067
  779POPC   C1D40475  13.320  10.168   3.215
  779POPC   C1E40476  13.446  10.158   3.300
  779POPC   C1F40477  13.414  10.157   3.450
  779POPC   C1G40478  13.544  10.150   3.530
  779POPC   C1H40479  13.519  10.150   3.681
  779POPC   C1I40480  13.652  10.147   3.756
  779POPC   C1J40481  13.663  10.206   3.875
  779POPC   C1K40482  13.543  10.278   3.937
  779POPC   C1L40483  13.589  10.400   4.016
  779POPC   C1M40484  13.471  10.467   4.088
  779POPC   C1N40485  13.515  10.592   4.166
  779POPC   C1O40486  13.557  10.708   4.075
  779POPC   C1P40487  13.437  10.767   3.999
  779POPC   C1Q40488  13.478  10.873   3.898
  779POPC   C1R40489  13.553  10.813   3.778
  779POPC    CE40490  13.142   9.969   2.580
  779POPC    OG40491  13.068   9.850   2.612
  779POPC   C2A40492  12.960   9.826   2.539
  779POPC    OH40493  12.941   9.886   2.433
  779POPC   C2B40494  12.882   9.710   2.588
  779POPC   C2C40495  12.775   9.756   2.687
  779POPC   C2D40496  12.705   9.638   2.754
  779POPC   C2E40497  12.603   9.688   2.857
  779POPC   C2F40498  12.558   9.578   2.954
  779POPC   C2G40499  12.674   9.527   3.039
  779POPC   C2H40500  12.628   9.437   3.153
  779POPC   C2I40501  12.750   9.382   3.226
  779POPC   C2J40502  12.712   9.310   3.356
  779POPC   C2K40503  12.837   9.248   3.418
  779POPC   C2L40504  12.811   9.191   3.558
  779POPC   C2M40505  12.796   9.304   3.661
  779POPC   C2N40506  12.776   9.248   3.802
  779POPC   C2O40507  12.769   9.358   3.907
  779POPC   C2P40508  12.902   9.431   3.926
  780POPC   CN140509  13.693  10.396   2.228
  780POPC   CN240510  13.857  10.538   2.328
  780POPC   CN340511  13.861  10.497   2.095
  780POPC   NTM40512  13.772  10.518   2.210
  780POPC    CA40513  13.687  10.636   2.182
  780POPC    CB40514  13.591  10.693   2.289
  780POPC    OA40515  13.491  10.606   2.344
  780POPC     P40516  13.398  10.689   2.442
  780POPC    OB40517  13.367  10.815   2.374
  780POPC    OC40518  13.292  10.593   2.477
  780POPC    OD40519  13.500  10.713   2.559
  780POPC    CC40520  13.495  10.613   2.660
  780POPC    CD40521  13.597  10.640   2.773
  780POPC    OE40522  13.613  10.528   2.865
  780POPC   C1A40523  13.708  10.439   2.841
  780POPC    OF40524  13.793  10.460   2.754
  780POPC   C1B40525  13.704  10.318   2.926
  780POPC   C1C40526  13.794  10.330   3.049
  780POPC   C1D40527  13.802  10.196   3.122
  780POPC   C1E40528  13.870  10.213   3.258
  780POPC   C1F40529  13.879  10.081   3.336
  780POPC   C1G40530  13.989   9.989   3.281
  780POPC   C1H40531  13.996   9.861   3.364
  780POPC   C1I40532  14.119   9.778   3.328
  780POPC   C1J40533  14.165   9.689   3.416
  780POPC   C1K40534  14.093   9.671   3.549
  780POPC   C1L40535  14.175   9.587   3.647
  780POPC   C1M40536  14.093   9.556   3.773
  780POPC   C1N40537  14.174   9.469   3.869
  780POPC   C1O40538  14.088   9.424   3.988
  780POPC   C1P40539  14.166   9.336   4.085
  780POPC   C1Q40540  14.209   9.203   4.023
  780POPC   C1R40541  14.291   9.120   4.122
  780POPC    CE40542  13.562  10.778   2.832
  780POPC    OG40543  13.436  10.790   2.900
  780POPC   C2A40544  13.399  10.914   2.932
  780POPC    OH40545  13.446  11.012   2.875
  780POPC   C2B40546  13.289  10.919   3.031
  780POPC   C2C40547  13.342  10.887   3.171
  780POPC   C2D40548  13.229  10.891   3.275
  780POPC   C2E40549  13.270  10.830   3.409
  780POPC   C2F40550  13.290  10.678   3.397
  780POPC   C2G40551  13.310  10.608   3.532
  780POPC   C2H40552  13.186  10.621   3.622
  780POPC   C2I40553  13.189  10.526   3.742
  780POPC   C2J40554  13.173  10.380   3.697
  780POPC   C2K40555  13.158  10.282   3.814
  780POPC   C2L40556  13.025  10.299   3.888
  780POPC   C2M40557  13.008  10.191   3.994
  780POPC   C2N40558  12.875  10.206   4.068
  780POPC   C2O40559  12.860  10.097   4.174
  780POPC   C2P40560  12.728  10.112   4.250
  781POPC   CN140561  13.417  11.323   2.476
  781POPC   CN240562  13.548  11.265   2.669
  781POPC   CN340563  13.318  11.221   2.665
  781POPC   NTM40564  13.438  11.223   2.581
  781POPC    CA40565  13.457  11.087   2.526
  781POPC    CB40566  13.576  11.056   2.432
  781POPC    OA40567  13.705  11.078   2.488
  781POPC     P40568  13.817  11.050   2.384
  781POPC    OB40569  13.800  10.915   2.328
  781POPC    OC40570  13.820  11.169   2.296
  781POPC    OD40571  13.940  11.051   2.482
  781POPC    CC40572  13.945  10.929   2.558
  781POPC    CD40573  14.058  10.922   2.662
  781POPC    OE40574  14.072  10.790   2.721
  781POPC   C1A40575  14.180  10.764   2.794
  781POPC    OF40576  14.285  10.825   2.770
  781POPC   C1B40577  14.171  10.642   2.878
  781POPC   C1C40578  14.125  10.672   3.021
  781POPC   C1D40579  13.975  10.696   3.034
  781POPC   C1E40580  13.938  10.706   3.182
  781POPC   C1F40581  13.786  10.714   3.203
  781POPC   C1G40582  13.749  10.710   3.352
  781POPC   C1H40583  13.783  10.575   3.417
  781POPC   C1I40584  13.754  10.577   3.568
  781POPC   C1J40585  13.826  10.503   3.651
  781POPC   C1K40586  13.937  10.412   3.598
  781POPC   C1L40587  14.055  10.403   3.695
  781POPC   C1M40588  14.162  10.308   3.641
  781POPC   C1N40589  14.288  10.311   3.727
  781POPC   C1O40590  14.400  10.224   3.668
  781POPC   C1P40591  14.375  10.073   3.681
  781POPC   C1Q40592  14.386  10.026   3.826
  781POPC   C1R40593  14.364   9.875   3.838
  781POPC    CE40594  14.029  11.037   2.761
  781POPC    OG40595  13.904  11.024   2.831
  781POPC   C2A40596  13.855  11.132   2.888
  781POPC    OH40597  13.894  11.244   2.854
  781POPC   C2B40598  13.731  11.102   2.962
  781POPC   C2C40599  13.692  11.200   3.073
  781POPC   C2D40600  13.769  11.174   3.203
  781POPC   C2E40601  13.712  11.253   3.320
  781POPC   C2F40602  13.572  11.205   3.360
  781POPC   C2G40603  13.524  11.277   3.486
  781POPC   C2H40604  13.388  11.223   3.532
  781POPC   C2I40605  13.344  11.282   3.667
  781POPC   C2J40606  13.442  11.245   3.779
  781POPC   C2K40607  13.396  11.288   3.918
  781POPC   C2L40608  13.273  11.211   3.967
  781POPC   C2M40609  13.244  11.234   4.115
  781POPC   C2N40610  13.353  11.172   4.204
  781POPC   C2O40611  13.322  11.194   4.353
  781POPC   C2P40612  13.428  11.125   4.440
  782POPC   CN140613  13.939  12.538   1.908
  782POPC   CN240614  14.020  12.761   1.895
  782POPC   CN340615  13.796  12.715   1.832
  782POPC   NTM40616  13.902  12.679   1.927
  782POPC    CA40617  13.864  12.707   2.067
  782POPC    CB40618  13.744  12.632   2.131
  782POPC    OA40619  13.614  12.661   2.079
  782POPC     P40620  13.512  12.548   2.122
  782POPC    OB40621  13.386  12.567   2.049
  782POPC    OC40622  13.581  12.418   2.113
  782POPC    OD40623  13.493  12.582   2.274
  782POPC    CC40624  13.407  12.693   2.296
  782POPC    CD40625  13.406  12.741   2.442
  782POPC    OE40626  13.300  12.837   2.467
  782POPC   C1A40627  13.186  12.795   2.519
  782POPC    OF40628  13.164  12.674   2.533
  782POPC   C1B40629  13.093  12.904   2.556
  782POPC   C1C40630  13.122  12.949   2.700
  782POPC   C1D40631  13.020  13.050   2.752
  782POPC   C1E40632  13.055  13.084   2.897
  782POPC   C1F40633  12.952  13.173   2.965
  782POPC   C1G40634  12.995  13.193   3.111
  782POPC   C1H40635  12.893  13.271   3.193
  782POPC   C1I40636  12.942  13.281   3.338
  782POPC   C1J40637  12.902  13.378   3.420
  782POPC   C1K40638  12.800  13.483   3.377
  782POPC   C1L40639  12.723  13.531   3.500
  782POPC   C1M40640  12.616  13.634   3.466
  782POPC   C1N40641  12.543  13.675   3.593
  782POPC   C1O40642  12.433  13.778   3.565
  782POPC   C1P40643  12.356  13.808   3.694
  782POPC   C1Q40644  12.241  13.906   3.669
  782POPC   C1R40645  12.162  13.929   3.798
  782POPC    CE40646  13.547  12.795   2.472
  782POPC    OG40647  13.586  12.808   2.610
  782POPC   C2A40648  13.543  12.914   2.678
  782POPC    OH40649  13.494  13.012   2.621
  782POPC   C2B40650  13.578  12.910   2.822
  782POPC   C2C40651  13.478  12.826   2.901
  782POPC   C2D40652  13.423  12.898   3.025
  782POPC   C2E40653  13.529  12.931   3.131
  782POPC   C2F40654  13.465  12.974   3.263
  782POPC   C2G40655  13.383  13.103   3.251
  782POPC   C2H40656  13.292  13.124   3.373
  782POPC   C2I40657  13.367  13.162   3.500
  782POPC   C2J40658  13.269  13.168   3.618
  782POPC   C2K40659  13.335  13.223   3.744
  782POPC   C2L40660  13.240  13.214   3.863
  782POPC   C2M40661  13.291  13.288   3.987
  782POPC   C2N40662  13.422  13.231   4.042
  782POPC   C2O40663  13.468  13.311   4.164
  782POPC   C2P40664  13.605  13.263   4.213
  783POPC   CN140665  13.303  13.866   2.738
  783POPC   CN240666  13.089  13.949   2.685
  783POPC   CN340667  13.283  14.086   2.652
  783POPC   NTM40668  13.229  13.949   2.643
  783POPC    CA40669  13.246  13.891   2.508
  783POPC    CB40670  13.174  13.952   2.385
  783POPC    OA40671  13.207  14.089   2.359
  783POPC     P40672  13.131  14.148   2.235
  783POPC    OB40673  13.209  14.262   2.185
  783POPC    OC40674  13.086  14.041   2.144
  783POPC    OD40675  13.000  14.200   2.302
  783POPC    CC40676  13.018  14.323   2.371
  783POPC    CD40677  12.885  14.394   2.403
  783POPC    OE40678  12.905  14.523   2.465
  783POPC   C1A40679  12.806  14.612   2.468
  783POPC    OF40680  12.715  14.606   2.384
  783POPC   C1B40681  12.830  14.723   2.563
  783POPC   C1C40682  12.908  14.840   2.502
  783POPC   C1D40683  12.949  14.939   2.610
  783POPC   C1E40684  13.050  14.876   2.706
  783POPC   C1F40685  13.070  14.958   2.833
  783POPC   C1G40686  13.171  14.887   2.924
  783POPC   C1H40687  13.181  14.950   3.063
  783POPC   C1I40688  13.056  14.922   3.147
  783POPC   C1J40689  13.064  14.924   3.279
  783POPC   C1K40690  13.199  14.954   3.345
  783POPC   C1L40691  13.201  14.906   3.490
  783POPC   C1M40692  13.332  14.948   3.557
  783POPC   C1N40693  13.331  14.909   3.705
  783POPC   C1O40694  13.459  14.959   3.773
  783POPC   C1P40695  13.456  14.928   3.922
  783POPC   C1Q40696  13.581  14.981   3.995
  783POPC   C1R40697  13.587  15.134   3.994
  783POPC    CE40698  12.804  14.293   2.488
  783POPC    OG40699  12.855  14.263   2.619
  783POPC   C2A40700  12.787  14.174   2.689
  783POPC    OH40701  12.717  14.090   2.633
  783POPC   C2B40702  12.830  14.164   2.830
  783POPC   C2C40703  12.738  14.241   2.925
  783POPC   C2D40704  12.764  14.202   3.071
  783POPC   C2E40705  12.726  14.055   3.096
  783POPC   C2F40706  12.746  14.008   3.240
  783POPC   C2G40707  12.893  13.999   3.282
  783POPC   C2H40708  12.901  13.922   3.414
  783POPC   C2I40709  13.046  13.895   3.456
  783POPC   C2J40710  13.052  13.784   3.562
  783POPC   C2K40711  12.996  13.826   3.698
  783POPC   C2L40712  13.098  13.903   3.783
  783POPC   C2M40713  13.213  13.812   3.826
  783POPC   C2N40714  13.314  13.886   3.913
  783POPC   C2O40715  13.433  13.797   3.952
  783POPC   C2P40716  13.393  13.683   4.046
  784POPC   CN140717  12.959  14.569   1.958
  784POPC   CN240718  12.881  14.581   1.734
  784POPC   CN340719  12.912  14.781   1.856
  784POPC   NTM40720  12.967  14.647   1.833
  784POPC    CA40721  13.105  14.653   1.778
  784POPC    CB40722  13.219  14.724   1.855
  784POPC    OA40723  13.254  14.666   1.981
  784POPC     P40724  13.343  14.769   2.060
  784POPC    OB40725  13.459  14.796   1.974
  784POPC    OC40726  13.245  14.873   2.098
  784POPC    OD40727  13.377  14.677   2.182
  784POPC    CC40728  13.272  14.660   2.278
  784POPC    CD40729  13.318  14.686   2.422
  784POPC    OE40730  13.230  14.630   2.524
  784POPC   C1A40731  13.258  14.509   2.574
  784POPC    OF40732  13.344  14.437   2.524
  784POPC   C1B40733  13.166  14.468   2.683
  784POPC   C1C40734  13.222  14.498   2.822
  784POPC   C1D40735  13.119  14.457   2.928
  784POPC   C1E40736  13.165  14.496   3.069
  784POPC   C1F40737  13.054  14.468   3.171
  784POPC   C1G40738  13.089  14.521   3.310
  784POPC   C1H40739  13.199  14.443   3.382
  784POPC   C1I40740  13.149  14.309   3.438
  784POPC   C1J40741  13.191  14.270   3.558
  784POPC   C1K40742  13.287  14.359   3.636
  784POPC   C1L40743  13.257  14.360   3.786
  784POPC   C1M40744  13.355  14.452   3.857
  784POPC   C1N40745  13.325  14.465   4.007
  784POPC   C1O40746  13.428  14.556   4.073
  784POPC   C1P40747  13.398  14.579   4.221
  784POPC   C1Q40748  13.503  14.671   4.283
  784POPC   C1R40749  13.473  14.698   4.431
  784POPC    CE40750  13.345  14.838   2.430
  784POPC    OG40751  13.389  14.888   2.557
  784POPC   C2A40752  13.409  15.019   2.564
  784POPC    OH40753  13.380  15.094   2.471
  784POPC   C2B40754  13.449  15.060   2.700
  784POPC   C2C40755  13.548  15.177   2.701
  784POPC   C2D40756  13.589  15.213   2.844
  784POPC   C2E40757  13.675  15.104   2.907
  784POPC   C2F40758  13.718  15.139   3.050
  784POPC   C2G40759  13.603  15.132   3.150
  784POPC   C2H40760  13.651  15.164   3.292
  784POPC   C2I40761  13.750  15.058   3.343
  784POPC   C2J40762  13.824  15.107   3.467
  784POPC   C2K40763  13.933  15.007   3.506
  784POPC   C2L40764  14.026  15.063   3.614
  784POPC   C2M40765  13.958  15.077   3.750
  784POPC   C2N40766  14.054  15.140   3.850
  784POPC   C2O40767  13.996  15.146   3.992
  784POPC   C2P40768  13.983  15.007   4.054
  785POPC   CN140769  12.980  15.562   2.124
  785POPC   CN240770  13.083  15.449   1.944
  785POPC   CN340771  12.850  15.429   1.971
  785POPC   NTM40772  12.963  15.522   1.983
  785POPC    CA40773  12.950  15.640   1.895
  785POPC    CB40774  12.833  15.740   1.915
  785POPC    OA40775  12.702  15.683   1.900
  785POPC     P40776  12.587  15.782   1.940
  785POPC    OB40777  12.628  15.920   1.908
  785POPC    OC40778  12.459  15.727   1.892
  785POPC    OD40779  12.592  15.762   2.095
  785POPC    CC40780  12.552  15.631   2.134
  785POPC    CD40781  12.546  15.608   2.285
  785POPC    OE40782  12.529  15.468   2.322
  785POPC   C1A40783  12.637  15.389   2.329
  785POPC    OF40784  12.741  15.418   2.269
  785POPC   C1B40785  12.610  15.257   2.392
  785POPC   C1C40786  12.617  15.266   2.544
  785POPC   C1D40787  12.597  15.128   2.609
  785POPC   C1E40788  12.565  15.139   2.758
  785POPC   C1F40789  12.679  15.195   2.844
  785POPC   C1G40790  12.625  15.228   2.984
  785POPC   C1H40791  12.733  15.283   3.077
  785POPC   C1I40792  12.667  15.343   3.202
  785POPC   C1J40793  12.725  15.337   3.321
  785POPC   C1K40794  12.860  15.266   3.340
  785POPC   C1L40795  12.885  15.229   3.486
  785POPC   C1M40796  12.926  15.350   3.571
  785POPC   C1N40797  12.940  15.312   3.718
  785POPC   C1O40798  12.994  15.429   3.801
  785POPC   C1P40799  12.993  15.399   3.951
  785POPC   C1Q40800  13.086  15.285   3.995
  785POPC   C1R40801  13.234  15.321   3.980
  785POPC    CE40802  12.437  15.705   2.336
  785POPC    OG40803  12.397  15.695   2.474
  785POPC   C2A40804  12.301  15.608   2.503
  785POPC    OH40805  12.238  15.549   2.414
  785POPC   C2B40806  12.266  15.602   2.646
  785POPC   C2C40807  12.354  15.502   2.721
  785POPC   C2D40808  12.299  15.467   2.860
  785POPC   C2E40809  12.299  15.584   2.959
  785POPC   C2F40810  12.239  15.538   3.091
  785POPC   C2G40811  12.230  15.652   3.193
  785POPC   C2H40812  12.159  15.606   3.320
  785POPC   C2I40813  12.143  15.723   3.417
  785POPC   C2J40814  12.061  15.688   3.542
  785POPC   C2K40815  12.132  15.589   3.634
  785POPC   C2L40816  12.047  15.564   3.759
  785POPC   C2M40817  12.110  15.460   3.851
  785POPC   C2N40818  12.019  15.434   3.971
  785POPC   C2O40819  12.077  15.325   4.062
  785POPC   C2P40820  11.984  15.299   4.181
  786POPC   CN140821  14.210  16.485   1.811
  786POPC   CN240822  14.175  16.387   2.024
  786POPC   CN340823  14.394  16.391   1.930
  786POPC   NTM40824  14.269  16.467   1.944
  786POPC    CA40825  14.285  16.597   2.013
  786POPC    CB40826  14.393  16.699   1.969
  786POPC    OA40827  14.527  16.664   2.006
  786POPC     P40828  14.631  16.761   1.939
  786POPC    OB40829  14.765  16.719   1.985
  786POPC    OC40830  14.606  16.766   1.794
  786POPC    OD40831  14.591  16.899   2.002
  786POPC    CC40832  14.654  16.926   2.127
  786POPC    CD40833  14.594   0.063   2.201
  786POPC    OE40834  14.686   0.129   2.292
  786POPC   C1A40835  14.761   0.229   2.247
  786POPC    OF40836  14.751   0.270   2.130
  786POPC   C1B40837  14.860   0.275   2.347
  786POPC   C1C40838  14.889   0.425   2.341
  786POPC   C1D40839  14.993   0.462   2.447
  786POPC   C1E40840  15.023   0.612   2.455
  786POPC   C1F40841  14.902   0.693   2.503
  786POPC   C1G40842  14.937   0.841   2.525
  786POPC   C1H40843  15.025   0.862   2.649
  786POPC   C1I40844  15.069   1.008   2.658
  786POPC   C1J40845  15.086   1.070   2.774
  786POPC   C1K40846  15.062   0.997   2.907
  786POPC   C1L40847  15.114   1.082   3.023
  786POPC   C1M40848  15.087   1.014   3.157
  786POPC   C1N40849  15.131   1.104   3.274
  786POPC   C1O40850  15.101   1.035   3.407
  786POPC   C1P40851  15.132   1.126   3.525
  786POPC   C1Q40852  15.096   1.056   3.657
  786POPC   C1R40853  15.125   1.147   3.777
  786POPC    CE40854  14.459   0.018   2.260
  786POPC    OG40855  14.460  16.884   2.345
  786POPC   C2A40856  14.346  16.858   2.408
  786POPC    OH40857  14.244  16.925   2.388
  786POPC   C2B40858  14.353  16.739   2.496
  786POPC   C2C40859  14.271  16.756   2.625
  786POPC   C2D40860  14.339  16.849   2.726
  786POPC   C2E40861  14.249  16.875   2.847
  786POPC   C2F40862  14.319  16.955   2.958
  786POPC   C2G40863  14.361   0.111   2.910
  786POPC   C2H40864  14.439   0.190   3.015
  786POPC   C2I40865  14.351   0.248   3.125
  786POPC   C2J40866  14.435   0.336   3.218
  786POPC   C2K40867  14.347   0.412   3.317
  786POPC   C2L40868  14.426   0.505   3.409
  786POPC   C2M40869  14.514   0.428   3.508
  786POPC   C2N40870  14.587   0.524   3.602
  786POPC   C2O40871  14.677   0.450   3.702
  786POPC   C2P40872  14.595   0.367   3.802
  787POPC   CN140873  14.712   0.307   1.646
  787POPC   CN240874  14.585   0.108   1.599
  787POPC   CN340875  14.785   0.097   1.727
  787POPC   NTM40876  14.666   0.178   1.700
  787POPC    CA40877  14.588   0.191   1.826
  787POPC    CB40878  14.466   0.286   1.833
  787POPC    OA40879  14.499   0.426   1.834
  787POPC     P40880  14.382   0.515   1.776
  787POPC    OB40881  14.435   0.651   1.786
  787POPC    OC40882  14.349   0.454   1.646
  787POPC    OD40883  14.275   0.489   1.889
  787POPC    CC40884  14.290   0.577   2.000
  787POPC    CD40885  14.221   0.527   2.127
  787POPC    OE40886  14.188   0.634   2.221
  787POPC   C1A40887  14.067   0.689   2.213
  787POPC    OF40888  13.993   0.665   2.117
  787POPC   C1B40889  14.039   0.784   2.323
  787POPC   C1C40890  13.945   0.722   2.426
  787POPC   C1D40891  13.928   0.812   2.549
  787POPC   C1E40892  13.829   0.748   2.646
  787POPC   C1F40893  13.831   0.818   2.782
  787POPC   C1G40894  13.728   0.753   2.875
  787POPC   C1H40895  13.742   0.797   3.021
  787POPC   C1I40896  13.711   0.945   3.045
  787POPC   C1J40897  13.655   0.984   3.160
  787POPC   C1K40898  13.620   0.881   3.267
  787POPC   C1L40899  13.719   0.879   3.384
  787POPC   C1M40900  13.693   0.754   3.468
  787POPC   C1N40901  13.793   0.742   3.583
  787POPC   C1O40902  13.782   0.607   3.654
  787POPC   C1P40903  13.649   0.590   3.728
  787POPC   C1Q40904  13.637   0.451   3.792
  787POPC   C1R40905  13.625   0.340   3.687
  787POPC    CE40906  14.309   0.412   2.180
  787POPC    OG40907  14.255   0.338   2.291
  787POPC   C2A40908  14.316   0.352   2.408
  787POPC    OH40909  14.415   0.424   2.420
  787POPC   C2B40910  14.255   0.270   2.515
  787POPC   C2C40911  14.139   0.343   2.583
  787POPC   C2D40912  14.084   0.262   2.701
  787POPC   C2E40913  13.973   0.337   2.774
  787POPC   C2F40914  13.936   0.266   2.904
  787POPC   C2G40915  13.823   0.339   2.977
  787POPC   C2H40916  13.798   0.284   3.118
  787POPC   C2I40917  13.914   0.319   3.212
  787POPC   C2J40918  13.892   0.261   3.352
  787POPC   C2K40919  14.014   0.293   3.440
  787POPC   C2L40920  14.006   0.225   3.577
  787POPC   C2M40921  14.138   0.238   3.654
  787POPC   C2N40922  14.164   0.379   3.710
  787POPC   C2O40923  14.077   0.410   3.832
  787POPC   C2P40924  14.109   0.549   3.887
  788POPC   CN140925  13.768   0.413   1.681
  788POPC   CN240926  13.956   0.450   1.822
  788POPC   CN340927  13.773   0.311   1.894
  788POPC   NTM40928  13.857   0.350   1.779
  788POPC    CA40929  13.923   0.234   1.714
  788POPC    CB40930  14.000   0.130   1.799
  788POPC    OA40931  14.098   0.181   1.889
  788POPC     P40932  14.169   0.068   1.972
  788POPC    OB40933  14.187  16.935   1.883
  788POPC    OC40934  14.285   0.129   2.037
  788POPC    OD40935  14.053   0.031   2.070
  788POPC    CC40936  14.041   0.121   2.180
  788POPC    CD40937  13.917   0.092   2.266
  788POPC    OE40938  13.884   0.195   2.362
  788POPC   C1A40939  13.802   0.294   2.330
  788POPC    OF40940  13.766   0.313   2.213
  788POPC   C1B40941  13.763   0.376   2.446
  788POPC   C1C40942  13.612   0.379   2.464
  788POPC   C1D40943  13.574   0.427   2.604
  788POPC   C1E40944  13.422   0.430   2.621
  788POPC   C1F40945  13.383   0.453   2.767
  788POPC   C1G40946  13.231   0.463   2.785
  788POPC   C1H40947  13.177   0.593   2.723
  788POPC   C1I40948  13.026   0.610   2.742
  788POPC   C1J40949  12.977   0.695   2.832
  788POPC   C1K40950  13.070   0.778   2.920
  788POPC   C1L40951  13.046   0.747   3.069
  788POPC   C1M40952  13.154   0.809   3.158
  788POPC   C1N40953  13.289   0.737   3.144
  788POPC   C1O40954  13.286   0.596   3.202
  788POPC   C1P40955  13.422   0.526   3.188
  788POPC   C1Q40956  13.421   0.385   3.247
  788POPC   C1R40957  13.331   0.289   3.169
  788POPC    CE40958  13.938  16.935   2.326
  788POPC    OG40959  13.825  16.885   2.400
  788POPC   C2A40960  13.844  16.774   2.471
  788POPC    OH40961  13.939  16.699   2.451
  788POPC   C2B40962  13.733  16.747   2.565
  788POPC   C2C40963  13.764  16.809   2.701
  788POPC   C2D40964  13.650  16.791   2.801
  788POPC   C2E40965  13.695  16.840   2.939
  788POPC   C2F40966  13.588  16.817   3.046
  788POPC   C2G40967  13.649  16.843   3.184
  788POPC   C2H40968  13.550  16.817   3.298
  788POPC   C2I40969  13.623  16.821   3.431
  788POPC   C2J40970  13.529  16.799   3.550
  788POPC   C2K40971  13.606  16.780   3.681
  788POPC   C2L40972  13.682  16.906   3.724
  788POPC   C2M40973  13.790  16.869   3.825
  788POPC   C2N40974  13.871   0.008   3.870
  788POPC   C2O40975  14.004  16.953   3.934
  788POPC   C2P40976  13.989  16.874   4.065
  789POPC   CN140977  13.502   2.056   1.085
  789POPC   CN240978  13.674   1.920   1.174
  789POPC   CN340979  13.589   2.106   1.299
  789POPC   NTM40980  13.554   1.997   1.208
  789POPC    CA40981  13.447   1.911   1.266
  789POPC    CB40982  13.469   1.836   1.400
  789POPC    OA40983  13.581   1.748   1.403
  789POPC     P40984  13.576   1.648   1.523
  789POPC    OB40985  13.439   1.600   1.538
  789POPC    OC40986  13.686   1.555   1.493
  789POPC    OD40987  13.611   1.747   1.640
  789POPC    CC40988  13.751   1.764   1.660
  789POPC    CD40989  13.791   1.869   1.766
  789POPC    OE40990  13.750   1.838   1.902
  789POPC   C1A40991  13.815   1.747   1.974
  789POPC    OF40992  13.896   1.670   1.922
  789POPC   C1B40993  13.774   1.747   2.116
  789POPC   C1C40994  13.647   1.666   2.141
  789POPC   C1D40995  13.599   1.680   2.286
  789POPC   C1E40996  13.473   1.597   2.311
  789POPC   C1F40997  13.419   1.611   2.454
  789POPC   C1G40998  13.357   1.749   2.477
  789POPC   C1H40999  13.302   1.765   2.619
  789POPC   C1I41000  13.236   1.902   2.632
  789POPC   C1J41001  13.226   1.966   2.748
  789POPC   C1K41002  13.281   1.905   2.878
  789POPC   C1L41003  13.194   1.948   2.996
  789POPC   C1M41004  13.249   1.895   3.129
  789POPC   C1N41005  13.156   1.928   3.246
  789POPC   C1O41006  13.025   1.848   3.240
  789POPC   C1P41007  12.934   1.882   3.357
  789POPC   C1Q41008  12.807   1.796   3.353
  789POPC   C1R41009  12.713   1.830   3.468
  789POPC    CE41010  13.733   2.002   1.715
  789POPC    OG41011  13.810   2.117   1.753
  789POPC   C2A41012  13.750   2.235   1.756
  789POPC    OH41013  13.633   2.250   1.719
  789POPC   C2B41014  13.843   2.343   1.797
  789POPC   C2C41015  13.874   2.340   1.947
  789POPC   C2D41016  14.014   2.397   1.970
  789POPC   C2E41017  14.052   2.413   2.118
  789POPC   C2F41018  14.051   2.284   2.199
  789POPC   C2G41019  14.123   2.300   2.334
  789POPC   C2H41020  14.060   2.408   2.423
  789POPC   C2I41021  14.144   2.433   2.548
  789POPC   C2J41022  14.089   2.552   2.627
  789POPC   C2K41023  14.172   2.585   2.751
  789POPC   C2L41024  14.165   2.475   2.858
  789POPC   C2M41025  14.255   2.505   2.979
  789POPC   C2N41026  14.209   2.626   3.062
  789POPC   C2O41027  14.078   2.598   3.138
  789POPC   C2P41028  14.036   2.720   3.220
  790POPC   CN141029  13.784   4.043   1.304
  790POPC   CN241030  13.696   3.892   1.465
  790POPC   CN341031  13.762   4.114   1.530
  790POPC   NTM41032  13.700   4.033   1.424
  790POPC    CA41033  13.567   4.085   1.386
  790POPC    CB41034  13.453   4.093   1.490
  790POPC    OA41035  13.409   3.968   1.542
  790POPC     P41036  13.346   3.986   1.686
  790POPC    OB41037  13.303   4.125   1.702
  790POPC    OC41038  13.253   3.873   1.692
  790POPC    OD41039  13.476   3.956   1.767
  790POPC    CC41040  13.443   3.888   1.888
  790POPC    CD41041  13.563   3.821   1.956
  790POPC    OE41042  13.528   3.718   2.053
  790POPC   C1A41043  13.488   3.597   2.014
  790POPC    OF41044  13.488   3.567   1.894
  790POPC   C1B41045  13.455   3.506   2.125
  790POPC   C1C41046  13.310   3.524   2.171
  790POPC   C1D41047  13.267   3.422   2.277
  790POPC   C1E41048  13.353   3.429   2.404
  790POPC   C1F41049  13.297   3.336   2.512
  790POPC   C1G41050  13.390   3.336   2.634
  790POPC   C1H41051  13.323   3.266   2.753
  790POPC   C1I41052  13.419   3.260   2.872
  790POPC   C1J41053  13.374   3.275   2.997
  790POPC   C1K41054  13.226   3.300   3.025
  790POPC   C1L41055  13.186   3.241   3.160
  790POPC   C1M41056  13.043   3.280   3.196
  790POPC   C1N41057  12.996   3.215   3.327
  790POPC   C1O41058  13.076   3.261   3.449
  790POPC   C1P41059  13.030   3.190   3.577
  790POPC   C1Q41060  12.889   3.229   3.622
  790POPC   C1R41061  12.881   3.374   3.671
  790POPC    CE41062  13.651   3.934   2.012
  790POPC    OG41063  13.586   4.016   2.111
  790POPC   C2A41064  13.665   4.083   2.194
  790POPC    OH41065  13.788   4.084   2.179
  790POPC   C2B41066  13.591   4.149   2.303
  790POPC   C2C41067  13.662   4.131   2.438
  790POPC   C2D41068  13.578   4.182   2.554
  790POPC   C2E41069  13.650   4.152   2.686
  790POPC   C2F41070  13.566   4.188   2.808
  790POPC   C2G41071  13.643   4.152   2.935
  790POPC   C2H41072  13.565   4.186   3.062
  790POPC   C2I41073  13.649   4.153   3.185
  790POPC   C2J41074  13.578   4.185   3.317
  790POPC   C2K41075  13.551   4.335   3.335
  790POPC   C2L41076  13.505   4.370   3.477
  790POPC   C2M41077  13.369   4.308   3.513
  790POPC   C2N41078  13.334   4.341   3.658
  790POPC   C2O41079  13.199   4.281   3.698
  790POPC   C2P41080  13.167   4.310   3.844
  791POPC   CN141081  14.361   4.137   1.966
  791POPC   CN241082  14.548   4.110   1.821
  791POPC   CN341083  14.404   3.927   1.866
  791POPC   NTM41084  14.408   4.072   1.843
  791POPC    CA41085  14.319   4.104   1.729
  791POPC    CB41086  14.322   4.243   1.660
  791POPC    OA41087  14.330   4.356   1.747
  791POPC     P41088  14.197   4.438   1.755
  791POPC    OB41089  14.170   4.486   1.619
  791POPC    OC41090  14.104   4.349   1.825
  791POPC    OD41091  14.256   4.551   1.847
  791POPC    CC41092  14.260   4.507   1.983
  791POPC    CD41093  14.346   4.589   2.082
  791POPC    OE41094  14.348   4.533   2.216
  791POPC   C1A41095  14.417   4.423   2.245
  791POPC    OF41096  14.491   4.371   2.161
  791POPC   C1B41097  14.397   4.376   2.383
  791POPC   C1C41098  14.313   4.248   2.386
  791POPC   C1D41099  14.295   4.198   2.529
  791POPC   C1E41100  14.202   4.076   2.534
  791POPC   C1F41101  14.187   4.021   2.676
  791POPC   C1G41102  14.117   4.120   2.770
  791POPC   C1H41103  14.117   4.069   2.914
  791POPC   C1I41104  14.054   4.171   3.009
  791POPC   C1J41105  14.103   4.184   3.132
  791POPC   C1K41106  14.224   4.099   3.173
  791POPC   C1L41107  14.300   4.163   3.289
  791POPC   C1M41108  14.423   4.079   3.325
  791POPC   C1N41109  14.496   4.133   3.448
  791POPC   C1O41110  14.413   4.117   3.576
  791POPC   C1P41111  14.486   4.168   3.701
  791POPC   C1Q41112  14.608   4.084   3.737
  791POPC   C1R41113  14.677   4.140   3.862
  791POPC    CE41114  14.293   4.733   2.077
  791POPC    OG41115  14.152   4.746   2.105
  791POPC   C2A41116  14.108   4.866   2.140
  791POPC    OH41117  14.180   4.966   2.132
  791POPC   C2B41118  13.966   4.863   2.180
  791POPC   C2C41119  13.941   4.949   2.304
  791POPC   C2D41120  13.800   4.929   2.357
  791POPC   C2E41121  13.769   5.025   2.473
  791POPC   C2F41122  13.857   5.003   2.596
  791POPC   C2G41123  13.820   5.103   2.705
  791POPC   C2H41124  13.907   5.085   2.829
  791POPC   C2I41125  13.862   5.182   2.938
  791POPC   C2J41126  13.947   5.167   3.064
  791POPC   C2K41127  13.896   5.262   3.173
  791POPC   C2L41128  13.977   5.251   3.302
  791POPC   C2M41129  14.118   5.309   3.288
  791POPC   C2N41130  14.198   5.297   3.419
  791POPC   C2O41131  14.140   5.384   3.530
  791POPC   C2P41132  14.215   5.361   3.662
  792POPC   CN141133  13.445   4.936   1.677
  792POPC   CN241134  13.495   4.703   1.679
  792POPC   CN341135  13.378   4.795   1.498
  792POPC   NTM41136  13.486   4.822   1.594
  792POPC    CA41137  13.612   4.850   1.520
  792POPC    CB41138  13.744   4.876   1.597
  792POPC    OA41139  13.794   4.763   1.669
  792POPC     P41140  13.885   4.807   1.789
  792POPC    OB41141  14.005   4.859   1.722
  792POPC    OC41142  13.794   4.889   1.871
  792POPC    OD41143  13.904   4.662   1.845
  792POPC    CC41144  13.787   4.615   1.913
  792POPC    CD41145  13.784   4.463   1.939
  792POPC    OE41146  13.654   4.410   1.977
  792POPC   C1A41147  13.560   4.385   1.887
  792POPC    OF41148  13.577   4.412   1.767
  792POPC   C1B41149  13.437   4.328   1.946
  792POPC   C1C41150  13.331   4.434   1.979
  792POPC   C1D41151  13.361   4.519   2.103
  792POPC   C1E41152  13.356   4.434   2.231
  792POPC   C1F41153  13.354   4.518   2.360
  792POPC   C1G41154  13.481   4.600   2.385
  792POPC   C1H41155  13.470   4.684   2.513
  792POPC   C1I41156  13.365   4.794   2.501
  792POPC   C1J41157  13.357   4.897   2.585
  792POPC   C1K41158  13.452   4.913   2.703
  792POPC   C1L41159  13.382   4.984   2.819
  792POPC   C1M41160  13.479   5.004   2.936
  792POPC   C1N41161  13.407   5.059   3.059
  792POPC   C1O41162  13.505   5.075   3.175
  792POPC   C1P41163  13.434   5.113   3.306
  792POPC   C1Q41164  13.349   5.000   3.364
  792POPC   C1R41165  13.433   4.880   3.411
  792POPC    CE41166  13.894   4.435   2.043
  792POPC    OG41167  13.872   4.490   2.175
  792POPC   C2A41168  13.948   4.442   2.272
  792POPC    OH41169  14.037   4.360   2.250
  792POPC   C2B41170  13.902   4.486   2.406
  792POPC   C2C41171  14.014   4.494   2.510
  792POPC   C2D41172  13.961   4.471   2.651
  792POPC   C2E41173  13.869   4.583   2.701
  792POPC   C2F41174  13.792   4.535   2.825
  792POPC   C2G41175  13.700   4.644   2.879
  792POPC   C2H41176  13.767   4.732   2.984
  792POPC   C2I41177  13.770   4.663   3.121
  792POPC   C2J41178  13.827   4.757   3.227
  792POPC   C2K41179  13.814   4.701   3.370
  792POPC   C2L41180  13.899   4.577   3.395
  792POPC   C2M41181  13.893   4.538   3.543
  792POPC   C2N41182  13.980   4.417   3.578
  792POPC   C2O41183  13.928   4.287   3.516
  792POPC   C2P41184  14.011   4.167   3.563
  793POPC   CN141185  12.998   5.442   1.814
  793POPC   CN241186  13.080   5.664   1.780
  793POPC   CN341187  13.090   5.502   1.606
  793POPC   NTM41188  13.009   5.552   1.718
  793POPC    CA41189  12.877   5.594   1.666
  793POPC    CB41190  12.767   5.649   1.760
  793POPC    OA41191  12.717   5.560   1.860
  793POPC     P41192  12.610   5.631   1.952
  793POPC    OB41193  12.536   5.729   1.869
  793POPC    OC41194  12.540   5.524   2.022
  793POPC    OD41195  12.712   5.704   2.046
  793POPC    CC41196  12.767   5.611   2.140
  793POPC    CD41197  12.897   5.658   2.206
  793POPC    OE41198  12.978   5.549   2.258
  793POPC   C1A41199  13.079   5.504   2.185
  793POPC    OF41200  13.127   5.573   2.094
  793POPC   C1B41201  13.134   5.376   2.234
  793POPC   C1C41202  13.254   5.397   2.326
  793POPC   C1D41203  13.319   5.263   2.362
  793POPC   C1E41204  13.436   5.278   2.459
  793POPC   C1F41205  13.555   5.354   2.400
  793POPC   C1G41206  13.583   5.486   2.475
  793POPC   C1H41207  13.622   5.461   2.621
  793POPC   C1I41208  13.632   5.592   2.698
  793POPC   C1J41209  13.589   5.595   2.824
  793POPC   C1K41210  13.526   5.469   2.884
  793POPC   C1L41211  13.460   5.494   3.020
  793POPC   C1M41212  13.564   5.516   3.130
  793POPC   C1N41213  13.501   5.539   3.268
  793POPC   C1O41214  13.426   5.672   3.276
  793POPC   C1P41215  13.373   5.694   3.418
  793POPC   C1Q41216  13.297   5.826   3.429
  793POPC   C1R41217  13.250   5.851   3.572
  793POPC    CE41218  12.862   5.774   2.300
  793POPC    OG41219  12.764   5.746   2.403
  793POPC   C2A41220  12.743   5.844   2.490
  793POPC    OH41221  12.810   5.947   2.489
  793POPC   C2B41222  12.644   5.811   2.595
  793POPC   C2C41223  12.716   5.766   2.722
  793POPC   C2D41224  12.621   5.741   2.839
  793POPC   C2E41225  12.702   5.695   2.960
  793POPC   C2F41226  12.617   5.672   3.084
  793POPC   C2G41227  12.706   5.621   3.197
  793POPC   C2H41228  12.627   5.598   3.327
  793POPC   C2I41229  12.717   5.552   3.441
  793POPC   C2J41230  12.818   5.659   3.483
  793POPC   C2K41231  12.916   5.610   3.590
  793POPC   C2L41232  12.853   5.591   3.729
  793POPC   C2M41233  12.813   5.722   3.797
  793POPC   C2N41234  12.933   5.809   3.838
  793POPC   C2O41235  13.014   5.749   3.953
  793POPC   C2P41236  13.135   5.836   3.986
  794POPC   CN141237  13.361   6.974   1.502
  794POPC   CN241238  13.489   7.166   1.437
  794POPC   CN341239  13.273   7.132   1.346
  794POPC   NTM41240  13.353   7.117   1.467
  794POPC    CA41241  13.288   7.197   1.574
  794POPC    CB41242  13.339   7.191   1.720
  794POPC    OA41243  13.479   7.213   1.735
  794POPC     P41244  13.528   7.176   1.880
  794POPC    OB41245  13.447   7.068   1.937
  794POPC    OC41246  13.674   7.166   1.870
  794POPC    OD41247  13.493   7.307   1.955
  794POPC    CC41248  13.536   7.292   2.090
  794POPC    CD41249  13.482   7.399   2.186
  794POPC    OE41250  13.538   7.390   2.320
  794POPC   C1A41251  13.662   7.434   2.342
  794POPC    OF41252  13.718   7.506   2.259
  794POPC   C1B41253  13.710   7.403   2.478
  794POPC   C1C41254  13.685   7.517   2.577
  794POPC   C1D41255  13.725   7.472   2.718
  794POPC   C1E41256  13.717   7.589   2.816
  794POPC   C1F41257  13.756   7.544   2.957
  794POPC   C1G41258  13.774   7.666   3.048
  794POPC   C1H41259  13.806   7.628   3.193
  794POPC   C1I41260  13.682   7.576   3.267
  794POPC   C1J41261  13.672   7.595   3.398
  794POPC   C1K41262  13.784   7.665   3.475
  794POPC   C1L41263  13.788   7.616   3.620
  794POPC   C1M41264  13.902   7.681   3.697
  794POPC   C1N41265  13.905   7.630   3.841
  794POPC   C1O41266  14.024   7.689   3.918
  794POPC   C1P41267  14.036   7.632   4.059
  794POPC   C1Q41268  13.921   7.674   4.151
  794POPC   C1R41269  13.938   7.611   4.290
  794POPC    CE41270  13.329   7.386   2.179
  794POPC    OG41271  13.273   7.266   2.236
  794POPC   C2A41272  13.143   7.248   2.218
  794POPC    OH41273  13.085   7.296   2.121
  794POPC   C2B41274  13.090   7.145   2.310
  794POPC   C2C41275  12.947   7.172   2.357
  794POPC   C2D41276  12.913   7.093   2.484
  794POPC   C2E41277  12.932   6.942   2.467
  794POPC   C2F41278  12.915   6.867   2.600
  794POPC   C2G41279  12.967   6.725   2.584
  794POPC   C2H41280  12.958   6.646   2.715
  794POPC   C2I41281  13.031   6.513   2.699
  794POPC   C2J41282  13.023   6.426   2.824
  794POPC   C2K41283  13.114   6.304   2.808
  794POPC   C2L41284  13.105   6.208   2.926
  794POPC   C2M41285  13.209   6.097   2.910
  794POPC   C2N41286  13.199   5.989   3.018
  794POPC   C2O41287  13.075   5.901   2.999
  794POPC   C2P41288  13.073   5.788   3.102
  795POPC   CN141289  12.795   7.215   1.997
  795POPC   CN241290  12.971   7.092   1.893
  795POPC   CN341291  12.751   7.007   1.890
  795POPC   NTM41292  12.830   7.130   1.882
  795POPC    CA41293  12.799   7.197   1.754
  795POPC    CB41294  12.859   7.335   1.717
  795POPC    OA41295  13.001   7.343   1.720
  795POPC     P41296  13.054   7.485   1.682
  795POPC    OB41297  13.200   7.477   1.684
  795POPC    OC41298  12.986   7.536   1.561
  795POPC    OD41299  13.003   7.571   1.803
  795POPC    CC41300  13.094   7.569   1.912
  795POPC    CD41301  13.052   7.653   2.034
  795POPC    OE41302  13.164   7.672   2.125
  795POPC   C1A41303  13.151   7.770   2.215
  795POPC    OF41304  13.097   7.875   2.180
  795POPC   C1B41305  13.245   7.756   2.329
  795POPC   C1C41306  13.183   7.667   2.438
  795POPC   C1D41307  13.273   7.658   2.562
  795POPC   C1E41308  13.203   7.575   2.670
  795POPC   C1F41309  13.274   7.582   2.806
  795POPC   C1G41310  13.276   7.724   2.862
  795POPC   C1H41311  13.323   7.731   3.008
  795POPC   C1I41312  13.214   7.683   3.105
  795POPC   C1J41313  13.197   7.745   3.221
  795POPC   C1K41314  13.287   7.864   3.257
  795POPC   C1L41315  13.287   7.896   3.407
  795POPC   C1M41316  13.352   7.787   3.492
  795POPC   C1N41317  13.354   7.828   3.640
  795POPC   C1O41318  13.420   7.721   3.726
  795POPC   C1P41319  13.429   7.767   3.872
  795POPC   C1Q41320  13.501   7.662   3.957
  795POPC   C1R41321  13.512   7.710   4.102
  795POPC    CE41322  12.929   7.579   2.091
  795POPC    OG41323  12.876   7.630   2.214
  795POPC   C2A41324  12.789   7.553   2.277
  795POPC    OH41325  12.763   7.439   2.239
  795POPC   C2B41326  12.735   7.614   2.401
  795POPC   C2C41327  12.804   7.561   2.526
  795POPC   C2D41328  12.734   7.615   2.651
  795POPC   C2E41329  12.794   7.555   2.778
  795POPC   C2F41330  12.711   7.596   2.900
  795POPC   C2G41331  12.765   7.532   3.027
  795POPC   C2H41332  12.676   7.568   3.146
  795POPC   C2I41333  12.728   7.502   3.274
  795POPC   C2J41334  12.640   7.540   3.393
  795POPC   C2K41335  12.693   7.476   3.521
  795POPC   C2L41336  12.609   7.517   3.642
  795POPC   C2M41337  12.665   7.455   3.770
  795POPC   C2N41338  12.580   7.495   3.891
  795POPC   C2O41339  12.635   7.430   4.019
  795POPC   C2P41340  12.553   7.473   4.140
  796POPC   CN141341  12.743   7.950   1.410
  796POPC   CN241342  12.587   7.960   1.588
  796POPC   CN341343  12.574   7.784   1.429
  796POPC   NTM41344  12.667   7.869   1.505
  796POPC    CA41345  12.762   7.787   1.583
  796POPC    CB41346  12.720   7.715   1.714
  796POPC    OA41347  12.599   7.639   1.710
  796POPC     P41348  12.556   7.599   1.857
  796POPC    OB41349  12.423   7.538   1.845
  796POPC    OC41350  12.671   7.531   1.916
  796POPC    OD41351  12.535   7.741   1.921
  796POPC    CC41352  12.530   7.735   2.064
  796POPC    CD41353  12.525   7.874   2.129
  796POPC    OE41354  12.552   7.872   2.272
  796POPC   C1A41355  12.591   7.984   2.331
  796POPC    OF41356  12.640   8.075   2.264
  796POPC   C1B41357  12.593   7.975   2.479
  796POPC   C1C41358  12.537   8.100   2.547
  796POPC   C1D41359  12.542   8.091   2.700
  796POPC   C1E41360  12.445   7.988   2.758
  796POPC   C1F41361  12.462   7.978   2.910
  796POPC   C1G41362  12.360   7.883   2.973
  796POPC   C1H41363  12.385   7.865   3.123
  796POPC   C1I41364  12.275   7.781   3.188
  796POPC   C1J41365  12.254   7.786   3.319
  796POPC   C1K41366  12.343   7.872   3.409
  796POPC   C1L41367  12.331   7.829   3.556
  796POPC   C1M41368  12.433   7.903   3.642
  796POPC   C1N41369  12.420   7.869   3.791
  796POPC   C1O41370  12.299   7.936   3.856
  796POPC   C1P41371  12.286   7.897   4.003
  796POPC   C1Q41372  12.172   7.976   4.069
  796POPC   C1R41373  12.146   7.928   4.212
  796POPC    CE41374  12.387   7.932   2.091
  796POPC    OG41375  12.275   7.872   2.160
  796POPC   C2A41376  12.236   7.933   2.271
  796POPC    OH41377  12.255   8.054   2.288
  796POPC   C2B41378  12.150   7.848   2.357
  796POPC   C2C41379  12.237   7.764   2.451
  796POPC   C2D41380  12.152   7.694   2.558
  796POPC   C2E41381  12.240   7.608   2.649
  796POPC   C2F41382  12.162   7.558   2.770
  796POPC   C2G41383  12.251   7.473   2.861
  796POPC   C2H41384  12.182   7.445   2.995
  796POPC   C2I41385  12.273   7.361   3.085
  796POPC   C2J41386  12.222   7.361   3.229
  796POPC   C2K41387  12.315   7.277   3.318
  796POPC   C2L41388  12.286   7.296   3.467
  796POPC   C2M41389  12.147   7.247   3.509
  796POPC   C2N41390  12.127   7.264   3.660
  796POPC   C2O41391  11.989   7.218   3.707
  796POPC   C2P41392  11.878   7.310   3.655
  797POPC   CN141393  13.410   8.461   2.539
  797POPC   CN241394  13.630   8.405   2.473
  797POPC   CN341395  13.448   8.345   2.333
  797POPC   NTM41396  13.499   8.449   2.423
  797POPC    CA41397  13.518   8.578   2.351
  797POPC    CB41398  13.395   8.660   2.303
  797POPC    OA41399  13.307   8.595   2.211
  797POPC     P41400  13.175   8.679   2.190
  797POPC    OB41401  13.202   8.822   2.211
  797POPC    OC41402  13.121   8.633   2.062
  797POPC    OD41403  13.090   8.623   2.310
  797POPC    CC41404  13.051   8.487   2.293
  797POPC    CD41405  12.978   8.424   2.413
  797POPC    OE41406  12.976   8.279   2.412
  797POPC   C1A41407  13.079   8.213   2.464
  797POPC    OF41408  13.183   8.272   2.495
  797POPC   C1B41409  13.063   8.065   2.464
  797POPC   C1C41410  12.970   8.012   2.573
  797POPC   C1D41411  13.018   8.038   2.716
  797POPC   C1E41412  12.916   7.981   2.814
  797POPC   C1F41413  12.949   8.015   2.959
  797POPC   C1G41414  12.838   7.962   3.050
  797POPC   C1H41415  12.859   8.001   3.197
  797POPC   C1I41416  12.741   7.952   3.280
  797POPC   C1J41417  12.753   7.926   3.410
  797POPC   C1K41418  12.886   7.947   3.482
  797POPC   C1L41419  12.863   7.980   3.629
  797POPC   C1M41420  12.997   8.001   3.702
  797POPC   C1N41421  12.975   8.029   3.850
  797POPC   C1O41422  13.109   8.044   3.922
  797POPC   C1P41423  13.088   8.068   4.072
  797POPC   C1Q41424  13.222   8.075   4.146
  797POPC   C1R41425  13.201   8.095   4.296
  797POPC    CE41426  12.839   8.489   2.421
  797POPC    OG41427  12.824   8.593   2.519
  797POPC   C2A41428  12.735   8.688   2.495
  797POPC    OH41429  12.683   8.701   2.384
  797POPC   C2B41430  12.712   8.781   2.608
  797POPC   C2C41431  12.577   8.753   2.674
  797POPC   C2D41432  12.540   8.860   2.777
  797POPC   C2E41433  12.607   8.842   2.914
  797POPC   C2F41434  12.570   8.960   3.003
  797POPC   C2G41435  12.613   8.944   3.149
  797POPC   C2H41436  12.527   8.843   3.224
  797POPC   C2I41437  12.556   8.849   3.374
  797POPC   C2J41438  12.465   8.752   3.451
  797POPC   C2K41439  12.483   8.761   3.603
  797POPC   C2L41440  12.623   8.718   3.649
  797POPC   C2M41441  12.629   8.709   3.802
  797POPC   C2N41442  12.767   8.668   3.851
  797POPC   C2O41443  12.871   8.781   3.841
  797POPC   C2P41444  12.846   8.891   3.944
  798POPC   CN141445  13.874   9.256   2.625
  798POPC   CN241446  13.664   9.298   2.727
  798POPC   CN341447  13.855   9.411   2.807
  798POPC   NTM41448  13.790   9.360   2.686
  798POPC    CA41449  13.761   9.472   2.594
  798POPC    CB41450  13.871   9.537   2.507
  798POPC    OA41451  13.998   9.567   2.566
  798POPC     P41452  14.091   9.644   2.464
  798POPC    OB41453  14.228   9.633   2.516
  798POPC    OC41454  14.059   9.598   2.328
  798POPC    OD41455  14.041   9.791   2.491
  798POPC    CC41456  14.089   9.837   2.618
  798POPC    CD41457  14.060   9.983   2.658
  798POPC    OE41458  14.138  10.023   2.775
  798POPC   C1A41459  14.216  10.131   2.766
  798POPC    OF41460  14.230  10.188   2.658
  798POPC   C1B41461  14.301  10.154   2.885
  798POPC   C1C41462  14.232  10.228   3.000
  798POPC   C1D41463  14.328  10.229   3.120
  798POPC   C1E41464  14.259  10.270   3.251
  798POPC   C1F41465  14.248  10.422   3.270
  798POPC   C1G41466  14.383  10.482   3.311
  798POPC   C1H41467  14.370  10.630   3.346
  798POPC   C1I41468  14.503  10.685   3.398
  798POPC   C1J41469  14.520  10.714   3.526
  798POPC   C1K41470  14.405  10.700   3.627
  798POPC   C1L41471  14.437  10.774   3.758
  798POPC   C1M41472  14.316  10.778   3.851
  798POPC   C1N41473  14.209  10.873   3.796
  798POPC   C1O41474  14.079  10.865   3.877
  798POPC   C1P41475  13.973  10.961   3.822
  798POPC   C1Q41476  13.931  10.927   3.679
  798POPC   C1R41477  13.832  11.029   3.625
  798POPC    CE41478  13.907   9.996   2.669
  798POPC    OG41479  13.844   9.901   2.756
  798POPC   C2A41480  13.712   9.909   2.769
  798POPC    OH41481  13.647   9.995   2.710
  798POPC   C2B41482  13.657   9.809   2.863
  798POPC   C2C41483  13.615   9.878   2.993
  798POPC   C2D41484  13.549   9.781   3.092
  798POPC   C2E41485  13.649   9.680   3.147
  798POPC   C2F41486  13.582   9.580   3.242
  798POPC   C2G41487  13.534   9.639   3.375
  798POPC   C2H41488  13.652   9.683   3.463
  798POPC   C2I41489  13.608   9.710   3.606
  798POPC   C2J41490  13.728   9.752   3.690
  798POPC   C2K41491  13.700   9.754   3.841
  798POPC   C2L41492  13.674   9.614   3.896
  798POPC   C2M41493  13.677   9.614   4.049
  798POPC   C2N41494  13.647   9.474   4.104
  798POPC   C2O41495  13.671   9.465   4.255
  798POPC   C2P41496  13.577   9.555   4.336
  799POPC   CN141497  14.920  12.318   2.187
  799POPC   CN241498  14.920  12.114   2.314
  799POPC   CN341499  15.121  12.196   2.221
  799POPC   NTM41500  14.995  12.237   2.284
  799POPC    CA41501  15.027  12.312   2.408
  799POPC    CB41502  14.914  12.383   2.488
  799POPC    OA41503  14.796  12.307   2.518
  799POPC     P41504  14.797  12.241   2.661
  799POPC    OB41505  14.879  12.320   2.753
  799POPC    OC41506  14.656  12.205   2.686
  799POPC    OD41507  14.877  12.112   2.628
  799POPC    CC41508  14.860  12.018   2.734
  799POPC    CD41509  14.932  11.884   2.715
  799POPC    OE41510  14.881  11.776   2.799
  799POPC   C1A41511  14.756  11.734   2.787
  799POPC    OF41512  14.693  11.754   2.683
  799POPC   C1B41513  14.716  11.642   2.895
  799POPC   C1C41514  14.677  11.718   3.023
  799POPC   C1D41515  14.611  11.628   3.127
  799POPC   C1E41516  14.702  11.517   3.180
  799POPC   C1F41517  14.805  11.568   3.282
  799POPC   C1G41518  14.888  11.450   3.333
  799POPC   C1H41519  14.975  11.489   3.452
  799POPC   C1I41520  15.051  11.367   3.504
  799POPC   C1J41521  15.064  11.348   3.635
  799POPC   C1K41522  15.002  11.448   3.732
  799POPC   C1L41523  15.072  11.444   3.868
  799POPC   C1M41524  15.011  11.544   3.967
  799POPC   C1N41525  14.867  11.510   4.005
  799POPC   C1O41526  14.810  11.618   4.098
  799POPC   C1P41527  14.666  11.588   4.137
  799POPC   C1Q41528  14.607  11.696   4.229
  799POPC   C1R41529  14.677  11.701   4.365
  799POPC    CE41530  15.081  11.915   2.738
  799POPC    OG41531  15.108  11.968   2.869
  799POPC   C2A41532  15.234  11.991   2.903
  799POPC    OH41533  15.325  11.985   2.820
  799POPC   C2B41534  15.245  12.035   3.043
  799POPC   C2C41535  15.370  11.979   3.112
  799POPC   C2D41536  15.376  12.016   3.260
  799POPC   C2E41537  15.269  11.947   3.346
  799POPC   C2F41538  15.289  11.796   3.363
  799POPC   C2G41539  15.417  11.765   3.441
  799POPC   C2H41540  15.431  11.615   3.470
  799POPC   C2I41541  15.565  11.582   3.537
  799POPC   C2J41542  15.581  11.650   3.673
  799POPC   C2K41543  15.719  11.622   3.733
  799POPC   C2L41544  15.737  11.698   3.864
  799POPC   C2M41545  15.874  11.669   3.926
  799POPC   C2N41546  15.895  11.755   4.050
  799POPC   C2O41547  16.030  11.730   4.118
  799POPC   C2P41548  16.037  11.593   4.186
  800POPC   CN141549  14.134  11.441   2.656
  800POPC   CN241550  14.111  11.329   2.448
  800POPC   CN341551  13.918  11.379   2.577
  800POPC   NTM41552  14.050  11.428   2.536
  800POPC    CA41553  14.039  11.555   2.460
  800POPC    CB41554  13.974  11.679   2.524
  800POPC    OA41555  14.042  11.728   2.639
  800POPC     P41556  13.962  11.844   2.707
  800POPC    OB41557  13.956  11.948   2.604
  800POPC    OC41558  13.842  11.778   2.759
  800POPC    OD41559  14.066  11.879   2.819
  800POPC    CC41560  14.077  11.776   2.917
  800POPC    CD41561  14.217  11.765   2.979
  800POPC    OE41562  14.221  11.672   3.092
  800POPC   C1A41563  14.240  11.542   3.072
  800POPC    OF41564  14.254  11.494   2.958
  800POPC   C1B41565  14.245  11.464   3.197
  800POPC   C1C41566  14.111  11.395   3.226
  800POPC   C1D41567  14.116  11.311   3.354
  800POPC   C1E41568  14.125  11.398   3.480
  800POPC   C1F41569  14.139  11.312   3.605
  800POPC   C1G41570  14.148  11.402   3.729
  800POPC   C1H41571  14.172  11.320   3.856
  800POPC   C1I41572  14.187  11.412   3.977
  800POPC   C1J41573  14.264  11.375   4.080
  800POPC   C1K41574  14.337  11.242   4.076
  800POPC   C1L41575  14.461  11.245   4.166
  800POPC   C1M41576  14.540  11.114   4.161
  800POPC   C1N41577  14.464  10.996   4.223
  800POPC   C1O41578  14.540  10.864   4.206
  800POPC   C1P41579  14.673  10.864   4.282
  800POPC   C1Q41580  14.753  10.735   4.259
  800POPC   C1R41581  14.686  10.613   4.322
  800POPC    CE41582  14.256  11.909   3.017
  800POPC    OG41583  14.395  11.942   3.003
  800POPC   C2A41584  14.427  12.071   3.003
  800POPC    OH41585  14.340  12.159   3.007
  800POPC   C2B41586  14.572  12.096   2.992
  800POPC   C2C41587  14.634  12.103   3.131
  800POPC   C2D41588  14.786  12.121   3.126
  800POPC   C2E41589  14.844  12.129   3.268
  800POPC   C2F41590  14.825  11.998   3.346
  800POPC   C2G41591  14.873  12.012   3.491
  800POPC   C2H41592  14.850  11.881   3.566
  800POPC   C2I41593  14.897  11.886   3.711
  800POPC   C2J41594  14.812  11.978   3.800
  800POPC   C2K41595  14.866  11.974   3.943
  800POPC   C2L41596  14.785  12.062   4.039
  800POPC   C2M41597  14.846  12.054   4.179
  800POPC   C2N41598  14.775  12.148   4.276
  800POPC   C2O41599  14.840  12.141   4.415
  800POPC   C2P41600  14.770  12.235   4.513
  801POPC   CN141601  13.394  12.339   2.534
  801POPC   CN241602  13.261  12.142   2.509
  801POPC   CN341603  13.187  12.346   2.417
  801POPC   NTM41604  13.306  12.265   2.442
  801POPC    CA41605  13.371  12.236   2.312
  801POPC    CB41606  13.511  12.169   2.309
  801POPC    OA41607  13.522  12.040   2.367
  801POPC     P41608  13.665  12.011   2.426
  801POPC    OB41609  13.667  11.865   2.416
  801POPC    OC41610  13.761  12.093   2.351
  801POPC    OD41611  13.630  12.070   2.567
  801POPC    CC41612  13.606  11.965   2.662
  801POPC    CD41613  13.537  12.007   2.793
  801POPC    OE41614  13.392  12.014   2.788
  801POPC   C1A41615  13.321  11.903   2.808
  801POPC    OF41616  13.374  11.792   2.804
  801POPC   C1B41617  13.175  11.929   2.815
  801POPC   C1C41618  13.100  11.840   2.915
  801POPC   C1D41619  13.134  11.871   3.062
  801POPC   C1E41620  13.092  12.012   3.104
  801POPC   C1F41621  13.140  12.045   3.246
  801POPC   C1G41622  13.063  11.971   3.355
  801POPC   C1H41623  13.120  12.005   3.492
  801POPC   C1I41624  13.036  11.944   3.604
  801POPC   C1J41625  13.042  11.995   3.727
  801POPC   C1K41626  13.133  12.114   3.755
  801POPC   C1L41627  13.206  12.095   3.888
  801POPC   C1M41628  13.305  12.208   3.916
  801POPC   C1N41629  13.386  12.178   4.042
  801POPC   C1O41630  13.488  12.289   4.069
  801POPC   C1P41631  13.577  12.260   4.190
  801POPC   C1Q41632  13.673  12.143   4.164
  801POPC   C1R41633  13.763  12.119   4.285
  801POPC    CE41634  13.606  12.135   2.844
  801POPC    OG41635  13.736  12.114   2.903
  801POPC   C2A41636  13.799  12.221   2.949
  801POPC    OH41637  13.761  12.335   2.922
  801POPC   C2B41638  13.920  12.188   3.027
  801POPC   C2C41639  13.889  12.189   3.176
  801POPC   C2D41640  14.010  12.142   3.257
  801POPC   C2E41641  13.980  12.136   3.407
  801POPC   C2F41642  13.975  12.274   3.474
  801POPC   C2G41643  13.950  12.257   3.624
  801POPC   C2H41644  13.973  12.386   3.702
  801POPC   C2I41645  13.956  12.358   3.852
  801POPC   C2J41646  14.010  12.473   3.937
  801POPC   C2K41647  14.006  12.435   4.085
  801POPC   C2L41648  14.078  12.538   4.171
  801POPC   C2M41649  14.078  12.495   4.318
  801POPC   C2N41650  14.157  12.591   4.408
  801POPC   C2O41651  14.093  12.730   4.418
  801POPC   C2P41652  14.174  12.821   4.509
  802POPC   CN141653  14.209  12.181   2.669
  802POPC   CN241654  14.202  12.398   2.574
  802POPC   CN341655  14.159  12.205   2.439
  802POPC   NTM41656  14.139  12.265   2.572
  802POPC    CA41657  13.996  12.273   2.609
  802POPC    CB41658  13.891  12.328   2.508
  802POPC    OA41659  13.918  12.453   2.442
  802POPC     P41660  13.840  12.574   2.506
  802POPC    OB41661  13.842  12.684   2.407
  802POPC    OC41662  13.715  12.523   2.564
  802POPC    OD41663  13.943  12.607   2.618
  802POPC    CC41664  13.917  12.738   2.669
  802POPC    CD41665  14.032  12.798   2.752
  802POPC    OE41666  14.150  12.836   2.677
  802POPC   C1A41667  14.164  12.965   2.643
  802POPC    OF41668  14.064  13.037   2.634
  802POPC   C1B41669  14.300  13.002   2.598
  802POPC   C1C41670  14.380  13.077   2.706
  802POPC   C1D41671  14.418  12.985   2.822
  802POPC   C1E41672  14.468  13.064   2.943
  802POPC   C1F41673  14.482  12.969   3.062
  802POPC   C1G41674  14.486  13.045   3.196
  802POPC   C1H41675  14.449  12.955   3.315
  802POPC   C1I41676  14.306  12.901   3.304
  802POPC   C1J41677  14.231  12.872   3.409
  802POPC   C1K41678  14.280  12.891   3.553
  802POPC   C1L41679  14.227  12.779   3.642
  802POPC   C1M41680  14.247  12.807   3.791
  802POPC   C1N41681  14.155  12.919   3.840
  802POPC   C1O41682  14.172  12.945   3.990
  802POPC   C1P41683  14.078  13.057   4.036
  802POPC   C1Q41684  14.097  13.087   4.184
  802POPC   C1R41685  14.005  13.201   4.229
  802POPC    CE41686  14.058  12.700   2.867
  802POPC    OG41687  13.951  12.693   2.963
  802POPC   C2A41688  13.961  12.602   3.059
  802POPC    OH41689  14.060  12.528   3.068
  802POPC   C2B41690  13.849  12.604   3.155
  802POPC   C2C41691  13.885  12.688   3.277
  802POPC   C2D41692  13.778  12.675   3.384
  802POPC   C2E41693  13.808  12.758   3.509
  802POPC   C2F41694  13.795  12.909   3.483
  802POPC   C2G41695  13.806  12.986   3.614
  802POPC   C2H41696  13.790  13.136   3.592
  802POPC   C2I41697  13.796  13.209   3.726
  802POPC   C2J41698  13.787  13.361   3.707
  802POPC   C2K41699  13.799  13.429   3.844
  802POPC   C2L41700  13.805  13.581   3.831
  802POPC   C2M41701  13.837  13.646   3.967
  802POPC   C2N41702  13.976  13.607   4.016
  802POPC   C2O41703  14.003  13.659   4.157
  802POPC   C2P41704  14.140  13.611   4.205
  803POPC   CN141705  13.586  14.461   2.130
  803POPC   CN241706  13.766  14.344   2.227
  803POPC   CN341707  13.609  14.455   2.368
  803POPC   NTM41708  13.624  14.377   2.244
  803POPC    CA41709  13.537  14.257   2.244
  803POPC    CB41710  13.542  14.157   2.362
  803POPC    OA41711  13.672  14.113   2.402
  803POPC     P41712  13.666  13.998   2.507
  803POPC    OB41713  13.559  13.907   2.463
  803POPC    OC41714  13.805  13.950   2.519
  803POPC    OD41715  13.619  14.083   2.630
  803POPC    CC41716  13.729  14.140   2.701
  803POPC    CD41717  13.695  14.273   2.771
  803POPC    OE41718  13.808  14.335   2.837
  803POPC   C1A41719  13.889  14.416   2.769
  803POPC    OF41720  13.876  14.430   2.647
  803POPC   C1B41721  14.003  14.466   2.850
  803POPC   C1C41722  13.964  14.583   2.940
  803POPC   C1D41723  14.080  14.617   3.034
  803POPC   C1E41724  14.041  14.724   3.137
  803POPC   C1F41725  14.027  14.865   3.078
  803POPC   C1G41726  14.160  14.925   3.031
  803POPC   C1H41727  14.256  14.953   3.147
  803POPC   C1I41728  14.386  15.013   3.094
  803POPC   C1J41729  14.464  15.086   3.173
  803POPC   C1K41730  14.425  15.110   3.319
  803POPC   C1L41731  14.549  15.129   3.405
  803POPC   C1M41732  14.512  15.162   3.550
  803POPC   C1N41733  14.639  15.184   3.632
  803POPC   C1O41734  14.607  15.228   3.775
  803POPC   C1P41735  14.734  15.254   3.856
  803POPC   C1Q41736  14.814  15.373   3.803
  803POPC   C1R41737  14.943  15.393   3.883
  803POPC    CE41738  13.572  14.246   2.859
  803POPC    OG41739  13.587  14.145   2.960
  803POPC   C2A41740  13.476  14.101   3.018
  803POPC    OH41741  13.366  14.114   2.963
  803POPC   C2B41742  13.503  14.022   3.140
  803POPC   C2C41743  13.520  14.114   3.261
  803POPC   C2D41744  13.568  14.037   3.384
  803POPC   C2E41745  13.588  14.133   3.502
  803POPC   C2F41746  13.639  14.060   3.626
  803POPC   C2G41747  13.641  14.154   3.746
  803POPC   C2H41748  13.687  14.082   3.873
  803POPC   C2I41749  13.647  14.163   3.996
  803POPC   C2J41750  13.672  14.085   4.125
  803POPC   C2K41751  13.599  14.145   4.245
  803POPC   C2L41752  13.446  14.135   4.229
  803POPC   C2M41753  13.369  14.194   4.348
  803POPC   C2N41754  13.379  14.107   4.473
  803POPC   C2O41755  13.303  14.168   4.592
  803POPC   C2P41756  13.369  14.296   4.644
  804POPC   CN141757  13.877  15.619   1.770
  804POPC   CN241758  13.792  15.666   1.551
  804POPC   CN341759  13.680  15.512   1.694
  804POPC   NTM41760  13.755  15.638   1.691
  804POPC    CA41761  13.666  15.742   1.747
  804POPC    CB41762  13.715  15.888   1.763
  804POPC    OA41763  13.823  15.907   1.854
  804POPC     P41764  13.851  16.058   1.881
  804POPC    OB41765  13.944  16.102   1.777
  804POPC    OC41766  13.719  16.121   1.902
  804POPC    OD41767  13.934  16.042   2.012
  804POPC    CC41768  13.851  16.011   2.123
  804POPC    CD41769  13.917  15.920   2.228
  804POPC    OE41770  13.819  15.875   2.326
  804POPC   C1A41771  13.838  15.761   2.391
  804POPC    OF41772  13.947  15.703   2.383
  804POPC   C1B41773  13.720  15.715   2.468
  804POPC   C1C41774  13.759  15.623   2.584
  804POPC   C1D41775  13.639  15.542   2.636
  804POPC   C1E41776  13.530  15.624   2.707
  804POPC   C1F41777  13.576  15.687   2.839
  804POPC   C1G41778  13.614  15.584   2.946
  804POPC   C1H41779  13.673  15.654   3.068
  804POPC   C1I41780  13.730  15.552   3.167
  804POPC   C1J41781  13.746  15.585   3.294
  804POPC   C1K41782  13.706  15.724   3.344
  804POPC   C1L41783  13.798  15.768   3.458
  804POPC   C1M41784  13.741  15.891   3.529
  804POPC   C1N41785  13.831  15.930   3.646
  804POPC   C1O41786  13.766  16.039   3.731
  804POPC   C1P41787  13.857  16.080   3.847
  804POPC   C1Q41788  13.789  16.186   3.934
  804POPC   C1R41789  13.884  16.233   4.044
  804POPC    CE41790  14.045  15.991   2.276
  804POPC    OG41791  14.028  16.120   2.338
  804POPC   C2A41792  14.138  16.188   2.368
  804POPC    OH41793  14.250  16.151   2.329
  804POPC   C2B41794  14.112  16.315   2.440
  804POPC   C2C41795  14.121  16.295   2.591
  804POPC   C2D41796  14.069  16.419   2.663
  804POPC   C2E41797  14.084  16.404   2.815
  804POPC   C2F41798  14.030  16.530   2.884
  804POPC   C2G41799  14.067  16.531   3.032
  804POPC   C2H41800  14.023  16.662   3.095
  804POPC   C2I41801  14.076  16.675   3.238
  804POPC   C2J41802  14.035  16.810   3.299
  804POPC   C2K41803  14.091  16.826   3.441
  804POPC   C2L41804  14.243  16.839   3.441
  804POPC   C2M41805  14.296  16.844   3.584
  804POPC   C2N41806  14.448  16.864   3.588
  804POPC   C2O41807  14.490   0.019   3.538
  804POPC   C2P41808  14.640   0.039   3.554
  805POPC   CN141809  14.147  15.058   2.288
  805POPC   CN241810  14.033  15.260   2.232
  805POPC   CN341811  14.212  15.182   2.097
  805POPC   NTM41812  14.096  15.139   2.177
  805POPC    CA41813  14.005  15.061   2.090
  805POPC    CB41814  13.865  15.016   2.140
  805POPC    OA41815  13.768  15.120   2.153
  805POPC     P41816  13.654  15.077   2.254
  805POPC    OB41817  13.617  14.939   2.221
  805POPC    OC41818  13.716  15.112   2.382
  805POPC    OD41819  13.544  15.180   2.206
  805POPC    CC41820  13.561  15.310   2.264
  805POPC    CD41821  13.450  15.405   2.217
  805POPC    OE41822  13.487  15.547   2.218
  805POPC   C1A41823  13.401  15.636   2.168
  805POPC    OF41824  13.314  15.599   2.088
  805POPC   C1B41825  13.434  15.777   2.197
  805POPC   C1C41826  13.348  15.828   2.312
  805POPC   C1D41827  13.384  15.972   2.348
  805POPC   C1E41828  13.298  16.026   2.463
  805POPC   C1F41829  13.325  15.952   2.595
  805POPC   C1G41830  13.233  16.005   2.705
  805POPC   C1H41831  13.255  15.928   2.836
  805POPC   C1I41832  13.157  15.976   2.943
  805POPC   C1J41833  13.187  15.966   3.072
  805POPC   C1K41834  13.320  15.906   3.117
  805POPC   C1L41835  13.361  15.951   3.258
  805POPC   C1M41836  13.268  15.896   3.366
  805POPC   C1N41837  13.313  15.938   3.506
  805POPC   C1O41838  13.217  15.882   3.611
  805POPC   C1P41839  13.258  15.917   3.755
  805POPC   C1Q41840  13.386  15.844   3.797
  805POPC   C1R41841  13.424  15.879   3.941
  805POPC    CE41842  13.323  15.361   2.292
  805POPC    OG41843  13.315  15.397   2.431
  805POPC   C2A41844  13.205  15.361   2.496
  805POPC    OH41845  13.106  15.319   2.435
  805POPC   C2B41846  13.210  15.398   2.639
  805POPC   C2C41847  13.080  15.368   2.715
  805POPC   C2D41848  13.082  15.425   2.857
  805POPC   C2E41849  13.178  15.350   2.949
  805POPC   C2F41850  13.179  15.411   3.089
  805POPC   C2G41851  13.250  15.316   3.185
  805POPC   C2H41852  13.255  15.367   3.329
  805POPC   C2I41853  13.363  15.474   3.348
  805POPC   C2J41854  13.390  15.507   3.495
  805POPC   C2K41855  13.433  15.383   3.576
  805POPC   C2L41856  13.498  15.420   3.709
  805POPC   C2M41857  13.641  15.471   3.688
  805POPC   C2N41858  13.709  15.508   3.820
  805POPC   C2O41859  13.853  15.551   3.794
  805POPC   C2P41860  13.924  15.596   3.922
  806POPC   CN141861  15.042   1.377   1.558
  806POPC   CN241862  14.861   1.390   1.710
  806POPC   CN341863  15.033   1.556   1.713
  806POPC   NTM41864  14.951   1.470   1.626
  806POPC    CA41865  14.880   1.550   1.525
  806POPC    CB41866  14.768   1.651   1.563
  806POPC    OA41867  14.651   1.596   1.624
  806POPC     P41868  14.547   1.708   1.662
  806POPC    OB41869  14.615   1.781   1.769
  806POPC    OC41870  14.520   1.769   1.531
  806POPC    OD41871  14.447   1.596   1.708
  806POPC    CC41872  14.443   1.580   1.850
  806POPC    CD41873  14.367   1.454   1.893
  806POPC    OE41874  14.316   1.460   2.029
  806POPC   C1A41875  14.232   1.368   2.077
  806POPC    OF41876  14.188   1.278   2.004
  806POPC   C1B41877  14.194   1.393   2.218
  806POPC   C1C41878  14.179   1.263   2.297
  806POPC   C1D41879  14.128   1.286   2.440
  806POPC   C1E41880  14.232   1.351   2.532
  806POPC   C1F41881  14.174   1.366   2.673
  806POPC   C1G41882  14.280   1.416   2.772
  806POPC   C1H41883  14.223   1.421   2.915
  806POPC   C1I41884  14.335   1.449   3.015
  806POPC   C1J41885  14.314   1.506   3.133
  806POPC   C1K41886  14.174   1.547   3.180
  806POPC   C1L41887  14.176   1.675   3.265
  806POPC   C1M41888  14.251   1.664   3.398
  806POPC   C1N41889  14.180   1.573   3.498
  806POPC   C1O41890  14.256   1.567   3.631
  806POPC   C1P41891  14.188   1.478   3.735
  806POPC   C1Q41892  14.055   1.533   3.786
  806POPC   C1R41893  14.073   1.658   3.873
  806POPC    CE41894  14.460   1.335   1.858
  806POPC    OG41895  14.573   1.318   1.945
  806POPC   C2A41896  14.599   1.193   1.983
  806POPC    OH41897  14.558   1.097   1.917
  806POPC   C2B41898  14.695   1.185   2.096
  806POPC   C2C41899  14.621   1.200   2.229
  806POPC   C2D41900  14.716   1.196   2.348
  806POPC   C2E41901  14.639   1.222   2.478
  806POPC   C2F41902  14.730   1.218   2.600
  806POPC   C2G41903  14.652   1.251   2.727
  806POPC   C2H41904  14.742   1.247   2.851
  806POPC   C2I41905  14.661   1.284   2.975
  806POPC   C2J41906  14.746   1.287   3.101
  806POPC   C2K41907  14.660   1.329   3.221
  806POPC   C2L41908  14.742   1.334   3.350
  806POPC   C2M41909  14.656   1.379   3.468
  806POPC   C2N41910  14.739   1.383   3.596
  806POPC   C2O41911  14.655   1.428   3.715
  806POPC   C2P41912  14.740   1.434   3.842
  807POPC   CN141913  14.137   2.249   1.206
  807POPC   CN241914  14.106   2.031   1.117
  807POPC   CN341915  14.309   2.147   1.076
  807POPC   NTM41916  14.204   2.122   1.176
  807POPC    CA41917  14.260   2.056   1.297
  807POPC    CB41918  14.367   2.127   1.383
  807POPC    OA41919  14.326   2.247   1.450
  807POPC     P41920  14.448   2.331   1.506
  807POPC    OB41921  14.537   2.343   1.389
  807POPC    OC41922  14.373   2.445   1.560
  807POPC    OD41923  14.496   2.227   1.614
  807POPC    CC41924  14.419   2.224   1.734
  807POPC    CD41925  14.437   2.094   1.814
  807POPC    OE41926  14.335   2.074   1.915
  807POPC   C1A41927  14.253   1.969   1.905
  807POPC    OF41928  14.244   1.904   1.801
  807POPC   C1B41929  14.165   1.954   2.024
  807POPC   C1C41930  14.226   1.858   2.126
  807POPC   C1D41931  14.149   1.863   2.258
  807POPC   C1E41932  14.204   1.761   2.357
  807POPC   C1F41933  14.142   1.771   2.497
  807POPC   C1G41934  13.991   1.747   2.499
  807POPC   C1H41935  13.939   1.747   2.643
  807POPC   C1I41936  13.786   1.737   2.648
  807POPC   C1J41937  13.722   1.772   2.759
  807POPC   C1K41938  13.801   1.818   2.881
  807POPC   C1L41939  13.723   1.794   3.011
  807POPC   C1M41940  13.806   1.839   3.131
  807POPC   C1N41941  13.725   1.831   3.261
  807POPC   C1O41942  13.807   1.885   3.378
  807POPC   C1P41943  13.727   1.892   3.509
  807POPC   C1Q41944  13.615   1.997   3.502
  807POPC   C1R41945  13.537   2.002   3.633
  807POPC    CE41946  14.582   2.091   1.866
  807POPC    OG41947  14.619   2.201   1.952
  807POPC   C2A41948  14.732   2.188   2.021
  807POPC    OH41949  14.805   2.090   2.008
  807POPC   C2B41950  14.759   2.302   2.111
  807POPC   C2C41951  14.753   2.264   2.260
  807POPC   C2D41952  14.616   2.211   2.302
  807POPC   C2E41953  14.609   2.192   2.454
  807POPC   C2F41954  14.474   2.134   2.495
  807POPC   C2G41955  14.461   2.133   2.647
  807POPC   C2H41956  14.332   2.064   2.692
  807POPC   C2I41957  14.319   2.068   2.844
  807POPC   C2J41958  14.199   1.987   2.891
  807POPC   C2K41959  14.180   1.997   3.043
  807POPC   C2L41960  14.127   2.134   3.086
  807POPC   C2M41961  14.114   2.147   3.238
  807POPC   C2N41962  14.251   2.154   3.307
  807POPC   C2O41963  14.234   2.169   3.458
  807POPC   C2P41964  14.370   2.184   3.527
  808POPC   CN141965  15.152   2.278   1.348
  808POPC   CN241966  15.109   2.353   1.127
  808POPC   CN341967  14.987   2.170   1.212
  808POPC   NTM41968  15.046   2.299   1.248
  808POPC    CA41969  14.941   2.394   1.294
  808POPC    CB41970  14.863   2.365   1.425
  808POPC    OA41971  14.940   2.371   1.545
  808POPC     P41972  14.869   2.296   1.665
  808POPC    OB41973  14.829   2.166   1.610
  808POPC    OC41974  14.971   2.306   1.771
  808POPC    OD41975  14.751   2.397   1.686
  808POPC    CC41976  14.788   2.510   1.765
  808POPC    CD41977  14.704   2.637   1.739
  808POPC    OE41978  14.767   2.755   1.797
  808POPC   C1A41979  14.738   2.876   1.749
  808POPC    OF41980  14.666   2.889   1.650
  808POPC   C1B41981  14.808   2.986   1.820
  808POPC   C1C41982  14.715   3.054   1.921
  808POPC   C1D41983  14.779   3.178   1.984
  808POPC   C1E41984  14.897   3.142   2.075
  808POPC   C1F41985  14.964   3.268   2.132
  808POPC   C1G41986  15.074   3.228   2.229
  808POPC   C1H41987  15.142   3.350   2.292
  808POPC   C1I41988  15.241   3.305   2.399
  808POPC   C1J41989  15.276   3.383   2.500
  808POPC   C1K41990  15.220   3.525   2.512
  808POPC   C1L41991  15.313   3.611   2.598
  808POPC   C1M41992  15.263   3.756   2.613
  808POPC   C1N41993  15.131   3.770   2.689
  808POPC   C1O41994  15.145   3.731   2.837
  808POPC   C1P41995  15.012   3.747   2.910
  808POPC   C1Q41996  15.024   3.698   3.054
  808POPC   C1R41997  14.893   3.717   3.130
  808POPC    CE41998  14.560   2.607   1.784
  808POPC    OG41999  14.547   2.562   1.920
  808POPC   C2A42000  14.426   2.569   1.976
  808POPC    OH42001  14.327   2.606   1.913
  808POPC   C2B42002  14.426   2.525   2.118
  808POPC   C2C42003  14.489   2.630   2.210
  808POPC   C2D42004  14.478   2.587   2.356
  808POPC   C2E42005  14.551   2.685   2.447
  808POPC   C2F42006  14.528   2.650   2.594
  808POPC   C2G42007  14.600   2.748   2.687
  808POPC   C2H42008  14.557   2.728   2.832
  808POPC   C2I42009  14.627   2.827   2.925
  808POPC   C2J42010  14.565   2.823   3.064
  808POPC   C2K42011  14.633   2.924   3.157
  808POPC   C2L42012  14.558   2.943   3.289
  808POPC   C2M42013  14.556   2.819   3.378
  808POPC   C2N42014  14.478   2.846   3.506
  808POPC   C2O42015  14.473   2.723   3.596
  808POPC   C2P42016  14.394   2.751   3.724
  809POPC   CN142017  14.127   2.825   1.474
  809POPC   CN242018  14.035   2.985   1.326
  809POPC   CN342019  14.023   3.019   1.563
  809POPC   NTM42020  14.107   2.969   1.453
  809POPC    CA42021  14.241   3.033   1.449
  809POPC    CB42022  14.255   3.185   1.427
  809POPC    OA42023  14.391   3.229   1.424
  809POPC     P42024  14.411   3.383   1.399
  809POPC    OB42025  14.549   3.415   1.361
  809POPC    OC42026  14.297   3.429   1.318
  809POPC    OD42027  14.384   3.436   1.544
  809POPC    CC42028  14.497   3.408   1.628
  809POPC    CD42029  14.479   3.456   1.772
  809POPC    OE42030  14.605   3.473   1.843
  809POPC   C1A42031  14.613   3.572   1.932
  809POPC    OF42032  14.512   3.636   1.964
  809POPC   C1B42033  14.748   3.593   1.987
  809POPC   C1C42034  14.787   3.741   1.976
  809POPC   C1D42035  14.922   3.775   2.041
  809POPC   C1E42036  14.920   3.753   2.192
  809POPC   C1F42037  15.040   3.817   2.263
  809POPC   C1G42038  15.030   3.970   2.262
  809POPC   C1H42039  15.145   4.032   2.342
  809POPC   C1I42040  15.136   4.185   2.342
  809POPC   C1J42041  15.176   4.254   2.448
  809POPC   C1K42042  15.229   4.181   2.572
  809POPC   C1L42043  15.203   4.263   2.699
  809POPC   C1M42044  15.250   4.186   2.823
  809POPC   C1N42045  15.232   4.266   2.952
  809POPC   C1O42046  15.085   4.291   2.987
  809POPC   C1P42047  15.073   4.373   3.116
  809POPC   C1Q42048  14.927   4.399   3.156
  809POPC   C1R42049  14.856   4.493   3.058
  809POPC    CE42050  14.370   3.366   1.834
  809POPC    OG42051  14.397   3.225   1.829
  809POPC   C2A42052  14.294   3.143   1.843
  809POPC    OH42053  14.179   3.181   1.818
  809POPC   C2B42054  14.334   3.001   1.863
  809POPC   C2C42055  14.281   2.946   1.995
  809POPC   C2D42056  14.340   3.017   2.117
  809POPC   C2E42057  14.275   2.965   2.245
  809POPC   C2F42058  14.326   3.041   2.368
  809POPC   C2G42059  14.255   2.992   2.494
  809POPC   C2H42060  14.302   3.070   2.617
  809POPC   C2I42061  14.228   3.023   2.742
  809POPC   C2J42062  14.268   3.106   2.863
  809POPC   C2K42063  14.188   3.063   2.986
  809POPC   C2L42064  14.220   3.151   3.106
  809POPC   C2M42065  14.134   3.112   3.226
  809POPC   C2N42066  14.161   3.202   3.346
  809POPC   C2O42067  14.072   3.167   3.466
  809POPC   C2P42068  14.103   3.029   3.525
  810POPC   CN142069  14.721   4.609   1.497
  810POPC   CN242070  14.626   4.601   1.714
  810POPC   CN342071  14.756   4.418   1.634
  810POPC   NTM42072  14.744   4.564   1.635
  810POPC    CA42073  14.865   4.634   1.684
  810POPC    CB42074  14.939   4.583   1.810
  810POPC    OA42075  15.009   4.461   1.789
  810POPC     P42076  15.052   4.391   1.923
  810POPC    OB42077  14.938   4.397   2.016
  810POPC    OC42078  15.113   4.264   1.887
  810POPC    OD42079  15.166   4.490   1.962
  810POPC    CC42080  15.221   4.452   2.088
  810POPC    CD42081  15.255   4.573   2.175
  810POPC    OE42082  15.339   4.540   2.288
  810POPC   C1A42083  15.408   4.638   2.346
  810POPC    OF42084  15.423   4.746   2.288
  810POPC   C1B42085  15.478   4.598   2.470
  810POPC   C1C42086  15.608   4.524   2.439
  810POPC   C1D42087  15.691   4.501   2.565
  810POPC   C1E42088  15.807   4.407   2.532
  810POPC   C1F42089  15.906   4.391   2.647
  810POPC   C1G42090  16.000   4.511   2.660
  810POPC   C1H42091  16.115   4.478   2.754
  810POPC   C1I42092  16.221   4.588   2.757
  810POPC   C1J42093  16.299   4.599   2.864
  810POPC   C1K42094  16.275   4.503   2.981
  810POPC   C1L42095  16.405   4.455   3.045
  810POPC   C1M42096  16.378   4.355   3.158
  810POPC   C1N42097  16.310   4.227   3.108
  810POPC   C1O42098  16.275   4.131   3.221
  810POPC   C1P42099  16.399   4.070   3.287
  810POPC   C1Q42100  16.359   3.973   3.398
  810POPC   C1R42101  16.483   3.909   3.460
  810POPC    CE42102  15.118   4.638   2.206
  810POPC    OG42103  15.025   4.548   2.267
  810POPC   C2A42104  14.897   4.582   2.267
  810POPC    OH42105  14.858   4.692   2.224
  810POPC   C2B42106  14.809   4.476   2.321
  810POPC   C2C42107  14.834   4.448   2.469
  810POPC   C2D42108  14.748   4.329   2.511
  810POPC   C2E42109  14.764   4.290   2.658
  810POPC   C2F42110  14.664   4.179   2.686
  810POPC   C2G42111  14.673   4.122   2.828
  810POPC   C2H42112  14.566   4.013   2.841
  810POPC   C2I42113  14.578   3.935   2.972
  810POPC   C2J42114  14.475   3.821   2.972
  810POPC   C2K42115  14.497   3.729   3.092
  810POPC   C2L42116  14.407   3.605   3.083
  810POPC   C2M42117  14.444   3.501   3.190
  810POPC   C2N42118  14.583   3.442   3.165
  810POPC   C2O42119  14.624   3.345   3.276
  810POPC   C2P42120  14.767   3.296   3.254
  811POPC   CN142121  14.058   6.027   1.701
  811POPC   CN242122  14.019   5.923   1.488
  811POPC   CN342123  14.195   6.081   1.517
  811POPC   NTM42124  14.122   5.971   1.581
  811POPC    CA42125  14.220   5.866   1.617
  811POPC    CB42126  14.178   5.726   1.671
  811POPC    OA42127  14.083   5.720   1.777
  811POPC     P42128  14.091   5.580   1.848
  811POPC    OB42129  14.081   5.475   1.745
  811POPC    OC42130  14.203   5.576   1.942
  811POPC    OD42131  13.956   5.583   1.925
  811POPC    CC42132  13.953   5.674   2.034
  811POPC    CD42133  13.832   5.648   2.124
  811POPC    OE42134  13.801   5.754   2.218
  811POPC   C1A42135  13.725   5.856   2.184
  811POPC    OF42136  13.663   5.858   2.076
  811POPC   C1B42137  13.724   5.959   2.290
  811POPC   C1C42138  13.586   6.019   2.317
  811POPC   C1D42139  13.588   6.103   2.445
  811POPC   C1E42140  13.599   6.015   2.570
  811POPC   C1F42141  13.602   6.100   2.698
  811POPC   C1G42142  13.607   6.009   2.821
  811POPC   C1H42143  13.619   6.090   2.950
  811POPC   C1I42144  13.618   5.996   3.070
  811POPC   C1J42145  13.576   6.036   3.189
  811POPC   C1K42146  13.529   6.180   3.213
  811POPC   C1L42147  13.427   6.184   3.328
  811POPC   C1M42148  13.399   6.326   3.378
  811POPC   C1N42149  13.331   6.415   3.274
  811POPC   C1O42150  13.310   6.555   3.333
  811POPC   C1P42151  13.249   6.654   3.233
  811POPC   C1Q42152  13.104   6.621   3.198
  811POPC   C1R42153  13.047   6.726   3.103
  811POPC    CE42154  13.857   5.509   2.187
  811POPC    OG42155  13.977   5.497   2.266
  811POPC   C2A42156  14.002   5.378   2.320
  811POPC    OH42157  13.947   5.277   2.277
  811POPC   C2B42158  14.117   5.379   2.412
  811POPC   C2C42159  14.074   5.408   2.556
  811POPC   C2D42160  14.195   5.408   2.649
  811POPC   C2E42161  14.152   5.438   2.792
  811POPC   C2F42162  14.268   5.439   2.891
  811POPC   C2G42163  14.326   5.300   2.917
  811POPC   C2H42164  14.426   5.306   3.033
  811POPC   C2I42165  14.473   5.167   3.075
  811POPC   C2J42166  14.550   5.175   3.206
  811POPC   C2K42167  14.597   5.037   3.253
  811POPC   C2L42168  14.665   5.043   3.390
  811POPC   C2M42169  14.795   5.124   3.389
  811POPC   C2N42170  14.858   5.130   3.528
  811POPC   C2O42171  14.987   5.212   3.526
  811POPC   C2P42172  15.049   5.220   3.665
  812POPC   CN142173  13.474   7.070   2.412
  812POPC   CN242174  13.573   6.862   2.458
  812POPC   CN342175  13.349   6.871   2.373
  812POPC   NTM42176  13.483   6.931   2.365
  812POPC    CA42177  13.534   6.930   2.226
  812POPC    CB42178  13.547   6.796   2.148
  812POPC    OA42179  13.630   6.698   2.209
  812POPC     P42180  13.616   6.555   2.144
  812POPC    OB42181  13.588   6.577   2.001
  812POPC    OC42182  13.735   6.480   2.188
  812POPC    OD42183  13.485   6.518   2.222
  812POPC    CC42184  13.510   6.465   2.353
  812POPC    CD42185  13.392   6.480   2.450
  812POPC    OE42186  13.428   6.456   2.589
  812POPC   C1A42187  13.438   6.559   2.672
  812POPC    OF42188  13.408   6.673   2.636
  812POPC   C1B42189  13.483   6.523   2.809
  812POPC   C1C42190  13.636   6.522   2.818
  812POPC   C1D42191  13.683   6.504   2.963
  812POPC   C1E42192  13.667   6.632   3.045
  812POPC   C1F42193  13.694   6.606   3.193
  812POPC   C1G42194  13.695   6.735   3.274
  812POPC   C1H42195  13.703   6.705   3.424
  812POPC   C1I42196  13.736   6.830   3.504
  812POPC   C1J42197  13.681   6.851   3.624
  812POPC   C1K42198  13.578   6.752   3.679
  812POPC   C1L42199  13.484   6.821   3.778
  812POPC   C1M42200  13.366   6.732   3.816
  812POPC   C1N42201  13.268   6.715   3.699
  812POPC   C1O42202  13.158   6.613   3.727
  812POPC   C1P42203  13.064   6.656   3.840
  812POPC   C1Q42204  12.953   6.553   3.861
  812POPC   C1R42205  12.859   6.596   3.973
  812POPC    CE42206  13.270   6.403   2.395
  812POPC    OG42207  13.286   6.261   2.373
  812POPC   C2A42208  13.178   6.197   2.329
  812POPC    OH42209  13.095   6.258   2.260
  812POPC   C2B42210  13.191   6.050   2.333
  812POPC   C2C42211  13.186   5.998   2.477
  812POPC   C2D42212  13.199   5.845   2.484
  812POPC   C2E42213  13.214   5.803   2.630
  812POPC   C2F42214  13.208   5.652   2.652
  812POPC   C2G42215  13.067   5.595   2.628
  812POPC   C2H42216  13.046   5.460   2.696
  812POPC   C2I42217  13.050   5.477   2.849
  812POPC   C2J42218  13.023   5.347   2.925
  812POPC   C2K42219  13.037   5.376   3.074
  812POPC   C2L42220  13.003   5.254   3.160
  812POPC   C2M42221  13.024   5.288   3.308
  812POPC   C2N42222  12.983   5.174   3.401
  812POPC   C2O42223  12.832   5.150   3.400
  812POPC   C2P42224  12.795   5.036   3.495
  813POPC   CN142225  14.051   7.297   2.133
  813POPC   CN242226  14.281   7.338   2.184
  813POPC   CN342227  14.110   7.407   2.333
  813POPC   NTM42228  14.151   7.301   2.240
  813POPC    CA42229  14.160   7.173   2.315
  813POPC    CB42230  14.199   7.041   2.244
  813POPC    OA42231  14.105   6.997   2.147
  813POPC     P42232  14.132   6.854   2.087
  813POPC    OB42233  14.030   6.852   1.980
  813POPC    OC42234  14.275   6.847   2.056
  813POPC    OD42235  14.100   6.758   2.206
  813POPC    CC42236  13.963   6.761   2.246
  813POPC    CD42237  13.936   6.707   2.388
  813POPC    OE42238  13.996   6.783   2.497
  813POPC   C1A42239  13.950   6.903   2.531
  813POPC    OF42240  13.863   6.960   2.464
  813POPC   C1B42241  14.014   6.960   2.651
  813POPC   C1C42242  13.918   6.956   2.770
  813POPC   C1D42243  13.980   7.019   2.895
  813POPC   C1E42244  13.876   7.031   3.006
  813POPC   C1F42245  13.934   7.098   3.131
  813POPC   C1G42246  13.822   7.125   3.230
  813POPC   C1H42247  13.872   7.192   3.358
  813POPC   C1I42248  13.752   7.229   3.446
  813POPC   C1J42249  13.760   7.226   3.579
  813POPC   C1K42250  13.890   7.185   3.648
  813POPC   C1L42251  13.905   7.247   3.787
  813POPC   C1M42252  13.804   7.192   3.888
  813POPC   C1N42253  13.825   7.256   4.026
  813POPC   C1O42254  13.723   7.206   4.129
  813POPC   C1P42255  13.581   7.254   4.098
  813POPC   C1Q42256  13.478   7.200   4.198
  813POPC   C1R42257  13.460   7.049   4.188
  813POPC    CE42258  13.980   6.560   2.384
  813POPC    OG42259  13.949   6.481   2.501
  813POPC   C2A42260  14.013   6.366   2.515
  813POPC    OH42261  14.107   6.334   2.441
  813POPC   C2B42262  13.971   6.292   2.636
  813POPC   C2C42263  14.070   6.316   2.751
  813POPC   C2D42264  14.026   6.247   2.880
  813POPC   C2E42265  14.133   6.267   2.988
  813POPC   C2F42266  14.096   6.206   3.124
  813POPC   C2G42267  13.978   6.278   3.190
  813POPC   C2H42268  13.965   6.239   3.337
  813POPC   C2I42269  13.843   6.308   3.399
  813POPC   C2J42270  13.830   6.288   3.550
  813POPC   C2K42271  13.935   6.368   3.627
  813POPC   C2L42272  13.903   6.367   3.777
  813POPC   C2M42273  14.004   6.452   3.855
  813POPC   C2N42274  13.967   6.462   4.004
  813POPC   C2O42275  13.839   6.542   4.027
  813POPC   C2P42276  13.805   6.549   4.176
  814POPC   CN142277  13.775   7.527   1.879
  814POPC   CN242278  13.958   7.623   1.761
  814POPC   CN342279  13.760   7.752   1.803
  814POPC   NTM42280  13.851   7.651   1.858
  814POPC    CA42281  13.907   7.692   1.989
  814POPC    CB42282  14.001   7.815   2.002
  814POPC    OA42283  13.947   7.939   1.957
  814POPC     P42284  14.040   8.061   1.987
  814POPC    OB42285  14.180   8.024   1.958
  814POPC    OC42286  13.979   8.179   1.923
  814POPC    OD42287  14.026   8.075   2.143
  814POPC    CC42288  13.893   8.105   2.186
  814POPC    CD42289  13.881   8.111   2.339
  814POPC    OE42290  13.744   8.112   2.390
  814POPC   C1A42291  13.681   7.995   2.401
  814POPC    OF42292  13.727   7.893   2.350
  814POPC   C1B42293  13.547   8.006   2.463
  814POPC   C1C42294  13.543   7.959   2.609
  814POPC   C1D42295  13.623   8.049   2.705
  814POPC   C1E42296  13.604   8.001   2.849
  814POPC   C1F42297  13.685   8.086   2.947
  814POPC   C1G42298  13.656   8.041   3.091
  814POPC   C1H42299  13.737   8.118   3.196
  814POPC   C1I42300  13.701   8.267   3.204
  814POPC   C1J42301  13.619   8.317   3.297
  814POPC   C1K42302  13.555   8.232   3.407
  814POPC   C1L42303  13.622   8.258   3.542
  814POPC   C1M42304  13.546   8.192   3.657
  814POPC   C1N42305  13.616   8.217   3.790
  814POPC   C1O42306  13.533   8.162   3.906
  814POPC   C1P42307  13.603   8.177   4.041
  814POPC   C1Q42308  13.723   8.082   4.056
  814POPC   C1R42309  13.788   8.097   4.193
  814POPC    CE42310  13.974   8.227   2.378
  814POPC    OG42311  13.970   8.281   2.511
  814POPC   C2A42312  14.053   8.381   2.535
  814POPC    OH42313  14.140   8.415   2.454
  814POPC   C2B42314  14.037   8.444   2.669
  814POPC   C2C42315  14.018   8.345   2.784
  814POPC   C2D42316  14.013   8.419   2.918
  814POPC   C2E42317  13.885   8.501   2.937
  814POPC   C2F42318  13.904   8.595   3.056
  814POPC   C2G42319  13.773   8.662   3.099
  814POPC   C2H42320  13.803   8.764   3.209
  814POPC   C2I42321  13.678   8.809   3.285
  814POPC   C2J42322  13.624   8.698   3.375
  814POPC   C2K42323  13.510   8.747   3.464
  814POPC   C2L42324  13.468   8.636   3.560
  814POPC   C2M42325  13.363   8.682   3.660
  814POPC   C2N42326  13.332   8.568   3.757
  814POPC   C2O42327  13.233   8.613   3.865
  814POPC   C2P42328  13.204   8.499   3.962
  815POPC   CN142329  13.403   9.025   1.836
  815POPC   CN242330  13.575   8.979   1.681
  815POPC   CN342331  13.606   9.151   1.842
  815POPC   NTM42332  13.549   9.018   1.820
  815POPC    CA42333  13.608   8.914   1.908
  815POPC    CB42334  13.588   8.922   2.061
  815POPC    OA42335  13.642   9.038   2.125
  815POPC     P42336  13.620   9.029   2.280
  815POPC    OB42337  13.618   8.889   2.325
  815POPC    OC42338  13.717   9.126   2.335
  815POPC    OD42339  13.477   9.086   2.296
  815POPC    CC42340  13.448   9.092   2.435
  815POPC    CD42341  13.319   9.167   2.469
  815POPC    OE42342  13.330   9.241   2.594
  815POPC   C1A42343  13.274   9.362   2.600
  815POPC    OF42344  13.232   9.415   2.497
  815POPC   C1B42345  13.292   9.425   2.733
  815POPC   C1C42346  13.177   9.518   2.773
  815POPC   C1D42347  13.200   9.575   2.913
  815POPC   C1E42348  13.090   9.673   2.951
  815POPC   C1F42349  13.107   9.731   3.092
  815POPC   C1G42350  13.083   9.627   3.202
  815POPC   C1H42351  13.091   9.691   3.340
  815POPC   C1I42352  13.057   9.590   3.451
  815POPC   C1J42353  13.105   9.608   3.574
  815POPC   C1K42354  13.195   9.728   3.604
  815POPC   C1L42355  13.175   9.787   3.744
  815POPC   C1M42356  13.218   9.692   3.856
  815POPC   C1N42357  13.201   9.761   3.992
  815POPC   C1O42358  13.234   9.664   4.107
  815POPC   C1P42359  13.225   9.733   4.244
  815POPC   C1Q42360  13.084   9.777   4.283
  815POPC   C1R42361  12.991   9.659   4.311
  815POPC    CE42362  13.202   9.069   2.451
  815POPC    OG42363  13.214   8.949   2.530
  815POPC   C2A42364  13.111   8.866   2.529
  815POPC    OH42365  13.002   8.897   2.479
  815POPC   C2B42366  13.141   8.743   2.606
  815POPC   C2C42367  13.060   8.733   2.735
  815POPC   C2D42368  13.101   8.608   2.814
  815POPC   C2E42369  13.005   8.580   2.930
  815POPC   C2F42370  12.876   8.512   2.883
  815POPC   C2G42371  12.779   8.495   3.000
  815POPC   C2H42372  12.655   8.415   2.961
  815POPC   C2I42373  12.553   8.409   3.075
  815POPC   C2J42374  12.609   8.340   3.200
  815POPC   C2K42375  12.513   8.350   3.318
  815POPC   C2L42376  12.582   8.301   3.446
  815POPC   C2M42377  12.493   8.322   3.568
  815POPC   C2N42378  12.570   8.287   3.696
  815POPC   C2O42379  12.485   8.313   3.820
  815POPC   C2P42380  12.565   8.283   3.947
  816POPC   CN142381  14.431   8.410   1.983
  816POPC   CN242382  14.299   8.327   2.163
  816POPC   CN342383  14.345   8.561   2.142
  816POPC   NTM42384  14.315   8.439   2.068
  816POPC    CA42385  14.196   8.458   1.981
  816POPC    CB42386  14.053   8.469   2.038
  816POPC    OA42387  14.030   8.561   2.144
  816POPC     P42388  13.879   8.556   2.189
  816POPC    OB42389  13.802   8.642   2.099
  816POPC    OC42390  13.840   8.415   2.194
  816POPC    OD42391  13.882   8.610   2.337
  816POPC    CC42392  13.903   8.751   2.342
  816POPC    CD42393  13.906   8.816   2.483
  816POPC    OE42394  14.031   8.793   2.556
  816POPC   C1A42395  14.057   8.871   2.662
  816POPC    OF42396  13.993   8.975   2.680
  816POPC   C1B42397  14.175   8.828   2.740
  816POPC   C1C42398  14.161   8.866   2.887
  816POPC   C1D42399  14.284   8.830   2.972
  816POPC   C1E42400  14.269   8.894   3.110
  816POPC   C1F42401  14.386   8.864   3.203
  816POPC   C1G42402  14.375   8.954   3.327
  816POPC   C1H42403  14.485   8.926   3.429
  816POPC   C1I42404  14.486   9.037   3.536
  816POPC   C1J42405  14.509   9.008   3.663
  816POPC   C1K42406  14.528   8.862   3.706
  816POPC   C1L42407  14.517   8.843   3.858
  816POPC   C1M42408  14.640   8.896   3.932
  816POPC   C1N42409  14.631   8.862   4.081
  816POPC   C1O42410  14.764   8.894   4.151
  816POPC   C1P42411  14.764   8.838   4.293
  816POPC   C1Q42412  14.902   8.856   4.357
  816POPC   C1R42413  14.910   8.783   4.491
  816POPC    CE42414  13.779   8.765   2.553
  816POPC    OG42415  13.709   8.859   2.636
  816POPC   C2A42416  13.595   8.816   2.689
  816POPC    OH42417  13.548   8.706   2.658
  816POPC   C2B42418  13.530   8.917   2.775
  816POPC   C2C42419  13.446   8.852   2.885
  816POPC   C2D42420  13.375   8.955   2.973
  816POPC   C2E42421  13.472   9.039   3.057
  816POPC   C2F42422  13.397   9.117   3.164
  816POPC   C2G42423  13.495   9.189   3.257
  816POPC   C2H42424  13.424   9.254   3.377
  816POPC   C2I42425  13.370   9.151   3.476
  816POPC   C2J42426  13.319   9.221   3.603
  816POPC   C2K42427  13.274   9.118   3.706
  816POPC   C2L42428  13.245   9.186   3.840
  816POPC   C2M42429  13.204   9.082   3.945
  816POPC   C2N42430  13.188   9.146   4.083
  816POPC   C2O42431  13.146   9.045   4.190
  816POPC   C2P42432  13.253   8.939   4.216
  817POPC   CN142433  14.881  11.301   2.437
  817POPC   CN242434  14.881  11.354   2.671
  817POPC   CN342435  14.725  11.458   2.525
  817POPC   NTM42436  14.795  11.333   2.553
  817POPC    CA42437  14.695  11.226   2.577
  817POPC    CB42438  14.738  11.078   2.594
  817POPC    OA42439  14.833  11.050   2.697
  817POPC     P42440  14.853  10.896   2.719
  817POPC    OB42441  14.865  10.833   2.586
  817POPC    OC42442  14.962  10.886   2.818
  817POPC    OD42443  14.714  10.858   2.781
  817POPC    CC42444  14.698  10.903   2.916
  817POPC    CD42445  14.563  10.867   2.981
  817POPC    OE42446  14.543  10.916   3.116
  817POPC   C1A42447  14.498  11.039   3.138
  817POPC    OF42448  14.470  11.114   3.044
  817POPC   C1B42449  14.483  11.068   3.282
  817POPC   C1C42450  14.538  11.206   3.318
  817POPC   C1D42451  14.550  11.229   3.469
  817POPC   C1E42452  14.651  11.132   3.532
  817POPC   C1F42453  14.678  11.163   3.679
  817POPC   C1G42454  14.767  11.052   3.737
  817POPC   C1H42455  14.811  11.082   3.880
  817POPC   C1I42456  14.876  10.957   3.939
  817POPC   C1J42457  14.975  10.963   4.028
  817POPC   C1K42458  15.033  11.097   4.075
  817POPC   C1L42459  15.176  11.083   4.126
  817POPC   C1M42460  15.183  10.998   4.254
  817POPC   C1N42461  15.326  10.982   4.306
  817POPC   C1O42462  15.326  10.892   4.429
  817POPC   C1P42463  15.467  10.869   4.483
  817POPC   C1Q42464  15.463  10.776   4.605
  817POPC   C1R42465  15.604  10.750   4.659
  817POPC    CE42466  14.546  10.715   2.966
  817POPC    OG42467  14.656  10.633   3.009
  817POPC   C2A42468  14.651  10.504   2.977
  817POPC    OH42469  14.563  10.461   2.902
  817POPC   C2B42470  14.766  10.426   3.027
  817POPC   C2C42471  14.731  10.353   3.157
  817POPC   C2D42472  14.847  10.262   3.199
  817POPC   C2E42473  14.813  10.185   3.326
  817POPC   C2F42474  14.929  10.092   3.364
  817POPC   C2G42475  14.905  10.015   3.494
  817POPC   C2H42476  14.897  10.107   3.616
  817POPC   C2I42477  14.895  10.026   3.745
  817POPC   C2J42478  14.887  10.117   3.867
  817POPC   C2K42479  14.906  10.038   3.997
  817POPC   C2L42480  15.051   9.989   4.013
  817POPC   C2M42481  15.069   9.898   4.134
  817POPC   C2N42482  15.047   9.970   4.268
  817POPC   C2O42483  15.064   9.873   4.384
  817POPC   C2P42484  15.038   9.942   4.518
  818POPC   CN142485  16.070  11.468   2.746
  818POPC   CN242486  16.021  11.477   2.512
  818POPC   CN342487  15.845  11.479   2.673
  818POPC   NTM42488  15.981  11.526   2.645
  818POPC    CA42489  15.992  11.674   2.655
  818POPC    CB42490  15.925  11.767   2.551
  818POPC    OA42491  15.785  11.752   2.526
  818POPC     P42492  15.694  11.841   2.618
  818POPC    OB42493  15.769  11.961   2.657
  818POPC    OC42494  15.562  11.848   2.554
  818POPC    OD42495  15.690  11.747   2.742
  818POPC    CC42496  15.568  11.763   2.814
  818POPC    CD42497  15.540  11.644   2.907
  818POPC    OE42498  15.401  11.626   2.945
  818POPC   C1A42499  15.321  11.559   2.863
  818POPC    OF42500  15.350  11.544   2.744
  818POPC   C1B42501  15.191  11.524   2.925
  818POPC   C1C42502  15.196  11.388   2.996
  818POPC   C1D42503  15.273  11.391   3.129
  818POPC   C1E42504  15.293  11.250   3.183
  818POPC   C1F42505  15.362  11.250   3.319
  818POPC   C1G42506  15.392  11.107   3.365
  818POPC   C1H42507  15.449  11.103   3.506
  818POPC   C1I42508  15.497  10.962   3.541
  818POPC   C1J42509  15.503  10.919   3.666
  818POPC   C1K42510  15.459  11.007   3.783
  818POPC   C1L42511  15.557  11.004   3.901
  818POPC   C1M42512  15.569  10.867   3.969
  818POPC   C1N42513  15.674  10.873   4.080
  818POPC   C1O42514  15.695  10.736   4.145
  818POPC   C1P42515  15.804  10.745   4.253
  818POPC   C1Q42516  15.827  10.609   4.318
  818POPC   C1R42517  15.936  10.618   4.426
  818POPC    CE42518  15.645  11.646   3.019
  818POPC    OG42519  15.661  11.768   3.094
  818POPC   C2A42520  15.753  11.766   3.190
  818POPC    OH42521  15.824  11.667   3.208
  818POPC   C2B42522  15.763  11.893   3.265
  818POPC   C2C42523  15.826  11.874   3.404
  818POPC   C2D42524  15.828  12.004   3.483
  818POPC   C2E42525  15.898  11.985   3.618
  818POPC   C2F42526  15.894  12.113   3.701
  818POPC   C2G42527  15.965  12.096   3.835
  818POPC   C2H42528  15.953  12.224   3.917
  818POPC   C2I42529  16.030  12.217   4.049
  818POPC   C2J42530  16.014  12.350   4.124
  818POPC   C2K42531  16.097  12.353   4.252
  818POPC   C2L42532  16.079  12.487   4.324
  818POPC   C2M42533  16.162  12.491   4.453
  818POPC   C2N42534  16.140  12.623   4.527
  818POPC   C2O42535  16.223  12.627   4.656
  818POPC   C2P42536  16.200  12.759   4.730
  819POPC   CN142537  15.552  12.190   2.790
  819POPC   CN242538  15.391  12.238   2.624
  819POPC   CN342539  15.521  12.413   2.722
  819POPC   NTM42540  15.524  12.275   2.673
  819POPC    CA42541  15.630  12.253   2.572
  819POPC    CB42542  15.637  12.342   2.445
  819POPC    OA42543  15.521  12.343   2.362
  819POPC     P42544  15.523  12.461   2.257
  819POPC    OB42545  15.657  12.462   2.198
  819POPC    OC42546  15.403  12.441   2.173
  819POPC    OD42547  15.506  12.584   2.354
  819POPC    CC42548  15.371  12.617   2.387
  819POPC    CD42549  15.363  12.710   2.510
  819POPC    OE42550  15.230  12.728   2.565
  819POPC   C1A42551  15.172  12.631   2.635
  819POPC    OF42552  15.223  12.519   2.644
  819POPC   C1B42553  15.043  12.670   2.696
  819POPC   C1C42554  15.064  12.752   2.823
  819POPC   C1D42555  14.940  12.751   2.913
  819POPC   C1E42556  14.928  12.622   2.995
  819POPC   C1F42557  15.042  12.609   3.096
  819POPC   C1G42558  15.029  12.482   3.179
  819POPC   C1H42559  15.147  12.468   3.275
  819POPC   C1I42560  15.134  12.342   3.360
  819POPC   C1J42561  15.193  12.333   3.479
  819POPC   C1K42562  15.275  12.449   3.535
  819POPC   C1L42563  15.202  12.521   3.649
  819POPC   C1M42564  15.287  12.636   3.703
  819POPC   C1N42565  15.212  12.712   3.812
  819POPC   C1O42566  15.299  12.822   3.872
  819POPC   C1P42567  15.226  12.901   3.981
  819POPC   C1Q42568  15.108  12.982   3.925
  819POPC   C1R42569  15.039  13.063   4.035
  819POPC    CE42570  15.432  12.841   2.467
  819POPC    OG42571  15.476  12.927   2.574
  819POPC   C2A42572  15.397  13.029   2.606
  819POPC    OH42573  15.312  13.071   2.528
  819POPC   C2B42574  15.448  13.105   2.723
  819POPC   C2C42575  15.335  13.167   2.805
  819POPC   C2D42576  15.393  13.267   2.905
  819POPC   C2E42577  15.285  13.318   3.000
  819POPC   C2F42578  15.339  13.426   3.094
  819POPC   C2G42579  15.239  13.455   3.205
  819POPC   C2H42580  15.280  13.573   3.295
  819POPC   C2I42581  15.414  13.550   3.364
  819POPC   C2J42582  15.441  13.653   3.474
  819POPC   C2K42583  15.454  13.797   3.423
  819POPC   C2L42584  15.475  13.890   3.542
  819POPC   C2M42585  15.458  14.037   3.505
  819POPC   C2N42586  15.459  14.121   3.632
  819POPC   C2O42587  15.424  14.267   3.603
  819POPC   C2P42588  15.417  14.347   3.733
  820POPC   CN142589  15.075  13.175   2.374
  820POPC   CN242590  14.963  13.174   2.163
  820POPC   CN342591  15.127  13.338   2.212
  820POPC   NTM42592  15.092  13.197   2.230
  820POPC    CA42593  15.201  13.112   2.177
  820POPC    CB42594  15.174  12.960   2.157
  820POPC    OA42595  15.128  12.886   2.269
  820POPC     P42596  15.039  12.761   2.230
  820POPC    OB42597  15.051  12.739   2.084
  820POPC    OC42598  15.051  12.647   2.321
  820POPC    OD42599  14.897  12.827   2.252
  820POPC    CC42600  14.875  12.852   2.391
  820POPC    CD42601  14.741  12.920   2.425
  820POPC    OE42602  14.747  13.002   2.546
  820POPC   C1A42603  14.765  13.133   2.541
  820POPC    OF42604  14.762  13.192   2.433
  820POPC   C1B42605  14.775  13.200   2.673
  820POPC   C1C42606  14.865  13.130   2.776
  820POPC   C1D42607  14.855  13.199   2.912
  820POPC   C1E42608  14.934  13.124   3.019
  820POPC   C1F42609  14.911  13.187   3.157
  820POPC   C1G42610  14.986  13.116   3.270
  820POPC   C1H42611  14.937  12.973   3.293
  820POPC   C1I42612  15.009  12.909   3.412
  820POPC   C1J42613  14.953  12.807   3.477
  820POPC   C1K42614  14.818  12.752   3.431
  820POPC   C1L42615  14.738  12.683   3.543
  820POPC   C1M42616  14.804  12.555   3.594
  820POPC   C1N42617  14.714  12.474   3.688
  820POPC   C1O42618  14.681  12.547   3.818
  820POPC   C1P42619  14.583  12.464   3.902
  820POPC   C1Q42620  14.545  12.532   4.034
  820POPC   C1R42621  14.662  12.537   4.133
  820POPC    CE42622  14.635  12.809   2.428
  820POPC    OG42623  14.656  12.712   2.532
  820POPC   C2A42624  14.556  12.630   2.562
  820POPC    OH42625  14.450  12.631   2.499
  820POPC   C2B42626  14.583  12.544   2.679
  820POPC   C2C42627  14.518  12.602   2.805
  820POPC   C2D42628  14.547  12.514   2.927
  820POPC   C2E42629  14.472  12.566   3.050
  820POPC   C2F42630  14.498  12.476   3.171
  820POPC   C2G42631  14.409  12.513   3.290
  820POPC   C2H42632  14.429  12.418   3.408
  820POPC   C2I42633  14.385  12.275   3.375
  820POPC   C2J42634  14.417  12.177   3.487
  820POPC   C2K42635  14.379  12.036   3.444
  820POPC   C2L42636  14.409  11.932   3.553
  820POPC   C2M42637  14.366  11.793   3.506
  820POPC   C2N42638  14.388  11.686   3.613
  820POPC   C2O42639  14.536  11.656   3.638
  820POPC   C2P42640  14.553  11.548   3.745
  821POPC   CN142641  13.570  13.530   1.950
  821POPC   CN242642  13.459  13.401   1.784
  821POPC   CN342643  13.524  13.298   1.989
  821POPC   NTM42644  13.473  13.422   1.929
  821POPC    CA42645  13.340  13.462   1.981
  821POPC    CB42646  13.317  13.471   2.134
  821POPC    OA42647  13.411  13.543   2.213
  821POPC     P42648  13.362  13.531   2.362
  821POPC    OB42649  13.241  13.615   2.359
  821POPC    OC42650  13.359  13.387   2.391
  821POPC    OD42651  13.484  13.600   2.431
  821POPC    CC42652  13.593  13.510   2.457
  821POPC    CD42653  13.712  13.571   2.533
  821POPC    OE42654  13.807  13.470   2.577
  821POPC   C1A42655  13.936  13.504   2.575
  821POPC    OF42656  13.979  13.560   2.474
  821POPC   C1B42657  14.017  13.433   2.676
  821POPC   C1C42658  14.137  13.513   2.728
  821POPC   C1D42659  14.098  13.641   2.803
  821POPC   C1E42660  14.222  13.709   2.862
  821POPC   C1F42661  14.188  13.836   2.942
  821POPC   C1G42662  14.151  13.954   2.852
  821POPC   C1H42663  14.120  14.081   2.933
  821POPC   C1I42664  13.982  14.076   3.000
  821POPC   C1J42665  13.960  14.131   3.119
  821POPC   C1K42666  14.074  14.200   3.194
  821POPC   C1L42667  14.023  14.303   3.294
  821POPC   C1M42668  14.141  14.365   3.369
  821POPC   C1N42669  14.097  14.471   3.470
  821POPC   C1O42670  14.220  14.527   3.542
  821POPC   C1P42671  14.182  14.638   3.640
  821POPC   C1Q42672  14.307  14.691   3.710
  821POPC   C1R42673  14.272  14.806   3.805
  821POPC    CE42674  13.649  13.650   2.650
  821POPC    OG42675  13.737  13.698   2.753
  821POPC   C2A42676  13.679  13.751   2.861
  821POPC    OH42677  13.558  13.770   2.866
  821POPC   C2B42678  13.774  13.777   2.971
  821POPC   C2C42679  13.772  13.660   3.070
  821POPC   C2D42680  13.883  13.666   3.175
  821POPC   C2E42681  13.865  13.777   3.279
  821POPC   C2F42682  13.977  13.766   3.382
  821POPC   C2G42683  13.966  13.867   3.496
  821POPC   C2H42684  14.079  13.842   3.596
  821POPC   C2I42685  14.080  13.939   3.715
  821POPC   C2J42686  14.107  14.084   3.673
  821POPC   C2K42687  14.144  14.173   3.791
  821POPC   C2L42688  14.282  14.137   3.847
  821POPC   C2M42689  14.323  14.230   3.961
  821POPC   C2N42690  14.461  14.193   4.016
  821POPC   C2O42691  14.503  14.283   4.133
  821POPC   C2P42692  14.530  14.427   4.090
  822POPC   CN142693  14.437  15.128   2.554
  822POPC   CN242694  14.670  15.128   2.599
  822POPC   CN342695  14.521  15.015   2.746
  822POPC   NTM42696  14.548  15.047   2.605
  822POPC    CA42697  14.569  14.925   2.523
  822POPC    CB42698  14.470  14.807   2.531
  822POPC    OA42699  14.331  14.840   2.523
  822POPC     P42700  14.246  14.713   2.554
  822POPC    OB42701  14.268  14.624   2.439
  822POPC    OC42702  14.276  14.671   2.690
  822POPC    OD42703  14.102  14.775   2.540
  822POPC    CC42704  14.074  14.862   2.650
  822POPC    CD42705  13.975  14.975   2.616
  822POPC    OE42706  13.969  15.083   2.712
  822POPC   C1A42707  14.038  15.194   2.689
  822POPC    OF42708  14.112  15.204   2.591
  822POPC   C1B42709  14.013  15.300   2.789
  822POPC   C1C42710  14.108  15.287   2.909
  822POPC   C1D42711  14.066  15.383   3.022
  822POPC   C1E42712  14.153  15.360   3.146
  822POPC   C1F42713  14.108  15.447   3.263
  822POPC   C1G42714  14.186  15.411   3.389
  822POPC   C1H42715  14.138  15.491   3.510
  822POPC   C1I42716  14.211  15.447   3.638
  822POPC   C1J42717  14.300  15.524   3.699
  822POPC   C1K42718  14.333  15.664   3.647
  822POPC   C1L42719  14.274  15.777   3.733
  822POPC   C1M42720  14.348  15.793   3.866
  822POPC   C1N42721  14.284  15.903   3.950
  822POPC   C1O42722  14.362  15.924   4.080
  822POPC   C1P42723  14.299  16.031   4.170
  822POPC   C1Q42724  14.166  15.985   4.231
  822POPC   C1R42725  14.109  16.092   4.324
  822POPC    CE42726  13.842  14.910   2.573
  822POPC    OG42727  13.784  14.815   2.664
  822POPC   C2A42728  13.681  14.745   2.618
  822POPC    OH42729  13.661  14.736   2.496
  822POPC   C2B42730  13.613  14.661   2.720
  822POPC   C2C42731  13.590  14.732   2.853
  822POPC   C2D42732  13.560  14.632   2.964
  822POPC   C2E42733  13.559  14.702   3.100
  822POPC   C2F42734  13.568  14.600   3.212
  822POPC   C2G42735  13.590  14.671   3.346
  822POPC   C2H42736  13.630  14.572   3.455
  822POPC   C2I42737  13.667  14.648   3.582
  822POPC   C2J42738  13.724  14.552   3.687
  822POPC   C2K42739  13.764  14.630   3.812
  822POPC   C2L42740  13.824  14.537   3.917
  822POPC   C2M42741  13.860  14.615   4.043
  822POPC   C2N42742  13.922  14.524   4.151
  822POPC   C2O42743  14.061  14.472   4.115
  822POPC   C2P42744  14.166  14.583   4.111
  823POPC   CN142745  14.665  15.384   1.978
  823POPC   CN242746  14.846  15.228   1.954
  823POPC   CN342747  14.796  15.383   1.781
  823POPC   NTM42748  14.802  15.365   1.927
  823POPC    CA42749  14.897  15.466   1.979
  823POPC    CB42750  14.936  15.468   2.129
  823POPC    OA42751  14.828  15.489   2.220
  823POPC     P42752  14.864  15.416   2.355
  823POPC    OB42753  14.861  15.274   2.316
  823POPC    OC42754  14.984  15.485   2.402
  823POPC    OD42755  14.733  15.453   2.430
  823POPC    CC42756  14.737  15.584   2.487
  823POPC    CD42757  14.597  15.626   2.536
  823POPC    OE42758  14.576  15.767   2.565
  823POPC   C1A42759  14.549  15.852   2.465
  823POPC    OF42760  14.546  15.812   2.348
  823POPC   C1B42761  14.508  15.986   2.512
  823POPC   C1C42762  14.623  16.087   2.514
  823POPC   C1D42763  14.578  16.223   2.568
  823POPC   C1E42764  14.545  16.218   2.717
  823POPC   C1F42765  14.515  16.359   2.770
  823POPC   C1G42766  14.493  16.359   2.921
  823POPC   C1H42767  14.480  16.503   2.971
  823POPC   C1I42768  14.465  16.512   3.123
  823POPC   C1J42769  14.537  16.603   3.187
  823POPC   C1K42770  14.632  16.690   3.105
  823POPC   C1L42771  14.665  16.825   3.168
  823POPC   C1M42772  14.759  16.901   3.074
  823POPC   C1N42773  14.803   0.055   3.127
  823POPC   C1O42774  14.895   0.045   3.249
  823POPC   C1P42775  14.953   0.181   3.288
  823POPC   C1Q42776  14.845   0.281   3.331
  823POPC   C1R42777  14.906   0.416   3.365
  823POPC    CE42778  14.556  15.526   2.646
  823POPC    OG42779  14.643  15.509   2.759
  823POPC   C2A42780  14.613  15.410   2.842
  823POPC    OH42781  14.524  15.329   2.815
  823POPC   C2B42782  14.705  15.397   2.958
  823POPC   C2C42783  14.657  15.475   3.081
  823POPC   C2D42784  14.736  15.429   3.204
  823POPC   C2E42785  14.698  15.502   3.333
  823POPC   C2F42786  14.765  15.640   3.344
  823POPC   C2G42787  14.734  15.704   3.479
  823POPC   C2H42788  14.809  15.837   3.494
  823POPC   C2I42789  14.768  15.913   3.621
  823POPC   C2J42790  14.814  15.845   3.750
  823POPC   C2K42791  14.771  15.929   3.871
  823POPC   C2L42792  14.822  15.873   4.004
  823POPC   C2M42793  14.758  15.739   4.040
  823POPC   C2N42794  14.815  15.687   4.172
  823POPC   C2O42795  14.752  15.553   4.210
  823POPC   C2P42796  14.809  15.502   4.343
  824POPC   CN142797  14.970  16.042   2.198
  824POPC   CN242798  14.740  16.004   2.155
  824POPC   CN342799  14.819  16.226   2.176
  824POPC   NTM42800  14.853  16.093   2.125
  824POPC    CA42801  14.874  16.093   1.978
  824POPC    CB42802  14.998  16.161   1.915
  824POPC    OA42803  15.020  16.298   1.949
  824POPC     P42804  15.163  16.341   1.897
  824POPC    OB42805  15.256  16.248   1.963
  824POPC    OC42806  15.152  16.349   1.750
  824POPC    OD42807  15.162  16.482   1.964
  824POPC    CC42808  15.205  16.478   2.100
  824POPC    CD42809  15.157  16.598   2.183
  824POPC    OE42810  15.215  16.601   2.316
  824POPC   C1A42811  15.316  16.684   2.343
  824POPC    OF42812  15.360  16.760   2.256
  824POPC   C1B42813  15.360  16.672   2.484
  824POPC   C1C42814  15.510  16.701   2.500
  824POPC   C1D42815  15.576  16.606   2.601
  824POPC   C1E42816  15.546  16.637   2.748
  824POPC   C1F42817  15.622  16.536   2.834
  824POPC   C1G42818  15.647  16.587   2.977
  824POPC   C1H42819  15.523  16.591   3.067
  824POPC   C1I42820  15.486  16.452   3.118
  824POPC   C1J42821  15.452  16.436   3.246
  824POPC   C1K42822  15.452  16.558   3.338
  824POPC   C1L42823  15.354  16.547   3.455
  824POPC   C1M42824  15.401  16.449   3.562
  824POPC   C1N42825  15.307  16.454   3.683
  824POPC   C1O42826  15.354  16.359   3.793
  824POPC   C1P42827  15.265  16.365   3.917
  824POPC   C1Q42828  15.121  16.317   3.890
  824POPC   C1R42829  15.040  16.314   4.019
  824POPC    CE42830  15.003  16.591   2.182
  824POPC    OG42831  14.937  16.695   2.258
  824POPC   C2A42832  14.846  16.652   2.346
  824POPC    OH42833  14.794  16.541   2.335
  824POPC   C2B42834  14.796  16.761   2.432
  824POPC   C2C42835  14.893  16.797   2.546
  824POPC   C2D42836  14.862  16.936   2.602
  824POPC   C2E42837  14.726  16.943   2.672
  824POPC   C2F42838  14.665   0.100   2.663
  824POPC   C2G42839  14.741   0.208   2.740
  824POPC   C2H42840  14.679   0.344   2.707
  824POPC   C2I42841  14.749   0.462   2.777
  824POPC   C2J42842  14.708   0.477   2.923
  824POPC   C2K42843  14.760   0.610   2.978
  824POPC   C2L42844  14.705   0.634   3.119
  824POPC   C2M42845  14.747   0.770   3.173
  824POPC   C2N42846  14.692   0.790   3.314
  824POPC   C2O42847  14.727   0.928   3.369
  824POPC   C2P42848  14.674   0.945   3.512
  825POPC   CN142849  15.941   0.635   1.578
  825POPC   CN242850  15.827   0.593   1.375
  825POPC   CN342851  15.928   0.412   1.491
  825POPC   NTM42852  15.856   0.538   1.508
  825POPC    CA42853  15.727   0.517   1.578
  825POPC    CB42854  15.720   0.453   1.719
  825POPC    OA42855  15.775   0.525   1.830
  825POPC     P42856  15.755   0.444   1.964
  825POPC    OB42857  15.789   0.303   1.937
  825POPC    OC42858  15.822   0.522   2.069
  825POPC    OD42859  15.599   0.459   1.973
  825POPC    CC42860  15.556   0.560   2.063
  825POPC    CD42861  15.404   0.585   2.069
  825POPC    OE42862  15.371   0.689   2.164
  825POPC   C1A42863  15.269   0.771   2.142
  825POPC    OF42864  15.214   0.773   2.031
  825POPC   C1B42865  15.247   0.866   2.254
  825POPC   C1C42866  15.188   1.000   2.210
  825POPC   C1D42867  15.197   1.106   2.320
  825POPC   C1E42868  15.157   1.243   2.264
  825POPC   C1F42869  15.182   1.357   2.363
  825POPC   C1G42870  15.075   1.367   2.471
  825POPC   C1H42871  15.113   1.472   2.576
  825POPC   C1I42872  14.995   1.505   2.667
  825POPC   C1J42873  15.009   1.525   2.797
  825POPC   C1K42874  15.145   1.512   2.869
  825POPC   C1L42875  15.126   1.487   3.019
  825POPC   C1M42876  15.071   1.611   3.090
  825POPC   C1N42877  15.026   1.587   3.234
  825POPC   C1O42878  15.139   1.556   3.331
  825POPC   C1P42879  15.084   1.553   3.474
  825POPC   C1Q42880  15.192   1.524   3.577
  825POPC   C1R42881  15.134   1.530   3.719
  825POPC    CE42882  15.339   0.447   2.093
  825POPC    OG42883  15.388   0.373   2.206
  825POPC   C2A42884  15.358   0.244   2.210
  825POPC    OH42885  15.294   0.189   2.120
  825POPC   C2B42886  15.411   0.175   2.330
  825POPC   C2C42887  15.314   0.190   2.448
  825POPC   C2D42888  15.363   0.110   2.569
  825POPC   C2E42889  15.268   0.131   2.687
  825POPC   C2F42890  15.299   0.032   2.800
  825POPC   C2G42891  15.200   0.052   2.915
  825POPC   C2H42892  15.203  16.919   3.015
  825POPC   C2I42893  15.152  16.790   2.951
  825POPC   C2J42894  15.139  16.676   3.053
  825POPC   C2K42895  15.096  16.546   2.985
  825POPC   C2L42896  14.954  16.555   2.929
  825POPC   C2M42897  14.919  16.438   2.837
  825POPC   C2N42898  14.999  16.443   2.706
  825POPC   C2O42899  14.958  16.329   2.612
  825POPC   C2P42900  15.043  16.329   2.485
  826POPC   CN142901  15.406   1.102   1.947
  826POPC   CN242902  15.429   0.935   1.780
  826POPC   CN342903  15.367   1.155   1.716
  826POPC   NTM42904  15.450   1.077   1.809
  826POPC    CA42905  15.594   1.109   1.793
  826POPC    CB42906  15.648   1.247   1.840
  826POPC    OA42907  15.580   1.360   1.786
  826POPC     P42908  15.643   1.495   1.832
  826POPC    OB42909  15.789   1.478   1.842
  826POPC    OC42910  15.589   1.593   1.737
  826POPC    OD42911  15.577   1.509   1.973
  826POPC    CC42912  15.450   1.571   1.961
  826POPC    CD42913  15.380   1.610   2.093
  826POPC    OE42914  15.255   1.680   2.069
  826POPC   C1A42915  15.142   1.608   2.065
  826POPC    OF42916  15.147   1.490   2.029
  826POPC   C1B42917  15.020   1.692   2.068
  826POPC   C1C42918  14.905   1.627   2.144
  826POPC   C1D42919  14.781   1.717   2.138
  826POPC   C1E42920  14.669   1.672   2.232
  826POPC   C1F42921  14.712   1.684   2.379
  826POPC   C1G42922  14.596   1.655   2.474
  826POPC   C1H42923  14.641   1.655   2.621
  826POPC   C1I42924  14.685   1.793   2.672
  826POPC   C1J42925  14.685   1.817   2.802
  826POPC   C1K42926  14.642   1.704   2.897
  826POPC   C1L42927  14.579   1.756   3.027
  826POPC   C1M42928  14.683   1.811   3.125
  826POPC   C1N42929  14.616   1.842   3.259
  826POPC   C1O42930  14.719   1.887   3.363
  826POPC   C1P42931  14.654   1.908   3.499
  826POPC   C1Q42932  14.754   1.954   3.606
  826POPC   C1R42933  14.855   1.845   3.642
  826POPC    CE42934  15.485   1.687   2.176
  826POPC    OG42935  15.444   1.718   2.310
  826POPC   C2A42936  15.537   1.759   2.395
  826POPC    OH42937  15.657   1.753   2.366
  826POPC   C2B42938  15.479   1.799   2.525
  826POPC   C2C42939  15.565   1.768   2.647
  826POPC   C2D42940  15.485   1.798   2.774
  826POPC   C2E42941  15.566   1.777   2.901
  826POPC   C2F42942  15.477   1.798   3.024
  826POPC   C2G42943  15.557   1.790   3.154
  826POPC   C2H42944  15.463   1.805   3.274
  826POPC   C2I42945  15.540   1.807   3.406
  826POPC   C2J42946  15.443   1.818   3.524
  826POPC   C2K42947  15.517   1.828   3.657
  826POPC   C2L42948  15.424   1.820   3.778
  826POPC   C2M42949  15.325   1.937   3.788
  826POPC   C2N42950  15.232   1.919   3.908
  826POPC   C2O42951  15.131   2.033   3.922
  826POPC   C2P42952  15.197   2.165   3.961
  827POPC   CN142953  15.981   1.701   2.348
  827POPC   CN242954  16.173   1.638   2.218
  827POPC   CN342955  16.033   1.473   2.315
  827POPC   NTM42956  16.033   1.604   2.250
  827POPC    CA42957  15.948   1.596   2.130
  827POPC    CB42958  15.947   1.710   2.026
  827POPC    OA42959  15.926   1.840   2.080
  827POPC     P42960  15.825   1.917   1.988
  827POPC    OB42961  15.902   1.947   1.867
  827POPC    OC42962  15.700   1.840   1.985
  827POPC    OD42963  15.807   2.045   2.073
  827POPC    CC42964  15.740   2.018   2.196
  827POPC    CD42965  15.704   2.147   2.271
  827POPC    OE42966  15.704   2.139   2.417
  827POPC   C1A42967  15.818   2.119   2.483
  827POPC    OF42968  15.924   2.096   2.423
  827POPC   C1B42969  15.803   2.132   2.630
  827POPC   C1C42970  15.896   2.037   2.708
  827POPC   C1D42971  15.892   2.072   2.857
  827POPC   C1E42972  15.980   1.978   2.939
  827POPC   C1F42973  15.988   2.025   3.084
  827POPC   C1G42974  16.067   1.928   3.171
  827POPC   C1H42975  16.088   1.980   3.313
  827POPC   C1I42976  16.193   2.091   3.318
  827POPC   C1J42977  16.256   2.122   3.431
  827POPC   C1K42978  16.223   2.051   3.563
  827POPC   C1L42979  16.251   2.145   3.681
  827POPC   C1M42980  16.226   2.075   3.815
  827POPC   C1N42981  16.259   2.165   3.935
  827POPC   C1O42982  16.159   2.279   3.952
  827POPC   C1P42983  16.194   2.370   4.071
  827POPC   C1Q42984  16.179   2.302   4.208
  827POPC   C1R42985  16.033   2.274   4.244
  827POPC    CE42986  15.576   2.197   2.203
  827POPC    OG42987  15.463   2.108   2.209
  827POPC   C2A42988  15.347   2.153   2.162
  827POPC    OH42989  15.339   2.256   2.094
  827POPC   C2B42990  15.232   2.064   2.191
  827POPC   C2C42991  15.214   2.033   2.340
  827POPC   C2D42992  15.089   1.948   2.365
  827POPC   C2E42993  15.085   1.891   2.507
  827POPC   C2F42994  15.072   1.998   2.616
  827POPC   C2G42995  15.079   1.935   2.755
  827POPC   C2H42996  15.072   2.041   2.864
  827POPC   C2I42997  15.085   1.977   3.002
  827POPC   C2J42998  15.078   2.081   3.114
  827POPC   C2K42999  15.088   2.012   3.251
  827POPC   C2L43000  15.077   2.111   3.368
  827POPC   C2M43001  15.199   2.203   3.378
  827POPC   C2N43002  15.187   2.302   3.494
  827POPC   C2O43003  15.077   2.406   3.469
  827POPC   C2P43004  15.069   2.506   3.585
  828POPC   CN143005  15.219   3.051   1.306
  828POPC   CN243006  14.991   3.104   1.273
  828POPC   CN343007  15.080   3.101   1.494
  828POPC   NTM43008  15.110   3.135   1.354
  828POPC    CA43009  15.142   3.279   1.338
  828POPC    CB43010  15.247   3.353   1.425
  828POPC    OA43011  15.379   3.299   1.431
  828POPC     P43012  15.472   3.389   1.522
  828POPC    OB43013  15.522   3.494   1.433
  828POPC    OC43014  15.393   3.426   1.642
  828POPC    OD43015  15.580   3.279   1.549
  828POPC    CC43016  15.543   3.195   1.658
  828POPC    CD43017  15.602   3.053   1.648
  828POPC    OE43018  15.522   2.950   1.713
  828POPC   C1A43019  15.401   2.921   1.662
  828POPC    OF43020  15.377   2.951   1.545
  828POPC   C1B43021  15.323   2.824   1.741
  828POPC   C1C43022  15.256   2.886   1.864
  828POPC   C1D43023  15.182   2.776   1.941
  828POPC   C1E43024  15.132   2.828   2.076
  828POPC   C1F43025  15.062   2.715   2.152
  828POPC   C1G43026  15.022   2.761   2.293
  828POPC   C1H43027  14.959   2.649   2.376
  828POPC   C1I43028  15.057   2.536   2.408
  828POPC   C1J43029  15.049   2.467   2.521
  828POPC   C1K43030  14.941   2.498   2.625
  828POPC   C1L43031  14.901   2.370   2.699
  828POPC   C1M43032  14.799   2.399   2.810
  828POPC   C1N43033  14.754   2.268   2.875
  828POPC   C1O43034  14.653   2.289   2.988
  828POPC   C1P43035  14.717   2.352   3.112
  828POPC   C1Q43036  14.614   2.369   3.223
  828POPC   C1R43037  14.678   2.429   3.348
  828POPC    CE43038  15.751   3.064   1.684
  828POPC    OG43039  15.779   3.109   1.817
  828POPC   C2A43040  15.907   3.115   1.855
  828POPC    OH43041  15.999   3.082   1.779
  828POPC   C2B43042  15.920   3.153   1.997
  828POPC   C2C43043  16.061   3.136   2.054
  828POPC   C2D43044  16.059   3.129   2.207
  828POPC   C2E43045  16.008   2.992   2.254
  828POPC   C2F43046  15.990   2.989   2.406
  828POPC   C2G43047  15.956   2.848   2.454
  828POPC   C2H43048  15.915   2.850   2.601
  828POPC   C2I43049  15.883   2.709   2.650
  828POPC   C2J43050  15.806   2.715   2.782
  828POPC   C2K43051  15.766   2.575   2.831
  828POPC   C2L43052  15.880   2.501   2.902
  828POPC   C2M43053  15.903   2.560   3.042
  828POPC   C2N43054  16.009   2.482   3.119
  828POPC   C2O43055  16.023   2.539   3.260
  828POPC   C2P43056  16.131   2.464   3.339
  829POPC   CN143057  15.618   3.803   1.615
  829POPC   CN243058  15.731   3.961   1.480
  829POPC   CN343059  15.842   3.867   1.668
  829POPC   NTM43060  15.748   3.839   1.558
  829POPC    CA43061  15.800   3.732   1.470
  829POPC    CB43062  15.819   3.588   1.524
  829POPC    OA43063  15.900   3.575   1.642
  829POPC     P43064  15.882   3.433   1.708
  829POPC    OB43065  15.878   3.339   1.594
  829POPC    OC43066  15.985   3.420   1.811
  829POPC    OD43067  15.740   3.462   1.770
  829POPC    CC43068  15.750   3.520   1.901
  829POPC    CD43069  15.616   3.571   1.957
  829POPC    OE43070  15.629   3.658   2.074
  829POPC   C1A43071  15.652   3.788   2.057
  829POPC    OF43072  15.641   3.839   1.945
  829POPC   C1B43073  15.677   3.862   2.183
  829POPC   C1C43074  15.550   3.924   2.241
  829POPC   C1D43075  15.576   4.012   2.364
  829POPC   C1E43076  15.620   3.933   2.487
  829POPC   C1F43077  15.629   4.024   2.610
  829POPC   C1G43078  15.661   3.943   2.736
  829POPC   C1H43079  15.656   4.026   2.865
  829POPC   C1I43080  15.774   4.121   2.882
  829POPC   C1J43081  15.764   4.229   2.959
  829POPC   C1K43082  15.634   4.261   3.033
  829POPC   C1L43083  15.661   4.324   3.169
  829POPC   C1M43084  15.531   4.346   3.246
  829POPC   C1N43085  15.558   4.387   3.391
  829POPC   C1O43086  15.428   4.385   3.472
  829POPC   C1P43087  15.454   4.413   3.620
  829POPC   C1Q43088  15.324   4.401   3.700
  829POPC   C1R43089  15.347   4.428   3.849
  829POPC    CE43090  15.520   3.451   1.968
  829POPC    OG43091  15.570   3.335   2.036
  829POPC   C2A43092  15.494   3.226   2.035
  829POPC    OH43093  15.385   3.224   1.977
  829POPC   C2B43094  15.553   3.111   2.105
  829POPC   C2C43095  15.506   3.104   2.250
  829POPC   C2D43096  15.562   2.981   2.321
  829POPC   C2E43097  15.505   2.962   2.462
  829POPC   C2F43098  15.554   3.068   2.561
  829POPC   C2G43099  15.501   3.036   2.701
  829POPC   C2H43100  15.555   3.135   2.805
  829POPC   C2I43101  15.510   3.100   2.947
  829POPC   C2J43102  15.569   2.966   2.994
  829POPC   C2K43103  15.526   2.933   3.136
  829POPC   C2L43104  15.583   2.797   3.178
  829POPC   C2M43105  15.553   2.767   3.324
  829POPC   C2N43106  15.616   2.634   3.367
  829POPC   C2O43107  15.602   2.609   3.518
  829POPC   C2P43108  15.457   2.589   3.562
  830POPC   CN143109  14.847   5.813   2.193
  830POPC   CN243110  14.848   6.034   2.104
  830POPC   CN343111  15.044   5.902   2.096
  830POPC   NTM43112  14.898   5.898   2.085
  830POPC    CA43113  14.863   5.847   1.950
  830POPC    CB43114  14.716   5.820   1.912
  830POPC    OA43115  14.623   5.926   1.933
  830POPC     P43116  14.478   5.884   1.891
  830POPC    OB43117  14.395   6.005   1.904
  830POPC    OC43118  14.491   5.819   1.759
  830POPC    OD43119  14.443   5.778   1.999
  830POPC    CC43120  14.408   5.837   2.125
  830POPC    CD43121  14.310   5.752   2.207
  830POPC    OE43122  14.257   5.819   2.325
  830POPC   C1A43123  14.147   5.893   2.314
  830POPC    OF43124  14.110   5.934   2.203
  830POPC   C1B43125  14.101   5.946   2.444
  830POPC   C1C43126  14.029   5.840   2.527
  830POPC   C1D43127  14.012   5.891   2.670
  830POPC   C1E43128  13.962   5.781   2.763
  830POPC   C1F43129  13.971   5.828   2.908
  830POPC   C1G43130  13.931   5.716   3.005
  830POPC   C1H43131  13.951   5.763   3.149
  830POPC   C1I43132  13.912   5.653   3.248
  830POPC   C1J43133  13.870   5.689   3.369
  830POPC   C1K43134  13.864   5.837   3.405
  830POPC   C1L43135  13.752   5.871   3.504
  830POPC   C1M43136  13.777   5.813   3.642
  830POPC   C1N43137  13.671   5.861   3.742
  830POPC   C1O43138  13.695   5.806   3.883
  830POPC   C1P43139  13.825   5.856   3.948
  830POPC   C1Q43140  13.824   6.007   3.975
  830POPC   C1R43141  13.953   6.051   4.044
  830POPC    CE43142  14.375   5.615   2.232
  830POPC    OG43143  14.498   5.615   2.306
  830POPC   C2A43144  14.560   5.499   2.324
  830POPC    OH43145  14.508   5.390   2.294
  830POPC   C2B43146  14.689   5.519   2.393
  830POPC   C2C43147  14.735   5.402   2.480
  830POPC   C2D43148  14.871   5.437   2.540
  830POPC   C2E43149  14.938   5.321   2.614
  830POPC   C2F43150  14.866   5.282   2.743
  830POPC   C2G43151  14.947   5.174   2.815
  830POPC   C2H43152  14.879   5.130   2.945
  830POPC   C2I43153  14.963   5.024   3.018
  830POPC   C2J43154  15.092   5.083   3.077
  830POPC   C2K43155  15.184   4.975   3.135
  830POPC   C2L43156  15.122   4.903   3.255
  830POPC   C2M43157  15.214   4.790   3.303
  830POPC   C2N43158  15.158   4.717   3.426
  830POPC   C2O43159  15.157   4.807   3.550
  830POPC   C2P43160  15.098   4.732   3.670
  831POPC   CN143161  15.585   6.643   1.872
  831POPC   CN243162  15.548   6.500   2.059
  831POPC   CN343163  15.370   6.630   1.969
  831POPC   NTM43164  15.489   6.551   1.935
  831POPC    CA43165  15.460   6.442   1.838
  831POPC    CB43166  15.355   6.332   1.869
  831POPC    OA43167  15.220   6.376   1.874
  831POPC     P43168  15.116   6.259   1.891
  831POPC    OB43169  14.986   6.306   1.843
  831POPC    OC43170  15.172   6.134   1.836
  831POPC    OD43171  15.118   6.243   2.047
  831POPC    CC43172  15.045   6.343   2.118
  831POPC    CD43173  15.056   6.327   2.270
  831POPC    OE43174  14.960   6.403   2.349
  831POPC   C1A43175  14.840   6.353   2.373
  831POPC    OF43176  14.802   6.246   2.322
  831POPC   C1B43177  14.760   6.431   2.471
  831POPC   C1C43178  14.778   6.372   2.610
  831POPC   C1D43179  14.688   6.435   2.717
  831POPC   C1E43180  14.713   6.362   2.849
  831POPC   C1F43181  14.629   6.417   2.965
  831POPC   C1G43182  14.670   6.345   3.094
  831POPC   C1H43183  14.599   6.399   3.219
  831POPC   C1I43184  14.454   6.352   3.232
  831POPC   C1J43185  14.401   6.339   3.353
  831POPC   C1K43186  14.485   6.368   3.477
  831POPC   C1L43187  14.402   6.436   3.586
  831POPC   C1M43188  14.487   6.480   3.706
  831POPC   C1N43189  14.528   6.364   3.798
  831POPC   C1O43190  14.410   6.315   3.882
  831POPC   C1P43191  14.455   6.209   3.983
  831POPC   C1Q43192  14.341   6.170   4.076
  831POPC   C1R43193  14.387   6.070   4.182
  831POPC    CE43194  15.205   6.354   2.299
  831POPC    OG43195  15.251   6.334   2.433
  831POPC   C2A43196  15.381   6.347   2.455
  831POPC    OH43197  15.461   6.369   2.364
  831POPC   C2B43198  15.416   6.328   2.597
  831POPC   C2C43199  15.475   6.190   2.623
  831POPC   C2D43200  15.482   6.161   2.773
  831POPC   C2E43201  15.553   6.028   2.798
  831POPC   C2F43202  15.534   5.984   2.943
  831POPC   C2G43203  15.616   5.858   2.972
  831POPC   C2H43204  15.577   5.790   3.104
  831POPC   C2I43205  15.599   5.877   3.228
  831POPC   C2J43206  15.555   5.799   3.351
  831POPC   C2K43207  15.573   5.879   3.481
  831POPC   C2L43208  15.531   5.795   3.602
  831POPC   C2M43209  15.627   5.678   3.626
  831POPC   C2N43210  15.571   5.575   3.725
  831POPC   C2O43211  15.457   5.492   3.666
  831POPC   C2P43212  15.504   5.397   3.555
  832POPC   CN143213  14.293   6.210   2.220
  832POPC   CN243214  14.305   6.398   2.076
  832POPC   CN343215  14.397   6.409   2.296
  832POPC   NTM43216  14.377   6.322   2.179
  832POPC    CA43217  14.505   6.267   2.128
  832POPC    CB43218  14.609   6.359   2.059
  832POPC    OA43219  14.644   6.477   2.130
  832POPC     P43220  14.724   6.579   2.042
  832POPC    OB43221  14.867   6.579   2.071
  832POPC    OC43222  14.675   6.569   1.903
  832POPC    OD43223  14.663   6.711   2.100
  832POPC    CC43224  14.708   6.735   2.234
  832POPC    CD43225  14.646   6.859   2.298
  832POPC    OE43226  14.709   6.894   2.425
  832POPC   C1A43227  14.686   7.011   2.483
  832POPC    OF43228  14.622   7.100   2.425
  832POPC   C1B43229  14.755   7.026   2.613
  832POPC   C1C43230  14.674   6.959   2.725
  832POPC   C1D43231  14.739   6.975   2.862
  832POPC   C1E43232  14.655   6.900   2.966
  832POPC   C1F43233  14.706   6.920   3.109
  832POPC   C1G43234  14.617   6.843   3.207
  832POPC   C1H43235  14.659   6.861   3.353
  832POPC   C1I43236  14.626   7.000   3.408
  832POPC   C1J43237  14.630   7.020   3.540
  832POPC   C1K43238  14.668   6.905   3.633
  832POPC   C1L43239  14.629   6.930   3.779
  832POPC   C1M43240  14.716   7.038   3.844
  832POPC   C1N43241  14.684   7.051   3.993
  832POPC   C1O43242  14.777   7.152   4.061
  832POPC   C1P43243  14.752   7.155   4.212
  832POPC   C1Q43244  14.848   7.251   4.281
  832POPC   C1R43245  14.827   7.250   4.433
  832POPC    CE43246  14.494   6.833   2.300
  832POPC    OG43247  14.441   6.738   2.396
  832POPC   C2A43248  14.374   6.792   2.498
  832POPC    OH43249  14.348   6.913   2.501
  832POPC   C2B43250  14.326   6.692   2.596
  832POPC   C2C43251  14.344   6.744   2.739
  832POPC   C2D43252  14.260   6.666   2.839
  832POPC   C2E43253  14.285   6.719   2.981
  832POPC   C2F43254  14.181   6.664   3.079
  832POPC   C2G43255  14.214   6.706   3.222
  832POPC   C2H43256  14.100   6.665   3.316
  832POPC   C2I43257  14.134   6.682   3.464
  832POPC   C2J43258  14.162   6.826   3.507
  832POPC   C2K43259  14.188   6.830   3.657
  832POPC   C2L43260  14.218   6.972   3.706
  832POPC   C2M43261  14.231   6.973   3.858
  832POPC   C2N43262  14.259   7.114   3.911
  832POPC   C2O43263  14.263   7.115   4.064
  832POPC   C2P43264  14.285   7.256   4.117
  833POPC   CN143265  14.892   7.517   1.784
  833POPC   CN243266  14.984   7.527   2.004
  833POPC   CN343267  15.119   7.463   1.819
  833POPC   NTM43268  15.011   7.553   1.862
  833POPC    CA43269  15.057   7.692   1.840
  833POPC    CB43270  14.964   7.811   1.874
  833POPC    OA43271  14.845   7.817   1.796
  833POPC     P43272  14.727   7.888   1.871
  833POPC    OB43273  14.773   8.014   1.932
  833POPC    OC43274  14.608   7.879   1.783
  833POPC    OD43275  14.703   7.779   1.980
  833POPC    CC43276  14.636   7.836   2.091
  833POPC    CD43277  14.526   7.746   2.150
  833POPC    OE43278  14.438   7.820   2.240
  833POPC   C1A43279  14.317   7.770   2.265
  833POPC    OF43280  14.280   7.665   2.210
  833POPC   C1B43281  14.238   7.854   2.356
  833POPC   C1C43282  14.185   7.773   2.474
  833POPC   C1D43283  14.126   7.865   2.580
  833POPC   C1E43284  14.056   7.784   2.689
  833POPC   C1F43285  14.028   7.868   2.814
  833POPC   C1G43286  14.157   7.898   2.889
  833POPC   C1H43287  14.130   7.971   3.020
  833POPC   C1I43288  14.260   7.990   3.098
  833POPC   C1J43289  14.258   7.987   3.231
  833POPC   C1K43290  14.126   7.965   3.305
  833POPC   C1L43291  14.126   8.040   3.438
  833POPC   C1M43292  13.993   8.021   3.511
  833POPC   C1N43293  13.989   8.098   3.643
  833POPC   C1O43294  14.090   8.046   3.745
  833POPC   C1P43295  14.082   8.126   3.875
  833POPC   C1Q43296  14.182   8.074   3.978
  833POPC   C1R43297  14.177   8.158   4.105
  833POPC    CE43298  14.597   7.620   2.204
  833POPC    OG43299  14.691   7.641   2.310
  833POPC   C2A43300  14.781   7.546   2.329
  833POPC    OH43301  14.794   7.453   2.250
  833POPC   C2B43302  14.862   7.565   2.451
  833POPC   C2C43303  14.807   7.479   2.565
  833POPC   C2D43304  14.882   7.501   2.695
  833POPC   C2E43305  14.820   7.416   2.806
  833POPC   C2F43306  14.885   7.444   2.941
  833POPC   C2G43307  14.820   7.361   3.051
  833POPC   C2H43308  14.882   7.395   3.187
  833POPC   C2I43309  14.818   7.312   3.298
  833POPC   C2J43310  14.876   7.346   3.436
  833POPC   C2K43311  14.842   7.489   3.479
  833POPC   C2L43312  14.895   7.519   3.619
  833POPC   C2M43313  14.858   7.662   3.660
  833POPC   C2N43314  14.904   7.691   3.803
  833POPC   C2O43315  14.864   7.833   3.844
  833POPC   C2P43316  14.911   7.864   3.986
  834POPC   CN143317  14.935   8.728   2.001
  834POPC   CN243318  15.037   8.516   2.023
  834POPC   CN343319  15.123   8.670   1.864
  834POPC   NTM43320  15.064   8.658   1.998
  834POPC    CA43321  15.155   8.707   2.104
  834POPC    CB43322  15.219   8.848   2.094
  834POPC    OA43323  15.129   8.956   2.069
  834POPC     P43324  15.203   9.093   2.051
  834POPC    OB43325  15.321   9.065   1.968
  834POPC    OC43326  15.099   9.187   2.005
  834POPC    OD43327  15.238   9.122   2.201
  834POPC    CC43328  15.126   9.172   2.276
  834POPC    CD43329  15.134   9.162   2.430
  834POPC    OE43330  15.221   9.257   2.496
  834POPC   C1A43331  15.169   9.367   2.549
  834POPC    OF43332  15.047   9.386   2.548
  834POPC   C1B43333  15.269   9.455   2.614
  834POPC   C1C43334  15.274   9.435   2.765
  834POPC   C1D43335  15.377   9.529   2.828
  834POPC   C1E43336  15.374   9.525   2.982
  834POPC   C1F43337  15.469   9.631   3.037
  834POPC   C1G43338  15.457   9.655   3.188
  834POPC   C1H43339  15.509   9.540   3.274
  834POPC   C1I43340  15.508   9.582   3.422
  834POPC   C1J43341  15.496   9.494   3.520
  834POPC   C1K43342  15.484   9.344   3.491
  834POPC   C1L43343  15.546   9.263   3.605
  834POPC   C1M43344  15.546   9.113   3.573
  834POPC   C1N43345  15.617   9.034   3.683
  834POPC   C1O43346  15.620   8.886   3.649
  834POPC   C1P43347  15.691   8.805   3.758
  834POPC   C1Q43348  15.693   8.656   3.722
  834POPC   C1R43349  15.763   8.574   3.830
  834POPC    CE43350  15.164   9.015   2.464
  834POPC    OG43351  15.056   8.921   2.445
  834POPC   C2A43352  15.087   8.795   2.474
  834POPC    OH43353  15.201   8.753   2.456
  834POPC   C2B43354  14.969   8.706   2.493
  834POPC   C2C43355  14.902   8.732   2.628
  834POPC   C2D43356  14.814   8.616   2.677
  834POPC   C2E43357  14.705   8.573   2.579
  834POPC   C2F43358  14.604   8.480   2.648
  834POPC   C2G43359  14.514   8.560   2.742
  834POPC   C2H43360  14.428   8.472   2.833
  834POPC   C2I43361  14.513   8.401   2.940
  834POPC   C2J43362  14.426   8.339   3.050
  834POPC   C2K43363  14.359   8.447   3.135
  834POPC   C2L43364  14.267   8.387   3.241
  834POPC   C2M43365  14.196   8.498   3.319
  834POPC   C2N43366  14.094   8.439   3.416
  834POPC   C2O43367  14.019   8.550   3.490
  834POPC   C2P43368  13.918   8.491   3.587
  835POPC   CN143369  14.464  10.647   2.565
  835POPC   CN243370  14.455  10.416   2.619
  835POPC   CN343371  14.522  10.486   2.401
  835POPC   NTM43372  14.530  10.518   2.544
  835POPC    CA43373  14.670  10.528   2.594
  835POPC    CB43374  14.774  10.414   2.575
  835POPC    OA43375  14.734  10.282   2.614
  835POPC     P43376  14.862  10.200   2.657
  835POPC    OB43377  14.936  10.178   2.532
  835POPC    OC43378  14.921  10.275   2.768
  835POPC    OD43379  14.789  10.069   2.701
  835POPC    CC43380  14.744  10.076   2.837
  835POPC    CD43381  14.658   9.957   2.883
  835POPC    OE43382  14.613   9.972   3.020
  835POPC   C1A43383  14.516   9.893   3.067
  835POPC    OF43384  14.443   9.831   2.990
  835POPC   C1B43385  14.503   9.897   3.215
  835POPC   C1C43386  14.566   9.772   3.276
  835POPC   C1D43387  14.562   9.774   3.429
  835POPC   C1E43388  14.599   9.637   3.484
  835POPC   C1F43389  14.600   9.634   3.637
  835POPC   C1G43390  14.604   9.489   3.687
  835POPC   C1H43391  14.608   9.484   3.840
  835POPC   C1I43392  14.585   9.341   3.890
  835POPC   C1J43393  14.643   9.296   4.001
  835POPC   C1K43394  14.740   9.383   4.080
  835POPC   C1L43395  14.827   9.296   4.172
  835POPC   C1M43396  14.936   9.377   4.244
  835POPC   C1N43397  15.044   9.425   4.148
  835POPC   C1O43398  15.157   9.497   4.221
  835POPC   C1P43399  15.267   9.542   4.124
  835POPC   C1Q43400  15.346   9.424   4.065
  835POPC   C1R43401  15.451   9.471   3.965
  835POPC    CE43402  14.742   9.830   2.858
  835POPC    OG43403  14.862   9.820   2.937
  835POPC   C2A43404  14.924   9.703   2.940
  835POPC    OH43405  14.901   9.615   2.857
  835POPC   C2B43406  15.029   9.699   3.044
  835POPC   C2C43407  14.972   9.651   3.177
  835POPC   C2D43408  15.075   9.664   3.289
  835POPC   C2E43409  15.020   9.608   3.420
  835POPC   C2F43410  15.120   9.624   3.535
  835POPC   C2G43411  15.071   9.555   3.663
  835POPC   C2H43412  15.068   9.403   3.648
  835POPC   C2I43413  15.000   9.338   3.768
  835POPC   C2J43414  14.990   9.186   3.753
  835POPC   C2K43415  15.123   9.112   3.774
  835POPC   C2L43416  15.161   9.107   3.922
  835POPC   C2M43417  15.291   9.028   3.946
  835POPC   C2N43418  15.277   8.877   3.921
  835POPC   C2O43419  15.191   8.806   4.026
  835POPC   C2P43420  15.258   8.802   4.164
  836POPC   CN143421  14.888   9.741   2.264
  836POPC   CN243422  14.790   9.852   2.451
  836POPC   CN343423  14.953   9.683   2.487
  836POPC   NTM43424  14.915   9.794   2.399
  836POPC    CA43425  15.018   9.901   2.399
  836POPC    CB43426  15.150   9.881   2.321
  836POPC    OA43427  15.216   9.755   2.340
  836POPC     P43428  15.343   9.744   2.249
  836POPC    OB43429  15.400   9.608   2.253
  836POPC    OC43430  15.310   9.805   2.119
  836POPC    OD43431  15.438   9.838   2.330
  836POPC    CC43432  15.486   9.773   2.447
  836POPC    CD43433  15.605   9.839   2.517
  836POPC    OE43434  15.672   9.748   2.609
  836POPC   C1A43435  15.800   9.767   2.641
  836POPC    OF43436  15.862   9.861   2.590
  836POPC   C1B43437  15.855   9.664   2.731
  836POPC   C1C43438  15.816   9.687   2.878
  836POPC   C1D43439  15.890   9.803   2.944
  836POPC   C1E43440  15.817   9.846   3.071
  836POPC   C1F43441  15.896   9.950   3.151
  836POPC   C1G43442  15.997   9.886   3.247
  836POPC   C1H43443  15.932   9.818   3.369
  836POPC   C1I43444  15.863   9.919   3.462
  836POPC   C1J43445  15.844   9.893   3.591
  836POPC   C1K43446  15.891   9.763   3.656
  836POPC   C1L43447  15.900   9.780   3.807
  836POPC   C1M43448  15.936   9.649   3.877
  836POPC   C1N43449  15.928   9.664   4.029
  836POPC   C1O43450  15.957   9.531   4.098
  836POPC   C1P43451  15.939   9.543   4.250
  836POPC   C1Q43452  15.969   9.410   4.318
  836POPC   C1R43453  15.950   9.420   4.470
  836POPC    CE43454  15.557   9.976   2.569
  836POPC    OG43455  15.428   9.980   2.634
  836POPC   C2A43456  15.389  10.095   2.688
  836POPC    OH43457  15.465  10.192   2.694
  836POPC   C2B43458  15.250  10.093   2.739
  836POPC   C2C43459  15.226   9.990   2.851
  836POPC   C2D43460  15.305  10.018   2.979
  836POPC   C2E43461  15.255  10.144   3.053
  836POPC   C2F43462  15.338  10.173   3.179
  836POPC   C2G43463  15.323  10.064   3.285
  836POPC   C2H43464  15.406  10.097   3.409
  836POPC   C2I43465  15.388   9.991   3.518
  836POPC   C2J43466  15.468  10.028   3.643
  836POPC   C2K43467  15.447   9.926   3.755
  836POPC   C2L43468  15.522   9.968   3.881
  836POPC   C2M43469  15.500   9.867   3.993
  836POPC   C2N43470  15.574   9.906   4.121
  836POPC   C2O43471  15.550   9.802   4.230
  836POPC   C2P43472  15.622   9.839   4.360
  837POPC   CN143473  15.671  11.111   2.444
  837POPC   CN243474  15.629  10.901   2.340
  837POPC   CN343475  15.701  10.905   2.566
  837POPC   NTM43476  15.619  10.975   2.466
  837POPC    CA43477  15.476  10.981   2.505
  837POPC    CB43478  15.435  11.020   2.649
  837POPC    OA43479  15.502  11.133   2.705
  837POPC     P43480  15.494  11.129   2.862
  837POPC    OB43481  15.568  11.244   2.915
  837POPC    OC43482  15.357  11.092   2.900
  837POPC    OD43483  15.583  11.002   2.887
  837POPC    CC43484  15.583  10.968   3.025
  837POPC    CD43485  15.603  10.817   3.050
  837POPC    OE43486  15.574  10.780   3.187
  837POPC   C1A43487  15.552  10.652   3.216
  837POPC    OF43488  15.523  10.573   3.125
  837POPC   C1B43489  15.549  10.623   3.361
  837POPC   C1C43490  15.633  10.500   3.396
  837POPC   C1D43491  15.639  10.480   3.548
  837POPC   C1E43492  15.726  10.361   3.590
  837POPC   C1F43493  15.874  10.381   3.555
  837POPC   C1G43494  15.964  10.274   3.615
  837POPC   C1H43495  15.972  10.285   3.768
  837POPC   C1I43496  16.066  10.180   3.827
  837POPC   C1J43497  16.045  10.134   3.950
  837POPC   C1K43498  15.927  10.186   4.033
  837POPC   C1L43499  15.954  10.187   4.184
  837POPC   C1M43500  15.967  10.045   4.241
  837POPC   C1N43501  15.990  10.049   4.392
  837POPC   C1O43502  16.003   9.907   4.447
  837POPC   C1P43503  16.020   9.908   4.599
  837POPC   C1Q43504  16.030   9.764   4.651
  837POPC   C1R43505  16.046   9.761   4.803
  837POPC    CE43506  15.744  10.782   2.999
  837POPC    OG43507  15.854  10.834   3.077
  837POPC   C2A43508  15.971  10.774   3.062
  837POPC    OH43509  15.990  10.687   2.976
  837POPC   C2B43510  16.075  10.822   3.155
  837POPC   C2C43511  16.082  10.736   3.282
  837POPC   C2D43512  16.194  10.785   3.373
  837POPC   C2E43513  16.209  10.705   3.503
  837POPC   C2F43514  16.088  10.720   3.595
  837POPC   C2G43515  16.115  10.668   3.737
  837POPC   C2H43516  16.215  10.757   3.811
  837POPC   C2I43517  16.232  10.718   3.957
  837POPC   C2J43518  16.327  10.817   4.024
  837POPC   C2K43519  16.365  10.775   4.166
  837POPC   C2L43520  16.468  10.873   4.223
  837POPC   C2M43521  16.523  10.826   4.357
  837POPC   C2N43522  16.630  10.923   4.408
  837POPC   C2O43523  16.692  10.878   4.541
  837POPC   C2P43524  16.776  10.750   4.526
  838POPC   CN143525  16.780  13.146   2.072
  838POPC   CN243526  16.640  13.081   2.252
  838POPC   CN343527  16.629  12.965   2.044
  838POPC   NTM43528  16.719  13.031   2.140
  838POPC    CA43529  16.828  12.940   2.183
  838POPC    CB43530  16.797  12.818   2.274
  838POPC    OA43531  16.706  12.723   2.219
  838POPC     P43532  16.618  12.655   2.331
  838POPC    OB43533  16.544  12.549   2.260
  838POPC    OC43534  16.707  12.627   2.444
  838POPC    OD43535  16.523  12.775   2.361
  838POPC    CC43536  16.472  12.771   2.494
  838POPC    CD43537  16.404  12.903   2.534
  838POPC    OE43538  16.410  12.935   2.676
  838POPC   C1A43539  16.524  12.979   2.728
  838POPC    OF43540  16.627  12.989   2.659
  838POPC   C1B43541  16.515  13.012   2.871
  838POPC   C1C43542  16.556  12.895   2.961
  838POPC   C1D43543  16.566  12.944   3.105
  838POPC   C1E43544  16.606  12.833   3.202
  838POPC   C1F43545  16.628  12.893   3.340
  838POPC   C1G43546  16.663  12.788   3.445
  838POPC   C1H43547  16.690  12.856   3.579
  838POPC   C1I43548  16.722  12.754   3.688
  838POPC   C1J43549  16.692  12.782   3.815
  838POPC   C1K43550  16.629  12.917   3.847
  838POPC   C1L43551  16.657  12.958   3.992
  838POPC   C1M43552  16.594  13.094   4.023
  838POPC   C1N43553  16.624  13.134   4.167
  838POPC   C1O43554  16.571  13.274   4.197
  838POPC   C1P43555  16.610  13.315   4.339
  838POPC   C1Q43556  16.564  13.457   4.370
  838POPC   C1R43557  16.610  13.499   4.510
  838POPC    CE43558  16.264  12.903   2.470
  838POPC    OG43559  16.172  12.801   2.515
  838POPC   C2A43560  16.048  12.807   2.468
  838POPC    OH43561  16.021  12.871   2.366
  838POPC   C2B43562  15.953  12.718   2.537
  838POPC   C2C43563  15.877  12.795   2.646
  838POPC   C2D43564  15.792  12.702   2.732
  838POPC   C2E43565  15.725  12.779   2.846
  838POPC   C2F43566  15.656  12.682   2.943
  838POPC   C2G43567  15.595  12.752   3.064
  838POPC   C2H43568  15.470  12.832   3.029
  838POPC   C2I43569  15.409  12.902   3.151
  838POPC   C2J43570  15.501  13.010   3.208
  838POPC   C2K43571  15.436  13.085   3.325
  838POPC   C2L43572  15.424  12.998   3.451
  838POPC   C2M43573  15.344  13.069   3.561
  838POPC   C2N43574  15.414  13.194   3.615
  838POPC   C2O43575  15.328  13.261   3.722
  838POPC   C2P43576  15.396  13.387   3.776
  839POPC   CN143577  14.290  13.521   2.377
  839POPC   CN243578  14.414  13.512   2.173
  839POPC   CN343579  14.246  13.353   2.214
  839POPC   NTM43580  14.281  13.494   2.233
  839POPC    CA43581  14.174  13.575   2.170
  839POPC    CB43582  14.185  13.730   2.167
  839POPC    OA43583  14.294  13.777   2.087
  839POPC     P43584  14.324  13.929   2.112
  839POPC    OB43585  14.414  13.967   2.001
  839POPC    OC43586  14.197  13.998   2.131
  839POPC    OD43587  14.397  13.911   2.249
  839POPC    CC43588  14.531  13.864   2.237
  839POPC    CD43589  14.603  13.835   2.369
  839POPC    OE43590  14.567  13.708   2.430
  839POPC   C1A43591  14.668  13.642   2.486
  839POPC    OF43592  14.776  13.638   2.426
  839POPC   C1B43593  14.626  13.548   2.592
  839POPC   C1C43594  14.623  13.619   2.727
  839POPC   C1D43595  14.601  13.522   2.843
  839POPC   C1E43596  14.607  13.597   2.976
  839POPC   C1F43597  14.626  13.499   3.093
  839POPC   C1G43598  14.649  13.575   3.223
  839POPC   C1H43599  14.702  13.480   3.331
  839POPC   C1I43600  14.728  13.554   3.462
  839POPC   C1J43601  14.733  13.485   3.576
  839POPC   C1K43602  14.718  13.333   3.573
  839POPC   C1L43603  14.787  13.268   3.693
  839POPC   C1M43604  14.779  13.115   3.690
  839POPC   C1N43605  14.637  13.059   3.704
  839POPC   C1O43606  14.576  13.079   3.843
  839POPC   C1P43607  14.644  12.993   3.950
  839POPC   C1Q43608  14.581  13.019   4.087
  839POPC   C1R43609  14.650  12.935   4.195
  839POPC    CE43610  14.574  13.957   2.458
  839POPC    OG43611  14.640  13.964   2.586
  839POPC   C2A43612  14.591  14.050   2.674
  839POPC    OH43613  14.491  14.118   2.648
  839POPC   C2B43614  14.665  14.050   2.803
  839POPC   C2C43615  14.574  14.074   2.924
  839POPC   C2D43616  14.657  14.075   3.052
  839POPC   C2E43617  14.575  14.108   3.177
  839POPC   C2F43618  14.480  13.996   3.219
  839POPC   C2G43619  14.396  14.038   3.339
  839POPC   C2H43620  14.476  14.054   3.469
  839POPC   C2I43621  14.507  13.919   3.533
  839POPC   C2J43622  14.586  13.937   3.663
  839POPC   C2K43623  14.593  13.805   3.739
  839POPC   C2L43624  14.676  13.817   3.867
  839POPC   C2M43625  14.674  13.684   3.942
  839POPC   C2N43626  14.763  13.689   4.066
  839POPC   C2O43627  14.759  13.557   4.145
  839POPC   C2P43628  14.816  13.439   4.067
  840POPC   CN143629  14.235  14.095   2.462
  840POPC   CN243630  14.039  14.222   2.481
  840POPC   CN343631  14.241  14.303   2.579
  840POPC   NTM43632  14.184  14.232   2.464
  840POPC    CA43633  14.209  14.304   2.336
  840POPC    CB43634  14.352  14.341   2.290
  840POPC    OA43635  14.445  14.233   2.279
  840POPC     P43636  14.571  14.266   2.190
  840POPC    OB43637  14.650  14.143   2.174
  840POPC    OC43638  14.522  14.341   2.073
  840POPC    OD43639  14.649  14.365   2.286
  840POPC    CC43640  14.697  14.292   2.400
  840POPC    CD43641  14.811  14.353   2.483
  840POPC    OE43642  14.879  14.254   2.565
  840POPC   C1A43643  14.959  14.163   2.510
  840POPC    OF43644  14.983  14.167   2.389
  840POPC   C1B43645  15.016  14.068   2.607
  840POPC   C1C43646  15.023  13.925   2.551
  840POPC   C1D43647  15.092  13.830   2.649
  840POPC   C1E43648  15.005  13.799   2.771
  840POPC   C1F43649  15.090  13.734   2.881
  840POPC   C1G43650  15.009  13.699   3.007
  840POPC   C1H43651  14.937  13.817   3.073
  840POPC   C1I43652  15.027  13.932   3.120
  840POPC   C1J43653  15.052  13.955   3.248
  840POPC   C1K43654  14.996  13.867   3.360
  840POPC   C1L43655  15.054  13.914   3.493
  840POPC   C1M43656  15.041  13.809   3.604
  840POPC   C1N43657  15.115  13.860   3.728
  840POPC   C1O43658  15.147  13.746   3.825
  840POPC   C1P43659  15.237  13.798   3.938
  840POPC   C1Q43660  15.287  13.686   4.030
  840POPC   C1R43661  15.173  13.621   4.110
  840POPC    CE43662  14.753  14.473   2.559
  840POPC    OG43663  14.643  14.446   2.648
  840POPC   C2A43664  14.621  14.539   2.741
  840POPC    OH43665  14.670  14.652   2.734
  840POPC   C2B43666  14.523  14.495   2.843
  840POPC   C2C43667  14.576  14.526   2.983
  840POPC   C2D43668  14.475  14.489   3.092
  840POPC   C2E43669  14.522  14.530   3.231
  840POPC   C2F43670  14.541  14.682   3.240
  840POPC   C2G43671  14.566  14.733   3.383
  840POPC   C2H43672  14.700  14.691   3.443
  840POPC   C2I43673  14.714  14.761   3.578
  840POPC   C2J43674  14.838  14.720   3.657
  840POPC   C2K43675  14.843  14.794   3.791
  840POPC   C2L43676  14.724  14.756   3.880
  840POPC   C2M43677  14.702  14.858   3.991
  840POPC   C2N43678  14.569  14.830   4.062
  840POPC   C2O43679  14.530  14.945   4.154
  840POPC   C2P43680  14.393  14.919   4.218
  841POPC   CN143681  15.060  14.405   2.134
  841POPC   CN243682  15.235  14.436   2.292
  841POPC   CN343683  15.284  14.444   2.061
  841POPC   NTM43684  15.184  14.479   2.162
  841POPC    CA43685  15.164  14.626   2.158
  841POPC    CB43686  15.056  14.693   2.248
  841POPC    OA43687  15.069  14.666   2.387
  841POPC     P43688  14.969  14.745   2.478
  841POPC    OB43689  14.841  14.750   2.404
  841POPC    OC43690  14.977  14.685   2.611
  841POPC    OD43691  15.040  14.886   2.473
  841POPC    CC43692  15.150  14.890   2.564
  841POPC    CD43693  15.216  15.027   2.577
  841POPC    OE43694  15.335  15.024   2.660
  841POPC   C1A43695  15.431  15.112   2.634
  841POPC    OF43696  15.444  15.154   2.518
  841POPC   C1B43697  15.533  15.124   2.740
  841POPC   C1C43698  15.481  15.204   2.860
  841POPC   C1D43699  15.590  15.217   2.966
  841POPC   C1E43700  15.533  15.267   3.099
  841POPC   C1F43701  15.647  15.283   3.200
  841POPC   C1G43702  15.596  15.306   3.342
  841POPC   C1H43703  15.714  15.311   3.439
  841POPC   C1I43704  15.667  15.316   3.584
  841POPC   C1J43705  15.737  15.249   3.675
  841POPC   C1K43706  15.860  15.171   3.629
  841POPC   C1L43707  15.964  15.149   3.739
  841POPC   C1M43708  15.920  15.044   3.841
  841POPC   C1N43709  16.031  15.019   3.943
  841POPC   C1O43710  15.989  14.919   4.052
  841POPC   C1P43711  15.962  14.779   3.998
  841POPC   C1Q43712  15.923  14.684   4.111
  841POPC   C1R43713  15.891  14.545   4.059
  841POPC    CE43714  15.105  15.122   2.626
  841POPC    OG43715  15.143  15.259   2.649
  841POPC   C2A43716  15.045  15.345   2.672
  841POPC    OH43717  14.926  15.310   2.671
  841POPC   C2B43718  15.094  15.482   2.701
  841POPC   C2C43719  15.062  15.529   2.843
  841POPC   C2D43720  15.150  15.466   2.950
  841POPC   C2E43721  15.111  15.519   3.088
  841POPC   C2F43722  15.209  15.473   3.196
  841POPC   C2G43723  15.165  15.521   3.335
  841POPC   C2H43724  15.274  15.490   3.437
  841POPC   C2I43725  15.231  15.527   3.579
  841POPC   C2J43726  15.347  15.503   3.676
  841POPC   C2K43727  15.305  15.527   3.821
  841POPC   C2L43728  15.421  15.515   3.920
  841POPC   C2M43729  15.522  15.629   3.904
  841POPC   C2N43730  15.629  15.625   4.013
  841POPC   C2O43731  15.720  15.747   4.002
  841POPC   C2P43732  15.824  15.749   4.114
  842POPC   CN143733  15.698  15.981   1.784
  842POPC   CN243734  15.510  15.868   1.691
  842POPC   CN343735  15.618  15.784   1.888
  842POPC   NTM43736  15.577  15.906   1.817
  842POPC    CA43737  15.491  15.991   1.903
  842POPC    CB43738  15.346  15.948   1.936
  842POPC    OA43739  15.330  15.808   1.962
  842POPC     P43740  15.185  15.766   1.999
  842POPC    OB43741  15.092  15.856   1.930
  842POPC    OC43742  15.180  15.621   1.972
  842POPC    OD43743  15.184  15.794   2.152
  842POPC    CC43744  15.262  15.702   2.228
  842POPC    CD43745  15.271  15.740   2.377
  842POPC    OE43746  15.350  15.647   2.457
  842POPC   C1A43747  15.479  15.673   2.478
  842POPC    OF43748  15.548  15.727   2.390
  842POPC   C1B43749  15.532  15.606   2.598
  842POPC   C1C43750  15.500  15.690   2.722
  842POPC   C1D43751  15.561  15.630   2.849
  842POPC   C1E43752  15.525  15.713   2.972
  842POPC   C1F43753  15.607  15.667   3.092
  842POPC   C1G43754  15.564  15.739   3.220
  842POPC   C1H43755  15.656  15.700   3.336
  842POPC   C1I43756  15.606  15.757   3.469
  842POPC   C1J43757  15.695  15.797   3.560
  842POPC   C1K43758  15.844  15.786   3.528
  842POPC   C1L43759  15.928  15.778   3.655
  842POPC   C1M43760  16.077  15.779   3.620
  842POPC   C1N43761  16.167  15.770   3.743
  842POPC   C1O43762  16.154  15.636   3.816
  842POPC   C1P43763  16.251  15.625   3.933
  842POPC   C1Q43764  16.219  15.724   4.045
  842POPC   C1R43765  16.321  15.712   4.159
  842POPC    CE43766  15.125  15.757   2.422
  842POPC    OG43767  15.099  15.834   2.542
  842POPC   C2A43768  14.976  15.883   2.553
  842POPC    OH43769  14.900  15.886   2.456
  842POPC   C2B43770  14.948  15.950   2.682
  842POPC   C2C43771  14.877  15.856   2.780
  842POPC   C2D43772  14.798  15.930   2.889
  842POPC   C2E43773  14.884  16.018   2.980
  842POPC   C2F43774  14.798  16.077   3.092
  842POPC   C2G43775  14.878  16.167   3.186
  842POPC   C2H43776  14.791  16.203   3.307
  842POPC   C2I43777  14.864  16.287   3.413
  842POPC   C2J43778  14.880  16.433   3.371
  842POPC   C2K43779  14.935  16.515   3.488
  842POPC   C2L43780  14.940  16.664   3.454
  842POPC   C2M43781  14.988  16.749   3.572
  842POPC   C2N43782  14.890  16.746   3.690
  842POPC   C2O43783  14.936  16.834   3.807
  842POPC   C2P43784  15.062  16.779   3.876
  843POPC   CN143785  15.310  16.684   1.750
  843POPC   CN243786  15.472  16.779   1.601
  843POPC   CN343787  15.346  16.916   1.748
  843POPC   NTM43788  15.414  16.787   1.735
  843POPC    CA43789  15.518  16.777   1.841
  843POPC    CB43790  15.612  16.654   1.849
  843POPC    OA43791  15.543  16.529   1.859
  843POPC     P43792  15.635  16.403   1.849
  843POPC    OB43793  15.547  16.290   1.820
  843POPC    OC43794  15.744  16.435   1.756
  843POPC    OD43795  15.696  16.396   1.993
  843POPC    CC43796  15.602  16.366   2.097
  843POPC    CD43797  15.666  16.375   2.237
  843POPC    OE43798  15.577  16.353   2.350
  843POPC   C1A43799  15.537  16.231   2.383
  843POPC    OF43800  15.525  16.144   2.296
  843POPC   C1B43801  15.488  16.221   2.523
  843POPC   C1C43802  15.383  16.111   2.544
  843POPC   C1D43803  15.357  16.078   2.691
  843POPC   C1E43804  15.310  16.200   2.772
  843POPC   C1F43805  15.262  16.163   2.913
  843POPC   C1G43806  15.373  16.103   3.001
  843POPC   C1H43807  15.327  16.083   3.146
  843POPC   C1I43808  15.223  15.971   3.161
  843POPC   C1J43809  15.204  15.914   3.280
  843POPC   C1K43810  15.284  15.961   3.402
  843POPC   C1L43811  15.209  15.930   3.531
  843POPC   C1M43812  15.294  15.963   3.654
  843POPC   C1N43813  15.219  15.928   3.782
  843POPC   C1O43814  15.302  15.958   3.907
  843POPC   C1P43815  15.221  15.928   4.033
  843POPC   C1Q43816  15.299  15.966   4.159
  843POPC   C1R43817  15.215  15.942   4.284
  843POPC    CE43818  15.731  16.515   2.240
  843POPC    OG43819  15.824  16.545   2.345
  843POPC   C2A43820  15.869  16.670   2.347
  843POPC    OH43821  15.804  16.761   2.293
  843POPC   C2B43822  15.987  16.694   2.434
  843POPC   C2C43823  15.982  16.627   2.572
  843POPC   C2D43824  16.118  16.643   2.642
  843POPC   C2E43825  16.125  16.575   2.778
  843POPC   C2F43826  16.046  16.650   2.886
  843POPC   C2G43827  16.063  16.584   3.022
  843POPC   C2H43828  15.986  16.662   3.129
  843POPC   C2I43829  15.993  16.595   3.266
  843POPC   C2J43830  15.902  16.669   3.364
  843POPC   C2K43831  15.907  16.606   3.503
  843POPC   C2L43832  15.807  16.671   3.600
  843POPC   C2M43833  15.842  16.815   3.639
  843POPC   C2N43834  15.967  16.826   3.727
  843POPC   C2O43835  15.948  16.763   3.865
  843POPC   C2P43836  16.078  16.770   3.946
  844POPC   CN143837  16.268  16.359   1.673
  844POPC   CN243838  16.051  16.362   1.573
  844POPC   CN343839  16.162  16.156   1.614
  844POPC   NTM43840  16.138  16.290   1.667
  844POPC    CA43841  16.077  16.277   1.802
  844POPC    CB43842  16.025  16.400   1.880
  844POPC    OA43843  16.117  16.507   1.900
  844POPC     P43844  16.042  16.623   1.975
  844POPC    OB43845  15.941  16.679   1.884
  844POPC    OC43846  16.013  16.572   2.109
  844POPC    OD43847  16.164  16.720   1.973
  844POPC    CC43848  16.198  16.770   2.102
  844POPC    CD43849  16.303  16.881   2.095
  844POPC    OE43850  16.360  16.914   2.224
  844POPC   C1A43851  16.476  16.979   2.230
  844POPC    OF43852  16.546   0.011   2.129
  844POPC   C1B43853  16.516   0.030   2.368
  844POPC   C1C43854  16.454   0.163   2.413
  844POPC   C1D43855  16.465   0.182   2.564
  844POPC   C1E43856  16.374   0.085   2.640
  844POPC   C1F43857  16.391   0.099   2.791
  844POPC   C1G43858  16.302  16.981   2.863
  844POPC   C1H43859  16.326  16.980   3.015
  844POPC   C1I43860  16.272   0.121   3.087
  844POPC   C1J43861  16.233   0.108   3.213
  844POPC   C1K43862  16.243  16.953   3.277
  844POPC   C1L43863  16.285  16.959   3.424
  844POPC   C1M43864  16.312  16.818   3.476
  844POPC   C1N43865  16.364  16.820   3.619
  844POPC   C1O43866  16.409  16.681   3.662
  844POPC   C1P43867  16.474  16.685   3.800
  844POPC   C1Q43868  16.540  16.551   3.834
  844POPC   C1R43869  16.615  16.558   3.967
  844POPC    CE43870  16.234   0.013   2.020
  844POPC    OG43871  16.116   0.068   2.081
  844POPC   C2A43872  16.131   0.175   2.159
  844POPC    OH43873  16.234   0.242   2.155
  844POPC   C2B43874  16.005   0.215   2.226
  844POPC   C2C43875  15.974   0.127   2.348
  844POPC   C2D43876  15.831   0.152   2.396
  844POPC   C2E43877  15.786   0.059   2.508
  844POPC   C2F43878  15.852   0.088   2.643
  844POPC   C2G43879  15.781   0.009   2.753
  844POPC   C2H43880  15.825   0.054   2.892
  844POPC   C2I43881  15.739  16.970   3.000
  844POPC   C2J43882  15.770   0.042   3.139
  844POPC   C2K43883  15.681  16.967   3.249
  844POPC   C2L43884  15.532   0.013   3.228
  844POPC   C2M43885  15.445  16.952   3.346
  844POPC   C2N43886  15.462   0.061   3.467
  844POPC   C2O43887  15.376   0.017   3.587
  844POPC   C2P43888  15.429  16.872   3.653
  845POPC   CN143889  16.315   1.349   1.638
  845POPC   CN243890  16.446   1.156   1.585
  845POPC   CN343891  16.544   1.340   1.700
  845POPC   NTM43892  16.422   1.260   1.686
  845POPC    CA43893  16.394   1.203   1.820
  845POPC    CB43894  16.277   1.103   1.841
  845POPC    OA43895  16.146   1.154   1.814
  845POPC     P43896  16.036   1.041   1.821
  845POPC    OB43897  15.921   1.119   1.773
  845POPC    OC43898  16.092   0.925   1.749
  845POPC    OD43899  16.034   1.020   1.976
  845POPC    CC43900  15.965   1.123   2.045
  845POPC    CD43901  15.940   1.096   2.194
  845POPC    OE43902  15.862   1.202   2.257
  845POPC   C1A43903  15.730   1.207   2.239
  845POPC    OF43904  15.674   1.136   2.155
  845POPC   C1B43905  15.664   1.311   2.320
  845POPC   C1C43906  15.613   1.255   2.453
  845POPC   C1D43907  15.533   1.360   2.529
  845POPC   C1E43908  15.458   1.301   2.648
  845POPC   C1F43909  15.544   1.286   2.774
  845POPC   C1G43910  15.461   1.221   2.885
  845POPC   C1H43911  15.526   1.232   3.023
  845POPC   C1I43912  15.517   1.375   3.078
  845POPC   C1J43913  15.526   1.396   3.209
  845POPC   C1K43914  15.545   1.280   3.306
  845POPC   C1L43915  15.520   1.324   3.450
  845POPC   C1M43916  15.540   1.207   3.546
  845POPC   C1N43917  15.519   1.247   3.693
  845POPC   C1O43918  15.629   1.340   3.744
  845POPC   C1P43919  15.616   1.372   3.893
  845POPC   C1Q43920  15.490   1.453   3.925
  845POPC   C1R43921  15.482   1.486   4.074
  845POPC    CE43922  16.079   1.070   2.256
  845POPC    OG43923  16.080   1.018   2.390
  845POPC   C2A43924  16.095   1.106   2.489
  845POPC    OH43925  16.133   1.221   2.467
  845POPC   C2B43926  16.086   1.044   2.624
  845POPC   C2C43927  15.943   1.046   2.677
  845POPC   C2D43928  15.936   0.971   2.810
  845POPC   C2E43929  15.791   0.962   2.859
  845POPC   C2F43930  15.776   0.871   2.981
  845POPC   C2G43931  15.830   0.932   3.110
  845POPC   C2H43932  15.819   0.829   3.223
  845POPC   C2I43933  15.863   0.887   3.357
  845POPC   C2J43934  15.873   0.774   3.461
  845POPC   C2K43935  15.909   0.825   3.600
  845POPC   C2L43936  15.794   0.896   3.672
  845POPC   C2M43937  15.680   0.799   3.706
  845POPC   C2N43938  15.570   0.868   3.786
  845POPC   C2O43939  15.456   0.771   3.816
  845POPC   C2P43940  15.346   0.839   3.897
  846POPC   CN143941  16.654   2.803   1.395
  846POPC   CN243942  16.690   2.741   1.624
  846POPC   CN343943  16.604   2.955   1.571
  846POPC   NTM43944  16.601   2.813   1.532
  846POPC    CA43945  16.461   2.766   1.543
  846POPC    CB43946  16.415   2.630   1.485
  846POPC    OA43947  16.495   2.516   1.519
  846POPC     P43948  16.408   2.385   1.532
  846POPC    OB43949  16.294   2.389   1.440
  846POPC    OC43950  16.510   2.279   1.520
  846POPC    OD43951  16.360   2.410   1.680
  846POPC    CC43952  16.462   2.378   1.775
  846POPC    CD43953  16.435   2.437   1.915
  846POPC    OE43954  16.547   2.421   2.006
  846POPC   C1A43955  16.635   2.521   2.013
  846POPC    OF43956  16.622   2.622   1.944
  846POPC   C1B43957  16.742   2.499   2.113
  846POPC   C1C43958  16.689   2.527   2.254
  846POPC   C1D43959  16.798   2.520   2.360
  846POPC   C1E43960  16.734   2.518   2.499
  846POPC   C1F43961  16.838   2.531   2.611
  846POPC   C1G43962  16.888   2.675   2.625
  846POPC   C1H43963   0.012   2.691   2.734
  846POPC   C1I43964  16.947   2.655   2.875
  846POPC   C1J43965  16.913   2.748   2.964
  846POPC   C1K43966  16.921   2.898   2.932
  846POPC   C1L43967  16.953   2.982   3.055
  846POPC   C1M43968  16.839   2.982   3.158
  846POPC   C1N43969  16.878   3.062   3.283
  846POPC   C1O43970  16.766   3.066   3.387
  846POPC   C1P43971  16.740   2.932   3.457
  846POPC   C1Q43972  16.854   2.894   3.552
  846POPC   C1R43973  16.821   2.764   3.626
  846POPC    CE43974  16.301   2.379   1.963
  846POPC    OG43975  16.248   2.435   2.084
  846POPC   C2A43976  16.123   2.403   2.114
  846POPC    OH43977  16.064   2.313   2.053
  846POPC   C2B43978  16.068   2.477   2.230
  846POPC   C2C43979  16.069   2.397   2.361
  846POPC   C2D43980  16.208   2.391   2.426
  846POPC   C2E43981  16.201   2.304   2.552
  846POPC   C2F43982  16.332   2.308   2.631
  846POPC   C2G43983  16.323   2.214   2.752
  846POPC   C2H43984  16.444   2.226   2.844
  846POPC   C2I43985  16.434   2.122   2.956
  846POPC   C2J43986  16.544   2.137   3.062
  846POPC   C2K43987  16.523   2.262   3.148
  846POPC   C2L43988  16.622   2.266   3.265
  846POPC   C2M43989  16.595   2.387   3.355
  846POPC   C2N43990  16.686   2.389   3.478
  846POPC   C2O43991  16.653   2.275   3.576
  846POPC   C2P43992  16.743   2.282   3.700
  847POPC   CN143993  15.789   2.416   1.628
  847POPC   CN243994  16.013   2.359   1.683
  847POPC   CN343995  15.866   2.196   1.592
  847POPC   NTM43996  15.905   2.338   1.586
  847POPC    CA43997  15.947   2.372   1.447
  847POPC    CB43998  16.006   2.512   1.418
  847POPC    OA43999  15.924   2.623   1.452
  847POPC     P44000  16.008   2.754   1.476
  847POPC    OB44001  16.121   2.755   1.381
  847POPC    OC44002  15.915   2.867   1.483
  847POPC    OD44003  16.069   2.720   1.617
  847POPC    CC44004  15.979   2.757   1.721
  847POPC    CD44005  16.029   2.723   1.863
  847POPC    OE44006  15.925   2.744   1.962
  847POPC   C1A44007  15.844   2.642   1.990
  847POPC    OF44008  15.866   2.530   1.941
  847POPC   C1B44009  15.744   2.675   2.093
  847POPC   C1C44010  15.627   2.577   2.098
  847POPC   C1D44011  15.542   2.591   2.225
  847POPC   C1E44012  15.626   2.568   2.351
  847POPC   C1F44013  15.546   2.565   2.481
  847POPC   C1G44014  15.469   2.434   2.498
  847POPC   C1H44015  15.423   2.419   2.643
  847POPC   C1I44016  15.360   2.282   2.668
  847POPC   C1J44017  15.396   2.211   2.774
  847POPC   C1K44018  15.502   2.266   2.871
  847POPC   C1L44019  15.483   2.212   3.012
  847POPC   C1M44020  15.597   2.258   3.102
  847POPC   C1N44021  15.584   2.200   3.243
  847POPC   C1O44022  15.705   2.237   3.329
  847POPC   C1P44023  15.691   2.178   3.470
  847POPC   C1Q44024  15.814   2.211   3.555
  847POPC   C1R44025  15.802   2.150   3.694
  847POPC    CE44026  16.158   2.803   1.887
  847POPC    OG44027  16.229   2.763   2.005
  847POPC   C2A44028  16.325   2.842   2.051
  847POPC    OH44029  16.368   2.936   1.984
  847POPC   C2B44030  16.383   2.792   2.178
  847POPC   C2C44031  16.424   2.906   2.273
  847POPC   C2D44032  16.475   2.854   2.408
  847POPC   C2E44033  16.367   2.777   2.484
  847POPC   C2F44034  16.410   2.730   2.623
  847POPC   C2G44035  16.429   2.846   2.720
  847POPC   C2H44036  16.434   2.797   2.865
  847POPC   C2I44037  16.432   2.916   2.961
  847POPC   C2J44038  16.407   2.870   3.105
  847POPC   C2K44039  16.393   2.990   3.198
  847POPC   C2L44040  16.353   2.948   3.341
  847POPC   C2M44041  16.209   2.896   3.350
  847POPC   C2N44042  16.105   3.006   3.326
  847POPC   C2O44043  15.961   2.953   3.331
  847POPC   C2P44044  15.920   2.906   3.471
  848POPC   CN144045  16.450   3.570   1.717
  848POPC   CN244046  16.321   3.432   1.575
  848POPC   CN344047  16.223   3.627   1.665
  848POPC   NTM44048  16.348   3.571   1.611
  848POPC    CA44049  16.394   3.645   1.491
  848POPC    CB44050  16.440   3.793   1.505
  848POPC    OA44051  16.345   3.885   1.560
  848POPC     P44052  16.414   4.017   1.613
  848POPC    OB44053  16.520   4.054   1.518
  848POPC    OC44054  16.307   4.111   1.647
  848POPC    OD44055  16.481   3.957   1.742
  848POPC    CC44056  16.389   3.952   1.851
  848POPC    CD44057  16.442   3.880   1.976
  848POPC    OE44058  16.337   3.851   2.072
  848POPC   C1A44059  16.257   3.747   2.052
  848POPC    OF44060  16.287   3.659   1.971
  848POPC   C1B44061  16.139   3.749   2.142
  848POPC   C1C44062  16.088   3.611   2.182
  848POPC   C1D44063  15.974   3.631   2.281
  848POPC   C1E44064  15.920   3.501   2.340
  848POPC   C1F44065  15.818   3.540   2.448
  848POPC   C1G44066  15.772   3.420   2.532
  848POPC   C1H44067  15.699   3.468   2.657
  848POPC   C1I44068  15.795   3.537   2.755
  848POPC   C1J44069  15.758   3.571   2.878
  848POPC   C1K44070  15.617   3.546   2.931
  848POPC   C1L44071  15.587   3.649   3.040
  848POPC   C1M44072  15.451   3.627   3.106
  848POPC   C1N44073  15.425   3.733   3.214
  848POPC   C1O44074  15.405   3.872   3.154
  848POPC   C1P44075  15.401   3.982   3.260
  848POPC   C1Q44076  15.278   3.977   3.352
  848POPC   C1R44077  15.148   4.009   3.279
  848POPC    CE44078  16.560   3.964   2.027
  848POPC    OG44079  16.525   4.097   2.070
  848POPC   C2A44080  16.624   4.180   2.099
  848POPC    OH44081  16.738   4.162   2.054
  848POPC   C2B44082  16.580   4.298   2.176
  848POPC   C2C44083  16.596   4.268   2.325
  848POPC   C2D44084  16.543   4.383   2.413
  848POPC   C2E44085  16.573   4.357   2.561
  848POPC   C2F44086  16.491   4.243   2.621
  848POPC   C2G44087  16.542   4.207   2.760
  848POPC   C2H44088  16.674   4.129   2.753
  848POPC   C2I44089  16.745   4.122   2.889
  848POPC   C2J44090  16.807   4.257   2.926
  848POPC   C2K44091  16.884   4.253   3.058
  848POPC   C2L44092  16.792   4.234   3.178
  848POPC   C2M44093  16.872   4.234   3.309
  848POPC   C2N44094  16.778   4.219   3.429
  848POPC   C2O44095  16.857   4.220   3.560
  848POPC   C2P44096  16.763   4.209   3.679
  849POPC   CN144097  14.287   5.260   2.088
  849POPC   CN244098  14.439   5.114   1.978
  849POPC   CN344099  14.223   5.150   1.887
  849POPC   NTM44100  14.334   5.215   1.957
  849POPC    CA44101  14.381   5.328   1.873
  849POPC    CB44102  14.498   5.419   1.917
  849POPC    OA44103  14.622   5.352   1.934
  849POPC     P44104  14.737   5.455   1.954
  849POPC    OB44105  14.754   5.520   1.823
  849POPC    OC44106  14.706   5.535   2.072
  849POPC    OD44107  14.862   5.365   1.982
  849POPC    CC44108  14.845   5.298   2.107
  849POPC    CD44109  14.954   5.197   2.143
  849POPC    OE44110  14.923   5.122   2.264
  849POPC   C1A44111  14.986   5.008   2.287
  849POPC    OF44112  15.056   4.957   2.199
  849POPC   C1B44113  14.957   4.951   2.421
  849POPC   C1C44114  15.082   4.889   2.482
  849POPC   C1D44115  15.060   4.830   2.621
  849POPC   C1E44116  15.191   4.769   2.669
  849POPC   C1F44117  15.186   4.719   2.813
  849POPC   C1G44118  15.319   4.657   2.862
  849POPC   C1H44119  15.429   4.757   2.902
  849POPC   C1I44120  15.506   4.819   2.784
  849POPC   C1J44121  15.632   4.859   2.796
  849POPC   C1K44122  15.708   4.841   2.928
  849POPC   C1L44123  15.858   4.830   2.902
  849POPC   C1M44124  15.940   4.815   3.031
  849POPC   C1N44125  15.916   4.679   3.098
  849POPC   C1O44126  16.002   4.666   3.224
  849POPC   C1P44127  15.982   4.530   3.291
  849POPC   C1Q44128  16.068   4.518   3.416
  849POPC   C1R44129  16.047   4.382   3.483
  849POPC    CE44130  15.088   5.273   2.143
  849POPC    OG44131  15.094   5.395   2.221
  849POPC   C2A44132  15.214   5.448   2.237
  849POPC    OH44133  15.316   5.384   2.210
  849POPC   C2B44134  15.213   5.579   2.306
  849POPC   C2C44135  15.238   5.563   2.456
  849POPC   C2D44136  15.262   5.697   2.526
  849POPC   C2E44137  15.142   5.792   2.519
  849POPC   C2F44138  15.167   5.911   2.612
  849POPC   C2G44139  15.051   6.010   2.612
  849POPC   C2H44140  15.055   6.100   2.735
  849POPC   C2I44141  15.027   6.019   2.862
  849POPC   C2J44142  15.045   6.102   2.989
  849POPC   C2K44143  15.019   6.015   3.113
  849POPC   C2L44144  15.046   6.089   3.244
  849POPC   C2M44145  15.194   6.122   3.262
  849POPC   C2N44146  15.218   6.191   3.396
  849POPC   C2O44147  15.364   6.230   3.414
  849POPC   C2P44148  15.386   6.297   3.550
  850POPC   CN144149  16.003   7.595   1.685
  850POPC   CN244150  15.840   7.424   1.674
  850POPC   CN344151  16.006   7.443   1.503
  850POPC   NTM44152  15.982   7.455   1.648
  850POPC    CA44153  16.074   7.370   1.728
  850POPC    CB44154  16.084   7.217   1.705
  850POPC    OA44155  15.959   7.148   1.703
  850POPC     P44156  15.970   6.993   1.727
  850POPC    OB44157  15.829   6.965   1.696
  850POPC    OC44158  16.080   6.947   1.641
  850POPC    OD44159  16.001   6.993   1.881
  850POPC    CC44160  15.880   7.001   1.957
  850POPC    CD44161  15.892   7.000   2.110
  850POPC    OE44162  15.761   7.003   2.173
  850POPC   C1A44163  15.685   6.893   2.179
  850POPC    OF44164  15.722   6.788   2.124
  850POPC   C1B44165  15.551   6.918   2.236
  850POPC   C1C44166  15.505   6.811   2.335
  850POPC   C1D44167  15.569   6.830   2.473
  850POPC   C1E44168  15.518   6.724   2.571
  850POPC   C1F44169  15.567   6.750   2.713
  850POPC   C1G44170  15.517   6.641   2.807
  850POPC   C1H44171  15.560   6.667   2.952
  850POPC   C1I44172  15.514   6.552   3.043
  850POPC   C1J44173  15.483   6.575   3.170
  850POPC   C1K44174  15.495   6.716   3.228
  850POPC   C1L44175  15.474   6.721   3.380
  850POPC   C1M44176  15.585   6.649   3.458
  850POPC   C1N44177  15.565   6.659   3.610
  850POPC   C1O44178  15.582   6.802   3.662
  850POPC   C1P44179  15.565   6.808   3.814
  850POPC   C1Q44180  15.581   6.951   3.864
  850POPC   C1R44181  15.564   6.958   4.016
  850POPC    CE44182  15.978   7.123   2.145
  850POPC    OG44183  16.069   7.109   2.255
  850POPC   C2A44184  16.106   7.225   2.309
  850POPC    OH44185  16.033   7.323   2.304
  850POPC   C2B44186  16.225   7.213   2.396
  850POPC   C2C44187  16.192   7.221   2.545
  850POPC   C2D44188  16.321   7.206   2.625
  850POPC   C2E44189  16.298   7.205   2.776
  850POPC   C2F44190  16.252   7.341   2.830
  850POPC   C2G44191  16.246   7.342   2.983
  850POPC   C2H44192  16.135   7.252   3.038
  850POPC   C2I44193  16.142   7.236   3.190
  850POPC   C2J44194  16.270   7.164   3.234
  850POPC   C2K44195  16.275   7.138   3.385
  850POPC   C2L44196  16.279   7.266   3.468
  850POPC   C2M44197  16.278   7.232   3.617
  850POPC   C2N44198  16.272   7.359   3.702
  850POPC   C2O44199  16.266   7.324   3.851
  850POPC   C2P44200  16.263   7.451   3.936
  851POPC   CN144201  14.835   6.489   1.446
  851POPC   CN244202  15.012   6.368   1.338
  851POPC   CN344203  15.016   6.604   1.342
  851POPC   NTM44204  14.980   6.485   1.421
  851POPC    CA44205  15.058   6.477   1.547
  851POPC    CB44206  15.037   6.580   1.661
  851POPC    OA44207  15.043   6.717   1.622
  851POPC     P44208  15.183   6.788   1.639
  851POPC    OB44209  15.285   6.688   1.603
  851POPC    OC44210  15.165   6.913   1.564
  851POPC    OD44211  15.177   6.811   1.794
  851POPC    CC44212  15.089   6.917   1.829
  851POPC    CD44213  15.091   6.953   1.979
  851POPC    OE44214  15.209   7.029   2.018
  851POPC   C1A44215  15.189   7.155   2.054
  851POPC    OF44216  15.089   7.216   2.014
  851POPC   C1B44217  15.304   7.217   2.124
  851POPC   C1C44218  15.263   7.327   2.222
  851POPC   C1D44219  15.178   7.280   2.341
  851POPC   C1E44220  15.256   7.190   2.438
  851POPC   C1F44221  15.173   7.160   2.563
  851POPC   C1G44222  15.251   7.071   2.659
  851POPC   C1H44223  15.176   7.049   2.790
  851POPC   C1I44224  15.257   6.960   2.885
  851POPC   C1J44225  15.245   6.972   3.017
  851POPC   C1K44226  15.148   7.075   3.075
  851POPC   C1L44227  15.197   7.134   3.208
  851POPC   C1M44228  15.193   7.034   3.324
  851POPC   C1N44229  15.236   7.101   3.454
  851POPC   C1O44230  15.236   7.006   3.574
  851POPC   C1P44231  15.096   6.955   3.610
  851POPC   C1Q44232  15.095   6.871   3.739
  851POPC   C1R44233  15.173   6.740   3.724
  851POPC    CE44234  15.066   6.823   2.057
  851POPC    OG44235  15.045   6.841   2.198
  851POPC   C2A44236  15.107   6.756   2.279
  851POPC    OH44237  15.197   6.682   2.237
  851POPC   C2B44238  15.070   6.779   2.421
  851POPC   C2C44239  15.113   6.667   2.515
  851POPC   C2D44240  15.059   6.690   2.656
  851POPC   C2E44241  15.112   6.583   2.751
  851POPC   C2F44242  15.057   6.599   2.892
  851POPC   C2G44243  15.121   6.495   2.984
  851POPC   C2H44244  15.064   6.492   3.126
  851POPC   C2I44245  15.090   6.621   3.205
  851POPC   C2J44246  15.062   6.602   3.354
  851POPC   C2K44247  14.915   6.572   3.384
  851POPC   C2L44248  14.889   6.545   3.533
  851POPC   C2M44249  14.951   6.413   3.579
  851POPC   C2N44250  14.927   6.390   3.728
  851POPC   C2O44251  14.987   6.257   3.773
  851POPC   C2P44252  14.961   6.232   3.922
  852POPC   CN144253  15.378   7.958   1.329
  852POPC   CN244254  15.364   7.828   1.527
  852POPC   CN344255  15.499   8.026   1.521
  852POPC   NTM44256  15.373   7.965   1.476
  852POPC    CA44257  15.255   8.046   1.516
  852POPC    CB44258  15.234   8.084   1.664
  852POPC    OA44259  15.224   7.974   1.754
  852POPC     P44260  15.292   8.001   1.893
  852POPC    OB44261  15.283   7.878   1.971
  852POPC    OC44262  15.421   8.067   1.866
  852POPC    OD44263  15.191   8.103   1.954
  852POPC    CC44264  15.242   8.147   2.079
  852POPC    CD44265  15.136   8.182   2.184
  852POPC    OE44266  15.193   8.259   2.294
  852POPC   C1A44267  15.114   8.338   2.366
  852POPC    OF44268  15.005   8.374   2.322
  852POPC   C1B44269  15.183   8.394   2.485
  852POPC   C1C44270  15.173   8.297   2.604
  852POPC   C1D44271  15.243   8.348   2.730
  852POPC   C1E44272  15.172   8.469   2.792
  852POPC   C1F44273  15.234   8.508   2.927
  852POPC   C1G44274  15.164   8.629   2.989
  852POPC   C1H44275  15.018   8.600   3.026
  852POPC   C1I44276  14.949   8.726   3.078
  852POPC   C1J44277  14.843   8.717   3.158
  852POPC   C1K44278  14.788   8.580   3.198
  852POPC   C1L44279  14.737   8.581   3.342
  852POPC   C1M44280  14.684   8.444   3.383
  852POPC   C1N44281  14.655   8.440   3.533
  852POPC   C1O44282  14.602   8.302   3.573
  852POPC   C1P44283  14.604   8.285   3.725
  852POPC   C1Q44284  14.560   8.145   3.765
  852POPC   C1R44285  14.570   8.127   3.917
  852POPC    CE44286  15.066   8.050   2.220
  852POPC    OG44287  15.157   7.947   2.262
  852POPC   C2A44288  15.116   7.821   2.259
  852POPC    OH44289  15.008   7.789   2.208
  852POPC   C2B44290  15.219   7.725   2.305
  852POPC   C2C44291  15.238   7.726   2.457
  852POPC   C2D44292  15.346   7.626   2.497
  852POPC   C2E44293  15.396   7.643   2.640
  852POPC   C2F44294  15.293   7.606   2.747
  852POPC   C2G44295  15.354   7.628   2.886
  852POPC   C2H44296  15.259   7.590   2.999
  852POPC   C2I44297  15.326   7.619   3.133
  852POPC   C2J44298  15.236   7.582   3.253
  852POPC   C2K44299  15.307   7.614   3.385
  852POPC   C2L44300  15.319   7.765   3.409
  852POPC   C2M44301  15.431   7.799   3.509
  852POPC   C2N44302  15.407   7.753   3.653
  852POPC   C2O44303  15.302   7.839   3.723
  852POPC   C2P44304  15.293   7.804   3.872
  853POPC   CN144305  15.781   9.219   2.232
  853POPC   CN244306  15.712   9.089   2.418
  853POPC   CN344307  15.569   9.110   2.230
  853POPC   NTM44308  15.710   9.097   2.271
  853POPC    CA44309  15.779   8.983   2.207
  853POPC    CB44310  15.740   8.836   2.234
  853POPC    OA44311  15.607   8.794   2.199
  853POPC     P44312  15.606   8.692   2.079
  853POPC    OB44313  15.466   8.661   2.049
  853POPC    OC44314  15.695   8.747   1.974
  853POPC    OD44315  15.674   8.569   2.147
  853POPC    CC44316  15.587   8.495   2.233
  853POPC    CD44317  15.663   8.402   2.329
  853POPC    OE44318  15.586   8.290   2.382
  853POPC   C1A44319  15.576   8.176   2.315
  853POPC    OF44320  15.645   8.156   2.214
  853POPC   C1B44321  15.495   8.072   2.383
  853POPC   C1C44322  15.582   7.970   2.459
  853POPC   C1D44323  15.641   8.025   2.590
  853POPC   C1E44324  15.534   8.038   2.699
  853POPC   C1F44325  15.592   8.102   2.825
  853POPC   C1G44326  15.489   8.101   2.938
  853POPC   C1H44327  15.541   8.176   3.061
  853POPC   C1I44328  15.442   8.164   3.177
  853POPC   C1J44329  15.485   8.174   3.302
  853POPC   C1K44330  15.633   8.202   3.329
  853POPC   C1L44331  15.687   8.126   3.450
  853POPC   C1M44332  15.633   8.174   3.584
  853POPC   C1N44333  15.691   8.087   3.695
  853POPC   C1O44334  15.641   8.130   3.833
  853POPC   C1P44335  15.693   8.033   3.940
  853POPC   C1Q44336  15.646   8.070   4.080
  853POPC   C1R44337  15.494   8.059   4.097
  853POPC    CE44338  15.729   8.492   2.435
  853POPC    OG44339  15.638   8.579   2.505
  853POPC   C2A44340  15.656   8.592   2.636
  853POPC    OH44341  15.747   8.534   2.695
  853POPC   C2B44342  15.556   8.681   2.700
  853POPC   C2C44343  15.604   8.827   2.703
  853POPC   C2D44344  15.501   8.922   2.765
  853POPC   C2E44345  15.489   8.904   2.916
  853POPC   C2F44346  15.393   9.007   2.977
  853POPC   C2G44347  15.391   8.996   3.130
  853POPC   C2H44348  15.297   9.098   3.195
  853POPC   C2I44349  15.150   9.069   3.163
  853POPC   C2J44350  15.057   9.174   3.225
  853POPC   C2K44351  14.913   9.146   3.184
  853POPC   C2L44352  14.818   9.255   3.234
  853POPC   C2M44353  14.677   9.231   3.180
  853POPC   C2N44354  14.583   9.345   3.218
  853POPC   C2O44355  14.444   9.325   3.156
  853POPC   C2P44356  14.352   9.441   3.190
  854POPC   CN144357  16.612   8.847   1.627
  854POPC   CN244358  16.569   9.041   1.759
  854POPC   CN344359  16.402   8.873   1.736
  854POPC   NTM44360  16.546   8.896   1.749
  854POPC    CA44361  16.605   8.820   1.862
  854POPC    CB44362  16.568   8.845   2.010
  854POPC    OA44363  16.588   8.979   2.053
  854POPC     P44364  16.582   8.998   2.208
  854POPC    OB44365  16.644   8.884   2.275
  854POPC    OC44366  16.622   9.138   2.227
  854POPC    OD44367  16.426   8.992   2.223
  854POPC    CC44368  16.392   9.021   2.359
  854POPC    CD44369  16.252   9.083   2.371
  854POPC    OE44370  16.225   9.146   2.499
  854POPC   C1A44371  16.123   9.231   2.507
  854POPC    OF44372  16.065   9.271   2.405
  854POPC   C1B44373  16.092   9.275   2.645
  854POPC   C1C44374  15.962   9.212   2.692
  854POPC   C1D44375  15.925   9.259   2.832
  854POPC   C1E44376  15.787   9.210   2.874
  854POPC   C1F44377  15.752   9.257   3.015
  854POPC   C1G44378  15.838   9.187   3.120
  854POPC   C1H44379  15.822   9.249   3.260
  854POPC   C1I44380  15.890   9.386   3.271
  854POPC   C1J44381  15.941   9.421   3.389
  854POPC   C1K44382  15.927   9.322   3.505
  854POPC   C1L44383  16.043   9.331   3.604
  854POPC   C1M44384  16.024   9.222   3.710
  854POPC   C1N44385  16.132   9.228   3.819
  854POPC   C1O44386  16.111   9.117   3.923
  854POPC   C1P44387  15.980   9.135   4.001
  854POPC   C1Q44388  15.957   9.023   4.103
  854POPC   C1R44389  16.058   9.028   4.218
  854POPC    CE44390  16.152   8.974   2.327
  854POPC    OG44391  16.152   8.852   2.403
  854POPC   C2A44392  16.049   8.831   2.485
  854POPC    OH44393  15.950   8.903   2.482
  854POPC   C2B44394  16.065   8.709   2.568
  854POPC   C2C44395  16.141   8.741   2.698
  854POPC   C2D44396  16.054   8.804   2.807
  854POPC   C2E44397  15.970   8.699   2.879
  854POPC   C2F44398  15.889   8.760   2.994
  854POPC   C2G44399  15.802   8.652   3.059
  854POPC   C2H44400  15.715   8.710   3.171
  854POPC   C2I44401  15.620   8.602   3.224
  854POPC   C2J44402  15.526   8.658   3.331
  854POPC   C2K44403  15.432   8.548   3.380
  854POPC   C2L44404  15.335   8.594   3.490
  854POPC   C2M44405  15.231   8.694   3.438
  854POPC   C2N44406  15.127   8.722   3.546
  854POPC   C2O44407  15.021   8.821   3.495
  854POPC   C2P44408  14.909   8.836   3.597
  855POPC   CN144409  16.656   9.561   2.583
  855POPC   CN244410  16.747   9.360   2.497
  855POPC   CN344411  16.517   9.369   2.553
  855POPC   NTM44412  16.629   9.446   2.496
  855POPC    CA44413  16.602   9.486   2.356
  855POPC    CB44414  16.493   9.593   2.325
  855POPC    OA44415  16.362   9.565   2.374
  855POPC     P44416  16.290   9.697   2.423
  855POPC    OB44417  16.322   9.806   2.331
  855POPC    OC44418  16.150   9.666   2.452
  855POPC    OD44419  16.369   9.726   2.555
  855POPC    CC44420  16.301   9.827   2.629
  855POPC    CD44421  16.371   9.872   2.759
  855POPC    OE44422  16.480   9.967   2.742
  855POPC   C1A44423  16.454  10.097   2.751
  855POPC    OF44424  16.338  10.140   2.746
  855POPC   C1B44425  16.576  10.181   2.756
  855POPC   C1C44426  16.631  10.183   2.899
  855POPC   C1D44427  16.760  10.264   2.908
  855POPC   C1E44428  16.834  10.242   3.041
  855POPC   C1F44429  16.754  10.286   3.164
  855POPC   C1G44430  16.839  10.275   3.290
  855POPC   C1H44431  16.761  10.304   3.420
  855POPC   C1I44432  16.707  10.447   3.428
  855POPC   C1J44433  16.612  10.476   3.517
  855POPC   C1K44434  16.560  10.368   3.612
  855POPC   C1L44435  16.517  10.431   3.745
  855POPC   C1M44436  16.479  10.325   3.848
  855POPC   C1N44437  16.444  10.391   3.981
  855POPC   C1O44438  16.410  10.289   4.089
  855POPC   C1P44439  16.377  10.359   4.221
  855POPC   C1Q44440  16.345  10.258   4.331
  855POPC   C1R44441  16.311  10.329   4.462
  855POPC    CE44442  16.411   9.744   2.833
  855POPC    OG44443  16.299   9.672   2.887
  855POPC   C2A44444  16.314   9.541   2.899
  855POPC    OH44445  16.402   9.480   2.838
  855POPC   C2B44446  16.206   9.480   2.979
  855POPC   C2C44447  16.258   9.410   3.105
  855POPC   C2D44448  16.331   9.505   3.200
  855POPC   C2E44449  16.383   9.428   3.322
  855POPC   C2F44450  16.466   9.520   3.411
  855POPC   C2G44451  16.509   9.446   3.538
  855POPC   C2H44452  16.595   9.535   3.627
  855POPC   C2I44453  16.625   9.467   3.761
  855POPC   C2J44454  16.499   9.454   3.848
  855POPC   C2K44455  16.525   9.379   3.979
  855POPC   C2L44456  16.556   9.230   3.955
  855POPC   C2M44457  16.576   9.155   4.087
  855POPC   C2N44458  16.447   9.146   4.169
  855POPC   C2O44459  16.469   9.081   4.306
  855POPC   C2P44460  16.554   9.169   4.399
  856POPC   CN144461  16.205  10.338   2.291
  856POPC   CN244462  16.044  10.355   2.469
  856POPC   CN344463  16.194  10.172   2.462
  856POPC   NTM44464  16.182  10.316   2.435
  856POPC    CA44465  16.280  10.388   2.519
  856POPC    CB44466  16.301  10.540   2.500
  856POPC    OA44467  16.185  10.621   2.514
  856POPC     P44468  16.205  10.768   2.465
  856POPC    OB44469  16.274  10.761   2.336
  856POPC    OC44470  16.072  10.831   2.475
  856POPC    OD44471  16.301  10.820   2.578
  856POPC    CC44472  16.228  10.858   2.696
  856POPC    CD44473  16.314  10.894   2.819
  856POPC    OE44474  16.397  11.014   2.811
  856POPC   C1A44475  16.344  11.136   2.818
  856POPC    OF44476  16.228  11.156   2.782
  856POPC   C1B44477  16.447  11.239   2.844
  856POPC   C1C44478  16.394  11.349   2.935
  856POPC   C1D44479  16.508  11.432   2.995
  856POPC   C1E44480  16.582  11.355   3.103
  856POPC   C1F44481  16.696  11.438   3.162
  856POPC   C1G44482  16.772  11.363   3.272
  856POPC   C1H44483  16.692  11.348   3.401
  856POPC   C1I44484  16.775  11.267   3.501
  856POPC   C1J44485  16.766  11.281   3.633
  856POPC   C1K44486  16.667  11.376   3.701
  856POPC   C1L44487  16.643  11.326   3.844
  856POPC   C1M44488  16.559  11.423   3.927
  856POPC   C1N44489  16.542  11.366   4.068
  856POPC   C1O44490  16.466  11.463   4.160
  856POPC   C1P44491  16.450  11.406   4.302
  856POPC   C1Q44492  16.584  11.390   4.375
  856POPC   C1R44493  16.563  11.330   4.514
  856POPC    CE44494  16.400  10.770   2.845
  856POPC    OG44495  16.330  10.658   2.901
  856POPC   C2A44496  16.397  10.544   2.905
  856POPC    OH44497  16.494  10.526   2.830
  856POPC   C2B44498  16.333  10.441   2.990
  856POPC   C2C44499  16.369  10.465   3.137
  856POPC   C2D44500  16.303  10.367   3.235
  856POPC   C2E44501  16.366  10.227   3.230
  856POPC   C2F44502  16.314  10.140   3.344
  856POPC   C2G44503  16.388  10.005   3.348
  856POPC   C2H44504  16.343   9.915   3.464
  856POPC   C2I44505  16.380   9.972   3.601
  856POPC   C2J44506  16.350   9.872   3.712
  856POPC   C2K44507  16.391   9.929   3.848
  856POPC   C2L44508  16.381   9.824   3.959
  856POPC   C2M44509  16.428   9.882   4.092
  856POPC   C2N44510  16.447   9.774   4.200
  856POPC   C2O44511  16.315   9.710   4.244
  856POPC   C2P44512  16.341   9.604   4.352
  857POPC   CN144513  16.223  12.391   2.410
  857POPC   CN244514  16.030  12.260   2.352
  857POPC   CN344515  16.173  12.346   2.183
  857POPC   NTM44516  16.170  12.289   2.318
  857POPC    CA44517  16.253  12.166   2.318
  857POPC    CB44518  16.262  12.076   2.443
  857POPC    OA44519  16.310  12.140   2.562
  857POPC     P44520  16.324  12.039   2.681
  857POPC    OB44521  16.367  11.908   2.629
  857POPC    OC44522  16.401  12.107   2.786
  857POPC    OD44523  16.172  12.029   2.719
  857POPC    CC44524  16.133  12.127   2.815
  857POPC    CD44525  15.990  12.112   2.870
  857POPC    OE44526  15.960  12.207   2.975
  857POPC   C1A44527  15.872  12.305   2.957
  857POPC    OF44528  15.823  12.328   2.847
  857POPC   C1B44529  15.849  12.381   3.082
  857POPC   C1C44530  15.738  12.315   3.165
  857POPC   C1D44531  15.751  12.348   3.314
  857POPC   C1E44532  15.720  12.494   3.349
  857POPC   C1F44533  15.746  12.524   3.497
  857POPC   C1G44534  15.657  12.441   3.590
  857POPC   C1H44535  15.688  12.468   3.737
  857POPC   C1I44536  15.605  12.375   3.825
  857POPC   C1J44537  15.577  12.406   3.951
  857POPC   C1K44538  15.631  12.535   4.014
  857POPC   C1L44539  15.623  12.526   4.166
  857POPC   C1M44540  15.658  12.660   4.230
  857POPC   C1N44541  15.614  12.662   4.377
  857POPC   C1O44542  15.627  12.803   4.433
  857POPC   C1P44543  15.550  12.816   4.565
  857POPC   C1Q44544  15.546  12.963   4.608
  857POPC   C1R44545  15.451  12.984   4.726
  857POPC    CE44546  15.976  11.965   2.916
  857POPC    OG44547  16.059  11.928   3.027
  857POPC   C2A44548  16.078  11.798   3.050
  857POPC    OH44549  16.046  11.713   2.967
  857POPC   C2B44550  16.149  11.776   3.179
  857POPC   C2C44551  16.236  11.650   3.181
  857POPC   C2D44552  16.309  11.633   3.315
  857POPC   C2E44553  16.214  11.602   3.431
  857POPC   C2F44554  16.290  11.569   3.560
  857POPC   C2G44555  16.348  11.691   3.633
  857POPC   C2H44556  16.238  11.771   3.703
  857POPC   C2I44557  16.294  11.889   3.784
  857POPC   C2J44558  16.375  11.845   3.906
  857POPC   C2K44559  16.422  11.966   3.986
  857POPC   C2L44560  16.505  11.926   4.109
  857POPC   C2M44561  16.423  11.856   4.219
  857POPC   C2N44562  16.335  11.952   4.301
  857POPC   C2O44563  16.419  12.041   4.392
  857POPC   C2P44564  16.330  12.127   4.483
  858POPC   CN144565  16.020  12.761   2.065
  858POPC   CN244566  15.917  12.832   1.861
  858POPC   CN344567  15.992  12.608   1.885
  858POPC   NTM44568  15.930  12.720   1.956
  858POPC    CA44569  15.799  12.676   2.010
  858POPC    CB44570  15.716  12.769   2.101
  858POPC    OA44571  15.690  12.898   2.046
  858POPC     P44572  15.551  12.954   2.091
  858POPC    OB44573  15.523  13.067   2.001
  858POPC    OC44574  15.457  12.842   2.099
  858POPC    OD44575  15.588  13.006   2.234
  858POPC    CC44576  15.635  13.141   2.234
  858POPC    CD44577  15.648  13.201   2.375
  858POPC    OE44578  15.656  13.346   2.381
  858POPC   C1A44579  15.542  13.410   2.411
  858POPC    OF44580  15.435  13.366   2.369
  858POPC   C1B44581  15.562  13.543   2.472
  858POPC   C1C44582  15.565  13.529   2.624
  858POPC   C1D44583  15.576  13.664   2.696
  858POPC   C1E44584  15.594  13.641   2.846
  858POPC   C1F44585  15.612  13.771   2.925
  858POPC   C1G44586  15.482  13.850   2.940
  858POPC   C1H44587  15.509  13.978   3.018
  858POPC   C1I44588  15.382  14.061   3.040
  858POPC   C1J44589  15.388  14.193   3.027
  858POPC   C1K44590  15.521  14.258   2.989
  858POPC   C1L44591  15.525  14.406   3.027
  858POPC   C1M44592  15.657  14.468   2.981
  858POPC   C1N44593  15.659  14.619   3.003
  858POPC   C1O44594  15.792  14.682   2.962
  858POPC   C1P44595  15.819  14.683   2.811
  858POPC   C1Q44596  15.730  14.783   2.738
  858POPC   C1R44597  15.764  14.788   2.589
  858POPC    CE44598  15.763  13.127   2.447
  858POPC    OG44599  15.781  13.169   2.583
  858POPC   C2A44600  15.906  13.185   2.626
  858POPC    OH44601  16.002  13.166   2.551
  858POPC   C2B44602  15.916  13.233   2.766
  858POPC   C2C44603  15.936  13.116   2.862
  858POPC   C2D44604  15.976  13.161   3.003
  858POPC   C2E44605  15.864  13.233   3.080
  858POPC   C2F44606  15.916  13.269   3.220
  858POPC   C2G44607  15.811  13.338   3.306
  858POPC   C2H44608  15.870  13.374   3.442
  858POPC   C2I44609  15.770  13.452   3.527
  858POPC   C2J44610  15.831  13.494   3.661
  858POPC   C2K44611  15.732  13.581   3.739
  858POPC   C2L44612  15.787  13.626   3.875
  858POPC   C2M44613  15.803  13.509   3.973
  858POPC   C2N44614  15.862  13.558   4.105
  858POPC   C2O44615  15.888  13.442   4.200
  858POPC   C2P44616  15.958  13.490   4.327
  859POPC   CN144617  16.243  13.554   2.059
  859POPC   CN244618  16.122  13.635   2.246
  859POPC   CN344619  16.315  13.752   2.168
  859POPC   NTM44620  16.197  13.676   2.127
  859POPC    CA44621  16.111  13.752   2.033
  859POPC    CB44622  16.057  13.893   2.072
  859POPC    OA44623  15.983  13.900   2.194
  859POPC     P44624  15.956  14.048   2.241
  859POPC    OB44625  15.932  14.123   2.118
  859POPC    OC44626  15.851  14.023   2.341
  859POPC    OD44627  16.099  14.075   2.300
  859POPC    CC44628  16.105  14.038   2.438
  859POPC    CD44629  16.245  14.045   2.500
  859POPC    OE44630  16.257  13.968   2.622
  859POPC   C1A44631  16.286  13.839   2.615
  859POPC    OF44632  16.338  13.792   2.512
  859POPC   C1B44633  16.257  13.765   2.740
  859POPC   C1C44634  16.114  13.710   2.731
  859POPC   C1D44635  16.062  13.637   2.855
  859POPC   C1E44636  16.046  13.728   2.977
  859POPC   C1F44637  15.953  13.661   3.078
  859POPC   C1G44638  15.938  13.739   3.208
  859POPC   C1H44639  16.060  13.719   3.297
  859POPC   C1I44640  16.047  13.792   3.431
  859POPC   C1J44641  16.158  13.810   3.502
  859POPC   C1K44642  16.288  13.755   3.444
  859POPC   C1L44643  16.384  13.705   3.553
  859POPC   C1M44644  16.510  13.643   3.491
  859POPC   C1N44645  16.594  13.745   3.414
  859POPC   C1O44646  16.709  13.676   3.341
  859POPC   C1P44647  16.795  13.776   3.264
  859POPC   C1Q44648  16.905  13.703   3.188
  859POPC   C1R44649   0.012  13.800   3.113
  859POPC    CE44650  16.284  14.194   2.510
  859POPC    OG44651  16.205  14.277   2.597
  859POPC   C2A44652  16.254  14.399   2.620
  859POPC    OH44653  16.362  14.434   2.573
  859POPC   C2B44654  16.175  14.477   2.717
  859POPC   C2C44655  16.235  14.464   2.857
  859POPC   C2D44656  16.175  14.566   2.953
  859POPC   C2E44657  16.240  14.552   3.091
  859POPC   C2F44658  16.203  14.669   3.182
  859POPC   C2G44659  16.273  14.654   3.317
  859POPC   C2H44660  16.251  14.777   3.405
  859POPC   C2I44661  16.318  14.764   3.542
  859POPC   C2J44662  16.255  14.654   3.627
  859POPC   C2K44663  16.323  14.645   3.763
  859POPC   C2L44664  16.265  14.530   3.846
  859POPC   C2M44665  16.333  14.523   3.983
  859POPC   C2N44666  16.281  14.407   4.068
  859POPC   C2O44667  16.320  14.271   4.009
  859POPC   C2P44668  16.270  14.157   4.098
  860POPC   CN144669  16.164  14.491   1.830
  860POPC   CN244670  16.134  14.636   2.014
  860POPC   CN344671  15.950  14.592   1.869
  860POPC   NTM44672  16.068  14.533   1.933
  860POPC    CA44673  16.034  14.413   2.012
  860POPC    CB44674  15.925  14.419   2.124
  860POPC    OA44675  15.940  14.516   2.228
  860POPC     P44676  16.026  14.467   2.351
  860POPC    OB44677  16.149  14.407   2.296
  860POPC    OC44678  16.031  14.585   2.437
  860POPC    OD44679  15.928  14.357   2.406
  860POPC    CC44680  15.835  14.411   2.499
  860POPC    CD44681  15.720  14.316   2.538
  860POPC    OE44682  15.613  14.380   2.612
  860POPC   C1A44683  15.521  14.452   2.547
  860POPC    OF44684  15.518  14.453   2.424
  860POPC   C1B44685  15.422  14.516   2.636
  860POPC   C1C44686  15.305  14.422   2.663
  860POPC   C1D44687  15.211  14.483   2.768
  860POPC   C1E44688  15.111  14.379   2.817
  860POPC   C1F44689  15.047  14.428   2.946
  860POPC   C1G44690  14.967  14.318   3.016
  860POPC   C1H44691  14.935  14.356   3.161
  860POPC   C1I44692  15.061  14.364   3.248
  860POPC   C1J44693  15.057  14.335   3.377
  860POPC   C1K44694  14.925  14.297   3.444
  860POPC   C1L44695  14.932  14.327   3.594
  860POPC   C1M44696  14.802  14.288   3.665
  860POPC   C1N44697  14.809  14.317   3.815
  860POPC   C1O44698  14.909  14.227   3.888
  860POPC   C1P44699  14.918  14.265   4.036
  860POPC   C1Q44700  15.015  14.175   4.113
  860POPC   C1R44701  14.963  14.032   4.127
  860POPC    CE44702  15.782  14.192   2.604
  860POPC    OG44703  15.864  14.215   2.720
  860POPC   C2A44704  15.920  14.108   2.775
  860POPC    OH44705  15.903  13.994   2.729
  860POPC   C2B44706  15.999  14.140   2.896
  860POPC   C2C44707  15.913  14.127   3.022
  860POPC   C2D44708  15.987  14.181   3.145
  860POPC   C2E44709  15.902  14.165   3.271
  860POPC   C2F44710  15.970  14.234   3.389
  860POPC   C2G44711  15.891  14.215   3.519
  860POPC   C2H44712  15.954  14.298   3.631
  860POPC   C2I44713  15.877  14.287   3.763
  860POPC   C2J44714  15.903  14.153   3.834
  860POPC   C2K44715  15.831  14.151   3.968
  860POPC   C2L44716  15.875  14.030   4.052
  860POPC   C2M44717  15.810  14.034   4.191
  860POPC   C2N44718  15.866  13.927   4.284
  860POPC   C2O44719  16.013  13.954   4.319
  860POPC   C2P44720  16.070  13.848   4.413
  861POPC   CN144721  16.541  15.185   1.729
  861POPC   CN244722  16.723  15.182   1.884
  861POPC   CN344723  16.742  15.301   1.680
  861POPC   NTM44724  16.649  15.265   1.787
  861POPC    CA44725  16.601  15.391   1.849
  861POPC    CB44726  16.493  15.393   1.960
  861POPC    OA44727  16.364  15.344   1.921
  861POPC     P44728  16.246  15.440   1.959
  861POPC    OB44729  16.295  15.578   1.943
  861POPC    OC44730  16.127  15.394   1.886
  861POPC    OD44731  16.235  15.410   2.113
  861POPC    CC44732  16.177  15.282   2.140
  861POPC    CD44733  16.190  15.240   2.288
  861POPC    OE44734  16.096  15.306   2.377
  861POPC   C1A44735  15.982  15.245   2.408
  861POPC    OF44736  15.944  15.148   2.342
  861POPC   C1B44737  15.899  15.319   2.507
  861POPC   C1C44738  15.977  15.361   2.631
  861POPC   C1D44739  15.910  15.480   2.701
  861POPC   C1E44740  16.000  15.535   2.811
  861POPC   C1F44741  15.947  15.668   2.864
  861POPC   C1G44742  16.036  15.728   2.973
  861POPC   C1H44743  16.036  15.643   3.100
  861POPC   C1I44744  16.129  15.705   3.205
  861POPC   C1J44745  16.191  15.627   3.293
  861POPC   C1K44746  16.170  15.475   3.289
  861POPC   C1L44747  16.185  15.409   3.427
  861POPC   C1M44748  16.328  15.419   3.482
  861POPC   C1N44749  16.346  15.341   3.612
  861POPC   C1O44750  16.334  15.190   3.590
  861POPC   C1P44751  16.352  15.110   3.720
  861POPC   C1Q44752  16.496  15.113   3.771
  861POPC   C1R44753  16.509  15.032   3.900
  861POPC    CE44754  16.339  15.261   2.324
  861POPC    OG44755  16.382  15.212   2.452
  861POPC   C2A44756  16.507  15.238   2.486
  861POPC    OH44757  16.580  15.309   2.415
  861POPC   C2B44758  16.545  15.175   2.614
  861POPC   C2C44759  16.683  15.109   2.604
  861POPC   C2D44760  16.720  15.032   2.731
  861POPC   C2E44761  16.631  14.910   2.753
  861POPC   C2F44762  16.678  14.828   2.872
  861POPC   C2G44763  16.588  14.706   2.893
  861POPC   C2H44764  16.644  14.609   2.998
  861POPC   C2I44765  16.646  14.667   3.139
  861POPC   C2J44766  16.698  14.562   3.237
  861POPC   C2K44767  16.689  14.611   3.382
  861POPC   C2L44768  16.730  14.499   3.477
  861POPC   C2M44769  16.707  14.538   3.623
  861POPC   C2N44770  16.740  14.421   3.716
  861POPC   C2O44771  16.708  14.455   3.861
  861POPC   C2P44772  16.733  14.335   3.953
  862POPC   CN144773  16.147  15.857   2.391
  862POPC   CN244774  16.149  15.621   2.396
  862POPC   CN344775  16.037  15.732   2.218
  862POPC   NTM44776  16.154  15.737   2.306
  862POPC    CA44777  16.281  15.731   2.231
  862POPC    CB44778  16.312  15.835   2.120
  862POPC    OA44779  16.297  15.970   2.159
  862POPC     P44780  16.326  16.071   2.044
  862POPC    OB44781  16.470  16.097   2.037
  862POPC    OC44782  16.255  16.021   1.925
  862POPC    OD44783  16.249  16.195   2.100
  862POPC    CC44784  16.311  16.249   2.217
  862POPC    CD44785  16.236  16.371   2.272
  862POPC    OE44786  16.309  16.456   2.364
  862POPC   C1A44787  16.401  16.541   2.319
  862POPC    OF44788  16.441  16.535   2.202
  862POPC   C1B44789  16.450  16.633   2.423
  862POPC   C1C44790  16.584  16.591   2.483
  862POPC   C1D44791  16.617  16.676   2.606
  862POPC   C1E44792  16.751  16.634   2.667
  862POPC   C1F44793  16.778  16.703   2.801
  862POPC   C1G44794  16.687  16.651   2.913
  862POPC   C1H44795  16.716  16.726   3.044
  862POPC   C1I44796  16.630  16.678   3.160
  862POPC   C1J44797  16.668  16.705   3.285
  862POPC   C1K44798  16.798  16.785   3.305
  862POPC   C1L44799  16.799  16.875   3.429
  862POPC   C1M44800  16.811  16.795   3.559
  862POPC   C1N44801  16.836  16.884   3.682
  862POPC   C1O44802  16.721  16.981   3.710
  862POPC   C1P44803  16.744   0.073   3.841
  862POPC   C1Q44804  16.624   0.163   3.873
  862POPC   C1R44805  16.640   0.229   4.010
  862POPC    CE44806  16.100  16.318   2.322
  862POPC    OG44807  16.100  16.243   2.445
  862POPC   C2A44808  15.986  16.182   2.477
  862POPC    OH44809  15.916  16.134   2.387
  862POPC   C2B44810  15.978  16.142   2.620
  862POPC   C2C44811  15.832  16.143   2.666
  862POPC   C2D44812  15.807  16.079   2.802
  862POPC   C2E44813  15.849  16.166   2.922
  862POPC   C2F44814  15.790  16.104   3.049
  862POPC   C2G44815  15.814  16.189   3.174
  862POPC   C2H44816  15.732  16.131   3.290
  862POPC   C2I44817  15.750  16.206   3.422
  862POPC   C2J44818  15.887  16.181   3.485
  862POPC   C2K44819  15.900  16.241   3.625
  862POPC   C2L44820  15.807  16.174   3.727
  862POPC   C2M44821  15.823  16.237   3.865
  862POPC   C2N44822  15.733  16.168   3.968
  862POPC   C2O44823  15.753  16.229   4.107
  862POPC   C2P44824  15.665  16.159   4.210
  863POPC   CN144825   0.444   0.485   1.814
  863POPC   CN244826   0.319   0.605   1.978
  863POPC   CN344827   0.426   0.720   1.802
  863POPC   NTM44828   0.353   0.598   1.835
  863POPC    CA44829   0.232   0.590   1.749
  863POPC    CB44830   0.122   0.485   1.780
  863POPC    OA44831   0.165   0.351   1.804
  863POPC     P44832   0.049   0.259   1.859
  863POPC    OB44833  16.919   0.283   1.767
  863POPC    OC44834   0.114   0.128   1.877
  863POPC    OD44835   0.023   0.330   1.997
  863POPC    CC44836   0.103   0.280   2.104
  863POPC    CD44837   0.102   0.367   2.231
  863POPC    OE44838   0.192   0.316   2.333
  863POPC   C1A44839   0.266   0.407   2.397
  863POPC    OF44840   0.296   0.512   2.338
  863POPC   C1B44841   0.341   0.354   2.513
  863POPC   C1C44842   0.267   0.373   2.645
  863POPC   C1D44843   0.359   0.336   2.762
  863POPC   C1E44844   0.287   0.349   2.896
  863POPC   C1F44845   0.383   0.337   3.015
  863POPC   C1G44846   0.449   0.199   3.025
  863POPC   C1H44847   0.547   0.194   3.143
  863POPC   C1I44848   0.614   0.057   3.153
  863POPC   C1J44849   0.663   0.015   3.269
  863POPC   C1K44850   0.654   0.103   3.395
  863POPC   C1L44851   0.652   0.016   3.521
  863POPC   C1M44852   0.652   0.101   3.648
  863POPC   C1N44853   0.638   0.011   3.771
  863POPC   C1O44854   0.628   0.094   3.899
  863POPC   C1P44855   0.587   0.009   4.020
  863POPC   C1Q44856   0.697  16.896   4.068
  863POPC   C1R44857   0.812  16.972   4.134
  863POPC    CE44858  16.937   0.385   2.270
  863POPC    OG44859  16.909   0.462   2.389
  863POPC   C2A44860  16.782   0.490   2.415
  863POPC    OH44861  16.693   0.465   2.333
  863POPC   C2B44862  16.765   0.564   2.542
  863POPC   C2C44863  16.652   0.508   2.629
  863POPC   C2D44864  16.653   0.575   2.766
  863POPC   C2E44865  16.553   0.513   2.863
  863POPC   C2F44866  16.564   0.581   2.999
  863POPC   C2G44867  16.478   0.513   3.106
  863POPC   C2H44868  16.501   0.580   3.241
  863POPC   C2I44869  16.432   0.503   3.355
  863POPC   C2J44870  16.470   0.565   3.490
  863POPC   C2K44871  16.415   0.487   3.609
  863POPC   C2L44872  16.262   0.496   3.620
  863POPC   C2M44873  16.207   0.419   3.741
  863POPC   C2N44874  16.227   0.267   3.727
  863POPC   C2O44875  16.161   0.189   3.841
  863POPC   C2P44876  16.228   0.213   3.977
  864POPC   CN144877  16.430   0.306   1.899
  864POPC   CN244878  16.446   0.516   2.008
  864POPC   CN344879  16.573   0.331   2.085
  864POPC   NTM44880  16.523   0.398   1.966
  864POPC    CA44881  16.631   0.430   1.870
  864POPC    CB44882  16.752   0.518   1.909
  864POPC    OA44883  16.729   0.654   1.947
  864POPC     P44884  16.866   0.722   1.987
  864POPC    OB44885  16.947   0.625   2.060
  864POPC    OC44886  16.916   0.785   1.864
  864POPC    OD44887  16.806   0.837   2.075
  864POPC    CC44888  16.820   0.807   2.213
  864POPC    CD44889  16.798   0.928   2.305
  864POPC    OE44890  16.842   0.909   2.442
  864POPC   C1A44891  16.971   0.906   2.474
  864POPC    OF44892   0.076   0.906   2.387
  864POPC   C1B44893   0.007   0.897   2.620
  864POPC   C1C44894   0.135   0.825   2.663
  864POPC   C1D44895   0.136   0.805   2.815
  864POPC   C1E44896   0.037   0.696   2.857
  864POPC   C1F44897   0.016   0.689   3.008
  864POPC   C1G44898  16.918   0.808   3.061
  864POPC   C1H44899  16.883   0.786   3.208
  864POPC   C1I44900  16.794   0.898   3.262
  864POPC   C1J44901  16.786   0.916   3.394
  864POPC   C1K44902  16.866   0.827   3.489
  864POPC   C1L44903  16.783   0.794   3.614
  864POPC   C1M44904  16.865   0.723   3.721
  864POPC   C1N44905  16.777   0.702   3.845
  864POPC   C1O44906  16.857   0.665   3.970
  864POPC   C1P44907  16.908   0.521   3.971
  864POPC   C1Q44908  16.975   0.491   4.105
  864POPC   C1R44909   0.032   0.344   4.114
  864POPC    CE44910  16.649   0.964   2.292
  864POPC    OG44911  16.558   0.867   2.349
  864POPC   C2A44912  16.429   0.883   2.324
  864POPC    OH44913  16.390   0.951   2.229
  864POPC   C2B44914  16.342   0.793   2.404
  864POPC   C2C44915  16.334   0.652   2.345
  864POPC   C2D44916  16.222   0.567   2.406
  864POPC   C2E44917  16.237   0.546   2.557
  864POPC   C2F44918  16.123   0.458   2.611
  864POPC   C2G44919  16.128   0.444   2.763
  864POPC   C2H44920  16.095   0.576   2.834
  864POPC   C2I44921  16.106   0.565   2.987
  864POPC   C2J44922  15.999   0.474   3.048
  864POPC   C2K44923  16.018   0.466   3.200
  864POPC   C2L44924  15.906   0.385   3.265
  864POPC   C2M44925  15.923   0.380   3.416
  864POPC   C2N44926  15.806   0.309   3.484
  864POPC   C2O44927  15.824   0.310   3.636
  864POPC   C2P44928  15.707   0.240   3.707
  865POPC   CN144929  16.947   1.701   2.308
  865POPC   CN244930  16.818   1.544   2.429
  865POPC   CN344931  16.709   1.704   2.286
  865POPC   NTM44932  16.827   1.617   2.302
  865POPC    CA44933  16.842   1.526   2.186
  865POPC    CB44934  16.742   1.410   2.160
  865POPC    OA44935  16.603   1.443   2.146
  865POPC     P44936  16.517   1.311   2.154
  865POPC    OB44937  16.382   1.355   2.115
  865POPC    OC44938  16.587   1.208   2.077
  865POPC    OD44939  16.533   1.289   2.308
  865POPC    CC44940  16.417   1.327   2.382
  865POPC    CD44941  16.443   1.383   2.523
  865POPC    OE44942  16.476   1.525   2.528
  865POPC   C1A44943  16.377   1.614   2.530
  865POPC    OF44944  16.259   1.579   2.515
  865POPC   C1B44945  16.423   1.753   2.556
  865POPC   C1C44946  16.391   1.800   2.699
  865POPC   C1D44947  16.449   1.711   2.809
  865POPC   C1E44948  16.602   1.713   2.815
  865POPC   C1F44949  16.659   1.597   2.898
  865POPC   C1G44950  16.611   1.598   3.044
  865POPC   C1H44951  16.664   1.478   3.122
  865POPC   C1I44952  16.599   1.472   3.260
  865POPC   C1J44953  16.659   1.415   3.364
  865POPC   C1K44954  16.799   1.355   3.349
  865POPC   C1L44955  16.856   1.307   3.484
  865POPC   C1M44956  16.884   1.422   3.582
  865POPC   C1N44957  16.940   1.366   3.712
  865POPC   C1O44958  16.966   1.477   3.814
  865POPC   C1P44959   0.042   1.418   3.942
  865POPC   C1Q44960   0.064   1.523   4.052
  865POPC   C1R44961  16.915   1.577   4.107
  865POPC    CE44962  16.548   1.294   2.591
  865POPC    OG44963  16.510   1.157   2.616
  865POPC   C2A44964  16.605   1.078   2.664
  865POPC    OH44965  16.721   1.118   2.676
  865POPC   C2B44966  16.560   0.940   2.698
  865POPC   C2C44967  16.436   0.933   2.788
  865POPC   C2D44968  16.462   0.987   2.928
  865POPC   C2E44969  16.337   0.973   3.015
  865POPC   C2F44970  16.364   1.023   3.157
  865POPC   C2G44971  16.241   1.002   3.246
  865POPC   C2H44972  16.266   1.046   3.391
  865POPC   C2I44973  16.372   0.961   3.460
  865POPC   C2J44974  16.402   1.006   3.603
  865POPC   C2K44975  16.464   1.147   3.609
  865POPC   C2L44976  16.504   1.187   3.751
  865POPC   C2M44977  16.625   1.106   3.800
  865POPC   C2N44978  16.668   1.147   3.941
  865POPC   C2O44979  16.792   1.068   3.982
  865POPC   C2P44980  16.838   1.103   4.123
  866POPC   CN144981   0.048   4.023   1.680
  866POPC   CN244982  16.807   4.083   1.742
  866POPC   CN344983  16.937   4.228   1.607
  866POPC   NTM44984  16.907   4.086   1.634
  866POPC    CA44985  16.856   4.025   1.510
  866POPC    CB44986  16.803   3.879   1.508
  866POPC    OA44987  16.896   3.775   1.538
  866POPC     P44988  16.827   3.633   1.552
  866POPC    OB44989  16.710   3.630   1.463
  866POPC    OC44990  16.937   3.536   1.539
  866POPC    OD44991  16.779   3.647   1.701
  866POPC    CC44992  16.890   3.634   1.790
  866POPC    CD44993  16.857   3.646   1.940
  866POPC    OE44994  16.977   3.663   2.022
  866POPC   C1A44995   0.046   3.785   2.034
  866POPC    OF44996   0.004   3.878   1.964
  866POPC   C1B44997   0.157   3.793   2.131
  866POPC   C1C44998   0.270   3.885   2.082
  866POPC   C1D44999   0.374   3.908   2.192
  866POPC   C1E45000   0.494   3.987   2.139
  866POPC   C1F45001   0.593   4.024   2.249
  866POPC   C1G45002   0.542   4.140   2.336
  866POPC   C1H45003   0.645   4.179   2.443
  866POPC   C1I45004   0.604   4.307   2.515
  866POPC   C1J45005   0.554   4.307   2.638
  866POPC   C1K45006   0.537   4.178   2.718
  866POPC   C1L45007   0.516   4.209   2.867
  866POPC   C1M45008   0.511   4.079   2.948
  866POPC   C1N45009   0.483   4.103   3.097
  866POPC   C1O45010   0.339   4.152   3.122
  866POPC   C1P45011   0.302   4.153   3.270
  866POPC   C1Q45012   0.384   4.253   3.352
  866POPC   C1R45013   0.342   4.249   3.499
  866POPC    CE45014  16.772   3.522   1.973
  866POPC    OG45015  16.662   3.545   2.063
  866POPC   C2A45016  16.591   3.437   2.098
  866POPC    OH45017  16.617   3.325   2.053
  866POPC   C2B45018  16.483   3.468   2.195
  866POPC   C2C45019  16.463   3.354   2.296
  866POPC   C2D45020  16.354   3.386   2.398
  866POPC   C2E45021  16.341   3.270   2.496
  866POPC   C2F45022  16.228   3.291   2.597
  866POPC   C2G45023  16.218   3.167   2.687
  866POPC   C2H45024  16.096   3.167   2.779
  866POPC   C2I45025  16.107   3.267   2.894
  866POPC   C2J45026  15.985   3.252   2.986
  866POPC   C2K45027  15.991   3.350   3.103
  866POPC   C2L45028  15.865   3.340   3.188
  866POPC   C2M45029  15.866   3.445   3.299
  866POPC   C2N45030  15.737   3.440   3.380
  866POPC   C2O45031  15.739   3.547   3.490
  866POPC   C2P45032  15.609   3.545   3.570
  867POPC   CN145033  15.559   4.740   1.857
  867POPC   CN245034  15.528   4.501   1.845
  867POPC   CN345035  15.409   4.645   1.700
  867POPC   NTM45036  15.538   4.625   1.767
  867POPC    CA45037  15.644   4.619   1.663
  867POPC    CB45038  15.790   4.576   1.696
  867POPC    OA45039  15.863   4.647   1.797
  867POPC     P45040  16.004   4.694   1.740
  867POPC    OB45041  15.988   4.729   1.598
  867POPC    OC45042  16.072   4.785   1.833
  867POPC    OD45043  16.081   4.556   1.738
  867POPC    CC45044  16.131   4.518   1.867
  867POPC    CD45045  16.208   4.385   1.868
  867POPC    OE45046  16.232   4.330   2.000
  867POPC   C1A45047  16.146   4.242   2.052
  867POPC    OF45048  16.046   4.209   1.987
  867POPC   C1B45049  16.184   4.193   2.186
  867POPC   C1C45050  16.061   4.181   2.277
  867POPC   C1D45051  16.099   4.157   2.423
  867POPC   C1E45052  16.136   4.012   2.457
  867POPC   C1F45053  16.157   4.003   2.608
  867POPC   C1G45054  16.173   3.860   2.659
  867POPC   C1H45055  16.181   3.863   2.812
  867POPC   C1I45056  16.178   3.724   2.875
  867POPC   C1J45057  16.105   3.706   2.984
  867POPC   C1K45058  16.026   3.825   3.040
  867POPC   C1L45059  15.994   3.809   3.188
  867POPC   C1M45060  15.919   3.933   3.238
  867POPC   C1N45061  15.879   3.919   3.385
  867POPC   C1O45062  15.813   4.048   3.435
  867POPC   C1P45063  15.761   4.036   3.578
  867POPC   C1Q45064  15.640   3.943   3.586
  867POPC   C1R45065  15.588   3.932   3.730
  867POPC    CE45066  16.332   4.397   1.778
  867POPC    OG45067  16.427   4.504   1.804
  867POPC   C2A45068  16.551   4.478   1.761
  867POPC    OH45069  16.585   4.367   1.721
  867POPC   C2B45070  16.646   4.591   1.781
  867POPC   C2C45071  16.720   4.579   1.913
  867POPC   C2D45072  16.820   4.693   1.932
  867POPC   C2E45073  16.891   4.686   2.068
  867POPC   C2F45074  16.794   4.711   2.184
  867POPC   C2G45075  16.862   4.698   2.320
  867POPC   C2H45076  16.760   4.721   2.431
  867POPC   C2I45077  16.822   4.702   2.570
  867POPC   C2J45078  16.717   4.726   2.678
  867POPC   C2K45079  16.777   4.710   2.818
  867POPC   C2L45080  16.671   4.745   2.924
  867POPC   C2M45081  16.728   4.734   3.065
  867POPC   C2N45082  16.622   4.775   3.167
  867POPC   C2O45083  16.675   4.764   3.310
  867POPC   C2P45084  16.567   4.806   3.411
  868POPC   CN145085  15.893   5.211   1.290
  868POPC   CN245086  16.129   5.238   1.294
  868POPC   CN345087  16.000   5.342   1.460
  868POPC   NTM45088  16.011   5.221   1.378
  868POPC    CA45089  16.030   5.102   1.464
  868POPC    CB45090  15.910   5.038   1.538
  868POPC    OA45091  15.819   5.132   1.594
  868POPC     P45092  15.693   5.063   1.657
  868POPC    OB45093  15.600   5.177   1.663
  868POPC    OC45094  15.660   4.943   1.579
  868POPC    OD45095  15.753   5.028   1.798
  868POPC    CC45096  15.748   5.143   1.882
  868POPC    CD45097  15.852   5.156   1.994
  868POPC    OE45098  15.983   5.207   1.956
  868POPC   C1A45099  16.004   5.337   1.977
  868POPC    OF45100  15.910   5.415   1.993
  868POPC   C1B45101  16.147   5.376   1.968
  868POPC   C1C45102  16.223   5.344   2.097
  868POPC   C1D45103  16.177   5.423   2.220
  868POPC   C1E45104  16.264   5.387   2.340
  868POPC   C1F45105  16.236   5.476   2.461
  868POPC   C1G45106  16.341   5.448   2.570
  868POPC   C1H45107  16.317   5.522   2.702
  868POPC   C1I45108  16.329   5.674   2.691
  868POPC   C1J45109  16.292   5.752   2.793
  868POPC   C1K45110  16.239   5.691   2.923
  868POPC   C1L45111  16.087   5.705   2.940
  868POPC   C1M45112  16.041   5.849   2.970
  868POPC   C1N45113  16.085   5.901   3.107
  868POPC   C1O45114  16.016   5.827   3.223
  868POPC   C1P45115  16.063   5.881   3.358
  868POPC   C1Q45116  15.997   5.810   3.476
  868POPC   C1R45117  16.041   5.664   3.489
  868POPC    CE45118  15.850   5.029   2.081
  868POPC    OG45119  15.733   5.008   2.163
  868POPC   C2A45120  15.718   5.081   2.274
  868POPC    OH45121  15.799   5.167   2.308
  868POPC   C2B45122  15.594   5.045   2.349
  868POPC   C2C45123  15.541   5.156   2.439
  868POPC   C2D45124  15.403   5.118   2.493
  868POPC   C2E45125  15.349   5.216   2.597
  868POPC   C2F45126  15.420   5.201   2.732
  868POPC   C2G45127  15.357   5.288   2.841
  868POPC   C2H45128  15.384   5.437   2.823
  868POPC   C2I45129  15.319   5.520   2.935
  868POPC   C2J45130  15.167   5.532   2.918
  868POPC   C2K45131  15.100   5.593   3.041
  868POPC   C2L45132  15.099   5.494   3.158
  868POPC   C2M45133  15.031   5.551   3.284
  868POPC   C2N45134  15.116   5.659   3.351
  868POPC   C2O45135  15.045   5.710   3.478
  868POPC   C2P45136  15.131   5.814   3.551
  869POPC   CN145137  15.662   5.674   1.977
  869POPC   CN245138  15.779   5.603   1.780
  869POPC   CN345139  15.571   5.504   1.840
  869POPC   NTM45140  15.646   5.630   1.837
  869POPC    CA45141  15.569   5.725   1.754
  869POPC    CB45142  15.615   5.871   1.734
  869POPC    OA45143  15.614   5.950   1.853
  869POPC     P45144  15.667   6.094   1.822
  869POPC    OB45145  15.809   6.079   1.787
  869POPC    OC45146  15.566   6.148   1.730
  869POPC    OD45147  15.644   6.149   1.967
  869POPC    CC45148  15.756   6.118   2.050
  869POPC    CD45149  15.751   6.187   2.187
  869POPC    OE45150  15.881   6.225   2.239
  869POPC   C1A45151  15.941   6.333   2.191
  869POPC    OF45152  15.887   6.404   2.104
  869POPC   C1B45153  16.076   6.357   2.247
  869POPC   C1C45154  16.074   6.436   2.379
  869POPC   C1D45155  16.017   6.577   2.362
  869POPC   C1E45156  16.030   6.656   2.492
  869POPC   C1F45157  15.973   6.797   2.477
  869POPC   C1G45158  16.009   6.887   2.595
  869POPC   C1H45159  15.950   6.842   2.729
  869POPC   C1I45160  15.985   6.943   2.838
  869POPC   C1J45161  15.992   6.908   2.966
  869POPC   C1K45162  15.963   6.765   3.011
  869POPC   C1L45163  15.905   6.758   3.153
  869POPC   C1M45164  16.005   6.801   3.260
  869POPC   C1N45165  15.942   6.793   3.400
  869POPC   C1O45166  16.040   6.841   3.506
  869POPC   C1P45167  15.979   6.835   3.646
  869POPC   C1Q45168  16.076   6.893   3.750
  869POPC   C1R45169  16.011   6.898   3.888
  869POPC    CE45170  15.658   6.102   2.276
  869POPC    OG45171  15.693   5.963   2.288
  869POPC   C2A45172  15.607   5.886   2.354
  869POPC    OH45173  15.495   5.927   2.384
  869POPC   C2B45174  15.655   5.747   2.375
  869POPC   C2C45175  15.693   5.724   2.522
  869POPC   C2D45176  15.732   5.578   2.544
  869POPC   C2E45177  15.753   5.548   2.693
  869POPC   C2F45178  15.777   5.399   2.716
  869POPC   C2G45179  15.917   5.355   2.674
  869POPC   C2H45180  15.927   5.202   2.671
  869POPC   C2I45181  16.073   5.159   2.654
  869POPC   C2J45182  16.088   5.010   2.624
  869POPC   C2K45183  16.054   4.977   2.479
  869POPC   C2L45184  16.075   4.828   2.452
  869POPC   C2M45185  16.056   4.795   2.303
  869POPC   C2N45186  16.070   4.645   2.275
  869POPC   C2O45187  16.211   4.590   2.299
  869POPC   C2P45188  16.313   4.640   2.196
  870POPC   CN145189  16.361   6.640   2.075
  870POPC   CN245190  16.210   6.751   1.930
  870POPC   CN345191  16.250   6.835   2.152
  870POPC   NTM45192  16.312   6.772   2.034
  870POPC    CA45193  16.427   6.850   1.982
  870POPC    CB45194  16.410   6.995   1.930
  870POPC    OA45195  16.358   7.087   2.025
  870POPC     P45196  16.360   7.238   1.980
  870POPC    OB45197  16.366   7.243   1.832
  870POPC    OC45198  16.252   7.307   2.051
  870POPC    OD45199  16.501   7.284   2.032
  870POPC    CC45200  16.510   7.291   2.174
  870POPC    CD45201  16.637   7.364   2.224
  870POPC    OE45202  16.688   7.322   2.354
  870POPC   C1A45203  16.759   7.210   2.368
  870POPC    OF45204  16.779   7.137   2.271
  870POPC   C1B45205  16.818   7.193   2.503
  870POPC   C1C45206  16.719   7.140   2.607
  870POPC   C1D45207  16.789   7.124   2.743
  870POPC   C1E45208  16.690   7.088   2.854
  870POPC   C1F45209  16.762   7.072   2.988
  870POPC   C1G45210  16.663   7.056   3.104
  870POPC   C1H45211  16.733   7.044   3.240
  870POPC   C1I45212  16.804   6.909   3.259
  870POPC   C1J45213  16.829   6.861   3.381
  870POPC   C1K45214  16.792   6.940   3.506
  870POPC   C1L45215  16.885   6.903   3.622
  870POPC   C1M45216  16.860   6.989   3.746
  870POPC   C1N45217  16.952   6.954   3.862
  870POPC   C1O45218   0.115   6.990   3.834
  870POPC   C1P45219   0.206   6.946   3.948
  870POPC   C1Q45220   0.352   6.977   3.916
  870POPC   C1R45221   0.446   6.924   4.025
  870POPC    CE45222  16.609   7.515   2.213
  870POPC    OG45223  16.506   7.564   2.301
  870POPC   C2A45224  16.499   7.695   2.320
  870POPC    OH45225  16.564   7.775   2.253
  870POPC   C2B45226  16.402   7.733   2.426
  870POPC   C2C45227  16.466   7.728   2.565
  870POPC   C2D45228  16.360   7.755   2.673
  870POPC   C2E45229  16.416   7.738   2.814
  870POPC   C2F45230  16.303   7.751   2.916
  870POPC   C2G45231  16.349   7.722   3.059
  870POPC   C2H45232  16.227   7.717   3.152
  870POPC   C2I45233  16.259   7.669   3.293
  870POPC   C2J45234  16.336   7.773   3.375
  870POPC   C2K45235  16.354   7.726   3.520
  870POPC   C2L45236  16.424   7.831   3.605
  870POPC   C2M45237  16.437   7.784   3.750
  870POPC   C2N45238  16.506   7.888   3.839
  870POPC   C2O45239  16.656   7.905   3.811
  870POPC   C2P45240  16.737   7.786   3.862
  871POPC   CN145241  16.625   8.148   1.933
  871POPC   CN245242  16.696   7.931   2.001
  871POPC   CN345243  16.469   7.998   2.033
  871POPC   NTM45244  16.585   8.007   1.943
  871POPC    CA45245  16.553   7.961   1.805
  871POPC    CB45246  16.511   7.814   1.779
  871POPC    OA45247  16.388   7.773   1.838
  871POPC     P45248  16.385   7.616   1.847
  871POPC    OB45249  16.392   7.572   1.707
  871POPC    OC45250  16.491   7.585   1.943
  871POPC    OD45251  16.240   7.605   1.904
  871POPC    CC45252  16.236   7.628   2.045
  871POPC    CD45253  16.096   7.661   2.099
  871POPC    OE45254  16.102   7.710   2.236
  871POPC   C1A45255  16.005   7.788   2.283
  871POPC    OF45256  15.949   7.867   2.207
  871POPC   C1B45257  16.010   7.803   2.430
  871POPC   C1C45258  15.939   7.687   2.501
  871POPC   C1D45259  15.950   7.702   2.653
  871POPC   C1E45260  15.894   7.576   2.721
  871POPC   C1F45261  15.906   7.580   2.873
  871POPC   C1G45262  15.810   7.679   2.938
  871POPC   C1H45263  15.820   7.668   3.090
  871POPC   C1I45264  15.717   7.759   3.159
  871POPC   C1J45265  15.735   7.795   3.285
  871POPC   C1K45266  15.859   7.750   3.363
  871POPC   C1L45267  15.820   7.703   3.504
  871POPC   C1M45268  15.944   7.669   3.588
  871POPC   C1N45269  15.907   7.595   3.717
  871POPC   C1O45270  15.821   7.679   3.813
  871POPC   C1P45271  15.771   7.596   3.932
  871POPC   C1Q45272  15.885   7.551   4.024
  871POPC   C1R45273  15.832   7.461   4.136
  871POPC    CE45274  16.011   7.534   2.075
  871POPC    OG45275  15.870   7.552   2.094
  871POPC   C2A45276  15.792   7.445   2.075
  871POPC    OH45277  15.822   7.360   1.990
  871POPC   C2B45278  15.656   7.461   2.131
  871POPC   C2C45279  15.651   7.458   2.284
  871POPC   C2D45280  15.690   7.322   2.344
  871POPC   C2E45281  15.684   7.330   2.496
  871POPC   C2F45282  15.737   7.202   2.562
  871POPC   C2G45283  15.732   7.212   2.715
  871POPC   C2H45284  15.588   7.213   2.767
  871POPC   C2I45285  15.576   7.245   2.917
  871POPC   C2J45286  15.642   7.141   3.008
  871POPC   C2K45287  15.612   7.169   3.155
  871POPC   C2L45288  15.671   7.303   3.203
  871POPC   C2M45289  15.620   7.343   3.342
  871POPC   C2N45290  15.673   7.256   3.457
  871POPC   C2O45291  15.823   7.278   3.479
  871POPC   C2P45292  15.869   7.204   3.605
  872POPC   CN145293  15.906   8.242   1.986
  872POPC   CN245294  16.111   8.296   1.874
  872POPC   CN345295  15.919   8.239   1.749
  872POPC   NTM45296  15.965   8.309   1.869
  872POPC    CA45297  15.922   8.451   1.862
  872POPC    CB45298  15.949   8.548   1.980
  872POPC    OA45299  16.085   8.568   2.019
  872POPC     P45300  16.090   8.670   2.139
  872POPC    OB45301  16.068   8.801   2.075
  872POPC    OC45302  16.001   8.618   2.243
  872POPC    OD45303  16.242   8.650   2.165
  872POPC    CC45304  16.267   8.541   2.254
  872POPC    CD45305  16.416   8.505   2.257
  872POPC    OE45306  16.441   8.369   2.302
  872POPC   C1A45307  16.563   8.317   2.284
  872POPC    OF45308  16.625   8.349   2.182
  872POPC   C1B45309  16.587   8.196   2.366
  872POPC   C1C45310  16.736   8.170   2.387
  872POPC   C1D45311  16.762   8.066   2.496
  872POPC   C1E45312  16.726   8.122   2.634
  872POPC   C1F45313  16.758   8.023   2.745
  872POPC   C1G45314  16.726   8.086   2.881
  872POPC   C1H45315  16.764   7.992   2.996
  872POPC   C1I45316  16.731   8.058   3.130
  872POPC   C1J45317  16.711   7.985   3.239
  872POPC   C1K45318  16.722   7.833   3.234
  872POPC   C1L45319  16.758   7.780   3.373
  872POPC   C1M45320  16.762   7.627   3.376
  872POPC   C1N45321  16.784   7.578   3.519
  872POPC   C1O45322  16.780   7.425   3.527
  872POPC   C1P45323  16.793   7.375   3.671
  872POPC   C1Q45324  16.670   7.409   3.755
  872POPC   C1R45325  16.684   7.356   3.898
  872POPC    CE45326  16.488   8.620   2.331
  872POPC    OG45327  16.459   8.637   2.471
  872POPC   C2A45328  16.549   8.588   2.555
  872POPC    OH45329  16.642   8.516   2.518
  872POPC   C2B45330  16.519   8.620   2.696
  872POPC   C2C45331  16.460   8.501   2.772
  872POPC   C2D45332  16.424   8.537   2.916
  872POPC   C2E45333  16.545   8.581   2.999
  872POPC   C2F45334  16.510   8.591   3.148
  872POPC   C2G45335  16.627   8.643   3.233
  872POPC   C2H45336  16.753   8.555   3.226
  872POPC   C2I45337  16.735   8.417   3.290
  872POPC   C2J45338  16.747   8.419   3.442
  872POPC   C2K45339  16.725   8.277   3.496
  872POPC   C2L45340  16.758   8.260   3.644
  872POPC   C2M45341  16.672   8.346   3.738
  872POPC   C2N45342  16.691   8.307   3.885
  872POPC   C2O45343  16.835   8.321   3.933
  872POPC   C2P45344  16.849   8.278   4.080
  873POPC   CN145345   0.470   9.106   2.410
  873POPC   CN245346   0.650   8.965   2.478
  873POPC   CN345347   0.433   8.926   2.563
  873POPC   NTM45348   0.508   8.968   2.444
  873POPC    CA45349   0.487   8.874   2.331
  873POPC    CB45350   0.344   8.838   2.284
  873POPC    OA45351   0.262   8.950   2.254
  873POPC     P45352   0.115   8.910   2.217
  873POPC    OB45353   0.057   9.036   2.169
  873POPC    OC45354   0.126   8.795   2.126
  873POPC    OD45355   0.059   8.870   2.358
  873POPC    CC45356   0.034   8.983   2.441
  873POPC    CD45357  16.953   8.953   2.578
  873POPC    OE45358   0.058   8.889   2.674
  873POPC   C1A45359   0.129   8.965   2.757
  873POPC    OF45360   0.145   9.085   2.733
  873POPC   C1B45361   0.212   8.887   2.852
  873POPC   C1C45362   0.180   8.915   2.999
  873POPC   C1D45363   0.295   8.866   3.086
  873POPC   C1E45364   0.260   8.869   3.235
  873POPC   C1F45365   0.384   8.848   3.322
  873POPC   C1G45366   0.343   8.831   3.469
  873POPC   C1H45367   0.459   8.844   3.569
  873POPC   C1I45368   0.568   8.737   3.555
  873POPC   C1J45369   0.614   8.675   3.664
  873POPC   C1K45370   0.553   8.707   3.801
  873POPC   C1L45371   0.651   8.681   3.916
  873POPC   C1M45372   0.574   8.683   4.048
  873POPC   C1N45373   0.662   8.662   4.171
  873POPC   C1O45374   0.744   8.787   4.206
  873POPC   C1P45375   0.817   8.766   4.339
  873POPC   C1Q45376   0.887   8.895   4.382
  873POPC   C1R45377   0.961   8.875   4.515
  873POPC    CE45378  16.820   8.879   2.548
  873POPC    OG45379  16.725   8.882   2.657
  873POPC   C2A45380  16.647   8.989   2.668
  873POPC    OH45381  16.643   9.076   2.581
  873POPC   C2B45382  16.571   8.991   2.796
  873POPC   C2C45383  16.430   9.049   2.779
  873POPC   C2D45384  16.365   9.086   2.912
  873POPC   C2E45385  16.338   8.967   3.004
  873POPC   C2F45386  16.269   9.014   3.132
  873POPC   C2G45387  16.226   8.896   3.219
  873POPC   C2H45388  16.154   8.945   3.346
  873POPC   C2I45389  16.096   8.829   3.428
  873POPC   C2J45390  16.202   8.740   3.493
  873POPC   C2K45391  16.268   8.807   3.614
  873POPC   C2L45392  16.377   8.716   3.672
  873POPC   C2M45393  16.441   8.775   3.798
  873POPC   C2N45394  16.351   8.769   3.922
  873POPC   C2O45395  16.332   8.626   3.972
  873POPC   C2P45396  16.242   8.623   4.096
  874POPC   CN145397   0.008   9.824   1.909
  874POPC   CN245398   0.199   9.966   1.897
  874POPC   CN345399  16.976  10.055   1.972
  874POPC   NTM45400   0.078   9.935   1.975
  874POPC    CA45401   0.121   9.898   2.112
  874POPC    CB45402   0.016   9.854   2.218
  874POPC    OA45403  16.903   9.953   2.253
  874POPC     P45404  16.788   9.894   2.343
  874POPC    OB45405  16.701  10.010   2.366
  874POPC    OC45406  16.738   9.776   2.272
  874POPC    OD45407  16.872   9.859   2.470
  874POPC    CC45408  16.815   9.907   2.592
  874POPC    CD45409  16.912   9.899   2.711
  874POPC    OE45410  16.846   9.913   2.840
  874POPC   C1A45411  16.799   9.804   2.900
  874POPC    OF45412  16.796   9.696   2.841
  874POPC   C1B45413  16.738   9.830   3.033
  874POPC   C1C45414  16.841   9.831   3.146
  874POPC   C1D45415  16.771   9.849   3.281
  874POPC   C1E45416  16.871   9.871   3.395
  874POPC   C1F45417  16.798   9.891   3.528
  874POPC   C1G45418  16.896   9.936   3.637
  874POPC   C1H45419  16.831   9.953   3.775
  874POPC   C1I45420  16.797   9.819   3.841
  874POPC   C1J45421  16.807   9.804   3.973
  874POPC   C1K45422  16.852   9.922   4.060
  874POPC   C1L45423  16.939   9.879   4.179
  874POPC   C1M45424  16.864   9.799   4.285
  874POPC   C1N45425  16.957   9.765   4.402
  874POPC   C1O45426  16.886   9.684   4.510
  874POPC   C1P45427  16.983   9.650   4.623
  874POPC   C1Q45428  16.918   9.567   4.735
  874POPC   C1R45429  16.814   9.646   4.815
  874POPC    CE45430   0.040  10.002   2.681
  874POPC    OG45431   0.142  10.014   2.781
  874POPC   C2A45432   0.232  10.111   2.768
  874POPC    OH45433   0.242  10.173   2.662
  874POPC   C2B45434   0.322  10.128   2.885
  874POPC   C2C45435   0.248  10.121   3.020
  874POPC   C2D45436   0.346  10.111   3.137
  874POPC   C2E45437   0.269  10.087   3.267
  874POPC   C2F45438   0.365  10.058   3.383
  874POPC   C2G45439   0.286  10.017   3.508
  874POPC   C2H45440   0.379   9.970   3.619
  874POPC   C2I45441   0.299   9.918   3.738
  874POPC   C2J45442   0.390   9.857   3.844
  874POPC   C2K45443   0.307   9.801   3.960
  874POPC   C2L45444   0.396   9.730   4.062
  874POPC   C2M45445   0.312   9.670   4.174
  874POPC   C2N45446   0.401   9.593   4.273
  874POPC   C2O45447   0.316   9.531   4.384
  874POPC   C2P45448   0.403   9.453   4.482
  875POPC   CN145449   0.057  11.122   2.189
  875POPC   CN245450  16.903  11.295   2.103
  875POPC   CN345451  16.905  11.254   2.337
  875POPC   NTM45452   0.005  11.257   2.216
  875POPC    CA45453   0.114  11.357   2.230
  875POPC    CB45454   0.213  11.351   2.349
  875POPC    OA45455   0.286  11.229   2.361
  875POPC     P45456   0.392  11.239   2.478
  875POPC    OB45457   0.491  11.329   2.416
  875POPC    OC45458   0.317  11.280   2.596
  875POPC    OD45459   0.422  11.084   2.477
  875POPC    CC45460   0.314  11.009   2.534
  875POPC    CD45461   0.317  10.860   2.496
  875POPC    OE45462   0.188  10.792   2.504
  875POPC   C1A45463   0.179  10.667   2.458
  875POPC    OF45464   0.265  10.622   2.382
  875POPC   C1B45465   0.049  10.602   2.488
  875POPC   C1C45466   0.062  10.478   2.578
  875POPC   C1D45467   0.103  10.504   2.723
  875POPC   C1E45468   0.004  10.596   2.797
  875POPC   C1F45469   0.004  10.577   2.949
  875POPC   C1G45470   0.138  10.604   3.017
  875POPC   C1H45471   0.128  10.581   3.168
  875POPC   C1I45472   0.263  10.606   3.235
  875POPC   C1J45473   0.295  10.555   3.354
  875POPC   C1K45474   0.196  10.471   3.435
  875POPC   C1L45475   0.233  10.477   3.584
  875POPC   C1M45476   0.142  10.388   3.668
  875POPC   C1N45477   0.185  10.384   3.816
  875POPC   C1O45478   0.322  10.319   3.834
  875POPC   C1P45479   0.364  10.306   3.981
  875POPC   C1Q45480   0.278  10.206   4.058
  875POPC   C1R45481   0.329  10.189   4.202
  875POPC    CE45482   0.434  10.798   2.575
  875POPC    OG45483   0.422  10.789   2.718
  875POPC   C2A45484   0.514  10.714   2.777
  875POPC    OH45485   0.599  10.652   2.713
  875POPC   C2B45486   0.497  10.702   2.924
  875POPC   C2C45487   0.601  10.783   3.000
  875POPC   C2D45488   0.591  10.755   3.150
  875POPC   C2E45489   0.690  10.842   3.227
  875POPC   C2F45490   0.693  10.812   3.378
  875POPC   C2G45491   0.561  10.846   3.448
  875POPC   C2H45492   0.573  10.838   3.601
  875POPC   C2I45493   0.611  10.698   3.651
  875POPC   C2J45494   0.617  10.694   3.804
  875POPC   C2K45495   0.478  10.706   3.867
  875POPC   C2L45496   0.480  10.712   4.020
  875POPC   C2M45497   0.540  10.842   4.072
  875POPC   C2N45498   0.535  10.845   4.225
  875POPC   C2O45499   0.595  10.975   4.280
  875POPC   C2P45500   0.591  10.975   4.432
  876POPC   CN145501  16.658  11.777   2.991
  876POPC   CN245502  16.762  11.987   2.951
  876POPC   CN345503  16.871  11.786   2.884
  876POPC   NTM45504  16.741  11.852   2.897
  876POPC    CA45505  16.669  11.868   2.768
  876POPC    CB45506  16.679  11.760   2.658
  876POPC    OA45507  16.660  11.624   2.697
  876POPC     P45508  16.700  11.525   2.581
  876POPC    OB45509  16.617  11.404   2.589
  876POPC    OC45510  16.712  11.597   2.453
  876POPC    OD45511  16.848  11.491   2.622
  876POPC    CC45512  16.852  11.397   2.729
  876POPC    CD45513  16.983  11.317   2.737
  876POPC    OE45514  16.968  11.189   2.804
  876POPC   C1A45515  16.907  11.087   2.744
  876POPC    OF45516  16.877  11.093   2.624
  876POPC   C1B45517  16.885  10.972   2.833
  876POPC   C1C45518  16.760  10.996   2.918
  876POPC   C1D45519  16.748  10.895   3.032
  876POPC   C1E45520  16.646  10.946   3.133
  876POPC   C1F45521  16.648  10.863   3.261
  876POPC   C1G45522  16.575  10.939   3.371
  876POPC   C1H45523  16.589  10.867   3.505
  876POPC   C1I45524  16.537  10.955   3.619
  876POPC   C1J45525  16.592  10.943   3.740
  876POPC   C1K45526  16.702  10.839   3.761
  876POPC   C1L45527  16.702  10.792   3.907
  876POPC   C1M45528  16.793  10.671   3.926
  876POPC   C1N45529  16.781  10.621   4.070
  876POPC   C1O45530  16.853  10.488   4.089
  876POPC   C1P45531  16.829  10.434   4.230
  876POPC   C1Q45532  16.892  10.296   4.247
  876POPC   C1R45533  16.868  10.244   4.388
  876POPC    CE45534   0.107  11.410   2.796
  876POPC    OG45535   0.079  11.459   2.929
  876POPC   C2A45536   0.182  11.511   2.995
  876POPC    OH45537   0.287  11.543   2.938
  876POPC   C2B45538   0.150  11.541   3.136
  876POPC   C2C45539   0.212  11.442   3.235
  876POPC   C2D45540   0.364  11.457   3.247
  876POPC   C2E45541   0.425  11.360   3.348
  876POPC   C2F45542   0.387  11.393   3.492
  876POPC   C2G45543   0.448  11.291   3.588
  876POPC   C2H45544   0.420  11.325   3.734
  876POPC   C2I45545   0.483  11.219   3.824
  876POPC   C2J45546   0.475  11.250   3.974
  876POPC   C2K45547   0.553  11.376   4.012
  876POPC   C2L45548   0.582  11.384   4.162
  876POPC   C2M45549   0.457  11.389   4.250
  876POPC   C2N45550   0.497  11.393   4.398
  876POPC   C2O45551   0.373  11.389   4.488
  876POPC   C2P45552   0.415  11.391   4.636
  877POPC   CN145553   0.053  12.504   2.384
  877POPC   CN245554   0.182  12.398   2.216
  877POPC   CN345555   0.113  12.276   2.406
  877POPC   NTM45556   0.072  12.379   2.311
  877POPC    CA45557  16.934  12.340   2.234
  877POPC    CB45558  16.796  12.319   2.303
  877POPC    OA45559  16.793  12.223   2.408
  877POPC     P45560  16.647  12.175   2.442
  877POPC    OB45561  16.576  12.152   2.314
  877POPC    OC45562  16.673  12.063   2.533
  877POPC    OD45563  16.594  12.301   2.518
  877POPC    CC45564  16.635  12.300   2.656
  877POPC    CD45565  16.595  12.426   2.734
  877POPC    OE45566  16.645  12.431   2.871
  877POPC   C1A45567  16.771  12.465   2.898
  877POPC    OF45568  16.860  12.457   2.812
  877POPC   C1B45569  16.789  12.506   3.038
  877POPC   C1C45570  16.787  12.390   3.138
  877POPC   C1D45571  16.783  12.449   3.279
  877POPC   C1E45572  16.793  12.342   3.388
  877POPC   C1F45573  16.791  12.409   3.526
  877POPC   C1G45574  16.816  12.307   3.636
  877POPC   C1H45575  16.817  12.371   3.775
  877POPC   C1I45576  16.857  12.267   3.879
  877POPC   C1J45577  16.815  12.271   4.004
  877POPC   C1K45578  16.723  12.383   4.054
  877POPC   C1L45579  16.638  12.333   4.171
  877POPC   C1M45580  16.560  12.446   4.238
  877POPC   C1N45581  16.655  12.546   4.306
  877POPC   C1O45582  16.580  12.662   4.371
  877POPC   C1P45583  16.680  12.756   4.437
  877POPC   C1Q45584  16.610  12.874   4.504
  877POPC   C1R45585  16.714  12.965   4.570
  877POPC    CE45586  16.442  12.435   2.726
  877POPC    OG45587  16.388  12.557   2.779
  877POPC   C2A45588  16.256  12.573   2.778
  877POPC    OH45589  16.182  12.497   2.714
  877POPC   C2B45590  16.211  12.693   2.851
  877POPC   C2C45591  16.161  12.659   2.992
  877POPC   C2D45592  16.121  12.786   3.067
  877POPC   C2E45593  16.057  12.751   3.202
  877POPC   C2F45594  16.022  12.877   3.281
  877POPC   C2G45595  15.951  12.839   3.411
  877POPC   C2H45596  15.913  12.961   3.495
  877POPC   C2I45597  15.839  12.916   3.621
  877POPC   C2J45598  15.804  13.032   3.714
  877POPC   C2K45599  15.738  12.980   3.841
  877POPC   C2L45600  15.705  13.092   3.939
  877POPC   C2M45601  15.643  13.034   4.067
  877POPC   C2N45602  15.610  13.140   4.172
  877POPC   C2O45603  15.494  13.230   4.130
  877POPC   C2P45604  15.464  13.335   4.237
  878POPC   CN145605   0.797  13.508   2.484
  878POPC   CN245606   0.638  13.608   2.339
  878POPC   CN345607   0.646  13.370   2.362
  878POPC   NTM45608   0.659  13.498   2.433
  878POPC    CA45609   0.568  13.503   2.550
  878POPC    CB45610   0.416  13.525   2.531
  878POPC    OA45611   0.345  13.440   2.440
  878POPC     P45612   0.197  13.491   2.423
  878POPC    OB45613   0.193  13.638   2.426
  878POPC    OC45614   0.132  13.415   2.315
  878POPC    OD45615   0.140  13.438   2.559
  878POPC    CC45616   0.018  13.505   2.590
  878POPC    CD45617  16.955  13.490   2.736
  878POPC    OE45618  16.822  13.539   2.767
  878POPC   C1A45619  16.714  13.475   2.721
  878POPC    OF45620  16.723  13.394   2.629
  878POPC   C1B45621  16.587  13.522   2.780
  878POPC   C1C45622  16.535  13.421   2.883
  878POPC   C1D45623  16.395  13.460   2.930
  878POPC   C1E45624  16.331  13.353   3.019
  878POPC   C1F45625  16.394  13.346   3.157
  878POPC   C1G45626  16.330  13.234   3.239
  878POPC   C1H45627  16.390  13.231   3.380
  878POPC   C1I45628  16.337  13.115   3.463
  878POPC   C1J45629  16.318  13.131   3.593
  878POPC   C1K45630  16.343  13.269   3.656
  878POPC   C1L45631  16.211  13.338   3.695
  878POPC   C1M45632  16.157  13.293   3.831
  878POPC   C1N45633  16.237  13.352   3.947
  878POPC   C1O45634  16.224  13.505   3.952
  878POPC   C1P45635  16.306  13.565   4.066
  878POPC   C1Q45636  16.291  13.717   4.068
  878POPC   C1R45637  16.374  13.778   4.181
  878POPC    CE45638   0.081  13.558   2.821
  878POPC    OG45639   0.191  13.473   2.856
  878POPC   C2A45640   0.298  13.530   2.911
  878POPC    OH45641   0.317  13.651   2.900
  878POPC   C2B45642   0.391  13.432   2.969
  878POPC   C2C45643   0.537  13.478   2.980
  878POPC   C2D45644   0.618  13.382   3.067
  878POPC   C2E45645   0.574  13.390   3.213
  878POPC   C2F45646   0.630  13.275   3.297
  878POPC   C2G45647   0.578  13.286   3.440
  878POPC   C2H45648   0.608  13.160   3.521
  878POPC   C2I45649   0.551  13.172   3.662
  878POPC   C2J45650   0.566  13.042   3.740
  878POPC   C2K45651   0.513  13.053   3.884
  878POPC   C2L45652   0.599  13.147   3.969
  878POPC   C2M45653   0.550  13.161   4.113
  878POPC   C2N45654   0.564  13.031   4.193
  878POPC   C2O45655   0.516  13.053   4.337
  878POPC   C2P45656   0.520  12.922   4.416
  879POPC   CN145657   0.104  13.827   2.136
  879POPC   CN245658   0.048  13.831   1.903
  879POPC   CN345659  16.863  13.867   2.067
  879POPC   NTM45660   0.020  13.893   2.034
  879POPC    CA45661   0.040  14.040   2.032
  879POPC    CB45662   0.176  14.102   1.989
  879POPC    OA45663   0.292  14.057   2.060
  879POPC     P45664   0.394  14.175   2.081
  879POPC    OB45665   0.518  14.117   2.133
  879POPC    OC45666   0.395  14.257   1.959
  879POPC    OD45667   0.317  14.254   2.193
  879POPC    CC45668   0.350  14.214   2.325
  879POPC    CD45669   0.259  14.283   2.428
  879POPC    OE45670   0.313  14.284   2.563
  879POPC   C1A45671   0.373  14.395   2.605
  879POPC    OF45672   0.356  14.501   2.544
  879POPC   C1B45673   0.435  14.377   2.739
  879POPC   C1C45674   0.553  14.471   2.766
  879POPC   C1D45675   0.643  14.414   2.877
  879POPC   C1E45676   0.573  14.407   3.013
  879POPC   C1F45677   0.652  14.320   3.112
  879POPC   C1G45678   0.643  14.170   3.077
  879POPC   C1H45679   0.508  14.110   3.116
  879POPC   C1I45680   0.492  13.968   3.061
  879POPC   C1J45681   0.440  13.871   3.135
  879POPC   C1K45682   0.399  13.897   3.280
  879POPC   C1L45683   0.420  13.772   3.366
  879POPC   C1M45684   0.397  13.805   3.514
  879POPC   C1N45685   0.427  13.685   3.603
  879POPC   C1O45686   0.418  13.726   3.750
  879POPC   C1P45687   0.454  13.611   3.844
  879POPC   C1Q45688   0.451  13.659   3.989
  879POPC   C1R45689   0.491  13.546   4.085
  879POPC    CE45690   0.118  14.224   2.409
  879POPC    OG45691   0.103  14.088   2.451
  879POPC   C2A45692  16.968  14.031   2.435
  879POPC    OH45693  16.890  14.071   2.347
  879POPC   C2B45694  16.950  13.907   2.514
  879POPC   C2C45695  16.882  13.935   2.649
  879POPC   C2D45696  16.735  13.972   2.631
  879POPC   C2E45697  16.675  14.042   2.754
  879POPC   C2F45698  16.660  13.951   2.876
  879POPC   C2G45699  16.612  14.030   2.997
  879POPC   C2H45700  16.470  14.085   2.979
  879POPC   C2I45701  16.434  14.190   3.085
  879POPC   C2J45702  16.421  14.133   3.226
  879POPC   C2K45703  16.390  14.246   3.325
  879POPC   C2L45704  16.367  14.196   3.468
  879POPC   C2M45705  16.493  14.136   3.530
  879POPC   C2N45706  16.465  14.087   3.672
  879POPC   C2O45707  16.589  14.022   3.732
  879POPC   C2P45708  16.562  13.969   3.873
  880POPC   CN145709   0.355  14.796   2.040
  880POPC   CN245710   0.470  14.684   2.213
  880POPC   CN345711   0.241  14.730   2.240
  880POPC   NTM45712   0.343  14.691   2.141
  880POPC    CA45713   0.316  14.558   2.080
  880POPC    CB45714   0.185  14.529   2.002
  880POPC    OA45715   0.066  14.542   2.079
  880POPC     P45716  16.922  14.503   1.997
  880POPC    OB45717  16.912  14.605   1.891
  880POPC    OC45718  16.923  14.358   1.973
  880POPC    OD45719  16.810  14.541   2.101
  880POPC    CC45720  16.815  14.467   2.224
  880POPC    CD45721  16.839  14.553   2.350
  880POPC    OE45722  16.831  14.476   2.474
  880POPC   C1A45723  16.887  14.530   2.582
  880POPC    OF45724  16.959  14.629   2.572
  880POPC   C1B45725  16.860  14.459   2.709
  880POPC   C1C45726  16.965  14.353   2.742
  880POPC   C1D45727  16.963  14.318   2.891
  880POPC   C1E45728   0.071  14.200   2.922
  880POPC   C1F45729   0.109  14.190   3.070
  880POPC   C1G45730  16.973  14.181   3.166
  880POPC   C1H45731   0.039  14.162   3.310
  880POPC   C1I45732  16.906  14.169   3.409
  880POPC   C1J45733  16.908  14.100   3.522
  880POPC   C1K45734   0.041  14.005   3.555
  880POPC   C1L45735   0.007  13.911   3.671
  880POPC   C1M45736   0.015  13.979   3.809
  880POPC   C1N45737   0.160  14.007   3.849
  880POPC   C1O45738   0.173  14.075   3.986
  880POPC   C1P45739   0.124  14.220   3.984
  880POPC   C1Q45740   0.136  14.289   4.120
  880POPC   C1R45741   0.041  14.230   4.224
  880POPC    CE45742  16.740  14.672   2.342
  880POPC    OG45743  16.601  14.636   2.337
  880POPC   C2A45744  16.514  14.735   2.329
  880POPC    OH45745  16.551  14.851   2.305
  880POPC   C2B45746  16.373  14.690   2.331
  880POPC   C2C45747  16.277  14.792   2.393
  880POPC   C2D45748  16.299  14.810   2.543
  880POPC   C2E45749  16.196  14.904   2.604
  880POPC   C2F45750  16.227  14.926   2.752
  880POPC   C2G45751  16.127  15.021   2.817
  880POPC   C2H45752  16.173  15.056   2.958
  880POPC   C2I45753  16.079  15.158   3.025
  880POPC   C2J45754  15.950  15.094   3.075
  880POPC   C2K45755  15.973  15.012   3.202
  880POPC   C2L45756  15.845  14.942   3.246
  880POPC   C2M45757  15.871  14.856   3.369
  880POPC   C2N45758  15.751  14.767   3.400
  880POPC   C2O45759  15.782  14.674   3.517
  880POPC   C2P45760  15.667  14.575   3.537
  881CLR     C145761   0.880  16.585   5.788
  881CLR     C245762   0.917  16.516   5.920
  881CLR     C345763   0.792  16.488   6.005
  881CLR     O145764   0.825  16.419   6.126
  881CLR    HO145765   0.877  16.482   6.190
  881CLR     C445766   0.691  16.403   5.927
  881CLR     C545767   0.664  16.457   5.785
  881CLR     C645768   0.537  16.462   5.745
  881CLR     C745769   0.498  16.526   5.611
  881CLR     C845770   0.613  16.533   5.510
  881CLR     C945771   0.736  16.596   5.580
  881CLR    C1045772   0.783  16.505   5.698
  881CLR    C1945773   0.856  16.381   5.644
  881CLR    C1145774   0.847  16.626   5.476
  881CLR    C1445775   0.569  16.614   5.386
  881CLR    C1245776   0.796  16.705   5.354
  881CLR    C1345777   0.680  16.635   5.281
  881CLR    C1845778   0.731  16.505   5.214
  881CLR    C1545779   0.453  16.558   5.302
  881CLR    C1645780   0.461  16.648   5.179
  881CLR    C1745781   0.596  16.722   5.183
  881CLR    C2045782   0.661  16.742   5.044
  881CLR    C2145783   0.751  16.866   5.047
  881CLR    C2245784   0.560  16.760   4.930
  881CLR    C2345785   0.624  16.740   4.792
  881CLR    C2445786   0.519  16.746   4.681
  881CLR    C2545787   0.578  16.720   4.541
  881CLR    C2645788   0.470  16.742   4.435
  881CLR    C2745789   0.631  16.577   4.529
  882CLR     C145790   5.310  16.583   5.401
  882CLR     C245791   5.297  16.507   5.535
  882CLR     C345792   5.240  16.601   5.642
  882CLR     O145793   5.234  16.536   5.770
  882CLR    HO145794   5.180  16.447   5.758
  882CLR     C445795   5.101  16.651   5.602
  882CLR     C545796   5.100  16.710   5.460
  882CLR     C645797   5.037  16.827   5.443
  882CLR     C745798   5.051  16.908   5.313
  882CLR     C845799   5.095  16.825   5.191
  882CLR     C945800   5.215  16.737   5.231
  882CLR    C1045801   5.178  16.640   5.346
  882CLR    C1945802   5.091  16.524   5.294
  882CLR    C1145803   5.274  16.667   5.107
  882CLR    C1445804   5.132  16.920   5.075
  882CLR    C1245805   5.307  16.765   4.993
  882CLR    C1345806   5.185  16.849   4.949
  882CLR    C1845807   5.081  16.757   4.880
  882CLR    C1545808   5.024   0.028   5.018
  882CLR    C1645809   5.102   0.089   4.901
  882CLR    C1745810   5.217  16.976   4.866
  882CLR    C2045811   5.232  16.951   4.714
  882CLR    C2145812   5.373  16.903   4.679
  882CLR    C2245813   5.204   0.093   4.628
  882CLR    C2345814   5.165   0.057   4.484
  882CLR    C2445815   5.031  16.965   4.479
  882CLR    C2545816   4.989  16.924   4.338
  882CLR    C2645817   4.848  16.863   4.342
  882CLR    C2745818   5.086  16.822   4.277
  883CLR     C145819   8.602  15.366   5.439
  883CLR     C245820   8.693  15.346   5.561
  883CLR     C345821   8.685  15.468   5.654
  883CLR     O145822   8.774  15.455   5.766
  883CLR    HO145823   8.728  15.499   5.848
  883CLR     C445824   8.541  15.491   5.701
  883CLR     C545825   8.440  15.492   5.585
  883CLR     C645826   8.348  15.589   5.584
  883CLR     C745827   8.255  15.610   5.463
  883CLR     C845828   8.241  15.488   5.370
  883CLR     C945829   8.382  15.432   5.341
  883CLR    C1045830   8.453  15.387   5.472
  883CLR    C1945831   8.392  15.255   5.524
  883CLR    C1145832   8.373  15.320   5.234
  883CLR    C1445833   8.171  15.530   5.239
  883CLR    C1245834   8.300  15.367   5.107
  883CLR    C1345835   8.157  15.418   5.134
  883CLR    C1845836   8.066  15.300   5.177
  883CLR    C1545837   8.028  15.584   5.247
  883CLR    C1645838   8.003  15.602   5.097
  883CLR    C1745839   8.095  15.505   5.021
  883CLR    C2045840   8.018  15.431   4.908
  883CLR    C2145841   8.111  15.349   4.818
  883CLR    C2245842   7.940  15.529   4.819
  883CLR    C2345843   7.839  15.459   4.727
  883CLR    C2445844   7.762  15.562   4.643
  883CLR    C2545845   7.656  15.498   4.553
  883CLR    C2645846   7.599  15.603   4.457
  883CLR    C2745847   7.541  15.439   4.635
  884CLR     C145848  11.492  16.109   5.438
  884CLR     C245849  11.520  16.121   5.589
  884CLR     C345850  11.641  16.035   5.629
  884CLR     O145851  11.665  16.042   5.770
  884CLR    HO145852  11.690  16.140   5.793
  884CLR     C445853  11.766  16.079   5.552
  884CLR     C545854  11.742  16.089   5.401
  884CLR     C645855  11.835  16.037   5.321
  884CLR     C745856  11.812  16.023   5.170
  884CLR     C845857  11.703  16.116   5.114
  884CLR     C945858  11.578  16.106   5.203
  884CLR    C1045859  11.610  16.153   5.348
  884CLR    C1945860  11.624  16.306   5.354
  884CLR    C1145861  11.458  16.180   5.138
  884CLR    C1445862  11.672  16.076   4.968
  884CLR    C1245863  11.433  16.137   4.992
  884CLR    C1345864  11.557  16.155   4.902
  884CLR    C1845865  11.588  16.307   4.888
  884CLR    C1545866  11.782  16.086   4.863
  884CLR    C1645867  11.700  16.035   4.745
  884CLR    C1745868  11.554  16.081   4.766
  884CLR    C2045869  11.499  16.164   4.647
  884CLR    C2145870  11.346  16.158   4.643
  884CLR    C2245871  11.551  16.117   4.510
  884CLR    C2345872  11.550  16.231   4.409
  884CLR    C2445873  11.638  16.195   4.289
  884CLR    C2545874  11.658  16.315   4.196
  884CLR    C2645875  11.534  16.346   4.112
  884CLR    C2745876  11.780  16.291   4.106
  885CLR     C145877  16.360  15.851   5.753
  885CLR     C245878  16.375  15.865   5.905
  885CLR     C345879  16.297  15.986   5.956
  885CLR     O145880  16.316  16.006   6.097
  885CLR    HO145881  16.255  15.941   6.149
  885CLR     C445882  16.147  15.971   5.924
  885CLR     C545883  16.123  15.936   5.776
  885CLR     C645884  16.023  15.999   5.714
  885CLR     C745885  16.001  15.986   5.562
  885CLR     C845886  16.068  15.863   5.498
  885CLR     C945887  16.213  15.852   5.550
  885CLR    C1045888  16.215  15.833   5.704
  885CLR    C1945889  16.167  15.691   5.741
  885CLR    C1145890  16.289  15.742   5.472
  885CLR    C1445891  16.063  15.876   5.345
  885CLR    C1245892  16.279  15.759   5.320
  885CLR    C1345893  16.133  15.762   5.268
  885CLR    C1845894  16.069  15.623   5.287
  885CLR    C1545895  15.925  15.880   5.278
  885CLR    C1645896  15.966  15.871   5.131
  885CLR    C1745897  16.111  15.819   5.126
  885CLR    C2045898  16.130  15.722   5.006
  885CLR    C2145899  16.276  15.681   4.986
  885CLR    C2245900  16.081  15.785   4.875
  885CLR    C2345901  16.067  15.683   4.761
  885CLR    C2445902  16.029  15.749   4.628
  885CLR    C2545903  16.139  15.838   4.568
  885CLR    C2645904  16.087  15.912   4.445
  885CLR    C2745905  16.263  15.756   4.530
  886CLR     C145906   2.516   0.217   5.768
  886CLR     C245907   2.517   0.224   5.922
  886CLR     C345908   2.508   0.084   5.985
  886CLR     O145909   2.516   0.094   6.128
  886CLR    HO145910   2.423   0.117   6.167
  886CLR     C445911   2.621  16.977   5.934
  886CLR     C545912   2.642  16.983   5.782
  886CLR     C645913   2.666  16.868   5.718
  886CLR     C745914   2.670  16.861   5.565
  886CLR     C845915   2.697   0.011   5.494
  886CLR     C945916   2.604   0.118   5.555
  886CLR    C1045917   2.632   0.136   5.707
  886CLR    C1945918   2.764   0.212   5.730
  886CLR    C1145919   2.615   0.250   5.474
  886CLR    C1445920   2.674  16.979   5.343
  886CLR    C1245921   2.594   0.228   5.323
  886CLR    C1345922   2.691   0.126   5.261
  886CLR    C1845923   2.835   0.182   5.261
  886CLR    C1545924   2.762  16.880   5.266
  886CLR    C1645925   2.721  16.914   5.122
  886CLR    C1745926   2.650   0.067   5.123
  886CLR    C2045927   2.685   0.147   4.995
  886CLR    C2145928   2.615   0.283   4.987
  886CLR    C2245929   2.648   0.066   4.869
  886CLR    C2345930   2.691   0.129   4.735
  886CLR    C2445931   2.842   0.122   4.709
  886CLR    C2545932   2.880   0.181   4.573
  886CLR    C2645933   2.826   0.099   4.456
  886CLR    C2745934   3.032   0.195   4.561
  887CLR     C145935   5.949  16.470   5.305
  887CLR     C245936   5.904  16.445   5.450
  887CLR     C345937   5.833  16.569   5.505
  887CLR     O145938   5.803  16.553   5.643
  887CLR    HO145939   5.890  16.550   5.697
  887CLR     C445940   5.707  16.599   5.422
  887CLR     C545941   5.737  16.604   5.271
  887CLR     C645942   5.683  16.705   5.201
  887CLR     C745943   5.725  16.734   5.056
  887CLR     C845944   5.792  16.617   4.982
  887CLR     C945945   5.898  16.554   5.076
  887CLR    C1045946   5.834  16.501   5.207
  887CLR    C1945947   5.755  16.371   5.181
  887CLR    C1145948   5.980  16.448   5.000
  887CLR    C1445949   5.859  16.668   4.853
  887CLR    C1245950   6.044  16.505   4.873
  887CLR    C1345951   5.942  16.564   4.774
  887CLR    C1845952   5.858  16.449   4.712
  887CLR    C1545953   5.771  16.730   4.744
  887CLR    C1645954   5.874  16.748   4.633
  887CLR    C1745955   5.998  16.663   4.668
  887CLR    C2045956   6.062  16.603   4.541
  887CLR    C2145957   6.192  16.526   4.570
  887CLR    C2245958   6.095  16.712   4.437
  887CLR    C2345959   6.136  16.655   4.301
  887CLR    C2445960   6.187  16.765   4.208
  887CLR    C2545961   6.232  16.709   4.072
  887CLR    C2645962   6.309  16.817   3.995
  887CLR    C2745963   6.112  16.663   3.988
  888CLR     C145964   9.419  16.669   5.371
  888CLR     C245965   9.367  16.650   5.514
  888CLR     C345966   9.283  16.771   5.558
  888CLR     O145967   9.236  16.753   5.692
  888CLR    HO145968   9.181  16.837   5.718
  888CLR     C445969   9.165  16.794   5.463
  888CLR     C545970   9.207  16.793   5.315
  888CLR     C645971   9.156  16.886   5.233
  888CLR     C745972   9.202  16.899   5.087
  888CLR     C845973   9.266  16.771   5.030
  888CLR     C945974   9.374  16.723   5.129
  888CLR    C1045975   9.308  16.685   5.265
  888CLR    C1945976   9.232  16.552   5.252
  888CLR    C1145977   9.457  16.607   5.069
  888CLR    C1445978   9.324  16.796   4.889
  888CLR    C1245979   9.507  16.637   4.926
  888CLR    C1345980   9.394  16.673   4.828
  888CLR    C1845981   9.302  16.551   4.806
  888CLR    C1545982   9.227  16.838   4.778
  888CLR    C1645983   9.317  16.824   4.655
  888CLR    C1745984   9.439  16.738   4.694
  888CLR    C2045985   9.478  16.639   4.582
  888CLR    C2145986   9.617  16.577   4.607
  888CLR    C2245987   9.481  16.703   4.442
  888CLR    C2345988   9.492  16.597   4.331
  888CLR    C2445989   9.495  16.660   4.192
  888CLR    C2545990   9.511  16.555   4.082
  888CLR    C2645991   9.533  16.624   3.947
  888CLR    C2745992   9.389  16.464   4.072
  889CLR     C145993  12.603  16.264   5.233
  889CLR     C245994  12.637  16.314   5.375
  889CLR     C345995  12.613  16.204   5.480
  889CLR     O145996  12.647  16.250   5.611
  889CLR    HO145997  12.691  16.174   5.664
  889CLR     C445998  12.693  16.077   5.446
  889CLR     C545999  12.679  16.034   5.299
  889CLR     C646000  12.660  15.904   5.274
  889CLR     C746001  12.632  15.853   5.132
  889CLR     C846002  12.678  15.949   5.022
  889CLR     C946003  12.624  16.090   5.053
  889CLR    C1046004  12.684  16.141   5.187
  889CLR    C1946005  12.831  16.182   5.167
  889CLR    C1146006  12.648  16.185   4.933
  889CLR    C1446007  12.631  15.897   4.884
  889CLR    C1246008  12.601  16.126   4.798
  889CLR    C1346009  12.666  15.990   4.765
  889CLR    C1846010  12.817  16.009   4.741
  889CLR    C1546011  12.686  15.762   4.837
  889CLR    C1646012  12.629  15.761   4.695
  889CLR    C1746013  12.598  15.906   4.654
  889CLR    C2046014  12.643  15.934   4.508
  889CLR    C2146015  12.586  16.066   4.455
  889CLR    C2246016  12.600  15.822   4.411
  889CLR    C2346017  12.668  15.823   4.274
  889CLR    C2446018  12.820  15.802   4.284
  889CLR    C2546019  12.887  15.775   4.148
  889CLR    C2646020  13.037  15.752   4.166
  889CLR    C2746021  12.865  15.889   4.048
  890CLR     C146022  15.976   0.834   5.296
  890CLR     C246023  15.977   0.827   5.449
  890CLR     C346024  16.112   0.772   5.499
  890CLR     O146025  16.107   0.756   5.641
  890CLR    HO146026  16.024   0.696   5.664
  890CLR     C446027  16.226   0.865   5.455
  890CLR     C546028  16.220   0.900   5.305
  890CLR     C646029  16.335   0.901   5.236
  890CLR     C746030  16.338   0.914   5.082
  890CLR     C846031  16.209   0.970   5.019
  890CLR     C946032  16.088   0.900   5.084
  890CLR    C1046033  16.084   0.927   5.237
  890CLR    C1946034  16.044   1.074   5.265
  890CLR    C1146035  15.957   0.939   5.011
  890CLR    C1446036  16.211   0.946   4.866
  890CLR    C1246037  15.965   0.910   4.861
  890CLR    C1346038  16.081   0.985   4.791
  890CLR    C1846039  16.049   1.136   4.789
  890CLR    C1546040  16.320   1.013   4.783
  890CLR    C1646041  16.268   0.989   4.641
  890CLR    C1746042  16.126   0.930   4.653
  890CLR    C2046043  16.037   0.967   4.531
  890CLR    C2146044  15.907   0.885   4.528
  890CLR    C2246045  16.110   0.944   4.398
  890CLR    C2346046  16.033   0.997   4.276
  890CLR    C2446047  16.115   0.978   4.148
  890CLR    C2546048  16.041   1.025   4.022
  890CLR    C2646049  16.124   0.991   3.898
  890CLR    C2746050  16.012   1.175   4.025
  891CLR     C146051   1.791   1.004   5.752
  891CLR     C246052   1.793   1.029   5.904
  891CLR     C346053   1.710   0.923   5.977
  891CLR     O146054   1.708   0.950   6.118
  891CLR    HO146055   1.782   0.895   6.164
  891CLR     C446056   1.765   0.782   5.949
  891CLR     C546057   1.787   0.756   5.799
  891CLR     C646058   1.747   0.639   5.750
  891CLR     C746059   1.747   0.610   5.599
  891CLR     C846060   1.840   0.700   5.517
  891CLR     C946061   1.815   0.847   5.558
  891CLR    C1046062   1.848   0.867   5.709
  891CLR    C1946063   2.001   0.866   5.731
  891CLR    C1146064   1.891   0.943   5.464
  891CLR    C1446065   1.813   0.679   5.366
  891CLR    C1246066   1.863   0.916   5.315
  891CLR    C1346067   1.895   0.771   5.272
  891CLR    C1846068   2.048   0.748   5.279
  891CLR    C1546069   1.839   0.541   5.307
  891CLR    C1646070   1.814   0.572   5.160
  891CLR    C1746071   1.833   0.723   5.138
  891CLR    C2046072   1.914   0.752   5.009
  891CLR    C2146073   1.910   0.901   4.972
  891CLR    C2246074   1.864   0.672   4.888
  891CLR    C2346075   1.959   0.678   4.769
  891CLR    C2446076   1.909   0.592   4.652
  891CLR    C2546077   2.005   0.598   4.532
  891CLR    C2646078   2.006   0.735   4.464
  891CLR    C2746079   1.970   0.489   4.431
  892CLR     C146080   5.770   0.928   5.585
  892CLR     C246081   5.767   0.897   5.736
  892CLR     C346082   5.887   0.963   5.804
  892CLR     O146083   5.896   0.923   5.941
  892CLR    HO146084   5.996   0.925   5.971
  892CLR     C446085   5.879   1.115   5.790
  892CLR     C546086   5.857   1.159   5.644
  892CLR     C646087   5.929   1.263   5.600
  892CLR     C746088   5.935   1.300   5.451
  892CLR     C846089   5.824   1.242   5.363
  892CLR     C946090   5.802   1.094   5.402
  892CLR    C1046091   5.762   1.078   5.551
  892CLR    C1946092   5.619   1.128   5.575
  892CLR    C1146093   5.702   1.028   5.304
  892CLR    C1446094   5.865   1.254   5.215
  892CLR    C1246095   5.747   1.044   5.157
  892CLR    C1346096   5.765   1.191   5.114
  892CLR    C1846097   5.628   1.261   5.109
  892CLR    C1546098   5.888   1.393   5.157
  892CLR    C1646099   5.907   1.356   5.010
  892CLR    C1746100   5.851   1.215   4.987
  892CLR    C2046101   5.782   1.207   4.849
  892CLR    C2146102   5.717   1.072   4.819
  892CLR    C2246103   5.882   1.238   4.736
  892CLR    C2346104   5.817   1.251   4.598
  892CLR    C2446105   5.924   1.261   4.488
  892CLR    C2546106   5.863   1.270   4.348
  892CLR    C2646107   5.790   1.142   4.307
  892CLR    C2746108   5.973   1.304   4.246
  893CLR     C146109   9.497   1.282   5.259
  893CLR     C246110   9.538   1.234   5.400
  893CLR     C346111   9.567   1.083   5.397
  893CLR     O146112   9.592   1.032   5.528
  893CLR    HO146113   9.685   1.068   5.559
  893CLR     C446114   9.684   1.053   5.302
  893CLR     C546115   9.661   1.114   5.163
  893CLR     C646116   9.685   1.036   5.057
  893CLR     C746117   9.644   1.078   4.915
  893CLR     C846118   9.624   1.229   4.897
  893CLR     C946119   9.535   1.281   5.012
  893CLR    C1046120   9.604   1.258   5.150
  893CLR    C1946121   9.720   1.358   5.170
  893CLR    C1146122   9.494   1.428   4.988
  893CLR    C1446123   9.559   1.257   4.759
  893CLR    C1246124   9.432   1.449   4.848
  893CLR    C1346125   9.525   1.405   4.733
  893CLR    C1846126   9.647   1.499   4.727
  893CLR    C1546127   9.638   1.217   4.634
  893CLR    C1646128   9.558   1.289   4.525
  893CLR    C1746129   9.459   1.385   4.594
  893CLR    C2046130   9.435   1.514   4.512
  893CLR    C2146131   9.312   1.591   4.563
  893CLR    C2246132   9.413   1.486   4.362
  893CLR    C2346133   9.412   1.615   4.279
  893CLR    C2446134   9.395   1.585   4.129
  893CLR    C2546135   9.387   1.712   4.044
  893CLR    C2646136   9.358   1.676   3.898
  893CLR    C2746137   9.517   1.794   4.051
  894CLR     C146138  13.236   0.306   5.362
  894CLR     C246139  13.199   0.286   5.510
  894CLR     C346140  13.060   0.222   5.521
  894CLR     O146141  13.013   0.218   5.657
  894CLR    HO146142  12.919   0.261   5.658
  894CLR     C446143  13.060   0.083   5.456
  894CLR     C546144  13.113   0.090   5.312
  894CLR     C646145  13.044   0.025   5.218
  894CLR     C746146  13.075   0.041   5.068
  894CLR     C846147  13.216   0.096   5.037
  894CLR     C946148  13.244   0.217   5.128
  894CLR    C1046149  13.238   0.176   5.278
  894CLR    C1946150  13.363   0.094   5.315
  894CLR    C1146151  13.375   0.286   5.086
  894CLR    C1446152  13.221   0.139   4.889
  894CLR    C1246153  13.376   0.325   4.937
  894CLR    C1346154  13.352   0.206   4.842
  894CLR    C1846155  13.475   0.112   4.845
  894CLR    C1546156  13.200   0.033   4.781
  894CLR    C1646157  13.210   0.128   4.662
  894CLR    C1746158  13.305   0.243   4.699
  894CLR    C2046159  13.410   0.262   4.587
  894CLR    C2146160  13.505   0.380   4.613
  894CLR    C2246161  13.339   0.287   4.453
  894CLR    C2346162  13.424   0.250   4.330
  894CLR    C2446163  13.340   0.271   4.204
  894CLR    C2546164  13.407   0.218   4.077
  894CLR    C2646165  13.328   0.263   3.954
  894CLR    C2746166  13.415   0.065   4.078
  895CLR     C146167  16.502   2.303   5.367
  895CLR     C246168  16.441   2.333   5.505
  895CLR     C346169  16.509   2.248   5.613
  895CLR     O146170  16.450   2.275   5.741
  895CLR    HO146171  16.403   2.189   5.773
  895CLR     C446172  16.660   2.276   5.617
  895CLR     C546173  16.727   2.273   5.478
  895CLR     C646174  16.847   2.215   5.467
  895CLR     C746175  16.914   2.195   5.330
  895CLR     C846176  16.859   2.285   5.217
  895CLR     C946177  16.705   2.279   5.221
  895CLR    C1046178  16.653   2.335   5.356
  895CLR    C1946179  16.674   2.487   5.362
  895CLR    C1146180  16.644   2.349   5.098
  895CLR    C1446181  16.914   2.238   5.081
  895CLR    C1246182  16.703   2.296   4.966
  895CLR    C1346183  16.856   2.311   4.958
  895CLR    C1846184  16.892   2.462   4.949
  895CLR    C1546185   0.082   2.247   5.058
  895CLR    C1646186   0.091   2.224   4.907
  895CLR    C1746187  16.930   2.226   4.852
  895CLR    C2046188  16.917   2.278   4.707
  895CLR    C2146189  16.794   2.215   4.641
  895CLR    C2246190   0.055   2.245   4.617
  895CLR    C2346191   0.053   2.328   4.488
  895CLR    C2446192   0.171   2.292   4.397
  895CLR    C2546193   0.171   2.376   4.269
  895CLR    C2646194   0.052   2.346   4.178
  895CLR    C2746195   0.302   2.355   4.193
  896CLR     C146196   3.750   1.528   5.952
  896CLR     C246197   3.731   1.535   6.104
  896CLR     C346198   3.590   1.492   6.144
  896CLR     O146199   3.572   1.498   6.286
  896CLR    HO146200   3.605   1.587   6.325
  896CLR     C446201   3.563   1.349   6.097
  896CLR     C546202   3.599   1.326   5.949
  896CLR     C646203   3.511   1.258   5.875
  896CLR     C746204   3.523   1.249   5.722
  896CLR     C846205   3.663   1.281   5.665
  896CLR     C946206   3.718   1.407   5.736
  896CLR    C1046207   3.728   1.389   5.890
  896CLR    C1946208   3.847   1.298   5.927
  896CLR    C1146209   3.850   1.450   5.669
  896CLR    C1446210   3.649   1.307   5.514
  896CLR    C1246211   3.832   1.475   5.518
  896CLR    C1346212   3.778   1.352   5.441
  896CLR    C1846213   3.889   1.244   5.431
  896CLR    C1546214   3.598   1.193   5.425
  896CLR    C1646215   3.618   1.258   5.288
  896CLR    C1746216   3.706   1.382   5.307
  896CLR    C2046217   3.790   1.405   5.178
  896CLR    C2146218   3.903   1.508   5.185
  896CLR    C2246219   3.700   1.437   5.058
  896CLR    C2346220   3.619   1.568   5.069
  896CLR    C2446221   3.516   1.582   4.957
  896CLR    C2546222   3.577   1.612   4.819
  896CLR    C2646223   3.623   1.758   4.809
  896CLR    C2746224   3.476   1.580   4.709
  897CLR     C146225   6.845   1.888   5.466
  897CLR     C246226   6.819   1.887   5.618
  897CLR     C346227   6.678   1.836   5.648
  897CLR     O146228   6.650   1.843   5.789
  897CLR    HO146229   6.658   1.940   5.821
  897CLR     C446230   6.660   1.693   5.596
  897CLR     C546231   6.701   1.682   5.448
  897CLR     C646232   6.616   1.619   5.366
  897CLR     C746233   6.638   1.620   5.214
  897CLR     C846234   6.783   1.647   5.171
  897CLR     C946235   6.833   1.773   5.245
  897CLR    C1046236   6.831   1.750   5.398
  897CLR    C1946237   6.950   1.661   5.441
  897CLR    C1146238   6.971   1.816   5.189
  897CLR    C1446239   6.789   1.667   5.018
  897CLR    C1246240   6.974   1.828   5.035
  897CLR    C1346241   6.929   1.699   4.963
  897CLR    C1846242   7.032   1.586   4.991
  897CLR    C1546243   6.744   1.554   4.925
  897CLR    C1646244   6.767   1.631   4.795
  897CLR    C1746245   6.895   1.715   4.813
  897CLR    C2046246   7.005   1.675   4.711
  897CLR    C2146247   7.117   1.780   4.706
  897CLR    C2246248   6.950   1.658   4.568
  897CLR    C2346249   7.045   1.581   4.475
  897CLR    C2446250   7.061   1.434   4.517
  897CLR    C2546251   7.155   1.356   4.423
  897CLR    C2646252   7.156   1.208   4.461
  897CLR    C2746253   7.297   1.412   4.428
  898CLR     C146254  10.231   1.508   4.920
  898CLR     C246255  10.242   1.489   5.073
  898CLR     C346256  10.264   1.624   5.143
  898CLR     O146257  10.278   1.605   5.284
  898CLR    HO146258  10.377   1.618   5.309
  898CLR     C446259  10.148   1.720   5.113
  898CLR     C546260  10.119   1.730   4.962
  898CLR     C646261  10.104   1.852   4.909
  898CLR     C746262  10.094   1.874   4.758
  898CLR     C846263  10.050   1.749   4.679
  898CLR     C946264  10.135   1.629   4.724
  898CLR    C1046265  10.116   1.601   4.876
  898CLR    C1946266   9.982   1.530   4.902
  898CLR    C1146267  10.106   1.506   4.634
  898CLR    C1446268  10.064   1.775   4.527
  898CLR    C1246269  10.118   1.538   4.484
  898CLR    C1346270  10.027   1.654   4.438
  898CLR    C1846271   9.879   1.611   4.449
  898CLR    C1546272   9.983   1.888   4.464
  898CLR    C1646273  10.016   1.864   4.317
  898CLR    C1746274  10.061   1.717   4.301
  898CLR    C2046275   9.996   1.649   4.178
  898CLR    C2146276  10.067   1.519   4.142
  898CLR    C2246277   9.997   1.737   4.051
  898CLR    C2346278   9.889   1.691   3.952
  898CLR    C2446279   9.893   1.768   3.819
  898CLR    C2546280  10.007   1.723   3.727
  898CLR    C2646281  10.018   1.817   3.607
  898CLR    C2746282   9.984   1.580   3.676
  899CLR     C146283  14.222   0.889   5.202
  899CLR     C246284  14.182   0.949   5.338
  899CLR     C346285  14.281   1.059   5.380
  899CLR     O146286  14.251   1.114   5.508
  899CLR    HO146287  14.149   1.102   5.527
  899CLR     C446288  14.285   1.171   5.274
  899CLR     C546289  14.305   1.116   5.132
  899CLR     C646290  14.395   1.178   5.054
  899CLR     C746291  14.435   1.121   4.918
  899CLR     C846292  14.333   1.024   4.857
  899CLR     C946293  14.294   0.920   4.964
  899CLR    C1046294  14.227   0.990   5.086
  899CLR    C1946295  14.083   1.034   5.051
  899CLR    C1146296  14.209   0.808   4.901
  899CLR    C1446297  14.394   0.957   4.731
  899CLR    C1246298  14.276   0.745   4.777
  899CLR    C1346299  14.307   0.848   4.666
  899CLR    C1846300  14.175   0.898   4.603
  899CLR    C1546301  14.432   1.048   4.613
  899CLR    C1646302  14.463   0.942   4.507
  899CLR    C1746303  14.412   0.806   4.559
  899CLR    C2046304  14.364   0.716   4.443
  899CLR    C2146305  14.339   0.572   4.489
  899CLR    C2246306  14.466   0.711   4.328
  899CLR    C2346307  14.415   0.638   4.202
  899CLR    C2446308  14.517   0.640   4.088
  899CLR    C2546309  14.534   0.778   4.023
  899CLR    C2646310  14.410   0.818   3.941
  899CLR    C2746311  14.659   0.781   3.935
  900CLR     C146312   0.414   2.298   5.369
  900CLR     C246313   0.397   2.363   5.507
  900CLR     C346314   0.494   2.302   5.609
  900CLR     O146315   0.473   2.360   5.738
  900CLR    HO146316   0.455   2.461   5.728
  900CLR     C446317   0.639   2.322   5.563
  900CLR     C546318   0.659   2.272   5.419
  900CLR     C646319   0.761   2.188   5.396
  900CLR     C746320   0.774   2.113   5.263
  900CLR     C846321   0.703   2.180   5.145
  900CLR     C946322   0.559   2.215   5.187
  900CLR    C1046323   0.556   2.310   5.310
  900CLR    C1946324   0.582   2.456   5.268
  900CLR    C1146325   0.480   2.269   5.065
  900CLR    C1446326   0.700   2.082   5.025
  900CLR    C1246327   0.484   2.173   4.945
  900CLR    C1346328   0.628   2.138   4.900
  900CLR    C1846329   0.696   2.262   4.840
  900CLR    C1546330   0.831   2.033   4.966
  900CLR    C1646331   0.774   1.951   4.850
  900CLR    C1746332   0.639   2.012   4.810
  900CLR    C2046333   0.629   2.037   4.657
  900CLR    C2146334   0.485   2.063   4.613
  900CLR    C2246335   0.682   1.918   4.574
  900CLR    C2346336   0.717   1.961   4.432
  900CLR    C2446337   0.779   1.844   4.354
  900CLR    C2546338   0.828   1.887   4.216
  900CLR    C2646339   0.713   1.924   4.121
  900CLR    C2746340   0.915   1.777   4.154
  901CLR     C146341   3.177   1.448   5.870
  901CLR     C246342   3.143   1.449   6.020
  901CLR     C346343   3.124   1.593   6.070
  901CLR     O146344   3.094   1.593   6.210
  901CLR    HO146345   3.082   1.692   6.240
  901CLR     C446346   3.011   1.664   5.992
  901CLR     C546347   3.025   1.647   5.840
  901CLR     C646348   3.002   1.754   5.763
  901CLR     C746349   3.026   1.750   5.611
  901CLR     C846350   3.029   1.609   5.550
  901CLR     C946351   3.123   1.521   5.637
  901CLR    C1046352   3.067   1.510   5.781
  901CLR    C1946353   2.943   1.419   5.783
  901CLR    C1146354   3.146   1.384   5.570
  901CLR    C1446355   3.074   1.613   5.403
  901CLR    C1246356   3.187   1.395   5.422
  901CLR    C1346357   3.085   1.474   5.337
  901CLR    C1846358   2.951   1.397   5.330
  901CLR    C1546359   2.987   1.690   5.303
  901CLR    C1646360   3.046   1.642   5.170
  901CLR    C1746361   3.134   1.519   5.197
  901CLR    C2046362   3.124   1.411   5.086
  901CLR    C2146363   3.241   1.312   5.095
  901CLR    C2246364   3.122   1.469   4.944
  901CLR    C2346365   3.090   1.362   4.838
  901CLR    C2446366   3.090   1.420   4.696
  901CLR    C2546367   3.071   1.314   4.586
  901CLR    C2646368   2.939   1.238   4.598
  901CLR    C2746369   3.189   1.217   4.580
  902CLR     C146370   7.157   2.702   5.536
  902CLR     C246371   7.208   2.709   5.681
  902CLR     C346372   7.322   2.609   5.704
  902CLR     O146373   7.366   2.613   5.840
  902CLR    HO146374   7.397   2.710   5.861
  902CLR     C446375   7.439   2.639   5.609
  902CLR     C546376   7.394   2.654   5.463
  902CLR     C646377   7.465   2.591   5.369
  902CLR     C746378   7.418   2.583   5.223
  902CLR     C846379   7.315   2.690   5.183
  902CLR     C946380   7.205   2.695   5.291
  902CLR    C1046381   7.264   2.733   5.430
  902CLR    C1946382   7.298   2.884   5.435
  902CLR    C1146383   7.089   2.787   5.246
  902CLR    C1446384   7.256   2.657   5.044
  902CLR    C1246385   7.036   2.750   5.106
  902CLR    C1346386   7.145   2.753   4.997
  902CLR    C1846387   7.191   2.898   4.973
  902CLR    C1546388   7.349   2.654   4.923
  902CLR    C1646389   7.245   2.629   4.814
  902CLR    C1746390   7.108   2.679   4.865
  902CLR    C2046391   7.034   2.762   4.756
  902CLR    C2146392   6.891   2.798   4.797
  902CLR    C2246393   7.027   2.687   4.622
  902CLR    C2346394   6.981   2.774   4.504
  902CLR    C2446395   7.087   2.876   4.457
  902CLR    C2546396   7.200   2.813   4.375
  902CLR    C2646397   7.315   2.912   4.360
  902CLR    C2746398   7.150   2.771   4.236
  903CLR     C146399  11.251   1.549   4.901
  903CLR     C246400  11.331   1.654   4.981
  903CLR     C346401  11.387   1.594   5.110
  903CLR     O146402  11.459   1.690   5.187
  903CLR    HO146403  11.500   1.643   5.269
  903CLR     C446404  11.477   1.474   5.079
  903CLR     C546405  11.412   1.373   4.983
  903CLR     C646406  11.424   1.244   5.012
  903CLR     C746407  11.349   1.136   4.932
  903CLR     C846408  11.306   1.181   4.792
  903CLR     C946409  11.235   1.318   4.803
  903CLR    C1046410  11.332   1.425   4.859
  903CLR    C1946411  11.434   1.466   4.752
  903CLR    C1146412  11.172   1.356   4.666
  903CLR    C1446413  11.214   1.074   4.729
  903CLR    C1246414  11.084   1.244   4.607
  903CLR    C1346415  11.158   1.110   4.590
  903CLR    C1846416  11.266   1.123   4.480
  903CLR    C1546417  11.271   0.934   4.706
  903CLR    C1646418  11.148   0.872   4.640
  903CLR    C1746419  11.067   0.985   4.572
  903CLR    C2046420  11.027   0.943   4.429
  903CLR    C2146421  10.936   1.045   4.360
  903CLR    C2246422  10.953   0.808   4.429
  903CLR    C2346423  10.948   0.740   4.292
  903CLR    C2446424  10.861   0.613   4.293
  903CLR    C2546425  10.919   0.499   4.376
  903CLR    C2646426  11.042   0.435   4.310
  903CLR    C2746427  10.812   0.393   4.402
  904CLR     C146428  14.438   2.346   5.147
  904CLR     C246429  14.375   2.368   5.286
  904CLR     C346430  14.442   2.485   5.358
  904CLR     O146431  14.380   2.505   5.485
  904CLR    HO146432  14.279   2.517   5.468
  904CLR     C446433  14.430   2.614   5.275
  904CLR     C546434  14.473   2.595   5.129
  904CLR     C646435  14.553   2.688   5.075
  904CLR     C746436  14.617   2.668   4.937
  904CLR     C846437  14.545   2.565   4.848
  904CLR     C946438  14.519   2.437   4.930
  904CLR    C1046439  14.429   2.467   5.053
  904CLR    C1946440  14.282   2.488   5.010
  904CLR    C1146441  14.462   2.325   4.840
  904CLR    C1446442  14.629   2.534   4.722
  904CLR    C1246443  14.546   2.302   4.713
  904CLR    C1346444  14.564   2.430   4.628
  904CLR    C1846445  14.427   2.475   4.571
  904CLR    C1546446  14.662   2.648   4.626
  904CLR    C1646447  14.722   2.570   4.509
  904CLR    C1746448  14.674   2.424   4.520
  904CLR    C2046449  14.627   2.366   4.384
  904CLR    C2146450  14.618   2.213   4.390
  904CLR    C2246451  14.717   2.401   4.265
  904CLR    C2346452  14.644   2.375   4.133
  904CLR    C2446453  14.731   2.402   4.010
  904CLR    C2546454  14.653   2.376   3.880
  904CLR    C2646455  14.618   2.228   3.862
  904CLR    C2746456  14.733   2.426   3.760
  905CLR     C146457   0.486   3.368   4.932
  905CLR     C246458   0.462   3.344   5.082
  905CLR     C346459   0.315   3.375   5.116
  905CLR     O146460   0.293   3.367   5.257
  905CLR    HO146461   0.229   3.289   5.279
  905CLR     C446462   0.222   3.281   5.038
  905CLR     C546463   0.252   3.282   4.887
  905CLR     C646464   0.149   3.289   4.802
  905CLR     C746465   0.169   3.310   4.651
  905CLR     C846466   0.310   3.274   4.600
  905CLR     C946467   0.414   3.338   4.694
  905CLR    C1046468   0.400   3.281   4.838
  905CLR    C1946469   0.450   3.136   4.844
  905CLR    C1146470   0.557   3.323   4.637
  905CLR    C1446471   0.328   3.323   4.455
  905CLR    C1246472   0.567   3.371   4.491
  905CLR    C1346473   0.469   3.299   4.396
  905CLR    C1846474   0.507   3.149   4.385
  905CLR    C1546475   0.238   3.265   4.345
  905CLR    C1646476   0.301   3.336   4.225
  905CLR    C1746477   0.448   3.367   4.258
  905CLR    C2046478   0.541   3.323   4.142
  905CLR    C2146479   0.689   3.361   4.166
  905CLR    C2246480   0.498   3.386   4.009
  905CLR    C2346481   0.569   3.321   3.889
  905CLR    C2446482   0.537   3.395   3.759
  905CLR    C2546483   0.610   3.332   3.639
  905CLR    C2646484   0.763   3.343   3.652
  905CLR    C2746485   0.564   3.397   3.509
  906CLR     C146486   4.256   3.112   6.066
  906CLR     C246487   4.305   3.109   6.212
  906CLR     C346488   4.337   2.967   6.259
  906CLR     O146489   4.387   2.969   6.393
  906CLR    HO146490   4.354   3.055   6.439
  906CLR     C446491   4.440   2.900   6.167
  906CLR     C546492   4.406   2.917   6.018
  906CLR     C646493   4.417   2.810   5.940
  906CLR     C746494   4.373   2.813   5.793
  906CLR     C846495   4.369   2.953   5.732
  906CLR     C946496   4.288   3.044   5.826
  906CLR    C1046497   4.358   3.055   5.965
  906CLR    C1946498   4.480   3.149   5.957
  906CLR    C1146499   4.262   3.181   5.759
  906CLR    C1446500   4.308   2.947   5.590
  906CLR    C1246501   4.205   3.169   5.616
  906CLR    C1346502   4.293   3.085   5.522
  906CLR    C1846503   4.428   3.158   5.497
  906CLR    C1546504   4.380   2.865   5.483
  906CLR    C1646505   4.295   2.902   5.362
  906CLR    C1746506   4.226   3.037   5.391
  906CLR    C2046507   4.234   3.133   5.269
  906CLR    C2146508   4.142   3.254   5.287
  906CLR    C2246509   4.197   3.064   5.137
  906CLR    C2346510   4.222   3.152   5.014
  906CLR    C2446511   4.181   3.080   4.885
  906CLR    C2546512   4.191   3.165   4.758
  906CLR    C2646513   4.333   3.215   4.731
  906CLR    C2746514   4.092   3.282   4.760
  907CLR     C146515   8.215   2.838   5.743
  907CLR     C246516   8.229   2.846   5.896
  907CLR     C346517   8.097   2.893   5.960
  907CLR     O146518   8.113   2.904   6.102
  907CLR    HO146519   8.187   2.973   6.121
  907CLR     C446520   7.983   2.797   5.925
  907CLR     C546521   7.975   2.763   5.775
  907CLR     C646522   7.854   2.759   5.718
  907CLR     C746523   7.837   2.745   5.566
  907CLR     C846524   7.959   2.693   5.489
  907CLR     C946525   8.086   2.764   5.542
  907CLR    C1046526   8.106   2.740   5.694
  907CLR    C1946527   8.152   2.595   5.720
  907CLR    C1146528   8.208   2.725   5.456
  907CLR    C1446529   7.941   2.722   5.339
  907CLR    C1246530   8.185   2.757   5.307
  907CLR    C1346531   8.061   2.688   5.247
  907CLR    C1846532   8.089   2.537   5.230
  907CLR    C1546533   7.822   2.659   5.266
  907CLR    C1646534   7.855   2.699   5.122
  907CLR    C1746535   7.999   2.754   5.122
  907CLR    C2046536   8.063   2.731   4.982
  907CLR    C2146537   8.209   2.775   4.971
  907CLR    C2246538   7.982   2.806   4.876
  907CLR    C2346539   8.015   2.767   4.731
  907CLR    C2446540   7.932   2.852   4.634
  907CLR    C2546541   7.947   2.807   4.489
  907CLR    C2646542   8.088   2.827   4.434
  907CLR    C2746543   7.845   2.882   4.401
  908CLR     C146544  12.644   2.367   5.120
  908CLR     C246545  12.637   2.351   5.273
  908CLR     C346546  12.550   2.463   5.334
  908CLR     O146547  12.543   2.453   5.476
  908CLR    HO146548  12.453   2.494   5.506
  908CLR     C446549  12.409   2.458   5.276
  908CLR     C546550  12.407   2.454   5.123
  908CLR     C646551  12.322   2.536   5.061
  908CLR     C746552  12.327   2.558   4.909
  908CLR     C846553  12.398   2.446   4.831
  908CLR     C946554  12.531   2.411   4.901
  908CLR    C1046555  12.508   2.363   5.047
  908CLR    C1946556  12.453   2.219   5.050
  908CLR    C1146557  12.611   2.311   4.815
  908CLR    C1446558  12.427   2.496   4.688
  908CLR    C1246559  12.631   2.359   4.670
  908CLR    C1346560  12.499   2.394   4.598
  908CLR    C1846561  12.416   2.265   4.575
  908CLR    C1546562  12.311   2.540   4.598
  908CLR    C1646563  12.398   2.581   4.480
  908CLR    C1746564  12.516   2.482   4.471
  908CLR    C2046565  12.518   2.410   4.334
  908CLR    C2146566  12.646   2.326   4.315
  908CLR    C2246567  12.511   2.509   4.217
  908CLR    C2346568  12.454   2.448   4.088
  908CLR    C2446569  12.304   2.420   4.101
  908CLR    C2546570  12.242   2.365   3.972
  908CLR    C2646571  12.240   2.469   3.860
  908CLR    C2746572  12.101   2.313   3.999
  909CLR     C146573  15.258   3.821   4.755
  909CLR     C246574  15.302   3.808   4.902
  909CLR     C346575  15.445   3.752   4.907
  909CLR     O146576  15.483   3.716   5.040
  909CLR    HO146577  15.428   3.633   5.069
  909CLR     C446578  15.542   3.850   4.842
  909CLR     C546579  15.498   3.886   4.699
  909CLR     C646580  15.590   3.882   4.602
  909CLR     C746581  15.553   3.890   4.453
  909CLR     C846582  15.414   3.951   4.425
  909CLR     C946583  15.311   3.885   4.520
  909CLR    C1046584  15.347   3.913   4.669
  909CLR    C1946585  15.318   4.060   4.705
  909CLR    C1146586  15.168   3.929   4.482
  909CLR    C1446587  15.376   3.926   4.277
  909CLR    C1246588  15.137   3.904   4.333
  909CLR    C1346589  15.235   3.975   4.238
  909CLR    C1846590  15.216   4.128   4.247
  909CLR    C1546591  15.464   3.989   4.169
  909CLR    C1646592  15.381   3.952   4.046
  909CLR    C1746593  15.237   3.922   4.092
  909CLR    C2046594  15.134   3.984   3.993
  909CLR    C2146595  14.987   3.957   4.027
  909CLR    C2246596  15.157   3.944   3.846
  909CLR    C2346597  15.137   3.795   3.813
  909CLR    C2446598  15.156   3.772   3.663
  909CLR    C2546599  15.129   3.628   3.619
  909CLR    C2646600  15.235   3.530   3.670
  909CLR    C2746601  15.116   3.620   3.467
  910CLR     C146602   2.074   3.474   5.568
  910CLR     C246603   2.074   3.475   5.722
  910CLR     C346604   2.161   3.362   5.776
  910CLR     O146605   2.153   3.358   5.920
  910CLR    HO146606   2.246   3.379   5.961
  910CLR     C446607   2.306   3.376   5.727
  910CLR     C546608   2.316   3.401   5.575
  910CLR     C646609   2.414   3.340   5.508
  910CLR     C746610   2.422   3.345   5.354
  910CLR     C846611   2.342   3.458   5.288
  910CLR     C946612   2.202   3.464   5.353
  910CLR    C1046613   2.213   3.494   5.505
  910CLR    C1946614   2.258   3.640   5.528
  910CLR    C1146615   2.112   3.564   5.277
  910CLR    C1446616   2.332   3.435   5.135
  910CLR    C1246617   2.108   3.537   5.125
  910CLR    C1346618   2.248   3.540   5.060
  910CLR    C1846619   2.305   3.683   5.064
  910CLR    C1546620   2.462   3.431   5.054
  910CLR    C1646621   2.407   3.435   4.911
  910CLR    C1746622   2.258   3.476   4.919
  910CLR    C2046623   2.216   3.567   4.800
  910CLR    C2146624   2.063   3.575   4.787
  910CLR    C2246625   2.271   3.518   4.665
  910CLR    C2346626   2.252   3.621   4.553
  910CLR    C2446627   2.315   3.573   4.422
  910CLR    C2546628   2.295   3.673   4.308
  910CLR    C2646629   2.149   3.681   4.262
  910CLR    C2746630   2.385   3.637   4.189
  911CLR     C146631   5.069   4.324   5.683
  911CLR     C246632   5.081   4.332   5.837
  911CLR     C346633   5.225   4.366   5.877
  911CLR     O146634   5.245   4.360   6.018
  911CLR    HO146635   5.221   4.266   6.051
  911CLR     C446636   5.264   4.504   5.821
  911CLR     C546637   5.238   4.512   5.669
  911CLR     C646638   5.337   4.561   5.593
  911CLR     C746639   5.333   4.551   5.440
  911CLR     C846640   5.192   4.532   5.381
  911CLR     C946641   5.122   4.418   5.458
  911CLR    C1046642   5.107   4.454   5.609
  911CLR    C1946643   4.995   4.557   5.629
  911CLR    C1146644   4.989   4.382   5.388
  911CLR    C1446645   5.204   4.498   5.230
  911CLR    C1246646   5.006   4.351   5.238
  911CLR    C1346647   5.070   4.468   5.159
  911CLR    C1846648   4.972   4.586   5.154
  911CLR    C1546649   5.267   4.603   5.138
  911CLR    C1646650   5.241   4.538   5.003
  911CLR    C1746651   5.130   4.433   5.020
  911CLR    C2046652   5.031   4.432   4.901
  911CLR    C2146653   4.945   4.305   4.900
  911CLR    C2246654   5.102   4.441   4.765
  911CLR    C2346655   5.006   4.473   4.650
  911CLR    C2446656   5.080   4.484   4.516
  911CLR    C2546657   4.985   4.518   4.400
  911CLR    C2646658   4.889   4.403   4.368
  911CLR    C2746659   5.065   4.557   4.276
  912CLR     C146660   8.602   3.528   5.418
  912CLR     C246661   8.640   3.512   5.566
  912CLR     C346662   8.692   3.645   5.620
  912CLR     O146663   8.745   3.633   5.753
  912CLR    HO146664   8.804   3.715   5.770
  912CLR     C446665   8.580   3.751   5.614
  912CLR     C546666   8.519   3.761   5.473
  912CLR     C646667   8.500   3.884   5.424
  912CLR     C746668   8.464   3.908   5.277
  912CLR     C846669   8.409   3.786   5.201
  912CLR     C946670   8.494   3.662   5.237
  912CLR    C1046671   8.492   3.633   5.390
  912CLR    C1946672   8.356   3.576   5.432
  912CLR    C1146673   8.453   3.542   5.149
  912CLR    C1446674   8.416   3.814   5.049
  912CLR    C1246675   8.464   3.576   4.999
  912CLR    C1346676   8.377   3.696   4.957
  912CLR    C1846677   8.228   3.658   4.960
  912CLR    C1546678   8.336   3.931   4.992
  912CLR    C1646679   8.360   3.908   4.843
  912CLR    C1746680   8.421   3.768   4.826
  912CLR    C2046681   8.377   3.709   4.689
  912CLR    C2146682   8.412   3.562   4.662
  912CLR    C2246683   8.429   3.793   4.571
  912CLR    C2346684   8.582   3.799   4.558
  912CLR    C2446685   8.625   3.897   4.449
  912CLR    C2546686   8.777   3.912   4.438
  912CLR    C2646687   8.840   3.968   4.565
  912CLR    C2746688   8.812   4.002   4.319
  913CLR     C146689  12.806   3.872   5.205
  913CLR     C246690  12.794   3.936   5.344
  913CLR     C346691  12.863   4.073   5.349
  913CLR     O146692  12.846   4.132   5.478
  913CLR    HO146693  12.749   4.120   5.509
  913CLR     C446694  12.806   4.168   5.242
  913CLR     C546695  12.793   4.102   5.103
  913CLR     C646696  12.829   4.175   4.997
  913CLR     C746697  12.832   4.113   4.856
  913CLR     C846698  12.747   3.987   4.840
  913CLR     C946699  12.780   3.891   4.956
  913CLR    C1046700  12.742   3.956   5.092
  913CLR    C1946701  12.589   3.957   5.110
  913CLR    C1146702  12.713   3.753   4.933
  913CLR    C1446703  12.773   3.922   4.702
  913CLR    C1246704  12.740   3.695   4.793
  913CLR    C1346705  12.697   3.789   4.679
  913CLR    C1846706  12.542   3.804   4.680
  913CLR    C1546707  12.737   4.001   4.577
  913CLR    C1646708  12.765   3.894   4.472
  913CLR    C1746709  12.753   3.756   4.539
  913CLR    C2046710  12.669   3.656   4.455
  913CLR    C2146711  12.693   3.511   4.501
  913CLR    C2246712  12.700   3.662   4.305
  913CLR    C2346713  12.593   3.592   4.221
  913CLR    C2446714  12.617   3.614   4.071
  913CLR    C2546715  12.508   3.551   3.984
  913CLR    C2646716  12.546   3.564   3.836
  913CLR    C2746717  12.372   3.616   4.007
  914CLR     C146718  15.951   4.512   4.750
  914CLR     C246719  15.986   4.447   4.885
  914CLR     C346720  15.865   4.373   4.942
  914CLR     O146721  15.895   4.316   5.070
  914CLR    HO146722  15.812   4.269   5.107
  914CLR     C446723  15.816   4.264   4.845
  914CLR     C546724  15.801   4.316   4.701
  914CLR     C646725  15.692   4.279   4.634
  914CLR     C746726  15.657   4.339   4.497
  914CLR     C846727  15.778   4.400   4.423
  914CLR     C946728  15.855   4.492   4.520
  914CLR    C1046729  15.908   4.412   4.641
  914CLR    C1946730  16.031   4.328   4.600
  914CLR    C1146731  15.965   4.569   4.444
  914CLR    C1446732  15.729   4.478   4.299
  914CLR    C1246733  15.914   4.640   4.317
  914CLR    C1346734  15.842   4.546   4.218
  914CLR    C1846735  15.943   4.446   4.157
  914CLR    C1546736  15.653   4.403   4.189
  914CLR    C1646737  15.638   4.519   4.090
  914CLR    C1746738  15.754   4.618   4.112
  914CLR    C2046739  15.820   4.656   3.977
  914CLR    C2146740  15.931   4.762   3.993
  914CLR    C2246741  15.716   4.711   3.878
  914CLR    C2346742  15.770   4.732   3.737
  914CLR    C2446743  15.661   4.791   3.646
  914CLR    C2546744  15.711   4.818   3.504
  914CLR    C2646745  15.815   4.930   3.498
  914CLR    C2746746  15.594   4.849   3.411
  915CLR     C146747   2.822   4.178   5.852
  915CLR     C246748   2.872   4.148   5.994
  915CLR     C346749   2.755   4.104   6.082
  915CLR     O146750   2.792   4.093   6.221
  915CLR    HO146751   2.848   4.006   6.235
  915CLR     C446752   2.694   3.974   6.027
  915CLR     C546753   2.658   3.986   5.878
  915CLR     C646754   2.540   3.938   5.837
  915CLR     C746755   2.486   3.965   5.696
  915CLR     C846756   2.592   4.006   5.592
  915CLR     C946757   2.683   4.114   5.655
  915CLR    C1046758   2.756   4.059   5.781
  915CLR    C1946759   2.865   3.958   5.740
  915CLR    C1146760   2.778   4.173   5.549
  915CLR    C1446761   2.523   4.058   5.464
  915CLR    C1246762   2.703   4.223   5.424
  915CLR    C1346763   2.620   4.112   5.356
  915CLR    C1846764   2.715   4.006   5.297
  915CLR    C1546765   2.436   3.963   5.383
  915CLR    C1646766   2.401   4.056   5.267
  915CLR    C1746767   2.514   4.160   5.253
  915CLR    C2046768   2.562   4.174   5.107
  915CLR    C2146769   2.652   4.298   5.089
  915CLR    C2246770   2.446   4.188   5.006
  915CLR    C2346771   2.491   4.158   4.863
  915CLR    C2446772   2.381   4.189   4.761
  915CLR    C2546773   2.425   4.154   4.618
  915CLR    C2646774   2.330   4.217   4.517
  915CLR    C2746775   2.428   4.002   4.597
  916CLR     C146776   4.718   5.336   5.557
  916CLR     C246777   4.751   5.386   5.699
  916CLR     C346778   4.902   5.408   5.714
  916CLR     O146779   4.936   5.447   5.847
  916CLR    HO146780   4.886   5.534   5.871
  916CLR     C446781   4.952   5.513   5.613
  916CLR     C546782   4.905   5.482   5.469
  916CLR     C646783   4.995   5.494   5.371
  916CLR     C746784   4.965   5.448   5.228
  916CLR     C846785   4.815   5.436   5.195
  916CLR     C946786   4.746   5.358   5.309
  916CLR    C1046787   4.760   5.433   5.444
  916CLR    C1946788   4.667   5.556   5.447
  916CLR    C1146789   4.600   5.325   5.270
  916CLR    C1446790   4.798   5.366   5.059
  916CLR    C1246791   4.589   5.256   5.133
  916CLR    C1346792   4.651   5.339   5.018
  916CLR    C1846793   4.567   5.466   4.995
  916CLR    C1546794   4.854   5.434   4.934
  916CLR    C1646795   4.801   5.338   4.828
  916CLR    C1746796   4.681   5.261   4.887
  916CLR    C2046797   4.565   5.249   4.784
  916CLR    C2146798   4.453   5.157   4.834
  916CLR    C2246799   4.615   5.196   4.649
  916CLR    C2346800   4.506   5.196   4.540
  916CLR    C2446801   4.562   5.150   4.405
  916CLR    C2546802   4.456   5.135   4.295
  916CLR    C2646803   4.378   5.264   4.269
  916CLR    C2746804   4.361   5.020   4.325
  917CLR     C146805   9.336   4.150   4.776
  917CLR     C246806   9.376   4.115   4.920
  917CLR     C346807   9.470   4.221   4.979
  917CLR     O146808   9.506   4.186   5.113
  917CLR    HO146809   9.607   4.166   5.118
  917CLR     C446810   9.404   4.360   4.976
  917CLR     C546811   9.342   4.394   4.840
  917CLR     C646812   9.363   4.517   4.791
  917CLR     C746813   9.319   4.556   4.649
  917CLR     C846814   9.210   4.466   4.589
  917CLR     C946815   9.252   4.319   4.610
  917CLR    C1046816   9.263   4.286   4.761
  917CLR    C1946817   9.123   4.274   4.824
  917CLR    C1146818   9.158   4.224   4.532
  917CLR    C1446819   9.192   4.499   4.440
  917CLR    C1246820   9.145   4.263   4.383
  917CLR    C1346821   9.094   4.407   4.362
  917CLR    C1846822   8.946   4.417   4.407
  917CLR    C1546823   9.142   4.640   4.403
  917CLR    C1646824   9.120   4.621   4.253
  917CLR    C1746825   9.119   4.470   4.223
  917CLR    C2046826   9.019   4.438   4.109
  917CLR    C2146827   9.021   4.290   4.067
  917CLR    C2246828   9.048   4.524   3.984
  917CLR    C2346829   8.950   4.505   3.868
  917CLR    C2446830   8.980   4.605   3.756
  917CLR    C2546831   8.902   4.583   3.626
  917CLR    C2646832   8.750   4.581   3.646
  917CLR    C2746833   8.949   4.456   3.555
  918CLR     C146834  13.251   4.969   5.056
  918CLR     C246835  13.311   4.991   5.196
  918CLR     C346836  13.464   4.985   5.188
  918CLR     O146837  13.524   4.991   5.317
  918CLR    HO146838  13.604   4.925   5.319
  918CLR     C446839  13.516   5.097   5.096
  918CLR     C546840  13.447   5.096   4.959
  918CLR     C646841  13.525   5.106   4.851
  918CLR     C746842  13.472   5.078   4.709
  918CLR     C846843  13.320   5.087   4.693
  918CLR     C946844  13.252   5.013   4.811
  918CLR    C1046845  13.294   5.071   4.949
  918CLR    C1946846  13.221   5.205   4.976
  918CLR    C1146847  13.100   5.007   4.789
  918CLR    C1446848  13.279   5.020   4.560
  918CLR    C1246849  13.064   4.943   4.654
  918CLR    C1346850  13.127   5.014   4.532
  918CLR    C1846851  13.059   5.151   4.511
  918CLR    C1546852  13.334   5.077   4.429
  918CLR    C1646853  13.256   4.992   4.329
  918CLR    C1746854  13.137   4.928   4.403
  918CLR    C2046855  13.015   4.918   4.309
  918CLR    C2146856  12.887   4.867   4.376
  918CLR    C2246857  13.048   4.826   4.190
  918CLR    C2346858  12.938   4.816   4.084
  918CLR    C2446859  12.967   4.701   3.987
  918CLR    C2546860  12.854   4.681   3.885
  918CLR    C2646861  12.872   4.548   3.812
  918CLR    C2746862  12.851   4.795   3.783
  919CLR     C146863  15.095   6.054   5.239
  919CLR     C246864  15.085   5.989   5.378
  919CLR     C346865  15.084   5.836   5.364
  919CLR     O146866  15.061   5.772   5.490
  919CLR    HO146867  15.067   5.844   5.564
  919CLR     C446868  15.213   5.787   5.298
  919CLR     C546869  15.245   5.862   5.167
  919CLR     C646870  15.286   5.791   5.062
  919CLR     C746871  15.301   5.854   4.922
  919CLR     C846872  15.312   6.007   4.922
  919CLR     C946873  15.203   6.065   5.014
  919CLR    C1046874  15.222   6.016   5.160
  919CLR    C1946875  15.344   6.085   5.224
  919CLR    C1146876  15.196   6.219   5.002
  919CLR    C1446877  15.298   6.061   4.778
  919CLR    C1246878  15.182   6.265   4.856
  919CLR    C1346879  15.297   6.215   4.766
  919CLR    C1846880  15.429   6.284   4.809
  919CLR    C1546881  15.404   6.020   4.674
  919CLR    C1646882  15.368   6.115   4.559
  919CLR    C1746883  15.273   6.223   4.613
  919CLR    C2046884  15.296   6.362   4.549
  919CLR    C2146885  15.174   6.453   4.570
  919CLR    C2246886  15.323   6.355   4.398
  919CLR    C2346887  15.376   6.489   4.342
  919CLR    C2446888  15.413   6.480   4.193
  919CLR    C2546889  15.294   6.461   4.099
  919CLR    C2646890  15.343   6.432   3.957
  919CLR    C2746891  15.205   6.586   4.096
  920CLR     C146892   3.050   5.371   5.291
  920CLR     C246893   3.092   5.402   5.436
  920CLR     C346894   3.057   5.546   5.476
  920CLR     O146895   3.094   5.570   5.612
  920CLR    HO146896   3.056   5.492   5.670
  920CLR     C446897   2.908   5.574   5.457
  920CLR     C546898   2.852   5.522   5.324
  920CLR     C646899   2.766   5.602   5.259
  920CLR     C746900   2.717   5.569   5.117
  920CLR     C846901   2.730   5.421   5.079
  920CLR     C946902   2.872   5.372   5.114
  920CLR    C1046903   2.898   5.386   5.267
  920CLR    C1946904   2.823   5.275   5.343
  920CLR    C1146905   2.895   5.229   5.059
  920CLR    C1446906   2.698   5.402   4.929
  920CLR    C1246907   2.858   5.215   4.910
  920CLR    C1346908   2.713   5.256   4.879
  920CLR    C1846909   2.616   5.156   4.945
  920CLR    C1546910   2.558   5.440   4.881
  920CLR    C1646911   2.562   5.383   4.739
  920CLR    C1746912   2.679   5.283   4.731
  920CLR    C2046913   2.647   5.156   4.648
  920CLR    C2146914   2.776   5.095   4.592
  920CLR    C2246915   2.553   5.182   4.529
  920CLR    C2346916   2.494   5.052   4.475
  920CLR    C2446917   2.386   5.080   4.369
  920CLR    C2546918   2.323   4.951   4.315
  920CLR    C2646919   2.227   4.984   4.200
  920CLR    C2746920   2.246   4.875   4.424
  921CLR     C146921   6.082   4.826   5.162
  921CLR     C246922   6.130   4.907   5.284
  921CLR     C346923   6.229   4.824   5.367
  921CLR     O146924   6.267   4.893   5.486
  921CLR    HO146925   6.192   4.881   5.557
  921CLR     C446926   6.353   4.789   5.282
  921CLR     C546927   6.313   4.724   5.149
  921CLR     C646928   6.377   4.612   5.115
  921CLR     C746929   6.330   4.524   4.999
  921CLR     C846930   6.241   4.595   4.895
  921CLR     C946931   6.133   4.677   4.969
  921CLR    C1046932   6.195   4.782   5.066
  921CLR    C1946933   6.247   4.905   4.988
  921CLR    C1146934   6.033   4.737   4.868
  921CLR    C1446935   6.174   4.490   4.805
  921CLR    C1246936   5.972   4.629   4.776
  921CLR    C1346937   6.077   4.546   4.699
  921CLR    C1846938   6.145   4.634   4.591
  921CLR    C1546939   6.262   4.397   4.720
  921CLR    C1646940   6.149   4.319   4.653
  921CLR    C1746941   6.025   4.410   4.645
  921CLR    C2046942   5.964   4.403   4.503
  921CLR    C2146943   5.841   4.492   4.484
  921CLR    C2246944   5.923   4.259   4.469
  921CLR    C2346945   5.902   4.232   4.319
  921CLR    C2446946   6.035   4.211   4.246
  921CLR    C2546947   6.015   4.174   4.099
  921CLR    C2646948   6.145   4.120   4.039
  921CLR    C2746949   5.969   4.296   4.018
  922CLR     C146950  10.072   4.073   4.958
  922CLR     C246951   9.968   4.152   5.039
  922CLR     C346952   9.859   4.058   5.093
  922CLR     O146953   9.757   4.131   5.161
  922CLR    HO146954   9.800   4.174   5.246
  922CLR     C446955   9.922   3.953   5.186
  922CLR     C546956  10.040   3.881   5.119
  922CLR     C646957  10.043   3.748   5.129
  922CLR     C746958  10.141   3.663   5.047
  922CLR     C846959  10.265   3.740   4.996
  922CLR     C946960  10.220   3.873   4.933
  922CLR    C1046961  10.144   3.962   5.037
  922CLR    C1946962  10.243   4.026   5.136
  922CLR    C1146963  10.341   3.944   4.867
  922CLR    C1446964  10.338   3.654   4.891
  922CLR    C1246965  10.418   3.853   4.769
  922CLR    C1346966  10.465   3.720   4.832
  922CLR    C1846967  10.575   3.749   4.937
  922CLR    C1546968  10.391   3.515   4.929
  922CLR    C1646969  10.456   3.479   4.796
  922CLR    C1746970  10.500   3.610   4.729
  922CLR    C2046971  10.644   3.608   4.674
  922CLR    C2146972  10.640   3.573   4.525
  922CLR    C2246973  10.743   3.515   4.748
  922CLR    C2346974  10.889   3.531   4.706
  922CLR    C2446975  10.978   3.445   4.795
  922CLR    C2546976  11.127   3.458   4.761
  922CLR    C2646977  11.162   3.389   4.629
  922CLR    C2746978  11.212   3.403   4.875
  923CLR     C146979  12.715   6.209   5.217
  923CLR     C246980  12.686   6.109   5.330
  923CLR     C346981  12.585   6.003   5.283
  923CLR     O146982  12.556   5.914   5.391
  923CLR    HO146983  12.641   5.863   5.418
  923CLR     C446984  12.639   5.927   5.161
  923CLR     C546985  12.690   6.021   5.050
  923CLR     C646986  12.654   5.995   4.924
  923CLR     C746987  12.679   6.095   4.810
  923CLR     C846988  12.788   6.200   4.838
  923CLR     C946989  12.766   6.257   4.979
  923CLR    C1046990  12.773   6.147   5.088
  923CLR    C1946991  12.918   6.103   5.114
  923CLR    C1146992  12.864   6.375   5.004
  923CLR    C1446993  12.780   6.312   4.732
  923CLR    C1246994  12.852   6.483   4.896
  923CLR    C1346995  12.878   6.430   4.754
  923CLR    C1846996  13.027   6.393   4.739
  923CLR    C1546997  12.803   6.275   4.585
  923CLR    C1646998  12.815   6.414   4.522
  923CLR    C1746999  12.826   6.517   4.636
  923CLR    C2047000  12.915   6.638   4.596
  923CLR    C2147001  12.903   6.754   4.697
  923CLR    C2247002  12.879   6.694   4.457
  923CLR    C2347003  12.979   6.798   4.407
  923CLR    C2447004  12.941   6.848   4.267
  923CLR    C2547005  13.037   6.956   4.215
  923CLR    C2647006  13.025   7.087   4.294
  923CLR    C2747007  13.011   6.982   4.066
  924CLR     C147008  16.210   5.604   5.419
  924CLR     C247009  16.147   5.677   5.538
  924CLR     C347010  16.184   5.826   5.532
  924CLR     O147011  16.141   5.895   5.650
  924CLR    HO147012  16.048   5.860   5.677
  924CLR     C447013  16.126   5.890   5.405
  924CLR     C547014  16.171   5.813   5.280
  924CLR     C647015  16.222   5.884   5.179
  924CLR     C747016  16.297   5.817   5.063
  924CLR     C847017  16.263   5.669   5.042
  924CLR     C947018  16.269   5.596   5.178
  924CLR    C1047019  16.169   5.657   5.280
  924CLR    C1947020  16.025   5.612   5.249
  924CLR    C1147021  16.252   5.444   5.157
  924CLR    C1447022  16.362   5.606   4.942
  924CLR    C1247023  16.350   5.386   5.053
  924CLR    C1347024  16.340   5.455   4.915
  924CLR    C1847025  16.204   5.422   4.850
  924CLR    C1547026  16.367   5.664   4.800
  924CLR    C1647027  16.463   5.563   4.736
  924CLR    C1747028  16.460   5.433   4.819
  924CLR    C2047029  16.453   5.309   4.727
  924CLR    C2147030  16.475   5.178   4.805
  924CLR    C2247031  16.559   5.314   4.615
  924CLR    C2347032  16.528   5.218   4.500
  924CLR    C2447033  16.633   5.232   4.389
  924CLR    C2547034  16.602   5.145   4.267
  924CLR    C2647035  16.612   4.995   4.297
  924CLR    C2747036  16.695   5.182   4.151
  925CLR     C147037   3.313   5.802   5.302
  925CLR     C247038   3.346   5.874   5.435
  925CLR     C347039   3.486   5.935   5.429
  925CLR     O147040   3.516   6.003   5.551
  925CLR    HO147041   3.451   6.083   5.563
  925CLR     C447042   3.498   6.035   5.312
  925CLR     C547043   3.442   5.981   5.179
  925CLR     C647044   3.510   6.008   5.068
  925CLR     C747045   3.472   5.945   4.933
  925CLR     C847046   3.328   5.891   4.926
  925CLR     C947047   3.301   5.807   5.052
  925CLR    C1047048   3.312   5.895   5.179
  925CLR    C1947049   3.191   5.990   5.190
  925CLR    C1147050   3.166   5.733   5.040
  925CLR    C1447051   3.310   5.808   4.797
  925CLR    C1247052   3.156   5.652   4.909
  925CLR    C1347053   3.173   5.738   4.783
  925CLR    C1847054   3.052   5.833   4.768
  925CLR    C1547055   3.325   5.880   4.662
  925CLR    C1647056   3.278   5.770   4.567
  925CLR    C1747057   3.206   5.663   4.651
  925CLR    C2047058   3.086   5.601   4.575
  925CLR    C2147059   3.033   5.476   4.646
  925CLR    C2247060   3.122   5.559   4.431
  925CLR    C2347061   3.000   5.518   4.349
  925CLR    C2447062   3.040   5.465   4.211
  925CLR    C2547063   2.922   5.411   4.128
  925CLR    C2647064   2.818   5.519   4.096
  925CLR    C2747065   2.856   5.290   4.194
  926CLR     C147066   7.472   6.244   5.342
  926CLR     C247067   7.499   6.336   5.463
  926CLR     C347068   7.584   6.455   5.418
  926CLR     O147069   7.625   6.537   5.529
  926CLR    HO147070   7.647   6.632   5.494
  926CLR     C447071   7.509   6.537   5.312
  926CLR     C547072   7.459   6.449   5.196
  926CLR     C647073   7.478   6.495   5.072
  926CLR     C747074   7.452   6.407   4.949
  926CLR     C847075   7.359   6.287   4.975
  926CLR     C947076   7.406   6.215   5.103
  926CLR    C1047077   7.397   6.310   5.225
  926CLR    C1947078   7.250   6.330   5.267
  926CLR    C1147079   7.330   6.082   5.121
  926CLR    C1447080   7.359   6.193   4.853
  926CLR    C1247081   7.332   5.994   4.994
  926CLR    C1347082   7.276   6.064   4.869
  926CLR    C1847083   7.124   6.088   4.886
  926CLR    C1547084   7.308   6.247   4.719
  926CLR    C1647085   7.317   6.119   4.637
  926CLR    C1747086   7.312   5.999   4.733
  926CLR    C2047087   7.218   5.889   4.678
  926CLR    C2147088   7.216   5.763   4.765
  926CLR    C2247089   7.258   5.848   4.535
  926CLR    C2347090   7.157   5.756   4.465
  926CLR    C2447091   7.205   5.721   4.324
  926CLR    C2547092   7.113   5.622   4.252
  926CLR    C2647093   7.177   5.576   4.121
  926CLR    C2747094   6.976   5.684   4.222
  927CLR     C147095  10.159   6.090   5.048
  927CLR     C247096  10.122   6.066   5.196
  927CLR     C347097  10.250   6.057   5.281
  927CLR     O147098  10.225   6.023   5.418
  927CLR    HO147099  10.313   6.028   5.469
  927CLR     C447100  10.330   6.188   5.272
  927CLR     C547101  10.357   6.227   5.126
  927CLR     C647102  10.482   6.262   5.093
  927CLR     C747103  10.522   6.284   4.947
  927CLR     C847104  10.405   6.316   4.854
  927CLR     C947105  10.294   6.211   4.876
  927CLR    C1047106  10.241   6.218   5.022
  927CLR    C1947107  10.151   6.341   5.042
  927CLR    C1147108  10.182   6.228   4.770
  927CLR    C1447109  10.452   6.319   4.707
  927CLR    C1247110  10.235   6.236   4.626
  927CLR    C1347111  10.340   6.347   4.605
  927CLR    C1847112  10.273   6.486   4.623
  927CLR    C1547113  10.558   6.422   4.666
  927CLR    C1647114  10.562   6.391   4.517
  927CLR    C1747115  10.424   6.336   4.475
  927CLR    C2047116  10.370   6.410   4.350
  927CLR    C2147117  10.242   6.345   4.295
  927CLR    C2247118  10.474   6.412   4.237
  927CLR    C2347119  10.440   6.515   4.128
  927CLR    C2447120  10.548   6.516   4.020
  927CLR    C2547121  10.523   6.623   3.913
  927CLR    C2647122  10.622   6.605   3.798
  927CLR    C2747123  10.538   6.764   3.971
  928CLR     C147124  13.625   6.245   5.389
  928CLR     C247125  13.678   6.248   5.533
  928CLR     C347126  13.571   6.198   5.631
  928CLR     O147127  13.621   6.202   5.765
  928CLR    HO147128  13.641   6.105   5.794
  928CLR     C447129  13.530   6.054   5.596
  928CLR     C547130  13.497   6.035   5.447
  928CLR     C647131  13.388   5.963   5.418
  928CLR     C747132  13.331   5.959   5.275
  928CLR     C847133  13.431   5.995   5.164
  928CLR     C947134  13.508   6.123   5.205
  928CLR    C1047135  13.584   6.104   5.339
  928CLR    C1947136  13.711   6.020   5.318
  928CLR    C1147137  13.597   6.170   5.089
  928CLR    C1447138  13.354   6.019   5.033
  928CLR    C1247139  13.518   6.189   4.958
  928CLR    C1347140  13.442   6.063   4.913
  928CLR    C1847141  13.543   5.956   4.866
  928CLR    C1547142  13.271   5.904   4.975
  928CLR    C1647143  13.237   5.960   4.837
  928CLR    C1747144  13.325   6.084   4.814
  928CLR    C2047145  13.367   6.102   4.666
  928CLR    C2147146  13.408   6.247   4.638
  928CLR    C2247147  13.256   6.065   4.566
  928CLR    C2347148  13.307   6.051   4.422
  928CLR    C2447149  13.408   5.936   4.407
  928CLR    C2547150  13.471   5.930   4.267
  928CLR    C2647151  13.564   5.809   4.258
  928CLR    C2747152  13.551   6.057   4.236
  929CLR     C147153  16.957   5.626   5.055
  929CLR     C247154  16.954   5.636   5.208
  929CLR     C347155   0.054   5.756   5.255
  929CLR     O147156   0.058   5.766   5.398
  929CLR    HO147157   0.079   5.674   5.440
  929CLR     C447158  16.981   5.887   5.196
  929CLR     C547159  16.958   5.878   5.044
  929CLR     C647160   0.011   5.983   4.969
  929CLR     C747161   0.009   5.979   4.816
  929CLR     C847162  16.904   5.867   4.756
  929CLR     C947163  16.934   5.735   4.830
  929CLR    C1047164  16.899   5.748   4.981
  929CLR    C1947165  16.746   5.751   5.002
  929CLR    C1147166  16.863   5.617   4.759
  929CLR    C1447167  16.934   5.854   4.605
  929CLR    C1247168  16.897   5.610   4.609
  929CLR    C1347169  16.862   5.739   4.532
  929CLR    C1847170  16.708   5.754   4.524
  929CLR    C1547171  16.903   5.974   4.514
  929CLR    C1647172  16.936   5.911   4.379
  929CLR    C1747173  16.931   5.758   4.394
  929CLR    C2047174  16.863   5.691   4.272
  929CLR    C2147175  16.880   5.538   4.273
  929CLR    C2247176  16.919   5.744   4.138
  929CLR    C2347177  16.837   5.702   4.016
  929CLR    C2447178  16.894   5.763   3.888
  929CLR    C2547179  16.815   5.723   3.763
  929CLR    C2647180  16.832   5.575   3.728
  929CLR    C2747181  16.856   5.810   3.644
  930CLR     C147182   3.872   7.017   5.511
  930CLR     C247183   3.848   7.015   5.663
  930CLR     C347184   3.702   6.979   5.694
  930CLR     O147185   3.678   6.983   5.835
  930CLR    HO147186   3.578   6.990   5.855
  930CLR     C447187   3.668   6.840   5.638
  930CLR     C547188   3.709   6.826   5.490
  930CLR     C647189   3.619   6.771   5.408
  930CLR     C747190   3.637   6.773   5.255
  930CLR     C847191   3.781   6.795   5.207
  930CLR     C947192   3.844   6.912   5.287
  930CLR    C1047193   3.844   6.883   5.440
  930CLR    C1947194   3.955   6.782   5.476
  930CLR    C1147195   3.983   6.947   5.229
  930CLR    C1447196   3.780   6.828   5.057
  930CLR    C1247197   3.978   6.977   5.078
  930CLR    C1347198   3.918   6.861   4.996
  930CLR    C1847199   4.018   6.743   4.993
  930CLR    C1547200   3.723   6.725   4.958
  930CLR    C1647201   3.767   6.786   4.824
  930CLR    C1747202   3.859   6.903   4.860
  930CLR    C2047203   3.958   6.945   4.749
  930CLR    C2147204   3.893   7.056   4.665
  930CLR    C2247205   4.009   6.832   4.657
  930CLR    C2347206   4.114   6.879   4.556
  930CLR    C2447207   4.156   6.763   4.464
  930CLR    C2547208   4.257   6.806   4.356
  930CLR    C2647209   4.282   6.691   4.260
  930CLR    C2747210   4.390   6.851   4.417
  931CLR     C147211   8.083   6.491   5.015
  931CLR     C247212   8.115   6.456   5.161
  931CLR     C347213   8.084   6.576   5.252
  931CLR     O147214   8.120   6.550   5.388
  931CLR    HO147215   8.157   6.456   5.398
  931CLR     C447216   7.935   6.613   5.242
  931CLR     C547217   7.887   6.628   5.097
  931CLR     C647218   7.808   6.732   5.069
  931CLR     C747219   7.772   6.770   4.924
  931CLR     C847220   7.793   6.659   4.820
  931CLR     C947221   7.929   6.591   4.846
  931CLR    C1047222   7.936   6.529   4.988
  931CLR    C1947223   7.850   6.401   4.996
  931CLR    C1147224   7.961   6.491   4.732
  931CLR    C1447225   7.788   6.720   4.678
  931CLR    C1247226   7.954   6.557   4.594
  931CLR    C1347227   7.817   6.622   4.563
  931CLR    C1847228   7.710   6.511   4.544
  931CLR    C1547229   7.659   6.789   4.633
  931CLR    C1647230   7.695   6.816   4.486
  931CLR    C1747231   7.815   6.728   4.449
  931CLR    C2047232   7.805   6.676   4.304
  931CLR    C2147233   7.933   6.604   4.258
  931CLR    C2247234   7.778   6.790   4.204
  931CLR    C2347235   7.743   6.744   4.062
  931CLR    C2447236   7.601   6.689   4.050
  931CLR    C2547237   7.568   6.640   3.908
  931CLR    C2647238   7.578   6.752   3.804
  931CLR    C2747239   7.428   6.579   3.905
  932CLR     C147240  10.998   5.894   5.256
  932CLR     C247241  11.018   5.876   5.407
  932CLR     C347242  11.166   5.893   5.445
  932CLR     O147243  11.181   5.873   5.586
  932CLR    HO147244  11.278   5.838   5.605
  932CLR     C447245  11.215   6.033   5.404
  932CLR     C547246  11.181   6.066   5.258
  932CLR     C647247  11.278   6.117   5.182
  932CLR     C747248  11.262   6.130   5.029
  932CLR     C847249  11.117   6.136   4.981
  932CLR     C947250  11.039   6.020   5.047
  932CLR    C1047251  11.040   6.031   5.201
  932CLR    C1947252  10.941   6.139   5.250
  932CLR    C1147253  10.896   6.011   4.987
  932CLR    C1447254  11.113   6.122   4.827
  932CLR    C1247255  10.898   6.001   4.833
  932CLR    C1347256  10.971   6.118   4.765
  932CLR    C1847257  10.891   6.249   4.785
  932CLR    C1547258  11.182   6.229   4.742
  932CLR    C1647259  11.140   6.181   4.603
  932CLR    C1747260  11.014   6.093   4.619
  932CLR    C2047261  10.913   6.126   4.506
  932CLR    C2147262  10.784   6.043   4.513
  932CLR    C2247263  10.976   6.103   4.368
  932CLR    C2347264  10.893   6.157   4.252
  932CLR    C2447265  10.956   6.115   4.119
  932CLR    C2547266  10.877   6.164   3.998
  932CLR    C2647267  10.930   6.094   3.872
  932CLR    C2747268  10.892   6.316   3.980
  933CLR     C147269  13.849   7.929   5.188
  933CLR     C247270  13.948   7.973   5.297
  933CLR     C347271  14.093   7.945   5.257
  933CLR     O147272  14.181   7.984   5.364
  933CLR    HO147273  14.277   8.001   5.327
  933CLR     C447274  14.127   8.016   5.126
  933CLR     C547275  14.024   7.987   5.016
  933CLR     C647276  14.069   7.945   4.897
  933CLR     C747277  13.974   7.890   4.790
  933CLR     C847278  13.828   7.936   4.804
  933CLR     C947279  13.783   7.916   4.950
  933CLR    C1047280  13.872   7.994   5.050
  933CLR    C1947281  13.832   8.143   5.055
  933CLR    C1147282  13.632   7.947   4.963
  933CLR    C1447283  13.739   7.854   4.708
  933CLR    C1247284  13.547   7.867   4.864
  933CLR    C1347285  13.588   7.886   4.717
  933CLR    C1847286  13.551   8.029   4.669
  933CLR    C1547287  13.766   7.860   4.558
  933CLR    C1647288  13.643   7.784   4.506
  933CLR    C1747289  13.543   7.772   4.622
  933CLR    C2047290  13.399   7.771   4.563
  933CLR    C2147291  13.282   7.810   4.654
  933CLR    C2247292  13.367   7.636   4.498
  933CLR    C2347293  13.371   7.519   4.597
  933CLR    C2447294  13.321   7.388   4.536
  933CLR    C2547295  13.334   7.270   4.634
  933CLR    C2647296  13.294   7.139   4.566
  933CLR    C2747297  13.247   7.290   4.759
  934CLR     C147298   1.516   7.199   5.388
  934CLR     C247299   1.542   7.160   5.535
  934CLR     C347300   1.688   7.119   5.558
  934CLR     O147301   1.711   7.088   5.696
  934CLR    HO147302   1.621   7.066   5.743
  934CLR     C447303   1.784   7.231   5.516
  934CLR     C547304   1.752   7.286   5.376
  934CLR     C647305   1.854   7.302   5.291
  934CLR     C747306   1.831   7.336   5.144
  934CLR     C847307   1.697   7.405   5.115
  934CLR     C947308   1.584   7.324   5.182
  934CLR    C1047309   1.604   7.315   5.336
  934CLR    C1947310   1.561   7.446   5.404
  934CLR    C1147311   1.446   7.381   5.141
  934CLR    C1447312   1.674   7.411   4.963
  934CLR    C1247313   1.429   7.395   4.988
  934CLR    C1347314   1.541   7.478   4.922
  934CLR    C1847315   1.528   7.626   4.964
  934CLR    C1547316   1.775   7.484   4.874
  934CLR    C1647317   1.704   7.460   4.740
  934CLR    C1747318   1.553   7.456   4.769
  934CLR    C2047319   1.468   7.549   4.678
  934CLR    C2147320   1.398   7.463   4.573
  934CLR    C2247321   1.546   7.665   4.612
  934CLR    C2347322   1.465   7.754   4.517
  934CLR    C2447323   1.555   7.864   4.461
  934CLR    C2547324   1.490   7.939   4.345
  934CLR    C2647325   1.482   7.852   4.219
  934CLR    C2747326   1.568   8.068   4.315
  935CLR     C147327   5.229   6.763   5.535
  935CLR     C247328   5.218   6.783   5.687
  935CLR     C347329   5.319   6.694   5.761
  935CLR     O147330   5.305   6.716   5.902
  935CLR    HO147331   5.317   6.628   5.953
  935CLR     C447332   5.463   6.726   5.716
  935CLR     C547333   5.477   6.731   5.563
  935CLR     C647334   5.583   6.670   5.509
  935CLR     C747335   5.597   6.652   5.357
  935CLR     C847336   5.513   6.749   5.273
  935CLR     C947337   5.369   6.750   5.329
  935CLR    C1047338   5.368   6.799   5.476
  935CLR    C1947339   5.389   6.951   5.484
  935CLR    C1147340   5.275   6.831   5.236
  935CLR    C1447341   5.515   6.707   5.124
  935CLR    C1247342   5.284   6.787   5.089
  935CLR    C1347343   5.428   6.795   5.032
  935CLR    C1847344   5.472   6.943   5.024
  935CLR    C1547345   5.650   6.707   5.051
  935CLR    C1647346   5.603   6.683   4.908
  935CLR    C1747347   5.453   6.718   4.900
  935CLR    C2047348   5.418   6.794   4.769
  935CLR    C2147349   5.266   6.803   4.747
  935CLR    C2247350   5.480   6.729   4.644
  935CLR    C2347351   5.459   6.811   4.516
  935CLR    C2447352   5.526   6.745   4.395
  935CLR    C2547353   5.494   6.813   4.261
  935CLR    C2647354   5.531   6.961   4.257
  935CLR    C2747355   5.347   6.792   4.222
  936CLR     C147356   7.759   7.416   5.427
  936CLR     C247357   7.775   7.438   5.578
  936CLR     C347358   7.816   7.307   5.648
  936CLR     O147359   7.831   7.326   5.789
  936CLR    HO147360   7.740   7.357   5.829
  936CLR     C447361   7.948   7.254   5.590
  936CLR     C547362   7.948   7.250   5.436
  936CLR     C647363   7.997   7.139   5.379
  936CLR     C747364   7.982   7.114   5.228
  936CLR     C847365   7.957   7.240   5.144
  936CLR     C947366   7.847   7.325   5.211
  936CLR    C1047367   7.887   7.367   5.355
  936CLR    C1947368   7.989   7.482   5.352
  936CLR    C1147369   7.809   7.444   5.120
  936CLR    C1447370   7.914   7.199   5.002
  936CLR    C1247371   7.772   7.401   4.977
  936CLR    C1347372   7.882   7.318   4.908
  936CLR    C1847373   8.004   7.408   4.876
  936CLR    C1547374   8.008   7.114   4.916
  936CLR    C1647375   7.937   7.119   4.781
  936CLR    C1747376   7.832   7.231   4.791
  936CLR    C2047377   7.802   7.305   4.659
  936CLR    C2147378   7.677   7.243   4.595
  936CLR    C2247379   7.918   7.307   4.556
  936CLR    C2347380   7.891   7.398   4.435
  936CLR    C2447381   8.004   7.387   4.332
  936CLR    C2547382   7.961   7.316   4.203
  936CLR    C2647383   7.929   7.167   4.222
  936CLR    C2747384   8.069   7.332   4.095
  937CLR     C147385  11.849   7.041   5.543
  937CLR     C247386  11.905   7.031   5.686
  937CLR     C347387  11.921   7.172   5.745
  937CLR     O147388  11.979   7.164   5.876
  937CLR    HO147389  12.013   7.259   5.904
  937CLR     C447390  11.786   7.244   5.750
  937CLR     C547391  11.708   7.237   5.618
  937CLR     C647392  11.643   7.347   5.578
  937CLR     C747393  11.576   7.355   5.439
  937CLR     C847394  11.549   7.219   5.373
  937CLR     C947395  11.677   7.134   5.385
  937CLR    C1047396  11.709   7.106   5.534
  937CLR    C1947397  11.606   7.009   5.594
  937CLR    C1147398  11.666   7.005   5.300
  937CLR    C1447399  11.507   7.239   5.225
  937CLR    C1247400  11.624   7.033   5.155
  937CLR    C1347401  11.490   7.109   5.145
  937CLR    C1847402  11.375   7.017   5.194
  937CLR    C1547403  11.376   7.314   5.197
  937CLR    C1647404  11.358   7.285   5.048
  937CLR    C1747405  11.458   7.175   5.009
  937CLR    C2047406  11.402   7.081   4.899
  937CLR    C2147407  11.513   6.996   4.837
  937CLR    C2247408  11.334   7.156   4.783
  937CLR    C2347409  11.248   7.064   4.697
  937CLR    C2447410  11.194   7.134   4.572
  937CLR    C2547411  11.302   7.162   4.467
  937CLR    C2647412  11.249   7.257   4.360
  937CLR    C2747413  11.350   7.032   4.401
  938CLR     C147414  15.310   8.013   5.229
  938CLR     C247415  15.260   7.988   5.372
  938CLR     C347416  15.350   7.885   5.442
  938CLR     O147417  15.301   7.855   5.574
  938CLR    HO147418  15.197   7.857   5.570
  938CLR     C447419  15.494   7.936   5.450
  938CLR     C547420  15.546   7.985   5.314
  938CLR     C647421  15.669   7.948   5.277
  938CLR     C747422  15.723   7.977   5.136
  938CLR     C847423  15.651   8.091   5.063
  938CLR     C947424  15.499   8.068   5.074
  938CLR    C1047425  15.454   8.070   5.222
  938CLR    C1947426  15.453   8.214   5.276
  938CLR    C1147427  15.423   8.168   4.984
  938CLR    C1447428  15.697   8.095   4.916
  938CLR    C1247429  15.474   8.169   4.839
  938CLR    C1347430  15.625   8.200   4.828
  938CLR    C1847431  15.650   8.347   4.868
  938CLR    C1547432  15.845   8.122   4.888
  938CLR    C1647433  15.842   8.149   4.738
  938CLR    C1747434  15.694   8.160   4.695
  938CLR    C2047435  15.677   8.257   4.575
  938CLR    C2147436  15.535   8.253   4.517
  938CLR    C2247437  15.776   8.223   4.462
  938CLR    C2347438  15.773   8.317   4.341
  938CLR    C2447439  15.823   8.459   4.371
  938CLR    C2547440  15.806   8.550   4.249
  938CLR    C2647441  15.880   8.682   4.271
  938CLR    C2747442  15.658   8.580   4.222
  939CLR     C147443   1.085   8.484   5.609
  939CLR     C247444   1.106   8.391   5.730
  939CLR     C347445   1.067   8.461   5.861
  939CLR     O147446   1.084   8.370   5.970
  939CLR    HO147447   0.998   8.315   5.982
  939CLR     C447448   0.922   8.509   5.857
  939CLR     C547449   0.885   8.582   5.727
  939CLR     C647450   0.809   8.692   5.737
  939CLR     C747451   0.781   8.781   5.615
  939CLR     C847452   0.802   8.714   5.479
  939CLR     C947453   0.937   8.639   5.480
  939CLR    C1047454   0.939   8.530   5.591
  939CLR    C1947455   0.853   8.409   5.548
  939CLR    C1147456   0.970   8.586   5.339
  939CLR    C1447457   0.800   8.821   5.368
  939CLR    C1247458   0.966   8.697   5.232
  939CLR    C1347459   0.831   8.770   5.225
  939CLR    C1847460   0.724   8.676   5.165
  939CLR    C1547461   0.673   8.903   5.348
  939CLR    C1647462   0.716   8.983   5.226
  939CLR    C1747463   0.835   8.911   5.159
  939CLR    C2047464   0.822   8.925   5.005
  939CLR    C2147465   0.924   8.846   4.924
  939CLR    C2247466   0.833   9.074   4.968
  939CLR    C2347467   0.792   9.107   4.824
  939CLR    C2447468   0.808   9.257   4.800
  939CLR    C2547469   0.762   9.301   4.660
  939CLR    C2647470   0.853   9.246   4.550
  939CLR    C2747471   0.756   9.453   4.652
  940CLR     C147472   5.405   7.507   5.866
  940CLR     C247473   5.325   7.486   5.996
  940CLR     C347474   5.191   7.560   5.991
  940CLR     O147475   5.119   7.544   6.114
  940CLR    HO147476   5.027   7.590   6.104
  940CLR     C447477   5.107   7.511   5.872
  940CLR     C547478   5.186   7.510   5.740
  940CLR     C647479   5.127   7.561   5.632
  940CLR     C747480   5.204   7.584   5.501
  940CLR     C847481   5.332   7.501   5.487
  940CLR     C947482   5.414   7.512   5.617
  940CLR    C1047483   5.333   7.458   5.739
  940CLR    C1947484   5.329   7.304   5.738
  940CLR    C1147485   5.552   7.444   5.600
  940CLR    C1447486   5.414   7.552   5.367
  940CLR    C1247487   5.628   7.497   5.477
  940CLR    C1347488   5.550   7.482   5.345
  940CLR    C1847489   5.539   7.332   5.307
  940CLR    C1547490   5.351   7.545   5.227
  940CLR    C1647491   5.470   7.594   5.146
  940CLR    C1747492   5.599   7.571   5.228
  940CLR    C2047493   5.712   7.517   5.137
  940CLR    C2147494   5.847   7.504   5.211
  940CLR    C2247495   5.733   7.607   5.014
  940CLR    C2347496   5.823   7.545   4.907
  940CLR    C2447497   5.839   7.642   4.790
  940CLR    C2547498   5.929   7.587   4.679
  940CLR    C2647499   6.075   7.572   4.724
  940CLR    C2747500   5.922   7.679   4.556
  941CLR     C147501   8.754   7.709   5.514
  941CLR     C247502   8.773   7.697   5.666
  941CLR     C347503   8.911   7.638   5.697
  941CLR     O147504   8.925   7.615   5.838
  941CLR    HO147505   8.870   7.529   5.860
  941CLR     C447506   9.022   7.730   5.643
  941CLR     C547507   9.000   7.764   5.495
  941CLR     C647508   9.105   7.755   5.413
  941CLR     C747509   9.090   7.764   5.260
  941CLR     C847510   8.961   7.833   5.213
  941CLR     C947511   8.842   7.774   5.291
  941CLR    C1047512   8.857   7.799   5.443
  941CLR    C1947513   8.830   7.947   5.478
  941CLR    C1147514   8.708   7.827   5.234
  941CLR    C1447515   8.943   7.812   5.061
  941CLR    C1247516   8.697   7.805   5.082
  941CLR    C1347517   8.813   7.870   5.002
  941CLR    C1847518   8.802   8.024   5.011
  941CLR    C1547519   9.048   7.869   4.966
  941CLR    C1647520   8.982   7.832   4.833
  941CLR    C1747521   8.831   7.818   4.857
  941CLR    C2047522   8.750   7.889   4.746
  941CLR    C2147523   8.599   7.869   4.760
  941CLR    C2247524   8.791   7.841   4.606
  941CLR    C2347525   8.731   7.926   4.493
  941CLR    C2447526   8.770   7.871   4.356
  941CLR    C2547527   8.712   7.954   4.241
  941CLR    C2647528   8.737   7.884   4.107
  941CLR    C2747529   8.773   8.095   4.237
  942CLR     C147530  12.365   8.992   5.535
  942CLR     C247531  12.368   8.982   5.689
  942CLR     C347532  12.381   8.835   5.729
  942CLR     O147533  12.365   8.818   5.871
  942CLR    HO147534  12.458   8.825   5.916
  942CLR     C447535  12.516   8.780   5.679
  942CLR     C547536  12.537   8.806   5.529
  942CLR     C647537  12.585   8.705   5.455
  942CLR     C747538  12.586   8.710   5.302
  942CLR     C847539  12.572   8.850   5.240
  942CLR     C947540  12.461   8.927   5.315
  942CLR    C1047541  12.493   8.941   5.466
  942CLR    C1947542  12.605   9.044   5.488
  942CLR    C1147543  12.432   9.061   5.244
  942CLR    C1447544  12.539   8.838   5.090
  942CLR    C1247545  12.401   9.043   5.095
  942CLR    C1347546  12.514   8.972   5.017
  942CLR    C1847547  12.637   9.064   5.009
  942CLR    C1547548  12.640   8.769   4.998
  942CLR    C1647549  12.576   8.798   4.862
  942CLR    C1747550  12.474   8.911   4.880
  942CLR    C2047551  12.475   9.004   4.756
  942CLR    C2147552  12.373   9.119   4.764
  942CLR    C2247553  12.448   8.925   4.627
  942CLR    C2347554  12.469   9.006   4.499
  942CLR    C2447555  12.437   8.921   4.375
  942CLR    C2547556  12.457   8.998   4.244
  942CLR    C2647557  12.355   9.111   4.227
  942CLR    C2747558  12.451   8.903   4.125
  943CLR     C147559  16.008   7.770   5.506
  943CLR     C247560  15.934   7.715   5.629
  943CLR     C347561  15.790   7.678   5.591
  943CLR     O147562  15.713   7.636   5.705
  943CLR    HO147563  15.752   7.546   5.741
  943CLR     C447564  15.790   7.569   5.483
  943CLR     C547565  15.880   7.604   5.364
  943CLR     C647566  15.834   7.578   5.241
  943CLR     C747567  15.910   7.623   5.115
  943CLR     C847568  16.059   7.655   5.139
  943CLR     C947569  16.070   7.746   5.263
  943CLR    C1047570  16.019   7.670   5.389
  943CLR    C1947571  16.117   7.558   5.428
  943CLR    C1147572  16.214   7.800   5.278
  943CLR    C1447573  16.118   7.722   5.013
  943CLR    C1247574  16.266   7.866   5.148
  943CLR    C1347575  16.265   7.770   5.027
  943CLR    C1847576  16.367   7.656   5.050
  943CLR    C1547577  16.124   7.640   4.884
  943CLR    C1647578  16.198   7.741   4.796
  943CLR    C1747579  16.278   7.836   4.887
  943CLR    C2047580  16.420   7.858   4.831
  943CLR    C2147581  16.501   7.962   4.911
  943CLR    C2247582  16.415   7.905   4.684
  943CLR    C2347583  16.551   7.909   4.615
  943CLR    C2447584  16.534   7.950   4.468
  943CLR    C2547585  16.668   7.963   4.395
  943CLR    C2647586  16.749   8.083   4.444
  943CLR    C2747587  16.644   7.973   4.244
  944CLR     C147588   1.992   8.925   5.982
  944CLR     C247589   1.919   8.918   6.117
  944CLR     C347590   1.772   8.959   6.099
  944CLR     O147591   1.702   8.968   6.224
  944CLR    HO147592   1.601   8.965   6.203
  944CLR     C447593   1.703   8.862   6.003
  944CLR     C547594   1.779   8.849   5.870
  944CLR     C647595   1.709   8.859   5.757
  944CLR     C747596   1.778   8.871   5.620
  944CLR     C847597   1.923   8.819   5.617
  944CLR     C947598   1.999   8.877   5.738
  944CLR    C1047599   1.934   8.834   5.872
  944CLR    C1947600   1.967   8.688   5.905
  944CLR    C1147601   2.149   8.842   5.728
  944CLR    C1447602   1.990   8.861   5.484
  944CLR    C1247603   2.211   8.882   5.593
  944CLR    C1347604   2.139   8.819   5.472
  944CLR    C1847605   2.161   8.666   5.469
  944CLR    C1547606   1.930   8.810   5.353
  944CLR    C1647607   2.039   8.856   5.255
  944CLR    C1747608   2.165   8.890   5.336
  944CLR    C2047609   2.289   8.853   5.250
  944CLR    C2147610   2.422   8.839   5.325
  944CLR    C2247611   2.303   8.957   5.138
  944CLR    C2347612   2.416   8.937   5.037
  944CLR    C2447613   2.387   8.825   4.936
  944CLR    C2547614   2.496   8.807   4.829
  944CLR    C2647615   2.630   8.765   4.889
  944CLR    C2747616   2.512   8.932   4.742
  945CLR     C147617   5.537   9.076   5.745
  945CLR     C247618   5.520   9.048   5.895
  945CLR     C347619   5.373   9.055   5.937
  945CLR     O147620   5.362   9.029   6.077
  945CLR    HO147621   5.263   9.041   6.107
  945CLR     C447622   5.289   8.953   5.857
  945CLR     C547623   5.316   8.960   5.705
  945CLR     C647624   5.212   8.956   5.622
  945CLR     C747625   5.227   8.981   5.471
  945CLR     C847626   5.369   8.960   5.416
  945CLR     C947627   5.469   9.032   5.509
  945CLR    C1047628   5.462   8.976   5.654
  945CLR    C1947629   5.531   8.838   5.662
  945CLR    C1147630   5.611   9.028   5.448
  945CLR    C1447631   5.379   9.016   5.272
  945CLR    C1247632   5.614   9.082   5.304
  945CLR    C1347633   5.519   9.008   5.208
  945CLR    C1847634   5.571   8.864   5.184
  945CLR    C1547635   5.290   8.955   5.163
  945CLR    C1647636   5.346   9.027   5.041
  945CLR    C1747637   5.485   9.083   5.077
  945CLR    C2047638   5.584   9.068   4.958
  945CLR    C2147639   5.720   9.133   4.984
  945CLR    C2247640   5.526   9.130   4.829
  945CLR    C2347641   5.609   9.099   4.704
  945CLR    C2447642   5.551   9.161   4.577
  945CLR    C2547643   5.562   9.314   4.570
  945CLR    C2647644   5.485   9.368   4.449
  945CLR    C2747645   5.708   9.359   4.560
  946CLR     C147646   9.930   8.852   5.759
  946CLR     C247647   9.989   8.859   5.900
  946CLR     C347648  10.110   8.766   5.914
  946CLR     O147649  10.168   8.780   6.045
  946CLR    HO147650  10.093   8.796   6.114
  946CLR     C447651  10.218   8.797   5.809
  946CLR     C547652  10.162   8.819   5.668
  946CLR     C647653  10.233   8.771   5.565
  946CLR     C747654  10.181   8.778   5.420
  946CLR     C847655  10.068   8.881   5.398
  946CLR     C947656   9.964   8.863   5.510
  946CLR    C1047657  10.028   8.895   5.648
  946CLR    C1947658  10.055   9.046   5.661
  946CLR    C1147659   9.837   8.946   5.480
  946CLR    C1447660  10.006   8.861   5.258
  946CLR    C1247661   9.781   8.920   5.340
  946CLR    C1347662   9.883   8.949   5.227
  946CLR    C1847663   9.912   9.101   5.222
  946CLR    C1547664  10.095   8.885   5.135
  946CLR    C1647665   9.990   8.873   5.025
  946CLR    C1747666   9.851   8.888   5.089
  946CLR    C2047667   9.756   8.968   4.995
  946CLR    C2147668   9.613   8.978   5.050
  946CLR    C2247669   9.750   8.905   4.855
  946CLR    C2347670   9.669   8.983   4.751
  946CLR    C2447671   9.731   9.119   4.717
  946CLR    C2547672   9.649   9.199   4.615
  946CLR    C2647673   9.725   9.324   4.573
  946CLR    C2747674   9.512   9.239   4.673
  947CLR     C147675  12.370   9.794   5.608
  947CLR     C247676  12.362   9.794   5.761
  947CLR     C347677  12.326   9.653   5.809
  947CLR     O147678  12.291   9.654   5.949
  947CLR    HO147679  12.190   9.634   5.958
  947CLR     C447680  12.438   9.555   5.772
  947CLR     C547681  12.470   9.561   5.621
  947CLR     C647682  12.483   9.445   5.555
  947CLR     C747683  12.485   9.438   5.401
  947CLR     C847684  12.514   9.570   5.328
  947CLR     C947685  12.437   9.685   5.398
  947CLR    C1047686  12.474   9.698   5.548
  947CLR    C1947687  12.615   9.758   5.566
  947CLR    C1147688  12.454   9.816   5.318
  947CLR    C1447689  12.468   9.559   5.180
  947CLR    C1247690  12.408   9.799   5.173
  947CLR    C1347691  12.484   9.689   5.097
  947CLR    C1847692  12.631   9.734   5.075
  947CLR    C1547693  12.534   9.454   5.090
  947CLR    C1647694  12.478   9.496   4.953
  947CLR    C1747695  12.418   9.637   4.967
  947CLR    C2047696  12.440   9.723   4.840
  947CLR    C2147697  12.358   9.853   4.842
  947CLR    C2247698  12.402   9.648   4.711
  947CLR    C2347699  12.445   9.723   4.584
  947CLR    C2447700  12.401   9.650   4.457
  947CLR    C2547701  12.436   9.723   4.327
  947CLR    C2647702  12.587   9.745   4.309
  947CLR    C2747703  12.360   9.856   4.314
  948CLR     C147704  15.952  10.317   6.069
  948CLR     C247705  15.920  10.299   6.218
  948CLR     C347706  16.048  10.289   6.302
  948CLR     O147707  16.009  10.279   6.440
  948CLR    HO147708  15.965  10.368   6.467
  948CLR     C447709  16.137  10.413   6.282
  948CLR     C547710  16.153  10.454   6.134
  948CLR     C647711  16.274  10.495   6.093
  948CLR     C747712  16.303  10.523   5.944
  948CLR     C847713  16.179  10.547   5.856
  948CLR     C947714  16.074  10.438   5.889
  948CLR    C1047715  16.031  10.445   6.038
  948CLR    C1947716  15.942  10.568   6.063
  948CLR    C1147717  15.955  10.445   5.791
  948CLR    C1447718  16.217  10.542   5.707
  948CLR    C1247719  15.999  10.441   5.643
  948CLR    C1347720  16.098  10.554   5.609
  948CLR    C1847721  16.025  10.690   5.614
  948CLR    C1547722  16.317  10.645   5.651
  948CLR    C1647723  16.298  10.628   5.500
  948CLR    C1747724  16.184  10.527   5.484
  948CLR    C2047725  16.112  10.529   5.347
  948CLR    C2147726  16.183  10.433   5.252
  948CLR    C2247727  16.095  10.667   5.280
  948CLR    C2347728  16.006  10.661   5.156
  948CLR    C2447729  15.984  10.800   5.095
  948CLR    C2547730  15.901  10.793   4.966
  948CLR    C2647731  15.979  10.730   4.850
  948CLR    C2747732  15.851  10.932   4.928
  949CLR     C147733   2.645   8.965   5.604
  949CLR     C247734   2.584   8.955   5.745
  949CLR     C347735   2.696   8.965   5.849
  949CLR     O147736   2.650   8.936   5.982
  949CLR    HO147737   2.612   8.840   5.980
  949CLR     C447738   2.765   9.102   5.841
  949CLR     C547739   2.815   9.128   5.698
  949CLR     C647740   2.943   9.165   5.684
  949CLR     C747741   3.013   9.164   5.548
  949CLR     C847742   2.919   9.172   5.427
  949CLR     C947743   2.804   9.071   5.446
  949CLR    C1047744   2.723   9.095   5.576
  949CLR    C1947745   2.623   9.210   5.559
  949CLR    C1147746   2.716   9.067   5.319
  949CLR    C1447747   2.997   9.138   5.299
  949CLR    C1247748   2.799   9.036   5.193
  949CLR    C1347749   2.914   9.136   5.169
  949CLR    C1847750   2.856   9.274   5.129
  949CLR    C1547751   3.116   9.226   5.258
  949CLR    C1647752   3.152   9.153   5.129
  949CLR    C1747753   3.025   9.085   5.074
  949CLR    C2047754   3.010   9.112   4.922
  949CLR    C2147755   2.887   9.044   4.860
  949CLR    C2247756   3.134   9.064   4.846
  949CLR    C2347757   3.135   9.108   4.699
  949CLR    C2447758   3.255   9.047   4.625
  949CLR    C2547759   3.262   9.082   4.476
  949CLR    C2647760   3.276   9.232   4.452
  949CLR    C2747761   3.143   9.025   4.399
  950CLR     C147762   5.908   9.525   5.945
  950CLR     C247763   5.858   9.503   6.089
  950CLR     C347764   5.711   9.546   6.103
  950CLR     O147765   5.663   9.520   6.236
  950CLR    HO147766   5.662   9.417   6.248
  950CLR     C447767   5.621   9.471   6.004
  950CLR     C547768   5.677   9.469   5.861
  950CLR     C647769   5.590   9.492   5.762
  950CLR     C747770   5.638   9.509   5.617
  950CLR     C847771   5.776   9.448   5.589
  950CLR     C947772   5.875   9.496   5.698
  950CLR    C1047773   5.829   9.447   5.838
  950CLR    C1947774   5.858   9.296   5.855
  950CLR    C1147775   6.019   9.452   5.661
  950CLR    C1447776   5.824   9.488   5.449
  950CLR    C1247777   6.060   9.488   5.517
  950CLR    C1347778   5.963   9.433   5.410
  950CLR    C1847779   5.968   9.278   5.410
  950CLR    C1547780   5.740   9.449   5.327
  950CLR    C1647781   5.831   9.514   5.223
  950CLR    C1747782   5.977   9.495   5.269
  950CLR    C2047783   6.059   9.416   5.164
  950CLR    C2147784   6.209   9.421   5.196
  950CLR    C2247785   6.040   9.470   5.021
  950CLR    C2347786   6.097   9.377   4.914
  950CLR    C2447787   6.070   9.431   4.774
  950CLR    C2547788   6.127   9.340   4.664
  950CLR    C2647789   6.112   9.406   4.527
  950CLR    C2747790   6.059   9.203   4.663
  951CLR     C147791  10.905  10.016   5.488
  951CLR     C247792  10.934  10.050   5.635
  951CLR     C347793  10.968   9.922   5.712
  951CLR     O147794  10.976   9.942   5.853
  951CLR    HO147795  11.041  10.019   5.875
  951CLR     C447796  11.095   9.857   5.655
  951CLR     C547797  11.087   9.839   5.502
  951CLR     C647798  11.130   9.723   5.452
  951CLR     C747799  11.108   9.685   5.305
  951CLR     C847800  11.076   9.803   5.212
  951CLR     C947801  10.969   9.892   5.280
  951CLR    C1047802  11.023   9.950   5.413
  951CLR    C1947803  11.130  10.057   5.387
  951CLR    C1147804  10.917   9.999   5.181
  951CLR    C1447805  11.028   9.750   5.076
  951CLR    C1247806  10.871   9.939   5.047
  951CLR    C1347807  10.982   9.858   4.975
  951CLR    C1847808  11.093   9.955   4.930
  951CLR    C1547809  11.127   9.669   4.992
  951CLR    C1647810  11.039   9.647   4.869
  951CLR    C1747811  10.937   9.763   4.862
  951CLR    C2047812  10.929   9.823   4.719
  951CLR    C2147813  10.804   9.911   4.702
  951CLR    C2247814  10.923   9.715   4.610
  951CLR    C2347815  10.989   9.762   4.480
  951CLR    C2447816  10.982   9.657   4.368
  951CLR    C2547817  11.053   9.525   4.400
  951CLR    C2647818  11.204   9.541   4.414
  951CLR    C2747819  11.020   9.421   4.293
  952CLR     C147820  14.495  10.697   5.235
  952CLR     C247821  14.566  10.686   5.371
  952CLR     C347822  14.606  10.540   5.397
  952CLR     O147823  14.663  10.526   5.527
  952CLR    HO147824  14.654  10.428   5.558
  952CLR     C447825  14.705  10.492   5.290
  952CLR     C547826  14.655  10.520   5.147
  952CLR     C647827  14.670  10.422   5.057
  952CLR     C747828  14.601  10.427   4.920
  952CLR     C847829  14.552  10.565   4.875
  952CLR     C947830  14.485  10.637   4.994
  952CLR    C1047831  14.581  10.653   5.114
  952CLR    C1947832  14.687  10.761   5.086
  952CLR    C1147833  14.421  10.770   4.946
  952CLR    C1447834  14.451  10.547   4.761
  952CLR    C1247835  14.321  10.746   4.831
  952CLR    C1347836  14.383  10.676   4.709
  952CLR    C1847837  14.477  10.773   4.634
  952CLR    C1547838  14.497  10.478   4.632
  952CLR    C1647839  14.370  10.495   4.549
  952CLR    C1747840  14.282  10.603   4.617
  952CLR    C2047841  14.206  10.681   4.507
  952CLR    C2147842  14.124  10.800   4.558
  952CLR    C2247843  14.111  10.585   4.434
  952CLR    C2347844  14.057  10.636   4.300
  952CLR    C2447845  13.961  10.534   4.237
  952CLR    C2547846  14.028  10.401   4.201
  952CLR    C2647847  14.123  10.414   4.081
  952CLR    C2747848  13.924  10.292   4.175
  953CLR     C147849   1.133  10.759   6.131
  953CLR     C247850   1.143  10.761   6.284
  953CLR     C347851   1.172  10.904   6.333
  953CLR     O147852   1.190  10.903   6.475
  953CLR    HO147853   1.290  10.885   6.497
  953CLR     C447854   1.059  11.000   6.291
  953CLR     C547855   1.026  10.989   6.141
  953CLR     C647856   1.005  11.102   6.072
  953CLR     C747857   0.991  11.102   5.919
  953CLR     C847858   0.957  10.966   5.855
  953CLR     C947859   1.046  10.858   5.920
  953CLR    C1047860   1.022  10.849   6.073
  953CLR    C1947861   0.884  10.787   6.102
  953CLR    C1147862   1.026  10.723   5.847
  953CLR    C1447863   0.980  10.972   5.703
  953CLR    C1247864   1.050  10.735   5.695
  953CLR    C1347865   0.959  10.839   5.627
  953CLR    C1847866   0.813  10.786   5.627
  953CLR    C1547867   0.897  11.071   5.620
  953CLR    C1647868   0.931  11.025   5.478
  953CLR    C1747869   1.004  10.891   5.489
  953CLR    C2047870   0.975  10.797   5.368
  953CLR    C2147871   1.080  10.685   5.360
  953CLR    C2247872   0.976  10.871   5.233
  953CLR    C2347873   0.925  10.783   5.118
  953CLR    C2447874   0.928  10.859   4.985
  953CLR    C2547875   0.884  10.770   4.868
  953CLR    C2647876   0.987  10.661   4.836
  953CLR    C2747877   0.856  10.855   4.744
  954CLR     C147878   3.719  10.001   6.049
  954CLR     C247879   3.717  10.006   6.203
  954CLR     C347880   3.591  10.078   6.253
  954CLR     O147881   3.589  10.084   6.396
  954CLR    HO147882   3.633  10.172   6.428
  954CLR     C447883   3.464  10.006   6.203
  954CLR     C547884   3.468   9.981   6.052
  954CLR     C647885   3.358  10.012   5.982
  954CLR     C747886   3.357  10.012   5.829
  954CLR     C847887   3.467   9.925   5.765
  954CLR     C947888   3.602   9.959   5.832
  954CLR    C1047889   3.598   9.929   5.985
  954CLR    C1947890   3.609   9.778   6.011
  954CLR    C1147891   3.717   9.888   5.757
  954CLR    C1447892   3.472   9.954   5.614
  954CLR    C1247893   3.716   9.916   5.606
  954CLR    C1347894   3.583   9.878   5.537
  954CLR    C1847895   3.567   9.724   5.537
  954CLR    C1547896   3.348   9.923   5.530
  954CLR    C1647897   3.405   9.958   5.392
  954CLR    C1747898   3.558   9.942   5.398
  954CLR    C2047899   3.611   9.866   5.274
  954CLR    C2147900   3.765   9.868   5.265
  954CLR    C2247901   3.554   9.924   5.143
  954CLR    C2347902   3.583   9.839   5.019
  954CLR    C2447903   3.519   9.903   4.896
  954CLR    C2547904   3.554   9.830   4.766
  954CLR    C2647905   3.702   9.842   4.731
  954CLR    C2747906   3.468   9.883   4.651
  955CLR     C147907   7.011   9.424   5.650
  955CLR     C247908   7.056   9.384   5.791
  955CLR     C347909   7.150   9.262   5.787
  955CLR     O147910   7.187   9.225   5.920
  955CLR    HO147911   7.217   9.312   5.969
  955CLR     C447912   7.273   9.292   5.701
  955CLR     C547913   7.236   9.351   5.564
  955CLR     C647914   7.296   9.298   5.456
  955CLR     C747915   7.250   9.333   5.314
  955CLR     C847916   7.173   9.465   5.302
  955CLR     C947917   7.064   9.470   5.412
  955CLR    C1047918   7.126   9.460   5.554
  955CLR    C1947919   7.189   9.594   5.597
  955CLR    C1147920   6.974   9.594   5.391
  955CLR    C1447921   7.109   9.475   5.162
  955CLR    C1247922   6.917   9.604   5.249
  955CLR    C1347923   7.025   9.603   5.139
  955CLR    C1847924   7.107   9.734   5.146
  955CLR    C1547925   7.201   9.472   5.040
  955CLR    C1647926   7.100   9.505   4.930
  955CLR    C1747927   6.976   9.570   4.995
  955CLR    C2047928   6.925   9.689   4.909
  955CLR    C2147929   6.789   9.741   4.957
  955CLR    C2247930   6.912   9.650   4.761
  955CLR    C2347931   6.890   9.769   4.667
  955CLR    C2447932   6.889   9.721   4.521
  955CLR    C2547933   6.874   9.836   4.421
  955CLR    C2647934   6.735   9.901   4.428
  955CLR    C2747935   6.902   9.787   4.280
  956CLR     C147936  10.531  10.124   5.781
  956CLR     C247937  10.567  10.119   5.931
  956CLR     C347938  10.441  10.091   6.014
  956CLR     O147939  10.467  10.096   6.155
  956CLR    HO147940  10.375  10.103   6.202
  956CLR     C447941  10.380   9.956   5.976
  956CLR     C547942  10.360   9.941   5.824
  956CLR     C647943  10.246   9.887   5.782
  956CLR     C747944  10.206   9.887   5.633
  956CLR     C847945  10.324   9.906   5.536
  956CLR     C947946  10.411  10.023   5.585
  956CLR    C1047947  10.469   9.993   5.726
  956CLR    C1947948  10.579   9.885   5.717
  956CLR    C1147949  10.519  10.057   5.479
  956CLR    C1447950  10.270   9.934   5.394
  956CLR    C1247951  10.461  10.078   5.337
  956CLR    C1347952  10.378   9.959   5.286
  956CLR    C1847953  10.471   9.837   5.263
  956CLR    C1547954  10.181   9.831   5.325
  956CLR    C1647955  10.154   9.916   5.202
  956CLR    C1747956  10.285   9.989   5.166
  956CLR    C2047957  10.333   9.951   5.024
  956CLR    C2147958  10.448  10.041   4.977
  956CLR    C2247959  10.219   9.963   4.921
  956CLR    C2347960  10.243   9.881   4.794
  956CLR    C2447961  10.121   9.893   4.702
  956CLR    C2547962  10.131   9.803   4.578
  956CLR    C2647963  10.019   9.837   4.480
  956CLR    C2747964  10.121   9.655   4.616
  957CLR     C147965  15.095  11.465   5.096
  957CLR     C247966  15.069  11.426   5.242
  957CLR     C347967  15.171  11.494   5.334
  957CLR     O147968  15.158  11.451   5.470
  957CLR    HO147969  15.058  11.449   5.497
  957CLR     C447970  15.158  11.647   5.323
  957CLR     C547971  15.164  11.694   5.176
  957CLR     C647972  15.243  11.798   5.147
  957CLR     C747973  15.273  11.839   5.002
  957CLR     C847974  15.171  11.788   4.898
  957CLR     C947975  15.144  11.639   4.924
  957CLR    C1047976  15.086  11.616   5.067
  957CLR    C1947977  14.938  11.660   5.073
  957CLR    C1147978  15.056  11.580   4.811
  957CLR    C1447979  15.227  11.810   4.756
  957CLR    C1247980  15.115  11.606   4.671
  957CLR    C1347981  15.137  11.756   4.641
  957CLR    C1847982  15.001  11.827   4.628
  957CLR    C1547983  15.256  11.953   4.710
  957CLR    C1647984  15.292  11.925   4.564
  957CLR    C1747985  15.234  11.788   4.525
  957CLR    C2047986  15.176  11.792   4.381
  957CLR    C2147987  15.126  11.656   4.333
  957CLR    C2247988  15.282  11.842   4.281
  957CLR    C2347989  15.229  11.868   4.139
  957CLR    C2447990  15.343  11.916   4.048
  957CLR    C2547991  15.299  11.944   3.904
  957CLR    C2647992  15.262  11.815   3.830
  957CLR    C2747993  15.409  12.018   3.829
  958CLR     C147994   1.851  10.310   5.937
  958CLR     C247995   1.912  10.245   6.062
  958CLR     C347996   1.809  10.157   6.135
  958CLR     O147997   1.871  10.094   6.248
  958CLR    HO147998   1.965  10.058   6.218
  958CLR     C447999   1.753  10.049   6.042
  958CLR     C548000   1.708  10.105   5.906
  958CLR     C648001   1.589  10.066   5.859
  958CLR     C748002   1.526  10.131   5.735
  958CLR     C848003   1.627  10.201   5.642
  958CLR     C948004   1.718  10.292   5.727
  958CLR    C1048005   1.797  10.210   5.833
  958CLR    C1948006   1.914  10.134   5.768
  958CLR    C1148007   1.809  10.376   5.635
  958CLR    C1448008   1.550  10.285   5.538
  958CLR    C1248009   1.730  10.455   5.529
  958CLR    C1348010   1.640  10.366   5.441
  958CLR    C1848011   1.727  10.279   5.347
  958CLR    C1548012   1.455  10.213   5.442
  958CLR    C1648013   1.416  10.332   5.354
  958CLR    C1748014   1.525  10.440   5.368
  958CLR    C2048015   1.552  10.504   5.230
  958CLR    C2148016   1.665  10.608   5.229
  958CLR    C2248017   1.424  10.572   5.177
  958CLR    C2348018   1.425  10.599   5.026
  958CLR    C2448019   1.404  10.470   4.946
  958CLR    C2548020   1.408  10.494   4.795
  958CLR    C2648021   1.361  10.369   4.720
  958CLR    C2748022   1.549  10.530   4.749
  959CLR     C148023   5.459  10.695   5.414
  959CLR     C248024   5.461  10.758   5.555
  959CLR     C348025   5.606  10.772   5.605
  959CLR     O148026   5.612  10.827   5.737
  959CLR    HO148027   5.552  10.910   5.741
  959CLR     C448028   5.688  10.860   5.510
  959CLR     C548029   5.675  10.814   5.364
  959CLR     C648030   5.788  10.804   5.293
  959CLR     C748031   5.789  10.742   5.153
  959CLR     C848032   5.653  10.745   5.083
  959CLR     C948033   5.546  10.687   5.179
  959CLR    C1048034   5.536  10.775   5.307
  959CLR    C1948035   5.459  10.905   5.277
  959CLR    C1148036   5.412  10.668   5.105
  959CLR    C1448037   5.660  10.666   4.951
  959CLR    C1248038   5.426  10.593   4.970
  959CLR    C1348039   5.527  10.659   4.874
  959CLR    C1848040   5.473  10.798   4.831
  959CLR    C1548041   5.757  10.713   4.842
  959CLR    C1648042   5.723  10.606   4.739
  959CLR    C1748043   5.573  10.572   4.754
  959CLR    C2048044   5.492  10.593   4.623
  959CLR    C2148045   5.369  10.502   4.623
  959CLR    C2248046   5.571  10.563   4.495
  959CLR    C2348047   5.516  10.643   4.377
  959CLR    C2448048   5.607  10.632   4.255
  959CLR    C2548049   5.566  10.728   4.142
  959CLR    C2648050   5.648  10.699   4.016
  959CLR    C2748051   5.586  10.874   4.183
  960CLR     C148052   7.866  11.364   5.859
  960CLR     C248053   7.907  11.325   6.002
  960CLR     C348054   7.924  11.173   6.012
  960CLR     O148055   7.955  11.129   6.145
  960CLR    HO148056   8.009  11.041   6.135
  960CLR     C448057   8.033  11.124   5.915
  960CLR     C548058   8.011  11.176   5.772
  960CLR     C648059   8.026  11.088   5.673
  960CLR     C748060   7.988  11.122   5.528
  960CLR     C848061   7.979  11.272   5.499
  960CLR     C948062   7.896  11.340   5.611
  960CLR    C1048063   7.966  11.323   5.748
  960CLR    C1948064   8.091  11.413   5.758
  960CLR    C1148065   7.865  11.487   5.573
  960CLR    C1448066   7.915  11.293   5.361
  960CLR    C1248067   7.803  11.501   5.433
  960CLR    C1348068   7.892  11.441   5.322
  960CLR    C1848069   8.022  11.524   5.311
  960CLR    C1548070   7.989  11.240   5.238
  960CLR    C1648071   7.890  11.288   5.132
  960CLR    C1748072   7.825  11.418   5.184
  960CLR    C2048073   7.836  11.536   5.085
  960CLR    C2148074   7.719  11.633   5.107
  960CLR    C2248075   7.835  11.495   4.937
  960CLR    C2348076   7.895  11.604   4.847
  960CLR    C2448077   7.921  11.550   4.707
  960CLR    C2548078   7.992  11.653   4.618
  960CLR    C2648079   7.899  11.766   4.575
  960CLR    C2748080   8.053  11.584   4.496
  961CLR     C148081  12.690  11.877   5.698
  961CLR     C248082  12.637  11.876   5.843
  961CLR     C348083  12.749  11.846   5.943
  961CLR     O148084  12.698  11.846   6.076
  961CLR    HO148085  12.641  11.761   6.090
  961CLR     C448086  12.864  11.947   5.931
  961CLR     C548087  12.908  11.969   5.785
  961CLR     C648088  13.039  11.974   5.760
  961CLR     C748089  13.093  11.984   5.616
  961CLR     C848090  12.990  12.039   5.516
  961CLR     C948091  12.859  11.959   5.531
  961CLR    C1048092  12.800  11.982   5.673
  961CLR    C1948093  12.739  12.124   5.683
  961CLR    C1148094  12.760  11.993   5.418
  961CLR    C1448095  13.046  12.035   5.372
  961CLR    C1248096  12.823  11.990   5.277
  961CLR    C1348097  12.946  12.083   5.265
  961CLR    C1848098  12.901  12.231   5.281
  961CLR    C1548099  13.169  12.119   5.340
  961CLR    C1648100  13.176  12.098   5.189
  961CLR    C1748101  13.035  12.062   5.140
  961CLR    C2048102  12.995  12.144   5.014
  961CLR    C2148103  12.872  12.083   4.946
  961CLR    C2248104  13.107  12.152   4.909
  961CLR    C2348105  13.078  12.258   4.802
  961CLR    C2448106  13.189  12.262   4.697
  961CLR    C2548107  13.162  12.366   4.587
  961CLR    C2648108  13.039  12.331   4.503
  961CLR    C2748109  13.285  12.381   4.497
  962CLR     C148110  16.403  11.525   5.984
  962CLR     C248111  16.397  11.489   6.134
  962CLR     C348112  16.354  11.343   6.149
  962CLR     O148113  16.332  11.309   6.286
  962CLR    HO148114  16.292  11.215   6.288
  962CLR     C448115  16.458  11.250   6.085
  962CLR     C548116  16.488  11.290   5.940
  962CLR     C648117  16.492  11.193   5.848
  962CLR     C748118  16.493  11.223   5.698
  962CLR     C848119  16.539  11.364   5.660
  962CLR     C948120  16.470  11.466   5.753
  962CLR    C1048121  16.502  11.440   5.902
  962CLR    C1948122  16.646  11.486   5.936
  962CLR    C1148123  16.502  11.611   5.708
  962CLR    C1448124  16.504  11.393   5.512
  962CLR    C1248125  16.470  11.634   5.559
  962CLR    C1348126  16.543  11.535   5.465
  962CLR    C1848127  16.695  11.564   5.468
  962CLR    C1548128  16.566  11.304   5.404
  962CLR    C1648129  16.535  11.384   5.278
  962CLR    C1748130  16.487  11.524   5.321
  962CLR    C2048131  16.532  11.635   5.223
  962CLR    C2148132  16.457  11.767   5.248
  962CLR    C2248133  16.511  11.598   5.075
  962CLR    C2348134  16.576  11.698   4.980
  962CLR    C2448135  16.555  11.660   4.833
  962CLR    C2548136  16.608  11.766   4.736
  962CLR    C2648137  16.570  11.731   4.593
  962CLR    C2748138  16.760  11.782   4.746
  963CLR     C148139   1.817  11.786   6.191
  963CLR     C248140   1.799  11.771   6.343
  963CLR     C348141   1.889  11.658   6.397
  963CLR     O148142   1.869  11.640   6.537
  963CLR    HO148143   1.872  11.734   6.581
  963CLR     C448144   2.037  11.689   6.368
  963CLR     C548145   2.061  11.724   6.221
  963CLR     C648146   2.165  11.665   6.160
  963CLR     C748147   2.185  11.674   6.008
  963CLR     C848148   2.113  11.792   5.941
  963CLR     C948149   1.967  11.797   5.992
  963CLR    C1048150   1.962  11.817   6.146
  963CLR    C1948151   1.996  11.963   6.183
  963CLR    C1148152   1.886  11.902   5.914
  963CLR    C1448153   2.118  11.777   5.787
  963CLR    C1248154   1.896  11.883   5.761
  963CLR    C1348155   2.042  11.886   5.710
  963CLR    C1848156   2.100  12.028   5.728
  963CLR    C1548157   2.255  11.776   5.719
  963CLR    C1648158   2.213  11.787   5.572
  963CLR    C1748159   2.065  11.830   5.567
  963CLR    C2048160   2.037  11.926   5.449
  963CLR    C2148161   1.886  11.947   5.427
  963CLR    C2248162   2.098  11.876   5.317
  963CLR    C2348163   2.089  11.978   5.203
  963CLR    C2448164   2.151  11.922   5.075
  963CLR    C2548165   2.133  12.017   4.956
  963CLR    C2648166   1.987  12.027   4.911
  963CLR    C2748167   2.221  11.972   4.840
  964CLR     C148168   6.016  12.227   5.473
  964CLR     C248169   5.973  12.232   5.620
  964CLR     C348170   5.822  12.259   5.628
  964CLR     O148171   5.778  12.281   5.762
  964CLR    HO148172   5.773  12.190   5.811
  964CLR     C448173   5.745  12.143   5.564
  964CLR     C548174   5.794  12.116   5.420
  964CLR     C648175   5.700  12.102   5.326
  964CLR     C748176   5.735  12.104   5.177
  964CLR     C848177   5.881  12.072   5.144
  964CLR     C948178   5.973  12.153   5.238
  964CLR    C1048179   5.947  12.119   5.387
  964CLR    C1948180   6.007  11.982   5.424
  964CLR    C1148181   6.120  12.137   5.195
  964CLR    C1448182   5.908  12.108   4.996
  964CLR    C1248183   6.142  12.174   5.046
  964CLR    C1348184   6.055  12.091   4.950
  964CLR    C1848185   6.103  11.944   4.949
  964CLR    C1548186   5.830  12.035   4.887
  964CLR    C1648187   5.898  12.096   4.765
  964CLR    C1748188   6.036  12.149   4.807
  964CLR    C2048189   6.144  12.114   4.701
  964CLR    C2148190   6.277  12.185   4.729
  964CLR    C2248191   6.099  12.152   4.560
  964CLR    C2348192   6.186  12.092   4.449
  964CLR    C2448193   6.134  12.136   4.311
  964CLR    C2548194   6.214  12.076   4.196
  964CLR    C2648195   6.173  12.141   4.064
  964CLR    C2748196   6.192  11.924   4.186
  965CLR     C148197   9.414  11.438   5.575
  965CLR     C248198   9.388  11.464   5.725
  965CLR     C348199   9.325  11.341   5.791
  965CLR     O148200   9.300  11.367   5.930
  965CLR    HO148201   9.288  11.278   5.981
  965CLR     C448202   9.415  11.218   5.776
  965CLR     C548203   9.463  11.197   5.631
  965CLR     C648204   9.460  11.072   5.582
  965CLR     C748205   9.491  11.044   5.434
  965CLR     C848206   9.572  11.155   5.365
  965CLR     C948207   9.504  11.291   5.395
  965CLR    C1048208   9.508  11.319   5.547
  965CLR    C1948209   9.651  11.357   5.592
  965CLR    C1148210   9.569  11.403   5.310
  965CLR    C1448211   9.581  11.128   5.214
  965CLR    C1248212   9.581  11.368   5.160
  965CLR    C1348213   9.658  11.237   5.135
  965CLR    C1848214   9.804  11.254   5.183
  965CLR    C1548215   9.649  11.001   5.164
  965CLR    C1648216   9.626  11.028   5.015
  965CLR    C1748217   9.646  11.179   4.991
  965CLR    C2048218   9.765  11.207   4.895
  965CLR    C2148219   9.763  11.353   4.846
  965CLR    C2248220   9.765  11.116   4.772
  965CLR    C2348221   9.902  11.113   4.704
  965CLR    C2448222   9.906  11.013   4.588
  965CLR    C2548223  10.044  11.003   4.524
  965CLR    C2648224  10.038  10.919   4.397
  965CLR    C2748225  10.147  10.942   4.621
  966CLR     C148226  13.591  13.352   5.881
  966CLR     C248227  13.653  13.388   6.017
  966CLR     C348228  13.674  13.259   6.099
  966CLR     O148229  13.717  13.285   6.233
  966CLR    HO148230  13.721  13.387   6.251
  966CLR     C448231  13.771  13.165   6.027
  966CLR     C548232  13.727  13.139   5.882
  966CLR     C648233  13.729  13.012   5.839
  966CLR     C748234  13.667  12.972   5.704
  966CLR     C848235  13.649  13.088   5.604
  966CLR     C948236  13.585  13.207   5.677
  966CLR    C1048237  13.675  13.256   5.794
  966CLR    C1948238  13.797  13.332   5.740
  966CLR    C1148239  13.549  13.319   5.576
  966CLR    C1448240  13.561  13.043   5.486
  966CLR    C1248241  13.465  13.268   5.458
  966CLR    C1348242  13.533  13.153   5.381
  966CLR    C1848243  13.661  13.204   5.310
  966CLR    C1548244  13.609  12.927   5.397
  966CLR    C1648245  13.493  12.928   5.297
  966CLR    C1748246  13.440  13.072   5.287
  966CLR    C2048247  13.433  13.122   5.140
  966CLR    C2148248  13.347  13.248   5.128
  966CLR    C2248249  13.374  13.017   5.044
  966CLR    C2348250  13.414  13.046   4.899
  966CLR    C2448251  13.361  12.938   4.805
  966CLR    C2548252  13.417  12.951   4.663
  966CLR    C2648253  13.365  13.075   4.590
  966CLR    C2748254  13.384  12.824   4.584
  967CLR     C148255  15.543  12.759   5.713
  967CLR     C248256  15.475  12.694   5.834
  967CLR     C348257  15.451  12.544   5.812
  967CLR     O148258  15.392  12.486   5.929
  967CLR    HO148259  15.338  12.560   5.979
  967CLR     C448260  15.584  12.472   5.782
  967CLR     C548261  15.672  12.545   5.679
  967CLR     C648262  15.736  12.471   5.588
  967CLR     C748263  15.814  12.536   5.472
  967CLR     C848264  15.855  12.682   5.498
  967CLR     C948265  15.731  12.759   5.548
  967CLR    C1048266  15.683  12.700   5.683
  967CLR    C1948267  15.780  12.739   5.797
  967CLR    C1148268  15.758  12.911   5.553
  967CLR    C1448269  15.911  12.744   5.368
  967CLR    C1248270  15.815  12.965   5.421
  967CLR    C1348271  15.945  12.894   5.378
  967CLR    C1848272  16.058  12.927   5.478
  967CLR    C1548273  16.040  12.686   5.310
  967CLR    C1648274  16.058  12.783   5.194
  967CLR    C1748275  15.987  12.915   5.230
  967CLR    C2048276  16.078  13.037   5.199
  967CLR    C2148277  16.005  13.170   5.219
  967CLR    C2248278  16.132  13.033   5.055
  967CLR    C2348279  16.239  13.139   5.028
  967CLR    C2448280  16.290  13.129   4.884
  967CLR    C2548281  16.395  13.236   4.852
  967CLR    C2648282  16.335  13.376   4.847
  967CLR    C2748283  16.466  13.203   4.721
  968CLR     C148284   2.804  12.668   5.885
  968CLR     C248285   2.769  12.669   6.035
  968CLR     C348286   2.657  12.770   6.063
  968CLR     O148287   2.624  12.769   6.203
  968CLR    HO148288   2.616  12.865   6.238
  968CLR     C448289   2.531  12.738   5.982
  968CLR     C548290   2.561  12.709   5.833
  968CLR     C648291   2.475  12.760   5.743
  968CLR     C748292   2.504  12.754   5.593
  968CLR     C848293   2.610  12.651   5.550
  968CLR     C948294   2.730  12.658   5.646
  968CLR    C1048295   2.687  12.628   5.793
  968CLR    C1948296   2.657  12.479   5.811
  968CLR    C1148297   2.844  12.567   5.595
  968CLR    C1448298   2.655  12.682   5.406
  968CLR    C1248299   2.884  12.599   5.450
  968CLR    C1348300   2.767  12.590   5.350
  968CLR    C1848301   2.724  12.442   5.334
  968CLR    C1548302   2.552  12.678   5.293
  968CLR    C1648303   2.646  12.711   5.178
  968CLR    C1748304   2.788  12.663   5.215
  968CLR    C2048305   2.851  12.585   5.097
  968CLR    C2148306   2.995  12.542   5.124
  968CLR    C2248307   2.851  12.671   4.969
  968CLR    C2348308   2.886  12.595   4.842
  968CLR    C2448309   2.891  12.690   4.722
  968CLR    C2548310   2.925  12.620   4.591
  968CLR    C2648311   2.958  12.723   4.483
  968CLR    C2748312   2.810  12.531   4.544
  969CLR     C148313   6.565  12.713   5.670
  969CLR     C248314   6.615  12.756   5.809
  969CLR     C348315   6.767  12.745   5.817
  969CLR     O148316   6.813  12.774   5.949
  969CLR    HO148317   6.914  12.748   5.956
  969CLR     C448318   6.832  12.839   5.714
  969CLR     C548319   6.773  12.819   5.573
  969CLR     C648320   6.859  12.812   5.470
  969CLR     C748321   6.814  12.773   5.329
  969CLR     C848322   6.663  12.790   5.304
  969CLR     C948323   6.586  12.727   5.421
  969CLR    C1048324   6.620  12.799   5.554
  969CLR    C1948325   6.553  12.938   5.559
  969CLR    C1148326   6.434  12.722   5.391
  969CLR    C1448327   6.625  12.723   5.170
  969CLR    C1248328   6.403  12.656   5.256
  969CLR    C1348329   6.474  12.725   5.137
  969CLR    C1848330   6.415  12.866   5.116
  969CLR    C1548331   6.687  12.779   5.042
  969CLR    C1648332   6.609  12.697   4.939
  969CLR    C1748333   6.482  12.643   5.006
  969CLR    C2048334   6.359  12.651   4.912
  969CLR    C2148335   6.240  12.570   4.965
  969CLR    C2248336   6.391  12.600   4.770
  969CLR    C2348337   6.281  12.636   4.669
  969CLR    C2448338   6.319  12.590   4.529
  969CLR    C2548339   6.208  12.619   4.428
  969CLR    C2648340   6.083  12.534   4.455
  969CLR    C2748341   6.258  12.596   4.285
  970CLR     C148342  10.248  11.927   6.080
  970CLR     C248343  10.198  11.868   6.213
  970CLR     C348344  10.066  11.933   6.255
  970CLR     O148345  10.021  11.881   6.381
  970CLR    HO148346   9.917  11.874   6.378
  970CLR     C448347   9.959  11.912   6.147
  970CLR     C548348  10.008  11.952   6.007
  970CLR     C648349   9.926  12.027   5.933
  970CLR     C748350   9.973  12.088   5.799
  970CLR     C848351  10.094  12.018   5.737
  970CLR     C948352  10.203  12.000   5.845
  970CLR    C1048353  10.151  11.911   5.961
  970CLR    C1948354  10.147  11.763   5.919
  970CLR    C1148355  10.335  11.950   5.782
  970CLR    C1448356  10.147  12.102   5.619
  970CLR    C1248357  10.381  12.035   5.662
  970CLR    C1348358  10.274  12.045   5.551
  970CLR    C1848359  10.252  11.906   5.487
  970CLR    C1548360  10.057  12.125   5.498
  970CLR    C1648361  10.155  12.209   5.417
  970CLR    C1748362  10.297  12.157   5.446
  970CLR    C2048363  10.371  12.115   5.316
  970CLR    C2148364  10.522  12.097   5.341
  970CLR    C2248365  10.357  12.218   5.202
  970CLR    C2348366  10.378  12.151   5.066
  970CLR    C2448367  10.369  12.252   4.951
  970CLR    C2548368  10.371  12.182   4.815
  970CLR    C2648369  10.400  12.283   4.704
  970CLR    C2748370  10.238  12.113   4.787
  971CLR     C148371  14.646  12.949   5.745
  971CLR     C248372  14.634  12.952   5.899
  971CLR     C348373  14.686  13.087   5.952
  971CLR     O148374  14.691  13.092   6.095
  971CLR    HO148375  14.737  13.180   6.123
  971CLR     C448376  14.601  13.202   5.896
  971CLR     C548377  14.594  13.196   5.743
  971CLR     C648378  14.617  13.309   5.676
  971CLR     C748379  14.632  13.311   5.523
  971CLR     C848380  14.571  13.190   5.451
  971CLR     C948381  14.617  13.062   5.524
  971CLR    C1048382  14.569  13.060   5.671
  971CLR    C1948383  14.418  13.029   5.679
  971CLR    C1148384  14.576  12.937   5.442
  971CLR    C1448385  14.614  13.192   5.303
  971CLR    C1248386  14.623  12.945   5.295
  971CLR    C1348387  14.570  13.070   5.221
  971CLR    C1848388  14.417  13.056   5.201
  971CLR    C1548389  14.569  13.311   5.217
  971CLR    C1648390  14.608  13.260   5.078
  971CLR    C1748391  14.644  13.111   5.091
  971CLR    C2048392  14.607  13.032   4.963
  971CLR    C2148393  14.671  12.893   4.964
  971CLR    C2248394  14.652  13.103   4.834
  971CLR    C2348395  14.602  13.033   4.706
  971CLR    C2448396  14.648  13.104   4.578
  971CLR    C2548397  14.576  13.236   4.551
  971CLR    C2648398  14.429  13.215   4.513
  971CLR    C2748399  14.648  13.313   4.440
  972CLR     C148400   0.586  13.949   5.958
  972CLR     C248401   0.563  13.909   6.105
  972CLR     C348402   0.417  13.866   6.126
  972CLR     O148403   0.389  13.839   6.264
  972CLR    HO148404   0.322  13.910   6.299
  972CLR     C448405   0.383  13.745   6.038
  972CLR     C548406   0.422  13.768   5.891
  972CLR     C648407   0.334  13.732   5.797
  972CLR     C748408   0.354  13.768   5.649
  972CLR     C848409   0.499  13.800   5.611
  972CLR     C948410   0.556  13.900   5.714
  972CLR    C1048411   0.557  13.837   5.856
  972CLR    C1948412   0.668  13.731   5.866
  972CLR    C1148413   0.695  13.952   5.667
  972CLR    C1448414   0.505  13.856   5.468
  972CLR    C1248415   0.694  14.004   5.522
  972CLR    C1348416   0.645  13.899   5.420
  972CLR    C1848417   0.748  13.783   5.412
  972CLR    C1548418   0.459  13.767   5.353
  972CLR    C1648419   0.489  13.862   5.237
  972CLR    C1748420   0.606  13.953   5.280
  972CLR    C2048421   0.720  13.960   5.175
  972CLR    C2148422   0.802  14.088   5.194
  972CLR    C2248423   0.669  13.957   5.030
  972CLR    C2348424   0.780  13.923   4.929
  972CLR    C2448425   0.725  13.900   4.788
  972CLR    C2548426   0.673  14.027   4.720
  972CLR    C2648427   0.587  13.991   4.598
  972CLR    C2748428   0.789  14.116   4.675
  973CLR     C148429   5.649  13.776   5.576
  973CLR     C248430   5.603  13.785   5.722
  973CLR     C348431   5.481  13.696   5.746
  973CLR     O148432   5.436  13.711   5.882
  973CLR    HO148433   5.413  13.619   5.921
  973CLR     C448434   5.514  13.550   5.713
  973CLR     C548435   5.581  13.533   5.575
  973CLR     C648436   5.538  13.434   5.496
  973CLR     C748437   5.581  13.422   5.349
  973CLR     C848438   5.707  13.501   5.310
  973CLR     C948439   5.701  13.641   5.374
  973CLR    C1048440   5.689  13.635   5.529
  973CLR    C1948441   5.823  13.595   5.593
  973CLR    C1148442   5.820  13.727   5.325
  973CLR    C1448443   5.717  13.513   5.157
  973CLR    C1248444   5.827  13.734   5.172
  973CLR    C1348445   5.837  13.595   5.105
  973CLR    C1848446   5.975  13.532   5.136
  973CLR    C1548447   5.727  13.385   5.073
  973CLR    C1648448   5.751  13.446   4.935
  973CLR    C1748449   5.801  13.590   4.954
  973CLR    C2048450   5.914  13.624   4.852
  973CLR    C2148451   5.961  13.770   4.860
  973CLR    C2248452   5.869  13.596   4.708
  973CLR    C2348453   5.982  13.609   4.605
  973CLR    C2448454   5.930  13.584   4.463
  973CLR    C2548455   6.038  13.600   4.356
  973CLR    C2648456   5.977  13.595   4.216
  973CLR    C2748457   6.146  13.493   4.369
  974CLR     C148458   7.717  12.135   5.615
  974CLR     C248459   7.689  12.122   5.765
  974CLR     C348460   7.583  12.224   5.808
  974CLR     O148461   7.563  12.221   5.950
  974CLR    HO148462   7.603  12.135   5.988
  974CLR     C448463   7.451  12.198   5.733
  974CLR     C548464   7.472  12.190   5.581
  974CLR     C648465   7.388  12.258   5.502
  974CLR     C748466   7.414  12.275   5.351
  974CLR     C848467   7.510  12.171   5.290
  974CLR     C948468   7.633  12.158   5.381
  974CLR    C1048469   7.594  12.111   5.524
  974CLR    C1948470   7.559  11.961   5.526
  974CLR    C1148471   7.740  12.068   5.315
  974CLR    C1448472   7.551  12.216   5.148
  974CLR    C1248473   7.775  12.115   5.173
  974CLR    C1348474   7.653  12.122   5.078
  974CLR    C1848475   7.599  11.980   5.050
  974CLR    C1548476   7.444  12.231   5.040
  974CLR    C1648477   7.533  12.257   4.918
  974CLR    C1748478   7.675  12.206   4.950
  974CLR    C2048479   7.737  12.134   4.827
  974CLR    C2148480   7.882  12.088   4.852
  974CLR    C2248481   7.736  12.224   4.702
  974CLR    C2348482   7.780  12.149   4.576
  974CLR    C2448483   7.798  12.244   4.457
  974CLR    C2548484   7.856  12.172   4.334
  974CLR    C2648485   7.999  12.124   4.357
  974CLR    C2748486   7.850  12.262   4.212
  975CLR     C148487   9.706  12.441   5.767
  975CLR     C248488   9.656  12.488   5.905
  975CLR     C348489   9.704  12.630   5.934
  975CLR     O148490   9.668  12.672   6.066
  975CLR    HO148491   9.696  12.599   6.133
  975CLR     C448492   9.650  12.728   5.828
  975CLR     C548493   9.677  12.678   5.685
  975CLR     C648494   9.723  12.767   5.597
  975CLR     C748495   9.769  12.724   5.456
  975CLR     C848496   9.711  12.590   5.409
  975CLR     C948497   9.732  12.486   5.521
  975CLR    C1048498   9.655  12.528   5.650
  975CLR    C1948499   9.504  12.504   5.632
  975CLR    C1148500   9.695  12.345   5.470
  975CLR    C1448501   9.778  12.548   5.277
  975CLR    C1248502   9.763  12.309   5.337
  975CLR    C1348503   9.734  12.410   5.224
  975CLR    C1848504   9.585  12.401   5.185
  975CLR    C1548505   9.760  12.637   5.154
  975CLR    C1648506   9.829  12.549   5.050
  975CLR    C1748507   9.828  12.403   5.101
  975CLR    C2048508   9.788  12.302   4.991
  975CLR    C2148509   9.830  12.159   5.029
  975CLR    C2248510   9.849  12.333   4.854
  975CLR    C2348511   9.774  12.261   4.741
  975CLR    C2448512   9.826  12.306   4.604
  975CLR    C2548513   9.746  12.244   4.489
  975CLR    C2648514   9.813  12.275   4.355
  975CLR    C2748515   9.602  12.295   4.487
  976CLR     C148516  14.213  13.899   5.704
  976CLR     C248517  14.224  13.908   5.857
  976CLR     C348518  14.336  14.005   5.897
  976CLR     O148519  14.357  14.006   6.039
  976CLR    HO148520  14.405  13.919   6.067
  976CLR     C448521  14.305  14.145   5.844
  976CLR     C548522  14.273  14.145   5.694
  976CLR     C648523  14.330  14.238   5.617
  976CLR     C748524  14.322  14.234   5.464
  976CLR     C848525  14.207  14.149   5.408
  976CLR     C948526  14.205  14.014   5.482
  976CLR    C1048527  14.182  14.033   5.634
  976CLR    C1948528  14.035  14.071   5.662
  976CLR    C1148529  14.103  13.918   5.415
  976CLR    C1448530  14.227  14.130   5.256
  976CLR    C1248531  14.129  13.903   5.263
  976CLR    C1348532  14.125  14.037   5.186
  976CLR    C1848533  13.980  14.090   5.183
  976CLR    C1548534  14.226  14.253   5.166
  976CLR    C1648535  14.234  14.185   5.030
  976CLR    C1748536  14.194  14.037   5.047
  976CLR    C2048537  14.113  13.988   4.925
  976CLR    C2148538  14.078  13.838   4.932
  976CLR    C2248539  14.190  14.014   4.794
  976CLR    C2348540  14.114  13.980   4.666
  976CLR    C2448541  14.199  14.014   4.543
  976CLR    C2548542  14.135  13.970   4.411
  976CLR    C2648543  14.233  13.993   4.295
  976CLR    C2748544  14.004  14.043   4.382
  977CLR     C148545   2.009  13.549   5.858
  977CLR     C248546   1.993  13.595   6.005
  977CLR     C348547   1.867  13.682   6.018
  977CLR     O148548   1.855  13.748   6.145
  977CLR    HO148549   1.880  13.686   6.223
  977CLR     C448550   1.744  13.598   5.983
  977CLR     C548551   1.757  13.535   5.843
  977CLR     C648552   1.654  13.548   5.760
  977CLR     C748553   1.665  13.511   5.611
  977CLR     C848554   1.779  13.414   5.578
  977CLR     C948555   1.909  13.463   5.647
  977CLR    C1048556   1.891  13.468   5.801
  977CLR    C1948557   1.895  13.326   5.861
  977CLR    C1148558   2.030  13.379   5.600
  977CLR    C1448559   1.797  13.404   5.425
  977CLR    C1248560   2.040  13.368   5.446
  977CLR    C1348561   1.912  13.312   5.381
  977CLR    C1848562   1.894  13.164   5.423
  977CLR    C1548563   1.680  13.351   5.342
  977CLR    C1648564   1.748  13.349   5.205
  977CLR    C1748565   1.899  13.331   5.228
  977CLR    C2048566   1.964  13.218   5.143
  977CLR    C2148567   2.109  13.255   5.111
  977CLR    C2248568   1.891  13.188   5.010
  977CLR    C2348569   1.940  13.058   4.946
  977CLR    C2448570   1.847  13.010   4.835
  977CLR    C2548571   1.894  12.879   4.770
  977CLR    C2648572   1.798  12.838   4.658
  977CLR    C2748573   1.903  12.764   4.872
  978CLR     C148574   6.164  14.895   5.873
  978CLR     C248575   6.134  14.911   6.023
  978CLR     C348576   6.037  15.028   6.046
  978CLR     O148577   6.011  15.048   6.186
  978CLR    HO148578   5.980  14.960   6.230
  978CLR     C448579   5.905  15.004   5.972
  978CLR     C548580   5.925  14.962   5.825
  978CLR     C648581   5.844  15.016   5.734
  978CLR     C748582   5.867  14.996   5.584
  978CLR     C848583   5.956  14.877   5.546
  978CLR     C948584   6.080  14.877   5.638
  978CLR    C1048585   6.040  14.864   5.787
  978CLR    C1948586   5.992  14.721   5.818
  978CLR    C1148587   6.181  14.770   5.591
  978CLR    C1448588   5.997  14.889   5.398
  978CLR    C1248589   6.218  14.787   5.442
  978CLR    C1348590   6.096  14.781   5.348
  978CLR    C1848591   6.039  14.637   5.344
  978CLR    C1548592   5.887  14.885   5.291
  978CLR    C1648593   5.976  14.890   5.167
  978CLR    C1748594   6.117  14.842   5.207
  978CLR    C2048595   6.179  14.750   5.098
  978CLR    C2148596   6.326  14.717   5.124
  978CLR    C2248597   6.167  14.814   4.958
  978CLR    C2348598   6.209  14.721   4.844
  978CLR    C2448599   6.171  14.783   4.709
  978CLR    C2548600   6.218  14.700   4.589
  978CLR    C2648601   6.183  14.773   4.460
  978CLR    C2748602   6.154  14.561   4.587
  979CLR     C148603   8.059  13.811   5.457
  979CLR     C248604   7.999  13.822   5.599
  979CLR     C348605   8.110  13.847   5.702
  979CLR     O148606   8.057  13.851   5.836
  979CLR    HO148607   8.026  13.948   5.857
  979CLR     C448608   8.185  13.977   5.671
  979CLR     C548609   8.229  13.985   5.524
  979CLR     C648610   8.353  14.029   5.501
  979CLR     C748611   8.415  14.025   5.360
  979CLR     C848612   8.311  14.018   5.247
  979CLR     C948613   8.210  13.906   5.279
  979CLR    C1048614   8.134  13.939   5.411
  979CLR    C1948615   8.030  14.050   5.386
  979CLR    C1148616   8.117  13.881   5.158
  979CLR    C1448617   8.383  13.993   5.113
  979CLR    C1248618   8.194  13.860   5.027
  979CLR    C1348619   8.289  13.977   4.992
  979CLR    C1848620   8.207  14.104   4.958
  979CLR    C1548621   8.483  14.097   5.062
  979CLR    C1648622   8.515  14.035   4.926
  979CLR    C1748623   8.397  13.944   4.886
  979CLR    C2048624   8.360  13.965   4.736
  979CLR    C2148625   8.253  13.866   4.687
  979CLR    C2248626   8.483  13.949   4.646
  979CLR    C2348627   8.460  14.001   4.504
  979CLR    C2448628   8.584  13.979   4.416
  979CLR    C2548629   8.572  14.036   4.274
  979CLR    C2648630   8.552  14.188   4.274
  979CLR    C2748631   8.460  13.968   4.195
  980CLR     C148632  11.388  14.165   5.773
  980CLR     C248633  11.392  14.083   5.903
  980CLR     C348634  11.372  14.175   6.024
  980CLR     O148635  11.387  14.105   6.148
  980CLR    HO148636  11.306  14.045   6.165
  980CLR     C448637  11.234  14.244   6.016
  980CLR     C548638  11.214  14.314   5.880
  980CLR     C648639  11.166  14.438   5.881
  980CLR     C748640  11.161  14.523   5.753
  980CLR     C848641  11.163  14.442   5.622
  980CLR     C948642  11.277  14.339   5.630
  980CLR    C1048643  11.255  14.241   5.749
  980CLR    C1948644  11.145  14.140   5.714
  980CLR    C1148645  11.296  14.269   5.494
  980CLR    C1448646  11.182  14.536   5.502
  980CLR    C1248647  11.311  14.368   5.377
  980CLR    C1348648  11.194  14.467   5.364
  980CLR    C1848649  11.067  14.391   5.319
  980CLR    C1548650  11.074  14.642   5.475
  980CLR    C1648651  11.134  14.701   5.347
  980CLR    C1748652  11.222  14.594   5.280
  980CLR    C2048653  11.194  14.588   5.128
  980CLR    C2148654  11.289  14.494   5.053
  980CLR    C2248655  11.206  14.728   5.064
  980CLR    C2348656  11.140  14.738   4.926
  980CLR    C2448657  11.155  14.880   4.871
  980CLR    C2548658  11.081  14.900   4.738
  980CLR    C2648659  11.124  15.032   4.673
  980CLR    C2748660  10.929  14.901   4.759
  981CLR     C148661  16.083  15.308   5.526
  981CLR     C248662  16.046  15.299   5.675
  981CLR     C348663  15.896  15.270   5.691
  981CLR     O148664  15.859  15.268   5.829
  981CLR    HO148665  15.858  15.363   5.867
  981CLR     C448666  15.860  15.136   5.623
  981CLR     C548667  15.913  15.127   5.479
  981CLR     C648668  15.830  15.078   5.385
  981CLR     C748669  15.865  15.084   5.235
  981CLR     C848670  16.014  15.105   5.202
  981CLR     C948671  16.069  15.216   5.294
  981CLR    C1048672  16.055  15.179   5.445
  981CLR    C1948673  16.157  15.071   5.484
  981CLR    C1148674  16.213  15.253   5.253
  981CLR    C1448675  16.030  15.145   5.054
  981CLR    C1248676  16.222  15.291   5.104
  981CLR    C1348677  16.174  15.179   5.010
  981CLR    C1848678  16.273  15.060   5.014
  981CLR    C1548679  15.986  15.045   4.946
  981CLR    C1648680  16.038  15.117   4.821
  981CLR    C1748681  16.140  15.224   4.865
  981CLR    C2048682  16.256  15.235   4.763
  981CLR    C2148683  16.360  15.342   4.798
  981CLR    C2248684  16.203  15.266   4.622
  981CLR    C2348685  16.310  15.252   4.512
  981CLR    C2448686  16.252  15.290   4.375
  981CLR    C2548687  16.354  15.272   4.262
  981CLR    C2648688  16.470  15.372   4.270
  981CLR    C2748689  16.283  15.283   4.127
  982CLR     C148690   1.801  15.181   5.680
  982CLR     C248691   1.835  15.231   5.822
  982CLR     C348692   1.892  15.117   5.907
  982CLR     O148693   1.917  15.163   6.040
  982CLR    HO148694   1.828  15.193   6.081
  982CLR     C448695   2.019  15.059   5.843
  982CLR     C548696   1.999  15.025   5.695
  982CLR     C648697   2.045  14.907   5.651
  982CLR     C748698   2.015  14.858   5.508
  982CLR     C848699   1.976  14.969   5.410
  982CLR     C948700   1.867  15.057   5.475
  982CLR    C1048701   1.922  15.124   5.603
  982CLR    C1948702   2.018  15.240   5.568
  982CLR    C1148703   1.809  15.157   5.372
  982CLR    C1448704   1.927  14.907   5.277
  982CLR    C1248705   1.763  15.089   5.242
  982CLR    C1348706   1.876  15.009   5.173
  982CLR    C1848707   1.984  15.107   5.120
  982CLR    C1548708   2.027  14.823   5.197
  982CLR    C1648709   1.947  14.804   5.068
  982CLR    C1748710   1.831  14.905   5.067
  982CLR    C2048711   1.806  14.957   4.923
  982CLR    C2148712   1.682  15.046   4.913
  982CLR    C2248713   1.788  14.842   4.823
  982CLR    C2348714   1.806  14.886   4.678
  982CLR    C2448715   1.782  14.770   4.581
  982CLR    C2548716   1.811  14.808   4.435
  982CLR    C2648717   1.718  14.917   4.383
  982CLR    C2748718   1.804  14.684   4.346
  983CLR     C148719   5.559  14.177   5.900
  983CLR     C248720   5.571  14.211   6.050
  983CLR     C348721   5.693  14.301   6.073
  983CLR     O148722   5.717  14.323   6.212
  983CLR    HO148723   5.635  14.375   6.251
  983CLR     C448724   5.676  14.433   5.997
  983CLR     C548725   5.648  14.408   5.848
  983CLR     C648726   5.723  14.475   5.761
  983CLR     C748727   5.727  14.439   5.612
  983CLR     C848728   5.605  14.359   5.562
  983CLR     C948729   5.574  14.245   5.662
  983CLR    C1048730   5.547  14.298   5.805
  983CLR    C1948731   5.405  14.357   5.817
  983CLR    C1148732   5.462  14.156   5.604
  983CLR    C1448733   5.639  14.299   5.424
  983CLR    C1248734   5.499  14.100   5.465
  983CLR    C1348735   5.532  14.208   5.361
  983CLR    C1848736   5.401  14.280   5.319
  983CLR    C1548737   5.672  14.395   5.309
  983CLR    C1648738   5.691  14.290   5.199
  983CLR    C1748739   5.617  14.161   5.240
  983CLR    C2048740   5.544  14.100   5.117
  983CLR    C2148741   5.482  13.963   5.149
  983CLR    C2248742   5.639  14.084   4.998
  983CLR    C2348743   5.568  14.048   4.866
  983CLR    C2448744   5.669  14.042   4.751
  983CLR    C2548745   5.603  14.003   4.618
  983CLR    C2648746   5.555  13.857   4.617
  983CLR    C2748747   5.699  14.028   4.502
  984CLR     C148748   8.351  13.483   5.375
  984CLR     C248749   8.344  13.510   5.527
  984CLR     C348750   8.433  13.413   5.604
  984CLR     O148751   8.423  13.443   5.744
  984CLR    HO148752   8.502  13.401   5.796
  984CLR     C448753   8.579  13.423   5.557
  984CLR     C548754   8.592  13.419   5.404
  984CLR     C648755   8.691  13.346   5.351
  984CLR     C748756   8.703  13.323   5.200
  984CLR     C848757   8.627  13.424   5.112
  984CLR     C948758   8.485  13.443   5.170
  984CLR    C1048759   8.492  13.497   5.315
  984CLR    C1948760   8.534  13.646   5.315
  984CLR    C1148761   8.400  13.529   5.074
  984CLR    C1448762   8.621  13.372   4.967
  984CLR    C1248763   8.401  13.476   4.930
  984CLR    C1348764   8.542  13.462   4.869
  984CLR    C1848765   8.605  13.601   4.848
  984CLR    C1548766   8.752  13.349   4.891
  984CLR    C1648767   8.695  13.315   4.754
  984CLR    C1748768   8.552  13.370   4.745
  984CLR    C2048769   8.527  13.435   4.606
  984CLR    C2148770   8.384  13.487   4.588
  984CLR    C2248771   8.557  13.335   4.493
  984CLR    C2348772   8.560  13.400   4.354
  984CLR    C2448773   8.590  13.296   4.246
  984CLR    C2548774   8.590  13.358   4.105
  984CLR    C2648775   8.449  13.400   4.061
  984CLR    C2748776   8.650  13.260   4.004
  985CLR     C148777  12.408  14.546   5.900
  985CLR     C248778  12.449  14.520   6.046
  985CLR     C348779  12.333  14.457   6.125
  985CLR     O148780  12.373  14.436   6.261
  985CLR    HO148781  12.460  14.382   6.262
  985CLR     C448782  12.289  14.324   6.061
  985CLR     C548783  12.269  14.336   5.908
  985CLR     C648784  12.163  14.274   5.855
  985CLR     C748785  12.128  14.290   5.706
  985CLR     C848786  12.244  14.338   5.618
  985CLR     C948787  12.309  14.461   5.686
  985CLR    C1048788  12.369  14.419   5.823
  985CLR    C1948789  12.495  14.333   5.801
  985CLR    C1148790  12.412  14.528   5.592
  985CLR    C1448791  12.196  14.369   5.475
  985CLR    C1248792  12.357  14.554   5.451
  985CLR    C1348793  12.305  14.427   5.382
  985CLR    C1848794  12.423  14.330   5.354
  985CLR    C1548795  12.139  14.254   5.393
  985CLR    C1648796  12.125  14.323   5.257
  985CLR    C1748797  12.215  14.448   5.257
  985CLR    C2048798  12.286  14.466   5.121
  985CLR    C2148799  12.360  14.600   5.110
  985CLR    C2248800  12.188  14.456   5.003
  985CLR    C2348801  12.258  14.448   4.867
  985CLR    C2448802  12.160  14.426   4.751
  985CLR    C2548803  12.067  14.546   4.724
  985CLR    C2648804  11.958  14.506   4.624
  985CLR    C2748805  12.145  14.666   4.670
  986CLR     C148806  16.868  15.578   5.892
  986CLR     C248807  16.902  15.573   6.042
  986CLR     C348808   0.071  15.567   6.062
  986CLR     O148809   0.100  15.559   6.202
  986CLR    HO148810   0.069  15.648   6.246
  986CLR     C448811   0.137  15.691   6.001
  986CLR     C548812   0.093  15.715   5.855
  986CLR     C648813   0.189  15.740   5.766
  986CLR     C748814   0.161  15.738   5.615
  986CLR     C848815   0.014  15.755   5.574
  986CLR     C948816  16.909  15.667   5.665
  986CLR    C1048817  16.927  15.698   5.816
  986CLR    C1948818  16.852  15.826   5.856
  986CLR    C1148819  16.762  15.674   5.617
  986CLR    C1448820  16.979  15.712   5.427
  986CLR    C1248821  16.748  15.635   5.468
  986CLR    C1348822  16.835  15.720   5.373
  986CLR    C1848823  16.777  15.863   5.363
  986CLR    C1548824   0.077  15.784   5.319
  986CLR    C1648825   0.015  15.720   5.195
  986CLR    C1748826  16.865  15.655   5.235
  986CLR    C2048827  16.762  15.672   5.120
  986CLR    C2148828  16.623  15.615   5.151
  986CLR    C2248829  16.815  15.605   4.992
  986CLR    C2348830  16.730  15.629   4.867
  986CLR    C2448831  16.791  15.554   4.748
  986CLR    C2548832  16.708  15.568   4.619
  986CLR    C2648833  16.766  15.476   4.511
  986CLR    C2748834  16.707  15.712   4.568
  987CLR     C148835   2.492  15.971   5.707
  987CLR     C248836   2.486  16.016   5.854
  987CLR     C348837   2.544  16.158   5.867
  987CLR     O148838   2.552  16.198   6.003
  987CLR    HO148839   2.455  16.217   6.036
  987CLR     C448840   2.461  16.257   5.784
  987CLR     C548841   2.443  16.211   5.639
  987CLR     C648842   2.461  16.301   5.542
  987CLR     C748843   2.469  16.261   5.394
  987CLR     C848844   2.409  16.123   5.360
  987CLR     C948845   2.457  16.021   5.466
  987CLR    C1048846   2.413  16.061   5.609
  987CLR    C1948847   2.263  16.038   5.629
  987CLR    C1148848   2.414  15.879   5.426
  987CLR    C1448849   2.455  16.080   5.219
  987CLR    C1248850   2.462  15.842   5.284
  987CLR    C1348851   2.411  15.939   5.176
  987CLR    C1848852   2.258  15.922   5.158
  987CLR    C1548853   2.415  16.166   5.099
  987CLR    C1648854   2.462  16.077   4.985
  987CLR    C1748855   2.488  15.936   5.042
  987CLR    C2048856   2.451  15.826   4.939
  987CLR    C2148857   2.483  15.684   4.987
  987CLR    C2248858   2.523  15.850   4.805
  987CLR    C2348859   2.491  15.746   4.697
  987CLR    C2448860   2.566  15.777   4.567
  987CLR    C2548861   2.565  15.660   4.467
  987CLR    C2648862   2.648  15.695   4.344
  987CLR    C2748863   2.422  15.623   4.424
  988CLR     C148864   5.596  15.359   5.921
  988CLR     C248865   5.578  15.406   6.066
  988CLR     C348866   5.697  15.492   6.110
  988CLR     O148867   5.684  15.532   6.247
  988CLR    HO148868   5.764  15.496   6.301
  988CLR     C448869   5.710  15.616   6.020
  988CLR     C548870   5.709  15.579   5.871
  988CLR     C648871   5.801  15.637   5.792
  988CLR     C748872   5.823  15.592   5.647
  988CLR     C848873   5.704  15.518   5.584
  988CLR     C948874   5.655  15.410   5.684
  988CLR    C1048875   5.608  15.473   5.818
  988CLR    C1948876   5.471  15.542   5.802
  988CLR    C1148877   5.547  15.321   5.617
  988CLR    C1448878   5.747  15.453   5.451
  988CLR    C1248879   5.594  15.262   5.483
  988CLR    C1348880   5.638  15.369   5.381
  988CLR    C1848881   5.515  15.451   5.334
  988CLR    C1548882   5.795  15.545   5.338
  988CLR    C1648883   5.811  15.440   5.228
  988CLR    C1748884   5.725  15.318   5.263
  988CLR    C2048885   5.652  15.264   5.138
  988CLR    C2148886   5.576  15.133   5.166
  988CLR    C2248887   5.749  15.237   5.022
  988CLR    C2348888   5.682  15.213   4.886
  988CLR    C2448889   5.612  15.338   4.833
  988CLR    C2548890   5.548  15.316   4.695
  988CLR    C2648891   5.499  15.450   4.639
  988CLR    C2748892   5.430  15.219   4.703
  989CLR     C148893   9.477  15.222   5.338
  989CLR     C248894   9.451  15.266   5.483
  989CLR     C348895   9.348  15.380   5.487
  989CLR     O148896   9.329  15.422   5.622
  989CLR    HO148897   9.423  15.444   5.662
  989CLR     C448898   9.215  15.336   5.424
  989CLR     C548899   9.234  15.271   5.286
  989CLR     C648900   9.150  15.305   5.188
  989CLR     C748901   9.171  15.257   5.043
  989CLR     C848902   9.261  15.133   5.029
  989CLR     C948903   9.388  15.157   5.113
  989CLR    C1048904   9.352  15.171   5.263
  989CLR    C1948905   9.310  15.035   5.323
  989CLR    C1148906   9.493  15.046   5.086
  989CLR    C1448907   9.293  15.105   4.881
  989CLR    C1248908   9.519  15.022   4.937
  989CLR    C1348909   9.390  14.987   4.860
  989CLR    C1848910   9.336  14.850   4.909
  989CLR    C1548911   9.177  15.072   4.786
  989CLR    C1648912   9.250  15.012   4.665
  989CLR    C1748913   9.398  14.995   4.706
  989CLR    C2048914   9.471  14.873   4.644
  989CLR    C2148915   9.613  14.914   4.606
  989CLR    C2248916   9.404  14.812   4.519
  989CLR    C2348917   9.461  14.672   4.490
  989CLR    C2448918   9.398  14.608   4.367
  989CLR    C2548919   9.455  14.468   4.341
  989CLR    C2648920   9.603  14.471   4.299
  989CLR    C2748921   9.373  14.396   4.234
  990CLR     C148922  12.943  15.292   5.636
  990CLR     C248923  12.973  15.304   5.786
  990CLR     C348924  13.018  15.170   5.845
  990CLR     O148925  13.043  15.185   5.985
  990CLR    HO148926  13.098  15.104   6.022
  990CLR     C448927  13.144  15.119   5.772
  990CLR     C548928  13.127  15.121   5.619
  990CLR     C648929  13.164  15.012   5.552
  990CLR     C748930  13.136  14.998   5.401
  990CLR     C848931  13.113  15.131   5.328
  990CLR     C948932  13.011  15.214   5.408
  990CLR    C1048933  13.063  15.245   5.551
  990CLR    C1948934  13.170  15.357   5.547
  990CLR    C1148935  12.972  15.341   5.327
  990CLR    C1448936  13.063  15.104   5.185
  990CLR    C1248937  12.928  15.310   5.183
  990CLR    C1348938  13.033  15.231   5.102
  990CLR    C1848939  13.157  15.320   5.076
  990CLR    C1548940  13.153  15.024   5.090
  990CLR    C1648941  13.075  15.039   4.960
  990CLR    C1748942  12.982  15.161   4.974
  990CLR    C2048943  12.980  15.246   4.844
  990CLR    C2148944  12.866  15.350   4.846
  990CLR    C2248945  12.962  15.159   4.718
  990CLR    C2348946  12.980  15.236   4.587
  990CLR    C2448947  12.961  15.147   4.464
  990CLR    C2548948  13.078  15.050   4.438
  990CLR    C2648949  13.202  15.124   4.387
  990CLR    C2748950  13.036  14.942   4.338
  991CLR     C148951   0.081   1.215   2.977
  991CLR     C248952   0.058   1.240   2.827
  991CLR     C348953   0.083   1.387   2.792
  991CLR     O148954   0.058   1.408   2.652
  991CLR    HO148955   0.110   1.491   2.617
  991CLR     C448956   0.227   1.428   2.829
  991CLR     C548957   0.264   1.388   2.973
  991CLR     C648958   0.326   1.479   3.049
  991CLR     C748959   0.350   1.456   3.199
  991CLR     C848960   0.346   1.308   3.243
  991CLR     C948961   0.220   1.243   3.182
  991CLR    C1048962   0.223   1.248   3.026
  991CLR    C1948963   0.323   1.145   2.970
  991CLR    C1148964   0.201   1.100   3.237
  991CLR    C1448965   0.343   1.299   3.397
  991CLR    C1248966   0.201   1.097   3.391
  991CLR    C1348967   0.329   1.156   3.454
  991CLR    C1848968   0.449   1.062   3.424
  991CLR    C1548969   0.463   1.354   3.475
  991CLR    C1648970   0.430   1.303   3.616
  991CLR    C1748971   0.320   1.195   3.603
  991CLR    C2048972   0.340   1.082   3.708
  991CLR    C2148973   0.223   0.982   3.708
  991CLR    C2248974   0.354   1.138   3.850
  991CLR    C2348975   0.396   1.031   3.952
  991CLR    C2448976   0.393   1.085   4.095
  991CLR    C2548977   0.431   0.978   4.198
  991CLR    C2648978   0.327   0.866   4.206
  991CLR    C2748979   0.452   1.042   4.335
  992CLR     C148980   0.026   5.830   2.301
  992CLR     C248981   0.040   5.797   2.152
  992CLR     C348982  16.936   5.892   2.069
  992CLR     O148983  16.942   5.859   1.930
  992CLR    HO148984  16.963   5.758   1.918
  992CLR     C448985  16.980   6.038   2.091
  992CLR     C548986   0.009   6.074   2.240
  992CLR     C648987  16.944   6.193   2.279
  992CLR     C748988  16.934   6.231   2.428
  992CLR     C848989   0.042   6.149   2.521
  992CLR     C948990   0.026   5.999   2.486
  992CLR    C1048991   0.070   5.973   2.339
  992CLR    C1948992   0.224   5.980   2.327
  992CLR    C1148993   0.099   5.911   2.590
  992CLR    C1448994   0.004   6.176   2.668
  992CLR    C1248995   0.056   5.943   2.734
  992CLR    C1348996   0.079   6.091   2.773
  992CLR    C1848997   0.230   6.119   2.784
  992CLR    C1548998   0.021   6.318   2.722
  992CLR    C1648999  16.979   6.294   2.871
  992CLR    C1749000  16.982   6.142   2.896
  992CLR    C2049001   0.053   6.113   3.038
  992CLR    C2149002   0.064   5.964   3.072
  992CLR    C2249003  16.946   6.181   3.143
  992CLR    C2349004   0.010   6.168   3.288
  992CLR    C2449005  16.892   6.235   3.382
  992CLR    C2549006  16.922   6.213   3.530
  992CLR    C2649007  16.808   6.268   3.616
  992CLR    C2749008   0.070   6.279   3.572
  993CLR     C149009   0.561   8.328   2.758
  993CLR     C249010   0.553   8.403   2.624
  993CLR     C349011   0.488   8.541   2.644
  993CLR     O149012   0.474   8.611   2.520
  993CLR    HO149013   0.399   8.567   2.464
  993CLR     C449014   0.569   8.625   2.744
  993CLR     C549015   0.598   8.550   2.874
  993CLR     C649016   0.579   8.615   2.989
  993CLR     C749017   0.584   8.544   3.125
  993CLR     C849018   0.659   8.409   3.124
  993CLR     C949019   0.611   8.327   3.002
  993CLR    C1049020   0.641   8.400   2.869
  993CLR    C1949021   0.791   8.395   2.835
  993CLR    C1149022   0.671   8.184   3.009
  993CLR    C1449023   0.629   8.334   3.255
  993CLR    C1249024   0.640   8.114   3.143
  993CLR    C1349025   0.691   8.192   3.266
  993CLR    C1849026   0.845   8.190   3.269
  993CLR    C1549027   0.671   8.397   3.388
  993CLR    C1649028   0.633   8.283   3.483
  993CLR    C1749029   0.626   8.153   3.401
  993CLR    C2049030   0.689   8.036   3.480
  993CLR    C2149031   0.679   7.901   3.407
  993CLR    C2249032   0.623   8.020   3.618
  993CLR    C2349033   0.700   7.926   3.711
  993CLR    C2449034   0.628   7.911   3.845
  993CLR    C2549035   0.704   7.819   3.942
  993CLR    C2649036   0.708   7.674   3.893
  993CLR    C2749037   0.641   7.825   4.081
  994CLR     C149038  16.898  11.942   3.574
  994CLR     C249039  16.860  11.948   3.425
  994CLR     C349040  16.948  11.852   3.344
  994CLR     O149041  16.923  11.862   3.203
  994CLR    HO149042  16.971  11.947   3.166
  994CLR     C449043  16.927  11.708   3.394
  994CLR     C549044  16.946  11.696   3.546
  994CLR     C649045   0.041  11.597   3.591
  994CLR     C749046   0.084  11.590   3.739
  994CLR     C849047  16.978  11.669   3.836
  994CLR     C949048  16.953  11.809   3.778
  994CLR    C1049049  16.883  11.803   3.639
  994CLR    C1949050  16.734  11.770   3.655
  994CLR    C1149051  16.878  11.896   3.881
  994CLR    C1449052   0.064  11.678   3.974
  994CLR    C1249053  16.951  11.902   4.016
  994CLR    C1349054  16.973  11.763   4.080
  994CLR    C1849055  16.837  11.705   4.126
  994CLR    C1549056   0.095  11.549   4.050
  994CLR    C1649057   0.139  11.607   4.185
  994CLR    C1749058   0.100  11.756   4.189
  994CLR    C2049059   0.064  11.799   4.333
  994CLR    C2149060   0.023  11.946   4.346
  994CLR    C2249061   0.183  11.773   4.428
  994CLR    C2349062   0.157  11.805   4.575
  994CLR    C2449063   0.284  11.783   4.658
  994CLR    C2549064   0.270  11.830   4.803
  994CLR    C2649065   0.260  11.982   4.814
  994CLR    C2749066   0.388  11.779   4.886
  995CLR     C149067  16.681  15.596   2.785
  995CLR     C249068  16.620  15.695   2.683
  995CLR     C349069  16.492  15.636   2.623
  995CLR     O149070  16.437  15.718   2.520
  995CLR    HO149071  16.501  15.715   2.438
  995CLR     C449072  16.388  15.612   2.734
  995CLR     C549073  16.446  15.529   2.849
  995CLR     C649074  16.373  15.426   2.892
  995CLR     C749075  16.432  15.322   2.988
  995CLR     C849076  16.551  15.371   3.071
  995CLR     C949077  16.653  15.438   2.976
  995CLR    C1049078  16.589  15.560   2.903
  995CLR    C1949079  16.578  15.681   2.998
  995CLR    C1149080  16.783  15.471   3.053
  995CLR    C1449081  16.614  15.251   3.145
  995CLR    C1249082  16.840  15.350   3.130
  995CLR    C1349083  16.739  15.287   3.229
  995CLR    C1849084  16.711  15.386   3.344
  995CLR    C1549085  16.527  15.175   3.245
  995CLR    C1649086  16.633  15.079   3.301
  995CLR    C1749087  16.771  15.143   3.279
  995CLR    C2049088  16.862  15.136   3.404
  995CLR    C2149089   0.027  15.139   3.361
  995CLR    C2249090  16.841  15.010   3.489
  995CLR    C2349091  16.908  15.020   3.627
  995CLR    C2449092  16.864  14.905   3.718
  995CLR    C2549093  16.928  14.910   3.857
  995CLR    C2649094  16.886  14.789   3.939
  995CLR    C2749095  16.891  15.037   3.933
  996CLR     C149096   1.815   2.929   2.612
  996CLR     C249097   1.787   2.920   2.461
  996CLR     C349098   1.641   2.880   2.436
  996CLR     O149099   1.613   2.869   2.296
  996CLR    HO149100   1.639   2.776   2.263
  996CLR     C449101   1.544   2.981   2.501
  996CLR     C549102   1.579   3.010   2.648
  996CLR     C649103   1.479   3.017   2.736
  996CLR     C749104   1.505   3.033   2.887
  996CLR     C849105   1.644   3.086   2.923
  996CLR     C949106   1.750   3.009   2.841
  996CLR    C1049107   1.727   3.030   2.689
  996CLR    C1949108   1.767   3.173   2.649
  996CLR    C1149109   1.892   3.046   2.888
  996CLR    C1449110   1.668   3.071   3.075
  996CLR    C1249111   1.910   3.029   3.040
  996CLR    C1349112   1.809   3.113   3.123
  996CLR    C1849113   1.842   3.263   3.106
  996CLR    C1549114   1.575   3.146   3.171
  996CLR    C1649115   1.651   3.134   3.303
  996CLR    C1749116   1.789   3.072   3.271
  996CLR    C2049117   1.898   3.118   3.370
  996CLR    C2149118   2.023   3.029   3.359
  996CLR    C2249119   1.852   3.113   3.517
  996CLR    C2349120   1.956   3.171   3.614
  996CLR    C2449121   1.913   3.155   3.760
  996CLR    C2549122   2.025   3.192   3.858
  996CLR    C2649123   1.985   3.154   4.001
  996CLR    C2749124   2.057   3.342   3.853
  997CLR     C149125   0.915   5.335   2.631
  997CLR     C249126   0.946   5.363   2.483
  997CLR     C349127   0.872   5.262   2.395
  997CLR     O149128   0.911   5.269   2.257
  997CLR    HO149129   0.887   5.363   2.219
  997CLR     C449130   0.720   5.278   2.414
  997CLR     C549131   0.680   5.270   2.562
  997CLR     C649132   0.575   5.193   2.593
  997CLR     C749133   0.541   5.156   2.738
  997CLR     C849134   0.604   5.245   2.846
  997CLR     C949135   0.752   5.272   2.809
  997CLR    C1049136   0.766   5.341   2.671
  997CLR    C1949137   0.723   5.488   2.678
  997CLR    C1149138   0.821   5.347   2.925
  997CLR    C1449139   0.594   5.174   2.983
  997CLR    C1249140   0.808   5.272   3.059
  997CLR    C1349141   0.661   5.248   3.101
  997CLR    C1849142   0.595   5.383   3.137
  997CLR    C1549143   0.456   5.142   3.039
  997CLR    C1649144   0.499   5.082   3.173
  997CLR    C1749145   0.638   5.138   3.208
  997CLR    C2049146   0.644   5.179   3.358
  997CLR    C2149147   0.782   5.229   3.401
  997CLR    C2249148   0.604   5.062   3.449
  997CLR    C2349149   0.585   5.100   3.596
  997CLR    C2449150   0.552   4.977   3.680
  997CLR    C2549151   0.536   5.009   3.829
  997CLR    C2649152   0.528   4.879   3.910
  997CLR    C2749153   0.410   5.092   3.856
  998CLR     C149154   1.774   8.521   2.608
  998CLR     C249155   1.754   8.466   2.466
  998CLR     C349156   1.820   8.328   2.454
  998CLR     O149157   1.802   8.279   2.320
  998CLR    HO149158   1.701   8.260   2.303
  998CLR     C449159   1.760   8.229   2.555
  998CLR     C549160   1.754   8.285   2.697
  998CLR     C649161   1.789   8.205   2.798
  998CLR     C749162   1.806   8.257   2.942
  998CLR     C849163   1.739   8.392   2.971
  998CLR     C949164   1.768   8.488   2.854
  998CLR    C1049165   1.713   8.434   2.720
  998CLR    C1949166   1.560   8.443   2.715
  998CLR    C1149167   1.717   8.630   2.888
  998CLR    C1449168   1.795   8.450   3.103
  998CLR    C1249169   1.777   8.682   3.019
  998CLR    C1349170   1.745   8.591   3.140
  998CLR    C1849171   1.594   8.602   3.173
  998CLR    C1549172   1.772   8.371   3.233
  998CLR    C1649173   1.817   8.474   3.337
  998CLR    C1749174   1.836   8.608   3.264
  998CLR    C2049175   1.803   8.730   3.355
  998CLR    C2149176   1.862   8.859   3.297
  998CLR    C2249177   1.860   8.716   3.497
  998CLR    C2349178   1.796   8.813   3.598
  998CLR    C2449179   1.651   8.775   3.631
  998CLR    C2549180   1.641   8.653   3.724
  998CLR    C2649181   1.503   8.589   3.710
  998CLR    C2749182   1.663   8.695   3.869
  999CLR     C149183   0.841  11.649   3.417
  999CLR     C249184   0.838  11.633   3.264
  999CLR     C349185   0.898  11.756   3.194
  999CLR     O149186   0.890  11.744   3.051
  999CLR    HO149187   0.938  11.823   3.007
  999CLR     C449188   1.043  11.779   3.239
  999CLR     C549189   1.056  11.779   3.393
  999CLR     C649190   1.126  11.878   3.449
  999CLR     C749191   1.130  11.897   3.601
  999CLR     C849192   1.095  11.771   3.682
  999CLR     C949193   0.965  11.711   3.626
  999CLR    C1049194   0.982  11.670   3.476
  999CLR    C1949195   1.062  11.540   3.464
  999CLR    C1149196   0.916  11.595   3.716
  999CLR    C1449197   1.079  11.808   3.831
  999CLR    C1249198   0.906  11.635   3.865
  999CLR    C1349199   1.038  11.690   3.923
  999CLR    C1849200   1.143  11.577   3.931
  999CLR    C1549201   1.200  11.866   3.905
  999CLR    C1649202   1.142  11.871   4.046
  999CLR    C1749203   1.026  11.770   4.055
  999CLR    C2049204   1.033  11.692   4.189
  999CLR    C2149205   0.915  11.596   4.209
  999CLR    C2249206   1.039  11.788   4.309
  999CLR    C2349207   1.062  11.719   4.444
  999CLR    C2449208   1.067  11.823   4.557
  999CLR    C2549209   1.079  11.759   4.696
  999CLR    C2649210   0.949  11.688   4.736
  999CLR    C2749211   1.115  11.865   4.800
 1000CLR     C149212   0.460  16.194   2.927
 1000CLR     C249213   0.448  16.174   2.775
 1000CLR     C349214   0.570  16.097   2.721
 1000CLR     O149215   0.560  16.081   2.579
 1000CLR    HO149216   0.598  16.166   2.534
 1000CLR     C449217   0.583  15.960   2.790
 1000CLR     C549218   0.571  15.968   2.943
 1000CLR     C649219   0.654  15.894   3.016
 1000CLR     C749220   0.661  15.905   3.170
 1000CLR     C849221   0.537  15.970   3.234
 1000CLR     C949222   0.502  16.098   3.155
 1000CLR    C1049223   0.466  16.063   3.008
 1000CLR    C1949224   0.329  15.994   3.001
 1000CLR    C1149225   0.391  16.177   3.228
 1000CLR    C1449226   0.564  16.001   3.382
 1000CLR    C1249227   0.422  16.202   3.377
 1000CLR    C1349228   0.449  16.073   3.456
 1000CLR    C1849229   0.319  15.989   3.463
 1000CLR    C1549230   0.595  15.886   3.478
 1000CLR    C1649231   0.611  15.970   3.605
 1000CLR    C1749232   0.517  16.092   3.594
 1000CLR    C2049233   0.425  16.102   3.718
 1000CLR    C2149234   0.346  16.234   3.720
 1000CLR    C2249235   0.502  16.094   3.851
 1000CLR    C2349236   0.412  16.045   3.965
 1000CLR    C2449237   0.483  16.042   4.101
 1000CLR    C2549238   0.493  16.180   4.167
 1000CLR    C2649239   0.588  16.174   4.287
 1000CLR    C2749240   0.356  16.228   4.214
 1001CLR     C149241   1.890   1.867   2.643
 1001CLR     C249242   1.916   1.783   2.517
 1001CLR     C349243   2.034   1.688   2.538
 1001CLR     O149244   2.059   1.609   2.421
 1001CLR    HO149245   1.990   1.532   2.419
 1001CLR     C449246   2.008   1.595   2.658
 1001CLR     C549247   1.961   1.671   2.783
 1001CLR     C649248   2.018   1.638   2.900
 1001CLR     C749249   1.992   1.719   3.027
 1001CLR     C849250   1.863   1.802   3.024
 1001CLR     C949251   1.858   1.881   2.892
 1001CLR    C1049252   1.857   1.785   2.770
 1001CLR    C1949253   1.718   1.720   2.753
 1001CLR    C1149254   1.741   1.982   2.894
 1001CLR    C1449255   1.859   1.896   3.146
 1001CLR    C1249256   1.741   2.071   3.019
 1001CLR    C1349257   1.738   1.992   3.151
 1001CLR    C1849258   1.601   1.922   3.167
 1001CLR    C1549259   1.857   1.834   3.286
 1001CLR    C1649260   1.847   1.963   3.366
 1001CLR    C1749261   1.781   2.071   3.278
 1001CLR    C2049262   1.670   2.146   3.357
 1001CLR    C2149263   1.614   2.265   3.279
 1001CLR    C2249264   1.722   2.198   3.492
 1001CLR    C2349265   1.609   2.244   3.584
 1001CLR    C2449266   1.663   2.284   3.722
 1001CLR    C2549267   1.551   2.323   3.818
 1001CLR    C2649268   1.484   2.455   3.779
 1001CLR    C2749269   1.605   2.331   3.962
 1002CLR     C149270   1.657   6.109   2.886
 1002CLR     C249271   1.672   6.111   2.733
 1002CLR     C349272   1.696   5.969   2.680
 1002CLR     O149273   1.717   5.970   2.538
 1002CLR    HO149274   1.816   5.990   2.517
 1002CLR     C449275   1.577   5.878   2.715
 1002CLR     C549276   1.542   5.885   2.864
 1002CLR     C649277   1.521   5.769   2.928
 1002CLR     C749278   1.504   5.763   3.080
 1002CLR     C849279   1.462   5.896   3.144
 1002CLR     C949280   1.554   6.008   3.091
 1002CLR    C1049281   1.539   6.022   2.937
 1002CLR    C1949282   1.407   6.092   2.902
 1002CLR    C1149283   1.530   6.139   3.169
 1002CLR    C1449284   1.471   5.884   3.298
 1002CLR    C1249285   1.539   6.120   3.322
 1002CLR    C1349286   1.440   6.013   3.375
 1002CLR    C1849287   1.295   6.064   3.360
 1002CLR    C1549288   1.380   5.781   3.366
 1002CLR    C1649289   1.411   5.815   3.512
 1002CLR    C1749290   1.470   5.958   3.517
 1002CLR    C2049291   1.413   6.035   3.638
 1002CLR    C2149292   1.480   6.172   3.658
 1002CLR    C2249293   1.430   5.954   3.768
 1002CLR    C2349294   1.354   6.012   3.888
 1002CLR    C2449295   1.373   5.928   4.015
 1002CLR    C2549296   1.518   5.926   4.067
 1002CLR    C2649297   1.531   5.830   4.185
 1002CLR    C2749298   1.564   6.066   4.109
 1003CLR     C149299   2.522   9.127   2.936
 1003CLR     C249300   2.517   9.136   2.783
 1003CLR     C349301   2.401   9.052   2.728
 1003CLR     O149302   2.401   9.049   2.585
 1003CLR    HO149303   2.311   9.012   2.549
 1003CLR     C449304   2.267   9.103   2.783
 1003CLR     C549305   2.269   9.113   2.937
 1003CLR     C649306   2.166   9.061   3.005
 1003CLR     C749307   2.170   9.046   3.158
 1003CLR     C849308   2.269   9.139   3.229
 1003CLR     C949309   2.405   9.130   3.157
 1003CLR    C1049310   2.394   9.174   3.008
 1003CLR    C1949311   2.383   9.327   2.998
 1003CLR    C1149312   2.512   9.210   3.236
 1003CLR    C1449313   2.283   9.097   3.377
 1003CLR    C1249314   2.520   9.168   3.383
 1003CLR    C1349315   2.385   9.179   3.459
 1003CLR    C1849316   2.348   9.328   3.477
 1003CLR    C1549317   2.159   9.101   3.467
 1003CLR    C1649318   2.224   9.070   3.602
 1003CLR    C1749319   2.376   9.097   3.590
 1003CLR    C2049320   2.431   9.161   3.720
 1003CLR    C2149321   2.582   9.188   3.716
 1003CLR    C2249322   2.403   9.070   3.842
 1003CLR    C2349323   2.439   9.135   3.976
 1003CLR    C2449324   2.422   9.035   4.091
 1003CLR    C2549325   2.460   9.096   4.227
 1003CLR    C2649326   2.610   9.124   4.238
 1003CLR    C2749327   2.414   9.002   4.340
 1004CLR     C149328   2.372  12.921   3.392
 1004CLR     C249329   2.415  12.818   3.287
 1004CLR     C349330   2.532  12.733   3.338
 1004CLR     O149331   2.571  12.640   3.236
 1004CLR    HO149332   2.509  12.556   3.239
 1004CLR     C449333   2.492  12.659   3.468
 1004CLR     C549334   2.425  12.751   3.571
 1004CLR     C649335   2.461  12.738   3.699
 1004CLR     C749336   2.417  12.838   3.807
 1004CLR     C849337   2.295  12.924   3.771
 1004CLR     C949338   2.311  12.976   3.627
 1004CLR    C1049339   2.324  12.859   3.525
 1004CLR    C1949340   2.187  12.791   3.502
 1004CLR    C1149341   2.199  13.076   3.592
 1004CLR    C1449342   2.284  13.043   3.870
 1004CLR    C1249343   2.191  13.191   3.693
 1004CLR    C1349344   2.172  13.144   3.838
 1004CLR    C1849345   2.028  13.089   3.854
 1004CLR    C1549346   2.264  13.015   4.019
 1004CLR    C1649347   2.229  13.155   4.071
 1004CLR    C1749348   2.211  13.245   3.948
 1004CLR    C2049349   2.111  13.362   3.962
 1004CLR    C2149350   2.166  13.484   3.886
 1004CLR    C2249351   2.082  13.406   4.107
 1004CLR    C2349352   1.967  13.507   4.113
 1004CLR    C2449353   1.930  13.543   4.257
 1004CLR    C2549354   1.819  13.649   4.264
 1004CLR    C2649355   1.795  13.690   4.409
 1004CLR    C2749356   1.688  13.599   4.203
 1005CLR     C149357   2.825  16.331   3.540
 1005CLR     C249358   2.752  16.320   3.405
 1005CLR     C349359   2.701  16.177   3.384
 1005CLR     O149360   2.641  16.163   3.255
 1005CLR    HO149361   2.714  16.180   3.184
 1005CLR     C449362   2.601  16.140   3.495
 1005CLR     C549363   2.657  16.168   3.635
 1005CLR     C649364   2.639  16.073   3.727
 1005CLR     C749365   2.711  16.077   3.863
 1005CLR     C849366   2.764  16.214   3.905
 1005CLR     C949367   2.834  16.281   3.784
 1005CLR    C1049368   2.738  16.297   3.663
 1005CLR    C1949369   2.638  16.412   3.688
 1005CLR    C1149370   2.902  16.413   3.828
 1005CLR    C1449371   2.864  16.197   4.021
 1005CLR    C1249372   2.997  16.394   3.948
 1005CLR    C1349373   2.928  16.329   4.070
 1005CLR    C1849374   2.829  16.429   4.132
 1005CLR    C1549375   2.817  16.131   4.151
 1005CLR    C1649376   2.937  16.159   4.242
 1005CLR    C1749377   3.026  16.261   4.168
 1005CLR    C2049378   3.108  16.354   4.259
 1005CLR    C2149379   3.248  16.295   4.278
 1005CLR    C2249380   3.046  16.385   4.397
 1005CLR    C2349381   3.113  16.501   4.469
 1005CLR    C2449382   3.037  16.533   4.598
 1005CLR    C2549383   3.089  16.657   4.671
 1005CLR    C2649384   3.015  16.675   4.804
 1005CLR    C2749385   3.073  16.784   4.587
 1006CLR     C149386   2.733   2.789   3.097
 1006CLR     C249387   2.728   2.786   2.944
 1006CLR     C349388   2.735   2.929   2.887
 1006CLR     O149389   2.724   2.926   2.745
 1006CLR    HO149390   2.718   3.022   2.705
 1006CLR     C449391   2.867   2.996   2.929
 1006CLR     C549392   2.890   2.987   3.081
 1006CLR     C649393   2.926   3.099   3.143
 1006CLR     C749394   2.925   3.110   3.296
 1006CLR     C849395   2.934   2.975   3.370
 1006CLR     C949396   2.832   2.877   3.308
 1006CLR    C1049397   2.860   2.854   3.157
 1006CLR    C1949398   2.980   2.761   3.137
 1006CLR    C1149399   2.828   2.747   3.392
 1006CLR    C1449400   2.900   2.998   3.518
 1006CLR    C1249401   2.803   2.773   3.542
 1006CLR    C1349402   2.904   2.871   3.606
 1006CLR    C1849403   3.044   2.806   3.612
 1006CLR    C1549404   2.984   3.095   3.601
 1006CLR    C1649405   2.902   3.082   3.728
 1006CLR    C1749406   2.859   2.934   3.740
 1006CLR    C2049407   2.912   2.869   3.870
 1006CLR    C2149408   2.839   2.738   3.900
 1006CLR    C2249409   2.895   2.962   3.992
 1006CLR    C2349410   2.992   2.929   4.105
 1006CLR    C2449411   2.996   3.046   4.204
 1006CLR    C2549412   3.098   3.025   4.315
 1006CLR    C2649413   3.050   2.924   4.419
 1006CLR    C2749414   3.132   3.159   4.381
 1007CLR     C149415   2.073   6.299   2.908
 1007CLR     C249416   2.142   6.274   2.772
 1007CLR     C349417   2.038   6.284   2.660
 1007CLR     O149418   2.091   6.243   2.533
 1007CLR    HO149419   2.124   6.324   2.480
 1007CLR     C449420   1.977   6.425   2.655
 1007CLR     C549421   1.926   6.470   2.793
 1007CLR     C649422   1.806   6.529   2.797
 1007CLR     C749423   1.736   6.559   2.930
 1007CLR     C849424   1.828   6.561   3.053
 1007CLR     C949425   1.919   6.437   3.049
 1007CLR    C1049426   2.008   6.438   2.921
 1007CLR    C1949427   2.119   6.544   2.935
 1007CLR    C1149428   1.999   6.424   3.180
 1007CLR    C1449429   1.742   6.563   3.182
 1007CLR    C1249430   1.908   6.427   3.304
 1007CLR    C1349431   1.822   6.554   3.314
 1007CLR    C1849432   1.913   6.676   3.342
 1007CLR    C1549433   1.651   6.683   3.205
 1007CLR    C1649434   1.606   6.655   3.348
 1007CLR    C1749435   1.698   6.547   3.407
 1007CLR    C2049436   1.721   6.571   3.559
 1007CLR    C2149437   1.800   6.457   3.625
 1007CLR    C2249438   1.588   6.587   3.634
 1007CLR    C2349439   1.602   6.627   3.781
 1007CLR    C2449440   1.465   6.642   3.847
 1007CLR    C2549441   1.474   6.670   3.997
 1007CLR    C2649442   1.522   6.547   4.075
 1007CLR    C2749443   1.340   6.718   4.051
 1008CLR     C149444   2.050  10.533   3.305
 1008CLR     C249445   2.065  10.517   3.152
 1008CLR     C349446   2.196  10.581   3.106
 1008CLR     O149447   2.212  10.581   2.963
 1008CLR    HO149448   2.177  10.491   2.923
 1008CLR     C449449   2.316  10.514   3.172
 1008CLR     C549450   2.301  10.510   3.325
 1008CLR     C649451   2.407  10.548   3.398
 1008CLR     C749452   2.396  10.569   3.550
 1008CLR     C849453   2.279  10.494   3.615
 1008CLR     C949454   2.151  10.522   3.534
 1008CLR    C1049455   2.165  10.471   3.388
 1008CLR    C1949456   2.153  10.317   3.384
 1008CLR    C1149457   2.027  10.466   3.609
 1008CLR    C1449458   2.265  10.540   3.762
 1008CLR    C1249459   2.020  10.513   3.756
 1008CLR    C1349460   2.146  10.477   3.838
 1008CLR    C1849461   2.156  10.324   3.855
 1008CLR    C1549462   2.381  10.513   3.858
 1008CLR    C1649463   2.316  10.567   3.985
 1008CLR    C1749464   2.163  10.555   3.971
 1008CLR    C2049465   2.100  10.493   4.098
 1008CLR    C2149466   1.947  10.495   4.095
 1008CLR    C2249467   2.146  10.567   4.225
 1008CLR    C2349468   2.116  10.490   4.354
 1008CLR    C2449469   2.166  10.567   4.476
 1008CLR    C2549470   2.143  10.491   4.607
 1008CLR    C2649471   2.173  10.582   4.726
 1008CLR    C2749472   2.232  10.367   4.615
 1009CLR     C149473   2.107  13.746   3.370
 1009CLR     C249474   2.055  13.698   3.233
 1009CLR     C349475   1.948  13.795   3.181
 1009CLR     O149476   1.892  13.753   3.056
 1009CLR    HO149477   1.910  13.653   3.036
 1009CLR     C449478   2.007  13.936   3.165
 1009CLR     C549479   2.079  13.984   3.292
 1009CLR     C649480   2.054  14.109   3.333
 1009CLR     C749481   2.101  14.159   3.471
 1009CLR     C849482   2.218  14.080   3.532
 1009CLR     C949483   2.188  13.929   3.519
 1009CLR    C1049484   2.171  13.886   3.371
 1009CLR    C1949485   2.307  13.881   3.299
 1009CLR    C1149486   2.294  13.847   3.596
 1009CLR    C1449487   2.234  14.120   3.680
 1009CLR    C1249488   2.307  13.892   3.743
 1009CLR    C1349489   2.342  14.042   3.758
 1009CLR    C1849490   2.486  14.067   3.709
 1009CLR    C1549491   2.269  14.266   3.713
 1009CLR    C1649492   2.288  14.252   3.864
 1009CLR    C1749493   2.313  14.104   3.897
 1009CLR    C2049494   2.421  14.090   4.007
 1009CLR    C2149495   2.442  13.944   4.051
 1009CLR    C2249496   2.386  14.171   4.132
 1009CLR    C2349497   2.504  14.186   4.229
 1009CLR    C2449498   2.459  14.257   4.357
 1009CLR    C2549499   2.574  14.281   4.455
 1009CLR    C2649500   2.632  14.151   4.511
 1009CLR    C2749501   2.527  14.372   4.568
 1010CLR     C149502   3.898   0.433   3.275
 1010CLR     C249503   3.843   0.412   3.133
 1010CLR     C349504   3.749   0.290   3.129
 1010CLR     O149505   3.700   0.266   2.996
 1010CLR    HO149506   3.741   0.337   2.933
 1010CLR     C449507   3.632   0.309   3.227
 1010CLR     C549508   3.679   0.351   3.367
 1010CLR     C649509   3.625   0.287   3.472
 1010CLR     C749510   3.680   0.308   3.614
 1010CLR     C849511   3.756   0.439   3.634
 1010CLR     C949512   3.861   0.452   3.521
 1010CLR    C1049513   3.791   0.458   3.383
 1010CLR    C1949514   3.728   0.597   3.360
 1010CLR    C1149515   3.955   0.572   3.548
 1010CLR    C1449516   3.824   0.440   3.773
 1010CLR    C1249517   4.015   0.572   3.691
 1010CLR    C1349518   3.907   0.567   3.801
 1010CLR    C1849519   3.824   0.697   3.798
 1010CLR    C1549520   3.737   0.433   3.898
 1010CLR    C1649521   3.850   0.438   4.000
 1010CLR    C1749522   3.959   0.531   3.943
 1010CLR    C2049523   3.989   0.651   4.037
 1010CLR    C2149524   4.122   0.718   3.999
 1010CLR    C2249525   3.999   0.612   4.185
 1010CLR    C2349526   3.972   0.733   4.275
 1010CLR    C2449527   3.989   0.700   4.423
 1010CLR    C2549528   3.947   0.817   4.512
 1010CLR    C2649529   4.000   0.797   4.654
 1010CLR    C2749530   3.794   0.829   4.517
 1011CLR     C149531   3.618   3.690   2.668
 1011CLR     C249532   3.614   3.715   2.516
 1011CLR     C349533   3.481   3.669   2.455
 1011CLR     O149534   3.480   3.705   2.316
 1011CLR    HO149535   3.504   3.805   2.312
 1011CLR     C449536   3.361   3.737   2.524
 1011CLR     C549537   3.372   3.737   2.677
 1011CLR     C649538   3.260   3.710   2.747
 1011CLR     C749539   3.262   3.697   2.900
 1011CLR     C849540   3.384   3.763   2.967
 1011CLR     C949541   3.511   3.717   2.894
 1011CLR    C1049542   3.508   3.765   2.746
 1011CLR    C1949543   3.534   3.917   2.739
 1011CLR    C1149544   3.638   3.761   2.971
 1011CLR    C1449545   3.387   3.726   3.117
 1011CLR    C1249546   3.634   3.722   3.120
 1011CLR    C1349547   3.510   3.777   3.195
 1011CLR    C1849548   3.521   3.931   3.204
 1011CLR    C1549549   3.271   3.773   3.205
 1011CLR    C1649550   3.323   3.726   3.341
 1011CLR    C1749551   3.476   3.711   3.331
 1011CLR    C2049552   3.545   3.769   3.457
 1011CLR    C2149553   3.695   3.738   3.461
 1011CLR    C2249554   3.483   3.713   3.587
 1011CLR    C2349555   3.526   3.790   3.712
 1011CLR    C2449556   3.459   3.731   3.837
 1011CLR    C2549557   3.492   3.809   3.964
 1011CLR    C2649558   3.640   3.796   4.004
 1011CLR    C2749559   3.402   3.764   4.079
 1012CLR     C149560   3.094   7.507   3.117
 1012CLR     C249561   3.108   7.506   2.964
 1012CLR     C349562   2.981   7.556   2.895
 1012CLR     O149563   3.004   7.563   2.754
 1012CLR    HO149564   3.036   7.470   2.719
 1012CLR     C449565   2.941   7.696   2.945
 1012CLR     C549566   2.953   7.715   3.097
 1012CLR     C649567   2.861   7.790   3.158
 1012CLR     C749568   2.856   7.806   3.311
 1012CLR     C849569   2.987   7.769   3.382
 1012CLR     C949570   3.036   7.633   3.327
 1012CLR    C1049571   3.069   7.647   3.175
 1012CLR    C1949572   3.196   7.733   3.156
 1012CLR    C1149573   3.154   7.579   3.410
 1012CLR    C1449574   2.964   7.763   3.535
 1012CLR    C1249575   3.124   7.577   3.561
 1012CLR    C1349576   3.086   7.715   3.618
 1012CLR    C1849577   3.209   7.809   3.612
 1012CLR    C1549578   2.925   7.893   3.606
 1012CLR    C1649579   2.935   7.848   3.752
 1012CLR    C1749580   3.016   7.716   3.756
 1012CLR    C2049581   3.108   7.710   3.880
 1012CLR    C2149582   3.169   7.570   3.899
 1012CLR    C2249583   3.035   7.747   4.010
 1012CLR    C2349584   3.132   7.765   4.128
 1012CLR    C2449585   3.057   7.806   4.255
 1012CLR    C2549586   3.151   7.822   4.376
 1012CLR    C2649587   3.070   7.849   4.502
 1012CLR    C2749588   3.252   7.935   4.354
 1013CLR     C149589   3.776  10.474   3.338
 1013CLR     C249590   3.773  10.472   3.184
 1013CLR     C349591   3.869  10.577   3.126
 1013CLR     O149592   3.865  10.584   2.983
 1013CLR    HO149593   3.895  10.495   2.943
 1013CLR     C449594   4.013  10.549   3.173
 1013CLR     C549595   4.021  10.530   3.326
 1013CLR     C649596   4.119  10.595   3.390
 1013CLR     C749597   4.127  10.599   3.543
 1013CLR     C849598   4.052  10.485   3.612
 1013CLR     C949599   3.909  10.476   3.552
 1013CLR    C1049600   3.915  10.445   3.400
 1013CLR    C1949601   3.950  10.296   3.376
 1013CLR    C1149602   3.824  10.376   3.634
 1013CLR    C1449603   4.049  10.509   3.764
 1013CLR    C1249604   3.827  10.403   3.785
 1013CLR    C1349605   3.970  10.404   3.845
 1013CLR    C1849606   4.028  10.261   3.840
 1013CLR    C1549607   4.184  10.516   3.837
 1013CLR    C1649608   4.138  10.508   3.983
 1013CLR    C1749609   3.988  10.471   3.983
 1013CLR    C2049610   3.951  10.383   4.106
 1013CLR    C2149611   3.799  10.383   4.128
 1013CLR    C2249612   4.016  10.432   4.237
 1013CLR    C2349613   4.011  10.325   4.347
 1013CLR    C2449614   4.082  10.373   4.474
 1013CLR    C2549615   4.087  10.265   4.583
 1013CLR    C2649616   4.142  10.324   4.713
 1013CLR    C2749617   4.176  10.148   4.539
 1014CLR     C149618   3.226  13.973   3.417
 1014CLR     C249619   3.219  13.918   3.274
 1014CLR     C349620   3.314  14.000   3.186
 1014CLR     O149621   3.300  13.970   3.046
 1014CLR    HO149622   3.355  14.040   2.994
 1014CLR     C449623   3.459  13.981   3.233
 1014CLR     C549624   3.474  14.015   3.383
 1014CLR     C649625   3.576  14.093   3.418
 1014CLR     C749626   3.585  14.155   3.559
 1014CLR     C849627   3.501  14.085   3.666
 1014CLR     C949628   3.360  14.057   3.610
 1014CLR    C1049629   3.365  13.967   3.483
 1014CLR    C1949630   3.396  13.821   3.521
 1014CLR    C1149631   3.268  14.002   3.721
 1014CLR    C1449632   3.492  14.175   3.791
 1014CLR    C1249633   3.264  14.096   3.844
 1014CLR    C1349634   3.403  14.122   3.906
 1014CLR    C1849635   3.455  13.993   3.974
 1014CLR    C1549636   3.621  14.212   3.864
 1014CLR    C1649637   3.562  14.286   3.984
 1014CLR    C1749638   3.413  14.248   3.995
 1014CLR    C2049639   3.374  14.239   4.145
 1014CLR    C2149640   3.230  14.190   4.170
 1014CLR    C2249641   3.390  14.377   4.211
 1014CLR    C2349642   3.381  14.378   4.364
 1014CLR    C2449643   3.506  14.318   4.430
 1014CLR    C2549644   3.500  14.325   4.583
 1014CLR    C2649645   3.503  14.469   4.635
 1014CLR    C2749646   3.615  14.245   4.643
 1015CLR     C149647   4.541   1.471   3.073
 1015CLR     C249648   4.529   1.444   2.922
 1015CLR     C349649   4.466   1.306   2.897
 1015CLR     O149650   4.460   1.279   2.756
 1015CLR    HO149651   4.387   1.337   2.712
 1015CLR     C449652   4.326   1.299   2.960
 1015CLR     C549653   4.324   1.346   3.106
 1015CLR     C649654   4.254   1.274   3.195
 1015CLR     C749655   4.260   1.303   3.346
 1015CLR     C849656   4.310   1.444   3.382
 1015CLR     C949657   4.437   1.473   3.300
 1015CLR    C1049658   4.406   1.471   3.147
 1015CLR    C1949659   4.326   1.596   3.107
 1015CLR    C1149660   4.503   1.605   3.346
 1015CLR    C1449661   4.337   1.453   3.534
 1015CLR    C1249662   4.528   1.607   3.498
 1015CLR    C1349663   4.399   1.587   3.580
 1015CLR    C1849664   4.306   1.710   3.562
 1015CLR    C1549665   4.220   1.434   3.630
 1015CLR    C1649666   4.282   1.481   3.762
 1015CLR    C1749667   4.417   1.547   3.729
 1015CLR    C2049668   4.451   1.663   3.827
 1015CLR    C2149669   4.596   1.711   3.811
 1015CLR    C2249670   4.431   1.622   3.974
 1015CLR    C2349671   4.453   1.738   4.072
 1015CLR    C2449672   4.449   1.691   4.217
 1015CLR    C2549673   4.491   1.802   4.314
 1015CLR    C2649674   4.640   1.836   4.301
 1015CLR    C2749675   4.459   1.761   4.458
 1016CLR     C149676   3.228   4.379   2.880
 1016CLR     C249677   3.261   4.344   2.734
 1016CLR     C349678   3.398   4.403   2.695
 1016CLR     O149679   3.426   4.382   2.557
 1016CLR    HO149680   3.417   4.281   2.537
 1016CLR     C449681   3.508   4.344   2.784
 1016CLR     C549682   3.474   4.357   2.933
 1016CLR     C649683   3.570   4.405   3.014
 1016CLR     C749684   3.541   4.445   3.159
 1016CLR     C849685   3.416   4.378   3.219
 1016CLR     C949686   3.298   4.393   3.120
 1016CLR    C1049687   3.330   4.326   2.983
 1016CLR    C1949688   3.316   4.173   2.993
 1016CLR    C1149689   3.168   4.342   3.186
 1016CLR    C1449690   3.382   4.444   3.354
 1016CLR    C1249691   3.140   4.406   3.324
 1016CLR    C1349692   3.256   4.387   3.424
 1016CLR    C1849693   3.269   4.238   3.463
 1016CLR    C1549694   3.485   4.440   3.467
 1016CLR    C1649695   3.402   4.513   3.573
 1016CLR    C1749696   3.253   4.483   3.547
 1016CLR    C2049697   3.183   4.433   3.676
 1016CLR    C2149698   3.031   4.422   3.658
 1016CLR    C2249699   3.210   4.527   3.794
 1016CLR    C2349700   3.167   4.469   3.930
 1016CLR    C2449701   3.196   4.570   4.042
 1016CLR    C2549702   3.158   4.519   4.181
 1016CLR    C2649703   3.007   4.499   4.196
 1016CLR    C2749704   3.208   4.615   4.289
 1017CLR     C149705   4.091   8.089   3.168
 1017CLR     C249706   4.103   8.043   3.022
 1017CLR     C349707   4.157   8.157   2.934
 1017CLR     O149708   4.162   8.115   2.797
 1017CLR    HO149709   4.237   8.046   2.787
 1017CLR     C449710   4.296   8.201   2.983
 1017CLR     C549711   4.299   8.229   3.134
 1017CLR     C649712   4.364   8.338   3.177
 1017CLR     C749713   4.357   8.384   3.323
 1017CLR     C849714   4.316   8.274   3.423
 1017CLR     C949715   4.192   8.201   3.367
 1017CLR    C1049716   4.225   8.133   3.231
 1017CLR    C1949717   4.314   8.009   3.253
 1017CLR    C1149718   4.135   8.102   3.472
 1017CLR    C1449719   4.288   8.335   3.562
 1017CLR    C1249720   4.112   8.168   3.609
 1017CLR    C1349721   4.239   8.233   3.667
 1017CLR    C1849722   4.343   8.123   3.700
 1017CLR    C1549723   4.402   8.404   3.636
 1017CLR    C1649724   4.334   8.430   3.770
 1017CLR    C1749725   4.217   8.331   3.785
 1017CLR    C2049726   4.212   8.269   3.927
 1017CLR    C2149727   4.085   8.186   3.950
 1017CLR    C2249728   4.219   8.376   4.038
 1017CLR    C2349729   4.229   8.317   4.179
 1017CLR    C2449730   4.227   8.426   4.286
 1017CLR    C2549731   4.216   8.368   4.428
 1017CLR    C2649732   4.081   8.302   4.453
 1017CLR    C2749733   4.241   8.477   4.532
 1018CLR     C149734   3.695  11.838   3.173
 1018CLR     C249735   3.732  11.842   3.024
 1018CLR     C349736   3.849  11.939   3.001
 1018CLR     O149737   3.879  11.952   2.861
 1018CLR    HO149738   3.906  11.859   2.825
 1018CLR     C449739   3.972  11.894   3.080
 1018CLR     C549740   3.939  11.868   3.228
 1018CLR     C649741   4.023  11.919   3.319
 1018CLR     C749742   3.989  11.921   3.468
 1018CLR     C849743   3.882  11.819   3.511
 1018CLR     C949744   3.764  11.826   3.413
 1018CLR    C1049745   3.809  11.794   3.267
 1018CLR    C1949746   3.832  11.643   3.250
 1018CLR    C1149747   3.647  11.738   3.464
 1018CLR    C1449748   3.836  11.852   3.655
 1018CLR    C1249749   3.607  11.772   3.609
 1018CLR    C1349750   3.723  11.761   3.709
 1018CLR    C1849751   3.765  11.613   3.726
 1018CLR    C1549752   3.939  11.847   3.768
 1018CLR    C1649753   3.846  11.874   3.886
 1018CLR    C1749754   3.703  11.834   3.845
 1018CLR    C2049755   3.632  11.754   3.958
 1018CLR    C2149756   3.482  11.736   3.931
 1018CLR    C2249757   3.647  11.822   4.095
 1018CLR    C2349758   3.615  11.726   4.211
 1018CLR    C2449759   3.633  11.797   4.346
 1018CLR    C2549760   3.614  11.701   4.464
 1018CLR    C2649761   3.610  11.779   4.595
 1018CLR    C2749762   3.728  11.598   4.471
 1019CLR     C149763   4.803  14.995   3.010
 1019CLR     C249764   4.764  14.947   2.869
 1019CLR     C349765   4.618  14.901   2.867
 1019CLR     O149766   4.582  14.846   2.740
 1019CLR    HO149767   4.575  14.923   2.671
 1019CLR     C449768   4.526  15.018   2.904
 1019CLR     C549769   4.569  15.087   3.035
 1019CLR     C649770   4.474  15.114   3.125
 1019CLR     C749771   4.509  15.163   3.266
 1019CLR     C849772   4.648  15.226   3.280
 1019CLR     C949773   4.751  15.131   3.214
 1019CLR    C1049774   4.720  15.114   3.062
 1019CLR    C1949775   4.760  15.241   2.985
 1019CLR    C1149776   4.895  15.181   3.242
 1019CLR    C1449777   4.681  15.248   3.429
 1019CLR    C1249778   4.921  15.206   3.392
 1019CLR    C1349779   4.822  15.305   3.456
 1019CLR    C1849780   4.843  15.447   3.397
 1019CLR    C1549781   4.593  15.342   3.511
 1019CLR    C1649782   4.670  15.334   3.642
 1019CLR    C1749783   4.817  15.301   3.611
 1019CLR    C2049784   4.909  15.396   3.691
 1019CLR    C2149785   5.059  15.387   3.660
 1019CLR    C2249786   4.890  15.382   3.844
 1019CLR    C2349787   4.939  15.249   3.903
 1019CLR    C2449788   4.922  15.243   4.056
 1019CLR    C2549789   4.776  15.228   4.101
 1019CLR    C2649790   4.765  15.248   4.253
 1019CLR    C2749791   4.721  15.090   4.065
 1020CLR     C149792   4.784   1.157   3.252
 1020CLR     C249793   4.778   1.109   3.106
 1020CLR     C349794   4.909   1.037   3.068
 1020CLR     O149795   4.909   1.004   2.929
 1020CLR    HO149796   4.967   0.921   2.911
 1020CLR     C449797   4.927   0.913   3.157
 1020CLR     C549798   4.916   0.948   3.306
 1020CLR     C649799   5.011   0.900   3.387
 1020CLR     C749800   5.026   0.948   3.532
 1020CLR     C849801   4.901   1.015   3.592
 1020CLR     C949802   4.842   1.114   3.490
 1020CLR    C1049803   4.805   1.045   3.356
 1020CLR    C1949804   4.674   0.965   3.369
 1020CLR    C1149805   4.725   1.192   3.554
 1020CLR    C1449806   4.941   1.090   3.721
 1020CLR    C1249807   4.766   1.261   3.686
 1020CLR    C1349808   4.825   1.164   3.791
 1020CLR    C1849809   4.714   1.069   3.844
 1020CLR    C1549810   5.003   1.012   3.837
 1020CLR    C1649811   5.016   1.127   3.936
 1020CLR    C1749812   4.907   1.232   3.904
 1020CLR    C2049813   4.832   1.275   4.032
 1020CLR    C2149814   4.731   1.388   4.007
 1020CLR    C2249815   4.929   1.322   4.141
 1020CLR    C2349816   4.862   1.340   4.278
 1020CLR    C2449817   4.963   1.391   4.382
 1020CLR    C2549818   4.906   1.405   4.523
 1020CLR    C2649819   4.854   1.273   4.580
 1020CLR    C2749820   4.797   1.513   4.529
 1021CLR     C149821   3.606   6.038   3.003
 1021CLR     C249822   3.657   5.966   2.878
 1021CLR     C349823   3.567   5.999   2.759
 1021CLR     O149824   3.602   5.921   2.644
 1021CLR    HO149825   3.588   5.821   2.668
 1021CLR     C449826   3.572   6.150   2.729
 1021CLR     C549827   3.543   6.233   2.855
 1021CLR     C649828   3.457   6.336   2.842
 1021CLR     C749829   3.403   6.411   2.964
 1021CLR     C849830   3.486   6.396   3.093
 1021CLR     C949831   3.522   6.247   3.112
 1021CLR    C1049832   3.604   6.192   2.991
 1021CLR    C1949833   3.749   6.244   2.996
 1021CLR    C1149834   3.590   6.225   3.248
 1021CLR    C1449835   3.404   6.447   3.213
 1021CLR    C1249836   3.506   6.280   3.365
 1021CLR    C1349837   3.472   6.430   3.351
 1021CLR    C1849838   3.600   6.514   3.370
 1021CLR    C1549839   3.361   6.594   3.215
 1021CLR    C1649840   3.300   6.600   3.355
 1021CLR    C1749841   3.353   6.480   3.437
 1021CLR    C2049842   3.383   6.523   3.583
 1021CLR    C2149843   3.424   6.405   3.672
 1021CLR    C2249844   3.260   6.590   3.647
 1021CLR    C2349845   3.288   6.654   3.783
 1021CLR    C2449846   3.159   6.708   3.844
 1021CLR    C2549847   3.180   6.766   3.985
 1021CLR    C2649848   3.045   6.790   4.052
 1021CLR    C2749849   3.258   6.897   3.980
 1022CLR     C149850   4.676   8.654   3.260
 1022CLR     C249851   4.722   8.643   3.114
 1022CLR     C349852   4.614   8.699   3.019
 1022CLR     O149853   4.653   8.680   2.883
 1022CLR    HO149854   4.571   8.693   2.821
 1022CLR     C449855   4.590   8.847   3.050
 1022CLR     C549856   4.566   8.873   3.200
 1022CLR     C649857   4.466   8.955   3.232
 1022CLR     C749858   4.418   8.971   3.377
 1022CLR     C849859   4.518   8.927   3.485
 1022CLR     C949860   4.578   8.791   3.445
 1022CLR    C1049861   4.650   8.798   3.308
 1022CLR    C1949862   4.785   8.871   3.322
 1022CLR    C1149863   4.667   8.738   3.560
 1022CLR    C1449864   4.445   8.917   3.620
 1022CLR    C1249865   4.592   8.732   3.694
 1022CLR    C1349866   4.532   8.867   3.738
 1022CLR    C1849867   4.645   8.964   3.779
 1022CLR    C1549868   4.380   9.043   3.678
 1022CLR    C1649869   4.335   8.987   3.813
 1022CLR    C1749870   4.417   8.860   3.842
 1022CLR    C2049871   4.454   8.853   3.992
 1022CLR    C2149872   4.527   8.724   4.031
 1022CLR    C2249873   4.328   8.863   4.080
 1022CLR    C2349874   4.358   8.896   4.227
 1022CLR    C2449875   4.229   8.895   4.309
 1022CLR    C2549876   4.250   8.940   4.454
 1022CLR    C2649877   4.343   8.848   4.533
 1022CLR    C2749878   4.114   8.951   4.525
 1023CLR     C149879   4.504  13.461   3.397
 1023CLR     C249880   4.504  13.424   3.248
 1023CLR     C349881   4.364  13.437   3.187
 1023CLR     O149882   4.365  13.398   3.049
 1023CLR    HO149883   4.283  13.440   2.999
 1023CLR     C449884   4.314  13.581   3.202
 1023CLR     C549885   4.325  13.632   3.347
 1023CLR     C649886   4.217  13.689   3.401
 1023CLR     C749887   4.209  13.719   3.552
 1023CLR     C849888   4.344  13.731   3.623
 1023CLR     C949889   4.434  13.612   3.582
 1023CLR    C1049890   4.455  13.605   3.428
 1023CLR    C1949891   4.562  13.706   3.382
 1023CLR    C1149892   4.565  13.615   3.664
 1023CLR    C1449893   4.321  13.726   3.776
 1023CLR    C1249894   4.539  13.617   3.815
 1023CLR    C1349895   4.449  13.734   3.862
 1023CLR    C1849896   4.524  13.868   3.850
 1023CLR    C1549897   4.233  13.833   3.841
 1023CLR    C1649898   4.249  13.791   3.987
 1023CLR    C1749899   4.381  13.712   4.000
 1023CLR    C2049900   4.455  13.755   4.129
 1023CLR    C2149901   4.590  13.686   4.149
 1023CLR    C2249902   4.366  13.727   4.252
 1023CLR    C2349903   4.423  13.778   4.385
 1023CLR    C2449904   4.332  13.738   4.502
 1023CLR    C2549905   4.388  13.782   4.638
 1023CLR    C2649906   4.304  13.722   4.751
 1023CLR    C2749907   4.390  13.934   4.651
 1024CLR     C149908   5.478  16.147   3.029
 1024CLR     C249909   5.477  16.125   2.877
 1024CLR     C349910   5.346  16.178   2.817
 1024CLR     O149911   5.335  16.147   2.678
 1024CLR    HO149912   5.415  16.188   2.628
 1024CLR     C449913   5.335  16.330   2.842
 1024CLR     C549914   5.357  16.365   2.990
 1024CLR     C649915   5.271  16.452   3.045
 1024CLR     C749916   5.269  16.478   3.196
 1024CLR     C849917   5.399  16.440   3.269
 1024CLR     C949918   5.442  16.299   3.225
 1024CLR    C1049919   5.469  16.295   3.072
 1024CLR    C1949920   5.603  16.364   3.038
 1024CLR    C1149921   5.560  16.250   3.311
 1024CLR    C1449922   5.376  16.445   3.422
 1024CLR    C1249923   5.534  16.261   3.462
 1024CLR    C1349924   5.498  16.404   3.507
 1024CLR    C1849925   5.621  16.497   3.487
 1024CLR    C1549926   5.336  16.577   3.488
 1024CLR    C1649927   5.327  16.525   3.631
 1024CLR    C1749928   5.436  16.417   3.648
 1024CLR    C2049929   5.533  16.449   3.765
 1024CLR    C2149930   5.612  16.323   3.806
 1024CLR    C2249931   5.461  16.503   3.890
 1024CLR    C2349932   5.557  16.562   3.994
 1024CLR    C2449933   5.478  16.620   4.112
 1024CLR    C2549934   5.568  16.685   4.217
 1024CLR    C2649935   5.650  16.583   4.296
 1024CLR    C2749936   5.484  16.771   4.312
 1025CLR     C149937   4.798   2.699   3.130
 1025CLR     C249938   4.778   2.654   2.985
 1025CLR     C349939   4.799   2.503   2.973
 1025CLR     O149940   4.789   2.461   2.836
 1025CLR    HO149941   4.827   2.535   2.774
 1025CLR     C449942   4.698   2.428   3.061
 1025CLR     C549943   4.691   2.483   3.205
 1025CLR     C649944   4.685   2.393   3.304
 1025CLR     C749945   4.704   2.434   3.451
 1025CLR     C849946   4.684   2.583   3.482
 1025CLR     C949947   4.755   2.667   3.373
 1025CLR    C1049948   4.701   2.636   3.231
 1025CLR    C1949949   4.561   2.697   3.211
 1025CLR    C1149950   4.750   2.817   3.411
 1025CLR    C1449951   4.743   2.614   3.621
 1025CLR    C1249952   4.809   2.843   3.551
 1025CLR    C1349953   4.739   2.763   3.663
 1025CLR    C1849954   4.596   2.818   3.686
 1025CLR    C1549955   4.685   2.544   3.743
 1025CLR    C1649956   4.770   2.612   3.851
 1025CLR    C1749957   4.820   2.747   3.794
 1025CLR    C2049958   4.809   2.857   3.903
 1025CLR    C2149959   4.858   2.995   3.857
 1025CLR    C2249960   4.891   2.817   4.027
 1025CLR    C2349961   4.859   2.901   4.152
 1025CLR    C2449962   4.950   2.858   4.267
 1025CLR    C2549963   4.917   2.926   4.400
 1025CLR    C2649964   4.942   3.077   4.397
 1025CLR    C2749965   4.997   2.861   4.513
 1026CLR     C149966   5.037   6.150   2.935
 1026CLR     C249967   4.981   6.227   2.813
 1026CLR     C349968   4.840   6.278   2.842
 1026CLR     O149969   4.786   6.347   2.728
 1026CLR    HO149970   4.827   6.442   2.721
 1026CLR     C449971   4.839   6.372   2.964
 1026CLR     C549972   4.912   6.310   3.085
 1026CLR     C649973   4.854   6.322   3.205
 1026CLR     C749974   4.911   6.253   3.329
 1026CLR     C849975   5.060   6.215   3.316
 1026CLR     C949976   5.080   6.140   3.183
 1026CLR    C1049977   5.046   6.235   3.064
 1026CLR    C1949978   5.158   6.340   3.046
 1026CLR    C1149979   5.222   6.079   3.175
 1026CLR    C1449980   5.104   6.131   3.438
 1026CLR    C1249981   5.259   5.997   3.299
 1026CLR    C1349982   5.249   6.079   3.430
 1026CLR    C1849983   5.357   6.190   3.429
 1026CLR    C1549984   5.098   6.196   3.576
 1026CLR    C1649985   5.180   6.098   3.659
 1026CLR    C1749986   5.247   6.000   3.562
 1026CLR    C2049987   5.388   5.951   3.607
 1026CLR    C2149988   5.410   5.808   3.558
 1026CLR    C2249989   5.411   5.953   3.759
 1026CLR    C2349990   5.561   5.948   3.792
 1026CLR    C2449991   5.590   5.966   3.941
 1026CLR    C2549992   5.552   5.846   4.028
 1026CLR    C2649993   5.565   5.882   4.176
 1026CLR    C2749994   5.640   5.724   3.998
 1027CLR     C149995   4.569   9.411   3.195
 1027CLR     C249996   4.511   9.398   3.054
 1027CLR     C349997   4.585   9.489   2.955
 1027CLR     O149998   4.527   9.475   2.824
 1027CLR    HO149999   4.425   9.489   2.831
 1027CLR     C450000   4.735   9.456   2.951
 1027CLR     C550001   4.797   9.444   3.092
 1027CLR     C650002   4.917   9.499   3.113
 1027CLR     C750003   4.981   9.502   3.253
 1027CLR     C850004   4.923   9.400   3.351
 1027CLR     C950005   4.769   9.409   3.346
 1027CLR    C1050006   4.718   9.372   3.204
 1027CLR    C1950007   4.733   9.220   3.180
 1027CLR    C1150008   4.704   9.324   3.458
 1027CLR    C1450009   4.977   9.424   3.494
 1027CLR    C1250010   4.764   9.353   3.597
 1027CLR    C1350011   4.917   9.332   3.601
 1027CLR    C1850012   4.948   9.181   3.582
 1027CLR    C1550013   5.128   9.409   3.516
 1027CLR    C1650014   5.134   9.409   3.669
 1027CLR    C1750015   4.991   9.393   3.722
 1027CLR    C2050016   4.979   9.308   3.852
 1027CLR    C2150017   4.860   9.357   3.936
 1027CLR    C2250018   5.104   9.311   3.941
 1027CLR    C2350019   5.102   9.199   4.045
 1027CLR    C2450020   5.237   9.186   4.116
 1027CLR    C2550021   5.239   9.070   4.215
 1027CLR    C2650022   5.159   9.100   4.341
 1027CLR    C2750023   5.383   9.032   4.249
 1028CLR     C150024   5.316  14.092   3.600
 1028CLR     C250025   5.349  14.064   3.452
 1028CLR     C350026   5.358  14.196   3.374
 1028CLR     O150027   5.377  14.175   3.234
 1028CLR    HO150028   5.368  14.266   3.186
 1028CLR     C450029   5.469  14.284   3.433
 1028CLR     C550030   5.456  14.301   3.585
 1028CLR     C650031   5.471  14.424   3.635
 1028CLR     C750032   5.440  14.457   3.781
 1028CLR     C850033   5.440  14.336   3.875
 1028CLR     C950034   5.357  14.223   3.810
 1028CLR    C1050035   5.419  14.179   3.674
 1028CLR    C1950036   5.547  14.096   3.697
 1028CLR    C1150037   5.338  14.107   3.910
 1028CLR    C1450038   5.380  14.377   4.012
 1028CLR    C1250039   5.282  14.153   4.046
 1028CLR    C1350040   5.368  14.262   4.114
 1028CLR    C1850041   5.503  14.201   4.158
 1028CLR    C1550042   5.452  14.485   4.093
 1028CLR    C1650043   5.365  14.481   4.219
 1028CLR    C1750044   5.298  14.343   4.227
 1028CLR    C2050045   5.307  14.284   4.371
 1028CLR    C2150046   5.217  14.160   4.387
 1028CLR    C2250047   5.266  14.386   4.478
 1028CLR    C2350048   5.294  14.341   4.621
 1028CLR    C2450049   5.254  14.449   4.722
 1028CLR    C2550050   5.275  14.405   4.867
 1028CLR    C2650051   5.177  14.294   4.908
 1028CLR    C2750052   5.262  14.524   4.962
 1029CLR     C150053   6.401   0.123   3.003
 1029CLR     C250054   6.334   0.211   2.897
 1029CLR     C350055   6.251   0.124   2.801
 1029CLR     O150056   6.197   0.203   2.695
 1029CLR    HO150057   6.118   0.261   2.730
 1029CLR     C450058   6.141   0.050   2.878
 1029CLR     C550059   6.196  16.959   3.002
 1029CLR     C650060   6.150  16.836   3.026
 1029CLR     C750061   6.211  16.747   3.136
 1029CLR     C850062   6.292  16.822   3.243
 1029CLR     C950063   6.386  16.921   3.172
 1029CLR    C1050064   6.303   0.043   3.092
 1029CLR    C1950065   6.232   0.140   3.188
 1029CLR    C1150066   6.486  16.982   3.272
 1029CLR    C1450067   6.372  16.719   3.327
 1029CLR    C1250068   6.564  16.874   3.350
 1029CLR    C1350069   6.472  16.779   3.429
 1029CLR    C1850070   6.407  16.858   3.546
 1029CLR    C1550071   6.294  16.620   3.412
 1029CLR    C1650072   6.409  16.553   3.487
 1029CLR    C1750073   6.533  16.644   3.475
 1029CLR    C2050074   6.616  16.645   3.606
 1029CLR    C2150075   6.752  16.713   3.588
 1029CLR    C2250076   6.642  16.502   3.659
 1029CLR    C2350077   6.700  16.499   3.801
 1029CLR    C2450078   6.716  16.355   3.850
 1029CLR    C2550079   6.772  16.348   3.993
 1029CLR    C2650080   6.920  16.387   4.000
 1029CLR    C2750081   6.753  16.208   4.051
 1030CLR     C150082   4.970   3.290   3.036
 1030CLR     C250083   4.878   3.257   2.917
 1030CLR     C350084   4.929   3.132   2.843
 1030CLR     O150085   4.848   3.104   2.728
 1030CLR    HO150086   4.762   3.055   2.755
 1030CLR     C450087   4.931   3.011   2.938
 1030CLR     C550088   5.003   3.042   3.070
 1030CLR     C650089   5.088   2.950   3.117
 1030CLR     C750090   5.179   2.978   3.238
 1030CLR     C850091   5.130   3.092   3.328
 1030CLR     C950092   5.095   3.214   3.240
 1030CLR    C1050093   4.979   3.178   3.142
 1030CLR    C1950094   4.845   3.169   3.217
 1030CLR    C1150095   5.066   3.338   3.327
 1030CLR    C1450096   5.240   3.128   3.431
 1030CLR    C1250097   5.176   3.366   3.431
 1030CLR    C1350098   5.205   3.246   3.524
 1030CLR    C1850099   5.082   3.220   3.614
 1030CLR    C1550100   5.285   3.022   3.531
 1030CLR    C1650101   5.388   3.108   3.604
 1030CLR    C1750102   5.339   3.254   3.603
 1030CLR    C2050103   5.332   3.312   3.746
 1030CLR    C2150104   5.306   3.463   3.745
 1030CLR    C2250105   5.462   3.290   3.825
 1030CLR    C2350106   5.438   3.294   3.977
 1030CLR    C2450107   5.373   3.164   4.027
 1030CLR    C2550108   5.318   3.170   4.170
 1030CLR    C2650109   5.201   3.268   4.183
 1030CLR    C2750110   5.427   3.203   4.273
 1031CLR     C150111   5.480   7.211   3.166
 1031CLR     C250112   5.549   7.221   3.029
 1031CLR     C350113   5.675   7.308   3.038
 1031CLR     O150114   5.735   7.329   2.910
 1031CLR    HO150115   5.667   7.373   2.849
 1031CLR     C450116   5.774   7.244   3.136
 1031CLR     C550117   5.709   7.216   3.272
 1031CLR     C650118   5.773   7.259   3.381
 1031CLR     C750119   5.706   7.259   3.520
 1031CLR     C850120   5.589   7.161   3.534
 1031CLR     C950121   5.495   7.178   3.413
 1031CLR    C1050122   5.568   7.151   3.278
 1031CLR    C1950123   5.584   7.000   3.254
 1031CLR    C1150124   5.367   7.093   3.433
 1031CLR    C1450125   5.514   7.192   3.665
 1031CLR    C1250126   5.297   7.126   3.566
 1031CLR    C1350127   5.386   7.108   3.691
 1031CLR    C1850128   5.413   6.957   3.714
 1031CLR    C1550129   5.589   7.178   3.798
 1031CLR    C1650130   5.473   7.207   3.894
 1031CLR    C1750131   5.341   7.183   3.818
 1031CLR    C2050132   5.237   7.116   3.912
 1031CLR    C2150133   5.103   7.085   3.845
 1031CLR    C2250134   5.212   7.205   4.035
 1031CLR    C2350135   5.120   7.145   4.142
 1031CLR    C2450136   5.110   7.240   4.262
 1031CLR    C2550137   5.011   7.191   4.368
 1031CLR    C2650138   4.866   7.206   4.323
 1031CLR    C2750139   5.034   7.265   4.500
 1032CLR     C150140   7.562  10.369   2.787
 1032CLR     C250141   7.564  10.407   2.638
 1032CLR     C350142   7.422  10.442   2.588
 1032CLR     O150143   7.426  10.478   2.449
 1032CLR    HO150144   7.463  10.397   2.396
 1032CLR     C450145   7.363  10.557   2.670
 1032CLR     C550146   7.377  10.536   2.822
 1032CLR     C650147   7.271  10.564   2.899
 1032CLR     C750148   7.270  10.534   3.049
 1032CLR     C850149   7.410  10.517   3.111
 1032CLR     C950150   7.491  10.421   3.022
 1032CLR    C1050151   7.510  10.481   2.880
 1032CLR    C1950152   7.613  10.596   2.883
 1032CLR    C1150153   7.624  10.381   3.091
 1032CLR    C1450154   7.396  10.464   3.256
 1032CLR    C1250155   7.603  10.329   3.234
 1032CLR    C1350156   7.530  10.430   3.325
 1032CLR    C1850157   7.623  10.551   3.351
 1032CLR    C1550158   7.325  10.553   3.358
 1032CLR    C1650159   7.363  10.484   3.489
 1032CLR    C1750160   7.466  10.375   3.455
 1032CLR    C2050161   7.566  10.344   3.569
 1032CLR    C2150162   7.621  10.202   3.554
 1032CLR    C2250163   7.503  10.353   3.710
 1032CLR    C2350164   7.609  10.355   3.820
 1032CLR    C2450165   7.545  10.363   3.958
 1032CLR    C2550166   7.650  10.371   4.070
 1032CLR    C2650167   7.731  10.242   4.085
 1032CLR    C2750168   7.582  10.405   4.203
 1033CLR     C150169   7.177  14.524   3.002
 1033CLR     C250170   7.197  14.550   2.851
 1033CLR     C350171   7.063  14.580   2.783
 1033CLR     O150172   7.081  14.603   2.642
 1033CLR    HO150173   7.114  14.516   2.598
 1033CLR     C450174   6.995  14.702   2.847
 1033CLR     C550175   6.988  14.690   3.001
 1033CLR     C650176   6.872  14.721   3.060
 1033CLR     C750177   6.850  14.698   3.211
 1033CLR     C850178   6.980  14.687   3.293
 1033CLR     C950179   7.074  14.588   3.221
 1033CLR    C1050180   7.112  14.640   3.080
 1033CLR    C1950181   7.211  14.757   3.090
 1033CLR    C1150182   7.197  14.557   3.310
 1033CLR    C1450183   6.947  14.642   3.437
 1033CLR    C1250184   7.157  14.512   3.452
 1033CLR    C1350185   7.070  14.615   3.527
 1033CLR    C1850186   7.156  14.739   3.560
 1033CLR    C1550187   6.860  14.734   3.523
 1033CLR    C1650188   6.878  14.669   3.660
 1033CLR    C1750189   6.990  14.564   3.649
 1033CLR    C2050190   7.063  14.547   3.785
 1033CLR    C2150191   7.173  14.439   3.782
 1033CLR    C2250192   6.963  14.510   3.896
 1033CLR    C2350193   7.022  14.498   4.037
 1033CLR    C2450194   6.913  14.457   4.136
 1033CLR    C2550195   6.966  14.432   4.277
 1033CLR    C2650196   7.057  14.309   4.284
 1033CLR    C2750197   6.849  14.415   4.375
 1034CLR     C150198   7.601   0.897   2.771
 1034CLR     C250199   7.537   0.888   2.632
 1034CLR     C350200   7.638   0.832   2.531
 1034CLR     O150201   7.587   0.834   2.397
 1034CLR    HO150202   7.491   0.797   2.395
 1034CLR     C450203   7.679   0.690   2.573
 1034CLR     C550204   7.729   0.687   2.718
 1034CLR     C650205   7.845   0.625   2.742
 1034CLR     C750206   7.915   0.635   2.878
 1034CLR     C850207   7.823   0.673   2.994
 1034CLR     C950208   7.739   0.796   2.952
 1034CLR    C1050209   7.651   0.763   2.829
 1034CLR    C1950210   7.530   0.677   2.869
 1034CLR    C1150211   7.660   0.851   3.073
 1034CLR    C1450212   7.908   0.704   3.119
 1034CLR    C1250213   7.751   0.879   3.194
 1034CLR    C1350214   7.829   0.755   3.242
 1034CLR    C1850215   7.731   0.653   3.304
 1034CLR    C1550216   7.992   0.590   3.177
 1034CLR    C1650217   8.037   0.653   3.309
 1034CLR    C1750218   7.954   0.780   3.331
 1034CLR    C2050219   7.927   0.807   3.481
 1034CLR    C2150220   7.883   0.952   3.503
 1034CLR    C2250221   8.052   0.784   3.568
 1034CLR    C2350222   8.021   0.782   3.718
 1034CLR    C2450223   8.145   0.742   3.797
 1034CLR    C2550224   8.118   0.732   3.947
 1034CLR    C2650225   8.101   0.870   4.012
 1034CLR    C2750226   8.229   0.654   4.016
 1035CLR     C150227   6.452   3.595   2.814
 1035CLR     C250228   6.414   3.577   2.666
 1035CLR     C350229   6.328   3.695   2.617
 1035CLR     O150230   6.294   3.675   2.479
 1035CLR    HO150231   6.380   3.660   2.425
 1035CLR     C450232   6.402   3.828   2.636
 1035CLR     C550233   6.461   3.844   2.777
 1035CLR     C650234   6.447   3.962   2.839
 1035CLR     C750235   6.491   3.981   2.985
 1035CLR     C850236   6.594   3.878   3.035
 1035CLR     C950237   6.543   3.737   2.998
 1035CLR    C1050238   6.533   3.723   2.844
 1035CLR    C1950239   6.673   3.712   2.781
 1035CLR    C1150240   6.632   3.629   3.064
 1035CLR    C1450241   6.614   3.893   3.187
 1035CLR    C1250242   6.651   3.651   3.215
 1035CLR    C1350243   6.710   3.789   3.251
 1035CLR    C1850244   6.856   3.797   3.201
 1035CLR    C1550245   6.671   4.025   3.239
 1035CLR    C1650246   6.698   3.989   3.385
 1035CLR    C1750247   6.693   3.835   3.397
 1035CLR    C2050248   6.798   3.788   3.502
 1035CLR    C2150249   6.795   3.636   3.525
 1035CLR    C2250250   6.775   3.858   3.637
 1035CLR    C2350251   6.882   3.828   3.743
 1035CLR    C2450252   6.846   3.893   3.877
 1035CLR    C2550253   6.943   3.854   3.989
 1035CLR    C2650254   6.935   3.705   4.024
 1035CLR    C2750255   6.917   3.939   4.113
 1036CLR     C150256   6.442   7.516   3.013
 1036CLR     C250257   6.438   7.515   2.859
 1036CLR     C350258   6.361   7.392   2.809
 1036CLR     O150259   6.364   7.378   2.667
 1036CLR    HO150260   6.328   7.464   2.623
 1036CLR     C450261   6.217   7.394   2.860
 1036CLR     C550262   6.213   7.410   3.013
 1036CLR     C650263   6.137   7.324   3.081
 1036CLR     C750264   6.141   7.318   3.234
 1036CLR     C850265   6.190   7.448   3.299
 1036CLR     C950266   6.324   7.488   3.233
 1036CLR    C1050267   6.304   7.517   3.081
 1036CLR    C1950268   6.239   7.655   3.061
 1036CLR    C1150269   6.389   7.605   3.311
 1036CLR    C1450270   6.204   7.428   3.451
 1036CLR    C1250271   6.397   7.581   3.463
 1036CLR    C1350272   6.260   7.550   3.527
 1036CLR    C1850273   6.170   7.676   3.519
 1036CLR    C1550274   6.078   7.396   3.532
 1036CLR    C1650275   6.140   7.394   3.671
 1036CLR    C1750276   6.263   7.487   3.668
 1036CLR    C2050277   6.264   7.588   3.786
 1036CLR    C2150278   6.405   7.642   3.808
 1036CLR    C2250279   6.216   7.526   3.919
 1036CLR    C2350280   6.186   7.630   4.028
 1036CLR    C2450281   6.135   7.566   4.157
 1036CLR    C2550282   5.992   7.510   4.145
 1036CLR    C2650283   5.887   7.621   4.140
 1036CLR    C2750284   5.963   7.414   4.261
 1037CLR     C150285   8.353  11.004   3.151
 1037CLR     C250286   8.355  11.087   3.022
 1037CLR     C350287   8.291  11.008   2.907
 1037CLR     O150288   8.299  11.081   2.784
 1037CLR    HO150289   8.224  11.151   2.781
 1037CLR     C450290   8.145  10.974   2.941
 1037CLR     C550291   8.129  10.911   3.080
 1037CLR     C650292   8.047  10.806   3.092
 1037CLR     C750293   8.039  10.724   3.222
 1037CLR     C850294   8.092  10.796   3.348
 1037CLR     C950295   8.228  10.861   3.314
 1037CLR    C1050296   8.212  10.966   3.200
 1037CLR    C1950297   8.141  11.092   3.252
 1037CLR    C1150298   8.294  10.917   3.442
 1037CLR    C1450299   8.105  10.696   3.464
 1037CLR    C1250300   8.304  10.812   3.554
 1037CLR    C1350301   8.167  10.752   3.594
 1037CLR    C1850302   8.082  10.859   3.665
 1037CLR    C1550303   7.978  10.628   3.515
 1037CLR    C1650304   8.035  10.555   3.637
 1037CLR    C1750305   8.172  10.617   3.669
 1037CLR    C2050306   8.192  10.618   3.823
 1037CLR    C2150307   8.317  10.690   3.876
 1037CLR    C2250308   8.188  10.476   3.883
 1037CLR    C2350309   8.304  10.383   3.840
 1037CLR    C2450310   8.287  10.244   3.901
 1037CLR    C2550311   8.405  10.151   3.872
 1037CLR    C2650312   8.417  10.115   3.724
 1037CLR    C2750313   8.394  10.024   3.957
 1038CLR     C150314   6.305  14.865   2.981
 1038CLR     C250315   6.261  14.834   2.837
 1038CLR     C350316   6.129  14.906   2.806
 1038CLR     O150317   6.075  14.870   2.678
 1038CLR    HO150318   6.149  14.820   2.625
 1038CLR     C450319   6.148  15.057   2.816
 1038CLR     C550320   6.207  15.096   2.953
 1038CLR     C650321   6.145  15.193   3.020
 1038CLR     C750322   6.178  15.223   3.167
 1038CLR     C850323   6.316  15.174   3.213
 1038CLR     C950324   6.336  15.028   3.167
 1038CLR    C1050325   6.326  15.015   3.012
 1038CLR    C1950326   6.455  15.063   2.944
 1038CLR    C1150327   6.465  14.971   3.228
 1038CLR    C1450328   6.321  15.182   3.367
 1038CLR    C1250329   6.468  14.984   3.382
 1038CLR    C1350330   6.451  15.129   3.432
 1038CLR    C1850331   6.576  15.212   3.398
 1038CLR    C1550332   6.305  15.317   3.435
 1038CLR    C1650333   6.313  15.265   3.578
 1038CLR    C1750334   6.406  15.143   3.580
 1038CLR    C2050335   6.515  15.161   3.690
 1038CLR    C2150336   6.603  15.036   3.706
 1038CLR    C2250337   6.450  15.191   3.825
 1038CLR    C2350338   6.543  15.259   3.926
 1038CLR    C2450339   6.466  15.290   4.054
 1038CLR    C2550340   6.546  15.373   4.155
 1038CLR    C2650341   6.471  15.380   4.288
 1038CLR    C2750342   6.569  15.515   4.103
 1039CLR     C150343   6.388   2.298   2.872
 1039CLR     C250344   6.377   2.331   2.722
 1039CLR     C350345   6.251   2.270   2.660
 1039CLR     O150346   6.239   2.319   2.526
 1039CLR    HO150347   6.202   2.416   2.531
 1039CLR     C450348   6.123   2.310   2.736
 1039CLR     C550349   6.138   2.305   2.889
 1039CLR     C650350   6.034   2.261   2.960
 1039CLR     C750351   6.042   2.247   3.113
 1039CLR     C850352   6.153   2.331   3.177
 1039CLR     C950353   6.285   2.304   3.102
 1039CLR    C1050354   6.270   2.353   2.955
 1039CLR    C1950355   6.274   2.507   2.951
 1039CLR    C1150356   6.405   2.368   3.176
 1039CLR    C1450357   6.164   2.302   3.328
 1039CLR    C1250358   6.407   2.339   3.327
 1039CLR    C1350359   6.277   2.380   3.399
 1039CLR    C1850360   6.260   2.534   3.392
 1039CLR    C1550361   6.044   2.334   3.416
 1039CLR    C1650362   6.106   2.303   3.553
 1039CLR    C1750363   6.258   2.325   3.542
 1039CLR    C2050364   6.314   2.415   3.656
 1039CLR    C2150365   6.465   2.392   3.673
 1039CLR    C2250366   6.247   2.391   3.792
 1039CLR    C2350367   6.272   2.507   3.888
 1039CLR    C2450368   6.195   2.488   4.019
 1039CLR    C2550369   6.214   2.606   4.115
 1039CLR    C2650370   6.358   2.614   4.168
 1039CLR    C2750371   6.115   2.597   4.231
 1040CLR     C150372   8.035   4.359   2.772
 1040CLR     C250373   8.025   4.393   2.623
 1040CLR     C350374   8.012   4.545   2.600
 1040CLR     O150375   8.003   4.571   2.459
 1040CLR    HO150376   8.081   4.631   2.428
 1040CLR     C450377   8.132   4.619   2.663
 1040CLR     C550378   8.159   4.574   2.808
 1040CLR     C650379   8.180   4.669   2.900
 1040CLR     C750380   8.191   4.635   3.049
 1040CLR     C850381   8.230   4.489   3.078
 1040CLR     C950382   8.137   4.397   2.995
 1040CLR    C1050383   8.156   4.423   2.843
 1040CLR    C1950384   8.287   4.360   2.792
 1040CLR    C1150385   8.158   4.249   3.035
 1040CLR    C1450386   8.217   4.460   3.229
 1040CLR    C1250387   8.148   4.227   3.188
 1040CLR    C1350388   8.247   4.313   3.269
 1040CLR    C1850389   8.392   4.269   3.240
 1040CLR    C1550390   8.305   4.537   3.327
 1040CLR    C1650391   8.266   4.466   3.456
 1040CLR    C1750392   8.216   4.325   3.420
 1040CLR    C2050393   8.278   4.217   3.513
 1040CLR    C2150394   8.217   4.078   3.491
 1040CLR    C2250395   8.262   4.253   3.662
 1040CLR    C2350396   8.334   4.156   3.757
 1040CLR    C2450397   8.321   4.201   3.903
 1040CLR    C2550398   8.382   4.100   4.001
 1040CLR    C2650399   8.297   3.973   4.011
 1040CLR    C2750400   8.400   4.164   4.139
 1041CLR     C150401   6.956   8.186   2.838
 1041CLR     C250402   6.949   8.156   2.687
 1041CLR     C350403   7.040   8.252   2.610
 1041CLR     O150404   7.026   8.230   2.470
 1041CLR    HO150405   7.045   8.317   2.420
 1041CLR     C450406   7.185   8.237   2.656
 1041CLR     C550407   7.201   8.238   2.809
 1041CLR     C650408   7.304   8.306   2.861
 1041CLR     C750409   7.313   8.335   3.012
 1041CLR     C850410   7.231   8.242   3.103
 1041CLR     C950411   7.090   8.226   3.042
 1041CLR    C1050412   7.096   8.167   2.899
 1041CLR    C1950413   7.131   8.017   2.902
 1041CLR    C1150414   7.000   8.145   3.138
 1041CLR    C1450415   7.220   8.302   3.245
 1041CLR    C1250416   6.996   8.205   3.280
 1041CLR    C1350417   7.136   8.219   3.343
 1041CLR    C1850418   7.195   8.079   3.372
 1041CLR    C1550419   7.348   8.326   3.326
 1041CLR    C1650420   7.282   8.377   3.454
 1041CLR    C1750421   7.142   8.315   3.465
 1041CLR    C2050422   7.119   8.256   3.606
 1041CLR    C2150423   6.981   8.192   3.625
 1041CLR    C2250424   7.136   8.365   3.713
 1041CLR    C2350425   7.139   8.313   3.857
 1041CLR    C2450426   7.161   8.430   3.954
 1041CLR    C2550427   7.178   8.385   4.099
 1041CLR    C2650428   7.049   8.326   4.158
 1041CLR    C2750429   7.227   8.502   4.185
 1042CLR     C150430   6.996  12.435   2.751
 1042CLR     C250431   7.064  12.356   2.639
 1042CLR     C350432   7.207  12.408   2.616
 1042CLR     O150433   7.272  12.338   2.509
 1042CLR    HO150434   7.269  12.236   2.530
 1042CLR     C450435   7.291  12.395   2.744
 1042CLR     C550436   7.219  12.455   2.866
 1042CLR     C650437   7.290  12.535   2.947
 1042CLR     C750438   7.224  12.612   3.061
 1042CLR     C850439   7.091  12.552   3.108
 1042CLR     C950440   7.001  12.530   2.984
 1042CLR    C1050441   7.067  12.427   2.888
 1042CLR    C1950442   7.052  12.284   2.943
 1042CLR    C1150443   6.858  12.490   3.028
 1042CLR    C1450444   7.024  12.644   3.212
 1042CLR    C1250445   6.798  12.584   3.134
 1042CLR    C1350446   6.886  12.596   3.261
 1042CLR    C1850447   6.888  12.460   3.336
 1042CLR    C1550448   7.098  12.668   3.344
 1042CLR    C1650449   6.991  12.751   3.415
 1042CLR    C1750450   6.854  12.716   3.354
 1042CLR    C2050451   6.749  12.697   3.466
 1042CLR    C2150452   6.608  12.667   3.413
 1042CLR    C2250453   6.741  12.823   3.554
 1042CLR    C2350454   6.658  12.805   3.682
 1042CLR    C2450455   6.658  12.935   3.763
 1042CLR    C2550456   6.577  12.924   3.893
 1042CLR    C2650457   6.566  13.062   3.959
 1042CLR    C2750458   6.642  12.826   3.991
 1043CLR     C150459   7.409  15.899   2.878
 1043CLR     C250460   7.372  15.960   2.742
 1043CLR     C350461   7.330  15.850   2.643
 1043CLR     O150462   7.300  15.906   2.515
 1043CLR    HO150463   7.319  15.837   2.441
 1043CLR     C450464   7.209  15.773   2.697
 1043CLR     C550465   7.228  15.727   2.843
 1043CLR     C650466   7.190  15.602   2.874
 1043CLR     C750467   7.221  15.540   3.011
 1043CLR     C850468   7.251  15.642   3.122
 1043CLR     C950469   7.354  15.745   3.068
 1043CLR    C1050470   7.294  15.822   2.947
 1043CLR    C1950471   7.187  15.923   2.994
 1043CLR    C1150472   7.404  15.836   3.182
 1043CLR    C1450473   7.305  15.569   3.247
 1043CLR    C1250474   7.455  15.757   3.303
 1043CLR    C1350475   7.350  15.662   3.363
 1043CLR    C1850476   7.235  15.744   3.426
 1043CLR    C1550477   7.213  15.470   3.317
 1043CLR    C1650478   7.296  15.440   3.442
 1043CLR    C1750479   7.402  15.550   3.456
 1043CLR    C2050480   7.425  15.591   3.604
 1043CLR    C2150481   7.556  15.670   3.620
 1043CLR    C2250482   7.431  15.471   3.700
 1043CLR    C2350483   7.426  15.513   3.847
 1043CLR    C2450484   7.423  15.391   3.940
 1043CLR    C2550485   7.422  15.430   4.088
 1043CLR    C2650486   7.435  15.305   4.176
 1043CLR    C2750487   7.295  15.506   4.127
 1044CLR     C150488   7.736   2.830   2.686
 1044CLR     C250489   7.723   2.878   2.541
 1044CLR     C350490   7.596   2.963   2.523
 1044CLR     O150491   7.578   3.002   2.387
 1044CLR    HO150492   7.498   3.069   2.381
 1044CLR     C450493   7.602   3.086   2.614
 1044CLR     C550494   7.633   3.048   2.760
 1044CLR     C650495   7.555   3.103   2.854
 1044CLR     C750496   7.562   3.057   3.000
 1044CLR     C850497   7.693   2.987   3.038
 1044CLR     C950498   7.725   2.880   2.931
 1044CLR    C1050499   7.743   2.944   2.791
 1044CLR    C1950500   7.880   3.014   2.780
 1044CLR    C1150501   7.846   2.794   2.977
 1044CLR    C1450502   7.678   2.923   3.178
 1044CLR    C1250503   7.826   2.735   3.118
 1044CLR    C1350504   7.800   2.841   3.226
 1044CLR    C1850505   7.928   2.925   3.248
 1044CLR    C1550506   7.652   3.015   3.297
 1044CLR    C1650507   7.655   2.910   3.408
 1044CLR    C1750508   7.737   2.790   3.358
 1044CLR    C2050509   7.835   2.741   3.468
 1044CLR    C2150510   7.904   2.609   3.430
 1044CLR    C2250511   7.762   2.718   3.602
 1044CLR    C2350512   7.858   2.700   3.720
 1044CLR    C2450513   7.779   2.680   3.850
 1044CLR    C2550514   7.869   2.662   3.972
 1044CLR    C2650515   7.785   2.623   4.094
 1044CLR    C2750516   7.947   2.790   4.004
 1045CLR     C150517   7.601   4.902   2.871
 1045CLR     C250518   7.616   4.930   2.721
 1045CLR     C350519   7.726   5.034   2.698
 1045CLR     O150520   7.733   5.075   2.561
 1045CLR    HO150521   7.819   5.130   2.547
 1045CLR     C450522   7.860   4.981   2.748
 1045CLR     C550523   7.852   4.933   2.894
 1045CLR     C650524   7.946   4.975   2.979
 1045CLR     C750525   7.933   4.958   3.131
 1045CLR     C850526   7.834   4.850   3.176
 1045CLR     C950527   7.704   4.863   3.094
 1045CLR    C1050528   7.729   4.850   2.941
 1045CLR    C1950529   7.752   4.703   2.902
 1045CLR    C1150530   7.597   4.765   3.148
 1045CLR    C1450531   7.804   4.868   3.326
 1045CLR    C1250532   7.572   4.784   3.299
 1045CLR    C1350533   7.700   4.770   3.385
 1045CLR    C1850534   7.746   4.622   3.387
 1045CLR    C1550535   7.919   4.858   3.426
 1045CLR    C1650536   7.840   4.864   3.557
 1045CLR    C1750537   7.692   4.835   3.525
 1045CLR    C2050538   7.629   4.755   3.643
 1045CLR    C2150539   7.490   4.695   3.619
 1045CLR    C2250540   7.624   4.838   3.773
 1045CLR    C2350541   7.536   4.963   3.765
 1045CLR    C2450542   7.534   5.040   3.897
 1045CLR    C2550543   7.451   5.168   3.888
 1045CLR    C2650544   7.514   5.273   3.796
 1045CLR    C2750545   7.429   5.227   4.027
 1046CLR     C150546   8.669   9.402   2.963
 1046CLR     C250547   8.625   9.456   2.826
 1046CLR     C350548   8.598   9.607   2.834
 1046CLR     O150549   8.552   9.656   2.707
 1046CLR    HO150550   8.483   9.731   2.722
 1046CLR     C450551   8.726   9.681   2.876
 1046CLR     C550552   8.790   9.620   3.002
 1046CLR     C650553   8.831   9.704   3.098
 1046CLR     C750554   8.877   9.654   3.236
 1046CLR     C850555   8.921   9.507   3.239
 1046CLR     C950556   8.814   9.422   3.167
 1046CLR    C1050557   8.799   9.465   3.018
 1046CLR    C1950558   8.918   9.415   2.935
 1046CLR    C1150559   8.845   9.272   3.184
 1046CLR    C1450560   8.940   9.460   3.385
 1046CLR    C1250561   8.865   9.232   3.331
 1046CLR    C1350562   8.977   9.311   3.401
 1046CLR    C1850563   9.115   9.273   3.342
 1046CLR    C1550564   9.046   9.530   3.471
 1046CLR    C1650565   9.040   9.441   3.595
 1046CLR    C1750566   8.974   9.307   3.556
 1046CLR    C2050567   9.046   9.189   3.628
 1046CLR    C2150568   8.986   9.051   3.594
 1046CLR    C2250569   9.042   9.208   3.781
 1046CLR    C2350570   9.121   9.103   3.859
 1046CLR    C2450571   9.103   9.124   4.010
 1046CLR    C2550572   9.168   9.013   4.093
 1046CLR    C2650573   9.098   8.878   4.075
 1046CLR    C2750574   9.170   9.052   4.241
 1047CLR     C150575   8.946  12.366   2.721
 1047CLR     C250576   8.943  12.354   2.568
 1047CLR     C350577   9.072  12.288   2.517
 1047CLR     O150578   9.067  12.278   2.374
 1047CLR    HO150579   9.156  12.236   2.341
 1047CLR     C450580   9.091  12.148   2.578
 1047CLR     C550581   9.072  12.148   2.731
 1047CLR     C650582   9.159  12.078   2.804
 1047CLR     C750583   9.161  12.087   2.958
 1047CLR     C850584   9.030  12.137   3.021
 1047CLR     C950585   8.983  12.263   2.945
 1047CLR    C1050586   8.957  12.231   2.795
 1047CLR    C1950587   8.826  12.152   2.777
 1047CLR    C1150588   8.861  12.326   3.016
 1047CLR    C1450589   9.053  12.169   3.170
 1047CLR    C1250590   8.887  12.353   3.166
 1047CLR    C1350591   8.930  12.227   3.242
 1047CLR    C1850592   8.809  12.130   3.253
 1047CLR    C1550593   9.099  12.057   3.265
 1047CLR    C1650594   9.076  12.122   3.402
 1047CLR    C1750595   9.003  12.255   3.375
 1047CLR    C2050596   8.916  12.308   3.491
 1047CLR    C2150597   8.995  12.417   3.565
 1047CLR    C2250598   8.866  12.203   3.591
 1047CLR    C2350599   8.761  12.259   3.688
 1047CLR    C2450600   8.723  12.155   3.794
 1047CLR    C2550601   8.619  12.208   3.893
 1047CLR    C2650602   8.672  12.324   3.978
 1047CLR    C2750603   8.568  12.095   3.983
 1048CLR     C150604   9.229  16.037   3.006
 1048CLR     C250605   9.190  16.022   2.858
 1048CLR     C350606   9.239  15.888   2.802
 1048CLR     O150607   9.212  15.876   2.662
 1048CLR    HO150608   9.119  15.913   2.641
 1048CLR     C450609   9.179  15.771   2.881
 1048CLR     C550610   9.199  15.788   3.033
 1048CLR     C650611   9.244  15.683   3.103
 1048CLR     C750612   9.284  15.696   3.251
 1048CLR     C850613   9.220  15.815   3.323
 1048CLR     C950614   9.242  15.942   3.237
 1048CLR    C1050615   9.173  15.927   3.098
 1048CLR    C1950616   9.020  15.945   3.111
 1048CLR    C1150617   9.197  16.068   3.313
 1048CLR    C1450618   9.281  15.832   3.464
 1048CLR    C1250619   9.256  16.077   3.455
 1048CLR    C1350620   9.225  15.954   3.542
 1048CLR    C1850621   9.072  15.945   3.570
 1048CLR    C1550622   9.263  15.719   3.566
 1048CLR    C1650623   9.317  15.788   3.692
 1048CLR    C1750624   9.309  15.940   3.671
 1048CLR    C2050625   9.254  16.013   3.796
 1048CLR    C2150626   9.268  16.166   3.786
 1048CLR    C2250627   9.323  15.968   3.926
 1048CLR    C2350628   9.252  16.020   4.052
 1048CLR    C2450629   9.323  15.973   4.179
 1048CLR    C2550630   9.254  16.021   4.306
 1048CLR    C2650631   9.270  16.172   4.328
 1048CLR    C2750632   9.307  15.943   4.427
 1049CLR     C150633   8.547   2.194   2.506
 1049CLR     C250634   8.524   2.210   2.355
 1049CLR     C350635   8.495   2.356   2.317
 1049CLR     O150636   8.475   2.368   2.176
 1049CLR    HO150637   8.566   2.349   2.131
 1049CLR     C450638   8.611   2.447   2.361
 1049CLR     C550639   8.653   2.422   2.507
 1049CLR     C650640   8.674   2.530   2.584
 1049CLR     C750641   8.702   2.517   2.735
 1049CLR     C850642   8.751   2.379   2.778
 1049CLR     C950643   8.658   2.272   2.717
 1049CLR    C1050644   8.664   2.277   2.562
 1049CLR    C1950645   8.797   2.217   2.511
 1049CLR    C1150646   8.691   2.132   2.776
 1049CLR    C1450647   8.754   2.371   2.933
 1049CLR    C1250648   8.694   2.131   2.931
 1049CLR    C1350649   8.795   2.233   2.989
 1049CLR    C1850650   8.939   2.190   2.953
 1049CLR    C1550651   8.848   2.465   3.009
 1049CLR    C1650652   8.821   2.414   3.150
 1049CLR    C1750653   8.778   2.266   3.140
 1049CLR    C2050654   8.857   2.176   3.238
 1049CLR    C2150655   8.788   2.040   3.256
 1049CLR    C2250656   8.874   2.236   3.378
 1049CLR    C2350657   8.988   2.168   3.455
 1049CLR    C2450658   9.002   2.224   3.597
 1049CLR    C2550659   9.124   2.165   3.669
 1049CLR    C2650660   9.118   2.198   3.818
 1049CLR    C2750661   9.254   2.219   3.610
 1050CLR     C150662   9.153   5.946   2.544
 1050CLR     C250663   9.084   5.874   2.427
 1050CLR     C350664   9.167   5.885   2.299
 1050CLR     O150665   9.101   5.823   2.187
 1050CLR    HO150666   9.009   5.866   2.174
 1050CLR     C450667   9.306   5.823   2.320
 1050CLR     C550668   9.375   5.877   2.446
 1050CLR     C650669   9.504   5.913   2.436
 1050CLR     C750670   9.576   5.985   2.551
 1050CLR     C850671   9.512   5.967   2.689
 1050CLR     C950672   9.360   5.993   2.677
 1050CLR    C1050673   9.294   5.893   2.578
 1050CLR    C1950674   9.281   5.754   2.643
 1050CLR    C1150675   9.294   5.994   2.817
 1050CLR    C1450676   9.577   6.063   2.790
 1050CLR    C1250677   9.366   6.088   2.917
 1050CLR    C1350678   9.516   6.057   2.932
 1050CLR    C1850679   9.534   5.921   3.003
 1050CLR    C1550680   9.727   6.050   2.818
 1050CLR    C1650681   9.742   6.144   2.939
 1050CLR    C1750682   9.601   6.170   2.994
 1050CLR    C2050683   9.589   6.177   3.148
 1050CLR    C2150684   9.510   6.303   3.187
 1050CLR    C2250685   9.722   6.176   3.225
 1050CLR    C2350686   9.704   6.149   3.375
 1050CLR    C2450687   9.839   6.133   3.445
 1050CLR    C2550688   9.823   6.100   3.594
 1050CLR    C2650689   9.770   6.219   3.674
 1050CLR    C2750690   9.956   6.052   3.652
 1051CLR     C150691   9.758  10.651   3.196
 1051CLR     C250692   9.765  10.568   3.067
 1051CLR     C350693   9.837  10.645   2.957
 1051CLR     O150694   9.841  10.568   2.836
 1051CLR    HO150695   9.763  10.501   2.833
 1051CLR     C450696   9.980  10.681   3.001
 1051CLR     C550697   9.986  10.744   3.141
 1051CLR     C650698  10.068  10.849   3.158
 1051CLR     C750699  10.067  10.931   3.288
 1051CLR     C850700  10.004  10.861   3.410
 1051CLR     C950701   9.871  10.795   3.366
 1051CLR    C1050702   9.896  10.690   3.255
 1051CLR    C1950703   9.963  10.564   3.312
 1051CLR    C1150704   9.796  10.739   3.489
 1051CLR    C1450705   9.978  10.965   3.522
 1051CLR    C1250706   9.775  10.846   3.598
 1051CLR    C1350707   9.906  10.910   3.647
 1051CLR    C1850708   9.988  10.806   3.728
 1051CLR    C1550709  10.098  11.038   3.582
 1051CLR    C1650710  10.027  11.114   3.694
 1051CLR    C1750711   9.892  11.046   3.721
 1051CLR    C2050712   9.861  11.044   3.873
 1051CLR    C2150713   9.724  10.984   3.907
 1051CLR    C2250714   9.867  11.187   3.930
 1051CLR    C2350715   9.853  11.195   4.082
 1051CLR    C2450716   9.873  11.340   4.129
 1051CLR    C2550717   9.847  11.356   4.279
 1051CLR    C2650718   9.698  11.349   4.313
 1051CLR    C2750719   9.906  11.488   4.329
 1052CLR     C150720   9.597  12.894   2.567
 1052CLR     C250721   9.608  12.865   2.416
 1052CLR     C350722   9.718  12.951   2.354
 1052CLR     O150723   9.722  12.936   2.211
 1052CLR    HO150724   9.819  12.947   2.179
 1052CLR     C450725   9.854  12.919   2.418
 1052CLR     C550726   9.848  12.926   2.572
 1052CLR     C650727   9.947  12.990   2.636
 1052CLR     C750728   9.940  13.018   2.787
 1052CLR     C850729   9.842  12.929   2.865
 1052CLR     C950730   9.708  12.926   2.789
 1052CLR    C1050731   9.726  12.865   2.647
 1052CLR    C1950732   9.748  12.713   2.656
 1052CLR    C1150733   9.600  12.854   2.873
 1052CLR    C1450734   9.824  12.984   3.008
 1052CLR    C1250735   9.587  12.914   3.015
 1052CLR    C1350736   9.719  12.910   3.095
 1052CLR    C1850737   9.755  12.764   3.129
 1052CLR    C1550738   9.947  12.989   3.101
 1052CLR    C1650739   9.881  13.021   3.235
 1052CLR    C1750740   9.729  13.004   3.218
 1052CLR    C2050741   9.659  12.954   3.347
 1052CLR    C2150742   9.507  12.974   3.338
 1052CLR    C2250743   9.706  13.028   3.474
 1052CLR    C2350744   9.652  12.962   3.602
 1052CLR    C2450745   9.681  13.048   3.725
 1052CLR    C2550746   9.627  12.985   3.854
 1052CLR    C2650747   9.474  12.982   3.858
 1052CLR    C2750748   9.682  13.059   3.976
 1053CLR     C150749   8.793   0.440   2.975
 1053CLR     C250750   8.743   0.469   2.833
 1053CLR     C350751   8.809   0.371   2.736
 1053CLR     O150752   8.790   0.409   2.599
 1053CLR    HO150753   8.851   0.491   2.583
 1053CLR     C450754   8.765   0.227   2.767
 1053CLR     C550755   8.794   0.193   2.914
 1053CLR     C650756   8.855   0.076   2.939
 1053CLR     C750757   8.913   0.044   3.078
 1053CLR     C850758   8.855   0.127   3.193
 1053CLR     C950759   8.854   0.275   3.151
 1053CLR    C1050760   8.765   0.297   3.026
 1053CLR    C1950761   8.616   0.286   3.063
 1053CLR    C1150762   8.817   0.366   3.271
 1053CLR    C1450763   8.942   0.107   3.319
 1053CLR    C1250764   8.906   0.339   3.394
 1053CLR    C1350765   8.902   0.193   3.441
 1053CLR    C1850766   8.761   0.161   3.497
 1053CLR    C1550767   8.952  16.951   3.381
 1053CLR    C1650768   9.046   0.005   3.496
 1053CLR    C1750769   9.017   0.150   3.537
 1053CLR    C2050770   8.991   0.161   3.690
 1053CLR    C2150771   8.980   0.307   3.737
 1053CLR    C2250772   9.102   0.093   3.771
 1053CLR    C2350773   9.063   0.071   3.918
 1053CLR    C2450774   9.175  16.981   3.993
 1053CLR    C2550775   9.141  16.945   4.139
 1053CLR    C2650776   9.018  16.855   4.151
 1053CLR    C2750777   9.124   0.087   4.225
 1054CLR     C150778  10.162   2.607   2.376
 1054CLR     C250779  10.111   2.659   2.240
 1054CLR     C350780   9.988   2.747   2.259
 1054CLR     O150781   9.934   2.792   2.133
 1054CLR    HO150782   9.872   2.873   2.150
 1054CLR     C450783  10.022   2.868   2.347
 1054CLR     C550784  10.092   2.828   2.478
 1054CLR     C650785  10.050   2.886   2.590
 1054CLR     C750786  10.097   2.838   2.729
 1054CLR     C850787  10.227   2.758   2.727
 1054CLR     C950788  10.219   2.651   2.616
 1054CLR    C1050789  10.202   2.718   2.476
 1054CLR    C1950790  10.334   2.783   2.430
 1054CLR    C1150791  10.340   2.556   2.625
 1054CLR    C1450792  10.248   2.692   2.866
 1054CLR    C1250793  10.357   2.494   2.765
 1054CLR    C1350794  10.371   2.599   2.877
 1054CLR    C1850795  10.507   2.671   2.862
 1054CLR    C1550796  10.264   2.783   2.988
 1054CLR    C1650797  10.296   2.677   3.093
 1054CLR    C1750798  10.344   2.550   3.021
 1054CLR    C2050799  10.464   2.484   3.095
 1054CLR    C2150800  10.492   2.342   3.043
 1054CLR    C2250801  10.441   2.475   3.247
 1054CLR    C2350802  10.568   2.440   3.325
 1054CLR    C2450803  10.542   2.447   3.476
 1054CLR    C2550804  10.666   2.414   3.560
 1054CLR    C2650805  10.628   2.406   3.708
 1054CLR    C2750806  10.775   2.520   3.542
 1055CLR     C150807   9.720   7.169   2.778
 1055CLR     C250808   9.749   7.162   2.627
 1055CLR     C350809   9.654   7.064   2.556
 1055CLR     O150810   9.682   7.058   2.416
 1055CLR    HO150811   9.675   7.154   2.379
 1055CLR     C450812   9.508   7.106   2.578
 1055CLR     C550813   9.476   7.134   2.726
 1055CLR     C650814   9.363   7.082   2.775
 1055CLR     C750815   9.330   7.089   2.925
 1055CLR     C850816   9.405   7.198   3.003
 1055CLR     C950817   9.555   7.190   2.965
 1055CLR    C1050818   9.576   7.214   2.813
 1055CLR    C1950819   9.560   7.363   2.779
 1055CLR    C1150820   9.637   7.285   3.055
 1055CLR    C1450821   9.385   7.176   3.154
 1055CLR    C1250822   9.613   7.259   3.204
 1055CLR    C1350823   9.465   7.273   3.245
 1055CLR    C1850824   9.422   7.421   3.235
 1055CLR    C1550825   9.244   7.185   3.212
 1055CLR    C1650826   9.275   7.179   3.361
 1055CLR    C1750827   9.425   7.207   3.380
 1055CLR    C2050828   9.453   7.291   3.507
 1055CLR    C2150829   9.602   7.289   3.544
 1055CLR    C2250830   9.376   7.241   3.631
 1055CLR    C2350831   9.379   7.343   3.745
 1055CLR    C2450832   9.311   7.290   3.871
 1055CLR    C2550833   9.310   7.393   3.985
 1055CLR    C2650834   9.450   7.429   4.034
 1055CLR    C2750835   9.226   7.340   4.102
 1056CLR     C150836   9.258  10.131   3.126
 1056CLR     C250837   9.282  10.192   2.987
 1056CLR     C350838   9.157  10.270   2.944
 1056CLR     O150839   9.173  10.321   2.811
 1056CLR    HO150840   9.079  10.340   2.772
 1056CLR     C450841   9.129  10.385   3.042
 1056CLR     C550842   9.130  10.341   3.189
 1056CLR     C650843   9.037  10.393   3.270
 1056CLR     C750844   9.014  10.340   3.413
 1056CLR     C850845   9.127  10.253   3.471
 1056CLR     C950846   9.179  10.157   3.362
 1056CLR    C1050847   9.233  10.234   3.238
 1056CLR    C1950848   9.365  10.306   3.272
 1056CLR    C1150849   9.280  10.058   3.422
 1056CLR    C1450850   9.073  10.173   3.592
 1056CLR    C1250851   9.220   9.981   3.541
 1056CLR    C1350852   9.172  10.073   3.655
 1056CLR    C1850853   9.295  10.137   3.724
 1056CLR    C1550854   9.023  10.250   3.714
 1056CLR    C1650855   8.998  10.134   3.810
 1056CLR    C1750856   9.072  10.011   3.756
 1056CLR    C2050857   9.135   9.925   3.870
 1056CLR    C2150858   9.179   9.787   3.819
 1056CLR    C2250859   9.037   9.903   3.987
 1056CLR    C2350860   9.106   9.843   4.110
 1056CLR    C2450861   9.010   9.832   4.228
 1056CLR    C2550862   9.078   9.771   4.351
 1056CLR    C2650863   9.109   9.622   4.332
 1056CLR    C2750864   8.993   9.793   4.476
 1057CLR     C150865  10.570  13.665   2.900
 1057CLR     C250866  10.627  13.598   2.774
 1057CLR     C350867  10.780  13.618   2.768
 1057CLR     O150868  10.837  13.571   2.646
 1057CLR    HO150869  10.869  13.474   2.657
 1057CLR     C450870  10.847  13.552   2.889
 1057CLR     C550871  10.782  13.598   3.021
 1057CLR     C650872  10.866  13.632   3.119
 1057CLR     C750873  10.815  13.698   3.248
 1057CLR     C850874  10.666  13.677   3.276
 1057CLR     C950875  10.587  13.708   3.147
 1057CLR    C1050876  10.627  13.611   3.033
 1057CLR    C1950877  10.569  13.471   3.058
 1057CLR    C1150878  10.435  13.712   3.177
 1057CLR    C1450879  10.624  13.769   3.392
 1057CLR    C1250880  10.399  13.804   3.296
 1057CLR    C1350881  10.473  13.767   3.426
 1057CLR    C1850882  10.422  13.631   3.478
 1057CLR    C1550883  10.687  13.748   3.529
 1057CLR    C1650884  10.616  13.863   3.599
 1057CLR    C1750885  10.476  13.877   3.537
 1057CLR    C2050886  10.365  13.871   3.644
 1057CLR    C2150887  10.231  13.920   3.589
 1057CLR    C2250888  10.398  13.955   3.768
 1057CLR    C2350889  10.320  13.909   3.892
 1057CLR    C2450890  10.364  13.981   4.020
 1057CLR    C2550891  10.319  14.128   4.027
 1057CLR    C2650892  10.387  14.198   4.145
 1057CLR    C2750893  10.167  14.138   4.045
 1058CLR     C150894  11.092   0.549   2.808
 1058CLR     C250895  11.145   0.601   2.674
 1058CLR     C350896  11.033   0.607   2.569
 1058CLR     O150897  11.082   0.651   2.442
 1058CLR    HO150898  11.172   0.603   2.421
 1058CLR     C450899  10.920   0.699   2.617
 1058CLR     C550900  10.874   0.666   2.760
 1058CLR     C650901  10.742   0.661   2.783
 1058CLR     C750902  10.687   0.610   2.917
 1058CLR     C850903  10.785   0.618   3.034
 1058CLR     C950904  10.921   0.558   2.990
 1058CLR    C1050905  10.980   0.635   2.869
 1058CLR    C1950906  11.040   0.769   2.916
 1058CLR    C1150907  11.016   0.549   3.111
 1058CLR    C1450908  10.728   0.540   3.154
 1058CLR    C1250909  10.954   0.473   3.230
 1058CLR    C1350910  10.820   0.533   3.278
 1058CLR    C1850911  10.846   0.669   3.348
 1058CLR    C1550912  10.595   0.586   3.214
 1058CLR    C1650913  10.589   0.493   3.335
 1058CLR    C1750914  10.730   0.438   3.362
 1058CLR    C2050915  10.758   0.430   3.514
 1058CLR    C2150916  10.887   0.352   3.545
 1058CLR    C2250917  10.643   0.361   3.590
 1058CLR    C2350918  10.650   0.380   3.741
 1058CLR    C2450919  10.532   0.311   3.809
 1058CLR    C2550920  10.532   0.327   3.961
 1058CLR    C2650921  10.649   0.254   4.028
 1058CLR    C2750922  10.399   0.276   4.018
 1059CLR     C150923  10.937   3.827   2.577
 1059CLR     C250924  10.963   3.752   2.445
 1059CLR     C350925  10.832   3.737   2.368
 1059CLR     O150926  10.841   3.650   2.255
 1059CLR    HO150927  10.746   3.632   2.223
 1059CLR     C450928  10.775   3.875   2.331
 1059CLR     C550929  10.762   3.965   2.455
 1059CLR     C650930  10.647   4.031   2.471
 1059CLR     C750931  10.613   4.104   2.602
 1059CLR     C850932  10.735   4.139   2.689
 1059CLR     C950933  10.826   4.014   2.700
 1059CLR    C1050934  10.877   3.969   2.560
 1059CLR    C1950935  10.987   4.063   2.509
 1059CLR    C1150936  10.939   4.038   2.802
 1059CLR    C1450937  10.688   4.186   2.829
 1059CLR    C1250938  10.886   4.087   2.938
 1059CLR    C1350939  10.803   4.216   2.928
 1059CLR    C1850940  10.893   4.334   2.884
 1059CLR    C1550941  10.602   4.312   2.840
 1059CLR    C1650942  10.599   4.329   2.992
 1059CLR    C1750943  10.716   4.249   3.052
 1059CLR    C2050944  10.784   4.328   3.167
 1059CLR    C2150945  10.895   4.247   3.236
 1059CLR    C2250946  10.685   4.373   3.275
 1059CLR    C2350947  10.750   4.466   3.378
 1059CLR    C2450948  10.657   4.498   3.495
 1059CLR    C2550949  10.729   4.575   3.606
 1059CLR    C2650950  10.646   4.573   3.734
 1059CLR    C2750951  10.755   4.720   3.564
 1060CLR     C150952  10.274   7.977   2.843
 1060CLR     C250953  10.303   7.972   2.692
 1060CLR     C350954  10.173   7.941   2.616
 1060CLR     O150955  10.198   7.915   2.478
 1060CLR    HO150956  10.200   7.813   2.464
 1060CLR     C450957  10.071   8.054   2.637
 1060CLR     C550958  10.049   8.082   2.787
 1060CLR     C650959   9.923   8.094   2.828
 1060CLR     C750960   9.885   8.093   2.977
 1060CLR     C850961  10.000   8.122   3.075
 1060CLR     C950962  10.126   8.044   3.030
 1060CLR    C1050963  10.169   8.082   2.886
 1060CLR    C1950964  10.234   8.222   2.882
 1060CLR    C1150965  10.238   8.060   3.136
 1060CLR    C1450966   9.958   8.076   3.216
 1060CLR    C1250967  10.191   8.015   3.275
 1060CLR    C1350968  10.066   8.090   3.326
 1060CLR    C1850969  10.104   8.236   3.361
 1060CLR    C1550970   9.836   8.141   3.281
 1060CLR    C1650971   9.843   8.072   3.417
 1060CLR    C1750972   9.986   8.020   3.439
 1060CLR    C2050973  10.030   8.041   3.586
 1060CLR    C2150974  10.169   7.982   3.616
 1060CLR    C2250975   9.928   7.977   3.682
 1060CLR    C2350976   9.951   8.007   3.830
 1060CLR    C2450977   9.845   7.935   3.915
 1060CLR    C2550978   9.867   7.952   4.065
 1060CLR    C2650979   9.770   7.861   4.142
 1060CLR    C2750980   9.846   8.097   4.109
 1061CLR     C150981  11.293  11.407   3.023
 1061CLR     C250982  11.340  11.391   2.877
 1061CLR     C350983  11.245  11.466   2.782
 1061CLR     O150984  11.289  11.452   2.646
 1061CLR    HO150985  11.214  11.488   2.584
 1061CLR     C450986  11.237  11.615   2.818
 1061CLR     C550987  11.213  11.639   2.968
 1061CLR     C650988  11.126  11.735   3.003
 1061CLR     C750989  11.085  11.757   3.149
 1061CLR     C850990  11.186  11.701   3.251
 1061CLR     C950991  11.219  11.555   3.212
 1061CLR    C1050992  11.288  11.553   3.073
 1061CLR    C1950993  11.432  11.606   3.084
 1061CLR    C1150994  11.302  11.486   3.322
 1061CLR    C1450995  11.127  11.709   3.394
 1061CLR    C1250996  11.239  11.500   3.462
 1061CLR    C1350997  11.217  11.647   3.504
 1061CLR    C1850998  11.354  11.717   3.522
 1061CLR    C1550999  11.097  11.848   3.451
 1061CLR    C1651000  11.066  11.811   3.596
 1061CLR    C1751001  11.122  11.670   3.624
 1061CLR    C2051002  11.184  11.661   3.765
 1061CLR    C2151003  11.219  11.516   3.804
 1061CLR    C2251004  11.092  11.718   3.874
 1061CLR    C2351005  11.161  11.731   4.011
 1061CLR    C2451006  11.065  11.784   4.117
 1061CLR    C2551007  11.129  11.787   4.256
 1061CLR    C2651008  11.158  11.647   4.310
 1061CLR    C2751009  11.039  11.863   4.354
 1062CLR     C151010  11.285  13.396   2.878
 1062CLR     C251011  11.272  13.446   2.733
 1062CLR     C351012  11.406  13.501   2.683
 1062CLR     O151013  11.398  13.558   2.552
 1062CLR    HO151014  11.368  13.658   2.561
 1062CLR     C451015  11.514  13.392   2.687
 1062CLR     C551016  11.523  13.328   2.827
 1062CLR     C651017  11.644  13.322   2.884
 1062CLR     C751018  11.661  13.283   3.032
 1062CLR     C851019  11.544  13.201   3.088
 1062CLR     C951020  11.412  13.272   3.054
 1062CLR    C1051021  11.392  13.287   2.900
 1062CLR    C1951022  11.344  13.154   2.838
 1062CLR    C1151023  11.294  13.201   3.125
 1062CLR    C1451024  11.560  13.186   3.241
 1062CLR    C1251025  11.316  13.183   3.276
 1062CLR    C1351026  11.446  13.107   3.310
 1062CLR    C1851027  11.436  12.960   3.263
 1062CLR    C1551028  11.684  13.115   3.297
 1062CLR    C1651029  11.648  13.122   3.445
 1062CLR    C1751030  11.494  13.123   3.457
 1062CLR    C2051031  11.447  13.018   3.561
 1062CLR    C2151032  11.295  13.017   3.578
 1062CLR    C2251033  11.510  13.042   3.699
 1062CLR    C2351034  11.474  12.935   3.803
 1062CLR    C2451035  11.516  12.979   3.943
 1062CLR    C2551036  11.466  12.883   4.052
 1062CLR    C2651037  11.492  12.944   4.190
 1062CLR    C2751038  11.536  12.747   4.043
 1063CLR     C151039  12.074   0.223   2.644
 1063CLR     C251040  12.131   0.211   2.502
 1063CLR     C351041  12.270   0.274   2.493
 1063CLR     O151042  12.321   0.263   2.359
 1063CLR    HO151043  12.341   0.164   2.340
 1063CLR     C451044  12.366   0.207   2.592
 1063CLR     C551045  12.308   0.198   2.734
 1063CLR     C651046  12.386   0.234   2.837
 1063CLR     C751047  12.332   0.246   2.980
 1063CLR     C851048  12.202   0.168   3.005
 1063CLR     C951049  12.103   0.200   2.891
 1063CLR    C1051050  12.160   0.156   2.754
 1063CLR    C1951051  12.151   0.003   2.738
 1063CLR    C1151052  11.963   0.140   2.922
 1063CLR    C1451053  12.143   0.207   3.143
 1063CLR    C1251054  11.911   0.182   3.060
 1063CLR    C1351055  12.006   0.143   3.175
 1063CLR    C1851056  12.008  16.972   3.191
 1063CLR    C1551057  12.226   0.178   3.268
 1063CLR    C1651058  12.122   0.200   3.379
 1063CLR    C1751059  11.985   0.217   3.310
 1063CLR    C2051060  11.865   0.166   3.393
 1063CLR    C2151061  11.738   0.241   3.353
 1063CLR    C2251062  11.882   0.184   3.545
 1063CLR    C2351063  11.780   0.100   3.623
 1063CLR    C2451064  11.793   0.120   3.774
 1063CLR    C2551065  11.695   0.034   3.856
 1063CLR    C2651066  11.718  16.867   3.837
 1063CLR    C2751067  11.549   0.071   3.827
 1064CLR     C151068  11.917   4.180   2.352
 1064CLR     C251069  11.954   4.177   2.203
 1064CLR     C351070  12.105   4.193   2.184
 1064CLR     O151071  12.137   4.195   2.045
 1064CLR    HO151072  12.128   4.100   2.006
 1064CLR     C451073  12.180   4.080   2.256
 1064CLR     C551074  12.136   4.067   2.403
 1064CLR     C651075  12.231   4.061   2.497
 1064CLR     C751076  12.197   4.071   2.646
 1064CLR     C851077  12.051   4.035   2.682
 1064CLR     C951078  11.957   4.109   2.585
 1064CLR    C1051079  11.984   4.071   2.437
 1064CLR    C1951080  11.923   3.933   2.403
 1064CLR    C1151081  11.810   4.089   2.628
 1064CLR    C1451082  12.023   4.078   2.827
 1064CLR    C1251083  11.786   4.130   2.774
 1064CLR    C1351084  11.877   4.056   2.875
 1064CLR    C1851085  11.835   3.907   2.883
 1064CLR    C1551086  12.105   4.015   2.939
 1064CLR    C1651087  12.030   4.070   3.061
 1064CLR    C1751088  11.893   4.123   3.013
 1064CLR    C2051089  11.784   4.095   3.120
 1064CLR    C2151090  11.648   4.157   3.083
 1064CLR    C2251091  11.825   4.151   3.257
 1064CLR    C2351092  11.733   4.108   3.371
 1064CLR    C2451093  11.777   4.171   3.504
 1064CLR    C2551094  11.683   4.137   3.620
 1064CLR    C2651095  11.544   4.199   3.602
 1064CLR    C2751096  11.745   4.181   3.752
 1065CLR     C151097  10.339   8.787   2.941
 1065CLR     C251098  10.337   8.811   2.789
 1065CLR     C351099  10.470   8.871   2.741
 1065CLR     O151100  10.463   8.889   2.599
 1065CLR    HO151101  10.555   8.918   2.560
 1065CLR     C451102  10.589   8.781   2.778
 1065CLR     C551103  10.585   8.736   2.925
 1065CLR     C651104  10.699   8.742   2.995
 1065CLR     C751105  10.701   8.712   3.146
 1065CLR     C851106  10.583   8.627   3.194
 1065CLR     C951107  10.452   8.692   3.143
 1065CLR    C1051108  10.450   8.691   2.987
 1065CLR    C1951109  10.419   8.549   2.934
 1065CLR    C1151110  10.329   8.623   3.205
 1065CLR    C1451111  10.583   8.614   3.348
 1065CLR    C1251112  10.337   8.608   3.358
 1065CLR    C1351113  10.464   8.533   3.404
 1065CLR    C1851114  10.459   8.386   3.356
 1065CLR    C1551115  10.703   8.545   3.414
 1065CLR    C1651116  10.652   8.538   3.558
 1065CLR    C1751117  10.498   8.545   3.555
 1065CLR    C2051118  10.432   8.438   3.647
 1065CLR    C2151119  10.285   8.472   3.673
 1065CLR    C2251120  10.501   8.424   3.783
 1065CLR    C2351121  10.456   8.297   3.857
 1065CLR    C2451122  10.527   8.282   3.992
 1065CLR    C2551123  10.484   8.155   4.066
 1065CLR    C2651124  10.542   8.154   4.207
 1065CLR    C2751125  10.529   8.028   3.991
 1066CLR     C151126  12.746  10.899   3.007
 1066CLR     C251127  12.699  10.894   2.860
 1066CLR     C351128  12.585  10.792   2.845
 1066CLR     O151129  12.550  10.773   2.706
 1066CLR    HO151130  12.569  10.674   2.682
 1066CLR     C451131  12.465  10.836   2.929
 1066CLR     C551132  12.505  10.863   3.075
 1066CLR     C651133  12.428  10.808   3.170
 1066CLR     C751134  12.472  10.801   3.317
 1066CLR     C851135  12.581  10.902   3.357
 1066CLR     C951136  12.691  10.903   3.249
 1066CLR    C1051137  12.636  10.939   3.108
 1066CLR    C1951138  12.609  11.090   3.096
 1066CLR    C1151139  12.809  10.991   3.296
 1066CLR    C1451140  12.641  10.858   3.492
 1066CLR    C1251141  12.865  10.947   3.432
 1066CLR    C1351142  12.759  10.945   3.544
 1066CLR    C1851143  12.719  11.089   3.582
 1066CLR    C1551144  12.551  10.852   3.615
 1066CLR    C1651145  12.656  10.810   3.718
 1066CLR    C1751146  12.794  10.855   3.666
 1066CLR    C2051147  12.876  10.916   3.783
 1066CLR    C2151148  13.016  10.965   3.742
 1066CLR    C2251149  12.893  10.810   3.894
 1066CLR    C2351150  12.950  10.863   4.026
 1066CLR    C2451151  12.955  10.750   4.129
 1066CLR    C2551152  13.006  10.794   4.266
 1066CLR    C2651153  13.155  10.829   4.265
 1066CLR    C2751154  12.978  10.685   4.369
 1067CLR     C151155  10.844  14.938   3.151
 1067CLR     C251156  10.831  14.953   2.998
 1067CLR     C351157  10.914  14.845   2.927
 1067CLR     O151158  10.904  14.860   2.785
 1067CLR    HO151159  10.986  14.818   2.739
 1067CLR     C451160  10.866  14.705   2.967
 1067CLR     C551161  10.853  14.688   3.120
 1067CLR     C651162  10.899  14.575   3.173
 1067CLR     C751163  10.906  14.555   3.325
 1067CLR     C851164  10.814  14.648   3.405
 1067CLR     C951165  10.835  14.793   3.354
 1067CLR    C1051166  10.793  14.804   3.205
 1067CLR    C1951167  10.639  14.799   3.192
 1067CLR    C1151168  10.763  14.893   3.448
 1067CLR    C1451169  10.845  14.634   3.555
 1067CLR    C1251170  10.801  14.874   3.596
 1067CLR    C1351171  10.769  14.732   3.648
 1067CLR    C1851172  10.616  14.711   3.652
 1067CLR    C1551173  10.818  14.499   3.621
 1067CLR    C1651174  10.847  14.536   3.766
 1067CLR    C1751175  10.840  14.689   3.779
 1067CLR    C2051176  10.771  14.730   3.912
 1067CLR    C2151177  10.786  14.880   3.941
 1067CLR    C2251178  10.830  14.653   4.032
 1067CLR    C2351179  10.739  14.656   4.155
 1067CLR    C2451180  10.794  14.562   4.263
 1067CLR    C2551181  10.703  14.552   4.385
 1067CLR    C2651182  10.704  14.680   4.469
 1067CLR    C2751183  10.744  14.432   4.471
 1068CLR     C151184  12.469   1.587   2.667
 1068CLR     C251185  12.511   1.528   2.531
 1068CLR     C351186  12.445   1.608   2.419
 1068CLR     O151187  12.460   1.546   2.291
 1068CLR    HO151188  12.388   1.473   2.283
 1068CLR     C451189  12.495   1.753   2.420
 1068CLR     C551190  12.474   1.817   2.559
 1068CLR     C651191  12.418   1.938   2.563
 1068CLR     C751192  12.369   2.000   2.695
 1068CLR     C851193  12.432   1.940   2.822
 1068CLR     C951194  12.429   1.786   2.811
 1068CLR    C1051195  12.508   1.735   2.687
 1068CLR    C1951196  12.660   1.745   2.712
 1068CLR    C1151197  12.475   1.722   2.944
 1068CLR    C1451198  12.354   1.988   2.946
 1068CLR    C1251199  12.394   1.775   3.065
 1068CLR    C1351200  12.400   1.928   3.081
 1068CLR    C1851201  12.543   1.970   3.123
 1068CLR    C1551202  12.350   2.138   2.976
 1068CLR    C1651203  12.281   2.135   3.112
 1068CLR    C1751204  12.289   1.992   3.168
 1068CLR    C2051205  12.310   1.997   3.322
 1068CLR    C2151206  12.325   1.859   3.388
 1068CLR    C2251207  12.191   2.069   3.389
 1068CLR    C2351208  12.220   2.108   3.535
 1068CLR    C2451209  12.096   2.165   3.605
 1068CLR    C2551210  11.989   2.059   3.637
 1068CLR    C2651211  11.860   2.127   3.684
 1068CLR    C2751212  12.038   1.963   3.746
 1069CLR     C151213  12.066   4.934   2.482
 1069CLR     C251214  12.120   4.951   2.339
 1069CLR     C351215  12.029   5.043   2.256
 1069CLR     O151216  12.083   5.059   2.124
 1069CLR    HO151217  12.163   5.123   2.129
 1069CLR     C451218  12.015   5.181   2.323
 1069CLR     C551219  11.982   5.171   2.473
 1069CLR     C651220  11.888   5.253   2.522
 1069CLR     C751221  11.838   5.241   2.667
 1069CLR     C851222  11.935   5.168   2.761
 1069CLR     C951223  11.979   5.036   2.694
 1069CLR    C1051224  12.054   5.066   2.561
 1069CLR    C1951225  12.196   5.120   2.591
 1069CLR    C1151226  12.062   4.950   2.792
 1069CLR    C1451227  11.869   5.142   2.898
 1069CLR    C1251228  11.995   4.933   2.930
 1069CLR    C1351229  11.960   5.067   2.998
 1069CLR    C1851230  12.090   5.144   3.031
 1069CLR    C1551231  11.823   5.261   2.982
 1069CLR    C1651232  11.780   5.186   3.108
 1069CLR    C1751233  11.862   5.056   3.118
 1069CLR    C2051234  11.926   5.039   3.258
 1069CLR    C2151235  11.995   4.903   3.275
 1069CLR    C2251236  11.823   5.054   3.371
 1069CLR    C2351237  11.890   5.067   3.509
 1069CLR    C2451238  11.786   5.063   3.621
 1069CLR    C2551239  11.850   5.069   3.760
 1069CLR    C2651240  11.747   5.032   3.866
 1069CLR    C2751241  11.906   5.209   3.789
 1070CLR     C151242  11.558   7.527   2.622
 1070CLR     C251243  11.531   7.502   2.473
 1070CLR     C351244  11.448   7.616   2.414
 1070CLR     O151245  11.415   7.588   2.278
 1070CLR    HO151246  11.385   7.675   2.231
 1070CLR     C451247  11.522   7.750   2.427
 1070CLR     C551248  11.569   7.774   2.572
 1070CLR     C651249  11.545   7.894   2.625
 1070CLR     C751250  11.565   7.922   2.774
 1070CLR     C851251  11.661   7.824   2.845
 1070CLR     C951252  11.624   7.680   2.806
 1070CLR    C1051253  11.633   7.658   2.652
 1070CLR    C1951254  11.780   7.644   2.608
 1070CLR    C1151255  11.707   7.579   2.888
 1070CLR    C1451256  11.648   7.841   2.998
 1070CLR    C1251257  11.695   7.603   3.040
 1070CLR    C1351258  11.734   7.746   3.083
 1070CLR    C1851259  11.886   7.766   3.066
 1070CLR    C1551260  11.680   7.977   3.059
 1070CLR    C1651261  11.651   7.940   3.204
 1070CLR    C1751262  11.681   7.790   3.222
 1070CLR    C2051263  11.771   7.765   3.345
 1070CLR    C2151264  11.783   7.616   3.380
 1070CLR    C2251265  11.717   7.840   3.468
 1070CLR    C2351266  11.816   7.851   3.584
 1070CLR    C2451267  11.760   7.948   3.688
 1070CLR    C2551268  11.850   7.961   3.811
 1070CLR    C2651269  11.848   7.834   3.896
 1070CLR    C2751270  11.809   8.082   3.894
 1071CLR     C151271  12.304  11.367   3.026
 1071CLR     C251272  12.268  11.361   2.876
 1071CLR     C351273  12.248  11.215   2.833
 1071CLR     O151274  12.223  11.207   2.692
 1071CLR    HO151275  12.218  11.107   2.663
 1071CLR     C451276  12.133  11.151   2.913
 1071CLR     C551277  12.148  11.171   3.064
 1071CLR     C651278  12.125  11.066   3.143
 1071CLR     C751279  12.157  11.069   3.294
 1071CLR     C851280  12.172  11.209   3.355
 1071CLR     C951281  12.260  11.294   3.261
 1071CLR    C1051282  12.196  11.308   3.120
 1071CLR    C1951283  12.075  11.404   3.124
 1071CLR    C1151284  12.293  11.430   3.327
 1071CLR    C1451285  12.236  11.198   3.495
 1071CLR    C1251286  12.354  11.413   3.467
 1071CLR    C1351287  12.263  11.334   3.564
 1071CLR    C1851288  12.136  11.416   3.596
 1071CLR    C1551289  12.160  11.121   3.604
 1071CLR    C1651290  12.244  11.158   3.727
 1071CLR    C1751291  12.333  11.278   3.691
 1071CLR    C2051292  12.348  11.377   3.809
 1071CLR    C2151293  12.456  11.483   3.782
 1071CLR    C2251294  12.385  11.307   3.941
 1071CLR    C2351295  12.374  11.402   4.061
 1071CLR    C2451296  12.424  11.336   4.190
 1071CLR    C2551297  12.417  11.433   4.309
 1071CLR    C2651298  12.515  11.550   4.296
 1071CLR    C2751299  12.442  11.358   4.440
 1072CLR     C151300  11.472  15.383   2.990
 1072CLR     C251301  11.454  15.407   2.840
 1072CLR     C351302  11.565  15.497   2.785
 1072CLR     O151303  11.544  15.520   2.645
 1072CLR    HO151304  11.634  15.526   2.595
 1072CLR     C451305  11.703  15.433   2.809
 1072CLR     C551306  11.722  15.387   2.955
 1072CLR     C651307  11.839  15.414   3.013
 1072CLR     C751308  11.862  15.388   3.163
 1072CLR     C851309  11.764  15.289   3.227
 1072CLR     C951310  11.620  15.326   3.184
 1072CLR    C1051311  11.606  15.316   3.029
 1072CLR    C1951312  11.603  15.169   2.984
 1072CLR    C1151313  11.516  15.241   3.261
 1072CLR    C1451314  11.778  15.294   3.381
 1072CLR    C1251315  11.536  15.247   3.414
 1072CLR    C1351316  11.678  15.204   3.457
 1072CLR    C1851317  11.695  15.052   3.433
 1072CLR    C1551318  11.913  15.257   3.444
 1072CLR    C1651319  11.874  15.245   3.592
 1072CLR    C1751320  11.720  15.254   3.597
 1072CLR    C2051321  11.655  15.184   3.719
 1072CLR    C2151322  11.628  15.289   3.827
 1072CLR    C2251323  11.734  15.065   3.778
 1072CLR    C2351324  11.662  14.991   3.890
 1072CLR    C2451325  11.748  14.875   3.942
 1072CLR    C2551326  11.687  14.804   4.063
 1072CLR    C2651327  11.684  14.894   4.187
 1072CLR    C2751328  11.763  14.675   4.093
 1073CLR     C151329  13.475   2.094   2.369
 1073CLR     C251330  13.461   2.056   2.221
 1073CLR     C351331  13.435   2.183   2.138
 1073CLR     O151332  13.407   2.153   2.001
 1073CLR    HO151333  13.396   2.244   1.952
 1073CLR     C451334  13.552   2.281   2.151
 1073CLR     C551335  13.587   2.309   2.299
 1073CLR     C651336  13.605   2.436   2.335
 1073CLR     C751337  13.617   2.477   2.483
 1073CLR     C851338  13.659   2.363   2.577
 1073CLR     C951339  13.571   2.239   2.547
 1073CLR    C1051340  13.590   2.191   2.400
 1073CLR    C1951341  13.725   2.117   2.384
 1073CLR    C1151342  13.597   2.128   2.652
 1073CLR    C1451343  13.646   2.407   2.724
 1073CLR    C1251344  13.585   2.179   2.796
 1073CLR    C1351345  13.680   2.297   2.827
 1073CLR    C1851346  13.827   2.249   2.823
 1073CLR    C1551347  13.731   2.525   2.772
 1073CLR    C1651348  13.704   2.519   2.923
 1073CLR    C1751349  13.648   2.379   2.955
 1073CLR    C2051350  13.705   2.324   3.089
 1073CLR    C2151351  13.632   2.197   3.134
 1073CLR    C2251352  13.695   2.427   3.203
 1073CLR    C2351353  13.774   2.384   3.328
 1073CLR    C2451354  13.751   2.480   3.444
 1073CLR    C2551355  13.831   2.440   3.569
 1073CLR    C2651356  13.783   2.519   3.691
 1073CLR    C2751357  13.981   2.466   3.548
 1074CLR     C151358  12.316   4.505   2.407
 1074CLR     C251359  12.366   4.499   2.261
 1074CLR     C351360  12.399   4.640   2.209
 1074CLR     O151361  12.441   4.636   2.072
 1074CLR    HO151362  12.530   4.584   2.062
 1074CLR     C451363  12.508   4.705   2.296
 1074CLR     C551364  12.476   4.696   2.447
 1074CLR     C651365  12.496   4.805   2.522
 1074CLR     C751366  12.455   4.810   2.669
 1074CLR     C851367  12.439   4.672   2.735
 1074CLR     C951368  12.350   4.585   2.643
 1074CLR    C1051369  12.420   4.563   2.506
 1074CLR    C1951370  12.536   4.463   2.520
 1074CLR    C1151371  12.312   4.452   2.714
 1074CLR    C1451372  12.379   4.686   2.876
 1074CLR    C1251373  12.256   4.473   2.856
 1074CLR    C1351374  12.351   4.552   2.948
 1074CLR    C1851375  12.479   4.468   2.975
 1074CLR    C1551376  12.458   4.763   2.982
 1074CLR    C1651377  12.370   4.736   3.104
 1074CLR    C1751378  12.288   4.609   3.077
 1074CLR    C2051379  12.287   4.511   3.198
 1074CLR    C2151380  12.168   4.414   3.188
 1074CLR    C2251381  12.278   4.580   3.334
 1074CLR    C2351382  12.321   4.485   3.447
 1074CLR    C2451383  12.317   4.555   3.584
 1074CLR    C2551384  12.367   4.467   3.700
 1074CLR    C2651385  12.514   4.426   3.684
 1074CLR    C2751386  12.279   4.343   3.719
 1075CLR     C151387  11.509   8.363   2.665
 1075CLR     C251388  11.515   8.376   2.512
 1075CLR     C351389  11.439   8.502   2.467
 1075CLR     O151390  11.432   8.512   2.325
 1075CLR    HO151391  11.518   8.471   2.285
 1075CLR     C451392  11.502   8.628   2.528
 1075CLR     C551393  11.519   8.616   2.680
 1075CLR     C651394  11.483   8.721   2.755
 1075CLR     C751395  11.474   8.712   2.908
 1075CLR     C851396  11.552   8.596   2.971
 1075CLR     C951397  11.524   8.467   2.891
 1075CLR    C1051398  11.569   8.482   2.743
 1075CLR    C1951399  11.722   8.478   2.731
 1075CLR    C1151400  11.584   8.345   2.963
 1075CLR    C1451401  11.508   8.579   3.118
 1075CLR    C1251402  11.537   8.334   3.109
 1075CLR    C1351403  11.570   8.459   3.193
 1075CLR    C1851404  11.723   8.469   3.214
 1075CLR    C1551405  11.533   8.694   3.215
 1075CLR    C1651406  11.481   8.628   3.343
 1075CLR    C1751407  11.490   8.475   3.325
 1075CLR    C2051408  11.546   8.409   3.454
 1075CLR    C2151409  11.542   8.256   3.448
 1075CLR    C2251410  11.467   8.454   3.578
 1075CLR    C2351411  11.534   8.420   3.711
 1075CLR    C2451412  11.455   8.481   3.827
 1075CLR    C2551413  11.514   8.457   3.966
 1075CLR    C2651414  11.657   8.511   3.981
 1075CLR    C2751415  11.508   8.310   4.006
 1076CLR     C151416  13.723  11.664   3.173
 1076CLR     C251417  13.668  11.663   3.029
 1076CLR     C351418  13.535  11.587   3.023
 1076CLR     O151419  13.487  11.580   2.888
 1076CLR    HO151420  13.440  11.669   2.863
 1076CLR     C451421  13.431  11.654   3.114
 1076CLR     C551422  13.484  11.683   3.255
 1076CLR     C651423  13.402  11.659   3.358
 1076CLR     C751424  13.450  11.664   3.504
 1076CLR     C851425  13.582  11.739   3.527
 1076CLR     C951426  13.684  11.700   3.417
 1076CLR    C1051427  13.630  11.733   3.275
 1076CLR    C1951428  13.632  11.885   3.251
 1076CLR    C1151429  13.822  11.761   3.448
 1076CLR    C1451430  13.638  11.703   3.666
 1076CLR    C1251431  13.872  11.725   3.589
 1076CLR    C1351432  13.775  11.766   3.701
 1076CLR    C1851433  13.771  11.920   3.714
 1076CLR    C1551434  13.555  11.736   3.790
 1076CLR    C1651435  13.652  11.683   3.894
 1076CLR    C1751436  13.795  11.694   3.837
 1076CLR    C2051437  13.891  11.759   3.941
 1076CLR    C2151438  14.037  11.759   3.894
 1076CLR    C2251439  13.882  11.686   4.076
 1076CLR    C2351440  13.962  11.752   4.190
 1076CLR    C2451441  13.939  11.675   4.321
 1076CLR    C2551442  14.026  11.722   4.438
 1076CLR    C2651443  14.005  11.869   4.474
 1076CLR    C2751444  14.175  11.692   4.413
 1077CLR     C151445  12.953  16.270   2.719
 1077CLR     C251446  12.967  16.301   2.569
 1077CLR     C351447  12.829  16.298   2.501
 1077CLR     O151448  12.841  16.324   2.361
 1077CLR    HO151449  12.888  16.245   2.316
 1077CLR     C451450  12.734  16.400   2.566
 1077CLR     C551451  12.731  16.389   2.719
 1077CLR     C651452  12.613  16.396   2.781
 1077CLR     C751453  12.599  16.372   2.932
 1077CLR     C851454  12.729  16.389   3.012
 1077CLR     C951455  12.841  16.311   2.939
 1077CLR    C1051456  12.864  16.369   2.797
 1077CLR    C1951457  12.935  16.505   2.805
 1077CLR    C1151458  12.969  16.307   3.026
 1077CLR    C1451459  12.709  16.337   3.156
 1077CLR    C1251460  12.941  16.256   3.169
 1077CLR    C1351461  12.836  16.340   3.244
 1077CLR    C1851462  12.892  16.481   3.272
 1077CLR    C1551463  12.606  16.409   3.244
 1077CLR    C1651464  12.637  16.346   3.380
 1077CLR    C1751465  12.773  16.274   3.370
 1077CLR    C2051466  12.853  16.287   3.502
 1077CLR    C2151467  12.980  16.201   3.502
 1077CLR    C2251468  12.770  16.246   3.625
 1077CLR    C2351469  12.833  16.295   3.756
 1077CLR    C2451470  12.754  16.246   3.877
 1077CLR    C2551471  12.805  16.305   4.009
 1077CLR    C2651472  12.949  16.264   4.041
 1077CLR    C2751473  12.711  16.263   4.123
 1078CLR     C151474  13.933   3.269   2.242
 1078CLR     C251475  13.972   3.222   2.101
 1078CLR     C351476  13.911   3.314   1.995
 1078CLR     O151477  13.940   3.266   1.862
 1078CLR    HO151478  14.039   3.236   1.857
 1078CLR     C451479  13.961   3.458   2.014
 1078CLR     C551480  13.942   3.507   2.158
 1078CLR     C651481  13.888   3.628   2.176
 1078CLR     C751482  13.845   3.678   2.315
 1078CLR     C851483  13.914   3.606   2.431
 1078CLR     C951484  13.906   3.454   2.409
 1078CLR    C1051485  13.978   3.413   2.277
 1078CLR    C1951486  14.131   3.416   2.294
 1078CLR    C1151487  13.958   3.377   2.533
 1078CLR    C1451488  13.847   3.646   2.564
 1078CLR    C1251489  13.891   3.423   2.664
 1078CLR    C1351490  13.904   3.574   2.688
 1078CLR    C1851491  14.052   3.610   2.719
 1078CLR    C1551492  13.845   3.793   2.606
 1078CLR    C1651493  13.798   3.782   2.752
 1078CLR    C1751494  13.799   3.632   2.786
 1078CLR    C2051495  13.817   3.600   2.936
 1078CLR    C2151496  13.678   3.589   3.000
 1078CLR    C2251497  13.905   3.699   3.016
 1078CLR    C2351498  13.926   3.659   3.162
 1078CLR    C2451499  14.030   3.750   3.227
 1078CLR    C2551500  14.042   3.726   3.378
 1078CLR    C2651501  13.925   3.788   3.454
 1078CLR    C2751502  14.175   3.780   3.429
 1079CLR     C151503  13.402   6.973   3.051
 1079CLR     C251504  13.438   6.936   2.906
 1079CLR     C351505  13.317   6.957   2.815
 1079CLR     O151506  13.347   6.918   2.680
 1079CLR    HO151507  13.367   6.816   2.676
 1079CLR     C451508  13.272   7.104   2.818
 1079CLR     C551509  13.256   7.158   2.961
 1079CLR     C651510  13.148   7.234   2.986
 1079CLR     C751511  13.112   7.277   3.129
 1079CLR     C851512  13.227   7.268   3.231
 1079CLR     C951513  13.297   7.132   3.214
 1079CLR    C1051514  13.358   7.119   3.071
 1079CLR    C1951515  13.481   7.212   3.056
 1079CLR    C1151516  13.400   7.109   3.328
 1079CLR    C1451517  13.170   7.283   3.374
 1079CLR    C1251518  13.337   7.127   3.467
 1079CLR    C1351519  13.272   7.265   3.488
 1079CLR    C1851520  13.383   7.374   3.493
 1079CLR    C1551521  13.103   7.415   3.411
 1079CLR    C1651522  13.075   7.387   3.558
 1079CLR    C1751523  13.172   7.277   3.606
 1079CLR    C2051524  13.227   7.311   3.746
 1079CLR    C2151525  13.314   7.198   3.805
 1079CLR    C2251526  13.114   7.339   3.846
 1079CLR    C2351527  13.160   7.411   3.973
 1079CLR    C2451528  13.041   7.436   4.066
 1079CLR    C2551529  13.079   7.516   4.191
 1079CLR    C2651530  12.964   7.514   4.292
 1079CLR    C2751531  13.113   7.661   4.155
 1080CLR     C151532  13.980   9.081   3.381
 1080CLR     C251533  14.042   9.172   3.274
 1080CLR     C351534  13.951   9.291   3.243
 1080CLR     O151535  14.009   9.374   3.141
 1080CLR    HO151536  14.057   9.316   3.073
 1080CLR     C451537  13.925   9.373   3.370
 1080CLR     C551538  13.886   9.287   3.492
 1080CLR     C651539  13.788   9.333   3.571
 1080CLR     C751540  13.728   9.247   3.683
 1080CLR     C851541  13.815   9.129   3.729
 1080CLR     C951542  13.870   9.056   3.605
 1080CLR    C1051543  13.956   9.151   3.517
 1080CLR    C1951544  14.093   9.178   3.584
 1080CLR    C1151545  13.943   8.927   3.648
 1080CLR    C1451546  13.730   9.034   3.816
 1080CLR    C1251547  13.854   8.836   3.736
 1080CLR    C1351548  13.802   8.905   3.864
 1080CLR    C1851549  13.919   8.930   3.961
 1080CLR    C1551550  13.670   9.086   3.947
 1080CLR    C1651551  13.609   8.957   4.000
 1080CLR    C1751552  13.680   8.838   3.931
 1080CLR    C2051553  13.705   8.723   4.033
 1080CLR    C2151554  13.766   8.598   3.968
 1080CLR    C2251555  13.575   8.681   4.103
 1080CLR    C2351556  13.594   8.590   4.224
 1080CLR    C2451557  13.459   8.554   4.286
 1080CLR    C2551558  13.471   8.472   4.415
 1080CLR    C2651559  13.526   8.332   4.392
 1080CLR    C2751560  13.336   8.466   4.487
 1081CLR     C151561  13.145  12.622   3.041
 1081CLR     C251562  13.086  12.588   2.904
 1081CLR     C351563  13.184  12.502   2.823
 1081CLR     O151564  13.135  12.476   2.691
 1081CLR    HO151565  13.144  12.562   2.633
 1081CLR     C451566  13.212  12.370   2.897
 1081CLR     C551567  13.253  12.394   3.043
 1081CLR     C651568  13.357  12.324   3.091
 1081CLR     C751569  13.418  12.353   3.229
 1081CLR     C851570  13.325  12.428   3.325
 1081CLR     C951571  13.263  12.548   3.249
 1081CLR    C1051572  13.178  12.499   3.129
 1081CLR    C1951573  13.046  12.437   3.177
 1081CLR    C1151574  13.186  12.640   3.347
 1081CLR    C1451575  13.405  12.475   3.448
 1081CLR    C1251576  13.274  12.684   3.465
 1081CLR    C1351577  13.329  12.566   3.548
 1081CLR    C1851578  13.212  12.497   3.623
 1081CLR    C1551579  13.466  12.368   3.539
 1081CLR    C1651580  13.514  12.455   3.656
 1081CLR    C1751581  13.451  12.595   3.639
 1081CLR    C2051582  13.423  12.662   3.776
 1081CLR    C2151583  13.387  12.811   3.760
 1081CLR    C2251584  13.545  12.654   3.869
 1081CLR    C2351585  13.516  12.701   4.012
 1081CLR    C2451586  13.637  12.679   4.103
 1081CLR    C2551587  13.610  12.729   4.245
 1081CLR    C2651588  13.610  12.882   4.253
 1081CLR    C2751589  13.711  12.669   4.343
 1082CLR     C151590  14.486   0.891   2.751
 1082CLR     C251591  14.510   0.859   2.603
 1082CLR     C351592  14.479   0.711   2.576
 1082CLR     O151593  14.511   0.670   2.442
 1082CLR    HO151594  14.480   0.572   2.432
 1082CLR     C451595  14.332   0.682   2.608
 1082CLR     C551596  14.295   0.726   2.750
 1082CLR     C651597  14.232   0.637   2.827
 1082CLR     C751598  14.210   0.662   2.977
 1082CLR     C851599  14.217   0.810   3.018
 1082CLR     C951600  14.344   0.873   2.957
 1082CLR    C1051601  14.342   0.865   2.801
 1082CLR    C1951602  14.247   0.971   2.742
 1082CLR    C1151603  14.364   1.016   3.011
 1082CLR    C1451604  14.220   0.820   3.172
 1082CLR    C1251605  14.362   1.023   3.165
 1082CLR    C1351606  14.233   0.964   3.227
 1082CLR    C1851607  14.112   1.055   3.194
 1082CLR    C1551608  14.102   0.766   3.252
 1082CLR    C1651609  14.151   0.805   3.391
 1082CLR    C1751610  14.243   0.928   3.378
 1082CLR    C2051611  14.204   1.036   3.482
 1082CLR    C2151612  14.298   1.157   3.480
 1082CLR    C2251613  14.207   0.977   3.625
 1082CLR    C2351614  14.135   1.062   3.731
 1082CLR    C2451615  13.982   1.060   3.712
 1082CLR    C2551616  13.907   1.128   3.827
 1082CLR    C2651617  13.922   1.052   3.959
 1082CLR    C2751618  13.759   1.143   3.791
 1083CLR     C151619  14.664   3.727   2.523
 1083CLR     C251620  14.574   3.842   2.472
 1083CLR     C351621  14.528   3.814   2.329
 1083CLR     O151622  14.452   3.923   2.275
 1083CLR    HO151623  14.517   4.000   2.250
 1083CLR     C451624  14.447   3.684   2.323
 1083CLR     C551625  14.522   3.567   2.388
 1083CLR     C651626  14.526   3.451   2.322
 1083CLR     C751627  14.616   3.335   2.367
 1083CLR     C851628  14.658   3.340   2.515
 1083CLR     C951629  14.708   3.483   2.547
 1083CLR    C1051630  14.596   3.588   2.523
 1083CLR    C1951631  14.492   3.583   2.636
 1083CLR    C1151632  14.770   3.487   2.688
 1083CLR    C1451633  14.769   3.236   2.541
 1083CLR    C1251634  14.879   3.380   2.708
 1083CLR    C1351635  14.829   3.236   2.683
 1083CLR    C1851636  14.731   3.195   2.795
 1083CLR    C1551637  14.735   3.088   2.519
 1083CLR    C1651638  14.866   3.026   2.569
 1083CLR    C1751639  14.939   3.130   2.655
 1083CLR    C2051640  15.007   3.063   2.777
 1083CLR    C2151641  15.097   3.161   2.855
 1083CLR    C2251642  15.094   2.943   2.734
 1083CLR    C2351643  15.150   2.857   2.849
 1083CLR    C2451644  15.042   2.780   2.925
 1083CLR    C2551645  15.101   2.693   3.037
 1083CLR    C2651646  15.182   2.575   2.983
 1083CLR    C2751647  14.990   2.643   3.129
 1084CLR     C151648  14.394   7.488   2.795
 1084CLR     C251649  14.380   7.450   2.647
 1084CLR     C351650  14.429   7.306   2.624
 1084CLR     O151651  14.429   7.271   2.485
 1084CLR    HO151652  14.501   7.199   2.468
 1084CLR     C451653  14.344   7.208   2.706
 1084CLR     C551654  14.334   7.249   2.854
 1084CLR     C651655  14.351   7.154   2.946
 1084CLR     C751656  14.365   7.186   3.096
 1084CLR     C851657  14.313   7.324   3.138
 1084CLR     C951658  14.364   7.430   3.037
 1084CLR    C1051659  14.314   7.399   2.893
 1084CLR    C1951660  14.164   7.432   2.879
 1084CLR    C1151661  14.329   7.572   3.087
 1084CLR    C1451662  14.362   7.356   3.281
 1084CLR    C1251663  14.381   7.598   3.230
 1084CLR    C1351664  14.326   7.497   3.334
 1084CLR    C1851665  14.175   7.522   3.356
 1084CLR    C1551666  14.316   7.266   3.395
 1084CLR    C1651667  14.380   7.342   3.512
 1084CLR    C1751668  14.407   7.487   3.466
 1084CLR    C2051669  14.375   7.585   3.582
 1084CLR    C2151670  14.402   7.732   3.547
 1084CLR    C2251671  14.458   7.550   3.707
 1084CLR    C2351672  14.416   7.623   3.835
 1084CLR    C2451673  14.505   7.581   3.952
 1084CLR    C2551674  14.464   7.644   4.085
 1084CLR    C2651675  14.484   7.796   4.088
 1084CLR    C2751676  14.541   7.578   4.200
 1085CLR     C151677  15.042  10.932   3.417
 1085CLR     C251678  14.976  10.999   3.296
 1085CLR     C351679  15.032  10.938   3.166
 1085CLR     O151680  14.978  11.008   3.054
 1085CLR    HO151681  14.983  10.947   2.970
 1085CLR     C451682  15.002  10.787   3.160
 1085CLR     C551683  15.045  10.714   3.288
 1085CLR     C651684  15.107  10.596   3.276
 1085CLR     C751685  15.169  10.524   3.397
 1085CLR     C851686  15.116  10.570   3.534
 1085CLR     C951687  15.113  10.725   3.536
 1085CLR    C1051688  15.018  10.780   3.426
 1085CLR    C1951689  14.871  10.754   3.464
 1085CLR    C1151690  15.078  10.776   3.678
 1085CLR    C1451691  15.206  10.516   3.648
 1085CLR    C1251692  15.170  10.717   3.786
 1085CLR    C1351693  15.168  10.563   3.790
 1085CLR    C1851694  15.030  10.513   3.839
 1085CLR    C1551695  15.218  10.365   3.666
 1085CLR    C1651696  15.299  10.361   3.796
 1085CLR    C1751697  15.287  10.498   3.865
 1085CLR    C2051698  15.274  10.481   4.019
 1085CLR    C2151699  15.264  10.614   4.095
 1085CLR    C2251700  15.394  10.403   4.076
 1085CLR    C2351701  15.376  10.365   4.224
 1085CLR    C2451702  15.501  10.298   4.280
 1085CLR    C2551703  15.487  10.266   4.429
 1085CLR    C2651704  15.621  10.220   4.487
 1085CLR    C2751705  15.382  10.156   4.452
 1086CLR     C151706  15.044  14.789   3.067
 1086CLR     C251707  14.987  14.799   2.925
 1086CLR     C351708  14.858  14.882   2.925
 1086CLR     O151709  14.799  14.884   2.795
 1086CLR    HO151710  14.775  14.788   2.769
 1086CLR     C451711  14.887  15.024   2.976
 1086CLR     C551712  14.964  15.024   3.109
 1086CLR     C651713  14.923  15.109   3.204
 1086CLR     C751714  14.979  15.103   3.347
 1086CLR     C851715  15.115  15.033   3.359
 1086CLR     C951716  15.109  14.899   3.282
 1086CLR    C1051717  15.081  14.924   3.131
 1086CLR    C1951718  15.206  14.980   3.061
 1086CLR    C1151719  15.235  14.815   3.309
 1086CLR    C1451720  15.150  15.010   3.508
 1086CLR    C1251721  15.264  14.797   3.459
 1086CLR    C1351722  15.280  14.931   3.534
 1086CLR    C1851723  15.409  15.002   3.485
 1086CLR    C1551724  15.166  15.134   3.597
 1086CLR    C1651725  15.224  15.070   3.723
 1086CLR    C1751726  15.269  14.927   3.688
 1086CLR    C2051727  15.399  14.886   3.762
 1086CLR    C2151728  15.413  14.733   3.765
 1086CLR    C2251729  15.404  14.934   3.908
 1086CLR    C2351730  15.544  14.919   3.970
 1086CLR    C2451731  15.549  14.968   4.116
 1086CLR    C2551732  15.531  15.119   4.131
 1086CLR    C2651733  15.651  15.198   4.078
 1086CLR    C2751734  15.505  15.154   4.277
 1087CLR     C151735  15.578   0.780   2.551
 1087CLR     C251736  15.624   0.797   2.405
 1087CLR     C351737  15.752   0.717   2.377
 1087CLR     O151738  15.793   0.735   2.241
 1087CLR    HO151739  15.803   0.643   2.195
 1087CLR     C451740  15.729   0.568   2.406
 1087CLR     C551741  15.665   0.544   2.544
 1087CLR     C651742  15.720   0.449   2.620
 1087CLR     C751743  15.680   0.431   2.767
 1087CLR     C851744  15.542   0.488   2.803
 1087CLR     C951745  15.532   0.631   2.747
 1087CLR    C1051746  15.548   0.634   2.592
 1087CLR    C1951747  15.419   0.586   2.523
 1087CLR    C1151748  15.403   0.699   2.799
 1087CLR    C1451749  15.527   0.489   2.957
 1087CLR    C1251750  15.391   0.695   2.953
 1087CLR    C1351751  15.397   0.552   3.011
 1087CLR    C1851752  15.269   0.474   2.973
 1087CLR    C1551753  15.532   0.356   3.031
 1087CLR    C1651754  15.514   0.411   3.172
 1087CLR    C1751755  15.433   0.542   3.162
 1087CLR    C2051756  15.316   0.541   3.264
 1087CLR    C2151757  15.243   0.676   3.270
 1087CLR    C2251758  15.364   0.507   3.406
 1087CLR    C2351759  15.249   0.476   3.502
 1087CLR    C2451760  15.299   0.438   3.642
 1087CLR    C2551761  15.187   0.405   3.742
 1087CLR    C2651762  15.100   0.287   3.700
 1087CLR    C2751763  15.100   0.528   3.771
 1088CLR     C151764  14.363   5.032   2.596
 1088CLR     C251765  14.382   5.097   2.458
 1088CLR     C351766  14.517   5.054   2.398
 1088CLR     O151767  14.543   5.122   2.275
 1088CLR    HO151768  14.534   5.223   2.291
 1088CLR     C451769  14.518   4.902   2.378
 1088CLR     C551770  14.479   4.826   2.506
 1088CLR     C651771  14.554   4.720   2.540
 1088CLR     C751772  14.540   4.652   2.677
 1088CLR     C851773  14.409   4.681   2.752
 1088CLR     C951774  14.379   4.832   2.743
 1088CLR    C1051775  14.363   4.878   2.596
 1088CLR    C1951776  14.231   4.828   2.536
 1088CLR    C1151777  14.258   4.867   2.833
 1088CLR    C1451778  14.425   4.637   2.900
 1088CLR    C1251779  14.282   4.824   2.979
 1088CLR    C1351780  14.308   4.673   2.994
 1088CLR    C1851781  14.176   4.596   2.967
 1088CLR    C1551782  14.450   4.489   2.929
 1088CLR    C1651783  14.434   4.488   3.081
 1088CLR    C1751784  14.380   4.626   3.123
 1088CLR    C2051785  14.295   4.616   3.252
 1088CLR    C2151786  14.240   4.749   3.305
 1088CLR    C2251787  14.368   4.546   3.369
 1088CLR    C2351788  14.496   4.617   3.418
 1088CLR    C2451789  14.561   4.536   3.530
 1088CLR    C2551790  14.695   4.595   3.576
 1088CLR    C2651791  14.765   4.498   3.671
 1088CLR    C2751792  14.675   4.730   3.646
 1089CLR     C151793  14.556   8.057   2.688
 1089CLR     C251794  14.494   8.047   2.548
 1089CLR     C351795  14.599   8.075   2.439
 1089CLR     O151796  14.540   8.066   2.308
 1089CLR    HO151797  14.498   7.973   2.298
 1089CLR     C451798  14.716   7.977   2.450
 1089CLR     C551799  14.772   7.967   2.593
 1089CLR     C651800  14.904   7.974   2.608
 1089CLR     C751801  14.969   7.990   2.746
 1089CLR     C851802  14.882   7.947   2.865
 1089CLR     C951803  14.740   8.005   2.847
 1089CLR    C1051804  14.674   7.961   2.714
 1089CLR    C1951805  14.620   7.817   2.724
 1089CLR    C1151806  14.655   7.974   2.972
 1089CLR    C1451807  14.944   8.002   2.995
 1089CLR    C1251808  14.722   8.024   3.102
 1089CLR    C1351809  14.864   7.969   3.124
 1089CLR    C1851810  14.860   7.818   3.159
 1089CLR    C1551811  15.086   7.960   3.033
 1089CLR    C1651812  15.094   8.028   3.170
 1089CLR    C1751813  14.951   8.054   3.220
 1089CLR    C2051814  14.947   8.028   3.373
 1089CLR    C2151815  14.807   8.024   3.435
 1089CLR    C2251816  15.032   8.136   3.444
 1089CLR    C2351817  15.047   8.118   3.595
 1089CLR    C2451818  15.129   8.233   3.654
 1089CLR    C2551819  15.143   8.223   3.806
 1089CLR    C2651820  15.010   8.247   3.879
 1089CLR    C2751821  15.249   8.322   3.856
 1090CLR     C151822  15.786  11.311   3.312
 1090CLR     C251823  15.748  11.295   3.164
 1090CLR     C351824  15.870  11.311   3.073
 1090CLR     O151825  15.831  11.291   2.937
 1090CLR    HO151826  15.728  11.279   2.935
 1090CLR     C451827  15.981  11.211   3.110
 1090CLR     C551828  16.009  11.205   3.261
 1090CLR     C651829  16.136  11.198   3.302
 1090CLR     C751830  16.174  11.205   3.451
 1090CLR     C851831  16.059  11.172   3.547
 1090CLR     C951832  15.933  11.250   3.504
 1090CLR    C1051833  15.890  11.208   3.361
 1090CLR    C1951834  15.826  11.067   3.363
 1090CLR    C1151835  15.820  11.234   3.608
 1090CLR    C1451836  16.098  11.208   3.692
 1090CLR    C1251837  15.865  11.265   3.751
 1090CLR    C1351838  15.987  11.181   3.796
 1090CLR    C1851839  15.946  11.032   3.806
 1090CLR    C1551840  16.218  11.138   3.756
 1090CLR    C1651841  16.207  11.196   3.897
 1090CLR    C1751842  16.060  11.233   3.923
 1090CLR    C2051843  16.006  11.176   4.057
 1090CLR    C2151844  15.875  11.244   4.099
 1090CLR    C2251845  16.106  11.191   4.172
 1090CLR    C2351846  16.068  11.102   4.291
 1090CLR    C2451847  16.171  11.114   4.403
 1090CLR    C2551848  16.137  11.021   4.520
 1090CLR    C2651849  16.011  11.066   4.595
 1090CLR    C2751850  16.256  11.013   4.615
 1091CLR     C151851  14.140  15.933   2.757
 1091CLR     C251852  14.097  15.851   2.634
 1091CLR     C351853  14.196  15.737   2.609
 1091CLR     O151854  14.173  15.664   2.487
 1091CLR    HO151855  14.076  15.681   2.454
 1091CLR     C451856  14.200  15.642   2.729
 1091CLR     C551857  14.230  15.720   2.859
 1091CLR     C651858  14.327  15.673   2.938
 1091CLR     C751859  14.378  15.755   3.058
 1091CLR     C851860  14.278  15.859   3.110
 1091CLR     C951861  14.226  15.942   2.991
 1091CLR    C1051862  14.153  15.852   2.888
 1091CLR    C1951863  14.012  15.814   2.939
 1091CLR    C1151864  14.141  16.061   3.041
 1091CLR    C1451865  14.347  15.949   3.214
 1091CLR    C1251866  14.212  16.145   3.149
 1091CLR    C1351867  14.258  16.062   3.271
 1091CLR    C1851868  14.135  16.012   3.349
 1091CLR    C1551869  14.400  15.884   3.341
 1091CLR    C1651870  14.449  16.010   3.411
 1091CLR    C1751871  14.364  16.129   3.361
 1091CLR    C2051872  14.312  16.215   3.479
 1091CLR    C2151873  14.260  16.351   3.430
 1091CLR    C2251874  14.420  16.241   3.585
 1091CLR    C2351875  14.364  16.295   3.717
 1091CLR    C2451876  14.473  16.304   3.825
 1091CLR    C2551877  14.582  16.407   3.795
 1091CLR    C2651878  14.697  16.390   3.895
 1091CLR    C2751879  14.528  16.550   3.805
 1092CLR     C151880  15.893   1.552   2.969
 1092CLR     C251881  15.887   1.529   2.817
 1092CLR     C351882  16.028   1.541   2.759
 1092CLR     O151883  16.028   1.538   2.616
 1092CLR    HO151884  16.125   1.550   2.582
 1092CLR     C451885  16.118   1.430   2.816
 1092CLR     C551886  16.117   1.432   2.969
 1092CLR     C651887  16.235   1.426   3.030
 1092CLR     C751888  16.250   1.457   3.180
 1092CLR     C851889  16.121   1.445   3.263
 1092CLR     C951890  16.007   1.516   3.187
 1092CLR    C1051891  15.984   1.454   3.047
 1092CLR    C1951892  15.913   1.317   3.058
 1092CLR    C1151893  15.880   1.521   3.276
 1092CLR    C1451894  16.143   1.511   3.400
 1092CLR    C1251895  15.907   1.584   3.413
 1092CLR    C1351896  16.019   1.513   3.493
 1092CLR    C1851897  15.970   1.373   3.537
 1092CLR    C1551898  16.252   1.453   3.491
 1092CLR    C1651899  16.225   1.532   3.619
 1092CLR    C1751900  16.084   1.594   3.608
 1092CLR    C2051901  16.010   1.592   3.744
 1092CLR    C2151902  15.884   1.680   3.742
 1092CLR    C2251903  16.099   1.641   3.859
 1092CLR    C2351904  16.040   1.611   3.998
 1092CLR    C2451905  16.135   1.649   4.112
 1092CLR    C2551906  16.156   1.799   4.129
 1092CLR    C2651907  16.272   1.825   4.226
 1092CLR    C2751908  16.030   1.867   4.183
 1093CLR     C151909  14.471   6.026   2.693
 1093CLR     C251910  14.490   6.041   2.541
 1093CLR     C351911  14.635   6.012   2.504
 1093CLR     O151912  14.661   6.038   2.365
 1093CLR    HO151913  14.719   6.124   2.356
 1093CLR     C451914  14.673   5.869   2.542
 1093CLR     C551915  14.640   5.837   2.689
 1093CLR     C651916  14.732   5.774   2.762
 1093CLR     C751917  14.718   5.757   2.914
 1093CLR     C851918  14.575   5.772   2.968
 1093CLR     C951919  14.511   5.897   2.904
 1093CLR    C1051920  14.505   5.886   2.749
 1093CLR    C1951921  14.396   5.786   2.706
 1093CLR    C1151922  14.373   5.925   2.970
 1093CLR    C1451923  14.579   5.785   3.122
 1093CLR    C1251924  14.382   5.934   3.123
 1093CLR    C1351925  14.441   5.808   3.189
 1093CLR    C1851926  14.343   5.689   3.172
 1093CLR    C1551927  14.635   5.670   3.205
 1093CLR    C1651928  14.608   5.727   3.345
 1093CLR    C1751929  14.490   5.826   3.335
 1093CLR    C2051930  14.388   5.801   3.449
 1093CLR    C2151931  14.273   5.903   3.450
 1093CLR    C2251932  14.455   5.806   3.588
 1093CLR    C2351933  14.368   5.747   3.699
 1093CLR    C2451934  14.430   5.774   3.837
 1093CLR    C2551935  14.357   5.709   3.955
 1093CLR    C2651936  14.361   5.556   3.952
 1093CLR    C2751937  14.212   5.758   3.967
 1094CLR     C151938  15.990   8.285   2.789
 1094CLR     C251939  15.973   8.251   2.640
 1094CLR     C351940  16.110   8.242   2.571
 1094CLR     O151941  16.099   8.220   2.430
 1094CLR    HO151942  16.008   8.179   2.404
 1094CLR     C451943  16.196   8.133   2.636
 1094CLR     C551944  16.203   8.148   2.789
 1094CLR     C651945  16.323   8.136   2.847
 1094CLR     C751946  16.344   8.168   2.996
 1094CLR     C851947  16.216   8.167   3.080
 1094CLR     C951948  16.106   8.247   3.007
 1094CLR    C1051949  16.074   8.183   2.869
 1094CLR    C1951950  15.993   8.054   2.886
 1094CLR    C1151951  15.982   8.263   3.098
 1094CLR    C1451952  16.245   8.225   3.220
 1094CLR    C1251953  16.016   8.317   3.238
 1094CLR    C1351954  16.121   8.230   3.312
 1094CLR    C1851955  16.061   8.091   3.343
 1094CLR    C1551956  16.348   8.156   3.309
 1094CLR    C1651957  16.329   8.235   3.438
 1094CLR    C1751958  16.187   8.296   3.436
 1094CLR    C2051959  16.109   8.275   3.568
 1094CLR    C2151960  16.006   8.387   3.586
 1094CLR    C2251961  16.196   8.271   3.694
 1094CLR    C2351962  16.122   8.200   3.809
 1094CLR    C2451963  16.217   8.168   3.924
 1094CLR    C2551964  16.151   8.081   4.032
 1094CLR    C2651965  16.246   8.061   4.149
 1094CLR    C2751966  16.110   7.944   3.976
 1095CLR     C151967  16.345  12.340   3.220
 1095CLR     C251968  16.348  12.236   3.106
 1095CLR     C351969  16.449  12.124   3.139
 1095CLR     O151970  16.459  12.028   3.033
 1095CLR    HO151971  16.435  12.073   2.943
 1095CLR     C451972  16.411  12.053   3.269
 1095CLR     C551973  16.383  12.152   3.384
 1095CLR     C651974  16.435  12.122   3.504
 1095CLR     C751975  16.429  12.221   3.621
 1095CLR     C851976  16.322  12.330   3.606
 1095CLR     C951977  16.332  12.391   3.465
 1095CLR    C1051978  16.304  12.282   3.357
 1095CLR    C1951979  16.154  12.247   3.353
 1095CLR    C1151980  16.241  12.516   3.453
 1095CLR    C1451981  16.343  12.438   3.715
 1095CLR    C1251982  16.265  12.618   3.566
 1095CLR    C1351983  16.246  12.557   3.707
 1095CLR    C1851984  16.097  12.520   3.727
 1095CLR    C1551985  16.330  12.396   3.861
 1095CLR    C1651986  16.348  12.533   3.926
 1095CLR    C1751987  16.303  12.640   3.825
 1095CLR    C2051988  16.209  12.744   3.891
 1095CLR    C2151989  16.184  12.864   3.799
 1095CLR    C2251990  16.265  12.797   4.024
 1095CLR    C2351991  16.167  12.886   4.101
 1095CLR    C2451992  16.229  12.939   4.230
 1095CLR    C2551993  16.137  13.035   4.305
 1095CLR    C2651994  16.212  13.099   4.422
 1095CLR    C2751995  16.012  12.964   4.357
 1096CLR     C151996  16.656  16.220   2.756
 1096CLR     C251997  16.681  16.234   2.605
 1096CLR     C351998  16.623  16.114   2.530
 1096CLR     O151999  16.657  16.122   2.391
 1096CLR    HO152000  16.686  16.217   2.366
 1096CLR     C452001  16.471  16.105   2.553
 1096CLR     C552002  16.434  16.113   2.703
 1096CLR     C652003  16.340  16.030   2.750
 1096CLR     C752004  16.310  16.020   2.901
 1096CLR     C852005  16.356  16.140   2.985
 1096CLR     C952006  16.501  16.174   2.945
 1096CLR    C1052007  16.507  16.214   2.795
 1096CLR    C1952008  16.444  16.353   2.773
 1096CLR    C1152009  16.561  16.281   3.039
 1096CLR    C1452010  16.347  16.107   3.136
 1096CLR    C1252011  16.548  16.242   3.187
 1096CLR    C1352012  16.402  16.216   3.230
 1096CLR    C1852013  16.323  16.350   3.227
 1096CLR    C1552014  16.209  16.079   3.196
 1096CLR    C1652015  16.247  16.070   3.344
 1096CLR    C1752016  16.383  16.139   3.364
 1096CLR    C2052017  16.387  16.223   3.494
 1096CLR    C2152018  16.526  16.280   3.524
 1096CLR    C2252019  16.341  16.140   3.617
 1096CLR    C2352020  16.328  16.224   3.744
 1096CLR    C2452021  16.284  16.139   3.864
 1096CLR    C2552022  16.286  16.218   3.996
 1096CLR    C2652023  16.255  16.125   4.113
 1096CLR    C2752024  16.186  16.334   3.995
 1097CLR     C152025  16.946   2.863   2.150
 1097CLR     C252026   0.023   2.772   2.042
 1097CLR     C352027   0.061   2.855   1.918
 1097CLR     O152028   0.108   2.770   1.813
 1097CLR    HO152029   0.121   2.675   1.851
 1097CLR     C452030   0.166   2.961   1.956
 1097CLR     C552031   0.122   3.045   2.077
 1097CLR     C652032   0.136   3.178   2.069
 1097CLR     C752033   0.073   3.272   2.173
 1097CLR     C852034   0.041   3.207   2.308
 1097CLR     C952035  16.951   3.073   2.282
 1097CLR    C1052036   0.056   2.976   2.199
 1097CLR    C1952037   0.167   2.915   2.287
 1097CLR    C1152038  16.901   3.014   2.415
 1097CLR    C1452039  16.935   3.302   2.391
 1097CLR    C1252040  16.814   3.113   2.494
 1097CLR    C1352041  16.886   3.246   2.527
 1097CLR    C1852042   0.014   3.221   2.631
 1097CLR    C1552043   0.009   3.439   2.430
 1097CLR    C1652044  16.883   3.486   2.526
 1097CLR    C1752045  16.794   3.366   2.561
 1097CLR    C2052046  16.741   3.382   2.706
 1097CLR    C2152047  16.660   3.261   2.758
 1097CLR    C2252048  16.651   3.507   2.714
 1097CLR    C2352049  16.604   3.547   2.854
 1097CLR    C2452050  16.716   3.604   2.942
 1097CLR    C2552051  16.671   3.648   3.082
 1097CLR    C2652052  16.615   3.532   3.165
 1097CLR    C2752053  16.569   3.762   3.075
 1098CLR     C152054  16.439   6.819   2.648
 1098CLR     C252055  16.432   6.824   2.494
 1098CLR     C352056  16.564   6.777   2.431
 1098CLR     O152057  16.550   6.779   2.288
 1098CLR    HO152058  16.621   6.838   2.245
 1098CLR     C452059  16.600   6.635   2.477
 1098CLR     C552060  16.588   6.617   2.630
 1098CLR     C652061  16.685   6.550   2.693
 1098CLR     C752062  16.689   6.539   2.846
 1098CLR     C852063  16.554   6.564   2.915
 1098CLR     C952064  16.494   6.694   2.858
 1098CLR    C1052065  16.467   6.679   2.706
 1098CLR    C1952066  16.345   6.588   2.683
 1098CLR    C1152067  16.370   6.737   2.939
 1098CLR    C1452068  16.573   6.570   3.068
 1098CLR    C1252069  16.394   6.740   3.092
 1098CLR    C1352070  16.444   6.604   3.146
 1098CLR    C1852071  16.331   6.499   3.135
 1098CLR    C1552072  16.625   6.444   3.139
 1098CLR    C1652073  16.592   6.476   3.285
 1098CLR    C1752074  16.510   6.606   3.286
 1098CLR    C2052075  16.410   6.622   3.403
 1098CLR    C2152076  16.410   6.768   3.447
 1098CLR    C2252077  16.440   6.535   3.526
 1098CLR    C2352078  16.320   6.528   3.621
 1098CLR    C2452079  16.350   6.438   3.742
 1098CLR    C2552080  16.228   6.423   3.835
 1098CLR    C2652081  16.193   6.553   3.908
 1098CLR    C2752082  16.252   6.311   3.936
 1099CLR     C152083   0.042   9.335   3.102
 1099CLR     C252084   0.033   9.435   2.986
 1099CLR     C352085  16.916   9.388   2.880
 1099CLR     O152086  16.909   9.482   2.772
 1099CLR    HO152087  16.865   9.569   2.807
 1099CLR     C452088  16.776   9.371   2.943
 1099CLR     C552089  16.779   9.291   3.075
 1099CLR     C652090  16.684   9.198   3.092
 1099CLR     C752091  16.690   9.097   3.208
 1099CLR     C852092  16.777   9.140   3.326
 1099CLR     C952093  16.912   9.192   3.272
 1099CLR    C1052094  16.893   9.313   3.178
 1099CLR    C1952095  16.859   9.440   3.259
 1099CLR    C1152096   0.025   9.219   3.390
 1099CLR    C1452097  16.800   9.019   3.420
 1099CLR    C1252098   0.042   9.098   3.483
 1099CLR    C1352099  16.893   9.046   3.541
 1099CLR    C1852100  16.837   9.147   3.643
 1099CLR    C1552101  16.679   8.954   3.487
 1099CLR    C1652102  16.754   8.849   3.568
 1099CLR    C1752103  16.897   8.900   3.594
 1099CLR    C2052104  16.937   8.877   3.742
 1099CLR    C2152105   0.099   8.918   3.772
 1099CLR    C2252106  16.921   8.729   3.781
 1099CLR    C2352107  16.936   8.698   3.931
 1099CLR    C2452108  16.823   8.757   4.016
 1099CLR    C2552109  16.829   8.710   4.162
 1099CLR    C2652110  16.707   8.762   4.239
 1099CLR    C2752111  16.957   8.756   4.232
 1100CLR     C152112   0.154  13.141   3.218
 1100CLR     C252113   0.166  13.134   3.065
 1100CLR     C352114   0.030  13.104   3.002
 1100CLR     O152115   0.040  13.093   2.859
 1100CLR    HO152116  16.953  13.024   2.827
 1100CLR     C452117  16.911  13.213   3.038
 1100CLR     C552118  16.909  13.243   3.189
 1100CLR     C652119  16.789  13.257   3.248
 1100CLR     C752120  16.776  13.270   3.400
 1100CLR     C852121  16.904  13.320   3.470
 1100CLR     C952122   0.038  13.232   3.422
 1100CLR    C1052123   0.059  13.251   3.269
 1100CLR    C1952124   0.122  13.389   3.240
 1100CLR    C1152125   0.166  13.263   3.504
 1100CLR    C1452126  16.887  13.317   3.623
 1100CLR    C1252127   0.141  13.263   3.657
 1100CLR    C1352128   0.030  13.361   3.700
 1100CLR    C1852129   0.074  13.506   3.672
 1100CLR    C1552130  16.778  13.405   3.685
 1100CLR    C1652131  16.815  13.398   3.833
 1100CLR    C1752132  16.958  13.343   3.844
 1100CLR    C2052133   0.060  13.412   3.953
 1100CLR    C2152134   0.175  13.321   3.997
 1100CLR    C2252135  16.964  13.452   4.079
 1100CLR    C2352136   0.059  13.550   4.167
 1100CLR    C2452137  16.960  13.593   4.289
 1100CLR    C2552138   0.056  13.687   4.381
 1100CLR    C2652139  16.963  13.707   4.512
 1100CLR    C2752140   0.080  13.823   4.315
 1101SOL     OW52141   9.975   8.115   1.136
 1101SOL    HW152142   9.980   8.163   1.224
 1101SOL    HW252143   9.958   8.182   1.063
 1102SOL     OW52144   9.699  15.281   1.346
 1102SOL    HW152145   9.730  15.336   1.269
 1102SOL    HW252146   9.604  15.254   1.332
 1103SOL     OW52147   0.047  14.653   8.425
 1103SOL    HW152148  16.932  14.649   8.441
 1103SOL    HW252149   0.066  14.649   8.327
 1104SOL     OW52150   3.679   4.666   6.849
 1104SOL    HW152151   3.639   4.750   6.887
 1104SOL    HW252152   3.749   4.631   6.911
 1105SOL     OW52153  14.287  15.520   8.163
 1105SOL    HW152154  14.215  15.582   8.133
 1105SOL    HW252155  14.371  15.540   8.112
 1106SOL     OW52156   9.083   6.076   7.116
 1106SOL    HW152157   9.148   6.050   7.045
 1106SOL    HW252158   9.089   6.174   7.133
 1107SOL     OW52159   5.639   4.214   8.363
 1107SOL    HW152160   5.582   4.147   8.413
 1107SOL    HW252161   5.608   4.306   8.385
 1108SOL     OW52162   2.226   3.701   0.500
 1108SOL    HW152163   2.290   3.677   0.573
 1108SOL    HW252164   2.246   3.792   0.466
 1109SOL     OW52165   7.681  12.201   2.358
 1109SOL    HW152166   7.773  12.164   2.375
 1109SOL    HW252167   7.671  12.220   2.261
 1110SOL     OW52168   1.885   0.703   0.843
 1110SOL    HW152169   1.866   0.761   0.922
 1110SOL    HW252170   1.854   0.610   0.861
 1111SOL     OW52171   7.011  16.168   1.063
 1111SOL    HW152172   6.981  16.089   1.010
 1111SOL    HW252173   7.107  16.157   1.088
 1112SOL     OW52174   9.002   8.567   1.667
 1112SOL    HW152175   8.947   8.570   1.750
 1112SOL    HW252176   8.976   8.487   1.612
 1113SOL     OW52177  14.424   7.839   6.115
 1113SOL    HW152178  14.446   7.762   6.055
 1113SOL    HW252179  14.507   7.890   6.136
 1114SOL     OW52180   4.531  14.740   7.966
 1114SOL    HW152181   4.440  14.736   8.008
 1114SOL    HW252182   4.547  14.658   7.912
 1115SOL     OW52183   7.017   4.086   1.118
 1115SOL    HW152184   7.099   4.029   1.114
 1115SOL    HW252185   6.943   4.042   1.067
 1116SOL     OW52186   2.336   7.580   1.008
 1116SOL    HW152187   2.418   7.637   0.998
 1116SOL    HW252188   2.255   7.634   0.986
 1117SOL     OW52189  12.466  11.858   7.684
 1117SOL    HW152190  12.566  11.857   7.694
 1117SOL    HW252191  12.443  11.873   7.588
 1118SOL     OW52192  14.150  11.514   7.787
 1118SOL    HW152193  14.111  11.465   7.865
 1118SOL    HW252194  14.226  11.461   7.749
 1119SOL     OW52195  16.446  13.639   0.869
 1119SOL    HW152196  16.416  13.555   0.914
 1119SOL    HW252197  16.543  13.632   0.846
 1120SOL     OW52198  13.676   8.995   0.968
 1120SOL    HW152199  13.741   8.974   1.040
 1120SOL    HW252200  13.592   9.032   1.009
 1121SOL     OW52201   3.615  15.935   8.205
 1121SOL    HW152202   3.559  15.854   8.192
 1121SOL    HW252203   3.599  15.974   8.296
 1122SOL     OW52204  15.291   2.438   0.370
 1122SOL    HW152205  15.342   2.380   0.434
 1122SOL    HW252206  15.331   2.430   0.279
 1123SOL     OW52207   1.035   1.490   7.117
 1123SOL    HW152208   1.113   1.535   7.160
 1123SOL    HW252209   1.064   1.448   7.030
 1124SOL     OW52210   9.408   8.175   0.469
 1124SOL    HW152211   9.312   8.154   0.455
 1124SOL    HW252212   9.442   8.232   0.395
 1125SOL     OW52213   3.426  14.846   0.511
 1125SOL    HW152214   3.523  14.824   0.499
 1125SOL    HW252215   3.384  14.860   0.421
 1126SOL     OW52216  15.984  10.803   0.477
 1126SOL    HW152217  15.985  10.864   0.556
 1126SOL    HW252218  16.076  10.795   0.440
 1127SOL     OW52219   9.032  16.458   1.474
 1127SOL    HW152220   8.946  16.413   1.496
 1127SOL    HW252221   9.105  16.422   1.532
 1128SOL     OW52222  15.686  16.522   8.050
 1128SOL    HW152223  15.765  16.544   8.108
 1128SOL    HW252224  15.611  16.586   8.070
 1129SOL     OW52225   7.204  14.162   0.794
 1129SOL    HW152226   7.190  14.065   0.772
 1129SOL    HW252227   7.178  14.179   0.889
 1130SOL     OW52228   0.014   1.804   7.987
 1130SOL    HW152229   0.111   1.778   7.981
 1130SOL    HW252230  16.943   1.740   7.933
 1131SOL     OW52231   0.791  15.629   1.373
 1131SOL    HW152232   0.797  15.560   1.301
 1131SOL    HW252233   0.769  15.585   1.460
 1132SOL     OW52234   9.074   6.187   6.286
 1132SOL    HW152235   9.135   6.124   6.334
 1132SOL    HW252236   9.078   6.169   6.188
 1133SOL     OW52237   6.180  12.128   6.491
 1133SOL    HW152238   6.098  12.082   6.458
 1133SOL    HW252239   6.169  12.227   6.482
 1134SOL     OW52240   5.222   6.929   6.042
 1134SOL    HW152241   5.303   6.987   6.052
 1134SOL    HW252242   5.245   6.851   5.983
 1135SOL     OW52243   7.768  10.977   7.341
 1135SOL    HW152244   7.711  10.904   7.303
 1135SOL    HW252245   7.779  10.963   7.439
 1136SOL     OW52246   3.278   3.408   0.140
 1136SOL    HW152247   3.286   3.310   0.121
 1136SOL    HW252248   3.201   3.446   0.090
 1137SOL     OW52249  14.600  16.404   0.346
 1137SOL    HW152250  14.674  16.403   0.414
 1137SOL    HW252251  14.520  16.357   0.383
 1138SOL     OW52252   5.980  13.690   0.748
 1138SOL    HW152253   6.014  13.782   0.728
 1138SOL    HW252254   5.913  13.664   0.678
 1139SOL     OW52255   0.138  13.147   8.337
 1139SOL    HW152256   0.122  13.239   8.373
 1139SOL    HW252257   0.053  13.094   8.342
 1140SOL     OW52258   2.165  16.827   8.322
 1140SOL    HW152259   2.176  16.916   8.367
 1140SOL    HW252260   2.209  16.756   8.377
 1141SOL     OW52261   1.340   9.340   0.935
 1141SOL    HW152262   1.307   9.426   0.972
 1141SOL    HW252263   1.354   9.275   1.009
 1142SOL     OW52264  11.932   3.449   8.359
 1142SOL    HW152265  12.025   3.486   8.358
 1142SOL    HW252266  11.936   3.350   8.343
 1143SOL     OW52267  12.787   9.724   8.307
 1143SOL    HW152268  12.848   9.646   8.321
 1143SOL    HW252269  12.829   9.806   8.344
 1144SOL     OW52270   0.282   5.287   7.670
 1144SOL    HW152271   0.347   5.271   7.745
 1144SOL    HW252272   0.285   5.210   7.607
 1145SOL     OW52273  10.207  12.872   7.728
 1145SOL    HW152274  10.134  12.913   7.674
 1145SOL    HW252275  10.189  12.888   7.826
 1146SOL     OW52276  14.233  12.984   6.916
 1146SOL    HW152277  14.278  13.052   6.859
 1146SOL    HW252278  14.140  12.969   6.884
 1147SOL     OW52279  11.560   0.118   8.006
 1147SOL    HW152280  11.545   0.117   7.908
 1147SOL    HW252281  11.578   0.211   8.037
 1148SOL     OW52282  12.561  12.486   7.124
 1148SOL    HW152283  12.618  12.550   7.072
 1148SOL    HW252284  12.516  12.423   7.061
 1149SOL     OW52285  14.609   9.787   7.149
 1149SOL    HW152286  14.528   9.812   7.094
 1149SOL    HW252287  14.672   9.864   7.152
 1150SOL     OW52288   9.143   6.004   0.821
 1150SOL    HW152289   9.185   5.983   0.909
 1150SOL    HW252290   9.214   6.037   0.758
 1151SOL     OW52291   9.490  13.906   1.583
 1151SOL    HW152292   9.518  13.919   1.678
 1151SOL    HW252293   9.550  13.839   1.539
 1152SOL     OW52294  11.886   3.234   0.431
 1152SOL    HW152295  11.972   3.220   0.480
 1152SOL    HW252296  11.883   3.327   0.393
 1153SOL     OW52297   5.650  11.462   1.231
 1153SOL    HW152298   5.570  11.518   1.208
 1153SOL    HW252299   5.672  11.473   1.328
 1154SOL     OW52300   3.724   2.154   8.299
 1154SOL    HW152301   3.796   2.099   8.258
 1154SOL    HW252302   3.709   2.125   8.394
 1155SOL     OW52303   2.830   6.026   0.374
 1155SOL    HW152304   2.860   5.971   0.296
 1155SOL    HW252305   2.910   6.067   0.419
 1156SOL     OW52306  10.920  14.028   1.861
 1156SOL    HW152307  10.924  13.934   1.826
 1156SOL    HW252308  11.001  14.078   1.832
 1157SOL     OW52309   6.417  15.637   2.029
 1157SOL    HW152310   6.483  15.586   2.084
 1157SOL    HW252311   6.332  15.584   2.022
 1158SOL     OW52312  11.489   1.449   1.066
 1158SOL    HW152313  11.563   1.429   1.001
 1158SOL    HW252314  11.517   1.522   1.127
 1159SOL     OW52315   4.088  15.676   1.975
 1159SOL    HW152316   4.084  15.577   1.985
 1159SOL    HW252317   4.012  15.706   1.916
 1160SOL     OW52318   6.621   9.297   1.209
 1160SOL    HW152319   6.661   9.228   1.270
 1160SOL    HW252320   6.538   9.260   1.167
 1161SOL     OW52321  14.149   7.417   1.459
 1161SOL    HW152322  14.096   7.380   1.535
 1161SOL    HW252323  14.222   7.475   1.496
 1162SOL     OW52324   0.903   8.355   6.701
 1162SOL    HW152325   0.971   8.407   6.650
 1162SOL    HW252326   0.844   8.307   6.637
 1163SOL     OW52327  16.388   1.265   8.154
 1163SOL    HW152328  16.371   1.234   8.061
 1163SOL    HW252329  16.362   1.194   8.219
 1164SOL     OW52330  12.731   6.663   7.958
 1164SOL    HW152331  12.757   6.753   7.922
 1164SOL    HW252332  12.714   6.600   7.882
 1165SOL     OW52333  13.915  11.816   7.092
 1165SOL    HW152334  13.900  11.828   6.994
 1165SOL    HW252335  13.827  11.807   7.139
 1166SOL     OW52336   0.003  11.421   1.450
 1166SOL    HW152337   0.041  11.330   1.471
 1166SOL    HW252338  16.920  11.446   1.520
 1167SOL     OW52339  14.318  11.815   7.213
 1167SOL    HW152340  14.283  11.848   7.125
 1167SOL    HW252341  14.251  11.832   7.284
 1168SOL     OW52342  13.349  14.640   7.399
 1168SOL    HW152343  13.425  14.581   7.425
 1168SOL    HW252344  13.367  14.733   7.430
 1169SOL     OW52345  16.231  14.029   1.422
 1169SOL    HW152346  16.175  14.032   1.504
 1169SOL    HW252347  16.207  13.949   1.368
 1170SOL     OW52348  10.911   0.982   6.830
 1170SOL    HW152349  10.911   1.072   6.786
 1170SOL    HW252350  10.975   0.922   6.782
 1171SOL     OW52351   6.831  10.824   1.426
 1171SOL    HW152352   6.871  10.890   1.489
 1171SOL    HW252353   6.805  10.741   1.476
 1172SOL     OW52354   4.928   0.313   7.523
 1172SOL    HW152355   4.830   0.332   7.532
 1172SOL    HW252356   4.961   0.350   7.436
 1173SOL     OW52357   8.874  10.671   0.589
 1173SOL    HW152358   8.898  10.665   0.492
 1173SOL    HW252359   8.812  10.748   0.604
 1174SOL     OW52360   0.994   1.772   0.071
 1174SOL    HW152361   0.905   1.810   0.045
 1174SOL    HW252362   0.997   1.760   0.170
 1175SOL     OW52363   9.433   5.772   0.890
 1175SOL    HW152364   9.428   5.791   0.791
 1175SOL    HW252365   9.399   5.680   0.908
 1176SOL     OW52366  16.438  12.194   8.006
 1176SOL    HW152367  16.519  12.145   8.039
 1176SOL    HW252368  16.428  12.280   8.056
 1177SOL     OW52369  12.727   8.713   0.176
 1177SOL    HW152370  12.785   8.640   0.138
 1177SOL    HW252371  12.760   8.738   0.267
 1178SOL     OW52372   8.538  14.607   7.285
 1178SOL    HW152373   8.609  14.561   7.339
 1178SOL    HW252374   8.548  14.706   7.295
 1179SOL     OW52375   8.137   6.581   0.300
 1179SOL    HW152376   8.115   6.610   0.206
 1179SOL    HW252377   8.052   6.562   0.349
 1180SOL     OW52378  15.331   4.322   0.359
 1180SOL    HW152379  15.377   4.349   0.275
 1180SOL    HW252380  15.400   4.291   0.426
 1181SOL     OW52381  16.547   4.405   6.856
 1181SOL    HW152382  16.506   4.342   6.790
 1181SOL    HW252383  16.561   4.494   6.813
 1182SOL     OW52384  12.187   2.309   7.384
 1182SOL    HW152385  12.209   2.221   7.342
 1182SOL    HW252386  12.203   2.382   7.318
 1183SOL     OW52387  10.508  10.797   1.971
 1183SOL    HW152388  10.597  10.753   1.975
 1183SOL    HW252389  10.470  10.805   2.063
 1184SOL     OW52390   0.214  15.794   8.324
 1184SOL    HW152391   0.183  15.698   8.320
 1184SOL    HW252392   0.174  15.838   8.404
 1185SOL     OW52393   8.951   2.693   1.778
 1185SOL    HW152394   8.916   2.781   1.812
 1185SOL    HW252395   8.912   2.619   1.832
 1186SOL     OW52396  13.745   3.358   0.664
 1186SOL    HW152397  13.830   3.311   0.687
 1186SOL    HW252398  13.701   3.390   0.748
 1187SOL     OW52399   1.848  11.401   0.499
 1187SOL    HW152400   1.844  11.329   0.568
 1187SOL    HW252401   1.887  11.484   0.540
 1188SOL     OW52402  13.709   6.146   6.662
 1188SOL    HW152403  13.779   6.176   6.597
 1188SOL    HW252404  13.746   6.150   6.755
 1189SOL     OW52405  16.193   9.539   1.976
 1189SOL    HW152406  16.149   9.471   1.917
 1189SOL    HW252407  16.198   9.504   2.069
 1190SOL     OW52408   1.086  14.529   0.820
 1190SOL    HW152409   1.073  14.498   0.726
 1190SOL    HW252410   1.131  14.457   0.873
 1191SOL     OW52411   5.315  11.529   8.325
 1191SOL    HW152412   5.336  11.602   8.260
 1191SOL    HW252413   5.216  11.513   8.324
 1192SOL     OW52414   6.866  12.859   1.460
 1192SOL    HW152415   6.785  12.843   1.517
 1192SOL    HW252416   6.870  12.956   1.435
 1193SOL     OW52417   7.113  10.397   6.571
 1193SOL    HW152418   7.143  10.303   6.553
 1193SOL    HW252419   7.121  10.452   6.488
 1194SOL     OW52420   0.348   4.142   0.750
 1194SOL    HW152421   0.384   4.131   0.843
 1194SOL    HW252422   0.261   4.093   0.742
 1195SOL     OW52423  15.912   8.900   1.876
 1195SOL    HW152424  15.827   8.852   1.897
 1195SOL    HW252425  15.982   8.875   1.944
 1196SOL     OW52426   2.646  11.793   1.447
 1196SOL    HW152427   2.593  11.792   1.532
 1196SOL    HW252428   2.602  11.734   1.380
 1197SOL     OW52429   5.541  10.855   7.104
 1197SOL    HW152430   5.495  10.942   7.085
 1197SOL    HW252431   5.609  10.837   7.033
 1198SOL     OW52432  13.193  15.394   7.328
 1198SOL    HW152433  13.185  15.442   7.416
 1198SOL    HW252434  13.103  15.386   7.286
 1199SOL     OW52435  11.322   3.744   7.073
 1199SOL    HW152436  11.292   3.802   6.997
 1199SOL    HW252437  11.399   3.786   7.120
 1200SOL     OW52438   6.402  13.246   0.894
 1200SOL    HW152439   6.498  13.261   0.869
 1200SOL    HW252440   6.375  13.313   0.963
 1201SOL     OW52441  10.551  15.572   6.328
 1201SOL    HW152442  10.588  15.539   6.242
 1201SOL    HW252443  10.599  15.655   6.356
 1202SOL     OW52444   8.654   6.655   6.244
 1202SOL    HW152445   8.585   6.629   6.176
 1202SOL    HW252446   8.744   6.624   6.213
 1203SOL     OW52447  12.710  15.134   0.259
 1203SOL    HW152448  12.700  15.118   0.161
 1203SOL    HW252449  12.744  15.051   0.303
 1204SOL     OW52450   0.351   3.846   6.795
 1204SOL    HW152451   0.273   3.909   6.789
 1204SOL    HW252452   0.356   3.793   6.710
 1205SOL     OW52453  10.790   8.866   0.446
 1205SOL    HW152454  10.832   8.956   0.457
 1205SOL    HW252455  10.852   8.807   0.392
 1206SOL     OW52456  13.142   5.987   0.620
 1206SOL    HW152457  13.135   5.889   0.641
 1206SOL    HW252458  13.057   6.017   0.577
 1207SOL     OW52459   0.651   9.077   0.439
 1207SOL    HW152460   0.743   9.116   0.445
 1207SOL    HW252461   0.584   9.150   0.453
 1208SOL     OW52462  13.867   1.402   0.861
 1208SOL    HW152463  13.781   1.452   0.873
 1208SOL    HW252464  13.942   1.468   0.846
 1209SOL     OW52465   1.332  11.586   0.250
 1209SOL    HW152466   1.341  11.627   0.340
 1209SOL    HW252467   1.349  11.487   0.256
 1210SOL     OW52468   9.828   9.347   7.836
 1210SOL    HW152469   9.859   9.442   7.832
 1210SOL    HW252470   9.782   9.330   7.922
 1211SOL     OW52471   7.657   5.462   6.985
 1211SOL    HW152472   7.658   5.480   6.886
 1211SOL    HW252473   7.566   5.482   7.022
 1212SOL     OW52474  12.335  10.502   7.261
 1212SOL    HW152475  12.238  10.481   7.248
 1212SOL    HW252476  12.345  10.600   7.281
 1213SOL     OW52477   9.994   5.230   1.873
 1213SOL    HW152478   9.979   5.231   1.971
 1213SOL    HW252479  10.051   5.308   1.846
 1214SOL     OW52480   7.812  12.456   2.097
 1214SOL    HW152481   7.758  12.372   2.086
 1214SOL    HW252482   7.896  12.447   2.044
 1215SOL     OW52483   0.574   2.323   8.016
 1215SOL    HW152484   0.492   2.278   7.982
 1215SOL    HW252485   0.637   2.253   8.051
 1216SOL     OW52486   1.719  12.580   1.281
 1216SOL    HW152487   1.704  12.670   1.323
 1216SOL    HW252488   1.817  12.560   1.280
 1217SOL     OW52489  11.238  15.110   6.495
 1217SOL    HW152490  11.261  15.128   6.400
 1217SOL    HW252491  11.257  15.014   6.517
 1218SOL     OW52492   6.651  12.848   1.977
 1218SOL    HW152493   6.568  12.837   2.032
 1218SOL    HW252494   6.703  12.763   1.977
 1219SOL     OW52495   3.288   3.146   6.498
 1219SOL    HW152496   3.264   3.236   6.460
 1219SOL    HW252497   3.364   3.108   6.446
 1220SOL     OW52498  11.927   9.488   0.627
 1220SOL    HW152499  11.861   9.531   0.565
 1220SOL    HW252500  11.992   9.556   0.658
 1221SOL     OW52501   1.138  11.388   7.415
 1221SOL    HW152502   1.152  11.290   7.430
 1221SOL    HW252503   1.171  11.413   7.324
 1222SOL     OW52504  13.400   0.537   0.174
 1222SOL    HW152505  13.317   0.564   0.125
 1222SOL    HW252506  13.375   0.484   0.255
 1223SOL     OW52507   3.570  10.649   2.401
 1223SOL    HW152508   3.612  10.642   2.492
 1223SOL    HW252509   3.559  10.746   2.377
 1224SOL     OW52510  12.327  16.068   0.399
 1224SOL    HW152511  12.391  16.125   0.451
 1224SOL    HW252512  12.310  15.983   0.448
 1225SOL     OW52513  15.159   4.513   0.490
 1225SOL    HW152514  15.223   4.449   0.447
 1225SOL    HW252515  15.093   4.545   0.423
 1226SOL     OW52516   7.468  10.235   7.324
 1226SOL    HW152517   7.553  10.275   7.288
 1226SOL    HW252518   7.488  10.188   7.410
 1227SOL     OW52519   5.000   7.945   7.928
 1227SOL    HW152520   5.064   7.929   8.003
 1227SOL    HW252521   4.911   7.973   7.966
 1228SOL     OW52522  10.689   2.378   7.007
 1228SOL    HW152523  10.703   2.429   6.923
 1228SOL    HW252524  10.727   2.429   7.084
 1229SOL     OW52525  12.648   6.969   6.865
 1229SOL    HW152526  12.743   6.944   6.884
 1229SOL    HW252527  12.622   6.935   6.774
 1230SOL     OW52528   2.186   4.518   6.787
 1230SOL    HW152529   2.138   4.448   6.734
 1230SOL    HW252530   2.131   4.601   6.790
 1231SOL     OW52531   0.296   1.151   7.722
 1231SOL    HW152532   0.331   1.227   7.667
 1231SOL    HW252533   0.334   1.156   7.814
 1232SOL     OW52534   4.906   5.731   0.632
 1232SOL    HW152535   4.836   5.660   0.635
 1232SOL    HW252536   4.885   5.802   0.699
 1233SOL     OW52537  14.911  10.657   6.586
 1233SOL    HW152538  14.945  10.750   6.576
 1233SOL    HW252539  14.875  10.625   6.498
 1234SOL     OW52540   5.008   6.357   0.375
 1234SOL    HW152541   4.937   6.307   0.327
 1234SOL    HW252542   5.039   6.434   0.319
 1235SOL     OW52543   5.829  13.183   7.908
 1235SOL    HW152544   5.744  13.225   7.939
 1235SOL    HW252545   5.808  13.106   7.847
 1236SOL     OW52546   3.346   9.621   0.222
 1236SOL    HW152547   3.279   9.567   0.273
 1236SOL    HW252548   3.384   9.691   0.282
 1237SOL     OW52549   6.150   2.285   2.276
 1237SOL    HW152550   6.197   2.270   2.363
 1237SOL    HW252551   6.069   2.341   2.291
 1238SOL     OW52552   5.544   7.782   7.950
 1238SOL    HW152553   5.624   7.763   8.007
 1238SOL    HW252554   5.462   7.748   7.996
 1239SOL     OW52555   5.859  13.614   6.825
 1239SOL    HW152556   5.878  13.710   6.849
 1239SOL    HW252557   5.843  13.607   6.727
 1240SOL     OW52558   6.499  12.228   7.022
 1240SOL    HW152559   6.505  12.266   6.930
 1240SOL    HW252560   6.522  12.130   7.019
 1241SOL     OW52561  14.678  11.243   7.006
 1241SOL    HW152562  14.724  11.155   7.020
 1241SOL    HW252563  14.634  11.272   7.091
 1242SOL     OW52564  11.207   3.951   0.481
 1242SOL    HW152565  11.293   3.942   0.532
 1242SOL    HW252566  11.145   3.877   0.506
 1243SOL     OW52567  15.005   6.989   0.109
 1243SOL    HW152568  14.906   7.002   0.116
 1243SOL    HW252569  15.027   6.893   0.127
 1244SOL     OW52570  12.999  16.524   0.867
 1244SOL    HW152571  12.901  16.512   0.853
 1244SOL    HW252572  13.018  16.620   0.888
 1245SOL     OW52573  13.599   0.953   0.126
 1245SOL    HW152574  13.532   0.981   0.057
 1245SOL    HW252575  13.689   0.943   0.084
 1246SOL     OW52576  16.643  15.172   0.544
 1246SOL    HW152577  16.544  15.174   0.531
 1246SOL    HW252578  16.674  15.078   0.552
 1247SOL     OW52579  14.449  10.581   2.017
 1247SOL    HW152580  14.503  10.650   1.969
 1247SOL    HW252581  14.496  10.493   2.013
 1248SOL     OW52582   8.801   8.052   7.228
 1248SOL    HW152583   8.732   7.984   7.203
 1248SOL    HW252584   8.853   8.078   7.147
 1249SOL     OW52585   3.478   1.143   1.586
 1249SOL    HW152586   3.389   1.142   1.631
 1249SOL    HW252587   3.497   1.054   1.546
 1250SOL     OW52588  16.763  15.299   8.179
 1250SOL    HW152589  16.738  15.322   8.085
 1250SOL    HW252590  16.782  15.383   8.230
 1251SOL     OW52591   2.719  10.647   8.380
 1251SOL    HW152592   2.683  10.639   0.018
 1251SOL    HW252593   2.666  10.714   8.328
 1252SOL     OW52594  11.621   2.956   1.104
 1252SOL    HW152595  11.681   2.970   1.183
 1252SOL    HW252596  11.643   3.023   1.033
 1253SOL     OW52597  10.045   0.502   6.909
 1253SOL    HW152598   9.971   0.564   6.935
 1253SOL    HW252599  10.016   0.408   6.925
 1254SOL     OW52600   2.705  12.765   7.194
 1254SOL    HW152601   2.716  12.795   7.289
 1254SOL    HW252602   2.794  12.736   7.158
 1255SOL     OW52603   9.572   3.691   0.359
 1255SOL    HW152604   9.637   3.721   0.429
 1255SOL    HW252605   9.579   3.592   0.346
 1256SOL     OW52606   8.599  10.670   1.137
 1256SOL    HW152607   8.633  10.576   1.133
 1256SOL    HW252608   8.518  10.674   1.194
 1257SOL     OW52609   4.141  16.812   1.995
 1257SOL    HW152610   4.220  16.870   2.015
 1257SOL    HW252611   4.124  16.812   1.897
 1258SOL     OW52612  13.583   1.621   0.048
 1258SOL    HW152613  13.569   1.599   8.405
 1258SOL    HW252614  13.676   1.654   0.061
 1259SOL     OW52615  11.363  10.495   0.106
 1259SOL    HW152616  11.320  10.459   0.023
 1259SOL    HW252617  11.301  10.484   0.183
 1260SOL     OW52618  16.869   0.464   0.825
 1260SOL    HW152619  16.902   0.496   0.913
 1260SOL    HW252620  16.780   0.506   0.804
 1261SOL     OW52621   8.693  11.064   6.297
 1261SOL    HW152622   8.653  10.982   6.256
 1261SOL    HW252623   8.758  11.106   6.233
 1262SOL     OW52624  11.540  14.896   1.117
 1262SOL    HW152625  11.541  14.879   1.216
 1262SOL    HW252626  11.448  14.880   1.081
 1263SOL     OW52627   8.623   9.901   6.550
 1263SOL    HW152628   8.680   9.980   6.572
 1263SOL    HW252629   8.637   9.830   6.620
 1264SOL     OW52630  14.676  12.766   7.320
 1264SOL    HW152631  14.577  12.759   7.326
 1264SOL    HW252632  14.701  12.835   7.252
 1265SOL     OW52633  14.663   7.499   1.198
 1265SOL    HW152634  14.564   7.487   1.191
 1265SOL    HW252635  14.695   7.550   1.117
 1266SOL     OW52636   1.029   3.127   1.288
 1266SOL    HW152637   0.937   3.088   1.279
 1266SOL    HW252638   1.027   3.202   1.353
 1267SOL     OW52639   5.326  15.397   2.022
 1267SOL    HW152640   5.366  15.432   2.107
 1267SOL    HW252641   5.262  15.464   1.985
 1268SOL     OW52642   1.321  12.449   2.269
 1268SOL    HW152643   1.227  12.447   2.303
 1268SOL    HW252644   1.380  12.491   2.338
 1269SOL     OW52645  11.262   5.388   7.256
 1269SOL    HW152646  11.345   5.340   7.228
 1269SOL    HW252647  11.185   5.323   7.257
 1270SOL     OW52648   0.627   2.188   0.207
 1270SOL    HW152649   0.610   2.272   0.259
 1270SOL    HW252650   0.592   2.199   0.114
 1271SOL     OW52651   5.851   7.943   7.827
 1271SOL    HW152652   5.858   7.844   7.823
 1271SOL    HW252653   5.794   7.970   7.904
 1272SOL     OW52654   2.562   1.543   0.557
 1272SOL    HW152655   2.598   1.637   0.559
 1272SOL    HW252656   2.551   1.514   0.462
 1273SOL     OW52657   4.888   0.833   7.507
 1273SOL    HW152658   4.933   0.797   7.425
 1273SOL    HW252659   4.846   0.921   7.487
 1274SOL     OW52660   8.527  11.348   0.789
 1274SOL    HW152661   8.599  11.403   0.747
 1274SOL    HW252662   8.567  11.284   0.854
 1275SOL     OW52663  10.390  13.957   0.647
 1275SOL    HW152664  10.325  14.016   0.695
 1275SOL    HW252665  10.459  13.924   0.711
 1276SOL     OW52666  12.736   4.641   5.570
 1276SOL    HW152667  12.826   4.668   5.537
 1276SOL    HW252668  12.711   4.553   5.531
 1277SOL     OW52669  16.776  13.558   8.107
 1277SOL    HW152670  16.725  13.598   8.184
 1277SOL    HW252671  16.724  13.482   8.069
 1278SOL     OW52672  10.401   3.211   7.002
 1278SOL    HW152673  10.423   3.114   7.007
 1278SOL    HW252674  10.475   3.260   6.957
 1279SOL     OW52675   8.710   1.191   7.415
 1279SOL    HW152676   8.638   1.133   7.377
 1279SOL    HW252677   8.703   1.283   7.377
 1280SOL     OW52678   5.776   2.290   1.224
 1280SOL    HW152679   5.833   2.330   1.296
 1280SOL    HW252680   5.776   2.351   1.145
 1281SOL     OW52681   4.372  14.924   1.530
 1281SOL    HW152682   4.278  14.949   1.555
 1281SOL    HW252683   4.436  14.963   1.597
 1282SOL     OW52684   0.519  13.614   8.280
 1282SOL    HW152685   0.491  13.551   8.207
 1282SOL    HW252686   0.607  13.585   8.316
 1283SOL     OW52687   5.876   4.436   7.345
 1283SOL    HW152688   5.787   4.409   7.310
 1283SOL    HW252689   5.919   4.501   7.283
 1284SOL     OW52690  11.245   5.075   5.678
 1284SOL    HW152691  11.289   4.985   5.681
 1284SOL    HW252692  11.264   5.118   5.590
 1285SOL     OW52693   9.148  14.944   6.396
 1285SOL    HW152694   9.053  14.915   6.387
 1285SOL    HW252695   9.168  15.014   6.327
 1286SOL     OW52696  14.197   7.170   6.829
 1286SOL    HW152697  14.158   7.078   6.840
 1286SOL    HW252698  14.294   7.168   6.855
 1287SOL     OW52699   0.162  15.203   7.216
 1287SOL    HW152700   0.081  15.238   7.262
 1287SOL    HW252701   0.178  15.108   7.243
 1288SOL     OW52702  13.832  10.869   0.953
 1288SOL    HW152703  13.848  10.816   1.036
 1288SOL    HW252704  13.747  10.920   0.960
 1289SOL     OW52705   2.473  10.273   7.775
 1289SOL    HW152706   2.376  10.296   7.788
 1289SOL    HW252707   2.530  10.347   7.810
 1290SOL     OW52708  12.411   1.211   5.794
 1290SOL    HW152709  12.457   1.299   5.810
 1290SOL    HW252710  12.368   1.211   5.704
 1291SOL     OW52711   2.334   9.456   0.359
 1291SOL    HW152712   2.322   9.554   0.348
 1291SOL    HW252713   2.245   9.413   0.378
 1292SOL     OW52714   5.954   2.700   0.290
 1292SOL    HW152715   6.023   2.668   0.355
 1292SOL    HW252716   5.957   2.800   0.286
 1293SOL     OW52717  12.077   1.066   5.452
 1293SOL    HW152718  12.011   1.058   5.378
 1293SOL    HW252719  12.078   0.982   5.507
 1294SOL     OW52720  10.589   7.537   7.792
 1294SOL    HW152721  10.621   7.506   7.882
 1294SOL    HW252722  10.597   7.636   7.786
 1295SOL     OW52723  14.818  13.305   6.195
 1295SOL    HW152724  14.912  13.286   6.224
 1295SOL    HW252725  14.779  13.377   6.253
 1296SOL     OW52726   3.161  12.961   6.858
 1296SOL    HW152727   3.126  12.868   6.859
 1296SOL    HW252728   3.160  12.997   6.764
 1297SOL     OW52729   5.025  16.574   7.756
 1297SOL    HW152730   5.032  16.502   7.825
 1297SOL    HW252731   5.044  16.662   7.799
 1298SOL     OW52732  15.633  12.146   7.962
 1298SOL    HW152733  15.640  12.154   7.863
 1298SOL    HW252734  15.693  12.072   7.994
 1299SOL     OW52735   9.451   5.474   1.308
 1299SOL    HW152736   9.465   5.382   1.345
 1299SOL    HW252737   9.521   5.493   1.239
 1300SOL     OW52738   4.041   5.574   1.614
 1300SOL    HW152739   4.067   5.484   1.649
 1300SOL    HW252740   3.942   5.584   1.620
 1301SOL     OW52741  11.289   6.339   5.816
 1301SOL    HW152742  11.202   6.325   5.769
 1301SOL    HW252743  11.360   6.286   5.770
 1302SOL     OW52744  15.243   0.723   8.232
 1302SOL    HW152745  15.158   0.713   8.282
 1302SOL    HW252746  15.237   0.801   8.169
 1303SOL     OW52747   7.176  13.498   7.492
 1303SOL    HW152748   7.081  13.527   7.508
 1303SOL    HW252749   7.221  13.564   7.432
 1304SOL     OW52750   4.698  16.560   7.724
 1304SOL    HW152751   4.670  16.510   7.642
 1304SOL    HW252752   4.797  16.558   7.733
 1305SOL     OW52753   9.201  13.237   7.796
 1305SOL    HW152754   9.248  13.325   7.804
 1305SOL    HW252755   9.131  13.230   7.866
 1306SOL     OW52756   0.586   3.490   1.538
 1306SOL    HW152757   0.493   3.453   1.530
 1306SOL    HW252758   0.586   3.565   1.604
 1307SOL     OW52759  16.873   2.040   6.686
 1307SOL    HW152760  16.909   2.023   6.594
 1307SOL    HW252761  16.834   1.956   6.723
 1308SOL     OW52762   2.127  10.275   2.098
 1308SOL    HW152763   2.083  10.197   2.144
 1308SOL    HW252764   2.090  10.360   2.134
 1309SOL     OW52765   2.767   9.008   6.757
 1309SOL    HW152766   2.668   8.999   6.746
 1309SOL    HW252767   2.814   8.945   6.695
 1310SOL     OW52768   9.593   6.284   1.320
 1310SOL    HW152769   9.578   6.287   1.418
 1310SOL    HW252770   9.586   6.377   1.283
 1311SOL     OW52771   0.984   8.850   2.115
 1311SOL    HW152772   0.974   8.879   2.210
 1311SOL    HW252773   1.059   8.902   2.073
 1312SOL     OW52774   5.050   5.935   2.138
 1312SOL    HW152775   5.044   6.030   2.168
 1312SOL    HW252776   5.022   5.874   2.212
 1313SOL     OW52777  15.395   5.970   7.487
 1313SOL    HW152778  15.455   5.891   7.477
 1313SOL    HW252779  15.448   6.049   7.518
 1314SOL     OW52780  10.754   7.577   6.159
 1314SOL    HW152781  10.846   7.555   6.125
 1314SOL    HW252782  10.688   7.515   6.118
 1315SOL     OW52783   4.088  10.226   7.134
 1315SOL    HW152784   4.173  10.279   7.129
 1315SOL    HW252785   4.099  10.140   7.083
 1316SOL     OW52786  13.799   0.616   0.482
 1316SOL    HW152787  13.777   0.629   0.578
 1316SOL    HW252788  13.872   0.679   0.455
 1317SOL     OW52789  10.148  15.827   7.839
 1317SOL    HW152790  10.122  15.922   7.851
 1317SOL    HW252791  10.075  15.777   7.793
 1318SOL     OW52792  10.287   3.148   6.350
 1318SOL    HW152793  10.313   3.096   6.269
 1318SOL    HW252794  10.369   3.182   6.396
 1319SOL     OW52795   0.604   9.700   1.522
 1319SOL    HW152796   0.676   9.714   1.455
 1319SOL    HW252797   0.611   9.608   1.560
 1320SOL     OW52798   1.485   3.114   8.027
 1320SOL    HW152799   1.517   3.152   8.114
 1320SOL    HW252800   1.453   3.188   7.968
 1321SOL     OW52801   1.101  12.397   0.128
 1321SOL    HW152802   1.087  12.306   0.091
 1321SOL    HW252803   1.149  12.454   0.062
 1322SOL     OW52804  13.353   5.356   1.377
 1322SOL    HW152805  13.396   5.361   1.468
 1322SOL    HW252806  13.314   5.265   1.364
 1323SOL     OW52807   9.503  13.010   7.816
 1323SOL    HW152808   9.404  12.992   7.822
 1323SOL    HW252809   9.552  12.940   7.867
 1324SOL     OW52810   9.437   4.715   5.896
 1324SOL    HW152811   9.352   4.690   5.850
 1324SOL    HW252812   9.503   4.747   5.829
 1325SOL     OW52813   7.009   1.861   8.248
 1325SOL    HW152814   7.046   1.954   8.245
 1325SOL    HW252815   6.936   1.856   8.315
 1326SOL     OW52816  10.158   4.097   0.333
 1326SOL    HW152817  10.124   4.159   0.404
 1326SOL    HW252818  10.081   4.050   0.290
 1327SOL     OW52819   5.133  12.577   0.552
 1327SOL    HW152820   5.174  12.529   0.629
 1327SOL    HW252821   5.184  12.556   0.469
 1328SOL     OW52822  12.983   3.351   0.752
 1328SOL    HW152823  13.045   3.429   0.753
 1328SOL    HW252824  13.015   3.282   0.817
 1329SOL     OW52825   9.693   6.674   6.302
 1329SOL    HW152826   9.696   6.741   6.228
 1329SOL    HW252827   9.775   6.683   6.359
 1330SOL     OW52828   7.262   4.736   6.940
 1330SOL    HW152829   7.258   4.824   6.988
 1330SOL    HW252830   7.254   4.661   7.005
 1331SOL     OW52831   7.511   7.142   6.909
 1331SOL    HW152832   7.414   7.120   6.910
 1331SOL    HW252833   7.529   7.215   6.842
 1332SOL     OW52834  10.674   5.014   7.422
 1332SOL    HW152835  10.619   4.999   7.504
 1332SOL    HW252836  10.629   5.081   7.364
 1333SOL     OW52837   5.281  16.929   0.042
 1333SOL    HW152838   5.199  16.889   0.000
 1333SOL    HW252839   5.313   0.022   8.440
 1334SOL     OW52840  13.928   6.985   6.609
 1334SOL    HW152841  13.865   7.059   6.635
 1334SOL    HW252842  13.880   6.918   6.553
 1335SOL     OW52843   9.025  13.377   6.249
 1335SOL    HW152844   9.043  13.333   6.337
 1335SOL    HW252845   9.089  13.342   6.180
 1336SOL     OW52846  14.125  11.202   1.863
 1336SOL    HW152847  14.187  11.265   1.910
 1336SOL    HW252848  14.048  11.181   1.923
 1337SOL     OW52849   9.780  11.075   8.320
 1337SOL    HW152850   9.685  11.105   8.324
 1337SOL    HW252851   9.834  11.141   8.268
 1338SOL     OW52852   6.148   1.787   8.183
 1338SOL    HW152853   6.193   1.704   8.152
 1338SOL    HW252854   6.096   1.767   8.266
 1339SOL     OW52855   5.589   9.332   7.242
 1339SOL    HW152856   5.595   9.352   7.340
 1339SOL    HW252857   5.572   9.234   7.229
 1340SOL     OW52858  16.426   6.693   7.023
 1340SOL    HW152859  16.335   6.720   6.991
 1340SOL    HW252860  16.495   6.748   6.978
 1341SOL     OW52861  10.006  11.147   7.102
 1341SOL    HW152862   9.930  11.155   7.167
 1341SOL    HW252863   9.996  11.062   7.050
 1342SOL     OW52864  14.399   4.633   6.375
 1342SOL    HW152865  14.495   4.604   6.370
 1342SOL    HW252866  14.345   4.564   6.423
 1343SOL     OW52867  12.779  14.200   8.322
 1343SOL    HW152868  12.858  14.256   8.296
 1343SOL    HW252869  12.809  14.108   8.346
 1344SOL     OW52870  15.477   7.593   1.749
 1344SOL    HW152871  15.493   7.634   1.839
 1344SOL    HW252872  15.449   7.498   1.760
 1345SOL     OW52873  11.642  13.913   1.843
 1345SOL    HW152874  11.596  13.907   1.932
 1345SOL    HW252875  11.573  13.911   1.770
 1346SOL     OW52876   9.354  15.828   7.085
 1346SOL    HW152877   9.408  15.744   7.089
 1346SOL    HW252878   9.280  15.817   7.018
 1347SOL     OW52879  14.493   4.642   8.322
 1347SOL    HW152880  14.578   4.677   8.362
 1347SOL    HW252881  14.421   4.710   8.332
 1348SOL     OW52882   6.774  14.678   8.426
 1348SOL    HW152883   6.854  14.695   8.369
 1348SOL    HW252884   6.732  14.591   8.400
 1349SOL     OW52885   0.401  13.830   8.147
 1349SOL    HW152886   0.449  13.835   8.059
 1349SOL    HW252887   0.449  13.766   8.207
 1350SOL     OW52888  16.883  15.970   1.362
 1350SOL    HW152889  16.900  15.988   1.459
 1350SOL    HW252890  16.970  15.952   1.316
 1351SOL     OW52891   5.437   0.237   0.578
 1351SOL    HW152892   5.456   0.308   0.646
 1351SOL    HW252893   5.352   0.260   0.529
 1352SOL     OW52894   1.026   4.574   8.071
 1352SOL    HW152895   1.011   4.625   8.156
 1352SOL    HW252896   1.123   4.572   8.050
 1353SOL     OW52897   4.271   3.557   1.430
 1353SOL    HW152898   4.202   3.629   1.424
 1353SOL    HW252899   4.299   3.530   1.337
 1354SOL     OW52900  12.769   2.758   6.772
 1354SOL    HW152901  12.735   2.809   6.693
 1354SOL    HW252902  12.720   2.672   6.780
 1355SOL     OW52903  12.742  16.562   7.266
 1355SOL    HW152904  12.781  16.556   7.358
 1355SOL    HW252905  12.642  16.553   7.272
 1356SOL     OW52906   6.582   9.337   1.647
 1356SOL    HW152907   6.510   9.284   1.604
 1356SOL    HW252908   6.662   9.339   1.587
 1357SOL     OW52909   3.850  12.368   1.429
 1357SOL    HW152910   3.789  12.291   1.444
 1357SOL    HW252911   3.870  12.377   1.331
 1358SOL     OW52912  13.314   5.788   1.252
 1358SOL    HW152913  13.392   5.773   1.191
 1358SOL    HW252914  13.259   5.705   1.257
 1359SOL     OW52915   6.924   4.009   6.227
 1359SOL    HW152916   6.916   4.095   6.176
 1359SOL    HW252917   6.879   3.936   6.176
 1360SOL     OW52918   1.830   8.053   7.478
 1360SOL    HW152919   1.804   7.956   7.472
 1360SOL    HW252920   1.868   8.072   7.568
 1361SOL     OW52921   8.912   1.517   7.599
 1361SOL    HW152922   9.007   1.498   7.622
 1361SOL    HW252923   8.851   1.453   7.647
 1362SOL     OW52924   2.848   3.685   1.765
 1362SOL    HW152925   2.773   3.739   1.728
 1362SOL    HW252926   2.829   3.587   1.752
 1363SOL     OW52927   1.147   6.552   0.507
 1363SOL    HW152928   1.083   6.495   0.455
 1363SOL    HW252929   1.224   6.495   0.538
 1364SOL     OW52930   4.329   8.265   0.953
 1364SOL    HW152931   4.423   8.291   0.927
 1364SOL    HW252932   4.300   8.186   0.899
 1365SOL     OW52933   8.641   5.577   0.294
 1365SOL    HW152934   8.617   5.506   0.228
 1365SOL    HW252935   8.663   5.534   0.382
 1366SOL     OW52936  15.925  11.335   6.563
 1366SOL    HW152937  15.956  11.298   6.476
 1366SOL    HW252938  15.930  11.435   6.560
 1367SOL     OW52939  14.321  16.455   0.677
 1367SOL    HW152940  14.269  16.527   0.724
 1367SOL    HW252941  14.258  16.393   0.631
 1368SOL     OW52942   4.681   2.977   1.859
 1368SOL    HW152943   4.733   2.952   1.941
 1368SOL    HW252944   4.706   2.916   1.784
 1369SOL     OW52945  15.817  15.552   8.052
 1369SOL    HW152946  15.832  15.508   7.964
 1369SOL    HW252947  15.731  15.604   8.050
 1370SOL     OW52948   0.857  10.508   0.790
 1370SOL    HW152949   0.778  10.494   0.729
 1370SOL    HW252950   0.933  10.451   0.758
 1371SOL     OW52951   5.901   1.853   8.034
 1371SOL    HW152952   5.895   1.794   7.953
 1371SOL    HW252953   5.990   1.840   8.078
 1372SOL     OW52954  14.079   9.639   7.164
 1372SOL    HW152955  14.098   9.694   7.082
 1372SOL    HW252956  14.127   9.678   7.242
 1373SOL     OW52957   2.567  14.932   7.723
 1373SOL    HW152958   2.469  14.953   7.710
 1373SOL    HW252959   2.614  14.942   7.635
 1374SOL     OW52960  10.977   6.061   6.304
 1374SOL    HW152961  10.958   6.137   6.366
 1374SOL    HW252962  10.900   6.050   6.241
 1375SOL     OW52963   5.834  13.493   8.290
 1375SOL    HW152964   5.858  13.530   8.200
 1375SOL    HW252965   5.844  13.393   8.289
 1376SOL     OW52966   9.080   1.005   6.153
 1376SOL    HW152967   9.025   1.035   6.075
 1376SOL    HW252968   9.160   0.955   6.120
 1377SOL     OW52969  15.216  10.979   7.552
 1377SOL    HW152970  15.231  11.060   7.496
 1377SOL    HW252971  15.118  10.957   7.552
 1378SOL     OW52972   3.172  13.817   2.424
 1378SOL    HW152973   3.130  13.730   2.399
 1378SOL    HW252974   3.220  13.806   2.511
 1379SOL     OW52975  14.817   9.685   7.670
 1379SOL    HW152976  14.906   9.690   7.716
 1379SOL    HW252977  14.783   9.777   7.653
 1380SOL     OW52978   9.298  15.271   7.805
 1380SOL    HW152979   9.228  15.331   7.843
 1380SOL    HW252980   9.310  15.192   7.866
 1381SOL     OW52981   7.754   1.949   7.799
 1381SOL    HW152982   7.778   2.045   7.783
 1381SOL    HW252983   7.683   1.944   7.869
 1382SOL     OW52984   6.891  12.801   7.184
 1382SOL    HW152985   6.962  12.861   7.148
 1382SOL    HW252986   6.858  12.741   7.111
 1383SOL     OW52987  13.206   2.614   7.457
 1383SOL    HW152988  13.284   2.602   7.517
 1383SOL    HW252989  13.229   2.581   7.365
 1384SOL     OW52990   1.203  16.185   7.524
 1384SOL    HW152991   1.277  16.118   7.519
 1384SOL    HW252992   1.242  16.276   7.538
 1385SOL     OW52993   2.786  13.507   0.183
 1385SOL    HW152994   2.825  13.594   0.153
 1385SOL    HW252995   2.686  13.513   0.179
 1386SOL     OW52996   5.395   2.124   6.411
 1386SOL    HW152997   5.413   2.167   6.323
 1386SOL    HW252998   5.325   2.053   6.400
 1387SOL     OW52999   8.371   6.877   0.757
 1387SOL    HW153000   8.301   6.920   0.699
 1387SOL    HW253001   8.343   6.883   0.853
 1388SOL     OW53002  12.801   5.070   6.133
 1388SOL    HW153003  12.871   4.999   6.139
 1388SOL    HW253004  12.775   5.099   6.225
 1389SOL     OW53005  15.692  10.436   2.969
 1389SOL    HW153006  15.637  10.476   3.043
 1389SOL    HW253007  15.637  10.432   2.886
 1390SOL     OW53008   9.958  15.536   1.981
 1390SOL    HW153009   9.917  15.463   2.036
 1390SOL    HW253010   9.912  15.623   2.000
 1391SOL     OW53011   5.269   2.950   0.310
 1391SOL    HW153012   5.195   2.920   0.250
 1391SOL    HW253013   5.241   3.033   0.358
 1392SOL     OW53014  11.831   9.101   7.091
 1392SOL    HW153015  11.844   9.200   7.099
 1392SOL    HW253016  11.791   9.066   7.175
 1393SOL     OW53017  13.118   1.396   7.621
 1393SOL    HW153018  13.099   1.396   7.523
 1393SOL    HW253019  13.068   1.320   7.665
 1394SOL     OW53020  15.781  11.154   0.100
 1394SOL    HW153021  15.769  11.140   0.198
 1394SOL    HW253022  15.781  11.065   0.054
 1395SOL     OW53023   3.054  15.226   1.489
 1395SOL    HW153024   2.987  15.278   1.543
 1395SOL    HW253025   3.007  15.154   1.438
 1396SOL     OW53026  12.771   5.277   0.486
 1396SOL    HW153027  12.726   5.199   0.442
 1396SOL    HW253028  12.702   5.345   0.511
 1397SOL     OW53029  15.095   5.051   7.510
 1397SOL    HW153030  15.083   5.104   7.426
 1397SOL    HW253031  15.192   5.050   7.534
 1398SOL     OW53032   8.859  15.769   7.617
 1398SOL    HW153033   8.943  15.819   7.639
 1398SOL    HW253034   8.879  15.699   7.549
 1399SOL     OW53035   9.485  10.350   7.098
 1399SOL    HW153036   9.521  10.378   7.009
 1399SOL    HW253037   9.524  10.262   7.124
 1400SOL     OW53038  12.392   5.988   6.760
 1400SOL    HW153039  12.421   5.904   6.714
 1400SOL    HW253040  12.303   6.016   6.724
 1401SOL     OW53041   6.925   9.970   6.914
 1401SOL    HW153042   6.952  10.025   6.835
 1401SOL    HW253043   6.826   9.956   6.912
 1402SOL     OW53044   5.227   3.765   0.278
 1402SOL    HW153045   5.156   3.834   0.295
 1402SOL    HW253046   5.316   3.802   0.303
 1403SOL     OW53047  12.439  15.180   0.492
 1403SOL    HW153048  12.495  15.225   0.561
 1403SOL    HW253049  12.432  15.082   0.513
 1404SOL     OW53050  16.833   1.447   0.377
 1404SOL    HW153051  16.863   1.542   0.367
 1404SOL    HW253052  16.739   1.438   0.346
 1405SOL     OW53053   7.087  14.276   0.067
 1405SOL    HW153054   7.112  14.195   0.120
 1405SOL    HW253055   7.094  14.358   0.124
 1406SOL     OW53056   4.377   5.929   6.786
 1406SOL    HW153057   4.337   5.853   6.736
 1406SOL    HW253058   4.349   5.923   6.882
 1407SOL     OW53059   0.392   6.217   8.154
 1407SOL    HW153060   0.381   6.246   8.249
 1407SOL    HW253061   0.357   6.289   8.093
 1408SOL     OW53062   5.793   3.794   8.193
 1408SOL    HW153063   5.813   3.724   8.125
 1408SOL    HW253064   5.724   3.857   8.158
 1409SOL     OW53065  10.785  15.657   1.553
 1409SOL    HW153066  10.760  15.561   1.565
 1409SOL    HW253067  10.821  15.693   1.639
 1410SOL     OW53068   1.470   5.602   8.233
 1410SOL    HW153069   1.489   5.599   8.135
 1410SOL    HW253070   1.504   5.688   8.271
 1411SOL     OW53071   0.875   9.683   8.335
 1411SOL    HW153072   0.819   9.600   8.336
 1411SOL    HW253073   0.826   9.756   8.286
 1412SOL     OW53074  13.097   1.826   8.113
 1412SOL    HW153075  13.165   1.840   8.041
 1412SOL    HW253076  13.053   1.737   8.101
 1413SOL     OW53077   3.696   1.836   7.934
 1413SOL    HW153078   3.687   1.934   7.915
 1413SOL    HW253079   3.701   1.822   8.033
 1414SOL     OW53080   7.661   3.893   7.829
 1414SOL    HW153081   7.646   3.992   7.823
 1414SOL    HW253082   7.622   3.859   7.915
 1415SOL     OW53083   3.642   1.710   6.431
 1415SOL    HW153084   3.573   1.724   6.502
 1415SOL    HW253085   3.715   1.777   6.442
 1416SOL     OW53086  15.763  15.109   1.016
 1416SOL    HW153087  15.835  15.127   1.084
 1416SOL    HW253088  15.766  15.179   0.945
 1417SOL     OW53089   1.391   1.518   1.717
 1417SOL    HW153090   1.439   1.601   1.745
 1417SOL    HW253091   1.402   1.448   1.788
 1418SOL     OW53092  15.756  11.791   0.752
 1418SOL    HW153093  15.742  11.886   0.724
 1418SOL    HW253094  15.667  11.749   0.774
 1419SOL     OW53095   0.215  10.350   7.648
 1419SOL    HW153096   0.251  10.273   7.597
 1419SOL    HW253097   0.281  10.379   7.717
 1420SOL     OW53098   7.166   8.837   8.397
 1420SOL    HW153099   7.254   8.853   8.351
 1420SOL    HW253100   7.179   8.843   0.042
 1421SOL     OW53101  15.503   1.972   1.838
 1421SOL    HW153102  15.408   1.944   1.852
 1421SOL    HW253103  15.562   1.920   1.901
 1422SOL     OW53104   9.153  11.691   7.338
 1422SOL    HW153105   9.096  11.613   7.364
 1422SOL    HW253106   9.163  11.754   7.415
 1423SOL     OW53107  11.719  13.484   7.991
 1423SOL    HW153108  11.805  13.454   7.949
 1423SOL    HW253109  11.691  13.418   8.060
 1424SOL     OW53110  10.235   0.341   0.712
 1424SOL    HW153111  10.260   0.304   0.623
 1424SOL    HW253112  10.136   0.357   0.715
 1425SOL     OW53113  10.733  10.439   7.277
 1425SOL    HW153114  10.701  10.509   7.342
 1425SOL    HW253115  10.805  10.477   7.220
 1426SOL     OW53116   0.718  11.327   0.618
 1426SOL    HW153117   0.804  11.282   0.642
 1426SOL    HW253118   0.707  11.409   0.674
 1427SOL     OW53119  15.059   5.515   5.566
 1427SOL    HW153120  15.122   5.460   5.511
 1427SOL    HW253121  15.052   5.607   5.527
 1428SOL     OW53122   1.295  14.091   1.217
 1428SOL    HW153123   1.249  14.004   1.203
 1428SOL    HW253124   1.360  14.107   1.143
 1429SOL     OW53125   3.014  16.159   7.463
 1429SOL    HW153126   3.071  16.160   7.545
 1429SOL    HW253127   3.066  16.197   7.387
 1430SOL     OW53128  15.311   5.066   6.326
 1430SOL    HW153129  15.228   5.031   6.283
 1430SOL    HW253130  15.360   4.990   6.370
 1431SOL     OW53131   9.440   3.029   8.101
 1431SOL    HW153132   9.371   3.102   8.100
 1431SOL    HW253133   9.437   2.980   8.014
 1432SOL     OW53134  12.026   6.283   7.525
 1432SOL    HW153135  12.016   6.340   7.607
 1432SOL    HW253136  12.039   6.188   7.552
 1433SOL     OW53137  10.201   7.046   8.269
 1433SOL    HW153138  10.248   6.981   8.209
 1433SOL    HW253139  10.187   7.004   8.359
 1434SOL     OW53140   3.525   3.314   2.011
 1434SOL    HW153141   3.607   3.299   1.956
 1434SOL    HW253142   3.543   3.288   2.106
 1435SOL     OW53143   3.728  10.366   0.985
 1435SOL    HW153144   3.739  10.267   0.981
 1435SOL    HW253145   3.807  10.408   1.029
 1436SOL     OW53146   5.512   3.435   1.131
 1436SOL    HW153147   5.532   3.515   1.187
 1436SOL    HW253148   5.515   3.353   1.189
 1437SOL     OW53149  15.941  14.411   0.224
 1437SOL    HW153150  15.953  14.382   0.130
 1437SOL    HW253151  16.000  14.490   0.243
 1438SOL     OW53152  11.955   6.725   6.497
 1438SOL    HW153153  11.973   6.632   6.529
 1438SOL    HW253154  11.857   6.738   6.485
 1439SOL     OW53155   4.037   6.856   7.634
 1439SOL    HW153156   4.074   6.939   7.675
 1439SOL    HW253157   3.978   6.880   7.557
 1440SOL     OW53158   0.385   8.350   8.224
 1440SOL    HW153159   0.444   8.399   8.160
 1440SOL    HW253160   0.374   8.403   8.308
 1441SOL     OW53161   9.827  11.637   8.403
 1441SOL    HW153162   9.911  11.586   8.389
 1441SOL    HW253163   9.770  11.632   8.320
 1442SOL     OW53164   3.398   4.173   7.535
 1442SOL    HW153165   3.391   4.083   7.577
 1442SOL    HW253166   3.492   4.187   7.502
 1443SOL     OW53167   4.828   2.156   6.483
 1443SOL    HW153168   4.858   2.232   6.426
 1443SOL    HW253169   4.882   2.074   6.460
 1444SOL     OW53170   4.252  14.479   8.023
 1444SOL    HW153171   4.230  14.428   8.105
 1444SOL    HW253172   4.276  14.416   7.949
 1445SOL     OW53173  10.420   2.385   6.928
 1445SOL    HW153174  10.514   2.368   6.958
 1445SOL    HW253175  10.385   2.467   6.975
 1446SOL     OW53176   5.580   5.108   7.940
 1446SOL    HW153177   5.599   5.079   8.034
 1446SOL    HW253178   5.527   5.038   7.893
 1447SOL     OW53179  13.232   3.169   6.025
 1447SOL    HW153180  13.190   3.173   5.934
 1447SOL    HW253181  13.331   3.157   6.015
 1448SOL     OW53182  10.565  15.401   7.408
 1448SOL    HW153183  10.551  15.500   7.398
 1448SOL    HW253184  10.483  15.353   7.375
 1449SOL     OW53185   4.423   3.047   7.783
 1449SOL    HW153186   4.454   2.976   7.720
 1449SOL    HW253187   4.416   3.134   7.734
 1450SOL     OW53188   2.901  11.115   1.117
 1450SOL    HW153189   2.940  11.183   1.056
 1450SOL    HW253190   2.958  11.105   1.198
 1451SOL     OW53191   8.008   8.551   1.336
 1451SOL    HW153192   8.068   8.614   1.286
 1451SOL    HW253193   7.926   8.600   1.366
 1452SOL     OW53194   1.335  13.555   1.293
 1452SOL    HW153195   1.235  13.554   1.296
 1452SOL    HW253196   1.365  13.623   1.226
 1453SOL     OW53197  14.289   3.639   8.165
 1453SOL    HW153198  14.215   3.680   8.113
 1453SOL    HW253199  14.252   3.581   8.237
 1454SOL     OW53200  13.185   0.604   8.449
 1454SOL    HW153201  13.098   0.582   0.040
 1454SOL    HW253202  13.171   0.680   8.385
 1455SOL     OW53203   6.477   9.933   1.290
 1455SOL    HW153204   6.386   9.908   1.257
 1455SOL    HW253205   6.546   9.879   1.241
 1456SOL     OW53206  13.945  15.565   2.160
 1456SOL    HW153207  13.948  15.614   2.247
 1456SOL    HW253208  14.038  15.548   2.128
 1457SOL     OW53209   5.014   7.021   0.810
 1457SOL    HW153210   5.084   7.086   0.783
 1457SOL    HW253211   5.054   6.952   0.871
 1458SOL     OW53212  13.969  12.052   7.225
 1458SOL    HW153213  13.957  11.960   7.186
 1458SOL    HW253214  14.049  12.095   7.183
 1459SOL     OW53215   4.377  14.861   1.856
 1459SOL    HW153216   4.444  14.908   1.799
 1459SOL    HW253217   4.303  14.924   1.880
 1460SOL     OW53218  11.850   9.470   7.680
 1460SOL    HW153219  11.932   9.423   7.714
 1460SOL    HW253220  11.783   9.403   7.649
 1461SOL     OW53221  14.888   7.151   0.484
 1461SOL    HW153222  14.976   7.172   0.441
 1461SOL    HW253223  14.834   7.234   0.493
 1462SOL     OW53224  13.637  14.572   0.956
 1462SOL    HW153225  13.667  14.487   0.912
 1462SOL    HW253226  13.717  14.624   0.985
 1463SOL     OW53227   7.922   5.486   0.322
 1463SOL    HW153228   7.906   5.402   0.269
 1463SOL    HW253229   7.958   5.557   0.261
 1464SOL     OW53230   2.177   9.188   1.916
 1464SOL    HW153231   2.251   9.176   1.983
 1464SOL    HW253232   2.107   9.119   1.931
 1465SOL     OW53233   8.499  13.077   6.053
 1465SOL    HW153234   8.411  13.054   6.011
 1465SOL    HW253235   8.567  13.093   5.982
 1466SOL     OW53236  15.567   8.390   0.004
 1466SOL    HW153237  15.470   8.410   0.014
 1466SOL    HW253238  15.605   8.445   8.383
 1467SOL     OW53239   3.530   3.377   0.247
 1467SOL    HW153240   3.439   3.398   0.212
 1467SOL    HW253241   3.554   3.283   0.224
 1468SOL     OW53242  12.396   2.534   0.509
 1468SOL    HW153243  12.489   2.571   0.515
 1468SOL    HW253244  12.338   2.578   0.578
 1469SOL     OW53245   2.646  11.673   0.394
 1469SOL    HW153246   2.707  11.596   0.377
 1469SOL    HW253247   2.651  11.699   0.490
 1470SOL     OW53248   3.649  11.756   2.001
 1470SOL    HW153249   3.629  11.830   1.937
 1470SOL    HW253250   3.741  11.768   2.039
 1471SOL     OW53251  13.263   7.881   1.125
 1471SOL    HW153252  13.290   7.929   1.208
 1471SOL    HW253253  13.219   7.945   1.061
 1472SOL     OW53254  16.643  11.279   0.124
 1472SOL    HW153255  16.702  11.359   0.118
 1472SOL    HW253256  16.699  11.196   0.117
 1473SOL     OW53257   5.443   5.295   0.643
 1473SOL    HW153258   5.358   5.260   0.604
 1473SOL    HW253259   5.515   5.292   0.573
 1474SOL     OW53260   6.133  10.300   6.556
 1474SOL    HW153261   6.182  10.305   6.469
 1474SOL    HW253262   6.036  10.321   6.540
 1475SOL     OW53263   1.602  16.447   0.385
 1475SOL    HW153264   1.625  16.353   0.362
 1475SOL    HW253265   1.682  16.493   0.423
 1476SOL     OW53266  15.679  11.711   2.286
 1476SOL    HW153267  15.668  11.800   2.243
 1476SOL    HW253268  15.718  11.722   2.378
 1477SOL     OW53269  13.588  10.539   1.718
 1477SOL    HW153270  13.646  10.615   1.746
 1477SOL    HW253271  13.493  10.559   1.741
 1478SOL     OW53272   4.664   2.326   0.959
 1478SOL    HW153273   4.741   2.390   0.963
 1478SOL    HW253274   4.670   2.261   1.034
 1479SOL     OW53275   7.910   4.509   6.884
 1479SOL    HW153276   7.893   4.417   6.921
 1479SOL    HW253277   7.954   4.501   6.795
 1480SOL     OW53278  16.056   0.592   7.063
 1480SOL    HW153279  15.990   0.524   7.031
 1480SOL    HW253280  16.149   0.556   7.054
 1481SOL     OW53281  14.460   6.133   1.182
 1481SOL    HW153282  14.506   6.127   1.093
 1481SOL    HW253283  14.482   6.052   1.236
 1482SOL     OW53284  15.446  14.269   1.557
 1482SOL    HW153285  15.384  14.262   1.635
 1482SOL    HW253286  15.395  14.296   1.476
 1483SOL     OW53287   2.036   6.900   7.773
 1483SOL    HW153288   2.105   6.907   7.701
 1483SOL    HW253289   1.947   6.882   7.731
 1484SOL     OW53290   5.329   9.670   0.053
 1484SOL    HW153291   5.354   9.727   0.131
 1484SOL    HW253292   5.231   9.649   0.057
 1485SOL     OW53293   2.184   3.740   0.833
 1485SOL    HW153294   2.169   3.830   0.873
 1485SOL    HW253295   2.103   3.683   0.848
 1486SOL     OW53296   5.504   8.924   1.643
 1486SOL    HW153297   5.476   8.896   1.735
 1486SOL    HW253298   5.603   8.915   1.634
 1487SOL     OW53299   0.120   2.152   0.085
 1487SOL    HW153300   0.075   2.216   0.022
 1487SOL    HW253301   0.152   2.072   0.034
 1488SOL     OW53302   8.695   2.949   1.158
 1488SOL    HW153303   8.598   2.956   1.182
 1488SOL    HW253304   8.748   2.935   1.241
 1489SOL     OW53305  12.240   6.599   7.211
 1489SOL    HW153306  12.238   6.513   7.262
 1489SOL    HW253307  12.329   6.607   7.165
 1490SOL     OW53308  15.506  12.681   7.621
 1490SOL    HW153309  15.412  12.714   7.618
 1490SOL    HW253310  15.556  12.729   7.693
 1491SOL     OW53311   5.467   1.786   0.804
 1491SOL    HW153312   5.484   1.828   0.893
 1491SOL    HW253313   5.372   1.803   0.777
 1492SOL     OW53314  13.442  12.037   7.800
 1492SOL    HW153315  13.355  12.086   7.793
 1492SOL    HW253316  13.437  11.971   7.874
 1493SOL     OW53317  15.004  16.486   7.375
 1493SOL    HW153318  15.037  16.543   7.300
 1493SOL    HW253319  15.079  16.464   7.436
 1494SOL     OW53320   4.104  14.238   2.125
 1494SOL    HW153321   4.068  14.318   2.173
 1494SOL    HW253322   4.099  14.158   2.186
 1495SOL     OW53323  13.773   5.773   0.443
 1495SOL    HW153324  13.763   5.696   0.381
 1495SOL    HW253325  13.709   5.765   0.519
 1496SOL     OW53326   8.757   7.730   1.231
 1496SOL    HW153327   8.793   7.677   1.154
 1496SOL    HW253328   8.659   7.714   1.240
 1497SOL     OW53329  12.237   9.143   0.638
 1497SOL    HW153330  12.259   9.126   0.734
 1497SOL    HW253331  12.196   9.061   0.598
 1498SOL     OW53332   4.019   3.623   0.329
 1498SOL    HW153333   4.053   3.584   0.244
 1498SOL    HW253334   4.096   3.653   0.385
 1499SOL     OW53335   4.471  15.659   8.285
 1499SOL    HW153336   4.443  15.709   8.367
 1499SOL    HW253337   4.452  15.562   8.297
 1500SOL     OW53338  11.017   5.604   6.444
 1500SOL    HW153339  10.992   5.627   6.538
 1500SOL    HW253340  10.950   5.645   6.381
 1501SOL     OW53341  13.956  10.936   6.255
 1501SOL    HW153342  13.864  10.974   6.266
 1501SOL    HW253343  13.951  10.849   6.206
 1502SOL     OW53344  16.944   8.887   7.304
 1502SOL    HW153345   0.032   8.861   7.239
 1502SOL    HW253346  16.874   8.815   7.308
 1503SOL     OW53347   3.369   5.437   1.164
 1503SOL    HW153348   3.317   5.450   1.080
 1503SOL    HW253349   3.388   5.526   1.206
 1504SOL     OW53350   1.275   9.007   8.247
 1504SOL    HW153351   1.179   9.032   8.265
 1504SOL    HW253352   1.323   8.995   8.334
 1505SOL     OW53353   2.851  14.183   0.307
 1505SOL    HW153354   2.923  14.234   0.354
 1505SOL    HW253355   2.763  14.228   0.320
 1506SOL     OW53356   3.599   6.661   1.889
 1506SOL    HW153357   3.561   6.628   1.803
 1506SOL    HW253358   3.577   6.597   1.962
 1507SOL     OW53359   5.258   3.686   0.922
 1507SOL    HW153360   5.331   3.630   0.882
 1507SOL    HW253361   5.261   3.679   1.022
 1508SOL     OW53362   7.099   8.937   0.742
 1508SOL    HW153363   7.061   8.954   0.651
 1508SOL    HW253364   7.181   8.993   0.754
 1509SOL     OW53365   8.046  12.623   7.813
 1509SOL    HW153366   8.067  12.587   7.904
 1509SOL    HW253367   7.949  12.645   7.807
 1510SOL     OW53368  11.475   4.478   7.266
 1510SOL    HW153369  11.511   4.535   7.341
 1510SOL    HW253370  11.545   4.413   7.237
 1511SOL     OW53371   4.321   9.483   7.893
 1511SOL    HW153372   4.256   9.479   7.817
 1511SOL    HW253373   4.361   9.393   7.908
 1512SOL     OW53374   8.310  15.526   8.428
 1512SOL    HW153375   8.379  15.456   8.417
 1512SOL    HW253376   8.255  15.533   8.345
 1513SOL     OW53377   8.297   4.454   6.213
 1513SOL    HW153378   8.289   4.407   6.125
 1513SOL    HW253379   8.249   4.541   6.208
 1514SOL     OW53380  10.670  13.254   7.862
 1514SOL    HW153381  10.700  13.245   7.767
 1514SOL    HW253382  10.615  13.337   7.872
 1515SOL     OW53383   5.185  16.411   7.021
 1515SOL    HW153384   5.149  16.457   7.102
 1515SOL    HW253385   5.273  16.451   6.996
 1516SOL     OW53386   2.803  14.549   7.786
 1516SOL    HW153387   2.815  14.584   7.879
 1516SOL    HW253388   2.814  14.625   7.721
 1517SOL     OW53389   7.188   6.198   7.090
 1517SOL    HW153390   7.182   6.268   7.019
 1517SOL    HW253391   7.182   6.241   7.180
 1518SOL     OW53392  16.905  12.761   1.650
 1518SOL    HW153393  16.975  12.696   1.622
 1518SOL    HW253394  16.822  12.712   1.674
 1519SOL     OW53395   2.187  15.995   0.797
 1519SOL    HW153396   2.103  15.962   0.839
 1519SOL    HW253397   2.185  16.095   0.792
 1520SOL     OW53398  13.546   8.963   0.121
 1520SOL    HW153399  13.610   9.040   0.120
 1520SOL    HW253400  13.541   8.922   0.031
 1521SOL     OW53401   9.791  13.025   7.429
 1521SOL    HW153402   9.755  13.071   7.511
 1521SOL    HW253403   9.766  13.077   7.348
 1522SOL     OW53404   1.291  16.475   7.034
 1522SOL    HW153405   1.295  16.397   6.972
 1522SOL    HW253406   1.383  16.508   7.052
 1523SOL     OW53407   6.584   9.951   0.938
 1523SOL    HW153408   6.552   9.896   0.861
 1523SOL    HW253409   6.610   9.890   1.013
 1524SOL     OW53410  10.387  13.536   1.621
 1524SOL    HW153411  10.479  13.508   1.595
 1524SOL    HW253412  10.383  13.550   1.719
 1525SOL     OW53413  15.733  13.564   1.925
 1525SOL    HW153414  15.685  13.502   1.863
 1525SOL    HW253415  15.730  13.527   2.018
 1526SOL     OW53416  16.588   8.347   0.804
 1526SOL    HW153417  16.548   8.296   0.728
 1526SOL    HW253418  16.524   8.349   0.880
 1527SOL     OW53419  12.070   9.787   1.199
 1527SOL    HW153420  12.166   9.761   1.211
 1527SOL    HW253421  12.013   9.730   1.258
 1528SOL     OW53422   6.159   6.401   6.732
 1528SOL    HW153423   6.070   6.436   6.702
 1528SOL    HW253424   6.226   6.475   6.734
 1529SOL     OW53425   9.358   2.488   7.293
 1529SOL    HW153426   9.334   2.560   7.227
 1529SOL    HW253427   9.336   2.399   7.254
 1530SOL     OW53428   2.220  15.271   0.686
 1530SOL    HW153429   2.310  15.242   0.720
 1530SOL    HW253430   2.172  15.321   0.759
 1531SOL     OW53431   4.708   3.207   0.862
 1531SOL    HW153432   4.677   3.139   0.795
 1531SOL    HW253433   4.743   3.160   0.943
 1532SOL     OW53434   4.923  14.241   7.813
 1532SOL    HW153435   4.885  14.244   7.721
 1532SOL    HW253436   4.909  14.329   7.859
 1533SOL     OW53437  12.462  10.747   7.604
 1533SOL    HW153438  12.522  10.767   7.526
 1533SOL    HW253439  12.468  10.822   7.670
 1534SOL     OW53440  15.092   9.268   1.741
 1534SOL    HW153441  15.104   9.238   1.835
 1534SOL    HW253442  14.994   9.276   1.720
 1535SOL     OW53443   3.852  12.605   7.149
 1535SOL    HW153444   3.803  12.693   7.145
 1535SOL    HW253445   3.816  12.551   7.225
 1536SOL     OW53446  10.426   6.426   0.665
 1536SOL    HW153447  10.441   6.445   0.568
 1536SOL    HW253448  10.512   6.397   0.706
 1537SOL     OW53449  14.444  10.972   7.743
 1537SOL    HW153450  14.477  10.956   7.650
 1537SOL    HW253451  14.511  11.026   7.793
 1538SOL     OW53452  13.288   7.604   6.762
 1538SOL    HW153453  13.350   7.594   6.839
 1538SOL    HW253454  13.330   7.661   6.692
 1539SOL     OW53455  11.601  15.072   8.385
 1539SOL    HW153456  11.694  15.068   8.350
 1539SOL    HW253457  11.566  15.166   8.378
 1540SOL     OW53458   9.516   9.645   1.630
 1540SOL    HW153459   9.426   9.667   1.668
 1540SOL    HW253460   9.515   9.658   1.531
 1541SOL     OW53461  14.043  15.434   1.506
 1541SOL    HW153462  13.955  15.387   1.505
 1541SOL    HW253463  14.116  15.366   1.513
 1542SOL     OW53464   8.228   5.568   2.120
 1542SOL    HW153465   8.260   5.475   2.140
 1542SOL    HW253466   8.280   5.634   2.174
 1543SOL     OW53467   9.290  16.088   0.912
 1543SOL    HW153468   9.322  16.042   0.829
 1543SOL    HW253469   9.267  16.183   0.891
 1544SOL     OW53470   6.882   8.861   7.759
 1544SOL    HW153471   6.937   8.795   7.708
 1544SOL    HW253472   6.900   8.850   7.857
 1545SOL     OW53473  13.267   3.616   6.575
 1545SOL    HW153474  13.353   3.566   6.570
 1545SOL    HW253475  13.190   3.552   6.567
 1546SOL     OW53476  16.263  12.348   6.541
 1546SOL    HW153477  16.362  12.358   6.531
 1546SOL    HW253478  16.222  12.438   6.559
 1547SOL     OW53479  14.296  15.161   7.292
 1547SOL    HW153480  14.396  15.162   7.288
 1547SOL    HW253481  14.262  15.255   7.295
 1548SOL     OW53482   0.062  13.995   6.773
 1548SOL    HW153483  16.954  13.967   6.743
 1548SOL    HW253484   0.090  13.938   6.850
 1549SOL     OW53485   4.662   8.850   6.784
 1549SOL    HW153486   4.591   8.918   6.771
 1549SOL    HW253487   4.632   8.762   6.746
 1550SOL     OW53488   5.827   4.722   6.964
 1550SOL    HW153489   5.741   4.741   7.010
 1550SOL    HW253490   5.878   4.808   6.951
 1551SOL     OW53491   5.668  14.548   0.478
 1551SOL    HW153492   5.717  14.528   0.394
 1551SOL    HW253493   5.571  14.526   0.468
 1552SOL     OW53494  14.964   0.495   1.813
 1552SOL    HW153495  14.884   0.494   1.874
 1552SOL    HW253496  15.017   0.412   1.827
 1553SOL     OW53497  13.968  13.436   7.216
 1553SOL    HW153498  13.928  13.502   7.153
 1553SOL    HW253499  14.030  13.483   7.279
 1554SOL     OW53500  10.938  16.049   0.749
 1554SOL    HW153501  10.977  15.998   0.672
 1554SOL    HW253502  10.882  15.988   0.805
 1555SOL     OW53503   5.634  14.067   7.189
 1555SOL    HW153504   5.672  13.981   7.222
 1555SOL    HW253505   5.651  14.075   7.091
 1556SOL     OW53506  16.626  16.401   7.998
 1556SOL    HW153507  16.702  16.359   7.949
 1556SOL    HW253508  16.540  16.366   7.963
 1557SOL     OW53509  13.135   5.873   7.492
 1557SOL    HW153510  13.054   5.920   7.527
 1557SOL    HW253511  13.216   5.926   7.515
 1558SOL     OW53512  16.145   6.340   6.311
 1558SOL    HW153513  16.062   6.288   6.334
 1558SOL    HW253514  16.121   6.416   6.251
 1559SOL     OW53515   7.887  13.931   1.206
 1559SOL    HW153516   7.830  13.854   1.233
 1559SOL    HW253517   7.902  13.990   1.284
 1560SOL     OW53518  11.756  14.807   1.746
 1560SOL    HW153519  11.784  14.902   1.728
 1560SOL    HW253520  11.788  14.780   1.837
 1561SOL     OW53521  10.975  10.231   7.996
 1561SOL    HW153522  10.931  10.319   7.978
 1561SOL    HW253523  11.048  10.217   7.930
 1562SOL     OW53524  10.442   3.109   0.946
 1562SOL    HW153525  10.369   3.136   0.883
 1562SOL    HW253526  10.426   3.151   1.035
 1563SOL     OW53527   1.732   8.641   8.436
 1563SOL    HW153528   1.713   8.687   0.069
 1563SOL    HW253529   1.700   8.698   8.360
 1564SOL     OW53530  10.655  13.095   6.866
 1564SOL    HW153531  10.592  13.144   6.807
 1564SOL    HW253532  10.617  13.089   6.958
 1565SOL     OW53533  14.074  14.351   8.420
 1565SOL    HW153534  14.094  14.444   8.390
 1565SOL    HW253535  14.157  14.295   8.414
 1566SOL     OW53536   5.144  14.416   6.657
 1566SOL    HW153537   5.063  14.460   6.618
 1566SOL    HW253538   5.208  14.394   6.583
 1567SOL     OW53539  15.205  15.188   1.386
 1567SOL    HW153540  15.144  15.257   1.426
 1567SOL    HW253541  15.267  15.154   1.457
 1568SOL     OW53542  15.386  10.262   2.300
 1568SOL    HW153543  15.434  10.335   2.349
 1568SOL    HW253544  15.290  10.262   2.327
 1569SOL     OW53545  10.833   7.203   6.849
 1569SOL    HW153546  10.847   7.169   6.943
 1569SOL    HW253547  10.917   7.249   6.818
 1570SOL     OW53548   9.704   1.414   0.814
 1570SOL    HW153549   9.656   1.328   0.796
 1570SOL    HW253550   9.644   1.475   0.866
 1571SOL     OW53551  13.582  11.688   6.679
 1571SOL    HW153552  13.503  11.746   6.658
 1571SOL    HW253553  13.552  11.593   6.689
 1572SOL     OW53554  10.686  10.297   0.749
 1572SOL    HW153555  10.755  10.336   0.810
 1572SOL    HW253556  10.607  10.358   0.744
 1573SOL     OW53557  16.809  10.559   0.298
 1573SOL    HW153558  16.895  10.586   0.339
 1573SOL    HW253559  16.741  10.631   0.312
 1574SOL     OW53560  14.297   4.899   7.965
 1574SOL    HW153561  14.230   4.969   7.939
 1574SOL    HW253562  14.291   4.882   8.063
 1575SOL     OW53563   8.138  11.512   6.613
 1575SOL    HW153564   8.088  11.451   6.675
 1575SOL    HW253565   8.088  11.520   6.527
 1576SOL     OW53566   7.801   7.573   6.986
 1576SOL    HW153567   7.842   7.483   7.000
 1576SOL    HW253568   7.720   7.582   7.044
 1577SOL     OW53569  16.149   5.954   0.718
 1577SOL    HW153570  16.208   5.989   0.646
 1577SOL    HW253571  16.137   5.856   0.708
 1578SOL     OW53572   7.827  14.016   0.496
 1578SOL    HW153573   7.819  13.920   0.471
 1578SOL    HW253574   7.908  14.055   0.452
 1579SOL     OW53575  10.497   6.444   1.910
 1579SOL    HW153576  10.586   6.477   1.878
 1579SOL    HW253577  10.510   6.369   1.974
 1580SOL     OW53578  10.084   1.941   8.104
 1580SOL    HW153579  10.157   1.886   8.063
 1580SOL    HW253580  10.027   1.979   8.031
 1581SOL     OW53581   3.126   0.616   0.125
 1581SOL    HW153582   3.032   0.626   0.158
 1581SOL    HW253583   3.171   0.706   0.126
 1582SOL     OW53584  14.507   6.119   0.373
 1582SOL    HW153585  14.511   6.188   0.300
 1582SOL    HW253586  14.564   6.041   0.349
 1583SOL     OW53587   8.691   8.682   8.255
 1583SOL    HW153588   8.781   8.650   8.225
 1583SOL    HW253589   8.700   8.773   8.295
 1584SOL     OW53590   6.240   6.691   7.089
 1584SOL    HW153591   6.214   6.595   7.078
 1584SOL    HW253592   6.318   6.712   7.029
 1585SOL     OW53593   6.013   1.121   7.193
 1585SOL    HW153594   6.109   1.094   7.185
 1585SOL    HW253595   5.975   1.084   7.279
 1586SOL     OW53596  16.246  10.007   0.285
 1586SOL    HW153597  16.154  10.007   0.325
 1586SOL    HW253598  16.307  10.062   0.342
 1587SOL     OW53599   2.072  12.957   7.320
 1587SOL    HW153600   2.091  12.862   7.295
 1587SOL    HW253601   2.100  13.017   7.245
 1588SOL     OW53602   5.964   7.572   6.637
 1588SOL    HW153603   5.865   7.583   6.649
 1588SOL    HW253604   5.994   7.620   6.555
 1589SOL     OW53605   1.550   3.091   0.670
 1589SOL    HW153606   1.581   3.129   0.582
 1589SOL    HW253607   1.614   3.119   0.742
 1590SOL     OW53608   0.502  12.754   7.482
 1590SOL    HW153609   0.408  12.761   7.513
 1590SOL    HW253610   0.553  12.692   7.542
 1591SOL     OW53611   5.857   7.718   1.997
 1591SOL    HW153612   5.852   7.724   1.897
 1591SOL    HW253613   5.786   7.776   2.037
 1592SOL     OW53614  15.578   2.585   0.276
 1592SOL    HW153615  15.530   2.513   0.226
 1592SOL    HW253616  15.541   2.674   0.251
 1593SOL     OW53617  11.570   4.929   1.251
 1593SOL    HW153618  11.508   4.899   1.323
 1593SOL    HW253619  11.521   4.932   1.164
 1594SOL     OW53620  12.649   4.399   7.440
 1594SOL    HW153621  12.560   4.364   7.469
 1594SOL    HW253622  12.699   4.434   7.519
 1595SOL     OW53623  15.112  13.472   7.936
 1595SOL    HW153624  15.059  13.395   7.901
 1595SOL    HW253625  15.075  13.501   8.024
 1596SOL     OW53626  14.221   3.278   6.728
 1596SOL    HW153627  14.168   3.238   6.653
 1596SOL    HW253628  14.167   3.275   6.812
 1597SOL     OW53629  11.447  10.164   7.816
 1597SOL    HW153630  11.477  10.258   7.830
 1597SOL    HW253631  11.347  10.162   7.808
 1598SOL     OW53632   3.390   9.913   1.519
 1598SOL    HW153633   3.306   9.967   1.524
 1598SOL    HW253634   3.417   9.886   1.612
 1599SOL     OW53635  14.782   9.517   1.899
 1599SOL    HW153636  14.722   9.551   1.971
 1599SOL    HW253637  14.751   9.551   1.810
 1600SOL     OW53638   6.129   8.503   0.543
 1600SOL    HW153639   6.067   8.479   0.618
 1600SOL    HW253640   6.102   8.591   0.504
 1601SOL     OW53641   9.322  11.451   0.184
 1601SOL    HW153642   9.400  11.509   0.163
 1601SOL    HW253643   9.246  11.475   0.123
 1602SOL     OW53644   3.892   2.145   0.457
 1602SOL    HW153645   3.803   2.159   0.412
 1602SOL    HW253646   3.938   2.233   0.467
 1603SOL     OW53647   8.498  14.121   1.791
 1603SOL    HW153648   8.589  14.155   1.814
 1603SOL    HW253649   8.470  14.052   1.858
 1604SOL     OW53650  16.424   8.603   1.499
 1604SOL    HW153651  16.335   8.610   1.544
 1604SOL    HW253652  16.428   8.668   1.424
 1605SOL     OW53653   8.519  16.974   0.928
 1605SOL    HW153654   8.436  16.940   0.973
 1605SOL    HW253655   8.518   0.091   0.926
 1606SOL     OW53656  16.224   2.487   6.874
 1606SOL    HW153657  16.293   2.559   6.873
 1606SOL    HW253658  16.267   2.399   6.855
 1607SOL     OW53659  16.367  13.632   0.462
 1607SOL    HW153660  16.268  13.628   0.452
 1607SOL    HW253661  16.391  13.700   0.531
 1608SOL     OW53662   5.492   2.413   0.938
 1608SOL    HW153663   5.461   2.330   0.984
 1608SOL    HW253664   5.469   2.409   0.841
 1609SOL     OW53665   7.133   9.938   7.341
 1609SOL    HW153666   7.116   9.847   7.302
 1609SOL    HW253667   7.061   9.960   7.406
 1610SOL     OW53668   6.376   2.268   2.121
 1610SOL    HW153669   6.295   2.279   2.179
 1610SOL    HW253670   6.458   2.267   2.179
 1611SOL     OW53671   5.376   6.427   1.229
 1611SOL    HW153672   5.367   6.450   1.325
 1611SOL    HW253673   5.472   6.434   1.202
 1612SOL     OW53674   4.861   6.708   7.356
 1612SOL    HW153675   4.896   6.760   7.433
 1612SOL    HW253676   4.935   6.692   7.290
 1613SOL     OW53677   5.289  16.526   0.813
 1613SOL    HW153678   5.361  16.465   0.781
 1613SOL    HW253679   5.281  16.519   0.913
 1614SOL     OW53680   3.312   1.798   1.615
 1614SOL    HW153681   3.289   1.716   1.668
 1614SOL    HW253682   3.252   1.804   1.535
 1615SOL     OW53683   1.753   0.879   7.431
 1615SOL    HW153684   1.802   0.854   7.347
 1615SOL    HW253685   1.771   0.975   7.453
 1616SOL     OW53686   5.344   6.236   2.652
 1616SOL    HW153687   5.428   6.210   2.701
 1616SOL    HW253688   5.319   6.329   2.677
 1617SOL     OW53689  10.287   7.814   6.932
 1617SOL    HW153690  10.374   7.801   6.981
 1617SOL    HW253691  10.240   7.726   6.925
 1618SOL     OW53692   8.546  15.053   0.032
 1618SOL    HW153693   8.641  15.045   0.062
 1618SOL    HW253694   8.486  15.045   0.111
 1619SOL     OW53695   1.669   4.232   0.479
 1619SOL    HW153696   1.589   4.172   0.483
 1619SOL    HW253697   1.746   4.188   0.525
 1620SOL     OW53698   8.469   2.303   0.378
 1620SOL    HW153699   8.468   2.203   0.370
 1620SOL    HW253700   8.563   2.334   0.392
 1621SOL     OW53701   2.412   3.618   1.672
 1621SOL    HW153702   2.328   3.637   1.723
 1621SOL    HW253703   2.405   3.529   1.626
 1622SOL     OW53704   8.484  11.796   0.880
 1622SOL    HW153705   8.453  11.708   0.916
 1622SOL    HW253706   8.446  11.809   0.788
 1623SOL     OW53707  12.494   9.930   7.015
 1623SOL    HW153708  12.465   9.846   7.061
 1623SOL    HW253709  12.548   9.985   7.078
 1624SOL     OW53710   0.669   8.160   2.103
 1624SOL    HW153711   0.752   8.135   2.152
 1624SOL    HW253712   0.630   8.243   2.144
 1625SOL     OW53713  10.099   3.780   8.331
 1625SOL    HW153714  10.114   3.875   8.307
 1625SOL    HW253715  10.134   3.721   8.258
 1626SOL     OW53716  12.262   0.772   7.749
 1626SOL    HW153717  12.175   0.801   7.710
 1626SOL    HW253718  12.304   0.703   7.689
 1627SOL     OW53719  16.408   3.106   8.402
 1627SOL    HW153720  16.423   3.054   8.318
 1627SOL    HW253721  16.485   3.168   8.417
 1628SOL     OW53722   0.889   6.663   8.084
 1628SOL    HW153723   0.966   6.600   8.071
 1628SOL    HW253724   0.863   6.702   7.996
 1629SOL     OW53725  13.834   0.956   8.431
 1629SOL    HW153726  13.925   0.925   0.002
 1629SOL    HW253727  13.831   1.056   8.435
 1630SOL     OW53728  12.289   9.658   7.778
 1630SOL    HW153729  12.355   9.694   7.844
 1630SOL    HW253730  12.268   9.563   7.801
 1631SOL     OW53731   3.226   5.323   0.046
 1631SOL    HW153732   3.195   5.239   0.090
 1631SOL    HW253733   3.185   5.329   8.408
 1632SOL     OW53734   5.551   0.899   6.898
 1632SOL    HW153735   5.597   0.897   6.809
 1632SOL    HW253736   5.604   0.845   6.964
 1633SOL     OW53737   4.983   1.959   0.282
 1633SOL    HW153738   5.038   1.912   0.351
 1633SOL    HW253739   4.935   1.892   0.226
 1634SOL     OW53740   6.448  15.843   1.494
 1634SOL    HW153741   6.484  15.760   1.451
 1634SOL    HW253742   6.373  15.879   1.439
 1635SOL     OW53743   1.462   4.977   7.830
 1635SOL    HW153744   1.387   5.012   7.773
 1635SOL    HW253745   1.474   5.036   7.909
 1636SOL     OW53746   2.475   6.874   0.117
 1636SOL    HW153747   2.532   6.898   0.038
 1636SOL    HW253748   2.447   6.778   0.110
 1637SOL     OW53749   0.720   7.426   1.035
 1637SOL    HW153750   0.674   7.444   1.122
 1637SOL    HW253751   0.718   7.328   1.016
 1638SOL     OW53752   5.964  12.837   1.000
 1638SOL    HW153753   5.941  12.829   1.097
 1638SOL    HW253754   6.058  12.871   0.992
 1639SOL     OW53755  14.355   0.585   7.370
 1639SOL    HW153756  14.384   0.627   7.284
 1639SOL    HW253757  14.399   0.496   7.380
 1640SOL     OW53758  14.619   9.098   8.076
 1640SOL    HW153759  14.668   9.058   8.153
 1640SOL    HW253760  14.674   9.085   7.993
 1641SOL     OW53761  10.206   7.858   7.999
 1641SOL    HW153762  10.156   7.786   7.949
 1641SOL    HW253763  10.234   7.929   7.934
 1642SOL     OW53764  14.717  11.080   1.670
 1642SOL    HW153765  14.812  11.060   1.647
 1642SOL    HW253766  14.657  11.049   1.596
 1643SOL     OW53767   6.034   3.843   8.340
 1643SOL    HW153768   6.060   3.939   8.352
 1643SOL    HW253769   5.950   3.837   8.285
 1644SOL     OW53770  13.122   8.544   1.357
 1644SOL    HW153771  13.059   8.621   1.367
 1644SOL    HW253772  13.198   8.554   1.421
 1645SOL     OW53773   6.843  12.617   6.373
 1645SOL    HW153774   6.890  12.582   6.292
 1645SOL    HW253775   6.890  12.698   6.407
 1646SOL     OW53776   8.872  12.162   8.156
 1646SOL    HW153777   8.836  12.075   8.122
 1646SOL    HW253778   8.799  12.214   8.199
 1647SOL     OW53779   4.362   1.406   0.933
 1647SOL    HW153780   4.285   1.394   0.996
 1647SOL    HW253781   4.427   1.331   0.946
 1648SOL     OW53782  12.530   2.611   1.277
 1648SOL    HW153783  12.545   2.513   1.263
 1648SOL    HW253784  12.604   2.648   1.333
 1649SOL     OW53785   4.743  10.519   2.385
 1649SOL    HW153786   4.660  10.487   2.431
 1649SOL    HW253787   4.823  10.491   2.438
 1650SOL     OW53788   6.061  12.302   0.020
 1650SOL    HW153789   5.968  12.296   0.055
 1650SOL    HW253790   6.076  12.392   8.433
 1651SOL     OW53791  11.631  12.631   8.440
 1651SOL    HW153792  11.721  12.596   0.012
 1651SOL    HW253793  11.577  12.649   0.069
 1652SOL     OW53794  15.052   4.225   7.294
 1652SOL    HW153795  14.986   4.242   7.366
 1652SOL    HW253796  15.030   4.140   7.247
 1653SOL     OW53797   6.458   2.418   0.264
 1653SOL    HW153798   6.505   2.347   0.211
 1653SOL    HW253799   6.359   2.410   0.250
 1654SOL     OW53800   7.977   2.535   0.143
 1654SOL    HW153801   8.020   2.489   0.221
 1654SOL    HW253802   7.940   2.466   0.080
 1655SOL     OW53803  11.955  13.115   7.070
 1655SOL    HW153804  11.983  13.191   7.129
 1655SOL    HW253805  11.999  13.125   6.981
 1656SOL     OW53806   3.649   5.156   0.929
 1656SOL    HW153807   3.612   5.180   1.018
 1656SOL    HW253808   3.741   5.194   0.919
 1657SOL     OW53809  10.773  13.610   2.086
 1657SOL    HW153810  10.869  13.583   2.085
 1657SOL    HW253811  10.741  13.627   1.993
 1658SOL     OW53812  12.824   9.082   8.362
 1658SOL    HW153813  12.922   9.095   8.376
 1658SOL    HW253814  12.802   8.984   8.367
 1659SOL     OW53815   5.032  16.810   8.433
 1659SOL    HW153816   4.941  16.851   8.445
 1659SOL    HW253817   5.023  16.723   8.385
 1660SOL     OW53818  10.779   6.101   1.448
 1660SOL    HW153819  10.874   6.129   1.433
 1660SOL    HW253820  10.731   6.175   1.496
 1661SOL     OW53821   4.378  11.648   1.662
 1661SOL    HW153822   4.417  11.620   1.750
 1661SOL    HW253823   4.442  11.627   1.589
 1662SOL     OW53824  14.803  13.645   0.151
 1662SOL    HW153825  14.747  13.687   0.222
 1662SOL    HW253826  14.766  13.556   0.126
 1663SOL     OW53827   6.640   0.208   8.171
 1663SOL    HW153828   6.738   0.224   8.166
 1663SOL    HW253829   6.616   0.171   8.261
 1664SOL     OW53830   9.684   5.593   1.607
 1664SOL    HW153831   9.611   5.636   1.554
 1664SOL    HW253832   9.703   5.502   1.570
 1665SOL     OW53833  12.414   0.351   1.721
 1665SOL    HW153834  12.392   0.320   1.629
 1665SOL    HW253835  12.503   0.313   1.748
 1666SOL     OW53836   0.017  10.831   1.482
 1666SOL    HW153837   0.100  10.883   1.461
 1666SOL    HW253838   0.040  10.752   1.538
 1667SOL     OW53839   7.060  16.030   7.469
 1667SOL    HW153840   7.146  15.992   7.505
 1667SOL    HW253841   6.985  15.967   7.489
 1668SOL     OW53842   4.461  11.499   7.682
 1668SOL    HW153843   4.533  11.543   7.735
 1668SOL    HW253844   4.379  11.489   7.738
 1669SOL     OW53845   9.696   4.690   1.381
 1669SOL    HW153846   9.794   4.676   1.361
 1669SOL    HW253847   9.679   4.671   1.477
 1670SOL     OW53848  16.839   2.806   7.342
 1670SOL    HW153849  16.749   2.800   7.298
 1670SOL    HW253850  16.891   2.722   7.325
 1671SOL     OW53851  10.358  11.195   6.412
 1671SOL    HW153852  10.325  11.235   6.326
 1671SOL    HW253853  10.457  11.183   6.406
 1672SOL     OW53854   1.875   6.085   7.109
 1672SOL    HW153855   1.861   6.101   7.207
 1672SOL    HW253856   1.794   6.041   7.070
 1673SOL     OW53857   4.728   6.053   2.162
 1673SOL    HW153858   4.740   6.030   2.259
 1673SOL    HW253859   4.804   6.111   2.132
 1674SOL     OW53860   3.505   0.574   7.530
 1674SOL    HW153861   3.474   0.486   7.494
 1674SOL    HW253862   3.440   0.606   7.599
 1675SOL     OW53863  14.404  10.947   0.521
 1675SOL    HW153864  14.418  10.855   0.484
 1675SOL    HW253865  14.310  10.956   0.554
 1676SOL     OW53866   0.346   9.671   0.116
 1676SOL    HW153867   0.316   9.584   0.078
 1676SOL    HW253868   0.269   9.735   0.118
 1677SOL     OW53869  11.601  15.637   7.682
 1677SOL    HW153870  11.624  15.543   7.656
 1677SOL    HW253871  11.553  15.637   7.769
 1678SOL     OW53872   8.293  16.199   6.353
 1678SOL    HW153873   8.374  16.140   6.348
 1678SOL    HW253874   8.234  16.183   6.274
 1679SOL     OW53875   1.967   7.181   8.204
 1679SOL    HW153876   1.973   7.171   8.105
 1679SOL    HW253877   1.959   7.091   8.246
 1680SOL     OW53878   9.213   2.561   7.513
 1680SOL    HW153879   9.124   2.514   7.512
 1680SOL    HW253880   9.264   2.536   7.430
 1681SOL     OW53881   4.198  12.770   0.865
 1681SOL    HW153882   4.157  12.702   0.925
 1681SOL    HW253883   4.255  12.833   0.919
 1682SOL     OW53884  14.597   1.485   0.881
 1682SOL    HW153885  14.643   1.518   0.799
 1682SOL    HW253886  14.501   1.469   0.861
 1683SOL     OW53887   0.921   6.850   2.121
 1683SOL    HW153888   0.953   6.793   2.196
 1683SOL    HW253889   0.932   6.947   2.144
 1684SOL     OW53890   6.248  12.898   7.532
 1684SOL    HW153891   6.152  12.915   7.551
 1684SOL    HW253892   6.283  12.969   7.470
 1685SOL     OW53893   7.398   3.318   6.018
 1685SOL    HW153894   7.417   3.220   6.014
 1685SOL    HW253895   7.482   3.370   6.003
 1686SOL     OW53896   2.049  10.779   7.067
 1686SOL    HW153897   1.980  10.850   7.054
 1686SOL    HW253898   2.060  10.728   6.982
 1687SOL     OW53899  11.559  12.227   7.908
 1687SOL    HW153900  11.642  12.228   7.964
 1687SOL    HW253901  11.549  12.315   7.861
 1688SOL     OW53902   6.527  13.111   7.628
 1688SOL    HW153903   6.617  13.077   7.601
 1688SOL    HW253904   6.483  13.046   7.690
 1689SOL     OW53905   4.170   2.587   0.011
 1689SOL    HW153906   4.193   2.683   0.022
 1689SOL    HW253907   4.096   2.578   8.398
 1690SOL     OW53908  13.015   5.482   7.277
 1690SOL    HW153909  13.107   5.516   7.256
 1690SOL    HW253910  12.971   5.544   7.342
 1691SOL     OW53911  16.398  16.689   0.699
 1691SOL    HW153912  16.448  16.757   0.752
 1691SOL    HW253913  16.433  16.597   0.719
 1692SOL     OW53914  10.310  13.724   7.254
 1692SOL    HW153915  10.225  13.689   7.293
 1692SOL    HW253916  10.347  13.658   7.189
 1693SOL     OW53917   3.584   5.240   0.680
 1693SOL    HW153918   3.632   5.179   0.617
 1693SOL    HW253919   3.595   5.206   0.773
 1694SOL     OW53920   6.729  12.360   8.165
 1694SOL    HW153921   6.751  12.351   8.068
 1694SOL    HW253922   6.676  12.280   8.195
 1695SOL     OW53923   3.197  16.146   2.091
 1695SOL    HW153924   3.288  16.106   2.086
 1695SOL    HW253925   3.157  16.150   1.999
 1696SOL     OW53926   6.865   2.591   7.650
 1696SOL    HW153927   6.955   2.552   7.669
 1696SOL    HW253928   6.842   2.576   7.554
 1697SOL     OW53929   0.605   1.677   0.276
 1697SOL    HW153930   0.579   1.772   0.260
 1697SOL    HW253931   0.585   1.623   0.194
 1698SOL     OW53932   7.673  15.725   6.850
 1698SOL    HW153933   7.770  15.748   6.839
 1698SOL    HW253934   7.626  15.802   6.894
 1699SOL     OW53935   0.495   1.122   1.549
 1699SOL    HW153936   0.456   1.097   1.638
 1699SOL    HW253937   0.424   1.160   1.490
 1700SOL     OW53938  14.581  11.913   7.230
 1700SOL    HW153939  14.598  11.975   7.307
 1700SOL    HW253940  14.484  11.887   7.230
 1701SOL     OW53941   3.461   1.130   7.900
 1701SOL    HW153942   3.434   1.134   7.804
 1701SOL    HW253943   3.382   1.104   7.956
 1702SOL     OW53944  11.553   0.412   1.547
 1702SOL    HW153945  11.624   0.463   1.595
 1702SOL    HW253946  11.509   0.471   1.480
 1703SOL     OW53947  10.967   7.801   1.636
 1703SOL    HW153948  10.934   7.846   1.718
 1703SOL    HW253949  10.986   7.870   1.566
 1704SOL     OW53950  15.678   3.074   0.418
 1704SOL    HW153951  15.601   3.043   0.362
 1704SOL    HW253952  15.659   3.167   0.451
 1705SOL     OW53953   3.741   6.022   0.638
 1705SOL    HW153954   3.654   6.024   0.589
 1705SOL    HW253955   3.778   5.929   0.638
 1706SOL     OW53956  11.756   1.728   6.131
 1706SOL    HW153957  11.685   1.676   6.178
 1706SOL    HW253958  11.714   1.786   6.061
 1707SOL     OW53959  11.009   4.077   0.054
 1707SOL    HW153960  10.987   4.045   8.416
 1707SOL    HW253961  11.055   4.166   0.047
 1708SOL     OW53962   4.276  16.872   6.933
 1708SOL    HW153963   4.195  16.921   6.901
 1708SOL    HW253964   4.278  16.781   6.892
 1709SOL     OW53965   2.144   2.719   0.863
 1709SOL    HW153966   2.131   2.684   0.955
 1709SOL    HW253967   2.072   2.785   0.842
 1710SOL     OW53968   7.639   6.270   8.021
 1710SOL    HW153969   7.710   6.205   8.049
 1710SOL    HW253970   7.616   6.330   8.097
 1711SOL     OW53971   0.749  14.993   0.923
 1711SOL    HW153972   0.836  14.970   0.881
 1711SOL    HW253973   0.680  15.008   0.853
 1712SOL     OW53974   6.583   3.295   0.015
 1712SOL    HW153975   6.606   3.280   8.373
 1712SOL    HW253976   6.526   3.219   0.047
 1713SOL     OW53977  13.019   8.367   0.951
 1713SOL    HW153978  13.077   8.335   0.876
 1713SOL    HW253979  12.933   8.400   0.914
 1714SOL     OW53980   1.073  12.405   2.375
 1714SOL    HW153981   0.979  12.375   2.388
 1714SOL    HW253982   1.093  12.480   2.439
 1715SOL     OW53983   7.000   4.933   0.151
 1715SOL    HW153984   6.973   4.877   0.230
 1715SOL    HW253985   6.979   5.029   0.170
 1716SOL     OW53986   3.657   5.776   1.968
 1716SOL    HW153987   3.747   5.761   1.928
 1716SOL    HW253988   3.617   5.689   1.996
 1717SOL     OW53989   5.093  12.707   0.910
 1717SOL    HW153990   5.051  12.624   0.874
 1717SOL    HW253991   5.028  12.755   0.970
 1718SOL     OW53992   8.895  16.654   1.655
 1718SOL    HW153993   8.947  16.594   1.593
 1718SOL    HW253994   8.846  16.599   1.722
 1719SOL     OW53995   5.939   6.874   1.583
 1719SOL    HW153996   6.020   6.821   1.558
 1719SOL    HW253997   5.961   6.938   1.656
 1720SOL     OW53998  10.670   2.648   7.385
 1720SOL    HW153999  10.732   2.616   7.312
 1720SOL    HW254000  10.655   2.574   7.450
 1721SOL     OW54001   6.397  13.585   1.275
 1721SOL    HW154002   6.376  13.679   1.245
 1721SOL    HW254003   6.475  13.587   1.337
 1722SOL     OW54004  10.490   9.492   1.361
 1722SOL    HW154005  10.574   9.538   1.389
 1722SOL    HW254006  10.413   9.529   1.411
 1723SOL     OW54007   2.452   0.832   0.028
 1723SOL    HW154008   2.487   0.918   8.445
 1723SOL    HW254009   2.415   0.848   0.120
 1724SOL     OW54010  13.822   4.614   6.112
 1724SOL    HW154011  13.752   4.569   6.167
 1724SOL    HW254012  13.825   4.572   6.022
 1725SOL     OW54013  16.234  12.331   0.684
 1725SOL    HW154014  16.201  12.420   0.714
 1725SOL    HW254015  16.245  12.331   0.584
 1726SOL     OW54016  10.758   3.360   7.115
 1726SOL    HW154017  10.705   3.343   7.032
 1726SOL    HW254018  10.844   3.308   7.111
 1727SOL     OW54019   1.545  10.297   6.746
 1727SOL    HW154020   1.472  10.343   6.696
 1727SOL    HW254021   1.575  10.217   6.695
 1728SOL     OW54022   3.579   1.739   1.594
 1728SOL    HW154023   3.482   1.763   1.597
 1728SOL    HW254024   3.590   1.640   1.605
 1729SOL     OW54025   7.354  15.142   7.757
 1729SOL    HW154026   7.356  15.081   7.837
 1729SOL    HW254027   7.344  15.088   7.674
 1730SOL     OW54028  10.666   3.258   0.370
 1730SOL    HW154029  10.731   3.187   0.343
 1730SOL    HW254030  10.652   3.254   0.469
 1731SOL     OW54031   7.446   3.088   0.980
 1731SOL    HW154032   7.509   3.141   0.923
 1731SOL    HW254033   7.481   2.995   0.990
 1732SOL     OW54034  11.333   2.504   6.971
 1732SOL    HW154035  11.325   2.585   6.913
 1732SOL    HW254036  11.247   2.453   6.968
 1733SOL     OW54037   7.103  12.560   1.671
 1733SOL    HW154038   7.079  12.577   1.767
 1733SOL    HW254039   7.110  12.646   1.622
 1734SOL     OW54040   7.913   1.555   7.716
 1734SOL    HW154041   7.947   1.648   7.732
 1734SOL    HW254042   7.883   1.515   7.802
 1735SOL     OW54043   3.079  12.635   7.556
 1735SOL    HW154044   3.073  12.704   7.628
 1735SOL    HW254045   2.987  12.604   7.532
 1736SOL     OW54046   0.751   3.230   6.557
 1736SOL    HW154047   0.761   3.157   6.490
 1736SOL    HW254048   0.703   3.307   6.515
 1737SOL     OW54049  11.443  16.118   7.979
 1737SOL    HW154050  11.472  16.098   8.073
 1737SOL    HW254051  11.520  16.106   7.917
 1738SOL     OW54052  15.300   4.171   7.396
 1738SOL    HW154053  15.218   4.200   7.346
 1738SOL    HW254054  15.293   4.202   7.491
 1739SOL     OW54055   6.294   8.638   1.936
 1739SOL    HW154056   6.318   8.693   2.017
 1739SOL    HW254057   6.215   8.580   1.958
 1740SOL     OW54058   5.503  10.092   6.524
 1740SOL    HW154059   5.415  10.051   6.503
 1740SOL    HW254060   5.528  10.157   6.452
 1741SOL     OW54061   5.140   2.210   8.209
 1741SOL    HW154062   5.230   2.183   8.244
 1741SOL    HW254063   5.124   2.163   8.122
 1742SOL     OW54064  14.879  13.871   7.614
 1742SOL    HW154065  14.795  13.828   7.581
 1742SOL    HW254066  14.924  13.810   7.680
 1743SOL     OW54067   1.230   7.163   6.755
 1743SOL    HW154068   1.307   7.224   6.734
 1743SOL    HW254069   1.176   7.202   6.829
 1744SOL     OW54070  16.587  12.906   1.438
 1744SOL    HW154071  16.595  12.917   1.537
 1744SOL    HW254072  16.654  12.837   1.407
 1745SOL     OW54073  10.828   3.817   7.555
 1745SOL    HW154074  10.847   3.898   7.611
 1745SOL    HW254075  10.862   3.735   7.602
 1746SOL     OW54076   1.749  15.719   2.120
 1746SOL    HW154077   1.828  15.708   2.181
 1746SOL    HW254078   1.728  15.816   2.111
 1747SOL     OW54079  13.107  14.346   1.173
 1747SOL    HW154080  13.126  14.312   1.081
 1747SOL    HW254081  13.093  14.445   1.169
 1748SOL     OW54082  16.744   6.544   8.292
 1748SOL    HW154083  16.664   6.593   8.257
 1748SOL    HW254084  16.721   6.448   8.307
 1749SOL     OW54085  10.301   1.586   8.283
 1749SOL    HW154086  10.310   1.683   8.305
 1749SOL    HW254087  10.387   1.552   8.243
 1750SOL     OW54088  11.457   0.746   7.725
 1750SOL    HW154089  11.481   0.815   7.657
 1750SOL    HW254090  11.532   0.681   7.734
 1751SOL     OW54091  15.917   6.896   6.973
 1751SOL    HW154092  15.930   6.916   7.070
 1751SOL    HW254093  15.827   6.855   6.959
 1752SOL     OW54094   4.916  11.564   8.110
 1752SOL    HW154095   4.854  11.642   8.116
 1752SOL    HW254096   4.893  11.508   8.030
 1753SOL     OW54097  12.093   5.859   1.250
 1753SOL    HW154098  12.029   5.842   1.175
 1753SOL    HW254099  12.122   5.955   1.247
 1754SOL     OW54100   8.159   0.823   0.822
 1754SOL    HW154101   8.116   0.913   0.832
 1754SOL    HW254102   8.102   0.754   0.868
 1755SOL     OW54103  14.858   6.616   7.180
 1755SOL    HW154104  14.907   6.575   7.103
 1755SOL    HW254105  14.791   6.551   7.215
 1756SOL     OW54106  12.235  11.168   6.550
 1756SOL    HW154107  12.292  11.106   6.497
 1756SOL    HW254108  12.255  11.263   6.524
 1757SOL     OW54109  14.578   9.613   2.365
 1757SOL    HW154110  14.512   9.687   2.357
 1757SOL    HW254111  14.601   9.599   2.461
 1758SOL     OW54112  13.070   9.173   7.179
 1758SOL    HW154113  13.057   9.193   7.276
 1758SOL    HW254114  13.161   9.204   7.152
 1759SOL     OW54115  12.216   6.926   7.849
 1759SOL    HW154116  12.305   6.968   7.831
 1759SOL    HW254117  12.220   6.829   7.826
 1760SOL     OW54118  13.365  11.632   1.858
 1760SOL    HW154119  13.430  11.595   1.792
 1760SOL    HW254120  13.410  11.644   1.946
 1761SOL     OW54121  14.830   9.082   2.032
 1761SOL    HW154122  14.838   9.031   2.118
 1761SOL    HW254123  14.917   9.126   2.011
 1762SOL     OW54124  10.632   2.961   0.094
 1762SOL    HW154125  10.598   2.921   0.179
 1762SOL    HW254126  10.720   2.919   0.070
 1763SOL     OW54127   9.538  10.791   7.155
 1763SOL    HW154128   9.454  10.743   7.129
 1763SOL    HW254129   9.568  10.849   7.079
 1764SOL     OW54130   4.623   2.157   0.221
 1764SOL    HW154131   4.718   2.189   0.216
 1764SOL    HW254132   4.621   2.064   0.257
 1765SOL     OW54133   8.990  13.658   1.138
 1765SOL    HW154134   9.024  13.744   1.177
 1765SOL    HW254135   8.899  13.673   1.099
 1766SOL     OW54136   4.216   6.495   1.061
 1766SOL    HW154137   4.270   6.557   1.118
 1766SOL    HW254138   4.274   6.421   1.028
 1767SOL     OW54139  14.317  14.223   8.368
 1767SOL    HW154140  14.374  14.269   8.435
 1767SOL    HW254141  14.374  14.164   8.310
 1768SOL     OW54142  10.741  14.865   2.330
 1768SOL    HW154143  10.759  14.894   2.424
 1768SOL    HW254144  10.689  14.936   2.282
 1769SOL     OW54145   3.897   8.995   1.108
 1769SOL    HW154146   3.853   8.941   1.180
 1769SOL    HW254147   3.861   8.968   1.019
 1770SOL     OW54148  15.858  12.778   8.335
 1770SOL    HW154149  15.831  12.682   8.330
 1770SOL    HW254150  15.794  12.829   8.392
 1771SOL     OW54151   9.987  16.715   0.379
 1771SOL    HW154152  10.009  16.802   0.423
 1771SOL    HW254153  10.071  16.671   0.347
 1772SOL     OW54154   8.066  15.078   0.955
 1772SOL    HW154155   8.051  15.093   1.053
 1772SOL    HW254156   8.128  15.148   0.919
 1773SOL     OW54157   7.267  11.119   0.950
 1773SOL    HW154158   7.177  11.075   0.953
 1773SOL    HW254159   7.322  11.087   1.027
 1774SOL     OW54160  16.345   9.911   6.375
 1774SOL    HW154161  16.378   9.828   6.329
 1774SOL    HW254162  16.254   9.895   6.412
 1775SOL     OW54163   5.962  11.934   6.437
 1775SOL    HW154164   5.950  11.868   6.363
 1775SOL    HW254165   5.950  11.888   6.525
 1776SOL     OW54166   9.758  15.845   1.724
 1776SOL    HW154167   9.788  15.752   1.744
 1776SOL    HW254168   9.707  15.881   1.802
 1777SOL     OW54169   7.661   9.451   7.540
 1777SOL    HW154170   7.628   9.420   7.629
 1777SOL    HW254171   7.726   9.525   7.553
 1778SOL     OW54172  15.678   9.993   1.873
 1778SOL    HW154173  15.761   9.951   1.834
 1778SOL    HW254174  15.700  10.085   1.905
 1779SOL     OW54175  11.056   4.279   8.222
 1779SOL    HW154176  11.073   4.182   8.207
 1779SOL    HW254177  11.083   4.305   8.314
 1780SOL     OW54178  13.929   8.116   6.169
 1780SOL    HW154179  13.999   8.059   6.125
 1780SOL    HW254180  13.839   8.091   6.133
 1781SOL     OW54181  15.019  14.761   0.049
 1781SOL    HW154182  15.018  14.842   0.108
 1781SOL    HW254183  15.091  14.699   0.079
 1782SOL     OW54184   1.571  10.590   1.333
 1782SOL    HW154185   1.610  10.498   1.330
 1782SOL    HW254186   1.521  10.602   1.419
 1783SOL     OW54187  10.233   1.704   7.173
 1783SOL    HW154188  10.305   1.642   7.204
 1783SOL    HW254189  10.268   1.797   7.171
 1784SOL     OW54190   3.008  11.528   7.666
 1784SOL    HW154191   3.056  11.497   7.585
 1784SOL    HW254192   3.057  11.606   7.706
 1785SOL     OW54193   0.255   1.082   8.375
 1785SOL    HW154194   0.346   1.043   8.386
 1785SOL    HW254195   0.219   1.056   8.285
 1786SOL     OW54196   7.671   0.876   7.271
 1786SOL    HW154197   7.632   0.852   7.182
 1786SOL    HW254198   7.763   0.838   7.278
 1787SOL     OW54199  16.902   2.637   1.088
 1787SOL    HW154200   0.007   2.600   1.058
 1787SOL    HW254201  16.865   2.579   1.161
 1788SOL     OW54202   3.586   9.165   7.367
 1788SOL    HW154203   3.665   9.104   7.375
 1788SOL    HW254204   3.600   9.227   7.290
 1789SOL     OW54205  10.105  15.428   0.626
 1789SOL    HW154206  10.037  15.355   0.616
 1789SOL    HW254207  10.161  15.411   0.707
 1790SOL     OW54208  13.647   0.783   6.285
 1790SOL    HW154209  13.583   0.841   6.235
 1790SOL    HW254210  13.597   0.715   6.337
 1791SOL     OW54211   6.999  13.292   0.201
 1791SOL    HW154212   6.937  13.216   0.181
 1791SOL    HW254213   6.948  13.378   0.199
 1792SOL     OW54214   1.832   8.034   0.301
 1792SOL    HW154215   1.801   7.974   0.375
 1792SOL    HW254216   1.821   8.129   0.329
 1793SOL     OW54217  10.728  15.390   1.606
 1793SOL    HW154218  10.801  15.330   1.574
 1793SOL    HW254219  10.708  15.370   1.702
 1794SOL     OW54220   4.767   9.328   6.470
 1794SOL    HW154221   4.825   9.393   6.422
 1794SOL    HW254222   4.684   9.311   6.417
 1795SOL     OW54223   1.371   5.386   8.360
 1795SOL    HW154224   1.408   5.469   8.317
 1795SOL    HW254225   1.285   5.361   8.316
 1796SOL     OW54226  13.390  10.692   2.024
 1796SOL    HW154227  13.346  10.781   2.036
 1796SOL    HW254228  13.336  10.621   2.070
 1797SOL     OW54229  11.280   7.050   1.145
 1797SOL    HW154230  11.333   6.968   1.122
 1797SOL    HW254231  11.218   7.030   1.221
 1798SOL     OW54232   7.469   8.353   1.098
 1798SOL    HW154233   7.486   8.322   1.005
 1798SOL    HW254234   7.517   8.294   1.163
 1799SOL     OW54235  11.036  11.281   0.852
 1799SOL    HW154236  11.058  11.352   0.920
 1799SOL    HW254237  10.938  11.261   0.856
 1800SOL     OW54238   1.129   0.379   1.551
 1800SOL    HW154239   1.204   0.437   1.582
 1800SOL    HW254240   1.132   0.291   1.600
 1801SOL     OW54241  14.757   4.640   6.641
 1801SOL    HW154242  14.845   4.680   6.613
 1801SOL    HW254243  14.712   4.601   6.560
 1802SOL     OW54244   4.028   0.257   1.223
 1802SOL    HW154245   4.039   0.159   1.205
 1802SOL    HW254246   4.056   0.277   1.317
 1803SOL     OW54247   0.623  14.252   6.699
 1803SOL    HW154248   0.652  14.199   6.619
 1803SOL    HW254249   0.676  14.337   6.704
 1804SOL     OW54250  16.295  12.974   0.668
 1804SOL    HW154251  16.341  13.056   0.632
 1804SOL    HW254252  16.363  12.907   0.696
 1805SOL     OW54253   7.661  10.047   0.036
 1805SOL    HW154254   7.624  10.051   8.397
 1805SOL    HW254255   7.705   9.959   0.051
 1806SOL     OW54256   2.027   1.266   8.295
 1806SOL    HW154257   1.982   1.179   8.315
 1806SOL    HW254258   1.994   1.301   8.207
 1807SOL     OW54259   9.694   0.717   0.882
 1807SOL    HW154260   9.623   0.672   0.934
 1807SOL    HW254261   9.784   0.680   0.909
 1808SOL     OW54262  14.841  10.628   1.992
 1808SOL    HW154263  14.921  10.677   2.026
 1808SOL    HW254264  14.867  10.573   1.912
 1809SOL     OW54265  14.655   2.514   5.753
 1809SOL    HW154266  14.678   2.445   5.685
 1809SOL    HW254267  14.576   2.566   5.722
 1810SOL     OW54268   0.221   5.538   5.795
 1810SOL    HW154269   0.255   5.596   5.868
 1810SOL    HW254270   0.222   5.442   5.825
 1811SOL     OW54271   5.736   1.884   8.258
 1811SOL    HW154272   5.781   1.848   8.176
 1811SOL    HW254273   5.798   1.947   8.304
 1812SOL     OW54274   2.022  14.901   1.881
 1812SOL    HW154275   1.944  14.960   1.900
 1812SOL    HW254276   2.079  14.893   1.963
 1813SOL     OW54277  15.051  13.253   7.002
 1813SOL    HW154278  14.974  13.295   6.953
 1813SOL    HW254279  15.125  13.319   7.009
 1814SOL     OW54280   7.711   9.148   7.773
 1814SOL    HW154281   7.663   9.235   7.787
 1814SOL    HW254282   7.739   9.141   7.677
 1815SOL     OW54283  15.564   3.219   8.263
 1815SOL    HW154284  15.600   3.134   8.226
 1815SOL    HW254285  15.635   3.266   8.316
 1816SOL     OW54286  13.823  12.507   0.257
 1816SOL    HW154287  13.731  12.501   0.296
 1816SOL    HW254288  13.890  12.519   0.330
 1817SOL     OW54289   9.872   7.781   1.661
 1817SOL    HW154290   9.805   7.848   1.629
 1817SOL    HW254291   9.917   7.816   1.743
 1818SOL     OW54292  12.471  13.074   8.404
 1818SOL    HW154293  12.525  13.045   8.325
 1818SOL    HW254294  12.435  13.166   8.388
 1819SOL     OW54295   1.244  15.230   0.966
 1819SOL    HW154296   1.209  15.189   1.051
 1819SOL    HW254297   1.219  15.326   0.963
 1820SOL     OW54298   8.968   5.406   1.287
 1820SOL    HW154299   8.996   5.405   1.382
 1820SOL    HW254300   9.005   5.325   1.240
 1821SOL     OW54301  13.145  14.638   7.796
 1821SOL    HW154302  13.175  14.724   7.838
 1821SOL    HW254303  13.059  14.609   7.837
 1822SOL     OW54304  16.159  15.599   0.856
 1822SOL    HW154305  16.125  15.530   0.792
 1822SOL    HW254306  16.237  15.647   0.815
 1823SOL     OW54307  14.431   3.677   6.996
 1823SOL    HW154308  14.371   3.670   6.917
 1823SOL    HW254309  14.435   3.773   7.026
 1824SOL     OW54310   6.265   4.209   7.735
 1824SOL    HW154311   6.188   4.273   7.744
 1824SOL    HW254312   6.349   4.261   7.723
 1825SOL     OW54313  11.590  13.595   1.524
 1825SOL    HW154314  11.637  13.683   1.515
 1825SOL    HW254315  11.656  13.520   1.515
 1826SOL     OW54316  13.340  12.288   1.305
 1826SOL    HW154317  13.400  12.251   1.376
 1826SOL    HW254318  13.389  12.356   1.251
 1827SOL     OW54319   2.474   0.496   7.338
 1827SOL    HW154320   2.429   0.429   7.279
 1827SOL    HW254321   2.426   0.584   7.332
 1828SOL     OW54322   7.909   6.117   8.000
 1828SOL    HW154323   7.964   6.034   8.010
 1828SOL    HW254324   7.903   6.141   7.904
 1829SOL     OW54325   0.712   2.483   1.210
 1829SOL    HW154326   0.791   2.474   1.151
 1829SOL    HW254327   0.677   2.393   1.234
 1830SOL     OW54328  16.499   7.088   1.036
 1830SOL    HW154329  16.544   7.107   0.949
 1830SOL    HW254330  16.452   7.170   1.069
 1831SOL     OW54331   7.880   5.647   1.749
 1831SOL    HW154332   7.781   5.645   1.755
 1831SOL    HW254333   7.920   5.607   1.831
 1832SOL     OW54334   2.653  11.142   0.058
 1832SOL    HW154335   2.750  11.160   0.044
 1832SOL    HW254336   2.603  11.228   0.066
 1833SOL     OW54337   7.994   4.549   7.150
 1833SOL    HW154338   8.094   4.549   7.157
 1833SOL    HW254339   7.968   4.551   7.054
 1834SOL     OW54340   8.501  11.049   7.050
 1834SOL    HW154341   8.428  11.098   7.098
 1834SOL    HW254342   8.574  11.113   7.025
 1835SOL     OW54343   1.663  10.844   1.862
 1835SOL    HW154344   1.653  10.924   1.803
 1835SOL    HW254345   1.760  10.822   1.873
 1836SOL     OW54346   6.705  14.223   8.012
 1836SOL    HW154347   6.706  14.171   8.098
 1836SOL    HW254348   6.686  14.319   8.032
 1837SOL     OW54349   6.162  11.780   1.472
 1837SOL    HW154350   6.225  11.849   1.508
 1837SOL    HW254351   6.142  11.800   1.376
 1838SOL     OW54352  13.321   5.211   0.410
 1838SOL    HW154353  13.336   5.304   0.377
 1838SOL    HW254354  13.273   5.213   0.497
 1839SOL     OW54355  11.685   3.403   0.157
 1839SOL    HW154356  11.628   3.345   0.216
 1839SOL    HW254357  11.663   3.384   0.061
 1840SOL     OW54358   6.360   2.996   8.213
 1840SOL    HW154359   6.267   2.960   8.216
 1840SOL    HW254360   6.408   2.973   8.297
 1841SOL     OW54361   9.161   0.700   1.074
 1841SOL    HW154362   9.230   0.645   1.121
 1841SOL    HW254363   9.097   0.737   1.141
 1842SOL     OW54364  10.128   4.777   0.805
 1842SOL    HW154365  10.102   4.773   0.901
 1842SOL    HW254366  10.116   4.871   0.772
 1843SOL     OW54367   5.253  10.125   0.491
 1843SOL    HW154368   5.162  10.165   0.478
 1843SOL    HW254369   5.322  10.197   0.481
 1844SOL     OW54370   7.795   2.906   1.472
 1844SOL    HW154371   7.796   2.844   1.550
 1844SOL    HW254372   7.722   2.974   1.484
 1845SOL     OW54373   2.880   2.464   7.460
 1845SOL    HW154374   2.816   2.507   7.396
 1845SOL    HW254375   2.828   2.406   7.523
 1846SOL     OW54376  14.765   5.089   6.538
 1846SOL    HW154377  14.742   5.161   6.472
 1846SOL    HW254378  14.745   4.999   6.498
 1847SOL     OW54379  11.273   3.637   7.732
 1847SOL    HW154380  11.210   3.712   7.753
 1847SOL    HW254381  11.232   3.551   7.763
 1848SOL     OW54382   8.462   3.343   1.217
 1848SOL    HW154383   8.415   3.406   1.155
 1848SOL    HW254384   8.542   3.305   1.172
 1849SOL     OW54385  10.464  10.811   7.288
 1849SOL    HW154386  10.467  10.910   7.304
 1849SOL    HW254387  10.481  10.793   7.191
 1850SOL     OW54388   6.594   8.094   1.796
 1850SOL    HW154389   6.662   8.126   1.862
 1850SOL    HW254390   6.511   8.066   1.845
 1851SOL     OW54391   0.227  11.783   1.659
 1851SOL    HW154392   0.154  11.851   1.669
 1851SOL    HW254393   0.218  11.737   1.571
 1852SOL     OW54394   2.138   5.452   6.729
 1852SOL    HW154395   2.045   5.469   6.762
 1852SOL    HW254396   2.202   5.467   6.804
 1853SOL     OW54397   5.656  12.945   1.220
 1853SOL    HW154398   5.642  13.042   1.238
 1853SOL    HW254399   5.573  12.894   1.245
 1854SOL     OW54400   2.686  14.965   0.745
 1854SOL    HW154401   2.644  14.874   0.752
 1854SOL    HW254402   2.753  14.965   0.671
 1855SOL     OW54403   1.955   2.440   6.691
 1855SOL    HW154404   1.998   2.454   6.602
 1855SOL    HW254405   2.016   2.385   6.748
 1856SOL     OW54406  11.007  16.235   0.960
 1856SOL    HW154407  10.962  16.226   1.049
 1856SOL    HW254408  10.965  16.172   0.895
 1857SOL     OW54409   4.717  14.107   7.947
 1857SOL    HW154410   4.803  14.149   7.918
 1857SOL    HW254411   4.642  14.143   7.891
 1858SOL     OW54412  13.352  10.887   7.992
 1858SOL    HW154413  13.254  10.867   7.987
 1858SOL    HW254414  13.400  10.835   7.922
 1859SOL     OW54415   9.414  15.690   0.026
 1859SOL    HW154416   9.479  15.685   8.403
 1859SOL    HW254417   9.463  15.713   0.110
 1860SOL     OW54418   5.993   3.194   8.433
 1860SOL    HW154419   6.025   3.277   0.025
 1860SOL    HW254420   5.898   3.177   0.002
 1861SOL     OW54421  12.807   1.897   6.964
 1861SOL    HW154422  12.884   1.926   7.021
 1861SOL    HW254423  12.726   1.887   7.021
 1862SOL     OW54424  11.237   0.247   1.328
 1862SOL    HW154425  11.226   0.296   1.415
 1862SOL    HW254426  11.322   0.275   1.284
 1863SOL     OW54427   3.289   5.002   8.002
 1863SOL    HW154428   3.296   4.904   8.024
 1863SOL    HW254429   3.264   5.013   7.906
 1864SOL     OW54430   4.548   1.866   1.442
 1864SOL    HW154431   4.558   1.883   1.344
 1864SOL    HW254432   4.578   1.773   1.463
 1865SOL     OW54433  11.516  14.976   1.856
 1865SOL    HW154434  11.587  14.907   1.871
 1865SOL    HW254435  11.485  15.011   1.944
 1866SOL     OW54436   8.101  15.045   7.758
 1866SOL    HW154437   8.162  15.070   7.683
 1866SOL    HW254438   8.018  15.100   7.753
 1867SOL     OW54439  13.197  11.292   1.174
 1867SOL    HW154440  13.296  11.282   1.165
 1867SOL    HW254441  13.171  11.387   1.158
 1868SOL     OW54442  13.253   5.251   7.102
 1868SOL    HW154443  13.240   5.158   7.134
 1868SOL    HW254444  13.181   5.275   7.037
 1869SOL     OW54445   2.173   2.381   1.136
 1869SOL    HW154446   2.270   2.396   1.121
 1869SOL    HW254447   2.124   2.468   1.127
 1870SOL     OW54448   2.196  10.737   7.520
 1870SOL    HW154449   2.177  10.665   7.587
 1870SOL    HW254450   2.258  10.803   7.561
 1871SOL     OW54451   3.756   8.510   0.467
 1871SOL    HW154452   3.777   8.510   0.565
 1871SOL    HW254453   3.782   8.599   0.427
 1872SOL     OW54454  14.159   7.512   7.760
 1872SOL    HW154455  14.220   7.547   7.689
 1872SOL    HW254456  14.081   7.467   7.717
 1873SOL     OW54457   2.211   5.035   0.100
 1873SOL    HW154458   2.202   5.059   0.197
 1873SOL    HW254459   2.209   4.936   0.090
 1874SOL     OW54460   1.162  15.998   6.485
 1874SOL    HW154461   1.072  16.037   6.467
 1874SOL    HW254462   1.183  15.931   6.413
 1875SOL     OW54463  12.409  13.603   8.442
 1875SOL    HW154464  12.331  13.639   8.389
 1875SOL    HW254465  12.485  13.667   8.438
 1876SOL     OW54466  16.001   4.034   1.285
 1876SOL    HW154467  16.081   4.044   1.226
 1876SOL    HW254468  16.007   4.100   1.360
 1877SOL     OW54469  11.898   2.598   6.111
 1877SOL    HW154470  11.882   2.551   6.024
 1877SOL    HW254471  11.898   2.531   6.185
 1878SOL     OW54472   6.966   3.238   8.381
 1878SOL    HW154473   6.986   3.263   8.286
 1878SOL    HW254474   6.902   3.162   8.382
 1879SOL     OW54475   3.633  12.495   7.894
 1879SOL    HW154476   3.685  12.440   7.829
 1879SOL    HW254477   3.631  12.590   7.862
 1880SOL     OW54478  15.423  10.425   1.601
 1880SOL    HW154479  15.428  10.525   1.606
 1880SOL    HW254480  15.500  10.386   1.651
 1881SOL     OW54481   2.649   9.904   0.328
 1881SOL    HW154482   2.571   9.904   0.391
 1881SOL    HW254483   2.727   9.949   0.372
 1882SOL     OW54484   7.907   6.483   8.375
 1882SOL    HW154485   7.894   6.397   8.325
 1882SOL    HW254486   7.862   6.477   0.010
 1883SOL     OW54487  10.791   1.404   0.895
 1883SOL    HW154488  10.750   1.345   0.964
 1883SOL    HW254489  10.792   1.498   0.928
 1884SOL     OW54490  11.458   2.381   5.588
 1884SOL    HW154491  11.499   2.426   5.509
 1884SOL    HW254492  11.390   2.315   5.557
 1885SOL     OW54493   0.033  14.939   0.826
 1885SOL    HW154494   0.025  14.966   0.730
 1885SOL    HW254495   0.070  14.846   0.832
 1886SOL     OW54496  14.957  12.565   1.110
 1886SOL    HW154497  14.949  12.665   1.118
 1886SOL    HW254498  14.971  12.525   1.201
 1887SOL     OW54499   3.563  16.511   2.636
 1887SOL    HW154500   3.542  16.443   2.706
 1887SOL    HW254501   3.605  16.591   2.678
 1888SOL     OW54502   0.522  15.312   1.579
 1888SOL    HW154503   0.530  15.277   1.486
 1888SOL    HW254504   0.472  15.245   1.635
 1889SOL     OW54505  10.598  10.597   7.988
 1889SOL    HW154506  10.501  10.599   7.965
 1889SOL    HW254507  10.646  10.668   7.937
 1890SOL     OW54508  13.948   2.850   6.668
 1890SOL    HW154509  14.045   2.826   6.678
 1890SOL    HW254510  13.898   2.770   6.634
 1891SOL     OW54511  15.150  10.738   1.864
 1891SOL    HW154512  15.173  10.807   1.796
 1891SOL    HW254513  15.211  10.660   1.855
 1892SOL     OW54514   2.753  13.362   0.423
 1892SOL    HW154515   2.789  13.274   0.392
 1892SOL    HW254516   2.760  13.428   0.349
 1893SOL     OW54517   3.334  12.408   0.820
 1893SOL    HW154518   3.365  12.332   0.764
 1893SOL    HW254519   3.334  12.381   0.917
 1894SOL     OW54520   6.503   9.181   8.167
 1894SOL    HW154521   6.414   9.165   8.125
 1894SOL    HW254522   6.492   9.196   8.265
 1895SOL     OW54523  14.256   0.160   7.488
 1895SOL    HW154524  14.219   0.216   7.563
 1895SOL    HW254525  14.192   0.085   7.468
 1896SOL     OW54526  16.033  11.585   2.134
 1896SOL    HW154527  16.107  11.558   2.073
 1896SOL    HW254528  15.973  11.506   2.150
 1897SOL     OW54529   1.441   5.488   7.091
 1897SOL    HW154530   1.403   5.411   7.142
 1897SOL    HW254531   1.506   5.455   7.023
 1898SOL     OW54532  10.774  12.185   7.388
 1898SOL    HW154533  10.678  12.164   7.404
 1898SOL    HW254534  10.792  12.280   7.413
 1899SOL     OW54535  12.389   1.117   0.040
 1899SOL    HW154536  12.361   1.208   0.071
 1899SOL    HW254537  12.379   1.052   0.115
 1900SOL     OW54538  11.558   7.874   7.610
 1900SOL    HW154539  11.592   7.843   7.521
 1900SOL    HW254540  11.499   7.954   7.597
 1901SOL     OW54541  14.545   9.705   8.303
 1901SOL    HW154542  14.627   9.763   8.308
 1901SOL    HW254543  14.464   9.763   8.300
 1902SOL     OW54544   3.095   2.861   7.199
 1902SOL    HW154545   3.149   2.809   7.133
 1902SOL    HW254546   3.008   2.888   7.157
 1903SOL     OW54547   6.301   7.409   1.642
 1903SOL    HW154548   6.323   7.342   1.571
 1903SOL    HW254549   6.252   7.486   1.601
 1904SOL     OW54550   1.736  15.823   0.449
 1904SOL    HW154551   1.703  15.729   0.456
 1904SOL    HW254552   1.661  15.883   0.423
 1905SOL     OW54553   3.749  11.723   1.585
 1905SOL    HW154554   3.763  11.820   1.603
 1905SOL    HW254555   3.659  11.710   1.542
 1906SOL     OW54556   4.134   2.720   0.779
 1906SOL    HW154557   4.174   2.629   0.767
 1906SOL    HW254558   4.195   2.776   0.836
 1907SOL     OW54559   4.342   5.192   1.159
 1907SOL    HW154560   4.331   5.174   1.062
 1907SOL    HW254561   4.426   5.245   1.174
 1908SOL     OW54562   1.866   0.281   0.276
 1908SOL    HW154563   1.945   0.271   0.336
 1908SOL    HW254564   1.870   0.212   0.204
 1909SOL     OW54565   5.402   4.790   0.803
 1909SOL    HW154566   5.466   4.740   0.861
 1909SOL    HW254567   5.441   4.879   0.779
 1910SOL     OW54568  16.343   3.439   7.027
 1910SOL    HW154569  16.365   3.536   7.025
 1910SOL    HW254570  16.371   3.401   7.116
 1911SOL     OW54571   9.277   2.096   0.942
 1911SOL    HW154572   9.339   2.173   0.955
 1911SOL    HW254573   9.216   2.089   1.021
 1912SOL     OW54574  15.705  10.248   1.967
 1912SOL    HW154575  15.773  10.269   2.037
 1912SOL    HW254576  15.614  10.271   2.000
 1913SOL     OW54577  10.795  14.380   6.053
 1913SOL    HW154578  10.799  14.308   5.983
 1913SOL    HW254579  10.701  14.390   6.085
 1914SOL     OW54580   9.526  13.103   0.250
 1914SOL    HW154581   9.548  13.119   0.346
 1914SOL    HW254582   9.471  13.019   0.242
 1915SOL     OW54583   5.220   4.836   8.318
 1915SOL    HW154584   5.120   4.838   8.319
 1915SOL    HW254585   5.255   4.926   8.293
 1916SOL     OW54586   2.744   0.466   2.710
 1916SOL    HW154587   2.818   0.493   2.771
 1916SOL    HW254588   2.657   0.467   2.760
 1917SOL     OW54589  12.478   6.600   6.405
 1917SOL    HW154590  12.543   6.591   6.481
 1917SOL    HW254591  12.482   6.517   6.350
 1918SOL     OW54592  15.939  13.240   2.118
 1918SOL    HW154593  15.896  13.327   2.140
 1918SOL    HW254594  15.939  13.227   2.018
 1919SOL     OW54595  14.133   7.433   0.193
 1919SOL    HW154596  14.052   7.457   0.246
 1919SOL    HW254597  14.206   7.498   0.212
 1920SOL     OW54598   8.226   4.365   6.472
 1920SOL    HW154599   8.236   4.402   6.380
 1920SOL    HW254600   8.304   4.308   6.494
 1921SOL     OW54601   0.394   2.733   7.853
 1921SOL    HW154602   0.493   2.732   7.836
 1921SOL    HW254603   0.349   2.668   7.792
 1922SOL     OW54604   8.344  13.354   8.398
 1922SOL    HW154605   8.252  13.366   8.361
 1922SOL    HW254606   8.343  13.281   0.013
 1923SOL     OW54607  15.995   5.973   6.322
 1923SOL    HW154608  16.093   5.971   6.340
 1923SOL    HW254609  15.965   6.068   6.310
 1924SOL     OW54610  15.505   7.917   7.530
 1924SOL    HW154611  15.592   7.962   7.547
 1924SOL    HW254612  15.430   7.980   7.550
 1925SOL     OW54613   4.016   7.888   7.349
 1925SOL    HW154614   4.073   7.935   7.282
 1925SOL    HW254615   4.070   7.816   7.394
 1926SOL     OW54616   8.846   0.675   6.288
 1926SOL    HW154617   8.839   0.774   6.296
 1926SOL    HW254618   8.937   0.651   6.254
 1927SOL     OW54619   4.901   9.593   7.164
 1927SOL    HW154620   4.900   9.693   7.156
 1927SOL    HW254621   4.989   9.558   7.134
 1928SOL     OW54622   3.411  16.056   1.261
 1928SOL    HW154623   3.322  16.029   1.296
 1928SOL    HW254624   3.426  16.154   1.279
 1929SOL     OW54625   8.801   0.005   6.193
 1929SOL    HW154626   8.703   0.009   6.173
 1929SOL    HW254627   8.852  16.979   6.108
 1930SOL     OW54628   0.147   6.101   6.752
 1930SOL    HW154629   0.085   6.165   6.796
 1930SOL    HW254630   0.186   6.143   6.670
 1931SOL     OW54631  13.002   9.901   1.153
 1931SOL    HW154632  12.970   9.941   1.067
 1931SOL    HW254633  12.925   9.859   1.201
 1932SOL     OW54634   9.336   5.603   0.080
 1932SOL    HW154635   9.394   5.614   8.454
 1932SOL    HW254636   9.239   5.606   0.053
 1933SOL     OW54637  10.513   5.573   7.743
 1933SOL    HW154638  10.580   5.511   7.700
 1933SOL    HW254639  10.523   5.664   7.703
 1934SOL     OW54640  14.698  16.585   0.144
 1934SOL    HW154641  14.796  16.570   0.160
 1934SOL    HW254642  14.645  16.537   0.214
 1935SOL     OW54643   6.201   7.621   0.144
 1935SOL    HW154644   6.265   7.551   0.177
 1935SOL    HW254645   6.178   7.603   0.049
 1936SOL     OW54646  12.573  13.844   8.427
 1936SOL    HW154647  12.531  13.866   8.339
 1936SOL    HW254648  12.668  13.874   8.427
 1937SOL     OW54649  16.815  10.667   7.232
 1937SOL    HW154650  16.812  10.666   7.332
 1937SOL    HW254651  16.747  10.603   7.196
 1938SOL     OW54652  15.516   7.729   1.985
 1938SOL    HW154653  15.588   7.785   2.026
 1938SOL    HW254654  15.428   7.777   1.993
 1939SOL     OW54655  13.826   8.890   6.326
 1939SOL    HW154656  13.885   8.847   6.258
 1939SOL    HW254657  13.880   8.915   6.406
 1940SOL     OW54658   0.373  11.259   0.732
 1940SOL    HW154659   0.349  11.355   0.740
 1940SOL    HW254660   0.446  11.237   0.797
 1941SOL     OW54661  11.589   4.383   0.990
 1941SOL    HW154662  11.634   4.386   0.900
 1941SOL    HW254663  11.490   4.388   0.977
 1942SOL     OW54664  11.338  10.339   6.479
 1942SOL    HW154665  11.435  10.360   6.473
 1942SOL    HW254666  11.299  10.330   6.388
 1943SOL     OW54667   4.847  15.082   0.235
 1943SOL    HW154668   4.792  15.013   0.187
 1943SOL    HW254669   4.926  15.107   0.178
 1944SOL     OW54670  12.034   7.721   7.404
 1944SOL    HW154671  12.089   7.787   7.455
 1944SOL    HW254672  11.993   7.656   7.468
 1945SOL     OW54673  10.602  14.467   1.322
 1945SOL    HW154674  10.674  14.488   1.388
 1945SOL    HW254675  10.523  14.527   1.339
 1946SOL     OW54676  12.475  12.690   2.274
 1946SOL    HW154677  12.382  12.661   2.254
 1946SOL    HW254678  12.524  12.617   2.321
 1947SOL     OW54679  13.213   6.679   6.993
 1947SOL    HW154680  13.280   6.696   7.064
 1947SOL    HW254681  13.258   6.643   6.912
 1948SOL     OW54682   3.842  11.164   7.755
 1948SOL    HW154683   3.775  11.105   7.711
 1948SOL    HW254684   3.804  11.199   7.841
 1949SOL     OW54685  11.859  15.679   8.128
 1949SOL    HW154686  11.769  15.638   8.109
 1949SOL    HW254687  11.921  15.608   8.163
 1950SOL     OW54688  10.923   5.693   6.686
 1950SOL    HW154689  10.845   5.736   6.641
 1950SOL    HW254690  10.948   5.747   6.767
 1951SOL     OW54691  12.705  13.830   1.943
 1951SOL    HW154692  12.617  13.846   1.898
 1951SOL    HW254693  12.740  13.916   1.979
 1952SOL     OW54694   6.390  12.543   2.203
 1952SOL    HW154695   6.472  12.486   2.204
 1952SOL    HW254696   6.321  12.504   2.264
 1953SOL     OW54697   8.814   3.468   0.991
 1953SOL    HW154698   8.766   3.469   0.903
 1953SOL    HW254699   8.781   3.542   1.048
 1954SOL     OW54700  13.582   3.768   0.088
 1954SOL    HW154701  13.497   3.775   0.141
 1954SOL    HW254702  13.655   3.734   0.147
 1955SOL     OW54703   4.984   4.961   2.118
 1955SOL    HW154704   5.017   4.877   2.163
 1955SOL    HW254705   4.908   4.939   2.058
 1956SOL     OW54706   5.327  15.967   7.444
 1956SOL    HW154707   5.278  16.004   7.523
 1956SOL    HW254708   5.425  15.985   7.454
 1957SOL     OW54709  12.192  12.061   1.549
 1957SOL    HW154710  12.202  12.032   1.453
 1957SOL    HW254711  12.252  12.005   1.606
 1958SOL     OW54712  11.096   9.018   0.701
 1958SOL    HW154713  11.148   9.103   0.709
 1958SOL    HW254714  11.158   8.940   0.708
 1959SOL     OW54715  15.435  10.293   8.310
 1959SOL    HW154716  15.389  10.343   8.384
 1959SOL    HW254717  15.394  10.319   8.223
 1960SOL     OW54718  13.481   4.929   2.178
 1960SOL    HW154719  13.385   4.938   2.205
 1960SOL    HW254720  13.526   4.862   2.238
 1961SOL     OW54721   6.940   6.215   1.907
 1961SOL    HW154722   6.990   6.297   1.934
 1961SOL    HW254723   6.987   6.134   1.943
 1962SOL     OW54724   6.180  12.398   6.506
 1962SOL    HW154725   6.247  12.447   6.563
 1962SOL    HW254726   6.103  12.458   6.485
 1963SOL     OW54727  12.622   7.888   7.415
 1963SOL    HW154728  12.565   7.835   7.353
 1963SOL    HW254729  12.650   7.973   7.372
 1964SOL     OW54730  14.557  13.027   6.715
 1964SOL    HW154731  14.536  12.931   6.732
 1964SOL    HW254732  14.473  13.081   6.720
 1965SOL     OW54733   3.963   2.807   7.520
 1965SOL    HW154734   4.049   2.850   7.549
 1965SOL    HW254735   3.980   2.757   7.435
 1966SOL     OW54736  16.390  16.509   1.943
 1966SOL    HW154737  16.291  16.514   1.931
 1966SOL    HW254738  16.412  16.522   2.040
 1967SOL     OW54739   6.855   3.196   0.604
 1967SOL    HW154740   6.771   3.161   0.563
 1967SOL    HW254741   6.882   3.138   0.680
 1968SOL     OW54742   3.399  12.140   1.451
 1968SOL    HW154743   3.336  12.210   1.417
 1968SOL    HW254744   3.365  12.103   1.537
 1969SOL     OW54745  16.539  14.263   1.311
 1969SOL    HW154746  16.559  14.227   1.402
 1969SOL    HW254747  16.441  14.283   1.303
 1970SOL     OW54748  16.611   1.546   6.828
 1970SOL    HW154749  16.648   1.558   6.919
 1970SOL    HW254750  16.678   1.499   6.770
 1971SOL     OW54751   3.711   9.311   0.306
 1971SOL    HW154752   3.649   9.353   0.240
 1971SOL    HW254753   3.751   9.228   0.266
 1972SOL     OW54754   7.808  13.563   0.198
 1972SOL    HW154755   7.835  13.618   0.277
 1972SOL    HW254756   7.731  13.606   0.151
 1973SOL     OW54757   3.426   1.323   1.362
 1973SOL    HW154758   3.463   1.405   1.407
 1973SOL    HW254759   3.448   1.242   1.417
 1974SOL     OW54760   4.406  14.288   6.665
 1974SOL    HW154761   4.354  14.257   6.745
 1974SOL    HW254762   4.398  14.220   6.592
 1975SOL     OW54763   1.653   9.960   0.249
 1975SOL    HW154764   1.592  10.009   0.186
 1975SOL    HW254765   1.746   9.960   0.212
 1976SOL     OW54766   5.105   0.614   0.611
 1976SOL    HW154767   5.047   0.548   0.564
 1976SOL    HW254768   5.142   0.679   0.545
 1977SOL     OW54769  10.331   8.651   0.473
 1977SOL    HW154770  10.293   8.707   0.546
 1977SOL    HW254771  10.268   8.575   0.454
 1978SOL     OW54772   5.762   5.138   6.615
 1978SOL    HW154773   5.826   5.129   6.539
 1978SOL    HW254774   5.701   5.059   6.618
 1979SOL     OW54775   4.371   1.804   7.771
 1979SOL    HW154776   4.460   1.765   7.793
 1979SOL    HW254777   4.382   1.897   7.737
 1980SOL     OW54778   0.319  10.613   1.336
 1980SOL    HW154779   0.252  10.653   1.274
 1980SOL    HW254780   0.290  10.628   1.431
 1981SOL     OW54781  10.501   8.413   6.498
 1981SOL    HW154782  10.535   8.490   6.551
 1981SOL    HW254783  10.577   8.353   6.473
 1982SOL     OW54784  11.913   2.790   0.433
 1982SOL    HW154785  11.853   2.788   0.513
 1982SOL    HW254786  11.934   2.696   0.405
 1983SOL     OW54787  12.881   9.548   6.377
 1983SOL    HW154788  12.891   9.456   6.339
 1983SOL    HW254789  12.938   9.612   6.326
 1984SOL     OW54790   5.895  15.848   7.177
 1984SOL    HW154791   5.869  15.944   7.162
 1984SOL    HW254792   5.911  15.803   7.089
 1985SOL     OW54793  13.429  12.226   6.355
 1985SOL    HW154794  13.428  12.173   6.439
 1985SOL    HW254795  13.409  12.322   6.375
 1986SOL     OW54796   2.115  14.147   0.167
 1986SOL    HW154797   2.179  14.087   0.119
 1986SOL    HW254798   2.119  14.238   0.127
 1987SOL     OW54799  12.311   8.386   8.121
 1987SOL    HW154800  12.259   8.429   8.047
 1987SOL    HW254801  12.358   8.457   8.174
 1988SOL     OW54802  16.720  15.360   7.901
 1988SOL    HW154803  16.670  15.274   7.915
 1988SOL    HW254804  16.717  15.385   7.805
 1989SOL     OW54805   7.779   0.838   1.266
 1989SOL    HW154806   7.712   0.781   1.315
 1989SOL    HW254807   7.868   0.794   1.268
 1990SOL     OW54808  15.971   1.297   1.564
 1990SOL    HW154809  15.955   1.246   1.648
 1990SOL    HW254810  15.931   1.388   1.572
 1991SOL     OW54811   2.100  11.294   6.839
 1991SOL    HW154812   2.200  11.303   6.837
 1991SOL    HW254813   2.061  11.337   6.758
 1992SOL     OW54814   4.412   4.459   7.573
 1992SOL    HW154815   4.457   4.372   7.551
 1992SOL    HW254816   4.446   4.531   7.512
 1993SOL     OW54817   9.783  15.066   7.641
 1993SOL    HW154818   9.842  15.032   7.567
 1993SOL    HW254819   9.761  15.162   7.625
 1994SOL     OW54820  16.592   1.992   7.851
 1994SOL    HW154821  16.609   1.940   7.934
 1994SOL    HW254822  16.554   2.082   7.875
 1995SOL     OW54823   4.068  10.632   6.686
 1995SOL    HW154824   4.126  10.703   6.725
 1995SOL    HW254825   4.026  10.666   6.602
 1996SOL     OW54826   5.499   0.385   7.964
 1996SOL    HW154827   5.434   0.389   7.888
 1996SOL    HW254828   5.519   0.290   7.987
 1997SOL     OW54829   6.296  10.782   6.668
 1997SOL    HW154830   6.324  10.812   6.577
 1997SOL    HW254831   6.278  10.683   6.666
 1998SOL     OW54832  13.425  16.058   1.932
 1998SOL    HW154833  13.520  16.084   1.951
 1998SOL    HW254834  13.402  16.079   1.837
 1999SOL     OW54835   7.184   7.160   8.338
 1999SOL    HW154836   7.168   7.086   8.272
 1999SOL    HW254837   7.278   7.156   8.370
 2000SOL     OW54838   8.674  14.914   2.165
 2000SOL    HW154839   8.764  14.893   2.203
 2000SOL    HW254840   8.609  14.929   2.240
 2001SOL     OW54841  14.319   0.547   1.167
 2001SOL    HW154842  14.376   0.550   1.249
 2001SOL    HW254843  14.226   0.578   1.190
 2002SOL     OW54844  14.373   5.661   6.072
 2002SOL    HW154845  14.426   5.576   6.075
 2002SOL    HW254846  14.355   5.686   5.977
 2003SOL     OW54847  11.368  11.862   7.947
 2003SOL    HW154848  11.458  11.891   7.980
 2003SOL    HW254849  11.364  11.763   7.943
 2004SOL     OW54850   2.008  12.576   6.685
 2004SOL    HW154851   2.034  12.531   6.770
 2004SOL    HW254852   1.962  12.509   6.625
 2005SOL     OW54853   4.453  11.870   6.844
 2005SOL    HW154854   4.353  11.865   6.851
 2005SOL    HW254855   4.484  11.807   6.774
 2006SOL     OW54856   1.080  14.228   8.222
 2006SOL    HW154857   1.150  14.159   8.202
 2006SOL    HW254858   1.117  14.296   8.285
 2007SOL     OW54859   4.190   0.212   2.118
 2007SOL    HW154860   4.093   0.217   2.098
 2007SOL    HW254861   4.212   0.272   2.195
 2008SOL     OW54862   9.530   1.651   0.252
 2008SOL    HW154863   9.598   1.600   0.199
 2008SOL    HW254864   9.574   1.689   0.334
 2009SOL     OW54865   2.843   8.339   8.056
 2009SOL    HW154866   2.875   8.369   8.147
 2009SOL    HW254867   2.864   8.409   7.989
 2010SOL     OW54868  10.984   5.265   0.020
 2010SOL    HW154869  10.979   5.272   8.374
 2010SOL    HW254870  10.968   5.171   0.048
 2011SOL     OW54871  13.268   2.206   5.854
 2011SOL    HW154872  13.263   2.153   5.939
 2011SOL    HW254873  13.242   2.148   5.777
 2012SOL     OW54874   4.261   8.482   2.245
 2012SOL    HW154875   4.163   8.468   2.237
 2012SOL    HW254876   4.285   8.500   2.341
 2013SOL     OW54877   8.935  13.246   7.481
 2013SOL    HW154878   8.846  13.200   7.487
 2013SOL    HW254879   8.932  13.331   7.533
 2014SOL     OW54880  11.024   9.736   0.288
 2014SOL    HW154881  11.015   9.716   0.190
 2014SOL    HW254882  11.046   9.833   0.300
 2015SOL     OW54883   0.021   7.618   0.052
 2015SOL    HW154884   0.112   7.585   0.026
 2015SOL    HW254885  16.946   7.540   0.076
 2016SOL     OW54886   7.363   5.957   1.125
 2016SOL    HW154887   7.404   5.937   1.036
 2016SOL    HW254888   7.265   5.973   1.113
 2017SOL     OW54889   7.974   3.203   0.573
 2017SOL    HW154890   8.008   3.109   0.580
 2017SOL    HW254891   8.045   3.266   0.605
 2018SOL     OW54892   2.653   0.647   0.023
 2018SOL    HW154893   2.580   0.716   0.028
 2018SOL    HW254894   2.613   0.557   0.007
 2019SOL     OW54895  12.190   5.090   6.953
 2019SOL    HW154896  12.236   5.174   6.980
 2019SOL    HW254897  12.197   5.023   7.027
 2020SOL     OW54898  11.060  16.944   1.076
 2020SOL    HW154899  11.111  16.858   1.075
 2020SOL    HW254900  10.972  16.932   1.030
 2021SOL     OW54901  10.709  14.036   1.480
 2021SOL    HW154902  10.731  14.104   1.550
 2021SOL    HW254903  10.770  14.048   1.401
 2022SOL     OW54904  10.033  12.008   7.824
 2022SOL    HW154905  10.068  11.981   7.913
 2022SOL    HW254906  10.049  12.106   7.810
 2023SOL     OW54907   7.983   3.485   1.317
 2023SOL    HW154908   8.026   3.410   1.368
 2023SOL    HW254909   7.885   3.485   1.334
 2024SOL     OW54910   2.783   2.497   0.593
 2024SOL    HW154911   2.839   2.414   0.593
 2024SOL    HW254912   2.727   2.499   0.676
 2025SOL     OW54913   0.521   1.928   0.237
 2025SOL    HW154914   0.560   2.020   0.234
 2025SOL    HW254915   0.438   1.929   0.293
 2026SOL     OW54916   4.971   2.995   1.668
 2026SOL    HW154917   4.897   2.931   1.651
 2026SOL    HW254918   4.937   3.072   1.721
 2027SOL     OW54919  10.882   6.631   1.058
 2027SOL    HW154920  10.966   6.608   1.107
 2027SOL    HW254921  10.817   6.555   1.066
 2028SOL     OW54922  12.639  11.991   8.233
 2028SOL    HW154923  12.714  11.965   8.294
 2028SOL    HW254924  12.554  11.995   8.286
 2029SOL     OW54925  11.494  15.530   6.196
 2029SOL    HW154926  11.536  15.563   6.281
 2029SOL    HW254927  11.515  15.593   6.121
 2030SOL     OW54928  10.804   9.415   0.682
 2030SOL    HW154929  10.718   9.465   0.688
 2030SOL    HW254930  10.815   9.377   0.590
 2031SOL     OW54931   4.561   7.188   6.881
 2031SOL    HW154932   4.463   7.196   6.864
 2031SOL    HW254933   4.607   7.269   6.844
 2032SOL     OW54934   9.197   9.533   1.522
 2032SOL    HW154935   9.219   9.590   1.601
 2032SOL    HW254936   9.113   9.481   1.540
 2033SOL     OW54937   0.479  11.273   0.482
 2033SOL    HW154938   0.430  11.261   0.568
 2033SOL    HW254939   0.575  11.291   0.500
 2034SOL     OW54940   8.031   3.196   8.424
 2034SOL    HW154941   7.990   3.125   0.027
 2034SOL    HW254942   7.976   3.209   8.341
 2035SOL     OW54943   9.416  14.685   7.073
 2035SOL    HW154944   9.498  14.690   7.016
 2035SOL    HW254945   9.424  14.608   7.136
 2036SOL     OW54946   7.740   1.495   1.266
 2036SOL    HW154947   7.826   1.532   1.231
 2036SOL    HW254948   7.680   1.570   1.293
 2037SOL     OW54949  10.857   6.979   2.183
 2037SOL    HW154950  10.778   6.935   2.141
 2037SOL    HW254951  10.929   6.912   2.198
 2038SOL     OW54952  14.118   1.545   0.839
 2038SOL    HW154953  14.106   1.621   0.775
 2038SOL    HW254954  14.151   1.580   0.927
 2039SOL     OW54955  10.004  14.578   0.422
 2039SOL    HW154956   9.995  14.664   0.473
 2039SOL    HW254957   9.960  14.504   0.473
 2040SOL     OW54958   0.467   5.242   7.871
 2040SOL    HW154959   0.527   5.297   7.929
 2040SOL    HW254960   0.521   5.196   7.800
 2041SOL     OW54961   3.210  15.003   2.325
 2041SOL    HW154962   3.255  15.050   2.401
 2041SOL    HW254963   3.220  14.904   2.337
 2042SOL     OW54964   5.655   0.900   7.271
 2042SOL    HW154965   5.574   0.955   7.291
 2042SOL    HW254966   5.732   0.935   7.324
 2043SOL     OW54967   1.690   8.457   7.438
 2043SOL    HW154968   1.782   8.497   7.449
 2043SOL    HW254969   1.697   8.370   7.390
 2044SOL     OW54970   8.985   7.357   7.444
 2044SOL    HW154971   8.976   7.284   7.512
 2044SOL    HW254972   8.951   7.324   7.356
 2045SOL     OW54973   0.941   3.674   0.860
 2045SOL    HW154974   0.918   3.641   0.768
 2045SOL    HW254975   0.902   3.765   0.873
 2046SOL     OW54976   8.294   1.009   6.074
 2046SOL    HW154977   8.215   0.960   6.112
 2046SOL    HW254978   8.293   1.002   5.975
 2047SOL     OW54979  10.063  15.226   7.422
 2047SOL    HW154980  10.044  15.133   7.452
 2047SOL    HW254981  10.019  15.243   7.335
 2048SOL     OW54982   2.098   1.543   7.325
 2048SOL    HW154983   2.168   1.590   7.379
 2048SOL    HW254984   2.119   1.445   7.320
 2049SOL     OW54985   6.808  13.336   1.055
 2049SOL    HW154986   6.816  13.421   1.107
 2049SOL    HW254987   6.895  13.315   1.011
 2050SOL     OW54988  15.294  10.805   0.937
 2050SOL    HW154989  15.218  10.838   0.993
 2050SOL    HW254990  15.296  10.855   0.851
 2051SOL     OW54991   5.625  11.505   0.360
 2051SOL    HW154992   5.530  11.525   0.336
 2051SOL    HW254993   5.637  11.515   0.459
 2052SOL     OW54994   4.102   3.945   6.695
 2052SOL    HW154995   4.173   3.880   6.722
 2052SOL    HW254996   4.016   3.920   6.737
 2053SOL     OW54997   7.888   3.702   7.464
 2053SOL    HW154998   7.952   3.767   7.424
 2053SOL    HW254999   7.807   3.751   7.497
 2054SOL     OW55000  12.543   4.531   7.011
 2054SOL    HW155001  12.605   4.479   7.069
 2054SOL    HW255002  12.527   4.482   6.925
 2055SOL     OW55003  14.721   9.355   0.453
 2055SOL    HW155004  14.794   9.411   0.415
 2055SOL    HW255005  14.649   9.342   0.385
 2056SOL     OW55006   3.632   8.012   7.546
 2056SOL    HW155007   3.586   7.964   7.621
 2056SOL    HW255008   3.575   8.090   7.518
 2057SOL     OW55009  11.720   1.649   2.054
 2057SOL    HW155010  11.798   1.672   1.996
 2057SOL    HW255011  11.744   1.574   2.114
 2058SOL     OW55012   5.279   3.385   7.967
 2058SOL    HW155013   5.310   3.331   7.889
 2058SOL    HW255014   5.358   3.422   8.016
 2059SOL     OW55015   3.190  16.863   2.469
 2059SOL    HW155016   3.289  16.880   2.461
 2059SOL    HW255017   3.167  16.778   2.421
 2060SOL     OW55018  11.310   5.645   0.469
 2060SOL    HW155019  11.335   5.688   0.556
 2060SOL    HW255020  11.234   5.582   0.484
 2061SOL     OW55021  11.826   5.448   0.811
 2061SOL    HW155022  11.828   5.483   0.904
 2061SOL    HW255023  11.877   5.361   0.807
 2062SOL     OW55024   8.782  11.621   7.669
 2062SOL    HW155025   8.765  11.716   7.643
 2062SOL    HW255026   8.800  11.566   7.587
 2063SOL     OW55027  10.539  13.398   0.418
 2063SOL    HW155028  10.622  13.428   0.370
 2063SOL    HW255029  10.494  13.327   0.365
 2064SOL     OW55030  12.700   4.564   8.212
 2064SOL    HW155031  12.766   4.622   8.163
 2064SOL    HW255032  12.678   4.606   8.300
 2065SOL     OW55033  12.998   7.368   7.331
 2065SOL    HW155034  12.935   7.445   7.324
 2065SOL    HW255035  12.960   7.300   7.394
 2066SOL     OW55036   4.138   9.466   0.209
 2066SOL    HW155037   4.207   9.539   0.200
 2066SOL    HW255038   4.052   9.505   0.241
 2067SOL     OW55039   0.892   0.887   8.181
 2067SOL    HW155040   0.963   0.928   8.239
 2067SOL    HW255041   0.873   0.948   8.104
 2068SOL     OW55042   5.784   3.763   7.732
 2068SOL    HW155043   5.839   3.839   7.698
 2068SOL    HW255044   5.762   3.701   7.657
 2069SOL     OW55045  14.794   2.068   8.049
 2069SOL    HW155046  14.849   2.147   8.026
 2069SOL    HW255047  14.772   2.069   8.147
 2070SOL     OW55048   7.888   9.931   0.856
 2070SOL    HW155049   7.864   9.835   0.870
 2070SOL    HW255050   7.933   9.942   0.768
 2071SOL     OW55051   6.042   8.850   0.742
 2071SOL    HW155052   6.054   8.909   0.661
 2071SOL    HW255053   5.975   8.779   0.721
 2072SOL     OW55054   0.762  13.683   6.509
 2072SOL    HW155055   0.822  13.605   6.523
 2072SOL    HW255056   0.816  13.763   6.485
 2073SOL     OW55057  14.276  16.814   7.951
 2073SOL    HW155058  14.283  16.735   8.012
 2073SOL    HW255059  14.367  16.842   7.921
 2074SOL     OW55060   7.435  14.255   0.642
 2074SOL    HW155061   7.457  14.348   0.672
 2074SOL    HW255062   7.363  14.217   0.701
 2075SOL     OW55063  11.211   5.828   1.112
 2075SOL    HW155064  11.227   5.870   1.023
 2075SOL    HW255065  11.290   5.845   1.172
 2076SOL     OW55066   4.234  14.221   1.598
 2076SOL    HW155067   4.184  14.240   1.683
 2076SOL    HW255068   4.217  14.294   1.532
 2077SOL     OW55069  12.534   8.813   1.591
 2077SOL    HW155070  12.488   8.878   1.651
 2077SOL    HW255071  12.490   8.724   1.597
 2078SOL     OW55072   3.782   4.041   7.271
 2078SOL    HW155073   3.808   4.041   7.174
 2078SOL    HW255074   3.865   4.035   7.327
 2079SOL     OW55075  11.556   8.626   6.361
 2079SOL    HW155076  11.474   8.635   6.305
 2079SOL    HW255077  11.601   8.539   6.340
 2080SOL     OW55078   6.340   2.396   7.725
 2080SOL    HW155079   6.436   2.401   7.754
 2080SOL    HW255080   6.287   2.345   7.793
 2081SOL     OW55081  11.461   2.854   8.258
 2081SOL    HW155082  11.437   2.869   8.354
 2081SOL    HW255083  11.546   2.903   8.238
 2082SOL     OW55084  12.667  14.952   7.404
 2082SOL    HW155085  12.696  14.899   7.484
 2082SOL    HW255086  12.625  14.891   7.337
 2083SOL     OW55087  12.727   7.338   1.074
 2083SOL    HW155088  12.788   7.356   0.997
 2083SOL    HW255089  12.727   7.239   1.093
 2084SOL     OW55090   7.959   8.109   1.467
 2084SOL    HW155091   8.038   8.122   1.408
 2084SOL    HW255092   7.901   8.191   1.463
 2085SOL     OW55093   9.693   7.269   0.092
 2085SOL    HW155094   9.651   7.336   0.031
 2085SOL    HW255095   9.757   7.315   0.154
 2086SOL     OW55096   8.452  10.714   1.686
 2086SOL    HW155097   8.409  10.632   1.647
 2086SOL    HW255098   8.453  10.787   1.618
 2087SOL     OW55099   0.333   8.719   0.893
 2087SOL    HW155100   0.328   8.781   0.972
 2087SOL    HW255101   0.266   8.645   0.904
 2088SOL     OW55102  13.302   3.991   0.802
 2088SOL    HW155103  13.248   3.985   0.886
 2088SOL    HW255104  13.372   3.919   0.802
 2089SOL     OW55105   0.036  11.961   2.370
 2089SOL    HW155106  16.975  11.993   2.454
 2089SOL    HW255107   0.122  11.916   2.393
 2090SOL     OW55108   8.259  15.357   7.743
 2090SOL    HW155109   8.315  15.430   7.705
 2090SOL    HW255110   8.267  15.357   7.843
 2091SOL     OW55111  10.104   0.626   7.293
 2091SOL    HW155112  10.069   0.710   7.251
 2091SOL    HW255113  10.158   0.574   7.227
 2092SOL     OW55114   7.832  16.081   0.231
 2092SOL    HW155115   7.738  16.106   0.209
 2092SOL    HW255116   7.836  15.983   0.252
 2093SOL     OW55117   2.163   3.295   7.949
 2093SOL    HW155118   2.119   3.250   8.027
 2093SOL    HW255119   2.251   3.250   7.931
 2094SOL     OW55120   5.627   2.073   7.713
 2094SOL    HW155121   5.625   1.977   7.686
 2094SOL    HW255122   5.669   2.082   7.803
 2095SOL     OW55123  14.166   4.301   7.210
 2095SOL    HW155124  14.114   4.222   7.177
 2095SOL    HW255125  14.236   4.325   7.142
 2096SOL     OW55126   9.743   3.157   5.929
 2096SOL    HW155127   9.841   3.165   5.911
 2096SOL    HW255128   9.691   3.181   5.847
 2097SOL     OW55129   9.866   1.330   0.595
 2097SOL    HW155130   9.872   1.233   0.618
 2097SOL    HW255131   9.809   1.377   0.663
 2098SOL     OW55132   0.491   7.132   6.605
 2098SOL    HW155133   0.550   7.206   6.635
 2098SOL    HW255134   0.402   7.169   6.577
 2099SOL     OW55135   3.417   5.789   6.878
 2099SOL    HW155136   3.392   5.845   6.957
 2099SOL    HW255137   3.510   5.813   6.849
 2100SOL     OW55138  12.454   9.886   7.365
 2100SOL    HW155139  12.398   9.944   7.425
 2100SOL    HW255140  12.527   9.941   7.324
 2101SOL     OW55141  11.025  12.649   7.129
 2101SOL    HW155142  10.968  12.683   7.054
 2101SOL    HW255143  11.121  12.652   7.102
 2102SOL     OW55144   4.168  12.444   7.581
 2102SOL    HW155145   4.148  12.532   7.624
 2102SOL    HW255146   4.181  12.374   7.652
 2103SOL     OW55147  13.218   4.189   6.348
 2103SOL    HW155148  13.264   4.238   6.275
 2103SOL    HW255149  13.202   4.251   6.425
 2104SOL     OW55150   3.284   3.138   6.959
 2104SOL    HW155151   3.316   3.185   6.877
 2104SOL    HW255152   3.359   3.131   7.025
 2105SOL     OW55153  15.003   7.328   0.793
 2105SOL    HW155154  14.992   7.358   0.887
 2105SOL    HW255155  14.955   7.241   0.779
 2106SOL     OW55156   9.265   6.845   0.360
 2106SOL    HW155157   9.298   6.751   0.349
 2106SOL    HW255158   9.180   6.856   0.308
 2107SOL     OW55159   5.453   2.388   6.864
 2107SOL    HW155160   5.376   2.349   6.915
 2107SOL    HW255161   5.452   2.353   6.770
 2108SOL     OW55162  12.701  13.575   8.273
 2108SOL    HW155163  12.798  13.578   8.253
 2108SOL    HW255164  12.673  13.480   8.290
 2109SOL     OW55165   9.539   3.767   7.559
 2109SOL    HW155166   9.564   3.760   7.462
 2109SOL    HW255167   9.608   3.721   7.615
 2110SOL     OW55168   5.602  15.986   7.453
 2110SOL    HW155169   5.659  16.066   7.434
 2110SOL    HW255170   5.654  15.920   7.507
 2111SOL     OW55171   6.212   2.538   7.530
 2111SOL    HW155172   6.251   2.481   7.602
 2111SOL    HW255173   6.209   2.486   7.444
 2112SOL     OW55174   8.104   9.618   0.992
 2112SOL    HW155175   8.119   9.559   1.071
 2112SOL    HW255176   8.130   9.569   0.909
 2113SOL     OW55177  15.198  15.019   0.427
 2113SOL    HW155178  15.251  14.948   0.472
 2113SOL    HW255179  15.258  15.074   0.369
 2114SOL     OW55180   6.040   2.967   6.943
 2114SOL    HW155181   5.963   2.985   7.003
 2114SOL    HW255182   6.007   2.930   6.856
 2115SOL     OW55183  16.839   2.841   7.986
 2115SOL    HW155184  16.816   2.930   8.026
 2115SOL    HW255185  16.757   2.785   7.982
 2116SOL     OW55186  10.683   0.204   6.456
 2116SOL    HW155187  10.651   0.209   6.551
 2116SOL    HW255188  10.669   0.111   6.421
 2117SOL     OW55189   0.718   4.360   6.176
 2117SOL    HW155190   0.720   4.261   6.162
 2117SOL    HW255191   0.722   4.406   6.088
 2118SOL     OW55192   7.740   2.101   1.143
 2118SOL    HW155193   7.748   2.124   1.240
 2118SOL    HW255194   7.819   2.137   1.094
 2119SOL     OW55195  13.866   9.147   1.590
 2119SOL    HW155196  13.964   9.157   1.608
 2119SOL    HW255197  13.820   9.234   1.605
 2120SOL     OW55198  16.355   0.467   1.561
 2120SOL    HW155199  16.369   0.566   1.552
 2120SOL    HW255200  16.443   0.420   1.559
 2121SOL     OW55201   5.136   3.310   8.204
 2121SOL    HW155202   5.174   3.366   8.278
 2121SOL    HW255203   5.179   3.336   8.117
 2122SOL     OW55204   1.324   2.212   8.070
 2122SOL    HW155205   1.301   2.273   7.996
 2122SOL    HW255206   1.418   2.178   8.058
 2123SOL     OW55207   2.711   6.603   0.175
 2123SOL    HW155208   2.664   6.549   0.245
 2123SOL    HW255209   2.713   6.699   0.203
 2124SOL     OW55210   3.125   5.052   8.239
 2124SOL    HW155211   3.120   5.150   8.253
 2124SOL    HW255212   3.167   5.033   8.150
 2125SOL     OW55213   4.136  13.674   6.431
 2125SOL    HW155214   4.077  13.638   6.359
 2125SOL    HW255215   4.228  13.634   6.421
 2126SOL     OW55216   9.438  14.313   1.814
 2126SOL    HW155217   9.349  14.269   1.801
 2126SOL    HW255218   9.446  14.346   1.908
 2127SOL     OW55219   2.255  13.833   1.424
 2127SOL    HW155220   2.184  13.762   1.424
 2127SOL    HW255221   2.345  13.790   1.412
 2128SOL     OW55222   3.459  16.834   2.415
 2128SOL    HW155223   3.451  16.735   2.424
 2128SOL    HW255224   3.535  16.856   2.354
 2129SOL     OW55225   5.597   8.877   2.009
 2129SOL    HW155226   5.577   8.858   2.105
 2129SOL    HW255227   5.625   8.972   1.999
 2130SOL     OW55228  16.461   5.019   0.316
 2130SOL    HW155229  16.536   5.009   0.381
 2130SOL    HW255230  16.496   5.012   0.222
 2131SOL     OW55231   9.911   2.524   0.922
 2131SOL    HW155232   9.911   2.619   0.890
 2131SOL    HW255233   9.856   2.468   0.859
 2132SOL     OW55234   8.966   3.486   0.104
 2132SOL    HW155235   8.884   3.431   0.123
 2132SOL    HW255236   9.026   3.484   0.184
 2133SOL     OW55237   4.119  14.111   0.912
 2133SOL    HW155238   4.105  14.038   0.979
 2133SOL    HW255239   4.034  14.125   0.860
 2134SOL     OW55240  13.619  15.219   7.379
 2134SOL    HW155241  13.526  15.216   7.415
 2134SOL    HW255242  13.626  15.161   7.298
 2135SOL     OW55243   0.072   1.760   0.593
 2135SOL    HW155244   0.074   1.853   0.556
 2135SOL    HW255245   0.166   1.727   0.605
 2136SOL     OW55246   1.343   4.166   6.201
 2136SOL    HW155247   1.383   4.078   6.225
 2136SOL    HW255248   1.374   4.193   6.109
 2137SOL     OW55249  16.785   0.046   1.494
 2137SOL    HW155250  16.806   0.069   1.398
 2137SOL    HW255251  16.686   0.045   1.507
 2138SOL     OW55252  12.598  11.742   0.518
 2138SOL    HW155253  12.594  11.839   0.495
 2138SOL    HW255254  12.540  11.723   0.596
 2139SOL     OW55255  14.369  15.977   2.056
 2139SOL    HW155256  14.409  16.053   2.106
 2139SOL    HW255257  14.358  15.899   2.118
 2140SOL     OW55258   1.558  14.144   0.072
 2140SOL    HW155259   1.568  14.227   0.018
 2140SOL    HW255260   1.594  14.066   0.020
 2141SOL     OW55261   8.783   1.373   0.804
 2141SOL    HW155262   8.786   1.281   0.844
 2141SOL    HW255263   8.706   1.423   0.842
 2142SOL     OW55264   2.079  15.457   2.078
 2142SOL    HW155265   2.159  15.504   2.041
 2142SOL    HW255266   2.000  15.519   2.076
 2143SOL     OW55267   1.253  11.939   7.372
 2143SOL    HW155268   1.256  11.840   7.358
 2143SOL    HW255269   1.285  11.986   7.290
 2144SOL     OW55270   0.316   5.676   0.355
 2144SOL    HW155271   0.287   5.688   0.450
 2144SOL    HW255272   0.235   5.664   0.297
 2145SOL     OW55273   8.873  12.116   2.271
 2145SOL    HW155274   8.937  12.181   2.314
 2145SOL    HW255275   8.785  12.120   2.319
 2146SOL     OW55276  10.560   7.554   0.729
 2146SOL    HW155277  10.481   7.497   0.748
 2146SOL    HW255278  10.635   7.497   0.694
 2147SOL     OW55279  10.279  16.732   7.609
 2147SOL    HW155280  10.306  16.710   7.703
 2147SOL    HW255281  10.188  16.773   7.610
 2148SOL     OW55282  12.237   0.562   0.975
 2148SOL    HW155283  12.160   0.524   0.924
 2148SOL    HW255284  12.216   0.655   1.004
 2149SOL     OW55285  15.603   3.402   7.873
 2149SOL    HW155286  15.698   3.373   7.879
 2149SOL    HW255287  15.576   3.412   7.777
 2150SOL     OW55288  14.846  11.408   7.349
 2150SOL    HW155289  14.906  11.337   7.312
 2150SOL    HW255290  14.822  11.386   7.444
 2151SOL     OW55291  12.063   0.668   0.419
 2151SOL    HW155292  11.985   0.716   0.460
 2151SOL    HW255293  12.124   0.635   0.491
 2152SOL     OW55294   8.080   0.994   7.510
 2152SOL    HW155295   8.048   1.007   7.416
 2152SOL    HW255296   8.005   1.009   7.573
 2153SOL     OW55297   3.147   0.704   7.352
 2153SOL    HW155298   3.184   0.784   7.400
 2153SOL    HW255299   3.187   0.699   7.261
 2154SOL     OW55300  15.986   5.591   8.202
 2154SOL    HW155301  16.053   5.637   8.260
 2154SOL    HW255302  15.900   5.644   8.203
 2155SOL     OW55303   3.235   9.708   8.075
 2155SOL    HW155304   3.193   9.656   8.001
 2155SOL    HW255305   3.307   9.766   8.038
 2156SOL     OW55306   3.511   4.609   1.772
 2156SOL    HW155307   3.605   4.633   1.797
 2156SOL    HW255308   3.500   4.510   1.780
 2157SOL     OW55309  10.417  15.539   5.936
 2157SOL    HW155310  10.462  15.619   5.898
 2157SOL    HW255311  10.339  15.514   5.877
 2158SOL     OW55312   1.550   6.969   0.745
 2158SOL    HW155313   1.550   6.898   0.675
 2158SOL    HW255314   1.570   7.058   0.702
 2159SOL     OW55315   9.052   1.786   1.667
 2159SOL    HW155316   9.130   1.843   1.690
 2159SOL    HW255317   8.990   1.780   1.746
 2160SOL     OW55318   5.520   9.939   6.218
 2160SOL    HW155319   5.490   9.850   6.252
 2160SOL    HW255320   5.606   9.929   6.168
 2161SOL     OW55321   5.211   3.373   1.162
 2161SOL    HW155322   5.239   3.468   1.171
 2161SOL    HW255323   5.285   3.320   1.122
 2162SOL     OW55324  12.786   2.727   1.116
 2162SOL    HW155325  12.823   2.758   1.029
 2162SOL    HW255326  12.747   2.805   1.165
 2163SOL     OW55327   8.395  13.623   6.596
 2163SOL    HW155328   8.396  13.719   6.624
 2163SOL    HW255329   8.327  13.610   6.524
 2164SOL     OW55330  12.184   6.606   1.369
 2164SOL    HW155331  12.235   6.688   1.344
 2164SOL    HW255332  12.212   6.577   1.461
 2165SOL     OW55333   8.873   5.137   8.290
 2165SOL    HW155334   8.956   5.111   8.240
 2165SOL    HW255335   8.796   5.144   8.226
 2166SOL     OW55336  14.716   9.879   1.353
 2166SOL    HW155337  14.754   9.960   1.309
 2166SOL    HW255338  14.624   9.899   1.387
 2167SOL     OW55339  12.568   5.849   0.965
 2167SOL    HW155340  12.591   5.752   0.973
 2167SOL    HW255341  12.556   5.888   1.056
 2168SOL     OW55342  15.965  12.341   1.613
 2168SOL    HW155343  15.975  12.242   1.602
 2168SOL    HW255344  15.869  12.364   1.625
 2169SOL     OW55345  16.117   9.779   1.865
 2169SOL    HW155346  16.022   9.782   1.835
 2169SOL    HW255347  16.135   9.691   1.909
 2170SOL     OW55348  13.843  11.643   6.643
 2170SOL    HW155349  13.863  11.594   6.558
 2170SOL    HW255350  13.745  11.662   6.649
 2171SOL     OW55351   8.499  10.429   7.441
 2171SOL    HW155352   8.474  10.466   7.352
 2171SOL    HW255353   8.597  10.442   7.456
 2172SOL     OW55354   5.562   1.524   1.503
 2172SOL    HW155355   5.536   1.471   1.584
 2172SOL    HW255356   5.479   1.554   1.455
 2173SOL     OW55357  16.024   3.630   1.245
 2173SOL    HW155358  16.064   3.698   1.306
 2173SOL    HW255359  16.092   3.560   1.225
 2174SOL     OW55360   5.898  10.993   8.169
 2174SOL    HW155361   5.958  10.972   8.091
 2174SOL    HW255362   5.950  10.990   8.254
 2175SOL     OW55363   5.772   3.121   0.237
 2175SOL    HW155364   5.732   3.097   0.149
 2175SOL    HW255365   5.733   3.208   0.268
 2176SOL     OW55366   8.515   7.029   7.063
 2176SOL    HW155367   8.491   6.970   6.985
 2176SOL    HW255368   8.610   7.012   7.089
 2177SOL     OW55369   8.080   1.398   6.926
 2177SOL    HW155370   7.981   1.401   6.914
 2177SOL    HW255371   8.109   1.466   6.993
 2178SOL     OW55372  13.783  15.122   0.273
 2178SOL    HW155373  13.721  15.138   0.350
 2178SOL    HW255374  13.794  15.206   0.221
 2179SOL     OW55375  12.211   3.913   0.937
 2179SOL    HW155376  12.152   3.960   0.871
 2179SOL    HW255377  12.194   3.815   0.932
 2180SOL     OW55378  11.428   5.485   7.836
 2180SOL    HW155379  11.403   5.423   7.761
 2180SOL    HW255380  11.521   5.467   7.865
 2181SOL     OW55381   4.141  13.952   6.374
 2181SOL    HW155382   4.047  13.981   6.358
 2181SOL    HW255383   4.144  13.853   6.386
 2182SOL     OW55384  15.252  13.157   0.813
 2182SOL    HW155385  15.262  13.064   0.777
 2182SOL    HW255386  15.325  13.176   0.879
 2183SOL     OW55387  12.504  13.351   6.805
 2183SOL    HW155388  12.603  13.358   6.793
 2183SOL    HW255389  12.458  13.392   6.727
 2184SOL     OW55390   5.220   0.192   7.357
 2184SOL    HW155391   5.159   0.270   7.341
 2184SOL    HW255392   5.287   0.216   7.428
 2185SOL     OW55393  14.104   1.865   7.997
 2185SOL    HW155394  14.121   1.798   8.069
 2185SOL    HW255395  14.159   1.947   8.015
 2186SOL     OW55396  14.137   1.546   1.518
 2186SOL    HW155397  14.177   1.457   1.542
 2186SOL    HW255398  14.132   1.603   1.600
 2187SOL     OW55399   1.180   5.186   1.325
 2187SOL    HW155400   1.136   5.109   1.372
 2187SOL    HW255401   1.181   5.169   1.227
 2188SOL     OW55402   4.379   5.391   1.482
 2188SOL    HW155403   4.396   5.399   1.580
 2188SOL    HW255404   4.288   5.353   1.467
 2189SOL     OW55405   4.483   9.905   0.319
 2189SOL    HW155406   4.418   9.938   0.388
 2189SOL    HW255407   4.451   9.932   0.228
 2190SOL     OW55408  16.136   1.996   0.583
 2190SOL    HW155409  16.151   2.090   0.613
 2190SOL    HW255410  16.152   1.989   0.485
 2191SOL     OW55411   1.720   7.253   6.646
 2191SOL    HW155412   1.806   7.299   6.626
 2191SOL    HW255413   1.707   7.176   6.584
 2192SOL     OW55414   7.962   9.793   7.021
 2192SOL    HW155415   7.951   9.721   6.952
 2192SOL    HW255416   7.919   9.764   7.106
 2193SOL     OW55417   5.677  14.498   0.931
 2193SOL    HW155418   5.734  14.506   0.849
 2193SOL    HW255419   5.610  14.572   0.932
 2194SOL     OW55420  14.240   2.918   5.652
 2194SOL    HW155421  14.188   2.872   5.581
 2194SOL    HW255422  14.254   3.014   5.626
 2195SOL     OW55423  15.306   0.864   7.481
 2195SOL    HW155424  15.266   0.872   7.390
 2195SOL    HW255425  15.334   0.955   7.513
 2196SOL     OW55426   3.833   2.699   0.836
 2196SOL    HW155427   3.813   2.721   0.741
 2196SOL    HW255428   3.915   2.642   0.840
 2197SOL     OW55429   5.633   0.361   7.419
 2197SOL    HW155430   5.669   0.286   7.364
 2197SOL    HW255431   5.645   0.448   7.370
 2198SOL     OW55432  13.994   2.245   6.199
 2198SOL    HW155433  14.037   2.273   6.113
 2198SOL    HW255434  14.006   2.146   6.211
 2199SOL     OW55435   6.392  11.351   1.326
 2199SOL    HW155436   6.293  11.347   1.312
 2199SOL    HW255437   6.438  11.361   1.238
 2200SOL     OW55438  14.166   4.848   7.571
 2200SOL    HW155439  14.256   4.892   7.564
 2200SOL    HW255440  14.094   4.916   7.559
 2201SOL     OW55441   5.947   5.164   0.359
 2201SOL    HW155442   5.891   5.080   0.356
 2201SOL    HW255443   6.042   5.140   0.379
 2202SOL     OW55444   5.675   2.352   2.163
 2202SOL    HW155445   5.769   2.354   2.127
 2202SOL    HW255446   5.657   2.436   2.213
 2203SOL     OW55447   8.641   5.977   8.429
 2203SOL    HW155448   8.556   5.972   8.376
 2203SOL    HW255449   8.664   5.885   0.008
 2204SOL     OW55450  15.993   0.005   0.664
 2204SOL    HW155451  15.898  16.966   0.686
 2204SOL    HW255452  16.053  16.914   0.695
 2205SOL     OW55453  14.671   9.901   7.576
 2205SOL    HW155454  14.621   9.835   7.519
 2205SOL    HW255455  14.685   9.985   7.524
 2206SOL     OW55456   1.461   3.722   1.721
 2206SOL    HW155457   1.370   3.763   1.726
 2206SOL    HW255458   1.481   3.676   1.808
 2207SOL     OW55459  16.727   6.403   0.602
 2207SOL    HW155460  16.707   6.490   0.647
 2207SOL    HW255461  16.782   6.420   0.520
 2208SOL     OW55462  14.399   5.428   1.101
 2208SOL    HW155463  14.443   5.429   1.011
 2208SOL    HW255464  14.359   5.518   1.119
 2209SOL     OW55465   8.277   6.799   7.038
 2209SOL    HW155466   8.285   6.711   7.085
 2209SOL    HW255467   8.345   6.804   6.965
 2210SOL     OW55468   5.523   3.854   6.572
 2210SOL    HW155469   5.534   3.944   6.530
 2210SOL    HW255470   5.465   3.797   6.514
 2211SOL     OW55471  10.816   1.369   7.216
 2211SOL    HW155472  10.750   1.400   7.147
 2211SOL    HW255473  10.903   1.348   7.172
 2212SOL     OW55474  12.508  14.705   0.448
 2212SOL    HW155475  12.512  14.725   0.350
 2212SOL    HW255476  12.457  14.777   0.495
 2213SOL     OW55477  14.929  12.415   0.661
 2213SOL    HW155478  14.844  12.368   0.683
 2213SOL    HW255479  14.981  12.431   0.745
 2214SOL     OW55480   2.977  13.784   2.145
 2214SOL    HW155481   2.980  13.861   2.081
 2214SOL    HW255482   2.938  13.704   2.099
 2215SOL     OW55483   0.025   4.671   5.958
 2215SOL    HW155484   0.124   4.684   5.947
 2215SOL    HW255485  16.964   4.760   5.963
 2216SOL     OW55486  12.346  10.124   6.885
 2216SOL    HW155487  12.260  10.119   6.934
 2216SOL    HW255488  12.410  10.057   6.922
 2217SOL     OW55489   0.279   8.887   7.506
 2217SOL    HW155490   0.193   8.875   7.556
 2217SOL    HW255491   0.279   8.829   7.425
 2218SOL     OW55492   2.755  16.294   2.336
 2218SOL    HW155493   2.768  16.318   2.432
 2218SOL    HW255494   2.690  16.218   2.329
 2219SOL     OW55495  13.938   6.959   0.951
 2219SOL    HW155496  13.839   6.950   0.946
 2219SOL    HW255497  13.980   6.896   0.885
 2220SOL     OW55498   6.023   1.979   0.528
 2220SOL    HW155499   5.939   1.999   0.579
 2220SOL    HW255500   6.003   1.973   0.430
 2221SOL     OW55501   2.882   4.859   7.308
 2221SOL    HW155502   2.963   4.844   7.364
 2221SOL    HW255503   2.807   4.890   7.365
 2222SOL     OW55504  10.883  12.861   0.015
 2222SOL    HW155505  10.870  12.824   0.107
 2222SOL    HW255506  10.978  12.845   8.440
 2223SOL     OW55507  15.009  15.046   2.249
 2223SOL    HW155508  14.948  15.122   2.272
 2223SOL    HW255509  15.016  14.984   2.327
 2224SOL     OW55510  13.179  16.010   7.800
 2224SOL    HW155511  13.151  16.060   7.882
 2224SOL    HW255512  13.274  15.981   7.810
 2225SOL     OW55513  15.494   4.978   0.953
 2225SOL    HW155514  15.439   5.059   0.973
 2225SOL    HW255515  15.502   4.966   0.854
 2226SOL     OW55516   8.137   7.843   7.344
 2226SOL    HW155517   8.076   7.765   7.334
 2226SOL    HW255518   8.180   7.841   7.434
 2227SOL     OW55519   2.109   3.292   0.219
 2227SOL    HW155520   2.103   3.257   0.125
 2227SOL    HW255521   2.193   3.259   0.261
 2228SOL     OW55522  11.451  14.325   7.358
 2228SOL    HW155523  11.445  14.278   7.270
 2228SOL    HW255524  11.360  14.345   7.392
 2229SOL     OW55525  15.747   7.641   7.562
 2229SOL    HW155526  15.648   7.640   7.572
 2229SOL    HW255527  15.790   7.625   7.651
 2230SOL     OW55528  13.957  14.012   1.449
 2230SOL    HW155529  14.008  13.987   1.367
 2230SOL    HW255530  13.915  13.930   1.488
 2231SOL     OW55531   7.320  15.454   0.641
 2231SOL    HW155532   7.316  15.534   0.701
 2231SOL    HW255533   7.349  15.483   0.550
 2232SOL     OW55534   7.770  12.863   0.196
 2232SOL    HW155535   7.858  12.865   0.148
 2232SOL    HW255536   7.785  12.840   0.292
 2233SOL     OW55537   9.655  14.976   6.483
 2233SOL    HW155538   9.636  14.927   6.398
 2233SOL    HW255539   9.752  15.000   6.486
 2234SOL     OW55540  15.185  11.693   7.459
 2234SOL    HW155541  15.193  11.689   7.559
 2234SOL    HW255542  15.230  11.775   7.424
 2235SOL     OW55543  16.190   2.642   1.141
 2235SOL    HW155544  16.267   2.690   1.100
 2235SOL    HW255545  16.167   2.684   1.228
 2236SOL     OW55546  10.664   5.875   8.159
 2236SOL    HW155547  10.686   5.930   8.239
 2236SOL    HW255548  10.589   5.917   8.108
 2237SOL     OW55549  11.450  14.525   1.007
 2237SOL    HW155550  11.549  14.537   1.016
 2237SOL    HW255551  11.404  14.614   1.009
 2238SOL     OW55552   0.262  12.740   0.175
 2238SOL    HW155553   0.338  12.679   0.153
 2238SOL    HW255554   0.297  12.829   0.203
 2239SOL     OW55555  11.120   9.652   1.342
 2239SOL    HW155556  11.174   9.690   1.267
 2239SOL    HW255557  11.086   9.727   1.400
 2240SOL     OW55558   2.348   8.949   6.928
 2240SOL    HW155559   2.267   8.891   6.920
 2240SOL    HW255560   2.396   8.952   6.840
 2241SOL     OW55561   5.882  16.534   0.986
 2241SOL    HW155562   5.797  16.514   0.938
 2241SOL    HW255563   5.930  16.609   0.940
 2242SOL     OW55564   1.448  15.575   1.337
 2242SOL    HW155565   1.483  15.484   1.317
 2242SOL    HW255566   1.524  15.640   1.345
 2243SOL     OW55567   5.842   0.082   0.315
 2243SOL    HW155568   5.750   0.122   0.314
 2243SOL    HW255569   5.884   0.092   0.225
 2244SOL     OW55570   9.254   7.245   0.934
 2244SOL    HW155571   9.222   7.322   0.877
 2244SOL    HW255572   9.185   7.224   1.003
 2245SOL     OW55573   8.612  11.074   1.944
 2245SOL    HW155574   8.595  10.977   1.925
 2245SOL    HW255575   8.708  11.087   1.969
 2246SOL     OW55576   4.788   1.837   7.980
 2246SOL    HW155577   4.727   1.782   7.924
 2246SOL    HW255578   4.878   1.793   7.986
 2247SOL     OW55579  16.094  14.079   7.064
 2247SOL    HW155580  16.043  14.000   7.097
 2247SOL    HW255581  16.116  14.139   7.141
 2248SOL     OW55582   4.471   8.679   0.791
 2248SOL    HW155583   4.559   8.689   0.744
 2248SOL    HW255584   4.482   8.621   0.872
 2249SOL     OW55585   6.674  10.404   7.615
 2249SOL    HW155586   6.745  10.375   7.550
 2249SOL    HW255587   6.717  10.443   7.696
 2250SOL     OW55588   0.633   3.296   0.766
 2250SOL    HW155589   0.707   3.275   0.703
 2250SOL    HW255590   0.628   3.225   0.837
 2251SOL     OW55591   7.651   4.030   8.375
 2251SOL    HW155592   7.557   4.040   8.342
 2251SOL    HW255593   7.711   4.091   8.323
 2252SOL     OW55594  14.979  15.041   0.845
 2252SOL    HW155595  14.931  15.119   0.886
 2252SOL    HW255596  14.980  15.051   0.746
 2253SOL     OW55597   1.638  12.826   1.402
 2253SOL    HW155598   1.610  12.922   1.395
 2253SOL    HW255599   1.560  12.770   1.429
 2254SOL     OW55600   7.475   1.022   6.535
 2254SOL    HW155601   7.519   0.961   6.469
 2254SOL    HW255602   7.449   1.107   6.490
 2255SOL     OW55603  16.260  13.126   8.348
 2255SOL    HW155604  16.309  13.093   8.429
 2255SOL    HW255605  16.169  13.084   8.345
 2256SOL     OW55606  10.495   7.365   1.056
 2256SOL    HW155607  10.440   7.447   1.039
 2256SOL    HW255608  10.444   7.303   1.115
 2257SOL     OW55609   6.765   1.481   0.499
 2257SOL    HW155610   6.834   1.468   0.570
 2257SOL    HW255611   6.720   1.569   0.511
 2258SOL     OW55612  10.481  13.418   7.232
 2258SOL    HW155613  10.495  13.475   7.313
 2258SOL    HW255614  10.563  13.364   7.214
 2259SOL     OW55615   0.389   4.913   6.509
 2259SOL    HW155616   0.422   4.924   6.602
 2259SOL    HW255617   0.401   4.818   6.480
 2260SOL     OW55618   9.092   8.830   6.895
 2260SOL    HW155619   9.017   8.767   6.919
 2260SOL    HW255620   9.149   8.846   6.976
 2261SOL     OW55621  14.405   1.596   7.602
 2261SOL    HW155622  14.402   1.607   7.503
 2261SOL    HW255623  14.316   1.565   7.634
 2262SOL     OW55624  13.864  15.478   6.757
 2262SOL    HW155625  13.766  15.497   6.756
 2262SOL    HW255626  13.879  15.382   6.779
 2263SOL     OW55627  16.737  12.589   6.988
 2263SOL    HW155628  16.753  12.553   6.896
 2263SOL    HW255629  16.715  12.686   6.982
 2264SOL     OW55630  13.615  10.172   0.259
 2264SOL    HW155631  13.646  10.087   0.303
 2264SOL    HW255632  13.680  10.197   0.186
 2265SOL     OW55633   9.760   6.608   7.682
 2265SOL    HW155634   9.760   6.666   7.764
 2265SOL    HW255635   9.675   6.555   7.680
 2266SOL     OW55636   1.173   3.662   1.521
 2266SOL    HW155637   1.143   3.749   1.561
 2266SOL    HW255638   1.155   3.587   1.585
 2267SOL     OW55639  11.579  10.494   8.375
 2267SOL    HW155640  11.665  10.444   8.378
 2267SOL    HW255641  11.525  10.473   0.002
 2268SOL     OW55642  15.993  16.724   1.616
 2268SOL    HW155643  15.918  16.681   1.566
 2268SOL    HW255644  15.979  16.711   1.714
 2269SOL     OW55645   2.916   7.364   8.072
 2269SOL    HW155646   2.943   7.337   8.164
 2269SOL    HW255647   2.907   7.283   8.014
 2270SOL     OW55648  11.785  11.122   0.730
 2270SOL    HW155649  11.851  11.197   0.740
 2270SOL    HW255650  11.734  11.111   0.815
 2271SOL     OW55651  15.519   8.962   6.539
 2271SOL    HW155652  15.522   8.878   6.593
 2271SOL    HW255653  15.499   8.939   6.443
 2272SOL     OW55654  10.391  16.048   0.633
 2272SOL    HW155655  10.444  16.106   0.695
 2272SOL    HW255656  10.431  15.957   0.629
 2273SOL     OW55657   4.912  14.026   7.059
 2273SOL    HW155658   5.000  13.979   7.071
 2273SOL    HW255659   4.870  13.996   6.974
 2274SOL     OW55660  12.483   9.958   7.873
 2274SOL    HW155661  12.462   9.876   7.926
 2274SOL    HW255662  12.542   9.935   7.797
 2275SOL     OW55663   6.799   2.330   0.426
 2275SOL    HW155664   6.780   2.405   0.361
 2275SOL    HW255665   6.724   2.324   0.492
 2276SOL     OW55666  12.172   3.383   6.392
 2276SOL    HW155667  12.270   3.384   6.413
 2276SOL    HW255668  12.156   3.431   6.306
 2277SOL     OW55669   9.173   2.040   6.849
 2277SOL    HW155670   9.170   2.114   6.916
 2277SOL    HW255671   9.098   2.052   6.784
 2278SOL     OW55672   6.450   9.573   1.498
 2278SOL    HW155673   6.461   9.667   1.528
 2278SOL    HW255674   6.481   9.511   1.570
 2279SOL     OW55675   4.881  15.743   0.155
 2279SOL    HW155676   4.879  15.667   0.090
 2279SOL    HW255677   4.827  15.720   0.235
 2280SOL     OW55678  11.381  16.864   7.307
 2280SOL    HW155679  11.403  16.955   7.341
 2280SOL    HW255680  11.432  16.796   7.361
 2281SOL     OW55681   1.310   9.625   7.360
 2281SOL    HW155682   1.360   9.546   7.323
 2281SOL    HW255683   1.259   9.597   7.441
 2282SOL     OW55684   6.025   9.556   6.833
 2282SOL    HW155685   5.941   9.564   6.778
 2282SOL    HW255686   6.004   9.574   6.929
 2283SOL     OW55687   2.726  15.971   8.179
 2283SOL    HW155688   2.747  16.049   8.120
 2283SOL    HW255689   2.803  15.908   8.180
 2284SOL     OW55690   9.722  11.097   6.758
 2284SOL    HW155691   9.672  11.147   6.688
 2284SOL    HW255692   9.804  11.149   6.783
 2285SOL     OW55693  15.539   5.077   7.824
 2285SOL    HW155694  15.587   5.142   7.882
 2285SOL    HW255695  15.468   5.031   7.877
 2286SOL     OW55696   5.263   4.629   0.177
 2286SOL    HW155697   5.298   4.623   0.083
 2286SOL    HW255698   5.326   4.583   0.239
 2287SOL     OW55699   4.480   4.438   6.296
 2287SOL    HW155700   4.539   4.357   6.290
 2287SOL    HW255701   4.393   4.419   6.252
 2288SOL     OW55702   6.779   5.255   7.131
 2288SOL    HW155703   6.701   5.247   7.194
 2288SOL    HW255704   6.784   5.172   7.075
 2289SOL     OW55705   5.478   4.642   1.258
 2289SOL    HW155706   5.412   4.602   1.321
 2289SOL    HW255707   5.459   4.610   1.165
 2290SOL     OW55708  11.629  11.242   7.078
 2290SOL    HW155709  11.563  11.308   7.044
 2290SOL    HW255710  11.584  11.154   7.092
 2291SOL     OW55711  14.439   2.721   6.833
 2291SOL    HW155712  14.524   2.667   6.833
 2291SOL    HW255713  14.441   2.784   6.910
 2292SOL     OW55714  15.792   2.283   1.930
 2292SOL    HW155715  15.824   2.377   1.942
 2292SOL    HW255716  15.841   2.222   1.993
 2293SOL     OW55717  10.438  13.042   6.477
 2293SOL    HW155718  10.395  13.110   6.418
 2293SOL    HW255719  10.424  12.951   6.439
 2294SOL     OW55720  13.850   7.714   6.442
 2294SOL    HW155721  13.922   7.693   6.376
 2294SOL    HW255722  13.850   7.813   6.460
 2295SOL     OW55723   2.543   8.925   7.111
 2295SOL    HW155724   2.467   8.929   7.047
 2295SOL    HW255725   2.616   8.986   7.081
 2296SOL     OW55726   5.119   7.687   6.392
 2296SOL    HW155727   5.095   7.773   6.347
 2296SOL    HW255728   5.140   7.619   6.322
 2297SOL     OW55729  13.827   5.245   5.429
 2297SOL    HW155730  13.871   5.174   5.374
 2297SOL    HW255731  13.840   5.334   5.384
 2298SOL     OW55732   4.200  11.287   0.108
 2298SOL    HW155733   4.220  11.306   0.204
 2298SOL    HW255734   4.108  11.249   0.101
 2299SOL     OW55735  13.570  11.717   6.968
 2299SOL    HW155736  13.599  11.746   6.877
 2299SOL    HW255737  13.618  11.772   7.037
 2300SOL     OW55738  16.498   4.651   0.958
 2300SOL    HW155739  16.518   4.748   0.941
 2300SOL    HW255740  16.470   4.640   1.053
 2301SOL     OW55741   4.748  11.424   7.553
 2301SOL    HW155742   4.689  11.476   7.615
 2301SOL    HW255743   4.842  11.456   7.563
 2302SOL     OW55744  11.261   9.858   6.527
 2302SOL    HW155745  11.280   9.876   6.431
 2302SOL    HW255746  11.248   9.760   6.541
 2303SOL     OW55747  13.734   9.037   8.252
 2303SOL    HW155748  13.731   9.028   8.153
 2303SOL    HW255749  13.807   9.102   8.278
 2304SOL     OW55750   5.331   9.246   7.791
 2304SOL    HW155751   5.420   9.291   7.791
 2304SOL    HW255752   5.343   9.147   7.790
 2305SOL     OW55753   6.747  15.158   0.666
 2305SOL    HW155754   6.703  15.068   0.676
 2305SOL    HW255755   6.807  15.157   0.586
 2306SOL     OW55756  12.090  13.165   0.341
 2306SOL    HW155757  12.054  13.242   0.289
 2306SOL    HW255758  12.017  13.125   0.396
 2307SOL     OW55759   3.061  10.993   7.161
 2307SOL    HW155760   3.043  10.923   7.091
 2307SOL    HW255761   3.141  11.047   7.135
 2308SOL     OW55762   5.723  15.073   7.492
 2308SOL    HW155763   5.753  15.004   7.425
 2308SOL    HW255764   5.741  15.039   7.584
 2309SOL     OW55765   8.211  13.685   1.043
 2309SOL    HW155766   8.267  13.633   1.107
 2309SOL    HW255767   8.138  13.627   1.008
 2310SOL     OW55768   7.849   5.175   0.722
 2310SOL    HW155769   7.859   5.185   0.821
 2310SOL    HW255770   7.758   5.206   0.694
 2311SOL     OW55771   0.525   7.674   0.390
 2311SOL    HW155772   0.605   7.679   0.450
 2311SOL    HW255773   0.544   7.724   0.305
 2312SOL     OW55774   0.179  10.089   1.559
 2312SOL    HW155775   0.086  10.120   1.581
 2312SOL    HW255776   0.239  10.168   1.547
 2313SOL     OW55777   6.753   3.847   8.166
 2313SOL    HW155778   6.817   3.787   8.214
 2313SOL    HW255779   6.661   3.808   8.169
 2314SOL     OW55780   1.304  13.671   8.260
 2314SOL    HW155781   1.354  13.753   8.235
 2314SOL    HW255782   1.345  13.591   8.215
 2315SOL     OW55783   3.992   2.132   7.934
 2315SOL    HW155784   4.046   2.145   7.851
 2315SOL    HW255785   3.895   2.127   7.910
 2316SOL     OW55786   8.079   2.439   0.375
 2316SOL    HW155787   8.072   2.345   0.407
 2316SOL    HW255788   8.059   2.501   0.451
 2317SOL     OW55789   8.807   5.960   7.843
 2317SOL    HW155790   8.875   6.016   7.891
 2317SOL    HW255791   8.853   5.890   7.788
 2318SOL     OW55792  16.678   3.121   6.618
 2318SOL    HW155793  16.711   3.198   6.563
 2318SOL    HW255794  16.599   3.079   6.574
 2319SOL     OW55795  10.544   6.346   6.878
 2319SOL    HW155796  10.479   6.303   6.941
 2319SOL    HW255797  10.495   6.379   6.797
 2320SOL     OW55798   4.162   2.266   1.297
 2320SOL    HW155799   4.072   2.235   1.266
 2320SOL    HW255800   4.157   2.362   1.326
 2321SOL     OW55801   9.867   2.486   0.122
 2321SOL    HW155802   9.882   2.533   0.210
 2321SOL    HW255803   9.783   2.521   0.080
 2322SOL     OW55804  10.223   1.287   6.324
 2322SOL    HW155805  10.198   1.372   6.370
 2322SOL    HW255806  10.233   1.215   6.392
 2323SOL     OW55807   5.294  16.809   0.771
 2323SOL    HW155808   5.322  16.718   0.740
 2323SOL    HW255809   5.246  16.800   0.858
 2324SOL     OW55810  16.366  16.950   1.726
 2324SOL    HW155811  16.385  16.853   1.736
 2324SOL    HW255812  16.274  16.963   1.689
 2325SOL     OW55813  13.983  13.273   6.816
 2325SOL    HW155814  13.986  13.173   6.820
 2325SOL    HW255815  14.035  13.304   6.736
 2326SOL     OW55816   4.227  11.729   7.171
 2326SOL    HW155817   4.252  11.759   7.263
 2326SOL    HW255818   4.307  11.691   7.126
 2327SOL     OW55819   8.995   4.289   7.219
 2327SOL    HW155820   9.064   4.233   7.172
 2327SOL    HW255821   8.949   4.348   7.153
 2328SOL     OW55822  16.000  13.677   7.642
 2328SOL    HW155823  16.049  13.633   7.567
 2328SOL    HW255824  16.063  13.733   7.695
 2329SOL     OW55825  11.740  14.038   8.068
 2329SOL    HW155826  11.744  14.133   8.097
 2329SOL    HW255827  11.713  14.034   7.972
 2330SOL     OW55828   3.203  15.077   2.065
 2330SOL    HW155829   3.202  15.060   2.164
 2330SOL    HW255830   3.123  15.131   2.040
 2331SOL     OW55831   8.467  14.603   6.285
 2331SOL    HW155832   8.479  14.693   6.242
 2331SOL    HW255833   8.414  14.544   6.224
 2332SOL     OW55834  11.443   9.271   1.504
 2332SOL    HW155835  11.408   9.349   1.453
 2332SOL    HW255836  11.376   9.196   1.500
 2333SOL     OW55837  11.449  15.052   2.112
 2333SOL    HW155838  11.420  14.983   2.179
 2333SOL    HW255839  11.536  15.093   2.142
 2334SOL     OW55840   5.425  12.759   2.787
 2334SOL    HW155841   5.336  12.716   2.804
 2334SOL    HW255842   5.496  12.688   2.780
 2335SOL     OW55843  12.252   6.461   6.517
 2335SOL    HW155844  12.306   6.529   6.467
 2335SOL    HW255845  12.311   6.385   6.544
 2336SOL     OW55846   4.217  12.417   7.181
 2336SOL    HW155847   4.162  12.495   7.211
 2336SOL    HW255848   4.157  12.340   7.158
 2337SOL     OW55849   8.748  14.760   0.305
 2337SOL    HW155850   8.740  14.768   0.206
 2337SOL    HW255851   8.709  14.841   0.348
 2338SOL     OW55852   6.017   0.122   6.936
 2338SOL    HW155853   5.968   0.061   6.873
 2338SOL    HW255854   6.116   0.111   6.922
 2339SOL     OW55855   1.087  16.543   0.440
 2339SOL    HW155856   1.182  16.519   0.464
 2339SOL    HW255857   1.066  16.634   0.474
 2340SOL     OW55858   2.516  16.373   2.095
 2340SOL    HW155859   2.483  16.375   2.189
 2340SOL    HW255860   2.567  16.289   2.078
 2341SOL     OW55861  11.789   3.744   7.298
 2341SOL    HW155862  11.882   3.732   7.265
 2341SOL    HW255863  11.783   3.830   7.350
 2342SOL     OW55864   3.763  10.551   6.436
 2342SOL    HW155865   3.738  10.543   6.340
 2342SOL    HW255866   3.837  10.618   6.446
 2343SOL     OW55867   5.424  15.491   2.272
 2343SOL    HW155868   5.466  15.402   2.289
 2343SOL    HW255869   5.465  15.560   2.332
 2344SOL     OW55870  13.633  13.045   6.690
 2344SOL    HW155871  13.554  12.985   6.705
 2344SOL    HW255872  13.713  12.991   6.666
 2345SOL     OW55873  12.696   1.682   8.099
 2345SOL    HW155874  12.746   1.742   8.162
 2345SOL    HW255875  12.633   1.736   8.044
 2346SOL     OW55876   6.075   9.952   1.509
 2346SOL    HW155877   6.078   9.854   1.529
 2346SOL    HW255878   6.150   9.998   1.556
 2347SOL     OW55879   6.394  12.334   8.292
 2347SOL    HW155880   6.415  12.377   8.380
 2347SOL    HW255881   6.467  12.269   8.268
 2348SOL     OW55882   7.329   1.273   0.440
 2348SOL    HW155883   7.351   1.274   0.538
 2348SOL    HW255884   7.299   1.365   0.412
 2349SOL     OW55885   4.777   6.024   2.430
 2349SOL    HW155886   4.701   5.970   2.466
 2349SOL    HW255887   4.763   6.120   2.453
 2350SOL     OW55888  10.580   7.760   1.328
 2350SOL    HW155889  10.533   7.848   1.321
 2350SOL    HW255890  10.627   7.741   1.241
 2351SOL     OW55891  15.480  12.714   1.236
 2351SOL    HW155892  15.572  12.753   1.240
 2351SOL    HW255893  15.423  12.768   1.175
 2352SOL     OW55894  13.074   5.399   1.074
 2352SOL    HW155895  13.141   5.354   1.015
 2352SOL    HW255896  13.026   5.330   1.128
 2353SOL     OW55897   6.460   7.966   7.697
 2353SOL    HW155898   6.433   7.910   7.775
 2353SOL    HW255899   6.484   8.058   7.729
 2354SOL     OW55900   5.082  12.169   0.016
 2354SOL    HW155901   5.093  12.213   0.105
 2354SOL    HW255902   5.092  12.070   0.027
 2355SOL     OW55903   7.778  15.047   0.590
 2355SOL    HW155904   7.693  15.089   0.558
 2355SOL    HW255905   7.789  15.065   0.688
 2356SOL     OW55906   9.812   5.261   7.222
 2356SOL    HW155907   9.795   5.164   7.207
 2356SOL    HW255908   9.898   5.272   7.272
 2357SOL     OW55909  14.065   3.972   1.437
 2357SOL    HW155910  14.047   3.955   1.534
 2357SOL    HW255911  14.069   3.885   1.388
 2358SOL     OW55912  13.100   1.505   6.693
 2358SOL    HW155913  13.182   1.542   6.651
 2358SOL    HW255914  13.041   1.581   6.723
 2359SOL     OW55915  11.318  12.227   8.060
 2359SOL    HW155916  11.406  12.209   8.016
 2359SOL    HW255917  11.244  12.210   7.995
 2360SOL     OW55918   4.927   2.964   6.964
 2360SOL    HW155919   4.880   2.888   7.009
 2360SOL    HW255920   4.883   2.984   6.876
 2361SOL     OW55921  16.694   6.034   6.878
 2361SOL    HW155922  16.771   5.977   6.849
 2361SOL    HW255923  16.724   6.098   6.949
 2362SOL     OW55924   7.751   0.944   2.212
 2362SOL    HW155925   7.706   1.029   2.186
 2362SOL    HW255926   7.698   0.900   2.284
 2363SOL     OW55927  12.881  13.457   1.865
 2363SOL    HW155928  12.906  13.545   1.906
 2363SOL    HW255929  12.887  13.386   1.935
 2364SOL     OW55930  13.983   5.587   6.455
 2364SOL    HW155931  14.048   5.656   6.489
 2364SOL    HW255932  14.008   5.562   6.362
 2365SOL     OW55933   2.953   0.555   2.856
 2365SOL    HW155934   3.044   0.516   2.871
 2365SOL    HW255935   2.956   0.654   2.871
 2366SOL     OW55936   5.990   9.218   7.716
 2366SOL    HW155937   6.050   9.152   7.670
 2366SOL    HW255938   5.962   9.289   7.652
 2367SOL     OW55939  13.106   7.823   7.626
 2367SOL    HW155940  13.008   7.812   7.613
 2367SOL    HW255941  13.151   7.828   7.537
 2368SOL     OW55942  12.391   4.893   6.491
 2368SOL    HW155943  12.365   4.822   6.425
 2368SOL    HW255944  12.391   4.982   6.445
 2369SOL     OW55945   8.911  10.370   7.791
 2369SOL    HW155946   8.812  10.364   7.782
 2369SOL    HW255947   8.936  10.373   7.888
 2370SOL     OW55948   4.234  16.880   7.368
 2370SOL    HW155949   4.248  16.823   7.287
 2370SOL    HW255950   4.284  16.841   7.445
 2371SOL     OW55951   0.859   2.867   7.676
 2371SOL    HW155952   0.931   2.832   7.616
 2371SOL    HW255953   0.789   2.912   7.621
 2372SOL     OW55954   7.511  13.175   0.465
 2372SOL    HW155955   7.468  13.265   0.457
 2372SOL    HW255956   7.605  13.185   0.497
 2373SOL     OW55957   0.801  12.472   2.089
 2373SOL    HW155958   0.762  12.392   2.135
 2373SOL    HW255959   0.738  12.505   2.020
 2374SOL     OW55960   0.809  16.157   6.202
 2374SOL    HW155961   0.813  16.247   6.158
 2374SOL    HW255962   0.761  16.093   6.141
 2375SOL     OW55963   8.424  10.581   6.742
 2375SOL    HW155964   8.401  10.657   6.802
 2375SOL    HW255965   8.348  10.563   6.679
 2376SOL     OW55966   0.310  13.052   7.555
 2376SOL    HW155967   0.381  13.075   7.489
 2376SOL    HW255968   0.287  12.954   7.547
 2377SOL     OW55969   8.849   1.723   7.438
 2377SOL    HW155970   8.860   1.689   7.344
 2377SOL    HW255971   8.865   1.648   7.502
 2378SOL     OW55972  15.177   2.841   0.887
 2378SOL    HW155973  15.146   2.817   0.979
 2378SOL    HW255974  15.102   2.826   0.822
 2379SOL     OW55975  13.184  14.906   8.323
 2379SOL    HW155976  13.124  14.891   8.402
 2379SOL    HW255977  13.258  14.967   8.349
 2380SOL     OW55978   1.711  10.962   0.623
 2380SOL    HW155979   1.702  10.884   0.684
 2380SOL    HW255980   1.791  10.950   0.564
 2381SOL     OW55981   3.148  10.054   1.565
 2381SOL    HW155982   3.150  10.145   1.523
 2381SOL    HW255983   3.153  10.063   1.664
 2382SOL     OW55984   2.413   9.665   0.954
 2382SOL    HW155985   2.464   9.661   1.040
 2382SOL    HW255986   2.371   9.755   0.944
 2383SOL     OW55987  15.085   2.444   6.849
 2383SOL    HW155988  15.128   2.524   6.805
 2383SOL    HW255989  15.009   2.412   6.792
 2384SOL     OW55990   3.543   9.518   0.641
 2384SOL    HW155991   3.468   9.546   0.700
 2384SOL    HW255992   3.583   9.599   0.597
 2385SOL     OW55993   6.681  11.302   0.026
 2385SOL    HW155994   6.596  11.267   8.439
 2385SOL    HW255995   6.671  11.305   0.125
 2386SOL     OW55996   3.256  12.523   8.089
 2386SOL    HW155997   3.329  12.465   8.053
 2386SOL    HW255998   3.169  12.474   8.085
 2387SOL     OW55999   0.666  11.943   8.062
 2387SOL    HW156000   0.669  11.890   7.977
 2387SOL    HW256001   0.745  12.004   8.066
 2388SOL     OW56002  14.066   0.455   0.850
 2388SOL    HW156003  13.977   0.417   0.873
 2388SOL    HW256004  14.137   0.410   0.905
 2389SOL     OW56005  13.241   6.977   6.542
 2389SOL    HW156006  13.303   6.905   6.574
 2389SOL    HW256007  13.284   7.025   6.465
 2390SOL     OW56008  12.609   6.614   1.095
 2390SOL    HW156009  12.599   6.584   1.189
 2390SOL    HW256010  12.521   6.605   1.047
 2391SOL     OW56011  10.842   9.711   0.492
 2391SOL    HW156012  10.750   9.689   0.459
 2391SOL    HW256013  10.904   9.719   0.414
 2392SOL     OW56014   2.601  12.901   0.283
 2392SOL    HW156015   2.542  12.942   0.352
 2392SOL    HW256016   2.682  12.862   0.327
 2393SOL     OW56017   5.441  16.710   6.837
 2393SOL    HW156018   5.378  16.640   6.803
 2393SOL    HW256019   5.533  16.690   6.804
 2394SOL     OW56020   2.132  14.395   0.049
 2394SOL    HW156021   2.085  14.403   8.416
 2394SOL    HW256022   2.080  14.443   0.120
 2395SOL     OW56023  12.405   6.561   6.773
 2395SOL    HW156024  12.450   6.521   6.852
 2395SOL    HW256025  12.323   6.508   6.752
 2396SOL     OW56026  15.634   1.801   0.570
 2396SOL    HW156027  15.608   1.798   0.666
 2396SOL    HW256028  15.699   1.875   0.555
 2397SOL     OW56029   8.152   7.512   6.290
 2397SOL    HW156030   8.193   7.568   6.217
 2397SOL    HW256031   8.165   7.558   6.378
 2398SOL     OW56032   9.184   2.749   0.065
 2398SOL    HW156033   9.219   2.774   0.155
 2398SOL    HW256034   9.139   2.660   0.070
 2399SOL     OW56035   3.650   0.212   0.940
 2399SOL    HW156036   3.641   0.164   0.854
 2399SOL    HW256037   3.607   0.302   0.933
 2400SOL     OW56038   7.651   6.315   6.454
 2400SOL    HW156039   7.736   6.334   6.404
 2400SOL    HW256040   7.646   6.218   6.475
 2401SOL     OW56041   2.028   3.089   0.655
 2401SOL    HW156042   1.987   3.175   0.685
 2401SOL    HW256043   1.995   3.014   0.714
 2402SOL     OW56044  13.062  11.349   1.636
 2402SOL    HW156045  13.119  11.305   1.706
 2402SOL    HW256046  12.972  11.369   1.673
 2403SOL     OW56047   4.175  11.958   6.255
 2403SOL    HW156048   4.216  12.024   6.192
 2403SOL    HW256049   4.081  11.985   6.275
 2404SOL     OW56050   9.463  14.404   6.545
 2404SOL    HW156051   9.490  14.312   6.517
 2404SOL    HW256052   9.457  14.407   6.645
 2405SOL     OW56053   2.178   8.312   0.176
 2405SOL    HW156054   2.272   8.330   0.203
 2405SOL    HW256055   2.155   8.217   0.194
 2406SOL     OW56056  12.373  15.497   7.113
 2406SOL    HW156057  12.452  15.498   7.051
 2406SOL    HW256058  12.350  15.403   7.137
 2407SOL     OW56059   9.124   8.618   7.806
 2407SOL    HW156060   9.157   8.589   7.716
 2407SOL    HW256061   9.074   8.543   7.849
 2408SOL     OW56062  16.413   9.353   1.268
 2408SOL    HW156063  16.381   9.372   1.176
 2408SOL    HW256064  16.509   9.379   1.276
 2409SOL     OW56065   2.520  16.977   8.450
 2409SOL    HW156066   2.593   0.060   0.013
 2409SOL    HW256067   2.558  16.885   8.452
 2410SOL     OW56068   1.660   2.808   6.630
 2410SOL    HW156069   1.714   2.843   6.707
 2410SOL    HW256070   1.674   2.709   6.622
 2411SOL     OW56071   8.753   9.695   8.107
 2411SOL    HW156072   8.847   9.694   8.074
 2411SOL    HW256073   8.748   9.651   8.196
 2412SOL     OW56074   9.448  10.084   6.328
 2412SOL    HW156075   9.388  10.159   6.298
 2412SOL    HW256076   9.431  10.004   6.271
 2413SOL     OW56077   9.913   2.028   7.900
 2413SOL    HW156078   9.865   2.087   7.966
 2413SOL    HW256079   9.875   1.936   7.904
 2414SOL     OW56080   0.295  16.884   1.180
 2414SOL    HW156081   0.382  16.851   1.141
 2414SOL    HW256082   0.227  16.810   1.177
 2415SOL     OW56083  14.295  13.746   7.266
 2415SOL    HW156084  14.350  13.664   7.249
 2415SOL    HW256085  14.221  13.751   7.199
 2416SOL     OW56086   4.794   2.082   7.362
 2416SOL    HW156087   4.782   2.085   7.461
 2416SOL    HW256088   4.707   2.100   7.317
 2417SOL     OW56089   0.218  15.383   1.076
 2417SOL    HW156090   0.257  15.340   0.994
 2417SOL    HW256091   0.129  15.422   1.055
 2418SOL     OW56092   4.285   2.569   7.966
 2418SOL    HW156093   4.194   2.598   7.936
 2418SOL    HW256094   4.291   2.576   8.066
 2419SOL     OW56095  12.314  14.292   1.206
 2419SOL    HW156096  12.239  14.344   1.248
 2419SOL    HW256097  12.317  14.200   1.244
 2420SOL     OW56098   1.007  13.579   7.348
 2420SOL    HW156099   0.935  13.580   7.278
 2420SOL    HW256100   1.096  13.588   7.305
 2421SOL     OW56101  12.117  16.104   1.270
 2421SOL    HW156102  12.049  16.108   1.344
 2421SOL    HW256103  12.185  16.176   1.283
 2422SOL     OW56104  10.825  10.348   8.349
 2422SOL    HW156105  10.907  10.305   8.310
 2422SOL    HW256106  10.764  10.376   8.275
 2423SOL     OW56107   3.068  10.089   0.587
 2423SOL    HW156108   3.066  10.104   0.685
 2423SOL    HW256109   3.109  10.000   0.567
 2424SOL     OW56110   5.854  16.235   1.043
 2424SOL    HW156111   5.754  16.243   1.045
 2424SOL    HW256112   5.894  16.315   0.999
 2425SOL     OW56113   4.105  12.557   0.375
 2425SOL    HW156114   4.021  12.535   0.325
 2425SOL    HW256115   4.117  12.656   0.378
 2426SOL     OW56116  10.041  11.349   2.026
 2426SOL    HW156117   9.949  11.359   2.064
 2426SOL    HW256118  10.037  11.295   1.942
 2427SOL     OW56119  16.794   5.697   0.124
 2427SOL    HW156120  16.729   5.689   0.199
 2427SOL    HW256121  16.761   5.645   0.045
 2428SOL     OW56122   1.344  16.474   0.496
 2428SOL    HW156123   1.368  16.450   0.590
 2428SOL    HW256124   1.423  16.460   0.436
 2429SOL     OW56125  12.299   3.220   7.986
 2429SOL    HW156126  12.335   3.126   7.985
 2429SOL    HW256127  12.336   3.271   7.908
 2430SOL     OW56128   6.938   2.044   1.130
 2430SOL    HW156129   6.900   2.050   1.222
 2430SOL    HW256130   6.864   2.032   1.064
 2431SOL     OW56131   8.592  12.000   1.022
 2431SOL    HW156132   8.655  12.049   0.961
 2431SOL    HW256133   8.550  11.924   0.971
 2432SOL     OW56134  13.871   3.777   6.702
 2432SOL    HW156135  13.850   3.874   6.688
 2432SOL    HW256136  13.788   3.727   6.725
 2433SOL     OW56137   6.814   9.457   1.096
 2433SOL    HW156138   6.739   9.398   1.127
 2433SOL    HW256139   6.843   9.516   1.172
 2434SOL     OW56140  12.592   5.142   8.218
 2434SOL    HW156141  12.547   5.062   8.179
 2434SOL    HW256142  12.558   5.158   8.311
 2435SOL     OW56143  11.287   9.725   1.143
 2435SOL    HW156144  11.280   9.806   1.084
 2435SOL    HW256145  11.383   9.712   1.170
 2436SOL     OW56146  10.392   9.058   0.347
 2436SOL    HW156147  10.424   9.129   0.411
 2436SOL    HW256148  10.454   8.980   0.352
 2437SOL     OW56149   2.484  12.277   7.776
 2437SOL    HW156150   2.580  12.251   7.787
 2437SOL    HW256151   2.463  12.287   7.679
 2438SOL     OW56152  16.425  13.537   8.014
 2438SOL    HW156153  16.348  13.515   8.074
 2438SOL    HW256154  16.492  13.463   8.017
 2439SOL     OW56155   4.979  14.351   7.338
 2439SOL    HW156156   5.047  14.278   7.351
 2439SOL    HW256157   4.922  14.357   7.420
 2440SOL     OW56158   1.084   5.853   6.830
 2440SOL    HW156159   1.045   5.945   6.838
 2440SOL    HW256160   1.144   5.836   6.909
 2441SOL     OW56161   4.299   8.457   7.228
 2441SOL    HW156162   4.252   8.370   7.245
 2441SOL    HW256163   4.331   8.495   7.315
 2442SOL     OW56164   4.395  15.578   2.073
 2442SOL    HW156165   4.352  15.663   2.041
 2442SOL    HW256166   4.428  15.590   2.166
 2443SOL     OW56167  12.620   3.197   7.190
 2443SOL    HW156168  12.638   3.293   7.171
 2443SOL    HW256169  12.528   3.187   7.228
 2444SOL     OW56170   5.591  14.803   0.217
 2444SOL    HW156171   5.611  14.705   0.210
 2444SOL    HW256172   5.592  14.844   0.126
 2445SOL     OW56173  16.456   9.713   7.630
 2445SOL    HW156174  16.443   9.772   7.710
 2445SOL    HW256175  16.379   9.724   7.568
 2446SOL     OW56176   7.456   4.605   2.276
 2446SOL    HW156177   7.363   4.572   2.289
 2446SOL    HW256178   7.520   4.538   2.314
 2447SOL     OW56179   9.970   6.339   0.737
 2447SOL    HW156180   9.925   6.425   0.763
 2447SOL    HW256181   9.906   6.263   0.749
 2448SOL     OW56182  14.354   0.202   1.280
 2448SOL    HW156183  14.434   0.260   1.267
 2448SOL    HW256184  14.371   0.113   1.238
 2449SOL     OW56185  11.773   1.107   6.119
 2449SOL    HW156186  11.736   1.173   6.184
 2449SOL    HW256187  11.736   1.016   6.139
 2450SOL     OW56188   4.024   1.719   0.457
 2450SOL    HW156189   3.947   1.704   0.395
 2450SOL    HW256190   4.031   1.641   0.520
 2451SOL     OW56191   6.859   5.410   7.735
 2451SOL    HW156192   6.944   5.447   7.772
 2451SOL    HW256193   6.831   5.463   7.655
 2452SOL     OW56194  13.802   7.922   8.121
 2452SOL    HW156195  13.817   8.018   8.142
 2452SOL    HW256196  13.769   7.874   8.202
 2453SOL     OW56197   9.866  12.359   7.169
 2453SOL    HW156198   9.957  12.318   7.165
 2453SOL    HW256199   9.810  12.308   7.233
 2454SOL     OW56200  10.628  12.515   0.608
 2454SOL    HW156201  10.724  12.541   0.619
 2454SOL    HW256202  10.622  12.420   0.577
 2455SOL     OW56203  12.906  12.427   0.534
 2455SOL    HW156204  12.970  12.376   0.592
 2455SOL    HW256205  12.927  12.524   0.539
 2456SOL     OW56206   4.193  16.184   1.477
 2456SOL    HW156207   4.171  16.118   1.405
 2456SOL    HW256208   4.257  16.252   1.441
 2457SOL     OW56209   0.109   6.258   0.102
 2457SOL    HW156210   0.045   6.182   0.089
 2457SOL    HW256211   0.178   6.232   0.170
 2458SOL     OW56212   8.733  10.923   0.868
 2458SOL    HW156213   8.739  10.933   0.769
 2458SOL    HW256214   8.673  10.846   0.891
 2459SOL     OW56215   8.157   6.644   1.780
 2459SOL    HW156216   8.208   6.558   1.782
 2459SOL    HW256217   8.078   6.634   1.719
 2460SOL     OW56218  13.293  16.462   7.741
 2460SOL    HW156219  13.242  16.389   7.696
 2460SOL    HW256220  13.337  16.427   7.824
 2461SOL     OW56221  15.038   5.832   0.112
 2461SOL    HW156222  14.990   5.753   0.149
 2461SOL    HW256223  15.125   5.844   0.160
 2462SOL     OW56224  11.692   9.488   1.300
 2462SOL    HW156225  11.689   9.435   1.215
 2462SOL    HW256226  11.698   9.426   1.378
 2463SOL     OW56227   8.068  13.226   2.420
 2463SOL    HW156228   8.165  13.227   2.445
 2463SOL    HW256229   8.034  13.320   2.414
 2464SOL     OW56230  14.289  15.476   1.189
 2464SOL    HW156231  14.262  15.572   1.194
 2464SOL    HW256232  14.212  15.422   1.155
 2465SOL     OW56233   7.424   6.232   2.416
 2465SOL    HW156234   7.509   6.284   2.407
 2465SOL    HW256235   7.347   6.295   2.419
 2466SOL     OW56236  13.156   1.976   0.739
 2466SOL    HW156237  13.171   1.927   0.825
 2466SOL    HW256238  13.058   1.978   0.719
 2467SOL     OW56239  10.512   5.887   1.146
 2467SOL    HW156240  10.603   5.922   1.167
 2467SOL    HW256241  10.506   5.867   1.048
 2468SOL     OW56242  11.860  16.928   6.831
 2468SOL    HW156243  11.849  16.903   6.735
 2468SOL    HW256244  11.791  16.881   6.886
 2469SOL     OW56245  14.216  11.522   1.749
 2469SOL    HW156246  14.198  11.522   1.650
 2469SOL    HW256247  14.298  11.577   1.767
 2470SOL     OW56248  12.578   6.158   1.513
 2470SOL    HW156249  12.621   6.176   1.425
 2470SOL    HW256250  12.537   6.242   1.549
 2471SOL     OW56251  11.378  15.652   6.542
 2471SOL    HW156252  11.359  15.749   6.557
 2471SOL    HW256253  11.463  15.643   6.490
 2472SOL     OW56254   3.044   0.424   0.825
 2472SOL    HW156255   3.100   0.352   0.784
 2472SOL    HW256256   2.952   0.421   0.786
 2473SOL     OW56257   7.689   6.387   1.429
 2473SOL    HW156258   7.709   6.289   1.430
 2473SOL    HW256259   7.705   6.426   1.520
 2474SOL     OW56260  11.583  16.078   7.094
 2474SOL    HW156261  11.620  16.114   7.008
 2474SOL    HW256262  11.658  16.057   7.157
 2475SOL     OW56263   8.054   8.624   7.817
 2475SOL    HW156264   8.015   8.713   7.840
 2475SOL    HW256265   8.122   8.599   7.885
 2476SOL     OW56266   7.231  10.976   6.358
 2476SOL    HW156267   7.183  10.954   6.273
 2476SOL    HW256268   7.293  11.052   6.343
 2477SOL     OW56269   2.895   4.279   1.106
 2477SOL    HW156270   2.825   4.207   1.107
 2477SOL    HW256271   2.902   4.318   1.015
 2478SOL     OW56272   6.822   9.317   1.483
 2478SOL    HW156273   6.921   9.320   1.484
 2478SOL    HW256274   6.791   9.229   1.447
 2479SOL     OW56275  15.541   3.151   1.264
 2479SOL    HW156276  15.483   3.204   1.326
 2479SOL    HW256277  15.542   3.056   1.293
 2480SOL     OW56278   5.423  15.241   8.063
 2480SOL    HW156279   5.518  15.261   8.043
 2480SOL    HW256280   5.382  15.319   8.111
 2481SOL     OW56281   2.115   9.278   1.168
 2481SOL    HW156282   2.210   9.255   1.148
 2481SOL    HW256283   2.102   9.377   1.160
 2482SOL     OW56284   3.010   3.383   7.993
 2482SOL    HW156285   3.052   3.300   7.956
 2482SOL    HW256286   3.053   3.407   8.080
 2483SOL     OW56287  11.858  13.409   7.414
 2483SOL    HW156288  11.916  13.421   7.495
 2483SOL    HW256289  11.770  13.369   7.442
 2484SOL     OW56290  15.315   6.860   7.508
 2484SOL    HW156291  15.314   6.805   7.591
 2484SOL    HW256292  15.292   6.802   7.430
 2485SOL     OW56293   6.582   3.311   7.332
 2485SOL    HW156294   6.564   3.382   7.401
 2485SOL    HW256295   6.574   3.221   7.375
 2486SOL     OW56296  12.755   6.371   1.845
 2486SOL    HW156297  12.665   6.334   1.823
 2486SOL    HW256298  12.816   6.297   1.872
 2487SOL     OW56299   1.347   6.078   8.417
 2487SOL    HW156300   1.308   6.006   8.359
 2487SOL    HW256301   1.306   6.072   0.054
 2488SOL     OW56302   7.499   9.513   0.677
 2488SOL    HW156303   7.423   9.449   0.673
 2488SOL    HW256304   7.569   9.478   0.739
 2489SOL     OW56305  14.539   1.487   0.152
 2489SOL    HW156306  14.564   1.527   0.240
 2489SOL    HW256307  14.461   1.536   0.114
 2490SOL     OW56308   0.911   1.502   7.369
 2490SOL    HW156309   0.945   1.495   7.275
 2490SOL    HW256310   0.950   1.583   7.413
 2491SOL     OW56311  15.175  16.770   0.766
 2491SOL    HW156312  15.088  16.752   0.811
 2491SOL    HW256313  15.199  16.694   0.706
 2492SOL     OW56314  12.229  15.975   7.723
 2492SOL    HW156315  12.138  15.980   7.764
 2492SOL    HW256316  12.232  16.032   7.641
 2493SOL     OW56317   8.352  16.659   8.012
 2493SOL    HW156318   8.422  16.725   7.983
 2493SOL    HW256319   8.269  16.708   8.037
 2494SOL     OW56320   1.095   8.751   7.413
 2494SOL    HW156321   1.171   8.727   7.353
 2494SOL    HW256322   1.097   8.691   7.494
 2495SOL     OW56323   1.861  14.980   0.628
 2495SOL    HW156324   1.791  15.036   0.584
 2495SOL    HW256325   1.819  14.925   0.700
 2496SOL     OW56326   3.045   6.991   1.537
 2496SOL    HW156327   3.065   6.930   1.614
 2496SOL    HW256328   3.045   7.086   1.570
 2497SOL     OW56329  16.002   8.487   6.859
 2497SOL    HW156330  16.084   8.543   6.847
 2497SOL    HW256331  16.027   8.390   6.858
 2498SOL     OW56332  11.064  10.068   1.293
 2498SOL    HW156333  10.970  10.041   1.270
 2498SOL    HW256334  11.093  10.019   1.375
 2499SOL     OW56335   2.134  10.151   7.443
 2499SOL    HW156336   2.149  10.250   7.435
 2499SOL    HW256337   2.222  10.104   7.441
 2500SOL     OW56338   4.666   4.977   6.805
 2500SOL    HW156339   4.662   4.878   6.792
 2500SOL    HW256340   4.641   5.000   6.899
 2501SOL     OW56341   7.398  10.954   1.539
 2501SOL    HW156342   7.492  10.959   1.505
 2501SOL    HW256343   7.396  10.901   1.624
 2502SOL     OW56344   0.122  11.568   8.364
 2502SOL    HW156345   0.190  11.641   8.354
 2502SOL    HW256346   0.118  11.514   8.280
 2503SOL     OW56347   8.438   5.506   7.112
 2503SOL    HW156348   8.352   5.555   7.094
 2503SOL    HW256349   8.420   5.408   7.118
 2504SOL     OW56350  11.795  15.114   6.838
 2504SOL    HW156351  11.888  15.091   6.808
 2504SOL    HW256352  11.750  15.170   6.769
 2505SOL     OW56353  10.732   1.894   1.306
 2505SOL    HW156354  10.700   1.860   1.394
 2505SOL    HW256355  10.832   1.896   1.305
 2506SOL     OW56356  14.592   4.233   6.212
 2506SOL    HW156357  14.621   4.160   6.150
 2506SOL    HW256358  14.672   4.287   6.239
 2507SOL     OW56359   3.280  11.503   0.737
 2507SOL    HW156360   3.286  11.551   0.825
 2507SOL    HW256361   3.264  11.405   0.753
 2508SOL     OW56362   8.881  12.470   0.332
 2508SOL    HW156363   8.941  12.405   0.284
 2508SOL    HW256364   8.912  12.563   0.314
 2509SOL     OW56365   2.511   7.525   7.842
 2509SOL    HW156366   2.546   7.561   7.928
 2509SOL    HW256367   2.568   7.448   7.813
 2510SOL     OW56368   1.491   2.007   1.333
 2510SOL    HW156369   1.443   1.920   1.315
 2510SOL    HW256370   1.574   1.989   1.384
 2511SOL     OW56371   8.767  14.764   0.025
 2511SOL    HW156372   8.796  14.770   8.383
 2511SOL    HW256373   8.753  14.668   0.050
 2512SOL     OW56374   9.030   9.563   7.580
 2512SOL    HW156375   8.966   9.551   7.656
 2512SOL    HW256376   8.984   9.608   7.504
 2513SOL     OW56377  12.283  13.153   6.295
 2513SOL    HW156378  12.280  13.054   6.280
 2513SOL    HW256379  12.239  13.200   6.219
 2514SOL     OW56380  13.365   8.634   1.003
 2514SOL    HW156381  13.327   8.720   1.035
 2514SOL    HW256382  13.322   8.558   1.051
 2515SOL     OW56383   9.863   0.545   6.293
 2515SOL    HW156384   9.881   0.508   6.202
 2515SOL    HW256385   9.941   0.525   6.353
 2516SOL     OW56386   5.841   4.082   2.177
 2516SOL    HW156387   5.928   4.038   2.152
 2516SOL    HW256388   5.854   4.181   2.183
 2517SOL     OW56389  14.391   8.728   0.737
 2517SOL    HW156390  14.489   8.710   0.727
 2517SOL    HW256391  14.372   8.755   0.831
 2518SOL     OW56392   3.797   2.709   8.121
 2518SOL    HW156393   3.738   2.681   8.045
 2518SOL    HW256394   3.867   2.772   8.086
 2519SOL     OW56395  10.830  16.798   8.204
 2519SOL    HW156396  10.796  16.811   8.298
 2519SOL    HW256397  10.870  16.707   8.196
 2520SOL     OW56398   4.778  11.423   1.703
 2520SOL    HW156399   4.686  11.393   1.728
 2520SOL    HW256400   4.828  11.452   1.784
 2521SOL     OW56401  12.554   7.109   7.381
 2521SOL    HW156402  12.487   7.098   7.307
 2521SOL    HW256403  12.643   7.076   7.349
 2522SOL     OW56404   5.894   0.654   7.649
 2522SOL    HW156405   5.807   0.699   7.630
 2522SOL    HW256406   5.879   0.555   7.654
 2523SOL     OW56407   9.764  13.616   1.073
 2523SOL    HW156408   9.833  13.683   1.102
 2523SOL    HW256409   9.810  13.533   1.041
 2524SOL     OW56410   5.468   7.096   0.376
 2524SOL    HW156411   5.495   7.023   0.314
 2524SOL    HW256412   5.402   7.061   0.442
 2525SOL     OW56413  11.540  12.427   8.282
 2525SOL    HW156414  11.453  12.385   8.307
 2525SOL    HW256415  11.557  12.506   8.340
 2526SOL     OW56416  14.122  11.561   2.098
 2526SOL    HW156417  14.192  11.493   2.078
 2526SOL    HW256418  14.050  11.556   2.029
 2527SOL     OW56419   5.962  14.272   0.893
 2527SOL    HW156420   5.944  14.334   0.969
 2527SOL    HW256421   5.986  14.182   0.928
 2528SOL     OW56422   2.908   8.109   0.233
 2528SOL    HW156423   2.892   8.068   0.323
 2528SOL    HW256424   2.955   8.043   0.174
 2529SOL     OW56425  15.343   4.211   1.644
 2529SOL    HW156426  15.439   4.234   1.632
 2529SOL    HW256427  15.329   4.171   1.734
 2530SOL     OW56428  12.827   1.928   6.051
 2530SOL    HW156429  12.906   1.894   6.103
 2530SOL    HW256430  12.769   1.850   6.025
 2531SOL     OW56431  16.246  11.905   0.616
 2531SOL    HW156432  16.190  11.971   0.667
 2531SOL    HW256433  16.283  11.837   0.679
 2532SOL     OW56434   8.773  16.407   0.798
 2532SOL    HW156435   8.841  16.336   0.782
 2532SOL    HW256436   8.732  16.434   0.711
 2533SOL     OW56437  16.260  11.450   1.713
 2533SOL    HW156438  16.313  11.514   1.656
 2533SOL    HW256439  16.253  11.485   1.806
 2534SOL     OW56440   9.508   3.279   6.410
 2534SOL    HW156441   9.528   3.195   6.460
 2534SOL    HW256442   9.528   3.266   6.313
 2535SOL     OW56443  13.291   6.552   5.764
 2535SOL    HW156444  13.208   6.588   5.722
 2535SOL    HW256445  13.357   6.627   5.777
 2536SOL     OW56446   0.069   6.342   6.035
 2536SOL    HW156447   0.155   6.380   6.069
 2536SOL    HW256448   0.057   6.366   5.939
 2537SOL     OW56449   5.033  12.337   7.546
 2537SOL    HW156450   5.000  12.350   7.639
 2537SOL    HW256451   4.956  12.318   7.485
 2538SOL     OW56452   2.272  13.748   8.112
 2538SOL    HW156453   2.233  13.696   8.188
 2538SOL    HW256454   2.277  13.689   8.031
 2539SOL     OW56455   8.188   1.502   6.695
 2539SOL    HW156456   8.153   1.466   6.781
 2539SOL    HW256457   8.113   1.507   6.628
 2540SOL     OW56458   2.242  13.755   0.422
 2540SOL    HW156459   2.173  13.808   0.471
 2540SOL    HW256460   2.301  13.708   0.488
 2541SOL     OW56461  12.978   7.396   7.036
 2541SOL    HW156462  13.012   7.483   7.002
 2541SOL    HW256463  13.004   7.386   7.132
 2542SOL     OW56464   7.106  13.285   7.852
 2542SOL    HW156465   7.194  13.325   7.828
 2542SOL    HW256466   7.042  13.357   7.877
 2543SOL     OW56467  11.769  13.046   0.724
 2543SOL    HW156468  11.819  13.099   0.793
 2543SOL    HW256469  11.707  12.982   0.768
 2544SOL     OW56470   4.233   9.716   0.961
 2544SOL    HW156471   4.202   9.665   1.041
 2544SOL    HW256472   4.323   9.756   0.980
 2545SOL     OW56473   3.789  10.516   0.758
 2545SOL    HW156474   3.762  10.441   0.818
 2545SOL    HW256475   3.861  10.485   0.695
 2546SOL     OW56476   2.453  10.336   8.390
 2546SOL    HW156477   2.500  10.326   0.023
 2546SOL    HW256478   2.505  10.292   8.317
 2547SOL     OW56479   0.720  13.956   1.360
 2547SOL    HW156480   0.641  13.973   1.419
 2547SOL    HW256481   0.772  14.041   1.348
 2548SOL     OW56482   3.281  13.056   0.414
 2548SOL    HW156483   3.330  12.975   0.446
 2548SOL    HW256484   3.198  13.027   0.365
 2549SOL     OW56485  12.420   7.564   1.027
 2549SOL    HW156486  12.482   7.550   1.105
 2549SOL    HW256487  12.416   7.481   0.972
 2550SOL     OW56488  14.753  10.277   6.120
 2550SOL    HW156489  14.780  10.193   6.074
 2550SOL    HW256490  14.830  10.341   6.121
 2551SOL     OW56491  15.871   2.872   0.017
 2551SOL    HW156492  15.774   2.872   8.446
 2551SOL    HW256493  15.881   2.904   0.111
 2552SOL     OW56494  15.353   8.713   1.505
 2552SOL    HW156495  15.334   8.625   1.548
 2552SOL    HW256496  15.358   8.784   1.576
 2553SOL     OW56497  13.345  13.453   1.375
 2553SOL    HW156498  13.434  13.440   1.417
 2553SOL    HW256499  13.339  13.399   1.291
 2554SOL     OW56500  12.292   4.983   0.022
 2554SOL    HW156501  12.360   5.042   8.431
 2554SOL    HW256502  12.308   4.985   0.121
 2555SOL     OW56503  12.753   6.828   1.547
 2555SOL    HW156504  12.664   6.817   1.502
 2555SOL    HW256505  12.779   6.743   1.591
 2556SOL     OW56506   3.548   0.474   0.897
 2556SOL    HW156507   3.495   0.462   0.813
 2556SOL    HW256508   3.638   0.511   0.875
 2557SOL     OW56509   3.645  13.753   1.162
 2557SOL    HW156510   3.652  13.832   1.223
 2557SOL    HW256511   3.673  13.779   1.070
 2558SOL     OW56512   5.607  13.522   6.903
 2558SOL    HW156513   5.702  13.547   6.884
 2558SOL    HW256514   5.546  13.584   6.855
 2559SOL     OW56515   2.849  13.091   7.854
 2559SOL    HW156516   2.920  13.096   7.784
 2559SOL    HW256517   2.882  13.036   7.931
 2560SOL     OW56518  14.879  14.474   1.880
 2560SOL    HW156519  14.784  14.457   1.853
 2560SOL    HW256520  14.941  14.445   1.807
 2561SOL     OW56521  16.618   9.390   6.911
 2561SOL    HW156522  16.566   9.438   6.982
 2561SOL    HW256523  16.555   9.341   6.851
 2562SOL     OW56524   1.722  13.685   1.037
 2562SOL    HW156525   1.775  13.741   0.974
 2562SOL    HW256526   1.676  13.745   1.103
 2563SOL     OW56527   3.107  11.729   7.222
 2563SOL    HW156528   3.106  11.696   7.128
 2563SOL    HW256529   3.191  11.697   7.267
 2564SOL     OW56530   7.822  13.827   7.289
 2564SOL    HW156531   7.877  13.890   7.235
 2564SOL    HW256532   7.860  13.735   7.284
 2565SOL     OW56533  16.701   6.708   0.470
 2565SOL    HW156534  16.761   6.636   0.434
 2565SOL    HW256535  16.734   6.797   0.441
 2566SOL     OW56536  14.455   9.460   7.344
 2566SOL    HW156537  14.486   9.455   7.249
 2566SOL    HW256538  14.526   9.423   7.404
 2567SOL     OW56539   2.323   6.134   1.331
 2567SOL    HW156540   2.294   6.114   1.425
 2567SOL    HW256541   2.273   6.077   1.267
 2568SOL     OW56542  16.308  12.917   2.090
 2568SOL    HW156543  16.248  12.978   2.143
 2568SOL    HW256544  16.289  12.928   1.993
 2569SOL     OW56545   1.343   8.412   2.265
 2569SOL    HW156546   1.266   8.377   2.317
 2569SOL    HW256547   1.313   8.439   2.173
 2570SOL     OW56548   2.040   5.320   1.257
 2570SOL    HW156549   2.118   5.351   1.312
 2570SOL    HW256550   2.070   5.301   1.164
 2571SOL     OW56551  12.769   0.485   8.305
 2571SOL    HW156552  12.689   0.489   8.246
 2571SOL    HW256553  12.772   0.397   8.352
 2572SOL     OW56554   8.427   3.747   0.480
 2572SOL    HW156555   8.460   3.785   0.567
 2572SOL    HW256556   8.492   3.679   0.446
 2573SOL     OW56557   8.013  11.920   0.723
 2573SOL    HW156558   7.936  11.983   0.733
 2573SOL    HW256559   8.091  11.954   0.776
 2574SOL     OW56560   1.747   4.403   0.931
 2574SOL    HW156561   1.801   4.374   1.010
 2574SOL    HW256562   1.651   4.379   0.945
 2575SOL     OW56563  15.530   0.200   7.866
 2575SOL    HW156564  15.602   0.188   7.798
 2575SOL    HW256565  15.445   0.162   7.832
 2576SOL     OW56566   4.651  14.226   6.785
 2576SOL    HW156567   4.721  14.226   6.714
 2576SOL    HW256568   4.562  14.243   6.744
 2577SOL     OW56569  16.296   2.576   6.391
 2577SOL    HW156570  16.343   2.603   6.307
 2577SOL    HW256571  16.297   2.652   6.456
 2578SOL     OW56572   2.231  11.553   1.781
 2578SOL    HW156573   2.279  11.638   1.801
 2578SOL    HW256574   2.135  11.572   1.762
 2579SOL     OW56575   6.083  11.372   1.713
 2579SOL    HW156576   6.144  11.346   1.787
 2579SOL    HW256577   6.060  11.291   1.659
 2580SOL     OW56578  16.775  14.204   0.104
 2580SOL    HW156579  16.838  14.187   0.028
 2580SOL    HW256580  16.706  14.271   0.076
 2581SOL     OW56581  11.282  14.032   0.925
 2581SOL    HW156582  11.318  14.084   0.848
 2581SOL    HW256583  11.354  14.021   0.994
 2582SOL     OW56584   7.298  14.765   7.372
 2582SOL    HW156585   7.217  14.747   7.317
 2582SOL    HW256586   7.373  14.705   7.343
 2583SOL     OW56587  11.299  11.572   6.826
 2583SOL    HW156588  11.274  11.668   6.814
 2583SOL    HW256589  11.321  11.532   6.737
 2584SOL     OW56590  16.270   9.441   8.354
 2584SOL    HW156591  16.322   9.508   8.301
 2584SOL    HW256592  16.311   9.431   8.445
 2585SOL     OW56593   3.569   9.824   8.418
 2585SOL    HW156594   3.494   9.763   8.394
 2585SOL    HW256595   3.570   9.902   8.357
 2586SOL     OW56596   0.878   1.666   0.734
 2586SOL    HW156597   0.921   1.579   0.713
 2586SOL    HW256598   0.842   1.707   0.650
 2587SOL     OW56599  12.459   6.187   0.648
 2587SOL    HW156600  12.523   6.146   0.713
 2587SOL    HW256601  12.383   6.125   0.632
 2588SOL     OW56602  16.016   6.302   0.239
 2588SOL    HW156603  15.966   6.309   0.153
 2588SOL    HW256604  16.005   6.210   0.277
 2589SOL     OW56605  16.452   9.862   1.438
 2589SOL    HW156606  16.529   9.895   1.493
 2589SOL    HW256607  16.384   9.820   1.498
 2590SOL     OW56608   9.786   0.090   0.514
 2590SOL    HW156609   9.872   0.042   0.498
 2590SOL    HW256610   9.785   0.175   0.460
 2591SOL     OW56611   8.644   8.859   1.193
 2591SOL    HW156612   8.582   8.932   1.163
 2591SOL    HW256613   8.605   8.770   1.167
 2592SOL     OW56614  14.487   3.316   8.029
 2592SOL    HW156615  14.482   3.415   8.016
 2592SOL    HW256616  14.404   3.285   8.076
 2593SOL     OW56617   2.902   8.684   7.020
 2593SOL    HW156618   2.915   8.591   7.056
 2593SOL    HW256619   2.905   8.682   6.920
 2594SOL     OW56620  14.397  13.683   8.315
 2594SOL    HW156621  14.349  13.704   8.230
 2594SOL    HW256622  14.480  13.739   8.321
 2595SOL     OW56623   7.666  11.622   0.729
 2595SOL    HW156624   7.632  11.531   0.754
 2595SOL    HW256625   7.747  11.644   0.783
 2596SOL     OW56626   3.269   5.557   0.177
 2596SOL    HW156627   3.250   5.474   0.124
 2596SOL    HW256628   3.183   5.600   0.204
 2597SOL     OW56629   0.484   0.657   8.446
 2597SOL    HW156630   0.471   0.669   0.090
 2597SOL    HW256631   0.568   0.703   8.417
 2598SOL     OW56632  15.742  16.105   8.324
 2598SOL    HW156633  15.712  16.170   8.393
 2598SOL    HW256634  15.816  16.049   8.361
 2599SOL     OW56635   8.573   0.475   6.871
 2599SOL    HW156636   8.510   0.530   6.927
 2599SOL    HW256637   8.667   0.494   6.899
 2600SOL     OW56638   2.978  13.859   1.025
 2600SOL    HW156639   3.009  13.953   1.009
 2600SOL    HW256640   3.009  13.801   0.950
 2601SOL     OW56641   6.075  10.207   1.790
 2601SOL    HW156642   6.094  10.187   1.886
 2601SOL    HW256643   6.017  10.288   1.783
 2602SOL     OW56644  14.375   9.589   1.501
 2602SOL    HW156645  14.302   9.522   1.512
 2602SOL    HW256646  14.344   9.677   1.537
 2603SOL     OW56647   8.736  12.188   7.086
 2603SOL    HW156648   8.769  12.109   7.035
 2603SOL    HW256649   8.812  12.249   7.107
 2604SOL     OW56650   4.994   2.967   0.507
 2604SOL    HW156651   5.055   3.044   0.491
 2604SOL    HW256652   4.932   2.957   0.429
 2605SOL     OW56653  13.031  12.956   8.204
 2605SOL    HW156654  13.001  12.863   8.225
 2605SOL    HW256655  13.079  12.994   8.284
 2606SOL     OW56656  10.225   1.247   7.085
 2606SOL    HW156657  10.325   1.237   7.088
 2606SOL    HW256658  10.202   1.340   7.055
 2607SOL     OW56659  11.682  16.097   0.812
 2607SOL    HW156660  11.694  16.107   0.713
 2607SOL    HW256661  11.738  16.164   0.860
 2608SOL     OW56662   9.999   9.078   6.874
 2608SOL    HW156663   9.951   9.008   6.821
 2608SOL    HW256664  10.097   9.072   6.857
 2609SOL     OW56665   5.246  16.156   1.478
 2609SOL    HW156666   5.313  16.227   1.502
 2609SOL    HW256667   5.165  16.165   1.536
 2610SOL     OW56668  13.544   5.634   6.319
 2610SOL    HW156669  13.623   5.665   6.372
 2610SOL    HW256670  13.556   5.537   6.295
 2611SOL     OW56671   7.274  10.497   7.839
 2611SOL    HW156672   7.356  10.510   7.895
 2611SOL    HW256673   7.195  10.484   7.898
 2612SOL     OW56674   7.666  12.203   6.541
 2612SOL    HW156675   7.739  12.270   6.554
 2612SOL    HW256676   7.664  12.174   6.445
 2613SOL     OW56677  14.420   8.915   8.031
 2613SOL    HW156678  14.382   8.884   8.118
 2613SOL    HW256679  14.482   8.992   8.047
 2614SOL     OW56680   7.119  16.152   6.751
 2614SOL    HW156681   7.023  16.126   6.748
 2614SOL    HW256682   7.166  16.116   6.670
 2615SOL     OW56683  15.829  11.770   0.220
 2615SOL    HW156684  15.736  11.795   0.250
 2615SOL    HW256685  15.896  11.819   0.277
 2616SOL     OW56686  15.349   5.261   1.730
 2616SOL    HW156687  15.343   5.229   1.825
 2616SOL    HW256688  15.436   5.229   1.690
 2617SOL     OW56689  10.342  12.828   0.156
 2617SOL    HW156690  10.354  12.919   0.117
 2617SOL    HW256691  10.267  12.830   0.223
 2618SOL     OW56692   6.050  13.450   1.561
 2618SOL    HW156693   6.059  13.387   1.483
 2618SOL    HW256694   5.959  13.490   1.560
 2619SOL     OW56695   6.472   3.614   7.949
 2619SOL    HW156696   6.375   3.605   7.929
 2619SOL    HW256697   6.523   3.545   7.898
 2620SOL     OW56698  12.066   7.729   0.741
 2620SOL    HW156699  12.064   7.638   0.699
 2620SOL    HW256700  11.994   7.734   0.810
 2621SOL     OW56701   9.692   8.548   8.095
 2621SOL    HW156702   9.728   8.499   8.016
 2621SOL    HW256703   9.631   8.489   8.147
 2622SOL     OW56704   5.134   5.860   8.020
 2622SOL    HW156705   5.214   5.898   8.066
 2622SOL    HW256706   5.164   5.803   7.943
 2623SOL     OW56707   6.622  13.522   0.673
 2623SOL    HW156708   6.679  13.520   0.591
 2623SOL    HW256709   6.527  13.504   0.648
 2624SOL     OW56710  15.864  12.339   2.055
 2624SOL    HW156711  15.789  12.380   2.109
 2624SOL    HW256712  15.826  12.271   1.992
 2625SOL     OW56713  16.366  12.361   1.416
 2625SOL    HW156714  16.320  12.373   1.504
 2625SOL    HW256715  16.465  12.371   1.428
 2626SOL     OW56716  16.744   4.526   1.378
 2626SOL    HW156717  16.826   4.567   1.419
 2626SOL    HW256718  16.767   4.486   1.290
 2627SOL     OW56719   5.563   1.192   8.054
 2627SOL    HW156720   5.591   1.265   7.992
 2627SOL    HW256721   5.494   1.226   8.118
 2628SOL     OW56722   7.976  12.446   7.083
 2628SOL    HW156723   7.953  12.456   6.986
 2628SOL    HW256724   7.933  12.363   7.119
 2629SOL     OW56725  13.731  14.722   1.974
 2629SOL    HW156726  13.760  14.716   2.070
 2629SOL    HW256727  13.637  14.755   1.971
 2630SOL     OW56728  14.151   9.838   6.983
 2630SOL    HW156729  14.248   9.860   6.998
 2630SOL    HW256730  14.095   9.919   7.004
 2631SOL     OW56731   2.172   1.747   1.205
 2631SOL    HW156732   2.136   1.840   1.204
 2631SOL    HW256733   2.146   1.701   1.120
 2632SOL     OW56734   1.261   7.209   6.284
 2632SOL    HW156735   1.290   7.304   6.287
 2632SOL    HW256736   1.284   7.170   6.195
 2633SOL     OW56737   9.080  16.685   0.524
 2633SOL    HW156738   9.114  16.766   0.475
 2633SOL    HW256739   8.981  16.688   0.527
 2634SOL     OW56740   2.149   9.994   2.432
 2634SOL    HW156741   2.227  10.032   2.482
 2634SOL    HW256742   2.069   9.993   2.491
 2635SOL     OW56743   4.198   2.029   8.311
 2635SOL    HW156744   4.176   2.015   8.407
 2635SOL    HW256745   4.292   2.001   8.293
 2636SOL     OW56746  16.572  13.687   1.547
 2636SOL    HW156747  16.640  13.666   1.477
 2636SOL    HW256748  16.539  13.781   1.534
 2637SOL     OW56749   5.807   3.036   7.090
 2637SOL    HW156750   5.755   3.028   7.176
 2637SOL    HW256751   5.819   3.133   7.067
 2638SOL     OW56752   2.788   6.042   8.345
 2638SOL    HW156753   2.863   5.985   8.380
 2638SOL    HW256754   2.738   5.991   8.275
 2639SOL     OW56755   8.261   8.701   6.740
 2639SOL    HW156756   8.187   8.638   6.762
 2639SOL    HW256757   8.260   8.778   6.804
 2640SOL     OW56758   6.147   7.692   7.814
 2640SOL    HW156759   6.170   7.670   7.720
 2640SOL    HW256760   6.215   7.757   7.850
 2641SOL     OW56761  15.946   3.064   1.293
 2641SOL    HW156762  15.927   2.995   1.363
 2641SOL    HW256763  15.881   3.140   1.302
 2642SOL     OW56764  14.651  16.933   0.869
 2642SOL    HW156765  14.557  16.934   0.835
 2642SOL    HW256766  14.711  16.979   0.803
 2643SOL     OW56767  15.354   2.316   8.226
 2643SOL    HW156768  15.387   2.266   8.306
 2643SOL    HW256769  15.430   2.368   8.186
 2644SOL     OW56770   5.410   2.164   1.059
 2644SOL    HW156771   5.436   2.067   1.055
 2644SOL    HW256772   5.318   2.175   1.022
 2645SOL     OW56773  15.684   9.911   2.142
 2645SOL    HW156774  15.718   9.820   2.164
 2645SOL    HW256775  15.681   9.922   2.043
 2646SOL     OW56776  16.717  11.548   0.738
 2646SOL    HW156777  16.656  11.574   0.813
 2646SOL    HW256778  16.787  11.484   0.773
 2647SOL     OW56779   2.546   1.424   8.190
 2647SOL    HW156780   2.549   1.518   8.225
 2647SOL    HW256781   2.457   1.384   8.209
 2648SOL     OW56782   1.548  15.990   6.620
 2648SOL    HW156783   1.515  15.991   6.525
 2648SOL    HW256784   1.610  15.913   6.633
 2649SOL     OW56785   7.253   7.369   0.592
 2649SOL    HW156786   7.264   7.334   0.685
 2649SOL    HW256787   7.180   7.319   0.546
 2650SOL     OW56788   6.831  12.008   7.912
 2650SOL    HW156789   6.884  11.947   7.971
 2650SOL    HW256790   6.889  12.040   7.836
 2651SOL     OW56791   7.870   4.136   6.421
 2651SOL    HW156792   7.842   4.061   6.361
 2651SOL    HW256793   7.884   4.219   6.367
 2652SOL     OW56794  11.721   0.246   0.593
 2652SOL    HW156795  11.727   0.146   0.595
 2652SOL    HW256796  11.813   0.284   0.579
 2653SOL     OW56797  11.672   8.657   0.201
 2653SOL    HW156798  11.728   8.596   0.144
 2653SOL    HW256799  11.599   8.696   0.146
 2654SOL     OW56800   5.483  14.098   8.033
 2654SOL    HW156801   5.461  14.141   8.121
 2654SOL    HW256802   5.551  14.152   7.985
 2655SOL     OW56803  15.032   7.514   1.458
 2655SOL    HW156804  15.068   7.600   1.422
 2655SOL    HW256805  14.932   7.517   1.458
 2656SOL     OW56806  11.562   1.474   7.833
 2656SOL    HW156807  11.469   1.503   7.810
 2656SOL    HW256808  11.585   1.392   7.779
 2657SOL     OW56809  12.179   2.966   8.428
 2657SOL    HW156810  12.186   2.955   8.329
 2657SOL    HW256811  12.083   2.953   0.001
 2658SOL     OW56812   4.857  10.675   8.216
 2658SOL    HW156813   4.940  10.624   8.196
 2658SOL    HW256814   4.842  10.745   8.147
 2659SOL     OW56815   0.645  12.700   7.084
 2659SOL    HW156816   0.636  12.612   7.131
 2659SOL    HW256817   0.632  12.687   6.986
 2660SOL     OW56818   0.909   0.676   6.269
 2660SOL    HW156819   0.852   0.616   6.213
 2660SOL    HW256820   0.895   0.771   6.241
 2661SOL     OW56821   9.086   1.216   6.905
 2661SOL    HW156822   9.137   1.224   6.991
 2661SOL    HW256823   9.085   1.304   6.859
 2662SOL     OW56824  10.038  13.002   1.625
 2662SOL    HW156825  10.065  13.012   1.720
 2662SOL    HW256826   9.969  13.071   1.602
 2663SOL     OW56827  16.856  12.911   2.765
 2663SOL    HW156828  16.770  12.945   2.726
 2663SOL    HW256829  16.869  12.816   2.738
 2664SOL     OW56830   3.942   8.988   7.977
 2664SOL    HW156831   3.863   8.983   7.915
 2664SOL    HW256832   3.980   8.897   7.989
 2665SOL     OW56833   9.705  12.228   8.080
 2665SOL    HW156834   9.614  12.260   8.107
 2665SOL    HW256835   9.703  12.129   8.068
 2666SOL     OW56836  10.185  14.392   1.143
 2666SOL    HW156837  10.121  14.318   1.124
 2666SOL    HW256838  10.276  14.354   1.162
 2667SOL     OW56839   4.358   8.928   7.110
 2667SOL    HW156840   4.336   9.025   7.112
 2667SOL    HW256841   4.342   8.892   7.018
 2668SOL     OW56842  14.653  16.118   7.503
 2668SOL    HW156843  14.617  16.109   7.596
 2668SOL    HW256844  14.601  16.188   7.454
 2669SOL     OW56845   7.840   4.464   7.351
 2669SOL    HW156846   7.893   4.500   7.275
 2669SOL    HW256847   7.821   4.367   7.336
 2670SOL     OW56848   7.277  10.049   1.206
 2670SOL    HW156849   7.299   9.987   1.281
 2670SOL    HW256850   7.318  10.015   1.122
 2671SOL     OW56851   0.566  16.170   1.803
 2671SOL    HW156852   0.535  16.180   1.898
 2671SOL    HW256853   0.487  16.176   1.742
 2672SOL     OW56854   8.264  14.800   1.796
 2672SOL    HW156855   8.286  14.750   1.880
 2672SOL    HW256856   8.349  14.824   1.749
 2673SOL     OW56857   7.625  14.211   7.280
 2673SOL    HW156858   7.720  14.224   7.252
 2673SOL    HW256859   7.606  14.114   7.291
 2674SOL     OW56860   1.750  11.842   1.038
 2674SOL    HW156861   1.657  11.877   1.048
 2674SOL    HW256862   1.809  11.884   1.107
 2675SOL     OW56863   3.465   5.070   1.348
 2675SOL    HW156864   3.544   5.028   1.393
 2675SOL    HW256865   3.388   5.006   1.350
 2676SOL     OW56866   7.689  16.113   6.490
 2676SOL    HW156867   7.689  16.042   6.419
 2676SOL    HW256868   7.646  16.196   6.454
 2677SOL     OW56869   1.321  13.041   7.406
 2677SOL    HW156870   1.230  13.059   7.443
 2677SOL    HW256871   1.323  13.065   7.309
 2678SOL     OW56872   6.561  12.975   0.178
 2678SOL    HW156873   6.485  12.975   0.113
 2678SOL    HW256874   6.525  12.971   0.271
 2679SOL     OW56875  13.120   6.972   0.259
 2679SOL    HW156876  13.070   7.010   0.181
 2679SOL    HW256877  13.126   6.872   0.249
 2680SOL     OW56878   3.703   2.155   7.157
 2680SOL    HW156879   3.687   2.089   7.083
 2680SOL    HW256880   3.623   2.215   7.166
 2681SOL     OW56881  16.244   1.050   5.976
 2681SOL    HW156882  16.297   0.973   6.011
 2681SOL    HW256883  16.307   1.123   5.947
 2682SOL     OW56884  12.227   1.365   1.805
 2682SOL    HW156885  12.298   1.296   1.823
 2682SOL    HW256886  12.153   1.354   1.871
 2683SOL     OW56887   6.883   0.221   8.364
 2683SOL    HW156888   6.965   0.178   8.328
 2683SOL    HW256889   6.849   0.168   8.442
 2684SOL     OW56890   0.339   7.663   0.897
 2684SOL    HW156891   0.303   7.677   0.990
 2684SOL    HW256892   0.439   7.661   0.900
 2685SOL     OW56893  15.726   3.596   7.048
 2685SOL    HW156894  15.816   3.620   7.083
 2685SOL    HW256895  15.678   3.540   7.116
 2686SOL     OW56896  10.761   3.496   1.579
 2686SOL    HW156897  10.806   3.407   1.574
 2686SOL    HW256898  10.670   3.489   1.537
 2687SOL     OW56899   8.768   6.044   6.486
 2687SOL    HW156900   8.863   6.013   6.490
 2687SOL    HW256901   8.724   6.004   6.405
 2688SOL     OW56902  11.474  13.402   6.830
 2688SOL    HW156903  11.525  13.475   6.874
 2688SOL    HW256904  11.535  13.325   6.810
 2689SOL     OW56905   0.915  13.323   7.434
 2689SOL    HW156906   0.960  13.411   7.419
 2689SOL    HW256907   0.844  13.309   7.365
 2690SOL     OW56908  14.297   7.722   6.586
 2690SOL    HW156909  14.255   7.807   6.619
 2690SOL    HW256910  14.285   7.715   6.487
 2691SOL     OW56911   0.086  13.332   7.321
 2691SOL    HW156912   0.182  13.324   7.293
 2691SOL    HW256913   0.064  13.259   7.385
 2692SOL     OW56914  13.547   1.315   7.508
 2692SOL    HW156915  13.630   1.342   7.556
 2692SOL    HW256916  13.531   1.377   7.431
 2693SOL     OW56917   7.797   1.029   7.023
 2693SOL    HW156918   7.740   0.947   7.019
 2693SOL    HW256919   7.740   1.110   7.007
 2694SOL     OW56920   4.115  15.997   0.701
 2694SOL    HW156921   4.131  16.082   0.651
 2694SOL    HW256922   4.100  16.017   0.798
 2695SOL     OW56923   7.779  12.660   7.822
 2695SOL    HW156924   7.701  12.668   7.883
 2695SOL    HW256925   7.781  12.569   7.781
 2696SOL     OW56926   6.027  14.447   7.632
 2696SOL    HW156927   6.125  14.425   7.636
 2696SOL    HW256928   5.977  14.368   7.596
 2697SOL     OW56929   5.566  15.064   0.320
 2697SOL    HW156930   5.589  14.972   0.287
 2697SOL    HW256931   5.565  15.064   0.420
 2698SOL     OW56932  15.499   8.470   6.788
 2698SOL    HW156933  15.477   8.463   6.886
 2698SOL    HW256934  15.524   8.380   6.754
 2699SOL     OW56935  16.681   9.959   7.879
 2699SOL    HW156936  16.630  10.045   7.869
 2699SOL    HW256937  16.621   9.882   7.857
 2700SOL     OW56938   2.826   5.951   1.413
 2700SOL    HW156939   2.732   5.985   1.416
 2700SOL    HW256940   2.864   5.951   1.505
 2701SOL     OW56941   7.385  13.170   8.395
 2701SOL    HW156942   7.433  13.096   8.443
 2701SOL    HW256943   7.446  13.249   8.386
 2702SOL     OW56944   2.896  15.294   7.087
 2702SOL    HW156945   2.840  15.314   7.007
 2702SOL    HW256946   2.876  15.202   7.120
 2703SOL     OW56947  15.258  10.062   0.034
 2703SOL    HW156948  15.243  10.059   8.389
 2703SOL    HW256949  15.212  10.142   0.071
 2704SOL     OW56950  13.338  16.427   7.310
 2704SOL    HW156951  13.264  16.458   7.250
 2704SOL    HW256952  13.395  16.505   7.335
 2705SOL     OW56953  11.376   8.516   7.764
 2705SOL    HW156954  11.278   8.532   7.777
 2705SOL    HW256955  11.420   8.601   7.733
 2706SOL     OW56956   5.318  11.835   7.404
 2706SOL    HW156957   5.350  11.805   7.494
 2706SOL    HW256958   5.385  11.896   7.363
 2707SOL     OW56959   2.787  13.335   8.142
 2707SOL    HW156960   2.803  13.313   8.046
 2707SOL    HW256961   2.874  13.338   8.191
 2708SOL     OW56962  12.982   5.887   6.519
 2708SOL    HW156963  12.993   5.902   6.421
 2708SOL    HW256964  12.888   5.862   6.539
 2709SOL     OW56965   9.453   2.308   0.957
 2709SOL    HW156966   9.470   2.390   0.902
 2709SOL    HW256967   9.425   2.336   1.049
 2710SOL     OW56968  13.710   3.852   8.005
 2710SOL    HW156969  13.724   3.897   7.916
 2710SOL    HW256970  13.767   3.770   8.010
 2711SOL     OW56971  13.414   5.714   6.874
 2711SOL    HW156972  13.394   5.772   6.796
 2711SOL    HW256973  13.498   5.663   6.858
 2712SOL     OW56974  14.408   6.569   1.506
 2712SOL    HW156975  14.428   6.483   1.459
 2712SOL    HW256976  14.487   6.595   1.562
 2713SOL     OW56977   8.522  11.376   1.460
 2713SOL    HW156978   8.535  11.331   1.372
 2713SOL    HW256979   8.611  11.404   1.497
 2714SOL     OW56980   7.565   2.615   7.558
 2714SOL    HW156981   7.532   2.580   7.646
 2714SOL    HW256982   7.512   2.574   7.484
 2715SOL     OW56983  14.474   7.175   6.875
 2715SOL    HW156984  14.550   7.173   6.940
 2715SOL    HW256985  14.483   7.100   6.811
 2716SOL     OW56986   6.900   7.301   2.086
 2716SOL    HW156987   6.965   7.229   2.112
 2716SOL    HW256988   6.948   7.389   2.084
 2717SOL     OW56989   6.629  10.977   8.070
 2717SOL    HW156990   6.706  10.998   8.010
 2717SOL    HW256991   6.608  10.879   8.065
 2718SOL     OW56992  15.247   2.055   7.430
 2718SOL    HW156993  15.301   2.136   7.451
 2718SOL    HW256994  15.265   2.026   7.336
 2719SOL     OW56995   6.787   7.352   6.693
 2719SOL    HW156996   6.773   7.438   6.642
 2719SOL    HW256997   6.840   7.289   6.637
 2720SOL     OW56998  13.893   0.590   7.574
 2720SOL    HW156999  13.906   0.577   7.672
 2720SOL    HW257000  13.978   0.568   7.525
 2721SOL     OW57001  15.326   9.789   8.241
 2721SOL    HW157002  15.246   9.828   8.195
 2721SOL    HW257003  15.406   9.846   8.222
 2722SOL     OW57004  12.052  12.414   7.806
 2722SOL    HW157005  12.123  12.346   7.823
 2722SOL    HW257006  11.971  12.369   7.769
 2723SOL     OW57007  15.497   6.244   7.531
 2723SOL    HW157008  15.488   6.232   7.630
 2723SOL    HW257009  15.495   6.342   7.510
 2724SOL     OW57010   4.448  10.651   7.471
 2724SOL    HW157011   4.412  10.706   7.547
 2724SOL    HW257012   4.546  10.638   7.484
 2725SOL     OW57013   7.484   2.735   8.248
 2725SOL    HW157014   7.470   2.807   8.180
 2725SOL    HW257015   7.451   2.767   8.337
 2726SOL     OW57016  10.546   3.025   1.268
 2726SOL    HW157017  10.617   3.024   1.197
 2726SOL    HW257018  10.567   3.097   1.334
 2727SOL     OW57019  16.574   8.291   7.235
 2727SOL    HW157020  16.597   8.241   7.152
 2727SOL    HW257021  16.506   8.239   7.288
 2728SOL     OW57022   5.396   3.715   6.369
 2728SOL    HW157023   5.389   3.655   6.288
 2728SOL    HW257024   5.333   3.792   6.359
 2729SOL     OW57025   6.954  10.633   7.507
 2729SOL    HW157026   7.012  10.696   7.558
 2729SOL    HW257027   6.861  10.669   7.502
 2730SOL     OW57028   8.438  14.588   6.556
 2730SOL    HW157029   8.354  14.637   6.579
 2730SOL    HW257030   8.453  14.592   6.457
 2731SOL     OW57031   7.573   8.647   8.331
 2731SOL    HW157032   7.634   8.586   8.280
 2731SOL    HW257033   7.511   8.592   8.387
 2732SOL     OW57034   4.949   7.871   0.579
 2732SOL    HW157035   4.949   7.940   0.507
 2732SOL    HW257036   4.985   7.910   0.663
 2733SOL     OW57037   9.657  14.183   0.681
 2733SOL    HW157038   9.680  14.187   0.584
 2733SOL    HW257039   9.577  14.124   0.694
 2734SOL     OW57040  12.334   6.068   8.028
 2734SOL    HW157041  12.380   6.042   8.113
 2734SOL    HW257042  12.266   6.139   8.047
 2735SOL     OW57043  10.404  10.096   0.079
 2735SOL    HW157044  10.366  10.075   8.443
 2735SOL    HW257045  10.472  10.169   0.070
 2736SOL     OW57046   0.013   4.259   8.298
 2736SOL    HW157047   0.008   4.331   8.368
 2736SOL    HW257048  16.904   4.239   8.265
 2737SOL     OW57049   2.135   7.730   0.905
 2737SOL    HW157050   2.064   7.768   0.964
 2737SOL    HW257051   2.184   7.804   0.859
 2738SOL     OW57052  11.377  14.178   0.716
 2738SOL    HW157053  11.439  14.256   0.728
 2738SOL    HW257054  11.287  14.211   0.688
 2739SOL     OW57055  13.366   0.014   7.443
 2739SOL    HW157056  13.366   0.114   7.437
 2739SOL    HW257057  13.320  16.969   7.527
 2740SOL     OW57058  12.198   5.325   8.147
 2740SOL    HW157059  12.178   5.282   8.235
 2740SOL    HW257060  12.225   5.420   8.161
 2741SOL     OW57061  11.677   6.609   0.171
 2741SOL    HW157062  11.732   6.659   0.239
 2741SOL    HW257063  11.625   6.675   0.116
 2742SOL     OW57064   8.216  10.512   8.049
 2742SOL    HW157065   8.129  10.557   8.029
 2742SOL    HW257066   8.270  10.504   7.965
 2743SOL     OW57067   7.276  15.025   0.876
 2743SOL    HW157068   7.217  15.055   0.951
 2743SOL    HW257069   7.222  14.974   0.809
 2744SOL     OW57070  15.119  12.325   8.397
 2744SOL    HW157071  15.138  12.238   8.444
 2744SOL    HW257072  15.110  12.398   0.010
 2745SOL     OW57073   9.099  10.127   0.202
 2745SOL    HW157074   9.112  10.225   0.221
 2745SOL    HW257075   9.158  10.074   0.263
 2746SOL     OW57076  16.096   7.118   8.207
 2746SOL    HW157077  15.996   7.109   8.200
 2746SOL    HW257078  16.130   7.164   8.125
 2747SOL     OW57079  10.930  13.770   1.749
 2747SOL    HW157080  10.918  13.781   1.650
 2747SOL    HW257081  10.853  13.718   1.786
 2748SOL     OW57082  16.505   8.797   1.047
 2748SOL    HW157083  16.575   8.867   1.037
 2748SOL    HW257084  16.474   8.767   0.957
 2749SOL     OW57085   8.113   9.562   6.423
 2749SOL    HW157086   8.111   9.571   6.324
 2749SOL    HW257087   8.118   9.465   6.448
 2750SOL     OW57088  10.389   2.008   1.408
 2750SOL    HW157089  10.383   1.911   1.431
 2750SOL    HW257090  10.470   2.047   1.451
 2751SOL     OW57091   2.004  13.110   7.864
 2751SOL    HW157092   2.061  13.047   7.918
 2751SOL    HW257093   2.059  13.189   7.836
 2752SOL     OW57094   0.962  11.951   0.217
 2752SOL    HW157095   0.932  12.022   0.280
 2752SOL    HW257096   1.010  11.879   0.268
 2753SOL     OW57097  14.118   2.880   6.376
 2753SOL    HW157098  14.074   2.791   6.367
 2753SOL    HW257099  14.055   2.952   6.347
 2754SOL     OW57100   1.368   2.637   1.101
 2754SOL    HW157101   1.327   2.570   1.163
 2754SOL    HW257102   1.375   2.597   1.010
 2755SOL     OW57103  16.156  16.728   1.036
 2755SOL    HW157104  16.118  16.637   1.022
 2755SOL    HW257105  16.209  16.729   1.121
 2756SOL     OW57106   4.049   7.784   0.826
 2756SOL    HW157107   4.144   7.790   0.857
 2756SOL    HW257108   3.993   7.743   0.898
 2757SOL     OW57109   7.219   7.112   6.908
 2757SOL    HW157110   7.208   7.152   6.817
 2757SOL    HW257111   7.128   7.094   6.947
 2758SOL     OW57112  13.057  11.543   1.442
 2758SOL    HW157113  13.076  11.479   1.517
 2758SOL    HW257114  13.042  11.635   1.480
 2759SOL     OW57115   4.675   5.034   0.210
 2759SOL    HW157116   4.613   5.075   0.143
 2759SOL    HW257117   4.764   5.016   0.167
 2760SOL     OW57118   3.652   3.209   1.459
 2760SOL    HW157119   3.686   3.290   1.508
 2760SOL    HW257120   3.717   3.134   1.469
 2761SOL     OW57121   4.121   6.062   0.497
 2761SOL    HW157122   4.045   6.126   0.509
 2761SOL    HW257123   4.110   6.013   0.411
 2762SOL     OW57124   2.229   2.768   7.630
 2762SOL    HW157125   2.175   2.838   7.583
 2762SOL    HW257126   2.267   2.806   7.714
 2763SOL     OW57127   0.064  12.773   8.435
 2763SOL    HW157128   0.053  12.680   8.399
 2763SOL    HW257129   0.139  12.773   0.048
 2764SOL     OW57130   2.960   9.798   7.121
 2764SOL    HW157131   2.903   9.864   7.072
 2764SOL    HW257132   2.987   9.836   7.210
 2765SOL     OW57133  11.235  16.334   1.638
 2765SOL    HW157134  11.220  16.270   1.714
 2765SOL    HW257135  11.171  16.410   1.645
 2766SOL     OW57136   9.793   8.656   1.534
 2766SOL    HW157137   9.880   8.640   1.487
 2766SOL    HW257138   9.811   8.685   1.628
 2767SOL     OW57139   1.843  11.301   7.222
 2767SOL    HW157140   1.826  11.330   7.317
 2767SOL    HW257141   1.762  11.255   7.187
 2768SOL     OW57142  16.040  11.174   7.585
 2768SOL    HW157143  16.079  11.136   7.501
 2768SOL    HW257144  16.092  11.256   7.611
 2769SOL     OW57145   8.139   6.333   6.853
 2769SOL    HW157146   8.101   6.409   6.802
 2769SOL    HW257147   8.227   6.360   6.893
 2770SOL     OW57148   8.169   6.963   0.597
 2770SOL    HW157149   8.193   6.905   0.519
 2770SOL    HW257150   8.072   6.984   0.595
 2771SOL     OW57151   5.751   4.614   0.061
 2771SOL    HW157152   5.676   4.549   0.044
 2771SOL    HW257153   5.744   4.648   0.155
 2772SOL     OW57154  16.023  15.099   8.360
 2772SOL    HW157155  15.969  15.155   8.297
 2772SOL    HW257156  16.108  15.146   8.383
 2773SOL     OW57157   3.578   7.735   7.971
 2773SOL    HW157158   3.554   7.651   7.921
 2773SOL    HW257159   3.644   7.712   8.043
 2774SOL     OW57160  15.909   9.094   8.269
 2774SOL    HW157161  15.860   9.017   8.228
 2774SOL    HW257162  15.911   9.170   8.204
 2775SOL     OW57163   0.708  12.327   7.001
 2775SOL    HW157164   0.645  12.352   6.927
 2775SOL    HW257165   0.785  12.276   6.963
 2776SOL     OW57166   0.991  15.273   7.505
 2776SOL    HW157167   0.945  15.259   7.418
 2776SOL    HW257168   0.926  15.257   7.580
 2777SOL     OW57169   0.186  10.588   0.770
 2777SOL    HW157170   0.161  10.495   0.742
 2777SOL    HW257171   0.109  10.649   0.753
 2778SOL     OW57172   2.841   2.173   0.341
 2778SOL    HW157173   2.806   2.197   0.250
 2778SOL    HW257174   2.940   2.184   0.343
 2779SOL     OW57175  14.600  10.951   0.717
 2779SOL    HW157176  14.681  10.914   0.672
 2779SOL    HW257177  14.527  10.962   0.649
 2780SOL     OW57178   3.379   4.304   0.922
 2780SOL    HW157179   3.476   4.305   0.900
 2780SOL    HW257180   3.363   4.238   0.996
 2781SOL     OW57181  10.978  10.257   1.615
 2781SOL    HW157182  11.067  10.238   1.573
 2781SOL    HW257183  10.921  10.176   1.613
 2782SOL     OW57184   8.105   0.422   0.212
 2782SOL    HW157185   8.054   0.471   0.142
 2782SOL    HW257186   8.056   0.340   0.239
 2783SOL     OW57187   5.670  13.598   1.255
 2783SOL    HW157188   5.648  13.635   1.165
 2783SOL    HW257189   5.593  13.545   1.290
 2784SOL     OW57190  11.231  11.093   2.604
 2784SOL    HW157191  11.325  11.110   2.631
 2784SOL    HW257192  11.203  11.002   2.633
 2785SOL     OW57193   1.403  14.492   0.413
 2785SOL    HW157194   1.370  14.555   0.483
 2785SOL    HW257195   1.494  14.459   0.438
 2786SOL     OW57196   0.083   1.314   0.674
 2786SOL    HW157197  16.967   1.309   0.672
 2786SOL    HW257198   0.117   1.345   0.585
 2787SOL     OW57199   0.962  13.151   0.244
 2787SOL    HW157200   0.880  13.117   0.199
 2787SOL    HW257201   0.938  13.229   0.302
 2788SOL     OW57202   1.230  14.770   0.820
 2788SOL    HW157203   1.156  14.837   0.818
 2788SOL    HW257204   1.192  14.679   0.834
 2789SOL     OW57205  13.009   7.071   8.210
 2789SOL    HW157206  13.087   7.011   8.231
 2789SOL    HW257207  13.036   7.137   8.140
 2790SOL     OW57208   4.077   1.516   8.122
 2790SOL    HW157209   4.148   1.469   8.174
 2790SOL    HW257210   4.118   1.594   8.074
 2791SOL     OW57211  13.062   7.134   0.481
 2791SOL    HW157212  13.080   7.068   0.408
 2791SOL    HW257213  13.021   7.217   0.442
 2792SOL     OW57214  14.949   0.472   7.981
 2792SOL    HW157215  14.887   0.395   7.995
 2792SOL    HW257216  15.029   0.461   8.040
 2793SOL     OW57217   8.819   9.246   1.398
 2793SOL    HW157218   8.745   9.245   1.466
 2793SOL    HW257219   8.786   9.292   1.315
 2794SOL     OW57220  14.480   4.517   7.304
 2794SOL    HW157221  14.400   4.550   7.353
 2794SOL    HW257222  14.528   4.449   7.359
 2795SOL     OW57223   2.648   6.280   1.589
 2795SOL    HW157224   2.748   6.276   1.598
 2795SOL    HW257225   2.609   6.195   1.624
 2796SOL     OW57226  15.529   7.136   1.029
 2796SOL    HW157227  15.627   7.144   1.048
 2796SOL    HW257228  15.479   7.128   1.115
 2797SOL     OW57229   3.713   2.082   0.796
 2797SOL    HW157230   3.810   2.106   0.808
 2797SOL    HW257231   3.704   2.016   0.722
 2798SOL     OW57232   9.504   4.862   1.247
 2798SOL    HW157233   9.579   4.814   1.293
 2798SOL    HW257234   9.420   4.810   1.257
 2799SOL     OW57235  13.181   6.474   7.794
 2799SOL    HW157236  13.194   6.573   7.782
 2799SOL    HW257237  13.139   6.436   7.712
 2800SOL     OW57238  15.830   9.213   7.378
 2800SOL    HW157239  15.761   9.141   7.381
 2800SOL    HW257240  15.885   9.211   7.462
 2801SOL     OW57241  15.985   6.808   1.415
 2801SOL    HW157242  16.026   6.847   1.498
 2801SOL    HW257243  15.893   6.777   1.435
 2802SOL     OW57244   1.647   9.314   7.551
 2802SOL    HW157245   1.575   9.380   7.571
 2802SOL    HW257246   1.670   9.318   7.453
 2803SOL     OW57247   7.107  16.917   0.528
 2803SOL    HW157248   7.052   0.016   0.541
 2803SOL    HW257249   7.162  16.927   0.446
 2804SOL     OW57250   6.017  13.990   0.439
 2804SOL    HW157251   6.061  14.076   0.413
 2804SOL    HW257252   6.023  13.978   0.538
 2805SOL     OW57253   1.208   1.201   0.816
 2805SOL    HW157254   1.240   1.277   0.758
 2805SOL    HW257255   1.122   1.166   0.780
 2806SOL     OW57256   9.419   8.641   6.913
 2806SOL    HW157257   9.361   8.658   6.833
 2806SOL    HW257258   9.384   8.695   6.990
 2807SOL     OW57259  14.675   0.803   0.842
 2807SOL    HW157260  14.717   0.878   0.893
 2807SOL    HW257261  14.596   0.769   0.893
 2808SOL     OW57262  15.299   6.950   0.654
 2808SOL    HW157263  15.382   6.926   0.706
 2808SOL    HW257264  15.222   6.959   0.717
 2809SOL     OW57265  13.128  12.968   0.713
 2809SOL    HW157266  13.063  12.912   0.764
 2809SOL    HW257267  13.158  13.044   0.771
 2810SOL     OW57268  12.921  16.547   6.544
 2810SOL    HW157269  12.888  16.495   6.465
 2810SOL    HW257270  12.956  16.484   6.614
 2811SOL     OW57271  13.624   8.686   7.446
 2811SOL    HW157272  13.689   8.708   7.519
 2811SOL    HW257273  13.671   8.635   7.373
 2812SOL     OW57274   8.665   6.794   8.209
 2812SOL    HW157275   8.662   6.704   8.165
 2812SOL    HW257276   8.629   6.862   8.146
 2813SOL     OW57277   6.976   6.244   7.528
 2813SOL    HW157278   6.974   6.218   7.624
 2813SOL    HW257279   6.953   6.341   7.518
 2814SOL     OW57280   5.874  16.525   2.286
 2814SOL    HW157281   5.841  16.453   2.346
 2814SOL    HW257282   5.798  16.560   2.230
 2815SOL     OW57283   7.895  11.920   6.908
 2815SOL    HW157284   7.844  11.964   6.833
 2815SOL    HW257285   7.902  11.822   6.890
 2816SOL     OW57286  12.146  13.965   8.245
 2816SOL    HW157287  12.163  14.015   8.330
 2816SOL    HW257288  12.201  14.004   8.171
 2817SOL     OW57289  14.070  15.670   8.082
 2817SOL    HW157290  14.016  15.636   8.159
 2817SOL    HW257291  14.067  15.770   8.081
 2818SOL     OW57292   1.636   2.206   0.948
 2818SOL    HW157293   1.656   2.190   1.044
 2818SOL    HW257294   1.688   2.141   0.891
 2819SOL     OW57295   9.861   8.277   6.996
 2819SOL    HW157296   9.847   8.280   7.095
 2819SOL    HW257297   9.902   8.363   6.966
 2820SOL     OW57298   0.200   7.028   0.549
 2820SOL    HW157299   0.113   7.057   0.588
 2820SOL    HW257300   0.225   7.089   0.473
 2821SOL     OW57301   5.158   9.529   7.069
 2821SOL    HW157302   5.152   9.447   7.012
 2821SOL    HW257303   5.177   9.608   7.011
 2822SOL     OW57304  15.580   4.032   6.077
 2822SOL    HW157305  15.488   3.995   6.091
 2822SOL    HW257306  15.579   4.100   6.004
 2823SOL     OW57307   4.918  11.776   6.385
 2823SOL    HW157308   4.910  11.677   6.374
 2823SOL    HW257309   4.835  11.820   6.349
 2824SOL     OW57310   4.862  13.770   1.779
 2824SOL    HW157311   4.959  13.767   1.802
 2824SOL    HW257312   4.828  13.677   1.765
 2825SOL     OW57313   6.487   4.988   6.848
 2825SOL    HW157314   6.578   4.983   6.808
 2825SOL    HW257315   6.494   5.003   6.946
 2826SOL     OW57316  13.677  11.407   2.217
 2826SOL    HW157317  13.721  11.322   2.245
 2826SOL    HW257318  13.677  11.471   2.295
 2827SOL     OW57319  11.880   9.742   8.316
 2827SOL    HW157320  11.975   9.740   8.283
 2827SOL    HW257321  11.854   9.652   8.350
 2828SOL     OW57322  14.489   7.552   6.679
 2828SOL    HW157323  14.558   7.612   6.721
 2828SOL    HW257324  14.411   7.607   6.649
 2829SOL     OW57325  11.078  14.628   1.974
 2829SOL    HW157326  11.038  14.682   2.049
 2829SOL    HW257327  11.173  14.656   1.961
 2830SOL     OW57328   2.318   0.700   1.769
 2830SOL    HW157329   2.359   0.628   1.826
 2830SOL    HW257330   2.257   0.756   1.825
 2831SOL     OW57331  12.129   0.605   7.255
 2831SOL    HW157332  12.054   0.594   7.321
 2831SOL    HW257333  12.092   0.628   7.165
 2832SOL     OW57334   2.077   9.890   7.350
 2832SOL    HW157335   2.072   9.888   7.251
 2832SOL    HW257336   2.090   9.985   7.381
 2833SOL     OW57337   7.355   5.136   1.374
 2833SOL    HW157338   7.321   5.043   1.356
 2833SOL    HW257339   7.350   5.190   1.290
 2834SOL     OW57340   5.190   3.202   0.808
 2834SOL    HW157341   5.248   3.179   0.886
 2834SOL    HW257342   5.234   3.271   0.752
 2835SOL     OW57343   1.046   6.360   6.943
 2835SOL    HW157344   1.116   6.420   6.905
 2835SOL    HW257345   0.963   6.413   6.962
 2836SOL     OW57346  13.908   2.355   8.146
 2836SOL    HW157347  13.959   2.308   8.074
 2836SOL    HW257348  13.968   2.422   8.191
 2837SOL     OW57349  11.711  12.857   1.809
 2837SOL    HW157350  11.665  12.868   1.898
 2837SOL    HW257351  11.762  12.941   1.788
 2838SOL     OW57352  10.811   0.457   6.413
 2838SOL    HW157353  10.779   0.364   6.430
 2838SOL    HW257354  10.908   0.454   6.388
 2839SOL     OW57355  10.097   5.025   0.699
 2839SOL    HW157356  10.169   5.094   0.703
 2839SOL    HW257357  10.093   4.987   0.606
 2840SOL     OW57358   1.254   5.898   7.820
 2840SOL    HW157359   1.165   5.884   7.777
 2840SOL    HW257360   1.242   5.944   7.908
 2841SOL     OW57361   1.991  11.952   0.613
 2841SOL    HW157362   1.968  12.049   0.606
 2841SOL    HW257363   1.956  11.904   0.533
 2842SOL     OW57364  10.179  13.406   0.741
 2842SOL    HW157365  10.213  13.320   0.702
 2842SOL    HW257366  10.131  13.387   0.827
 2843SOL     OW57367   0.688  10.969   1.962
 2843SOL    HW157368   0.686  11.004   2.055
 2843SOL    HW257369   0.598  10.980   1.920
 2844SOL     OW57370  14.024  13.524   8.169
 2844SOL    HW157371  13.995  13.548   8.261
 2844SOL    HW257372  14.015  13.604   8.109
 2845SOL     OW57373   3.032   7.799   6.954
 2845SOL    HW157374   3.017   7.752   7.041
 2845SOL    HW257375   3.027   7.732   6.879
 2846SOL     OW57376   3.118   3.147   7.884
 2846SOL    HW157377   3.097   3.061   7.837
 2846SOL    HW257378   3.195   3.132   7.946
 2847SOL     OW57379   9.182  13.562   0.972
 2847SOL    HW157380   9.147  13.485   0.918
 2847SOL    HW257381   9.107  13.604   1.023
 2848SOL     OW57382   3.282   9.860   7.734
 2848SOL    HW157383   3.185   9.862   7.758
 2848SOL    HW257384   3.292   9.841   7.636
 2849SOL     OW57385   9.612   8.853   0.554
 2849SOL    HW157386   9.706   8.880   0.533
 2849SOL    HW257387   9.549   8.898   0.491
 2850SOL     OW57388   9.837   9.182   1.431
 2850SOL    HW157389   9.873   9.265   1.388
 2850SOL    HW257390   9.912   9.120   1.451
 2851SOL     OW57391  13.566  11.399   0.338
 2851SOL    HW157392  13.580  11.494   0.309
 2851SOL    HW257393  13.648  11.366   0.384
 2852SOL     OW57394  15.286  13.788   1.962
 2852SOL    HW157395  15.277  13.888   1.970
 2852SOL    HW257396  15.195  13.746   1.966
 2853SOL     OW57397  15.998  11.201   6.786
 2853SOL    HW157398  15.970  11.252   6.704
 2853SOL    HW257399  15.922  11.200   6.851
 2854SOL     OW57400   5.731   8.955   8.286
 2854SOL    HW157401   5.737   9.055   8.275
 2854SOL    HW257402   5.685   8.916   8.206
 2855SOL     OW57403  11.738   7.680   0.627
 2855SOL    HW157404  11.638   7.676   0.629
 2855SOL    HW257405  11.766   7.758   0.571
 2856SOL     OW57406  11.235   5.506   2.233
 2856SOL    HW157407  11.283   5.468   2.154
 2856SOL    HW257408  11.255   5.604   2.240
 2857SOL     OW57409   3.630   9.318   8.137
 2857SOL    HW157410   3.723   9.281   8.142
 2857SOL    HW257411   3.633   9.417   8.128
 2858SOL     OW57412  10.622  14.452   0.489
 2858SOL    HW157413  10.626  14.467   0.391
 2858SOL    HW257414  10.650  14.535   0.537
 2859SOL     OW57415  10.135   1.085   7.293
 2859SOL    HW157416  10.172   1.147   7.224
 2859SOL    HW257417  10.208   1.028   7.330
 2860SOL     OW57418   4.013   9.670   7.565
 2860SOL    HW157419   3.978   9.614   7.639
 2860SOL    HW257420   3.976   9.638   7.478
 2861SOL     OW57421   1.513   8.057   6.835
 2861SOL    HW157422   1.547   8.133   6.779
 2861SOL    HW257423   1.431   8.019   6.793
 2862SOL     OW57424   9.246   7.625   6.835
 2862SOL    HW157425   9.161   7.574   6.843
 2862SOL    HW257426   9.234   7.716   6.874
 2863SOL     OW57427  16.508   0.389   7.394
 2863SOL    HW157428  16.425   0.354   7.349
 2863SOL    HW257429  16.505   0.366   7.491
 2864SOL     OW57430  15.969  10.213   1.066
 2864SOL    HW157431  15.943  10.138   1.127
 2864SOL    HW257432  16.004  10.177   0.980
 2865SOL     OW57433  11.222   1.806   0.929
 2865SOL    HW157434  11.218   1.720   0.979
 2865SOL    HW257435  11.301   1.859   0.960
 2866SOL     OW57436   1.761   6.608   1.853
 2866SOL    HW157437   1.813   6.540   1.905
 2866SOL    HW257438   1.669   6.616   1.893
 2867SOL     OW57439   5.530   3.818   7.818
 2867SOL    HW157440   5.627   3.798   7.800
 2867SOL    HW257441   5.475   3.784   7.742
 2868SOL     OW57442  13.736   2.013   0.865
 2868SOL    HW157443  13.707   2.043   0.774
 2868SOL    HW257444  13.772   2.091   0.916
 2869SOL     OW57445   0.790   1.857   7.243
 2869SOL    HW157446   0.800   1.933   7.307
 2869SOL    HW257447   0.879   1.832   7.206
 2870SOL     OW57448  16.822  10.600   0.016
 2870SOL    HW157449  16.828  10.584   0.115
 2870SOL    HW257450  16.902  10.561   8.425
 2871SOL     OW57451  11.865   9.965   0.687
 2871SOL    HW157452  11.918   9.940   0.606
 2871SOL    HW257453  11.771   9.985   0.660
 2872SOL     OW57454   5.927   9.099   0.247
 2872SOL    HW157455   5.911   9.003   0.223
 2872SOL    HW257456   5.904   9.156   0.168
 2873SOL     OW57457   1.646   7.203   6.912
 2873SOL    HW157458   1.613   7.110   6.923
 2873SOL    HW257459   1.672   7.219   6.817
 2874SOL     OW57460   0.033   8.828   7.603
 2874SOL    HW157461   0.003   8.791   7.515
 2874SOL    HW257462   0.034   8.754   7.671
 2875SOL     OW57463   8.120   6.840   8.150
 2875SOL    HW157464   8.117   6.824   8.051
 2875SOL    HW257465   8.040   6.799   8.193
 2876SOL     OW57466  13.079   6.297   7.596
 2876SOL    HW157467  12.981   6.279   7.603
 2876SOL    HW257468  13.129   6.235   7.657
 2877SOL     OW57469   3.921   5.404   8.352
 2877SOL    HW157470   3.957   5.467   8.284
 2877SOL    HW257471   3.826   5.382   8.330
 2878SOL     OW57472   8.073   5.882   8.035
 2878SOL    HW157473   8.095   5.793   7.995
 2878SOL    HW257474   8.158   5.935   8.044
 2879SOL     OW57475   1.432   6.723   0.171
 2879SOL    HW157476   1.375   6.805   0.173
 2879SOL    HW257477   1.523   6.745   0.205
 2880SOL     OW57478   8.699  11.179   7.965
 2880SOL    HW157479   8.642  11.220   7.894
 2880SOL    HW257480   8.667  11.086   7.984
 2881SOL     OW57481   6.833   9.397   6.643
 2881SOL    HW157482   6.885   9.312   6.631
 2881SOL    HW257483   6.895   9.475   6.646
 2882SOL     OW57484   0.252   0.451   1.270
 2882SOL    HW157485   0.192   0.382   1.312
 2882SOL    HW257486   0.245   0.444   1.171
 2883SOL     OW57487   5.526   8.173   0.830
 2883SOL    HW157488   5.587   8.098   0.855
 2883SOL    HW257489   5.490   8.158   0.738
 2884SOL     OW57490   3.192   3.444   0.401
 2884SOL    HW157491   3.205   3.541   0.425
 2884SOL    HW257492   3.215   3.430   0.305
 2885SOL     OW57493   8.501   7.096   6.662
 2885SOL    HW157494   8.465   7.070   6.572
 2885SOL    HW257495   8.580   7.157   6.651
 2886SOL     OW57496   5.154   6.394   7.186
 2886SOL    HW157497   5.104   6.308   7.182
 2886SOL    HW257498   5.208   6.397   7.270
 2887SOL     OW57499   7.586   2.803   6.749
 2887SOL    HW157500   7.555   2.717   6.710
 2887SOL    HW257501   7.566   2.878   6.686
 2888SOL     OW57502   3.130   9.316   7.627
 2888SOL    HW157503   3.057   9.326   7.695
 2888SOL    HW257504   3.214   9.288   7.674
 2889SOL     OW57505   0.021  14.633   1.102
 2889SOL    HW157506  16.915  14.612   1.063
 2889SOL    HW257507   0.083  14.663   1.029
 2890SOL     OW57508   1.937   5.986   0.866
 2890SOL    HW157509   1.856   6.044   0.866
 2890SOL    HW257510   1.937   5.928   0.785
 2891SOL     OW57511  13.202  12.491   7.435
 2891SOL    HW157512  13.138  12.538   7.496
 2891SOL    HW257513  13.284  12.467   7.485
 2892SOL     OW57514   9.518   3.833   7.055
 2892SOL    HW157515   9.608   3.858   7.019
 2892SOL    HW257516   9.480   3.758   7.002
 2893SOL     OW57517   9.096   1.171   1.640
 2893SOL    HW157518   9.155   1.175   1.720
 2893SOL    HW257519   9.101   1.257   1.590
 2894SOL     OW57520   1.855  13.042   0.803
 2894SOL    HW157521   1.858  13.102   0.723
 2894SOL    HW257522   1.760  13.034   0.834
 2895SOL     OW57523  13.224   7.818   7.365
 2895SOL    HW157524  13.213   7.721   7.385
 2895SOL    HW257525  13.244   7.830   7.268
 2896SOL     OW57526  15.798  11.510   1.166
 2896SOL    HW157527  15.869  11.446   1.194
 2896SOL    HW257528  15.831  11.566   1.090
 2897SOL     OW57529   4.288  11.498   0.708
 2897SOL    HW157530   4.273  11.531   0.801
 2897SOL    HW257531   4.243  11.559   0.643
 2898SOL     OW57532   4.278  11.517   0.989
 2898SOL    HW157533   4.224  11.586   1.036
 2898SOL    HW257534   4.237  11.427   1.004
 2899SOL     OW57535   2.402  12.945   7.857
 2899SOL    HW157536   2.470  13.012   7.886
 2899SOL    HW257537   2.362  12.973   7.769
 2900SOL     OW57538  14.638   4.033   0.935
 2900SOL    HW157539  14.648   4.026   1.034
 2900SOL    HW257540  14.542   4.045   0.911
 2901SOL     OW57541   9.112  11.032   2.378
 2901SOL    HW157542   9.061  10.947   2.391
 2901SOL    HW257543   9.172  11.048   2.457
 2902SOL     OW57544  12.376  10.385   1.972
 2902SOL    HW157545  12.364  10.415   2.066
 2902SOL    HW257546  12.299  10.327   1.946
 2903SOL     OW57547  15.046  16.664   7.158
 2903SOL    HW157548  15.011  16.590   7.101
 2903SOL    HW257549  14.974  16.732   7.171
 2904SOL     OW57550   9.784  10.801   8.014
 2904SOL    HW157551   9.829  10.717   7.984
 2904SOL    HW257552   9.818  10.878   7.960
 2905SOL     OW57553   4.517  14.975   1.010
 2905SOL    HW157554   4.470  14.977   1.098
 2905SOL    HW257555   4.562  14.886   0.998
 2906SOL     OW57556   9.369   1.653   0.013
 2906SOL    HW157557   9.399   1.650   0.109
 2906SOL    HW257558   9.414   1.580   8.416
 2907SOL     OW57559  15.533  16.230   0.823
 2907SOL    HW157560  15.488  16.280   0.749
 2907SOL    HW257561  15.467  16.214   0.897
 2908SOL     OW57562  10.999   3.164   7.402
 2908SOL    HW157563  11.094   3.192   7.411
 2908SOL    HW257564  10.991   3.067   7.424
 2909SOL     OW57565   1.009   8.152   6.848
 2909SOL    HW157566   1.035   8.081   6.784
 2909SOL    HW257567   0.972   8.230   6.798
 2910SOL     OW57568   0.220  14.720   2.568
 2910SOL    HW157569   0.280  14.640   2.563
 2910SOL    HW257570   0.125  14.690   2.581
 2911SOL     OW57571  14.081   1.596   6.907
 2911SOL    HW157572  14.092   1.682   6.956
 2911SOL    HW257573  14.118   1.521   6.962
 2912SOL     OW57574   4.232   0.544   8.007
 2912SOL    HW157575   4.284   0.541   7.922
 2912SOL    HW257576   4.144   0.498   7.994
 2913SOL     OW57577   6.792   2.832   0.963
 2913SOL    HW157578   6.857   2.771   1.008
 2913SOL    HW257579   6.744   2.782   0.891
 2914SOL     OW57580   1.134   3.936   0.776
 2914SOL    HW157581   1.118   3.900   0.684
 2914SOL    HW257582   1.222   3.904   0.809
 2915SOL     OW57583  11.022   9.709   7.461
 2915SOL    HW157584  11.062   9.642   7.524
 2915SOL    HW257585  11.055   9.691   7.368
 2916SOL     OW57586   4.290   3.957   1.463
 2916SOL    HW157587   4.241   4.026   1.517
 2916SOL    HW257588   4.388   3.969   1.476
 2917SOL     OW57589   0.573   0.435   0.302
 2917SOL    HW157590   0.664   0.416   0.265
 2917SOL    HW257591   0.508   0.370   0.264
 2918SOL     OW57592   0.311   0.942   2.027
 2918SOL    HW157593   0.219   0.977   2.010
 2918SOL    HW257594   0.314   0.898   2.116
 2919SOL     OW57595  11.672  15.496   1.583
 2919SOL    HW157596  11.759  15.471   1.541
 2919SOL    HW257597  11.689  15.548   1.666
 2920SOL     OW57598  15.673   1.573   6.613
 2920SOL    HW157599  15.642   1.501   6.551
 2920SOL    HW257600  15.719   1.644   6.561
 2921SOL     OW57601  14.567   9.930   0.612
 2921SOL    HW157602  14.492   9.869   0.637
 2921SOL    HW257603  14.574   9.935   0.512
 2922SOL     OW57604  12.232   0.286   7.085
 2922SOL    HW157605  12.320   0.316   7.121
 2922SOL    HW257606  12.232   0.294   6.985
 2923SOL     OW57607   1.745   0.082   0.987
 2923SOL    HW157608   1.790   0.107   1.072
 2923SOL    HW257609   1.692   0.160   0.953
 2924SOL     OW57610   5.389  12.148   0.075
 2924SOL    HW157611   5.305  12.136   0.130
 2924SOL    HW257612   5.462  12.182   0.134
 2925SOL     OW57613   2.456  16.364   7.618
 2925SOL    HW157614   2.385  16.340   7.685
 2925SOL    HW257615   2.517  16.432   7.658
 2926SOL     OW57616  15.268   9.768   1.232
 2926SOL    HW157617  15.240   9.854   1.189
 2926SOL    HW257618  15.289   9.701   1.161
 2927SOL     OW57619   8.285   9.468   8.199
 2927SOL    HW157620   8.187   9.475   8.218
 2927SOL    HW257621   8.336   9.475   8.285
 2928SOL     OW57622  12.691   8.849   1.370
 2928SOL    HW157623  12.631   8.831   1.449
 2928SOL    HW257624  12.684   8.773   1.305
 2929SOL     OW57625  10.962  13.793   0.929
 2929SOL    HW157626  10.933  13.883   0.960
 2929SOL    HW257627  10.910  13.767   0.847
 2930SOL     OW57628   0.020   6.546   7.687
 2930SOL    HW157629  16.968   6.570   7.777
 2930SOL    HW257630   0.094   6.480   7.697
 2931SOL     OW57631   5.077  14.759   7.567
 2931SOL    HW157632   5.137  14.680   7.554
 2931SOL    HW257633   5.116  14.839   7.520
 2932SOL     OW57634  13.187   1.661   0.000
 2932SOL    HW157635  13.253   1.664   8.379
 2932SOL    HW257636  13.112   1.599   8.430
 2933SOL     OW57637   6.378   6.804   7.858
 2933SOL    HW157638   6.301   6.812   7.796
 2933SOL    HW257639   6.345   6.783   7.950
 2934SOL     OW57640   5.132   5.414   8.030
 2934SOL    HW157641   5.165   5.321   8.018
 2934SOL    HW257642   5.049   5.428   7.976
 2935SOL     OW57643   4.534  11.518   0.869
 2935SOL    HW157644   4.495  11.507   0.777
 2935SOL    HW257645   4.461  11.515   0.937
 2936SOL     OW57646  16.901   4.667   0.385
 2936SOL    HW157647  16.805   4.683   0.407
 2936SOL    HW257648  16.943   4.752   0.355
 2937SOL     OW57649   7.932  14.585   1.480
 2937SOL    HW157650   7.907  14.682   1.482
 2937SOL    HW257651   7.989  14.564   1.560
 2938SOL     OW57652  12.397  14.439   7.571
 2938SOL    HW157653  12.324  14.478   7.515
 2938SOL    HW257654  12.406  14.492   7.656
 2939SOL     OW57655  11.021   9.351   0.014
 2939SOL    HW157656  11.032   9.361   8.369
 2939SOL    HW257657  10.962   9.272   0.032
 2940SOL     OW57658  11.081   9.395   6.323
 2940SOL    HW157659  10.997   9.354   6.287
 2940SOL    HW257660  11.101   9.479   6.272
 2941SOL     OW57661  11.842   0.230   1.210
 2941SOL    HW157662  11.875   0.203   1.301
 2941SOL    HW257663  11.759   0.178   1.188
 2942SOL     OW57664  11.431   9.133   8.129
 2942SOL    HW157665  11.520   9.153   8.090
 2942SOL    HW257666  11.400   9.043   8.099
 2943SOL     OW57667   3.333   7.010   6.664
 2943SOL    HW157668   3.310   7.088   6.722
 2943SOL    HW257669   3.249   6.970   6.627
 2944SOL     OW57670   3.542  10.788   0.095
 2944SOL    HW157671   3.629  10.809   0.051
 2944SOL    HW257672   3.554  10.709   0.155
 2945SOL     OW57673  15.940  10.463   7.163
 2945SOL    HW157674  15.893  10.419   7.087
 2945SOL    HW257675  15.990  10.543   7.130
 2946SOL     OW57676   9.669  10.788   1.490
 2946SOL    HW157677   9.675  10.690   1.510
 2946SOL    HW257678   9.590  10.805   1.430
 2947SOL     OW57679  16.220   8.959   1.409
 2947SOL    HW157680  16.186   8.973   1.316
 2947SOL    HW257681  16.144   8.934   1.469
 2948SOL     OW57682  10.516  16.934   1.203
 2948SOL    HW157683  10.525   0.014   1.126
 2948SOL    HW257684  10.589  16.866   1.199
 2949SOL     OW57685   3.165  12.457   7.267
 2949SOL    HW157686   3.096  12.443   7.196
 2949SOL    HW257687   3.147  12.396   7.344
 2950SOL     OW57688   2.774  16.789   8.158
 2950SOL    HW157689   2.753  16.692   8.153
 2950SOL    HW257690   2.845  16.812   8.092
 2951SOL     OW57691   9.095   0.983   0.829
 2951SOL    HW157692   8.999   0.960   0.813
 2951SOL    HW257693   9.151   0.901   0.819
 2952SOL     OW57694  11.594  16.003   7.519
 2952SOL    HW157695  11.595  16.099   7.490
 2952SOL    HW257696  11.566  15.946   7.442
 2953SOL     OW57697   0.579   3.044   0.305
 2953SOL    HW157698   0.585   3.045   0.205
 2953SOL    HW257699   0.547   3.133   0.338
 2954SOL     OW57700   1.333   2.360   7.091
 2954SOL    HW157701   1.309   2.453   7.122
 2954SOL    HW257702   1.267   2.329   7.023
 2955SOL     OW57703   9.986   7.045   7.606
 2955SOL    HW157704  10.082   7.019   7.598
 2955SOL    HW257705   9.973   7.101   7.687
 2956SOL     OW57706   5.325   2.238   7.879
 2956SOL    HW157707   5.241   2.188   7.903
 2956SOL    HW257708   5.303   2.335   7.869
 2957SOL     OW57709  13.949   8.010   0.754
 2957SOL    HW157710  14.007   7.985   0.676
 2957SOL    HW257711  13.993   8.083   0.806
 2958SOL     OW57712  16.566  11.610   8.249
 2958SOL    HW157713  16.589  11.667   8.328
 2958SOL    HW257714  16.543  11.518   8.280
 2959SOL     OW57715   6.226   7.637   7.562
 2959SOL    HW157716   6.268   7.687   7.486
 2959SOL    HW257717   6.204   7.544   7.532
 2960SOL     OW57718   8.913   3.725   8.417
 2960SOL    HW157719   8.826   3.700   8.375
 2960SOL    HW257720   8.942   3.653   0.025
 2961SOL     OW57721   1.242  12.768   0.628
 2961SOL    HW157722   1.199  12.854   0.655
 2961SOL    HW257723   1.189  12.726   0.554
 2962SOL     OW57724   4.073  10.736   7.383
 2962SOL    HW157725   4.146  10.667   7.384
 2962SOL    HW257726   3.994  10.700   7.333
 2963SOL     OW57727   4.495  16.445   7.875
 2963SOL    HW157728   4.574  16.483   7.827
 2963SOL    HW257729   4.456  16.514   7.935
 2964SOL     OW57730   1.085   4.271   6.229
 2964SOL    HW157731   1.178   4.234   6.223
 2964SOL    HW257732   1.083   4.363   6.191
 2965SOL     OW57733  12.942   2.006   1.027
 2965SOL    HW157734  13.033   1.965   1.026
 2965SOL    HW257735  12.947   2.099   1.062
 2966SOL     OW57736   0.891   6.961   7.776
 2966SOL    HW157737   0.911   7.040   7.833
 2966SOL    HW257738   0.858   6.992   7.687
 2967SOL     OW57739   6.765   7.836   0.385
 2967SOL    HW157740   6.677   7.875   0.411
 2967SOL    HW257741   6.752   7.744   0.349
 2968SOL     OW57742   3.274   8.590   7.321
 2968SOL    HW157743   3.210   8.514   7.322
 2968SOL    HW257744   3.286   8.624   7.415
 2969SOL     OW57745   0.204   9.210   1.991
 2969SOL    HW157746   0.167   9.207   1.898
 2969SOL    HW257747   0.147   9.153   2.052
 2970SOL     OW57748   7.247   3.333   6.690
 2970SOL    HW157749   7.220   3.302   6.781
 2970SOL    HW257750   7.238   3.258   6.625
 2971SOL     OW57751   5.046  16.193   0.870
 2971SOL    HW157752   5.115  16.148   0.926
 2971SOL    HW257753   5.074  16.190   0.774
 2972SOL     OW57754   6.982  16.697   7.670
 2972SOL    HW157755   7.036  16.617   7.644
 2972SOL    HW257756   6.891  16.668   7.700
 2973SOL     OW57757  13.092   0.997   8.432
 2973SOL    HW157758  13.055   1.083   8.397
 2973SOL    HW257759  13.157   1.015   0.051
 2974SOL     OW57760  14.126  11.195   0.421
 2974SOL    HW157761  14.103  11.285   0.456
 2974SOL    HW257762  14.129  11.129   0.497
 2975SOL     OW57763  14.622   9.628   2.092
 2975SOL    HW157764  14.624   9.727   2.082
 2975SOL    HW257765  14.610   9.604   2.189
 2976SOL     OW57766   6.594   3.004   1.025
 2976SOL    HW157767   6.677   2.950   1.016
 2976SOL    HW257768   6.522   2.965   0.968
 2977SOL     OW57769  14.217   3.069   1.057
 2977SOL    HW157770  14.171   3.155   1.033
 2977SOL    HW257771  14.316   3.082   1.050
 2978SOL     OW57772   2.722   9.836   1.548
 2978SOL    HW157773   2.643   9.793   1.504
 2978SOL    HW257774   2.782   9.874   1.478
 2979SOL     OW57775   3.055   0.378   8.373
 2979SOL    HW157776   3.071   0.282   8.350
 2979SOL    HW257777   3.006   0.382   0.007
 2980SOL     OW57778   8.002   4.841   1.032
 2980SOL    HW157779   8.027   4.745   1.015
 2980SOL    HW257780   7.959   4.879   0.951
 2981SOL     OW57781   1.291   6.110   0.935
 2981SOL    HW157782   1.324   6.138   1.025
 2981SOL    HW257783   1.250   6.188   0.888
 2982SOL     OW57784   1.484   3.871   7.000
 2982SOL    HW157785   1.430   3.945   6.959
 2982SOL    HW257786   1.472   3.787   6.948
 2983SOL     OW57787   7.516  12.655   1.043
 2983SOL    HW157788   7.570  12.658   1.128
 2983SOL    HW257789   7.466  12.568   1.039
 2984SOL     OW57790   2.280   0.329   7.750
 2984SOL    HW157791   2.202   0.381   7.785
 2984SOL    HW257792   2.327   0.285   7.826
 2985SOL     OW57793  15.160   1.014   0.401
 2985SOL    HW157794  15.126   1.108   0.396
 2985SOL    HW257795  15.091   0.957   0.446
 2986SOL     OW57796  11.144  14.650   1.215
 2986SOL    HW157797  11.148  14.660   1.314
 2986SOL    HW257798  11.052  14.620   1.189
 2987SOL     OW57799  16.489  14.537   7.514
 2987SOL    HW157800  16.536  14.551   7.427
 2987SOL    HW257801  16.555  14.538   7.589
 2988SOL     OW57802  14.662   9.099   7.327
 2988SOL    HW157803  14.640   9.190   7.292
 2988SOL    HW257804  14.693   9.107   7.422
 2989SOL     OW57805   8.571  11.531   7.820
 2989SOL    HW157806   8.656  11.556   7.772
 2989SOL    HW257807   8.546  11.437   7.797
 2990SOL     OW57808   7.011  12.091   5.889
 2990SOL    HW157809   6.968  12.031   5.822
 2990SOL    HW257810   7.070  12.036   5.949
 2991SOL     OW57811   3.514   0.842   2.364
 2991SOL    HW157812   3.489   0.764   2.306
 2991SOL    HW257813   3.452   0.845   2.443
 2992SOL     OW57814   6.297  10.618   1.213
 2992SOL    HW157815   6.292  10.710   1.174
 2992SOL    HW257816   6.219  10.564   1.181
 2993SOL     OW57817  16.689  14.570   7.707
 2993SOL    HW157818  16.686  14.662   7.747
 2993SOL    HW257819  16.708  14.503   7.778
 2994SOL     OW57820  10.072   7.835   8.234
 2994SOL    HW157821   9.982   7.822   8.193
 2994SOL    HW257822  10.142   7.835   8.163
 2995SOL     OW57823  11.111  11.205   6.770
 2995SOL    HW157824  11.025  11.200   6.719
 2995SOL    HW257825  11.188  11.205   6.707
 2996SOL     OW57826   0.943   4.659   6.510
 2996SOL    HW157827   1.031   4.633   6.470
 2996SOL    HW257828   0.874   4.592   6.482
 2997SOL     OW57829  15.507  12.195   1.706
 2997SOL    HW157830  15.454  12.117   1.670
 2997SOL    HW257831  15.459  12.234   1.784
 2998SOL     OW57832   5.699   9.278   0.639
 2998SOL    HW157833   5.710   9.350   0.571
 2998SOL    HW257834   5.743   9.305   0.724
 2999SOL     OW57835  10.717  14.938   0.523
 2999SOL    HW157836  10.694  14.953   0.427
 2999SOL    HW257837  10.815  14.954   0.536
 3000SOL     OW57838   6.308   8.498   0.889
 3000SOL    HW157839   6.376   8.455   0.949
 3000SOL    HW257840   6.343   8.503   0.796
 3001SOL     OW57841   1.275   4.497   0.961
 3001SOL    HW157842   1.355   4.438   0.971
 3001SOL    HW257843   1.193   4.444   0.980
 3002SOL     OW57844   4.156   2.887   0.563
 3002SOL    HW157845   4.145   2.820   0.636
 3002SOL    HW257846   4.096   2.863   0.486
 3003SOL     OW57847   4.452   5.075   6.668
 3003SOL    HW157848   4.490   5.118   6.586
 3003SOL    HW257849   4.526   5.031   6.719
 3004SOL     OW57850   6.329   8.467   6.905
 3004SOL    HW157851   6.336   8.549   6.849
 3004SOL    HW257852   6.242   8.421   6.887
 3005SOL     OW57853   2.629  16.359   0.649
 3005SOL    HW157854   2.605  16.447   0.689
 3005SOL    HW257855   2.586  16.351   0.559
 3006SOL     OW57856  15.018  14.666   7.550
 3006SOL    HW157857  14.955  14.712   7.488
 3006SOL    HW257858  15.029  14.720   7.633
 3007SOL     OW57859  10.007   7.039   2.281
 3007SOL    HW157860  10.001   7.134   2.312
 3007SOL    HW257861   9.917   7.006   2.253
 3008SOL     OW57862  14.393  13.244   7.842
 3008SOL    HW157863  14.450  13.299   7.781
 3008SOL    HW257864  14.338  13.305   7.899
 3009SOL     OW57865  10.391   1.091   5.521
 3009SOL    HW157866  10.317   1.149   5.487
 3009SOL    HW257867  10.351   1.011   5.567
 3010SOL     OW57868  14.804  13.134   6.757
 3010SOL    HW157869  14.711  13.099   6.746
 3010SOL    HW257870  14.801  13.228   6.790
 3011SOL     OW57871   3.501   5.127   6.747
 3011SOL    HW157872   3.577   5.096   6.690
 3011SOL    HW257873   3.488   5.225   6.736
 3012SOL     OW57874   9.061   6.042   1.847
 3012SOL    HW157875   9.109   6.126   1.826
 3012SOL    HW257876   8.976   6.063   1.895
 3013SOL     OW57877  16.437   1.319   6.790
 3013SOL    HW157878  16.356   1.353   6.743
 3013SOL    HW257879  16.503   1.393   6.801
 3014SOL     OW57880  15.718   3.069   7.900
 3014SOL    HW157881  15.706   3.033   7.993
 3014SOL    HW257882  15.777   3.150   7.903
 3015SOL     OW57883  13.208  16.966   6.381
 3015SOL    HW157884  13.218   0.023   6.472
 3015SOL    HW257885  13.134  16.899   6.382
 3016SOL     OW57886  14.334   6.174   0.824
 3016SOL    HW157887  14.419   6.134   0.858
 3016SOL    HW257888  14.340   6.186   0.725
 3017SOL     OW57889   8.851   0.584   0.761
 3017SOL    HW157890   8.876   0.641   0.840
 3017SOL    HW257891   8.865   0.636   0.677
 3018SOL     OW57892   3.221   3.887   0.975
 3018SOL    HW157893   3.199   3.955   0.905
 3018SOL    HW257894   3.262   3.807   0.932
 3019SOL     OW57895   4.177  11.531   8.439
 3019SOL    HW157896   4.261  11.585   8.443
 3019SOL    HW257897   4.192  11.443   0.029
 3020SOL     OW57898   1.249  12.726   1.680
 3020SOL    HW157899   1.155  12.758   1.675
 3020SOL    HW257900   1.255  12.649   1.744
 3021SOL     OW57901   8.438  14.907   6.902
 3021SOL    HW157902   8.400  14.979   6.844
 3021SOL    HW257903   8.479  14.836   6.845
 3022SOL     OW57904   2.284   9.258   6.761
 3022SOL    HW157905   2.378   9.289   6.749
 3022SOL    HW257906   2.264   9.185   6.695
 3023SOL     OW57907   8.578   0.080   7.049
 3023SOL    HW157908   8.618  16.975   7.022
 3023SOL    HW257909   8.541   0.126   6.968
 3024SOL     OW57910   4.375   2.258   0.300
 3024SOL    HW157911   4.467   2.235   0.269
 3024SOL    HW257912   4.379   2.296   0.393
 3025SOL     OW57913   9.449   0.472   0.068
 3025SOL    HW157914   9.527   0.410   0.076
 3025SOL    HW257915   9.365   0.424   0.097
 3026SOL     OW57916   1.548  16.614   7.345
 3026SOL    HW157917   1.583  16.542   7.404
 3026SOL    HW257918   1.451  16.630   7.365
 3027SOL     OW57919   4.528   0.075   1.825
 3027SOL    HW157920   4.456   0.145   1.830
 3027SOL    HW257921   4.576   0.084   1.737
 3028SOL     OW57922  16.525  11.767   7.005
 3028SOL    HW157923  16.500  11.853   6.962
 3028SOL    HW257924  16.608  11.731   6.961
 3029SOL     OW57925  13.546  15.213   1.092
 3029SOL    HW157926  13.575  15.302   1.125
 3029SOL    HW257927  13.603  15.142   1.133
 3030SOL     OW57928  11.305   5.735   0.029
 3030SOL    HW157929  11.258   5.765   0.112
 3030SOL    HW257930  11.403   5.729   0.047
 3031SOL     OW57931   8.710  11.887   7.641
 3031SOL    HW157932   8.618  11.854   7.663
 3031SOL    HW257933   8.709  11.986   7.632
 3032SOL     OW57934  11.431   4.211   5.786
 3032SOL    HW157935  11.369   4.251   5.719
 3032SOL    HW257936  11.524   4.243   5.768
 3033SOL     OW57937  15.209   8.602   7.865
 3033SOL    HW157938  15.276   8.643   7.802
 3033SOL    HW257939  15.117   8.630   7.838
 3034SOL     OW57940  16.489   1.641   8.014
 3034SOL    HW157941  16.414   1.617   8.075
 3034SOL    HW257942  16.533   1.724   8.047
 3035SOL     OW57943   0.785   4.868   8.204
 3035SOL    HW157944   0.836   4.875   8.290
 3035SOL    HW257945   0.704   4.811   8.217
 3036SOL     OW57946  14.794   7.879   8.042
 3036SOL    HW157947  14.710   7.851   8.088
 3036SOL    HW257948  14.814   7.816   7.966
 3037SOL     OW57949   0.395   5.666   6.515
 3037SOL    HW157950   0.442   5.745   6.556
 3037SOL    HW257951   0.296   5.680   6.520
 3038SOL     OW57952  14.196  15.824   0.803
 3038SOL    HW157953  14.133  15.839   0.726
 3038SOL    HW257954  14.279  15.877   0.789
 3039SOL     OW57955   6.095   0.609   1.164
 3039SOL    HW157956   6.114   0.652   1.252
 3039SOL    HW257957   6.099   0.679   1.092
 3040SOL     OW57958   4.811   1.630   7.054
 3040SOL    HW157959   4.764   1.618   6.966
 3040SOL    HW257960   4.876   1.705   7.046
 3041SOL     OW57961   3.542   1.408   0.595
 3041SOL    HW157962   3.544   1.403   0.694
 3041SOL    HW257963   3.461   1.460   0.566
 3042SOL     OW57964  14.369  14.724   7.938
 3042SOL    HW157965  14.371  14.802   7.876
 3042SOL    HW257966  14.392  14.754   8.031
 3043SOL     OW57967  12.864   6.712   6.464
 3043SOL    HW157968  12.911   6.664   6.390
 3043SOL    HW257969  12.791   6.655   6.500
 3044SOL     OW57970   6.461   4.345   0.151
 3044SOL    HW157971   6.509   4.317   0.068
 3044SOL    HW257972   6.420   4.435   0.137
 3045SOL     OW57973  11.239   5.232   0.292
 3045SOL    HW157974  11.191   5.310   0.253
 3045SOL    HW257975  11.259   5.166   0.220
 3046SOL     OW57976  12.474   5.400   1.309
 3046SOL    HW157977  12.498   5.304   1.292
 3046SOL    HW257978  12.419   5.434   1.233
 3047SOL     OW57979   2.602  15.226   8.309
 3047SOL    HW157980   2.623  15.166   8.232
 3047SOL    HW257981   2.681  15.227   8.372
 3048SOL     OW57982  13.855   6.849   7.015
 3048SOL    HW157983  13.813   6.776   6.961
 3048SOL    HW257984  13.784   6.909   7.050
 3049SOL     OW57985   0.445  16.241   0.119
 3049SOL    HW157986   0.443  16.228   0.019
 3049SOL    HW257987   0.399  16.326   0.142
 3050SOL     OW57988  10.513   3.254   6.482
 3050SOL    HW157989  10.558   3.273   6.395
 3050SOL    HW257990  10.581   3.226   6.549
 3051SOL     OW57991   9.379   9.475   0.813
 3051SOL    HW157992   9.377   9.476   0.913
 3051SOL    HW257993   9.409   9.385   0.781
 3052SOL     OW57994   1.429   2.783   6.292
 3052SOL    HW157995   1.336   2.746   6.300
 3052SOL    HW257996   1.441   2.823   6.201
 3053SOL     OW57997  14.762   1.008   0.491
 3053SOL    HW157998  14.796   1.053   0.573
 3053SOL    HW257999  14.788   1.061   0.411
 3054SOL     OW58000  10.460   0.540   0.223
 3054SOL    HW158001  10.391   0.603   0.188
 3054SOL    HW258002  10.488   0.568   0.314
 3055SOL     OW58003   2.836  13.752   2.374
 3055SOL    HW158004   2.902  13.762   2.300
 3055SOL    HW258005   2.879  13.706   2.452
 3056SOL     OW58006  14.254  14.070   6.918
 3056SOL    HW158007  14.320  14.044   6.848
 3056SOL    HW258008  14.164  14.034   6.895
 3057SOL     OW58009  10.136  10.199   0.107
 3057SOL    HW158010  10.118  10.222   0.012
 3057SOL    HW258011  10.229  10.161   0.116
 3058SOL     OW58012   6.735  10.951   0.682
 3058SOL    HW158013   6.758  10.864   0.725
 3058SOL    HW258014   6.647  10.984   0.718
 3059SOL     OW58015  11.688  10.227   8.086
 3059SOL    HW158016  11.710  10.205   8.181
 3059SOL    HW258017  11.665  10.143   8.036
 3060SOL     OW58018   9.402   9.986   0.111
 3060SOL    HW158019   9.335   9.956   0.043
 3060SOL    HW258020   9.399  10.086   0.117
 3061SOL     OW58021  11.299   3.320   5.843
 3061SOL    HW158022  11.369   3.311   5.773
 3061SOL    HW258023  11.213   3.348   5.800
 3062SOL     OW58024   4.200   2.919   7.594
 3062SOL    HW158025   4.176   3.003   7.641
 3062SOL    HW258026   4.296   2.923   7.565
 3063SOL     OW58027  14.748   2.824   0.355
 3063SOL    HW158028  14.808   2.861   0.283
 3063SOL    HW258029  14.752   2.724   0.353
 3064SOL     OW58030   0.689  15.679   7.690
 3064SOL    HW158031   0.777  15.634   7.675
 3064SOL    HW258032   0.677  15.699   7.787
 3065SOL     OW58033   1.019   6.182   5.971
 3065SOL    HW158034   0.954   6.225   5.909
 3065SOL    HW258035   1.024   6.084   5.953
 3066SOL     OW58036  15.281   3.202   6.744
 3066SOL    HW158037  15.193   3.238   6.777
 3066SOL    HW258038  15.339   3.278   6.716
 3067SOL     OW58039  14.884  15.778   6.877
 3067SOL    HW158040  14.811  15.752   6.814
 3067SOL    HW258041  14.955  15.707   6.877
 3068SOL     OW58042  16.965  11.258   8.182
 3068SOL    HW158043   0.044  11.335   8.165
 3068SOL    HW258044  16.870  11.289   8.169
 3069SOL     OW58045  13.701   0.379   6.310
 3069SOL    HW158046  13.717   0.283   6.331
 3069SOL    HW258047  13.780   0.416   6.260
 3070SOL     OW58048   2.337  12.975   6.802
 3070SOL    HW158049   2.355  13.044   6.731
 3070SOL    HW258050   2.261  12.916   6.772
 3071SOL     OW58051   9.980  12.685   7.456
 3071SOL    HW158052   9.995  12.781   7.432
 3071SOL    HW258053   9.900  12.651   7.407
 3072SOL     OW58054   7.957  16.673   7.591
 3072SOL    HW158055   8.021  16.599   7.612
 3072SOL    HW258056   7.867  16.634   7.569
 3073SOL     OW58057   7.113  10.411   0.840
 3073SOL    HW158058   7.047  10.354   0.890
 3073SOL    HW258059   7.064  10.484   0.792
 3074SOL     OW58060   9.605   8.528   2.062
 3074SOL    HW158061   9.573   8.619   2.037
 3074SOL    HW258062   9.528   8.464   2.061
 3075SOL     OW58063   3.042   9.621   0.568
 3075SOL    HW158064   2.946   9.631   0.593
 3075SOL    HW258065   3.082   9.711   0.553
 3076SOL     OW58066   0.620   9.440   1.610
 3076SOL    HW158067   0.649   9.399   1.697
 3076SOL    HW258068   0.521   9.444   1.607
 3077SOL     OW58069   2.824  10.172   1.246
 3077SOL    HW158070   2.745  10.220   1.285
 3077SOL    HW258071   2.808  10.155   1.149
 3078SOL     OW58072   8.015   2.482   1.944
 3078SOL    HW158073   8.010   2.570   1.992
 3078SOL    HW258074   8.098   2.434   1.971
 3079SOL     OW58075   7.470   7.111   7.813
 3079SOL    HW158076   7.550   7.112   7.873
 3079SOL    HW258077   7.497   7.085   7.721
 3080SOL     OW58078   4.802  10.853   8.424
 3080SOL    HW158079   4.817  10.789   8.349
 3080SOL    HW258080   4.837  10.814   0.055
 3081SOL     OW58081   3.389  16.524   7.142
 3081SOL    HW158082   3.445  16.444   7.122
 3081SOL    HW258083   3.388  16.541   7.240
 3082SOL     OW58084   6.838  10.407   8.451
 3082SOL    HW158085   6.865  10.351   0.076
 3082SOL    HW258086   6.812  10.347   8.375
 3083SOL     OW58087  10.795   5.237   5.663
 3083SOL    HW158088  10.749   5.312   5.710
 3083SOL    HW258089  10.838   5.272   5.580
 3084SOL     OW58090   2.821   6.355   6.519
 3084SOL    HW158091   2.858   6.448   6.519
 3084SOL    HW258092   2.776   6.337   6.432
 3085SOL     OW58093  13.783  13.670   0.654
 3085SOL    HW158094  13.842  13.625   0.588
 3085SOL    HW258095  13.836  13.693   0.736
 3086SOL     OW58096   1.331   7.926   8.253
 3086SOL    HW158097   1.318   7.999   8.320
 3086SOL    HW258098   1.310   7.961   8.162
 3087SOL     OW58099   3.844  15.116   7.920
 3087SOL    HW158100   3.773  15.171   7.875
 3087SOL    HW258101   3.831  15.019   7.896
 3088SOL     OW58102   8.362   0.392   8.227
 3088SOL    HW158103   8.343   0.395   8.326
 3088SOL    HW258104   8.291   0.442   8.179
 3089SOL     OW58105  12.114  14.532   0.536
 3089SOL    HW158106  12.017  14.556   0.533
 3089SOL    HW258107  12.162  14.572   0.458
 3090SOL     OW58108   7.963  12.542   0.187
 3090SOL    HW158109   8.005  12.625   0.149
 3090SOL    HW258110   7.867  12.538   0.161
 3091SOL     OW58111  11.287   2.737   6.821
 3091SOL    HW158112  11.253   2.750   6.729
 3091SOL    HW258113  11.226   2.782   6.886
 3092SOL     OW58114   9.712   7.522   1.001
 3092SOL    HW158115   9.650   7.453   0.966
 3092SOL    HW258116   9.803   7.508   0.962
 3093SOL     OW58117  13.173  16.235   7.639
 3093SOL    HW158118  13.094  16.251   7.579
 3093SOL    HW258119  13.159  16.151   7.691
 3094SOL     OW58120  13.526  13.403   7.956
 3094SOL    HW158121  13.498  13.320   8.003
 3094SOL    HW258122  13.472  13.414   7.873
 3095SOL     OW58123   9.305   3.033   7.647
 3095SOL    HW158124   9.228   3.095   7.657
 3095SOL    HW258125   9.376   3.075   7.591
 3096SOL     OW58126  13.963  10.363   8.020
 3096SOL    HW158127  14.061  10.347   8.022
 3096SOL    HW258128  13.944  10.459   8.043
 3097SOL     OW58129   0.751  16.552   1.636
 3097SOL    HW158130   0.779  16.462   1.669
 3097SOL    HW258131   0.804  16.575   1.554
 3098SOL     OW58132  15.050  14.401   7.570
 3098SOL    HW158133  15.039  14.500   7.569
 3098SOL    HW258134  15.004  14.361   7.491
 3099SOL     OW58135  14.879   6.068   7.234
 3099SOL    HW158136  14.961   6.098   7.185
 3099SOL    HW258137  14.800   6.119   7.200
 3100SOL     OW58138  16.473  13.939   1.171
 3100SOL    HW158139  16.408  13.869   1.143
 3100SOL    HW258140  16.460  14.021   1.116
 3101SOL     OW58141   3.441   9.832   1.777
 3101SOL    HW158142   3.495   9.754   1.809
 3101SOL    HW258143   3.441   9.904   1.847
 3102SOL     OW58144   2.317   3.151   0.346
 3102SOL    HW158145   2.414   3.128   0.357
 3102SOL    HW258146   2.269   3.074   0.303
 3103SOL     OW58147   6.607   3.421   7.793
 3103SOL    HW158148   6.644   3.329   7.806
 3103SOL    HW258149   6.579   3.432   7.698
 3104SOL     OW58150   0.660   2.640   6.464
 3104SOL    HW158151   0.572   2.679   6.436
 3104SOL    HW258152   0.734   2.693   6.424
 3105SOL     OW58153   8.739   9.331   0.898
 3105SOL    HW158154   8.810   9.354   0.832
 3105SOL    HW258155   8.658   9.388   0.881
 3106SOL     OW58156   5.658   5.190   1.559
 3106SOL    HW158157   5.566   5.202   1.596
 3106SOL    HW258158   5.679   5.266   1.497
 3107SOL     OW58159  10.190   8.715   7.578
 3107SOL    HW158160  10.109   8.759   7.616
 3107SOL    HW258161  10.168   8.621   7.552
 3108SOL     OW58162   2.118  14.098   7.489
 3108SOL    HW158163   2.216  14.084   7.471
 3108SOL    HW258164   2.071  14.121   7.404
 3109SOL     OW58165   6.176  15.384   7.208
 3109SOL    HW158166   6.090  15.432   7.194
 3109SOL    HW258167   6.158  15.295   7.251
 3110SOL     OW58168   8.290   4.429   1.959
 3110SOL    HW158169   8.301   4.487   2.039
 3110SOL    HW258170   8.203   4.450   1.914
 3111SOL     OW58171  11.358   2.303   8.026
 3111SOL    HW158172  11.303   2.311   8.109
 3111SOL    HW258173  11.417   2.383   8.017
 3112SOL     OW58174   9.942  11.261   6.848
 3112SOL    HW158175  10.018  11.321   6.823
 3112SOL    HW258176   9.962  11.218   6.936
 3113SOL     OW58177  14.215  15.428   7.284
 3113SOL    HW158178  14.215  15.513   7.337
 3113SOL    HW258179  14.122  15.390   7.281
 3114SOL     OW58180   5.017   3.275   7.641
 3114SOL    HW158181   4.926   3.265   7.683
 3114SOL    HW258182   5.021   3.223   7.557
 3115SOL     OW58183  13.088  11.098   0.678
 3115SOL    HW158184  13.012  11.074   0.617
 3115SOL    HW258185  13.144  11.017   0.695
 3116SOL     OW58186  14.092   1.781   0.700
 3116SOL    HW158187  14.081   1.776   0.600
 3116SOL    HW258188  14.002   1.787   0.743
 3117SOL     OW58189  14.294  13.844   0.068
 3117SOL    HW158190  14.336  13.780   0.004
 3117SOL    HW258191  14.229  13.902   0.019
 3118SOL     OW58192  10.443   4.463   8.158
 3118SOL    HW158193  10.458   4.498   8.250
 3118SOL    HW258194  10.348   4.431   8.150
 3119SOL     OW58195  14.754  16.114   0.832
 3119SOL    HW158196  14.677  16.135   0.772
 3119SOL    HW258197  14.727  16.129   0.928
 3120SOL     OW58198   6.407   7.838   7.146
 3120SOL    HW158199   6.378   7.751   7.105
 3120SOL    HW258200   6.500   7.828   7.182
 3121SOL     OW58201   4.313  11.789   7.423
 3121SOL    HW158202   4.365  11.875   7.422
 3121SOL    HW258203   4.376  11.712   7.426
 3122SOL     OW58204   3.729   3.255   1.830
 3122SOL    HW158205   3.820   3.242   1.870
 3122SOL    HW258206   3.736   3.315   1.750
 3123SOL     OW58207   3.454   2.343   0.906
 3123SOL    HW158208   3.464   2.356   1.004
 3123SOL    HW258209   3.544   2.352   0.861
 3124SOL     OW58210   5.395   3.282   7.730
 3124SOL    HW158211   5.333   3.336   7.674
 3124SOL    HW258212   5.489   3.293   7.697
 3125SOL     OW58213  12.642   4.789   7.000
 3125SOL    HW158214  12.684   4.796   6.909
 3125SOL    HW258215  12.601   4.698   7.010
 3126SOL     OW58216  13.719   0.801   7.574
 3126SOL    HW158217  13.689   0.831   7.483
 3126SOL    HW258218  13.776   0.720   7.565
 3127SOL     OW58219   5.464  10.054   1.481
 3127SOL    HW158220   5.543  10.011   1.438
 3127SOL    HW258221   5.422   9.989   1.545
 3128SOL     OW58222   5.800  14.102   1.800
 3128SOL    HW158223   5.771  14.008   1.817
 3128SOL    HW258224   5.898  14.109   1.816
 3129SOL     OW58225  14.947  14.750   8.214
 3129SOL    HW158226  14.964  14.751   8.313
 3129SOL    HW258227  14.986  14.667   8.175
 3130SOL     OW58228   9.505   1.868   8.360
 3130SOL    HW158229   9.550   1.925   8.429
 3130SOL    HW258230   9.461   1.790   8.405
 3131SOL     OW58231   4.132  10.408   0.804
 3131SOL    HW158232   4.204  10.470   0.835
 3131SOL    HW258233   4.091  10.444   0.720
 3132SOL     OW58234   9.962   2.141   1.033
 3132SOL    HW158235   9.925   2.221   0.986
 3132SOL    HW258236  10.057   2.125   1.004
 3133SOL     OW58237  15.473  13.928   0.624
 3133SOL    HW158238  15.566  13.892   0.627
 3133SOL    HW258239  15.448  13.947   0.529
 3134SOL     OW58240  14.158  15.019   1.061
 3134SOL    HW158241  14.179  14.981   0.971
 3134SOL    HW258242  14.242  15.025   1.115
 3135SOL     OW58243  14.557  13.512   0.960
 3135SOL    HW158244  14.582  13.556   0.873
 3135SOL    HW258245  14.637  13.504   1.018
 3136SOL     OW58246  13.162   6.501   0.991
 3136SOL    HW158247  13.195   6.480   0.899
 3136SOL    HW258248  13.172   6.420   1.049
 3137SOL     OW58249   3.571  16.631   1.532
 3137SOL    HW158250   3.532  16.549   1.575
 3137SOL    HW258251   3.497  16.689   1.499
 3138SOL     OW58252   6.933   8.522   0.289
 3138SOL    HW158253   6.906   8.537   0.194
 3138SOL    HW258254   6.894   8.436   0.321
 3139SOL     OW58255  12.612  13.956   1.305
 3139SOL    HW158256  12.677  14.031   1.312
 3139SOL    HW258257  12.591  13.920   1.396
 3140SOL     OW58258  15.189   0.212   0.832
 3140SOL    HW158259  15.209   0.128   0.781
 3140SOL    HW258260  15.248   0.286   0.799
 3141SOL     OW58261   7.469   4.958   0.945
 3141SOL    HW158262   7.376   4.942   0.978
 3141SOL    HW258263   7.521   5.006   1.015
 3142SOL     OW58264  14.399   4.188   1.199
 3142SOL    HW158265  14.424   4.284   1.207
 3142SOL    HW258266  14.305   4.176   1.232
 3143SOL     OW58267   9.099   1.117   8.276
 3143SOL    HW158268   9.044   1.069   8.344
 3143SOL    HW258269   9.196   1.103   8.295
 3144SOL     OW58270   1.144  13.852   1.191
 3144SOL    HW158271   1.086  13.862   1.111
 3144SOL    HW258272   1.228  13.803   1.166
 3145SOL     OW58273   7.112   0.114   8.253
 3145SOL    HW158274   7.147   0.051   8.322
 3145SOL    HW258275   7.083   0.062   8.172
 3146SOL     OW58276   4.800   2.762   0.912
 3146SOL    HW158277   4.872   2.818   0.953
 3146SOL    HW258278   4.805   2.769   0.812
 3147SOL     OW58279   4.294  15.076   2.544
 3147SOL    HW158280   4.393  15.069   2.545
 3147SOL    HW258281   4.254  14.998   2.591
 3148SOL     OW58282  10.572  12.039   0.702
 3148SOL    HW158283  10.598  12.083   0.788
 3148SOL    HW258284  10.556  12.110   0.632
 3149SOL     OW58285   2.251  13.809   7.212
 3149SOL    HW158286   2.331  13.769   7.167
 3149SOL    HW258287   2.227  13.895   7.167
 3150SOL     OW58288   6.433   4.714   1.937
 3150SOL    HW158289   6.444   4.679   2.030
 3150SOL    HW258290   6.514   4.765   1.910
 3151SOL     OW58291   6.083   9.958   7.257
 3151SOL    HW158292   6.023   9.883   7.284
 3151SOL    HW258293   6.070   9.978   7.160
 3152SOL     OW58294   8.373   3.063   6.848
 3152SOL    HW158295   8.283   3.025   6.829
 3152SOL    HW258296   8.397   3.128   6.776
 3153SOL     OW58297   9.036   6.860   0.202
 3153SOL    HW158298   8.982   6.775   0.200
 3153SOL    HW258299   8.978   6.935   0.234
 3154SOL     OW58300   8.423  12.304   7.425
 3154SOL    HW158301   8.418  12.208   7.453
 3154SOL    HW258302   8.360  12.320   7.350
 3155SOL     OW58303   2.521  12.244   8.057
 3155SOL    HW158304   2.488  12.241   7.962
 3155SOL    HW258305   2.544  12.339   8.080
 3156SOL     OW58306   3.275  10.229   8.290
 3156SOL    HW158307   3.304  10.171   8.366
 3156SOL    HW258308   3.176  10.240   8.292
 3157SOL     OW58309  11.109   8.129   7.032
 3157SOL    HW158310  11.134   8.054   6.972
 3157SOL    HW258311  11.188   8.156   7.087
 3158SOL     OW58312  11.675   9.200   8.021
 3158SOL    HW158313  11.624   9.216   7.936
 3158SOL    HW258314  11.772   9.187   8.000
 3159SOL     OW58315   1.418   5.670   7.806
 3159SOL    HW158316   1.369   5.757   7.813
 3159SOL    HW258317   1.516   5.687   7.808
 3160SOL     OW58318  12.748   7.249   7.096
 3160SOL    HW158319  12.827   7.305   7.071
 3160SOL    HW258320  12.684   7.245   7.020
 3161SOL     OW58321   5.950  15.283   7.650
 3161SOL    HW158322   5.890  15.313   7.576
 3161SOL    HW258323   6.043  15.271   7.614
 3162SOL     OW58324   7.006   1.074   7.479
 3162SOL    HW158325   7.050   1.008   7.540
 3162SOL    HW258326   7.065   1.154   7.468
 3163SOL     OW58327  11.403  16.242   7.208
 3163SOL    HW158328  11.464  16.180   7.159
 3163SOL    HW258329  11.312  16.201   7.217
 3164SOL     OW58330   9.729   0.457   5.830
 3164SOL    HW158331   9.785   0.377   5.809
 3164SOL    HW258332   9.634   0.428   5.847
 3165SOL     OW58333   4.046  11.514   2.232
 3165SOL    HW158334   4.113  11.569   2.282
 3165SOL    HW258335   3.995  11.457   2.297
 3166SOL     OW58336   8.330  15.128   6.759
 3166SOL    HW158337   8.293  15.191   6.690
 3166SOL    HW258338   8.387  15.179   6.823
 3167SOL     OW58339   8.338  16.469   0.402
 3167SOL    HW158340   8.361  16.544   0.463
 3167SOL    HW258341   8.390  16.387   0.429
 3168SOL     OW58342   0.064   6.525   0.159
 3168SOL    HW158343   0.067   6.429   0.130
 3168SOL    HW258344   0.157   6.558   0.174
 3169SOL     OW58345  12.544   7.904   7.860
 3169SOL    HW158346  12.608   7.836   7.894
 3169SOL    HW258347  12.469   7.915   7.924
 3170SOL     OW58348  14.190  12.470   7.413
 3170SOL    HW158349  14.276  12.496   7.456
 3170SOL    HW258350  14.168  12.535   7.340
 3171SOL     OW58351   0.220  15.665   7.747
 3171SOL    HW158352   0.310  15.627   7.727
 3171SOL    HW258353   0.175  15.609   7.816
 3172SOL     OW58354   1.347   8.973   0.540
 3172SOL    HW158355   1.425   9.008   0.592
 3172SOL    HW258356   1.269   9.033   0.552
 3173SOL     OW58357  14.364   9.260   1.062
 3173SOL    HW158358  14.271   9.222   1.064
 3173SOL    HW258359  14.388   9.292   1.154
 3174SOL     OW58360  13.984  15.665   7.617
 3174SOL    HW158361  14.043  15.669   7.698
 3174SOL    HW258362  14.039  15.649   7.536
 3175SOL     OW58363   0.484  16.960   0.421
 3175SOL    HW158364   0.443  16.967   0.331
 3175SOL    HW258365   0.448  16.880   0.468
 3176SOL     OW58366   3.063   4.482   6.596
 3176SOL    HW158367   3.109   4.567   6.619
 3176SOL    HW258368   2.981   4.502   6.542
 3177SOL     OW58369  12.910   3.778   8.201
 3177SOL    HW158370  12.891   3.682   8.221
 3177SOL    HW258371  13.007   3.797   8.216
 3178SOL     OW58372  13.184  12.937   7.795
 3178SOL    HW158373  13.259  12.879   7.828
 3178SOL    HW258374  13.216  12.993   7.719
 3179SOL     OW58375  15.772  14.265   1.796
 3179SOL    HW158376  15.716  14.280   1.877
 3179SOL    HW258377  15.741  14.325   1.722
 3180SOL     OW58378  12.288   1.180   6.452
 3180SOL    HW158379  12.380   1.145   6.470
 3180SOL    HW258380  12.240   1.193   6.538
 3181SOL     OW58381  12.649   2.645   0.506
 3181SOL    HW158382  12.673   2.733   0.548
 3181SOL    HW258383  12.698   2.634   0.420
 3182SOL     OW58384  11.002   2.592   0.413
 3182SOL    HW158385  11.087   2.641   0.398
 3182SOL    HW258386  10.924   2.653   0.400
 3183SOL     OW58387  12.217   1.097   8.004
 3183SOL    HW158388  12.185   1.185   7.969
 3183SOL    HW258389  12.221   1.100   8.104
 3184SOL     OW58390   7.288  14.029   1.948
 3184SOL    HW158391   7.387  14.017   1.955
 3184SOL    HW258392   7.255  14.076   2.030
 3185SOL     OW58393   2.429   3.910   1.868
 3185SOL    HW158394   2.343   3.954   1.843
 3185SOL    HW258395   2.501   3.978   1.872
 3186SOL     OW58396   7.127   9.598   1.122
 3186SOL    HW158397   7.103   9.503   1.107
 3186SOL    HW258398   7.204   9.624   1.065
 3187SOL     OW58399   8.774  10.998   7.247
 3187SOL    HW158400   8.682  10.990   7.209
 3187SOL    HW258401   8.802  11.094   7.247
 3188SOL     OW58402   0.399  16.236   8.300
 3188SOL    HW158403   0.395  16.145   8.259
 3188SOL    HW258404   0.436  16.301   8.234
 3189SOL     OW58405  16.213   8.510   6.178
 3189SOL    HW158406  16.305   8.484   6.149
 3189SOL    HW258407  16.157   8.428   6.189
 3190SOL     OW58408   7.630   7.950   7.764
 3190SOL    HW158409   7.660   7.910   7.677
 3190SOL    HW258410   7.570   7.886   7.811
 3191SOL     OW58411  10.699  13.130   6.459
 3191SOL    HW158412  10.707  13.162   6.365
 3191SOL    HW258413  10.608  13.094   6.475
 3192SOL     OW58414  14.371   2.777   0.523
 3192SOL    HW158415  14.387   2.695   0.469
 3192SOL    HW258416  14.403   2.857   0.473
 3193SOL     OW58417   8.405   4.732   1.384
 3193SOL    HW158418   8.407   4.725   1.284
 3193SOL    HW258419   8.351   4.811   1.411
 3194SOL     OW58420   7.204   1.004   7.897
 3194SOL    HW158421   7.304   1.003   7.890
 3194SOL    HW258422   7.176   1.001   7.993
 3195SOL     OW58423   4.591  12.074   0.403
 3195SOL    HW158424   4.568  12.154   0.457
 3195SOL    HW258425   4.582  11.992   0.459
 3196SOL     OW58426  15.086  14.539   8.088
 3196SOL    HW158427  15.169  14.595   8.089
 3196SOL    HW258428  15.072  14.501   7.997
 3197SOL     OW58429  13.155   1.325   8.094
 3197SOL    HW158430  13.158   1.392   8.020
 3197SOL    HW258431  13.069   1.273   8.088
 3198SOL     OW58432   0.179  14.704   0.870
 3198SOL    HW158433   0.259  14.762   0.857
 3198SOL    HW258434   0.191  14.618   0.819
 3199SOL     OW58435   7.736  14.914   2.160
 3199SOL    HW158436   7.775  14.954   2.243
 3199SOL    HW258437   7.710  14.819   2.177
 3200SOL     OW58438   7.836   9.133   1.544
 3200SOL    HW158439   7.882   9.130   1.632
 3200SOL    HW258440   7.755   9.191   1.550
 3201SOL     OW58441   5.148  15.936   6.321
 3201SOL    HW158442   5.168  15.856   6.264
 3201SOL    HW258443   5.058  15.972   6.297
 3202SOL     OW58444   1.250   2.435   7.467
 3202SOL    HW158445   1.174   2.407   7.409
 3202SOL    HW258446   1.216   2.487   7.545
 3203SOL     OW58447  14.755   8.946   8.268
 3203SOL    HW158448  14.854   8.959   8.261
 3203SOL    HW258449  14.733   8.902   8.355
 3204SOL     OW58450  10.038  16.941   0.526
 3204SOL    HW158451  10.137  16.945   0.518
 3204SOL    HW258452  10.011  16.968   0.618
 3205SOL     OW58453   0.477  16.421   8.113
 3205SOL    HW158454   0.451  16.494   8.176
 3205SOL    HW258455   0.466  16.452   8.019
 3206SOL     OW58456   8.876   2.401   7.146
 3206SOL    HW158457   8.866   2.336   7.221
 3206SOL    HW258458   8.974   2.416   7.129
 3207SOL     OW58459   5.779  13.535   1.505
 3207SOL    HW158460   5.734  13.598   1.568
 3207SOL    HW258461   5.752  13.557   1.411
 3208SOL     OW58462  14.129   9.509   7.761
 3208SOL    HW158463  14.078   9.492   7.677
 3208SOL    HW258464  14.066   9.505   7.839
 3209SOL     OW58465   9.195  14.064   7.788
 3209SOL    HW158466   9.129  14.069   7.863
 3209SOL    HW258467   9.158  14.006   7.715
 3210SOL     OW58468  13.926  11.137   7.196
 3210SOL    HW158469  13.857  11.209   7.202
 3210SOL    HW258470  13.953  11.109   7.288
 3211SOL     OW58471  14.609   4.117   0.575
 3211SOL    HW158472  14.653   4.044   0.523
 3211SOL    HW258473  14.674   4.157   0.640
 3212SOL     OW58474   2.188   6.909   7.534
 3212SOL    HW158475   2.120   6.870   7.473
 3212SOL    HW258476   2.224   6.994   7.495
 3213SOL     OW58477  13.345   2.575   7.098
 3213SOL    HW158478  13.401   2.545   7.021
 3213SOL    HW258479  13.343   2.504   7.168
 3214SOL     OW58480  14.377  10.806   7.949
 3214SOL    HW158481  14.278  10.793   7.942
 3214SOL    HW258482  14.409  10.857   7.869
 3215SOL     OW58483  14.515   2.579   0.109
 3215SOL    HW158484  14.576   2.500   0.108
 3215SOL    HW258485  14.567   2.662   0.085
 3216SOL     OW58486   8.024   3.022   1.371
 3216SOL    HW158487   8.094   2.955   1.345
 3216SOL    HW258488   7.946   2.974   1.411
 3217SOL     OW58489  10.219  15.635   7.434
 3217SOL    HW158490  10.319  15.625   7.442
 3217SOL    HW258491  10.193  15.630   7.337
 3218SOL     OW58492   3.257   2.868   0.073
 3218SOL    HW158493   3.320   2.823   0.136
 3218SOL    HW258494   3.170   2.819   0.072
 3219SOL     OW58495  13.372   2.317   0.188
 3219SOL    HW158496  13.453   2.283   0.237
 3219SOL    HW258497  13.391   2.408   0.151
 3220SOL     OW58498   8.888  16.046   1.195
 3220SOL    HW158499   8.838  16.087   1.119
 3220SOL    HW258500   8.984  16.031   1.168
 3221SOL     OW58501  14.469  12.282   0.241
 3221SOL    HW158502  14.508  12.197   0.276
 3221SOL    HW258503  14.400  12.317   0.304
 3222SOL     OW58504   5.085  15.151   0.102
 3222SOL    HW158505   5.069  15.249   0.115
 3222SOL    HW258506   5.163  15.123   0.157
 3223SOL     OW58507   9.149   3.137   0.983
 3223SOL    HW158508   9.227   3.074   0.978
 3223SOL    HW258509   9.065   3.085   0.999
 3224SOL     OW58510  11.885  12.485   7.340
 3224SOL    HW158511  11.939  12.402   7.325
 3224SOL    HW258512  11.940  12.565   7.316
 3225SOL     OW58513   0.045  16.571   7.883
 3225SOL    HW158514   0.021  16.494   7.942
 3225SOL    HW258515   0.110  16.540   7.813
 3226SOL     OW58516   0.570   4.955   5.934
 3226SOL    HW158517   0.514   4.973   6.015
 3226SOL    HW258518   0.628   5.034   5.915
 3227SOL     OW58519  16.435   7.304   8.422
 3227SOL    HW158520  16.337   7.286   8.431
 3227SOL    HW258521  16.450   7.372   8.350
 3228SOL     OW58522   0.992  13.457   7.790
 3228SOL    HW158523   0.898  13.436   7.815
 3228SOL    HW258524   1.039  13.496   7.869
 3229SOL     OW58525  12.671  16.902   7.189
 3229SOL    HW158526  12.579  16.941   7.187
 3229SOL    HW258527  12.677  16.828   7.121
 3230SOL     OW58528   8.374  12.872   0.729
 3230SOL    HW158529   8.303  12.841   0.666
 3230SOL    HW258530   8.333  12.932   0.798
 3231SOL     OW58531   8.217   4.861   7.326
 3231SOL    HW158532   8.225   4.776   7.379
 3231SOL    HW258533   8.288   4.863   7.256
 3232SOL     OW58534  12.776   1.338   0.105
 3232SOL    HW158535  12.736   1.251   0.076
 3232SOL    HW258536  12.864   1.351   0.059
 3233SOL     OW58537  15.843   7.616   0.139
 3233SOL    HW158538  15.772   7.685   0.130
 3233SOL    HW258539  15.930   7.654   0.109
 3234SOL     OW58540   4.526   9.714   1.485
 3234SOL    HW158541   4.470   9.672   1.556
 3234SOL    HW258542   4.565   9.799   1.520
 3235SOL     OW58543  10.033   8.090   7.682
 3235SOL    HW158544   9.956   8.051   7.732
 3235SOL    HW258545  10.002   8.167   7.626
 3236SOL     OW58546   8.151  10.005   7.332
 3236SOL    HW158547   8.223  10.027   7.265
 3236SOL    HW258548   8.139  10.082   7.394
 3237SOL     OW58549   2.708  13.087   0.100
 3237SOL    HW158550   2.652  13.149   0.044
 3237SOL    HW258551   2.649  13.020   0.145
 3238SOL     OW58552   8.310  11.780   0.033
 3238SOL    HW158553   8.323  11.724   8.405
 3238SOL    HW258554   8.274  11.723   0.107
 3239SOL     OW58555   9.094   2.435   0.345
 3239SOL    HW158556   9.031   2.505   0.381
 3239SOL    HW258557   9.060   2.344   0.369
 3240SOL     OW58558   1.481  15.691   6.481
 3240SOL    HW158559   1.459  15.774   6.429
 3240SOL    HW258560   1.563  15.706   6.535
 3241SOL     OW58561   7.175  14.744   7.878
 3241SOL    HW158562   7.166  14.741   7.779
 3241SOL    HW258563   7.085  14.757   7.920
 3242SOL     OW58564   9.789   4.656   1.003
 3242SOL    HW158565   9.735   4.723   0.952
 3242SOL    HW258566   9.878   4.696   1.025
 3243SOL     OW58567   8.398   0.652   7.003
 3243SOL    HW158568   8.302   0.626   7.016
 3243SOL    HW258569   8.404   0.717   6.928
 3244SOL     OW58570   2.032   8.082   8.272
 3244SOL    HW158571   2.057   8.001   8.324
 3244SOL    HW258572   1.941   8.069   8.232
 3245SOL     OW58573   8.582   6.059   1.251
 3245SOL    HW158574   8.610   6.130   1.187
 3245SOL    HW258575   8.643   5.981   1.243
 3246SOL     OW58576   5.815   1.036   1.136
 3246SOL    HW158577   5.779   1.129   1.128
 3246SOL    HW258578   5.912   1.035   1.108
 3247SOL     OW58579  11.251  11.977   7.511
 3247SOL    HW158580  11.152  11.985   7.516
 3247SOL    HW258581  11.293  12.066   7.527
 3248SOL     OW58582   7.336  10.712   6.360
 3248SOL    HW158583   7.321  10.810   6.355
 3248SOL    HW258584   7.426  10.690   6.322
 3249SOL     OW58585   4.888  10.797   7.636
 3249SOL    HW158586   4.971  10.745   7.653
 3249SOL    HW258587   4.909  10.894   7.636
 3250SOL     OW58588   4.014   1.098   7.443
 3250SOL    HW158589   4.087   1.094   7.512
 3250SOL    HW258590   4.042   1.157   7.368
 3251SOL     OW58591   3.045  14.223   2.330
 3251SOL    HW158592   3.071  14.319   2.323
 3251SOL    HW258593   2.945  14.215   2.330
 3252SOL     OW58594   3.643  12.751   8.189
 3252SOL    HW158595   3.685  12.661   8.193
 3252SOL    HW258596   3.543  12.742   8.186
 3253SOL     OW58597  16.591   0.649   7.359
 3253SOL    HW158598  16.689   0.650   7.380
 3253SOL    HW258599  16.556   0.556   7.371
 3254SOL     OW58600  14.426  12.827   2.113
 3254SOL    HW158601  14.329  12.828   2.134
 3254SOL    HW258602  14.464  12.737   2.134
 3255SOL     OW58603   3.683  14.744   6.552
 3255SOL    HW158604   3.729  14.676   6.496
 3255SOL    HW258605   3.667  14.827   6.497
 3256SOL     OW58606   5.599  16.973   1.857
 3256SOL    HW158607   5.603  16.950   1.955
 3256SOL    HW258608   5.540   0.069   1.843
 3257SOL     OW58609  10.218   4.397   0.958
 3257SOL    HW158610  10.273   4.316   0.980
 3257SOL    HW258611  10.132   4.368   0.916
 3258SOL     OW58612   8.102   8.539   0.928
 3258SOL    HW158613   8.175   8.604   0.946
 3258SOL    HW258614   8.126   8.449   0.966
 3259SOL     OW58615   1.050  16.973   6.575
 3259SOL    HW158616   1.025   0.072   6.525
 3259SOL    HW258617   1.072  16.900   6.510
 3260SOL     OW58618   7.932  16.771   1.175
 3260SOL    HW158619   7.952  16.846   1.112
 3260SOL    HW258620   8.017  16.739   1.217
 3261SOL     OW58621   8.410  11.542   0.947
 3261SOL    HW158622   8.320  11.519   0.984
 3261SOL    HW258623   8.437  11.473   0.880
 3262SOL     OW58624   9.301   4.713   1.948
 3262SOL    HW158625   9.310   4.810   1.925
 3262SOL    HW258626   9.247   4.704   2.032
 3263SOL     OW58627   7.003  10.127   6.711
 3263SOL    HW158628   7.075  10.119   6.643
 3263SOL    HW258629   6.925  10.176   6.673
 3264SOL     OW58630   8.081   0.867   6.153
 3264SOL    HW158631   7.992   0.874   6.199
 3264SOL    HW258632   8.083   0.783   6.099
 3265SOL     OW58633   6.956  11.111   0.685
 3265SOL    HW158634   6.871  11.059   0.693
 3265SOL    HW258635   6.947  11.197   0.736
 3266SOL     OW58636  10.159  15.723   5.844
 3266SOL    HW158637  10.170  15.626   5.822
 3266SOL    HW258638  10.225  15.777   5.792
 3267SOL     OW58639  16.413  16.360   0.518
 3267SOL    HW158640  16.431  16.438   0.458
 3267SOL    HW258641  16.443  16.381   0.611
 3268SOL     OW58642  10.197  11.088   0.608
 3268SOL    HW158643  10.239  11.005   0.573
 3268SOL    HW258644  10.146  11.134   0.535
 3269SOL     OW58645   8.557  15.115   1.757
 3269SOL    HW158646   8.548  15.017   1.736
 3269SOL    HW258647   8.621  15.127   1.833
 3270SOL     OW58648  12.508   1.204   7.516
 3270SOL    HW158649  12.517   1.230   7.612
 3270SOL    HW258650  12.582   1.143   7.491
 3271SOL     OW58651   7.323  11.441   7.826
 3271SOL    HW158652   7.328  11.471   7.731
 3271SOL    HW258653   7.372  11.354   7.836
 3272SOL     OW58654   3.678   9.525   0.995
 3272SOL    HW158655   3.678   9.452   0.926
 3272SOL    HW258656   3.723   9.492   1.078
 3273SOL     OW58657   6.384   1.738   0.437
 3273SOL    HW158658   6.378   1.817   0.376
 3273SOL    HW258659   6.316   1.747   0.510
 3274SOL     OW58660   9.707   0.104   8.108
 3274SOL    HW158661   9.613   0.089   8.078
 3274SOL    HW258662   9.707   0.164   8.189
 3275SOL     OW58663   2.159   2.142   7.549
 3275SOL    HW158664   2.151   2.203   7.470
 3275SOL    HW258665   2.211   2.188   7.621
 3276SOL     OW58666   5.134   6.368   0.664
 3276SOL    HW158667   5.037   6.363   0.642
 3276SOL    HW258668   5.182   6.417   0.591
 3277SOL     OW58669  12.120  11.301   2.001
 3277SOL    HW158670  12.189  11.234   2.029
 3277SOL    HW258671  12.142  11.337   1.911
 3278SOL     OW58672   7.261   5.777   1.967
 3278SOL    HW158673   7.244   5.682   1.992
 3278SOL    HW258674   7.296   5.781   1.874
 3279SOL     OW58675   5.223  15.153   1.945
 3279SOL    HW158676   5.191  15.105   2.026
 3279SOL    HW258677   5.265  15.240   1.972
 3280SOL     OW58678   6.266  15.067   6.495
 3280SOL    HW158679   6.252  14.988   6.436
 3280SOL    HW258680   6.285  15.147   6.438
 3281SOL     OW58681  10.049  15.559   0.176
 3281SOL    HW158682   9.955  15.548   0.145
 3281SOL    HW258683  10.110  15.510   0.115
 3282SOL     OW58684   9.913  13.752   7.535
 3282SOL    HW158685   9.875  13.826   7.480
 3282SOL    HW258686   9.839  13.698   7.575
 3283SOL     OW58687   4.999   0.737   1.792
 3283SOL    HW158688   5.080   0.778   1.752
 3283SOL    HW258689   4.968   0.793   1.869
 3284SOL     OW58690  13.956   0.932   7.639
 3284SOL    HW158691  14.009   0.876   7.704
 3284SOL    HW258692  13.869   0.886   7.620
 3285SOL     OW58693   6.447  16.956   7.147
 3285SOL    HW158694   6.534  16.950   7.197
 3285SOL    HW258695   6.463  16.937   7.050
 3286SOL     OW58696  14.501   4.735   6.722
 3286SOL    HW158697  14.592   4.700   6.698
 3286SOL    HW258698  14.511   4.811   6.786
 3287SOL     OW58699  10.780   8.743   0.691
 3287SOL    HW158700  10.859   8.751   0.751
 3287SOL    HW258701  10.796   8.796   0.607
 3288SOL     OW58702   5.607   3.789   1.709
 3288SOL    HW158703   5.684   3.849   1.727
 3288SOL    HW258704   5.524   3.826   1.751
 3289SOL     OW58705  10.915   1.046   5.932
 3289SOL    HW158706  10.978   0.969   5.940
 3289SOL    HW258707  10.895   1.064   5.836
 3290SOL     OW58708   0.370  12.549   7.232
 3290SOL    HW158709   0.347  12.519   7.139
 3290SOL    HW258710   0.465  12.525   7.252
 3291SOL     OW58711   5.777   3.186   1.465
 3291SOL    HW158712   5.837   3.219   1.392
 3291SOL    HW258713   5.814   3.213   1.554
 3292SOL     OW58714  11.701   0.606   0.007
 3292SOL    HW158715  11.697   0.681   8.395
 3292SOL    HW258716  11.765   0.629   0.080
 3293SOL     OW58717   2.093  10.052   0.568
 3293SOL    HW158718   2.025   9.997   0.519
 3293SOL    HW258719   2.164   9.993   0.605
 3294SOL     OW58720   8.935  14.519   5.787
 3294SOL    HW158721   8.981  14.437   5.752
 3294SOL    HW258722   8.839  14.517   5.760
 3295SOL     OW58723  10.542  12.882   1.291
 3295SOL    HW158724  10.457  12.849   1.331
 3295SOL    HW258725  10.522  12.943   1.214
 3296SOL     OW58726   9.047  14.453   8.290
 3296SOL    HW158727   9.081  14.420   8.378
 3296SOL    HW258728   8.948  14.465   8.296
 3297SOL     OW58729   4.175   1.360   1.144
 3297SOL    HW158730   4.217   1.443   1.180
 3297SOL    HW258731   4.080   1.355   1.174
 3298SOL     OW58732   6.663  13.754   7.877
 3298SOL    HW158733   6.571  13.790   7.893
 3298SOL    HW258734   6.728  13.800   7.937
 3299SOL     OW58735   8.945  10.104   8.033
 3299SOL    HW158736   8.978  10.198   8.041
 3299SOL    HW258737   9.015  10.048   7.990
 3300SOL     OW58738  16.722   3.920   6.894
 3300SOL    HW158739  16.813   3.941   6.927
 3300SOL    HW258740  16.712   3.951   6.799
 3301SOL     OW58741   2.146  14.603   0.799
 3301SOL    HW158742   2.230  14.551   0.814
 3301SOL    HW258743   2.154  14.693   0.843
 3302SOL     OW58744   7.018   8.257   7.684
 3302SOL    HW158745   7.008   8.326   7.755
 3302SOL    HW258746   6.934   8.203   7.677
 3303SOL     OW58747   9.959   6.197   7.333
 3303SOL    HW158748  10.022   6.272   7.352
 3303SOL    HW258749   9.969   6.126   7.402
 3304SOL     OW58750   1.268   9.055   1.402
 3304SOL    HW158751   1.330   9.107   1.461
 3304SOL    HW258752   1.223   8.984   1.456
 3305SOL     OW58753   5.906   2.663   1.343
 3305SOL    HW158754   5.807   2.673   1.330
 3305SOL    HW258755   5.954   2.719   1.275
 3306SOL     OW58756  14.767   3.482   8.388
 3306SOL    HW158757  14.673   3.494   8.421
 3306SOL    HW258758  14.790   3.557   8.325
 3307SOL     OW58759  15.520   0.126   6.654
 3307SOL    HW158760  15.508   0.194   6.726
 3307SOL    HW258761  15.472   0.155   6.572
 3308SOL     OW58762  11.685  16.829   1.196
 3308SOL    HW158763  11.646  16.920   1.183
 3308SOL    HW258764  11.785  16.836   1.201
 3309SOL     OW58765   3.429  13.856   7.535
 3309SOL    HW158766   3.521  13.838   7.570
 3309SOL    HW258767   3.362  13.808   7.592
 3310SOL     OW58768   0.450   4.756   1.597
 3310SOL    HW158769   0.511   4.822   1.641
 3310SOL    HW258770   0.358   4.764   1.636
 3311SOL     OW58771  15.092   0.005   8.231
 3311SOL    HW158772  15.035  16.954   8.305
 3311SOL    HW258773  15.112   0.102   8.247
 3312SOL     OW58774  16.981   6.817   6.801
 3312SOL    HW158775  16.965   6.817   6.702
 3312SOL    HW258776   0.088   6.856   6.820
 3313SOL     OW58777   3.322   9.289   7.030
 3313SOL    HW158778   3.264   9.242   6.964
 3313SOL    HW258779   3.398   9.334   6.983
 3314SOL     OW58780  12.265  10.943   1.187
 3314SOL    HW158781  12.184  10.987   1.150
 3314SOL    HW258782  12.250  10.844   1.192
 3315SOL     OW58783   2.940  16.800   2.815
 3315SOL    HW158784   2.845  16.827   2.832
 3315SOL    HW258785   2.970  16.737   2.887
 3316SOL     OW58786   7.873   1.420   0.928
 3316SOL    HW158787   7.904   1.459   1.015
 3316SOL    HW258788   7.822   1.336   0.946
 3317SOL     OW58789  14.343   5.130   0.442
 3317SOL    HW158790  14.397   5.066   0.497
 3317SOL    HW258791  14.254   5.089   0.421
 3318SOL     OW58792   7.790  16.497   2.264
 3318SOL    HW158793   7.730  16.444   2.324
 3318SOL    HW258794   7.872  16.445   2.243
 3319SOL     OW58795   0.488  13.707   1.528
 3319SOL    HW158796   0.486  13.675   1.623
 3319SOL    HW258797   0.500  13.806   1.527
 3320SOL     OW58798  10.721   0.833   0.381
 3320SOL    HW158799  10.798   0.866   0.435
 3320SOL    HW258800  10.740   0.848   0.284
 3321SOL     OW58801   9.969   7.201   8.280
 3321SOL    HW158802  10.048   7.143   8.259
 3321SOL    HW258803   9.898   7.146   8.324
 3322SOL     OW58804  12.832   9.174   7.825
 3322SOL    HW158805  12.847   9.242   7.754
 3322SOL    HW258806  12.920   9.140   7.859
 3323SOL     OW58807   2.486   6.349   0.097
 3323SOL    HW158808   2.529   6.371   0.184
 3323SOL    HW258809   2.528   6.266   0.059
 3324SOL     OW58810  11.708   1.336   0.264
 3324SOL    HW158811  11.793   1.295   0.230
 3324SOL    HW258812  11.727   1.428   0.297
 3325SOL     OW58813  14.745   7.133   8.239
 3325SOL    HW158814  14.653   7.120   8.202
 3325SOL    HW258815  14.739   7.147   8.338
 3326SOL     OW58816  14.570   4.059   1.505
 3326SOL    HW158817  14.506   4.006   1.450
 3326SOL    HW258818  14.597   4.141   1.455
 3327SOL     OW58819   3.155  16.309   0.053
 3327SOL    HW158820   3.117  16.391   0.011
 3327SOL    HW258821   3.216  16.335   0.128
 3328SOL     OW58822   8.272   3.933   7.073
 3328SOL    HW158823   8.298   3.971   7.162
 3328SOL    HW258824   8.191   3.981   7.039
 3329SOL     OW58825   3.508   5.363   0.033
 3329SOL    HW158826   3.408   5.366   0.045
 3329SOL    HW258827   3.549   5.326   0.116
 3330SOL     OW58828  14.170   0.789   6.822
 3330SOL    HW158829  14.137   0.753   6.734
 3330SOL    HW258830  14.170   0.889   6.818
 3331SOL     OW58831   3.323   7.964   1.343
 3331SOL    HW158832   3.255   7.952   1.415
 3331SOL    HW258833   3.286   7.931   1.256
 3332SOL     OW58834  14.086   1.198   7.919
 3332SOL    HW158835  14.127   1.113   7.951
 3332SOL    HW258836  14.158   1.266   7.906
 3333SOL     OW58837   1.238  12.590   1.266
 3333SOL    HW158838   1.157  12.644   1.243
 3333SOL    HW258839   1.269  12.541   1.184
 3334SOL     OW58840   9.279   1.489   0.689
 3334SOL    HW158841   9.275   1.503   0.788
 3334SOL    HW258842   9.295   1.392   0.670
 3335SOL     OW58843  10.532  10.243   1.338
 3335SOL    HW158844  10.565  10.284   1.252
 3335SOL    HW258845  10.541  10.309   1.412
 3336SOL     OW58846   5.727  16.966   2.697
 3336SOL    HW158847   5.742   0.081   2.690
 3336SOL    HW258848   5.733  16.938   2.793
 3337SOL     OW58849   4.328  15.438   1.138
 3337SOL    HW158850   4.324  15.430   1.039
 3337SOL    HW258851   4.339  15.534   1.164
 3338SOL     OW58852  10.231  14.455   7.981
 3338SOL    HW158853  10.259  14.365   8.016
 3338SOL    HW258854  10.162  14.494   8.043
 3339SOL     OW58855   5.613   3.649   0.233
 3339SOL    HW158856   5.651   3.659   0.141
 3339SOL    HW258857   5.631   3.556   0.266
 3340SOL     OW58858  11.109   7.593   1.532
 3340SOL    HW158859  11.053   7.661   1.578
 3340SOL    HW258860  11.109   7.508   1.586
 3341SOL     OW58861   6.893   1.430   7.457
 3341SOL    HW158862   6.912   1.441   7.555
 3341SOL    HW258863   6.975   1.399   7.410
 3342SOL     OW58864  15.220   0.588   0.618
 3342SOL    HW158865  15.132   0.572   0.573
 3342SOL    HW258866  15.221   0.680   0.657
 3343SOL     OW58867   1.067   6.656   6.168
 3343SOL    HW158868   1.061   6.743   6.121
 3343SOL    HW258869   1.072   6.582   6.101
 3344SOL     OW58870  16.831   5.958   0.026
 3344SOL    HW158871  16.891   5.962   8.401
 3344SOL    HW258872  16.832   5.866   0.064
 3345SOL     OW58873   9.303  12.826   1.678
 3345SOL    HW158874   9.392  12.855   1.713
 3345SOL    HW258875   9.231  12.856   1.739
 3346SOL     OW58876   7.986  12.808   1.099
 3346SOL    HW158877   8.053  12.872   1.136
 3346SOL    HW258878   7.899  12.821   1.147
 3347SOL     OW58879  14.714   0.674   1.483
 3347SOL    HW158880  14.801   0.624   1.485
 3347SOL    HW258881  14.699   0.719   1.571
 3348SOL     OW58882  12.833   7.576   7.303
 3348SOL    HW158883  12.840   7.650   7.236
 3348SOL    HW258884  12.738   7.548   7.311
 3349SOL     OW58885   9.964   8.669   1.176
 3349SOL    HW158886  10.009   8.682   1.264
 3349SOL    HW258887   9.902   8.591   1.181
 3350SOL     OW58888   8.128  13.053   1.673
 3350SOL    HW158889   8.203  13.118   1.687
 3350SOL    HW258890   8.044  13.090   1.713
 3351SOL     OW58891  12.993   6.888   6.625
 3351SOL    HW158892  12.949   6.821   6.565
 3351SOL    HW258893  13.080   6.916   6.586
 3352SOL     OW58894   4.644   9.501   2.588
 3352SOL    HW158895   4.684   9.593   2.583
 3352SOL    HW258896   4.603   9.487   2.678
 3353SOL     OW58897   2.235   7.987   1.639
 3353SOL    HW158898   2.308   7.945   1.584
 3353SOL    HW258899   2.270   8.069   1.684
 3354SOL     OW58900   1.224  14.284   0.367
 3354SOL    HW158901   1.240  14.257   0.272
 3354SOL    HW258902   1.288  14.357   0.392
 3355SOL     OW58903   8.555  16.472   6.092
 3355SOL    HW158904   8.550  16.381   6.051
 3355SOL    HW258905   8.567  16.541   6.019
 3356SOL     OW58906  16.149  12.340   5.910
 3356SOL    HW158907  16.193  12.314   5.824
 3356SOL    HW258908  16.111  12.259   5.954
 3357SOL     OW58909   5.344  12.778   0.719
 3357SOL    HW158910   5.255  12.735   0.709
 3357SOL    HW258911   5.354  12.815   0.812
 3358SOL     OW58912   9.103  13.079   0.867
 3358SOL    HW158913   9.091  13.025   0.950
 3358SOL    HW258914   9.192  13.057   0.826
 3359SOL     OW58915  13.247  10.134   8.076
 3359SOL    HW158916  13.323  10.198   8.079
 3359SOL    HW258917  13.160  10.183   8.080
 3360SOL     OW58918   6.127  13.303   8.191
 3360SOL    HW158919   6.135  13.402   8.178
 3360SOL    HW258920   6.042  13.282   8.238
 3361SOL     OW58921   7.728   6.440   5.768
 3361SOL    HW158922   7.677   6.469   5.688
 3361SOL    HW258923   7.799   6.374   5.741
 3362SOL     OW58924   9.873   6.140   2.173
 3362SOL    HW158925   9.927   6.086   2.237
 3362SOL    HW258926   9.866   6.091   2.086
 3363SOL     OW58927  16.523   1.818   0.289
 3363SOL    HW158928  16.476   1.742   0.334
 3363SOL    HW258929  16.487   1.829   0.196
 3364SOL     OW58930   4.586   1.602   1.523
 3364SOL    HW158931   4.604   1.583   1.619
 3364SOL    HW258932   4.498   1.561   1.496
 3365SOL     OW58933   2.910  13.736   0.075
 3365SOL    HW158934   2.911  13.725   8.430
 3365SOL    HW258935   2.899  13.832   0.098
 3366SOL     OW58936   2.371   9.928   1.479
 3366SOL    HW158937   2.404   9.836   1.500
 3366SOL    HW258938   2.297   9.953   1.541
 3367SOL     OW58939  14.787  11.332   7.605
 3367SOL    HW158940  14.854  11.350   7.677
 3367SOL    HW258941  14.701  11.378   7.628
 3368SOL     OW58942   2.832   8.778   2.018
 3368SOL    HW158943   2.849   8.680   2.011
 3368SOL    HW258944   2.753   8.794   2.078
 3369SOL     OW58945  16.735  11.978   0.839
 3369SOL    HW158946  16.693  11.912   0.777
 3369SOL    HW258947  16.665  12.013   0.901
 3370SOL     OW58948  14.939  14.597   0.769
 3370SOL    HW158949  14.910  14.502   0.781
 3370SOL    HW258950  14.995  14.624   0.847
 3371SOL     OW58951  10.429   2.315   2.202
 3371SOL    HW158952  10.515   2.362   2.185
 3371SOL    HW258953  10.443   2.240   2.266
 3372SOL     OW58954   9.619   0.738   7.811
 3372SOL    HW158955   9.707   0.708   7.849
 3372SOL    HW258956   9.561   0.658   7.793
 3373SOL     OW58957   4.342   6.779   6.200
 3373SOL    HW158958   4.293   6.860   6.234
 3373SOL    HW258959   4.288   6.697   6.218
 3374SOL     OW58960   1.162   4.787   7.700
 3374SOL    HW158961   1.108   4.857   7.747
 3374SOL    HW258962   1.243   4.765   7.754
 3375SOL     OW58963   4.309   1.989   7.353
 3375SOL    HW158964   4.282   1.900   7.391
 3375SOL    HW258965   4.243   2.017   7.283
 3376SOL     OW58966   4.373   4.826   1.215
 3376SOL    HW158967   4.329   4.737   1.204
 3376SOL    HW258968   4.426   4.847   1.133
 3377SOL     OW58969   4.456   2.959   8.263
 3377SOL    HW158970   4.472   2.868   8.223
 3377SOL    HW258971   4.543   2.999   8.291
 3378SOL     OW58972   3.353  10.552   0.070
 3378SOL    HW158973   3.361  10.613   8.445
 3378SOL    HW258974   3.268  10.500   0.063
 3379SOL     OW58975  11.485   9.893   8.178
 3379SOL    HW158976  11.463   9.795   8.173
 3379SOL    HW258977  11.411   9.940   8.226
 3380SOL     OW58978  14.248  10.131   0.034
 3380SOL    HW158979  14.170  10.110   0.094
 3380SOL    HW258980  14.322  10.172   0.088
 3381SOL     OW58981   8.673   5.266   1.019
 3381SOL    HW158982   8.583   5.300   1.047
 3381SOL    HW258983   8.703   5.196   1.084
 3382SOL     OW58984   9.694   9.335   8.086
 3382SOL    HW158985   9.648   9.415   8.124
 3382SOL    HW258986   9.628   9.260   8.076
 3383SOL     OW58987  13.085   2.572   0.698
 3383SOL    HW158988  13.126   2.647   0.750
 3383SOL    HW258989  13.043   2.506   0.760
 3384SOL     OW58990   6.891   3.653   8.307
 3384SOL    HW158991   6.971   3.616   8.354
 3384SOL    HW258992   6.850   3.581   8.250
 3385SOL     OW58993  12.154  16.511   1.453
 3385SOL    HW158994  12.195  16.437   1.401
 3385SOL    HW258995  12.071  16.478   1.499
 3386SOL     OW58996  12.519  12.950   6.169
 3386SOL    HW158997  12.518  13.009   6.088
 3386SOL    HW258998  12.602  12.894   6.168
 3387SOL     OW58999   0.321   3.670   7.693
 3387SOL    HW159000   0.290   3.575   7.687
 3387SOL    HW259001   0.267   3.719   7.760
 3388SOL     OW59002  15.800   8.939   6.497
 3388SOL    HW159003  15.840   9.020   6.453
 3388SOL    HW259004  15.702   8.954   6.512
 3389SOL     OW59005  14.489  15.630   8.008
 3389SOL    HW159006  14.585  15.638   7.981
 3389SOL    HW259007  14.458  15.718   8.044
 3390SOL     OW59008   5.041  15.955   0.240
 3390SOL    HW159009   5.138  15.929   0.240
 3390SOL    HW259010   4.985  15.877   0.212
 3391SOL     OW59011  13.707   6.661   6.876
 3391SOL    HW159012  13.680   6.567   6.858
 3391SOL    HW259013  13.628   6.721   6.869
 3392SOL     OW59014   2.255  12.029   2.724
 3392SOL    HW159015   2.201  11.979   2.792
 3392SOL    HW259016   2.241  12.128   2.736
 3393SOL     OW59017   4.961   4.222   6.179
 3393SOL    HW159018   4.879   4.181   6.138
 3393SOL    HW259019   5.042   4.175   6.144
 3394SOL     OW59020   9.520   4.113   1.075
 3394SOL    HW159021   9.591   4.139   1.141
 3394SOL    HW259022   9.547   4.028   1.029
 3395SOL     OW59023   5.596  15.562   0.474
 3395SOL    HW159024   5.662  15.530   0.542
 3395SOL    HW259025   5.636  15.557   0.383
 3396SOL     OW59026  15.140   3.622   1.199
 3396SOL    HW159027  15.054   3.576   1.220
 3396SOL    HW259028  15.165   3.681   1.276
 3397SOL     OW59029  10.514   2.813   6.131
 3397SOL    HW159030  10.516   2.816   6.231
 3397SOL    HW259031  10.486   2.721   6.101
 3398SOL     OW59032   7.752   8.349   7.334
 3398SOL    HW159033   7.745   8.441   7.373
 3398SOL    HW259034   7.747   8.281   7.407
 3399SOL     OW59035  15.926  16.958   1.290
 3399SOL    HW159036  16.012  16.963   1.239
 3399SOL    HW259037  15.882  16.870   1.274
 3400SOL     OW59038  16.893   8.535   8.377
 3400SOL    HW159039  16.896   8.454   8.436
 3400SOL    HW259040  16.941   8.611   8.422
 3401SOL     OW59041  12.256   3.333   7.522
 3401SOL    HW159042  12.319   3.345   7.599
 3401SOL    HW259043  12.170   3.294   7.555
 3402SOL     OW59044  16.065   1.188   7.925
 3402SOL    HW159045  16.045   1.268   7.981
 3402SOL    HW259046  16.162   1.185   7.902
 3403SOL     OW59047   1.081   4.361   6.572
 3403SOL    HW159048   1.123   4.435   6.518
 3403SOL    HW259049   1.025   4.304   6.512
 3404SOL     OW59050  10.500  15.783   6.620
 3404SOL    HW159051  10.497  15.813   6.525
 3404SOL    HW259052  10.517  15.862   6.679
 3405SOL     OW59053   5.331   9.877   1.652
 3405SOL    HW159054   5.231   9.883   1.658
 3405SOL    HW259055   5.359   9.781   1.650
 3406SOL     OW59056   7.551  10.268   0.445
 3406SOL    HW159057   7.517  10.215   0.367
 3406SOL    HW259058   7.503  10.356   0.449
 3407SOL     OW59059  13.180  11.814   8.071
 3407SOL    HW159060  13.163  11.752   7.994
 3407SOL    HW259061  13.129  11.782   8.151
 3408SOL     OW59062   1.099  15.641   7.924
 3408SOL    HW159063   1.088  15.737   7.899
 3408SOL    HW259064   1.012  15.594   7.916
 3409SOL     OW59065  14.307   3.709   1.549
 3409SOL    HW159066  14.244   3.719   1.626
 3409SOL    HW259067  14.329   3.612   1.537
 3410SOL     OW59068   8.596   8.241   0.071
 3410SOL    HW159069   8.520   8.275   0.127
 3410SOL    HW259070   8.612   8.304   8.448
 3411SOL     OW59071   8.794   4.608   0.304
 3411SOL    HW159072   8.850   4.560   0.236
 3411SOL    HW259073   8.697   4.598   0.280
 3412SOL     OW59074   9.389  11.926   0.947
 3412SOL    HW159075   9.322  11.950   0.877
 3412SOL    HW259076   9.351  11.855   1.006
 3413SOL     OW59077  16.109   2.454   7.503
 3413SOL    HW159078  16.122   2.385   7.432
 3413SOL    HW259079  16.176   2.441   7.576
 3414SOL     OW59080  14.388   9.971   7.411
 3414SOL    HW159081  14.435   9.883   7.419
 3414SOL    HW259082  14.452  10.039   7.373
 3415SOL     OW59083  16.594   5.950   1.364
 3415SOL    HW159084  16.545   5.979   1.282
 3415SOL    HW259085  16.568   6.009   1.441
 3416SOL     OW59086   7.697   9.980   7.932
 3416SOL    HW159087   7.753  10.054   7.972
 3416SOL    HW259088   7.720   9.971   7.835
 3417SOL     OW59089  14.165  10.258   7.144
 3417SOL    HW159090  14.105  10.187   7.107
 3417SOL    HW259091  14.260  10.237   7.120
 3418SOL     OW59092   6.064  14.092   1.875
 3418SOL    HW159093   6.090  14.165   1.938
 3418SOL    HW259094   6.090  14.003   1.915
 3419SOL     OW59095  10.105  13.111   7.103
 3419SOL    HW159096  10.062  13.180   7.045
 3419SOL    HW259097  10.156  13.156   7.177
 3420SOL     OW59098  15.806   9.648   8.314
 3420SOL    HW159099  15.881   9.590   8.347
 3420SOL    HW259100  15.837   9.702   8.236
 3421SOL     OW59101  13.967   3.462   7.119
 3421SOL    HW159102  14.028   3.538   7.099
 3421SOL    HW259103  13.922   3.477   7.208
 3422SOL     OW59104   4.350   6.377   7.044
 3422SOL    HW159105   4.292   6.299   7.068
 3422SOL    HW259106   4.332   6.404   6.950
 3423SOL     OW59107   1.540   7.473   8.111
 3423SOL    HW159108   1.504   7.544   8.172
 3423SOL    HW259109   1.497   7.481   8.021
 3424SOL     OW59110   1.139  13.308   1.373
 3424SOL    HW159111   1.223  13.285   1.322
 3424SOL    HW259112   1.102  13.394   1.337
 3425SOL     OW59113   1.353  12.676   8.081
 3425SOL    HW159114   1.452  12.665   8.076
 3425SOL    HW259115   1.314  12.668   7.990
 3426SOL     OW59116  13.521   3.505   7.899
 3426SOL    HW159117  13.617   3.479   7.889
 3426SOL    HW259118  13.476   3.502   7.810
 3427SOL     OW59119  16.537  16.062   7.918
 3427SOL    HW159120  16.530  16.020   8.008
 3427SOL    HW259121  16.476  16.140   7.912
 3428SOL     OW59122  14.575  15.381   0.969
 3428SOL    HW159123  14.545  15.343   1.057
 3428SOL    HW259124  14.571  15.480   0.971
 3429SOL     OW59125   0.077  13.988   7.452
 3429SOL    HW159126   0.123  13.909   7.412
 3429SOL    HW259127  16.963  13.968   7.464
 3430SOL     OW59128   9.390   8.447   7.975
 3430SOL    HW159129   9.366   8.543   7.989
 3430SOL    HW259130   9.460   8.440   7.905
 3431SOL     OW59131  15.845  10.968   2.100
 3431SOL    HW159132  15.934  10.934   2.133
 3431SOL    HW259133  15.823  10.926   2.012
 3432SOL     OW59134   4.617   0.707   6.722
 3432SOL    HW159135   4.568   0.652   6.654
 3432SOL    HW259136   4.706   0.734   6.684
 3433SOL     OW59137  14.455  14.963   2.190
 3433SOL    HW159138  14.511  15.043   2.211
 3433SOL    HW259139  14.502  14.906   2.122
 3434SOL     OW59140  11.519   1.344   2.085
 3434SOL    HW159141  11.615   1.350   2.058
 3434SOL    HW259142  11.503   1.257   2.130
 3435SOL     OW59143  16.137   3.452   8.247
 3435SOL    HW159144  16.139   3.471   8.345
 3435SOL    HW259145  16.042   3.455   8.214
 3436SOL     OW59146  10.968   8.279   1.555
 3436SOL    HW159147  10.935   8.288   1.461
 3436SOL    HW259148  10.891   8.274   1.618
 3437SOL     OW59149   4.801   7.672   1.492
 3437SOL    HW159150   4.811   7.599   1.560
 3437SOL    HW259151   4.718   7.724   1.511
 3438SOL     OW59152  15.367   0.491   1.656
 3438SOL    HW159153  15.390   0.412   1.713
 3438SOL    HW259154  15.307   0.552   1.708
 3439SOL     OW59155   6.156  14.069   2.235
 3439SOL    HW159156   6.107  14.017   2.305
 3439SOL    HW259157   6.234  14.016   2.202
 3440SOL     OW59158  14.459  15.190   8.182
 3440SOL    HW159159  14.403  15.110   8.161
 3440SOL    HW259160  14.419  15.241   8.258
 3441SOL     OW59161  10.395  14.751   8.341
 3441SOL    HW159162  10.398  14.820   8.414
 3441SOL    HW259163  10.316  14.691   8.355
 3442SOL     OW59164   7.787  16.948   6.476
 3442SOL    HW159165   7.854   0.019   6.527
 3442SOL    HW259166   7.759  16.870   6.532
 3443SOL     OW59167   8.971   6.351   1.095
 3443SOL    HW159168   9.065   6.351   1.130
 3443SOL    HW259169   8.965   6.290   1.017
 3444SOL     OW59170   5.546  11.800   1.952
 3444SOL    HW159171   5.616  11.822   2.020
 3444SOL    HW259172   5.577  11.831   1.862
 3445SOL     OW59173   2.670  13.959   2.425
 3445SOL    HW159174   2.653  13.946   2.523
 3445SOL    HW259175   2.727  13.884   2.390
 3446SOL     OW59176   3.697   0.500   1.337
 3446SOL    HW159177   3.728   0.595   1.330
 3446SOL    HW259178   3.729   0.448   1.257
 3447SOL     OW59179   0.097  14.293   7.243
 3447SOL    HW159180   0.171  14.301   7.309
 3447SOL    HW259181   0.082  14.381   7.199
 3448SOL     OW59182   6.655   1.992   0.602
 3448SOL    HW159183   6.653   1.892   0.599
 3448SOL    HW259184   6.567   2.027   0.631
 3449SOL     OW59185   1.947   0.558   7.158
 3449SOL    HW159186   2.046   0.566   7.142
 3449SOL    HW259187   1.931   0.500   7.238
 3450SOL     OW59188  14.764  12.703   8.380
 3450SOL    HW159189  14.755  12.604   8.392
 3450SOL    HW259190  14.827  12.722   8.304
 3451SOL     OW59191   1.175  10.786   1.711
 3451SOL    HW159192   1.115  10.707   1.728
 3451SOL    HW259193   1.268  10.765   1.741
 3452SOL     OW59194  13.427   6.295   0.565
 3452SOL    HW159195  13.442   6.196   0.564
 3452SOL    HW259196  13.386   6.323   0.477
 3453SOL     OW59197  12.857   9.660   1.497
 3453SOL    HW159198  12.775   9.620   1.537
 3453SOL    HW259199  12.831   9.715   1.417
 3454SOL     OW59200  16.415   8.263   1.691
 3454SOL    HW159201  16.368   8.193   1.636
 3454SOL    HW259202  16.479   8.313   1.632
 3455SOL     OW59203   9.739   7.162   1.654
 3455SOL    HW159204   9.754   7.115   1.741
 3455SOL    HW259205   9.724   7.260   1.671
 3456SOL     OW59206   9.567   2.469   0.592
 3456SOL    HW159207   9.573   2.565   0.562
 3456SOL    HW259208   9.493   2.423   0.543
 3457SOL     OW59209   7.734  10.482   2.318
 3457SOL    HW159210   7.689  10.565   2.352
 3457SOL    HW259211   7.665  10.411   2.304
 3458SOL     OW59212  10.395   4.189   0.999
 3458SOL    HW159213  10.378   4.205   1.097
 3458SOL    HW259214  10.492   4.176   0.984
 3459SOL     OW59215   7.484   2.200   0.604
 3459SOL    HW159216   7.420   2.273   0.581
 3459SOL    HW259217   7.434   2.120   0.637
 3460SOL     OW59218   6.251   3.276   5.792
 3460SOL    HW159219   6.270   3.332   5.711
 3460SOL    HW259220   6.303   3.311   5.870
 3461SOL     OW59221  16.940   8.638   0.285
 3461SOL    HW159222  16.849   8.628   0.325
 3461SOL    HW259223   0.024   8.649   0.358
 3462SOL     OW59224  14.985   0.568   0.477
 3462SOL    HW159225  14.988   0.545   0.380
 3462SOL    HW259226  14.911   0.518   0.521
 3463SOL     OW59227   9.568  10.496   0.563
 3463SOL    HW159228   9.583  10.471   0.659
 3463SOL    HW259229   9.587  10.593   0.550
 3464SOL     OW59230  11.638   0.530   7.027
 3464SOL    HW159231  11.659   0.627   7.042
 3464SOL    HW259232  11.543   0.513   7.053
 3465SOL     OW59233  15.442   9.778   7.465
 3465SOL    HW159234  15.406   9.869   7.486
 3465SOL    HW259235  15.456   9.769   7.367
 3466SOL     OW59236   4.867   9.180   7.308
 3466SOL    HW159237   4.892   9.263   7.357
 3466SOL    HW259238   4.798   9.130   7.361
 3467SOL     OW59239  11.410   1.228   6.748
 3467SOL    HW159240  11.414   1.131   6.722
 3467SOL    HW259241  11.496   1.273   6.725
 3468SOL     OW59242  15.033   8.423   0.135
 3468SOL    HW159243  15.002   8.334   0.101
 3468SOL    HW259244  14.994   8.439   0.226
 3469SOL     OW59245   7.415   9.961   6.606
 3469SOL    HW159246   7.369   9.892   6.661
 3469SOL    HW259247   7.443   9.921   6.518
 3470SOL     OW59248   2.157   9.243   7.329
 3470SOL    HW159249   2.212   9.202   7.255
 3470SOL    HW259250   2.203   9.324   7.364
 3471SOL     OW59251   0.517  13.409   1.491
 3471SOL    HW159252   0.480  13.367   1.408
 3471SOL    HW259253   0.498  13.507   1.489
 3472SOL     OW59254   4.823   3.104   1.086
 3472SOL    HW159255   4.867   3.188   1.118
 3472SOL    HW259256   4.893   3.038   1.059
 3473SOL     OW59257   3.339  16.218   8.323
 3473SOL    HW159258   3.321  16.124   8.293
 3473SOL    HW259259   3.270  16.246   8.390
 3474SOL     OW59260  13.008  13.739   8.330
 3474SOL    HW159261  12.997  13.652   8.283
 3474SOL    HW259262  13.091  13.785   8.297
 3475SOL     OW59263   8.013   5.216   7.826
 3475SOL    HW159264   7.966   5.139   7.868
 3475SOL    HW259265   7.984   5.301   7.870
 3476SOL     OW59266   0.308   6.982   1.074
 3476SOL    HW159267   0.366   6.903   1.089
 3476SOL    HW259268   0.355   7.048   1.015
 3477SOL     OW59269  16.083   3.480   6.951
 3477SOL    HW159270  16.043   3.534   7.026
 3477SOL    HW259271  16.178   3.459   6.973
 3478SOL     OW59272  15.555   8.179   7.176
 3478SOL    HW159273  15.519   8.086   7.173
 3478SOL    HW259274  15.538   8.218   7.266
 3479SOL     OW59275  15.107  13.409   1.820
 3479SOL    HW159276  15.083  13.472   1.894
 3479SOL    HW259277  15.207  13.398   1.818
 3480SOL     OW59278  10.468   9.887   2.015
 3480SOL    HW159279  10.466   9.856   2.110
 3480SOL    HW259280  10.408   9.966   2.004
 3481SOL     OW59281   7.842   5.854   8.185
 3481SOL    HW159282   7.927   5.853   8.131
 3481SOL    HW259283   7.857   5.903   8.270
 3482SOL     OW59284   8.109  14.965   6.719
 3482SOL    HW159285   8.032  15.024   6.745
 3482SOL    HW259286   8.195  15.016   6.731
 3483SOL     OW59287   0.585   6.572   0.309
 3483SOL    HW159288   0.647   6.496   0.330
 3483SOL    HW259289   0.622   6.624   0.232
 3484SOL     OW59290   1.235   8.487   2.021
 3484SOL    HW159291   1.141   8.521   2.023
 3484SOL    HW259292   1.238   8.399   1.974
 3485SOL     OW59293  14.142   3.366   7.879
 3485SOL    HW159294  14.093   3.444   7.840
 3485SOL    HW259295  14.222   3.345   7.823
 3486SOL     OW59296   6.262   3.301   6.768
 3486SOL    HW159297   6.164   3.319   6.765
 3486SOL    HW259298   6.300   3.308   6.675
 3487SOL     OW59299  13.217   0.277   7.031
 3487SOL    HW159300  13.246   0.359   7.080
 3487SOL    HW259301  13.261   0.196   7.071
 3488SOL     OW59302  16.242   9.772   8.055
 3488SOL    HW159303  16.199   9.844   8.109
 3488SOL    HW259304  16.300   9.716   8.114
 3489SOL     OW59305  15.758   1.636   0.992
 3489SOL    HW159306  15.770   1.570   0.918
 3489SOL    HW259307  15.694   1.598   1.060
 3490SOL     OW59308   1.981   8.755   7.755
 3490SOL    HW159309   1.889   8.775   7.788
 3490SOL    HW259310   2.037   8.837   7.759
 3491SOL     OW59311  13.564   7.535   0.690
 3491SOL    HW159312  13.466   7.548   0.707
 3491SOL    HW259313  13.592   7.445   0.724
 3492SOL     OW59314   5.778   1.713   1.514
 3492SOL    HW159315   5.696   1.656   1.519
 3492SOL    HW259316   5.783   1.772   1.594
 3493SOL     OW59317   2.503   8.302   0.497
 3493SOL    HW159318   2.475   8.338   0.408
 3493SOL    HW259319   2.479   8.205   0.503
 3494SOL     OW59320  14.971   5.015   8.355
 3494SOL    HW159321  14.939   5.004   8.449
 3494SOL    HW259322  15.001   5.109   8.341
 3495SOL     OW59323  11.677  15.375   7.601
 3495SOL    HW159324  11.769  15.410   7.618
 3495SOL    HW259325  11.664  15.290   7.653
 3496SOL     OW59326  11.277  10.776   0.421
 3496SOL    HW159327  11.272  10.876   0.428
 3496SOL    HW259328  11.340  10.752   0.347
 3497SOL     OW59329  15.922  12.103   0.966
 3497SOL    HW159330  15.845  12.155   0.930
 3497SOL    HW259331  15.887  12.034   1.030
 3498SOL     OW59332   3.861   5.390   7.953
 3498SOL    HW159333   3.832   5.306   7.999
 3498SOL    HW259334   3.960   5.388   7.940
 3499SOL     OW59335  14.370  14.668   0.264
 3499SOL    HW159336  14.290  14.676   0.204
 3499SOL    HW259337  14.381  14.572   0.292
 3500SOL     OW59338   8.574   3.845   1.784
 3500SOL    HW159339   8.580   3.896   1.870
 3500SOL    HW259340   8.537   3.754   1.802
 3501SOL     OW59341   8.637  16.474   0.571
 3501SOL    HW159342   8.563  16.542   0.573
 3501SOL    HW259343   8.604  16.390   0.527
 3502SOL     OW59344  14.911   7.741   0.180
 3502SOL    HW159345  14.855   7.774   0.103
 3502SOL    HW259346  14.995   7.794   0.185
 3503SOL     OW59347   3.175   4.738   7.757
 3503SOL    HW159348   3.140   4.726   7.849
 3503SOL    HW259349   3.275   4.736   7.758
 3504SOL     OW59350  12.604   5.245   7.160
 3504SOL    HW159351  12.624   5.213   7.252
 3504SOL    HW259352  12.584   5.166   7.101
 3505SOL     OW59353  10.391  14.388   8.376
 3505SOL    HW159354  10.329  14.465   8.362
 3505SOL    HW259355  10.381  14.354   0.016
 3506SOL     OW59356  16.290   2.217   6.836
 3506SOL    HW159357  16.274   2.145   6.903
 3506SOL    HW259358  16.231   2.202   6.757
 3507SOL     OW59359  13.736   9.544   1.887
 3507SOL    HW159360  13.794   9.529   1.967
 3507SOL    HW259361  13.643   9.512   1.907
 3508SOL     OW59362   2.976  15.141   2.342
 3508SOL    HW159363   2.999  15.214   2.407
 3508SOL    HW259364   3.053  15.078   2.333
 3509SOL     OW59365  10.217   7.737   1.922
 3509SOL    HW159366  10.220   7.754   2.021
 3509SOL    HW259367  10.311   7.730   1.887
 3510SOL     OW59368  11.428  15.300   6.068
 3510SOL    HW159369  11.454  15.381   6.121
 3510SOL    HW259370  11.494  15.287   5.993
 3511SOL     OW59371  12.843  10.635   8.327
 3511SOL    HW159372  12.799  10.640   8.237
 3511SOL    HW259373  12.842  10.540   8.359
 3512SOL     OW59374  13.180   0.503   5.880
 3512SOL    HW159375  13.202   0.406   5.874
 3512SOL    HW259376  13.085   0.517   5.851
 3513SOL     OW59377   6.371   5.526   7.852
 3513SOL    HW159378   6.409   5.616   7.831
 3513SOL    HW259379   6.425   5.482   7.923
 3514SOL     OW59380  15.564   6.632   6.713
 3514SOL    HW159381  15.557   6.719   6.664
 3514SOL    HW259382  15.585   6.559   6.648
 3515SOL     OW59383  10.263   6.695   6.597
 3515SOL    HW159384  10.232   6.721   6.688
 3515SOL    HW259385  10.249   6.772   6.534
 3516SOL     OW59386   5.193   7.625   1.006
 3516SOL    HW159387   5.120   7.646   1.072
 3516SOL    HW259388   5.280   7.619   1.054
 3517SOL     OW59389   9.789   1.927   1.072
 3517SOL    HW159390   9.857   1.996   1.048
 3517SOL    HW259391   9.729   1.963   1.143
 3518SOL     OW59392  11.380   9.475   0.821
 3518SOL    HW159393  11.461   9.525   0.791
 3518SOL    HW259394  11.298   9.528   0.799
 3519SOL     OW59395  15.579   0.200   1.551
 3519SOL    HW159396  15.643   0.123   1.556
 3519SOL    HW259397  15.588   0.246   1.463
 3520SOL     OW59398   2.454  16.602   7.016
 3520SOL    HW159399   2.520  16.631   6.947
 3520SOL    HW259400   2.482  16.515   7.055
 3521SOL     OW59401   7.685   4.624   1.135
 3521SOL    HW159402   7.731   4.538   1.116
 3521SOL    HW259403   7.690   4.683   1.054
 3522SOL     OW59404   4.325  11.400   8.087
 3522SOL    HW159405   4.349  11.491   8.122
 3522SOL    HW259406   4.400  11.337   8.105
 3523SOL     OW59407   9.498  13.068   8.244
 3523SOL    HW159408   9.423  13.130   8.220
 3523SOL    HW259409   9.569  13.074   8.175
 3524SOL     OW59410   9.116   8.801   8.185
 3524SOL    HW159411   9.114   8.886   8.133
 3524SOL    HW259412   9.080   8.818   8.277
 3525SOL     OW59413   4.039   0.630   6.995
 3525SOL    HW159414   4.066   0.551   6.942
 3525SOL    HW259415   4.101   0.642   7.072
 3526SOL     OW59416   0.708  10.058   0.652
 3526SOL    HW159417   0.719  10.139   0.594
 3526SOL    HW259418   0.698   9.977   0.594
 3527SOL     OW59419  14.930   0.917   7.537
 3527SOL    HW159420  14.992   0.841   7.553
 3527SOL    HW259421  14.949   0.990   7.603
 3528SOL     OW59422  13.495   5.740   7.283
 3528SOL    HW159423  13.484   5.821   7.226
 3528SOL    HW259424  13.525   5.767   7.374
 3529SOL     OW59425   6.794  10.014   0.562
 3529SOL    HW159426   6.890  10.014   0.593
 3529SOL    HW259427   6.757   9.922   0.570
 3530SOL     OW59428   1.271   2.733   0.722
 3530SOL    HW159429   1.202   2.783   0.775
 3530SOL    HW259430   1.294   2.648   0.769
 3531SOL     OW59431  12.098   5.116   5.753
 3531SOL    HW159432  12.030   5.148   5.820
 3531SOL    HW259433  12.051   5.073   5.676
 3532SOL     OW59434   9.103   1.394   0.114
 3532SOL    HW159435   9.106   1.482   0.161
 3532SOL    HW259436   9.105   1.409   0.015
 3533SOL     OW59437   6.737   1.118   7.463
 3533SOL    HW159438   6.835   1.102   7.474
 3533SOL    HW259439   6.706   1.182   7.533
 3534SOL     OW59440   1.412  16.583   7.794
 3534SOL    HW159441   1.486  16.649   7.809
 3534SOL    HW259442   1.326  16.632   7.777
 3535SOL     OW59443   0.412   8.289   7.837
 3535SOL    HW159444   0.403   8.388   7.822
 3535SOL    HW259445   0.345   8.260   7.906
 3536SOL     OW59446   0.171  11.113   7.387
 3536SOL    HW159447   0.082  11.083   7.421
 3536SOL    HW259448   0.161  11.145   7.293
 3537SOL     OW59449  10.977   6.193   8.321
 3537SOL    HW159450  11.072   6.214   8.345
 3537SOL    HW259451  10.933   6.145   8.397
 3538SOL     OW59452  13.938  11.907   7.582
 3538SOL    HW159453  13.892  11.985   7.539
 3538SOL    HW259454  13.871  11.848   7.627
 3539SOL     OW59455  12.161   6.823   1.610
 3539SOL    HW159456  12.110   6.828   1.696
 3539SOL    HW259457  12.242   6.882   1.616
 3540SOL     OW59458   5.540  10.128   7.538
 3540SOL    HW159459   5.638  10.151   7.534
 3540SOL    HW259460   5.497  10.153   7.451
 3541SOL     OW59461   5.641   6.700   0.841
 3541SOL    HW159462   5.544   6.679   0.848
 3541SOL    HW259463   5.694   6.617   0.859
 3542SOL     OW59464   7.864   5.291   0.115
 3542SOL    HW159465   7.957   5.269   0.088
 3542SOL    HW259466   7.804   5.214   0.094
 3543SOL     OW59467   2.669   7.690   1.260
 3543SOL    HW159468   2.713   7.740   1.335
 3543SOL    HW259469   2.572   7.678   1.280
 3544SOL     OW59470   1.964   4.461   0.177
 3544SOL    HW159471   1.989   4.423   0.088
 3544SOL    HW259472   1.870   4.433   0.199
 3545SOL     OW59473   8.081  16.571   7.007
 3545SOL    HW159474   8.022  16.647   6.980
 3545SOL    HW259475   8.169  16.606   7.039
 3546SOL     OW59476   3.287   1.777   6.441
 3546SOL    HW159477   3.199   1.783   6.392
 3546SOL    HW259478   3.353   1.838   6.397
 3547SOL     OW59479   2.940  11.512   1.440
 3547SOL    HW159480   3.010  11.442   1.451
 3547SOL    HW259481   2.971  11.582   1.376
 3548SOL     OW59482  16.587  12.779   7.893
 3548SOL    HW159483  16.572  12.744   7.985
 3548SOL    HW259484  16.574  12.705   7.827
 3549SOL     OW59485   6.313  14.087   0.671
 3549SOL    HW159486   6.377  14.108   0.597
 3549SOL    HW259487   6.287  14.172   0.718
 3550SOL     OW59488   8.853  13.469   7.173
 3550SOL    HW159489   8.793  13.420   7.111
 3550SOL    HW259490   8.808  13.481   7.262
 3551SOL     OW59491   0.022   8.241   0.575
 3551SOL    HW159492   0.122   8.237   0.571
 3551SOL    HW259493  16.973   8.185   0.652
 3552SOL     OW59494   6.426   1.140   7.717
 3552SOL    HW159495   6.418   1.064   7.781
 3552SOL    HW259496   6.362   1.127   7.641
 3553SOL     OW59497  14.053  14.345   7.232
 3553SOL    HW159498  14.145  14.312   7.209
 3553SOL    HW259499  13.985  14.290   7.184
 3554SOL     OW59500  13.197   3.067   0.127
 3554SOL    HW159501  13.199   3.020   0.039
 3554SOL    HW259502  13.229   3.161   0.116
 3555SOL     OW59503  15.103  12.518   0.138
 3555SOL    HW159504  15.176  12.472   0.187
 3555SOL    HW259505  15.133  12.611   0.113
 3556SOL     OW59506   3.294  14.642   7.361
 3556SOL    HW159507   3.363  14.571   7.344
 3556SOL    HW259508   3.233  14.649   7.282
 3557SOL     OW59509   0.585   0.355   7.272
 3557SOL    HW159510   0.608   0.424   7.340
 3557SOL    HW259511   0.546   0.399   7.191
 3558SOL     OW59512  14.154  14.011   1.025
 3558SOL    HW159513  14.075  14.017   0.965
 3558SOL    HW259514  14.130  13.956   1.105
 3559SOL     OW59515   9.111  10.002   1.109
 3559SOL    HW159516   9.055  10.021   1.190
 3559SOL    HW259517   9.055  10.011   1.027
 3560SOL     OW59518   3.648  15.494   8.181
 3560SOL    HW159519   3.591  15.422   8.141
 3560SOL    HW259520   3.736  15.496   8.134
 3561SOL     OW59521  16.703   3.473   6.210
 3561SOL    HW159522  16.672   3.542   6.276
 3561SOL    HW259523  16.785   3.506   6.163
 3562SOL     OW59524   8.712  13.735   1.484
 3562SOL    HW159525   8.740  13.829   1.464
 3562SOL    HW259526   8.792  13.676   1.489
 3563SOL     OW59527   6.411  16.764   8.013
 3563SOL    HW159528   6.434  16.743   7.918
 3563SOL    HW259529   6.444  16.856   8.035
 3564SOL     OW59530   6.044   6.540   0.119
 3564SOL    HW159531   5.957   6.512   0.161
 3564SOL    HW259532   6.063   6.482   0.040
 3565SOL     OW59533  11.345  13.046   0.428
 3565SOL    HW159534  11.367  13.142   0.413
 3565SOL    HW259535  11.270  13.020   0.367
 3566SOL     OW59536   5.726  15.528   2.307
 3566SOL    HW159537   5.668  15.573   2.374
 3566SOL    HW259538   5.795  15.473   2.354
 3567SOL     OW59539   6.895  14.874   6.987
 3567SOL    HW159540   6.816  14.879   6.926
 3567SOL    HW259541   6.958  14.949   6.967
 3568SOL     OW59542  14.914   4.544   0.038
 3568SOL    HW159543  14.865   4.457   0.033
 3568SOL    HW259544  14.855   4.617   0.003
 3569SOL     OW59545  11.651  13.681   2.521
 3569SOL    HW159546  11.565  13.631   2.529
 3569SOL    HW259547  11.672  13.726   2.608
 3570SOL     OW59548  16.023  11.566   1.502
 3570SOL    HW159549  16.056  11.472   1.501
 3570SOL    HW259550  16.085  11.624   1.448
 3571SOL     OW59551  10.078  12.837   7.119
 3571SOL    HW159552  10.083  12.936   7.117
 3571SOL    HW259553  10.159  12.800   7.166
 3572SOL     OW59554  11.129  16.814   7.554
 3572SOL    HW159555  11.045  16.823   7.500
 3572SOL    HW259556  11.181  16.735   7.522
 3573SOL     OW59557   5.603  16.947   7.804
 3573SOL    HW159558   5.576  16.874   7.866
 3573SOL    HW259559   5.528  16.966   7.739
 3574SOL     OW59560  15.566   2.676   7.068
 3574SOL    HW159561  15.659   2.699   7.097
 3574SOL    HW259562  15.568   2.601   7.002
 3575SOL     OW59563  12.547  10.131   0.907
 3575SOL    HW159564  12.592  10.183   0.979
 3575SOL    HW259565  12.448  10.131   0.923
 3576SOL     OW59566  12.141   4.862   0.953
 3576SOL    HW159567  12.111   4.849   1.048
 3576SOL    HW259568  12.215   4.929   0.951
 3577SOL     OW59569  15.268  16.183   7.338
 3577SOL    HW159570  15.319  16.220   7.416
 3577SOL    HW259571  15.202  16.115   7.371
 3578SOL     OW59572  11.646   1.719   0.927
 3578SOL    HW159573  11.589   1.665   0.865
 3578SOL    HW259574  11.733   1.672   0.942
 3579SOL     OW59575  15.761  16.868   7.316
 3579SOL    HW159576  15.702  16.923   7.257
 3579SOL    HW259577  15.704  16.818   7.381
 3580SOL     OW59578   2.840   1.046   1.647
 3580SOL    HW159579   2.889   1.044   1.734
 3580SOL    HW259580   2.796   0.958   1.632
 3581SOL     OW59581  13.294  16.522   1.151
 3581SOL    HW159582  13.376  16.465   1.158
 3581SOL    HW259583  13.306  16.589   1.078
 3582SOL     OW59584  11.183   0.548   6.949
 3582SOL    HW159585  11.173   0.460   6.902
 3582SOL    HW259586  11.224   0.615   6.886
 3583SOL     OW59587   7.533   5.404   7.450
 3583SOL    HW159588   7.445   5.449   7.428
 3583SOL    HW259589   7.595   5.413   7.372
 3584SOL     OW59590  13.709   0.238   1.265
 3584SOL    HW159591  13.685   0.150   1.306
 3584SOL    HW259592  13.778   0.283   1.322
 3585SOL     OW59593  16.061   0.984   1.284
 3585SOL    HW159594  16.123   0.950   1.354
 3585SOL    HW259595  16.081   0.939   1.197
 3586SOL     OW59596   3.984  12.356   6.375
 3586SOL    HW159597   3.922  12.433   6.361
 3586SOL    HW259598   4.069  12.388   6.414
 3587SOL     OW59599  11.688   5.295   0.068
 3587SOL    HW159600  11.589   5.305   0.056
 3587SOL    HW259601  11.705   5.225   0.138
 3588SOL     OW59602   6.658  16.248   0.577
 3588SOL    HW159603   6.590  16.178   0.601
 3588SOL    HW259604   6.614  16.320   0.523
 3589SOL     OW59605  13.240  10.688   7.704
 3589SOL    HW159606  13.231  10.655   7.610
 3589SOL    HW259607  13.337  10.698   7.727
 3590SOL     OW59608  15.065   7.956   6.611
 3590SOL    HW159609  14.974   7.960   6.570
 3590SOL    HW259610  15.058   7.930   6.707
 3591SOL     OW59611   5.755   7.942   0.094
 3591SOL    HW159612   5.745   8.042   0.088
 3591SOL    HW259613   5.850   7.917   0.078
 3592SOL     OW59614   2.185  15.522   0.999
 3592SOL    HW159615   2.214  15.460   1.072
 3592SOL    HW259616   2.118  15.476   0.941
 3593SOL     OW59617   9.014   5.780   0.723
 3593SOL    HW159618   9.057   5.860   0.767
 3593SOL    HW259619   9.041   5.777   0.627
 3594SOL     OW59620  15.536   2.527   8.098
 3594SOL    HW159621  15.599   2.598   8.068
 3594SOL    HW259622  15.502   2.549   8.190
 3595SOL     OW59623   6.890   6.861   6.312
 3595SOL    HW159624   6.845   6.797   6.250
 3595SOL    HW259625   6.964   6.908   6.264
 3596SOL     OW59626   9.174  15.457   6.734
 3596SOL    HW159627   9.125  15.465   6.648
 3596SOL    HW259628   9.267  15.494   6.723
 3597SOL     OW59629  10.736   0.700   7.175
 3597SOL    HW159630  10.834   0.682   7.165
 3597SOL    HW259631  10.719   0.798   7.167
 3598SOL     OW59632  11.086  11.085   0.641
 3598SOL    HW159633  11.074  11.150   0.716
 3598SOL    HW259634  11.005  11.027   0.634
 3599SOL     OW59635  11.515   0.940   6.702
 3599SOL    HW159636  11.533   0.901   6.611
 3599SOL    HW259637  11.598   0.980   6.739
 3600SOL     OW59638   4.439  12.045   7.423
 3600SOL    HW159639   4.405  12.137   7.405
 3600SOL    HW259640   4.531  12.036   7.384
 3601SOL     OW59641   2.855   2.928   0.712
 3601SOL    HW159642   2.902   2.845   0.680
 3601SOL    HW259643   2.760   2.926   0.682
 3602SOL     OW59644  15.750   7.251   7.686
 3602SOL    HW159645  15.699   7.283   7.766
 3602SOL    HW259646  15.845   7.281   7.693
 3603SOL     OW59647   7.700   2.228   0.430
 3603SOL    HW159648   7.625   2.208   0.493
 3603SOL    HW259649   7.747   2.311   0.460
 3604SOL     OW59650  12.018   9.753   7.099
 3604SOL    HW159651  12.008   9.792   7.190
 3604SOL    HW259652  12.090   9.684   7.099
 3605SOL     OW59653   3.437  15.587   1.188
 3605SOL    HW159654   3.384  15.622   1.265
 3605SOL    HW259655   3.417  15.490   1.175
 3606SOL     OW59656  16.428   8.800   1.313
 3606SOL    HW159657  16.352   8.860   1.340
 3606SOL    HW259658  16.441   8.805   1.214
 3607SOL     OW59659  12.567   0.181   2.136
 3607SOL    HW159660  12.511   0.127   2.198
 3607SOL    HW259661  12.586   0.128   2.053
 3608SOL     OW59662   7.559  16.039   8.325
 3608SOL    HW159663   7.498  16.037   8.246
 3608SOL    HW259664   7.652  16.060   8.295
 3609SOL     OW59665   2.137  12.683   6.967
 3609SOL    HW159666   2.212  12.627   6.932
 3609SOL    HW259667   2.117  12.756   6.901
 3610SOL     OW59668  14.422   5.683   7.870
 3610SOL    HW159669  14.502   5.716   7.820
 3610SOL    HW259670  14.343   5.681   7.809
 3611SOL     OW59671  12.165   1.213   6.711
 3611SOL    HW159672  12.156   1.164   6.797
 3611SOL    HW259673  12.247   1.270   6.713
 3612SOL     OW59674   3.360   9.194   7.748
 3612SOL    HW159675   3.445   9.222   7.703
 3612SOL    HW259676   3.370   9.204   7.847
 3613SOL     OW59677   7.821   7.140   0.344
 3613SOL    HW159678   7.847   7.081   0.421
 3613SOL    HW259679   7.840   7.235   0.368
 3614SOL     OW59680   4.213   9.766   0.489
 3614SOL    HW159681   4.282   9.727   0.551
 3614SOL    HW259682   4.128   9.715   0.499
 3615SOL     OW59683  16.675  15.631   0.300
 3615SOL    HW159684  16.662  15.605   0.205
 3615SOL    HW259685  16.764  15.599   0.332
 3616SOL     OW59686   6.722  15.978   1.936
 3616SOL    HW159687   6.683  15.958   1.846
 3616SOL    HW259688   6.698  15.905   2.000
 3617SOL     OW59689   3.842   5.861   1.596
 3617SOL    HW159690   3.800   5.802   1.527
 3617SOL    HW259691   3.838   5.956   1.564
 3618SOL     OW59692   9.557   3.330   1.754
 3618SOL    HW159693   9.573   3.397   1.826
 3618SOL    HW259694   9.466   3.344   1.715
 3619SOL     OW59695   0.543  14.538   0.360
 3619SOL    HW159696   0.578  14.447   0.381
 3619SOL    HW259697   0.456  14.552   0.407
 3620SOL     OW59698   5.322  13.692   1.029
 3620SOL    HW159699   5.263  13.719   0.952
 3620SOL    HW259700   5.276  13.714   1.115
 3621SOL     OW59701  12.229  15.792   0.066
 3621SOL    HW159702  12.265  15.877   0.103
 3621SOL    HW259703  12.248  15.787   8.422
 3622SOL     OW59704  10.225   4.751   7.182
 3622SOL    HW159705  10.230   4.791   7.273
 3622SOL    HW259706  10.197   4.655   7.189
 3623SOL     OW59707   0.570  13.671   0.318
 3623SOL    HW159708   0.517  13.756   0.312
 3623SOL    HW259709   0.535  13.605   0.252
 3624SOL     OW59710  10.647  10.436   7.706
 3624SOL    HW159711  10.667  10.349   7.753
 3624SOL    HW259712  10.548  10.448   7.700
 3625SOL     OW59713  10.534  10.420   1.539
 3625SOL    HW159714  10.480  10.485   1.485
 3625SOL    HW259715  10.559  10.462   1.626
 3626SOL     OW59716  12.072  10.325   1.666
 3626SOL    HW159717  12.127  10.406   1.647
 3626SOL    HW259718  11.976  10.351   1.679
 3627SOL     OW59719   4.933  12.711   1.303
 3627SOL    HW159720   4.992  12.631   1.308
 3627SOL    HW259721   4.850  12.695   1.358
 3628SOL     OW59722  12.738   5.278   1.586
 3628SOL    HW159723  12.787   5.327   1.514
 3628SOL    HW259724  12.649   5.322   1.600
 3629SOL     OW59725  12.561  12.287   7.741
 3629SOL    HW159726  12.507  12.320   7.663
 3629SOL    HW259727  12.591  12.365   7.796
 3630SOL     OW59728   7.105   9.672   7.258
 3630SOL    HW159729   7.167   9.608   7.214
 3630SOL    HW259730   7.011   9.638   7.252
 3631SOL     OW59731   9.258   5.325   6.641
 3631SOL    HW159732   9.336   5.272   6.676
 3631SOL    HW259733   9.292   5.405   6.591
 3632SOL     OW59734  15.529   5.738   7.399
 3632SOL    HW159735  15.475   5.702   7.322
 3632SOL    HW259736  15.616   5.690   7.404
 3633SOL     OW59737   0.621   2.195   6.325
 3633SOL    HW159738   0.537   2.166   6.279
 3633SOL    HW259739   0.676   2.115   6.348
 3634SOL     OW59740  16.726   5.527   7.260
 3634SOL    HW159741  16.637   5.565   7.234
 3634SOL    HW259742  16.716   5.428   7.273
 3635SOL     OW59743   1.133   4.075   1.040
 3635SOL    HW159744   1.113   4.173   1.041
 3635SOL    HW259745   1.125   4.041   0.946
 3636SOL     OW59746   8.021  13.549   8.007
 3636SOL    HW159747   7.947  13.617   8.008
 3636SOL    HW259748   8.103  13.588   8.049
 3637SOL     OW59749  12.632   0.690   1.925
 3637SOL    HW159750  12.592   0.762   1.982
 3637SOL    HW259751  12.625   0.602   1.971
 3638SOL     OW59752   1.483  11.799   8.293
 3638SOL    HW159753   1.566  11.855   8.291
 3638SOL    HW259754   1.457  11.782   8.388
 3639SOL     OW59755   1.534   5.046   7.539
 3639SOL    HW159756   1.556   5.011   7.629
 3639SOL    HW259757   1.572   5.138   7.529
 3640SOL     OW59758   5.012  14.032   1.461
 3640SOL    HW159759   5.076  13.991   1.526
 3640SOL    HW259760   4.987  13.965   1.391
 3641SOL     OW59761   1.715  13.540   2.115
 3641SOL    HW159762   1.765  13.577   2.036
 3641SOL    HW259763   1.617  13.538   2.094
 3642SOL     OW59764   2.023   2.023   0.633
 3642SOL    HW159765   2.110   2.032   0.681
 3642SOL    HW259766   2.024   2.080   0.551
 3643SOL     OW59767   7.319   3.725   7.727
 3643SOL    HW159768   7.266   3.739   7.643
 3643SOL    HW259769   7.289   3.642   7.772
 3644SOL     OW59770   2.449   6.799   0.477
 3644SOL    HW159771   2.416   6.875   0.421
 3644SOL    HW259772   2.414   6.713   0.441
 3645SOL     OW59773   2.224   0.562   7.128
 3645SOL    HW159774   2.241   0.470   7.163
 3645SOL    HW259775   2.262   0.571   7.036
 3646SOL     OW59776   8.783  11.577   6.860
 3646SOL    HW159777   8.689  11.586   6.830
 3646SOL    HW259778   8.839  11.541   6.785
 3647SOL     OW59779  16.698   3.451   0.477
 3647SOL    HW159780  16.640   3.431   0.556
 3647SOL    HW259781  16.708   3.549   0.467
 3648SOL     OW59782   5.368  13.688   7.413
 3648SOL    HW159783   5.377  13.612   7.477
 3648SOL    HW259784   5.418  13.666   7.329
 3649SOL     OW59785   3.683  10.304   6.511
 3649SOL    HW159786   3.727  10.267   6.593
 3649SOL    HW259787   3.726  10.391   6.487
 3650SOL     OW59788  11.889   5.430   6.427
 3650SOL    HW159789  11.905   5.414   6.524
 3650SOL    HW259790  11.967   5.481   6.388
 3651SOL     OW59791  11.119   4.379   7.969
 3651SOL    HW159792  11.213   4.408   7.988
 3651SOL    HW259793  11.075   4.349   8.053
 3652SOL     OW59794  10.147  11.440   6.813
 3652SOL    HW159795  10.210  11.510   6.778
 3652SOL    HW259796  10.164  11.426   6.910
 3653SOL     OW59797  14.723  14.234   0.993
 3653SOL    HW159798  14.635  14.279   0.975
 3653SOL    HW259799  14.793  14.270   0.931
 3654SOL     OW59800   9.888   7.410   7.615
 3654SOL    HW159801   9.896   7.354   7.533
 3654SOL    HW259802   9.872   7.506   7.589
 3655SOL     OW59803   2.630  12.582   1.086
 3655SOL    HW159804   2.726  12.602   1.103
 3655SOL    HW259805   2.623  12.516   1.010
 3656SOL     OW59806  12.639  12.340   1.701
 3656SOL    HW159807  12.627  12.414   1.635
 3656SOL    HW259808  12.567  12.345   1.770
 3657SOL     OW59809  10.388   8.030   8.361
 3657SOL    HW159810  10.288   8.031   8.353
 3657SOL    HW259811  10.417   7.948   8.409
 3658SOL     OW59812  12.820  16.018   0.729
 3658SOL    HW159813  12.868  16.089   0.779
 3658SOL    HW259814  12.796  16.052   0.638
 3659SOL     OW59815   0.131   6.754   1.072
 3659SOL    HW159816   0.080   6.741   1.157
 3659SOL    HW259817   0.182   6.840   1.075
 3660SOL     OW59818   9.678   1.429   5.999
 3660SOL    HW159819   9.698   1.356   5.934
 3660SOL    HW259820   9.606   1.487   5.962
 3661SOL     OW59821   6.157  15.630   1.680
 3661SOL    HW159822   6.143  15.656   1.584
 3661SOL    HW259823   6.215  15.698   1.725
 3662SOL     OW59824   4.009  14.785   2.060
 3662SOL    HW159825   4.045  14.779   2.153
 3662SOL    HW259826   4.070  14.736   1.998
 3663SOL     OW59827   3.324   6.605   1.401
 3663SOL    HW159828   3.329   6.591   1.302
 3663SOL    HW259829   3.302   6.701   1.420
 3664SOL     OW59830   6.741   8.361   8.329
 3664SOL    HW159831   6.793   8.391   8.410
 3664SOL    HW259832   6.726   8.438   8.268
 3665SOL     OW59833   6.179   2.406   7.287
 3665SOL    HW159834   6.102   2.345   7.271
 3665SOL    HW259835   6.204   2.452   7.201
 3666SOL     OW59836  15.642  11.664   7.047
 3666SOL    HW159837  15.655  11.752   7.000
 3666SOL    HW259838  15.707  11.658   7.123
 3667SOL     OW59839   4.506   5.784   1.038
 3667SOL    HW159840   4.454   5.867   1.056
 3667SOL    HW259841   4.448   5.704   1.054
 3668SOL     OW59842   9.783   7.030   1.890
 3668SOL    HW159843   9.700   6.981   1.918
 3668SOL    HW259844   9.859   6.966   1.880
 3669SOL     OW59845   7.427  15.807   8.415
 3669SOL    HW159846   7.462  15.717   8.388
 3669SOL    HW259847   7.480  15.878   8.369
 3670SOL     OW59848  12.310   9.635   1.224
 3670SOL    HW159849  12.282   9.586   1.141
 3670SOL    HW259850  12.327   9.569   1.297
 3671SOL     OW59851   6.720   5.509   7.043
 3671SOL    HW159852   6.737   5.416   7.073
 3671SOL    HW259853   6.789   5.535   6.975
 3672SOL     OW59854  14.406  11.306   2.269
 3672SOL    HW159855  14.409  11.392   2.321
 3672SOL    HW259856  14.382  11.231   2.331
 3673SOL     OW59857  13.237  12.187   8.257
 3673SOL    HW159858  13.179  12.149   8.184
 3673SOL    HW259859  13.305  12.248   8.217
 3674SOL     OW59860   4.358  12.978   1.230
 3674SOL    HW159861   4.305  12.901   1.266
 3674SOL    HW259862   4.383  12.959   1.135
 3675SOL     OW59863   5.288   3.994   8.340
 3675SOL    HW159864   5.346   4.016   8.419
 3675SOL    HW259865   5.278   3.895   8.333
 3676SOL     OW59866  14.215   0.096   0.874
 3676SOL    HW159867  14.244   0.180   0.918
 3676SOL    HW259868  14.117   0.101   0.854
 3677SOL     OW59869  13.994   4.897   0.917
 3677SOL    HW159870  14.030   4.873   1.007
 3677SOL    HW259871  14.070   4.918   0.855
 3678SOL     OW59872  14.965   9.225   7.297
 3678SOL    HW159873  14.938   9.167   7.221
 3678SOL    HW259874  14.977   9.169   7.379
 3679SOL     OW59875   5.984  12.461   7.013
 3679SOL    HW159876   6.070  12.451   6.963
 3679SOL    HW259877   6.003  12.474   7.111
 3680SOL     OW59878   5.582  10.949   1.260
 3680SOL    HW159879   5.576  10.852   1.281
 3680SOL    HW259880   5.491  10.985   1.241
 3681SOL     OW59881  13.706   9.821   1.869
 3681SOL    HW159882  13.614   9.848   1.840
 3681SOL    HW259883  13.714   9.722   1.866
 3682SOL     OW59884   9.564   9.084   7.555
 3682SOL    HW159885   9.555   9.001   7.611
 3682SOL    HW259886   9.478   9.134   7.556
 3683SOL     OW59887   3.439   8.239   6.368
 3683SOL    HW159888   3.482   8.329   6.374
 3683SOL    HW259889   3.356   8.245   6.312
 3684SOL     OW59890   3.964  14.747   7.138
 3684SOL    HW159891   3.947  14.846   7.136
 3684SOL    HW259892   3.879  14.698   7.119
 3685SOL     OW59893   8.642   4.879   1.743
 3685SOL    HW159894   8.558   4.896   1.793
 3685SOL    HW259895   8.623   4.824   1.662
 3686SOL     OW59896   7.716   4.428   7.780
 3686SOL    HW159897   7.689   4.474   7.696
 3686SOL    HW259898   7.784   4.483   7.828
 3687SOL     OW59899  16.948  15.983   6.796
 3687SOL    HW159900  16.881  15.921   6.837
 3687SOL    HW259901   0.000  15.943   6.712
 3688SOL     OW59902  13.238  15.686   6.910
 3688SOL    HW159903  13.317  15.686   6.849
 3688SOL    HW259904  13.156  15.708   6.857
 3689SOL     OW59905  13.381   7.171   0.849
 3689SOL    HW159906  13.339   7.085   0.878
 3689SOL    HW259907  13.339   7.200   0.763
 3690SOL     OW59908  15.347   4.595   6.379
 3690SOL    HW159909  15.279   4.622   6.311
 3690SOL    HW259910  15.434   4.574   6.334
 3691SOL     OW59911  10.480  10.009   7.872
 3691SOL    HW159912  10.386  10.041   7.884
 3691SOL    HW259913  10.502   9.941   7.942
 3692SOL     OW59914   7.716   0.601   8.231
 3692SOL    HW159915   7.669   0.618   8.144
 3692SOL    HW259916   7.721   0.686   8.283
 3693SOL     OW59917   5.095   0.298   6.967
 3693SOL    HW159918   5.034   0.364   7.010
 3693SOL    HW259919   5.166   0.271   7.033
 3694SOL     OW59920   9.822   3.544   1.043
 3694SOL    HW159921   9.903   3.593   1.074
 3694SOL    HW259922   9.740   3.591   1.074
 3695SOL     OW59923   5.161   2.930   8.366
 3695SOL    HW159924   5.125   2.902   0.001
 3695SOL    HW259925   5.258   2.955   8.375
 3696SOL     OW59926   4.245   5.081   7.094
 3696SOL    HW159927   4.273   5.007   7.155
 3696SOL    HW259928   4.173   5.135   7.138
 3697SOL     OW59929   5.315   5.825   0.813
 3697SOL    HW159930   5.262   5.851   0.894
 3697SOL    HW259931   5.303   5.728   0.795
 3698SOL     OW59932  13.802   5.505   8.311
 3698SOL    HW159933  13.800   5.598   8.348
 3698SOL    HW259934  13.709   5.475   8.290
 3699SOL     OW59935   1.052  16.872   0.676
 3699SOL    HW159936   1.149  16.869   0.697
 3699SOL    HW259937   1.039  16.887   0.578
 3700SOL     OW59938   6.549   8.760   2.334
 3700SOL    HW159939   6.552   8.660   2.326
 3700SOL    HW259940   6.627   8.791   2.389
 3701SOL     OW59941  12.566  13.669   8.049
 3701SOL    HW159942  12.625  13.645   7.972
 3701SOL    HW259943  12.608  13.639   8.134
 3702SOL     OW59944   2.050  15.848   8.084
 3702SOL    HW159945   2.006  15.783   8.146
 3702SOL    HW259946   2.135  15.881   8.125
 3703SOL     OW59947  10.289  14.031   0.900
 3703SOL    HW159948  10.211  13.971   0.919
 3703SOL    HW259949  10.374  13.979   0.909
 3704SOL     OW59950   4.836  15.135   7.541
 3704SOL    HW159951   4.804  15.053   7.588
 3704SOL    HW259952   4.931  15.152   7.565
 3705SOL     OW59953  15.188  12.511   1.554
 3705SOL    HW159954  15.192  12.446   1.479
 3705SOL    HW259955  15.101  12.560   1.551
 3706SOL     OW59956   6.280   0.836   1.629
 3706SOL    HW159957   6.216   0.904   1.664
 3706SOL    HW259958   6.249   0.745   1.656
 3707SOL     OW59959   5.917  12.926   0.114
 3707SOL    HW159960   5.829  12.887   0.085
 3707SOL    HW259961   5.910  12.960   0.207
 3708SOL     OW59962  10.401  16.614   1.174
 3708SOL    HW159963  10.478  16.631   1.236
 3708SOL    HW259964  10.344  16.541   1.211
 3709SOL     OW59965  15.776   1.497   0.756
 3709SOL    HW159966  15.844   1.452   0.698
 3709SOL    HW259967  15.691   1.445   0.753
 3710SOL     OW59968   8.071   2.310   7.072
 3710SOL    HW159969   8.069   2.409   7.061
 3710SOL    HW259970   8.155   2.283   7.118
 3711SOL     OW59971  10.413   5.887   6.732
 3711SOL    HW159972  10.494   5.945   6.723
 3711SOL    HW259973  10.425   5.805   6.676
 3712SOL     OW59974   8.488  15.313   8.387
 3712SOL    HW159975   8.511  15.223   8.423
 3712SOL    HW259976   8.568  15.372   8.392
 3713SOL     OW59977  16.482  16.931   0.841
 3713SOL    HW159978  16.438  16.975   0.919
 3713SOL    HW259979  16.560   0.002   0.812
 3714SOL     OW59980  11.346  11.714   7.413
 3714SOL    HW159981  11.265  11.656   7.404
 3714SOL    HW259982  11.318  11.806   7.437
 3715SOL     OW59983  14.098   9.282   0.615
 3715SOL    HW159984  14.174   9.255   0.673
 3715SOL    HW259985  14.030   9.331   0.669
 3716SOL     OW59986   0.535   1.576   1.050
 3716SOL    HW159987   0.447   1.615   1.023
 3716SOL    HW259988   0.585   1.547   0.968
 3717SOL     OW59989  16.476  13.029   7.817
 3717SOL    HW159990  16.403  13.007   7.753
 3717SOL    HW259991  16.519  12.944   7.849
 3718SOL     OW59992   9.429  10.777   2.288
 3718SOL    HW159993   9.509  10.834   2.269
 3718SOL    HW259994   9.404  10.788   2.385
 3719SOL     OW59995  11.359   0.834   0.646
 3719SOL    HW159996  11.348   0.821   0.547
 3719SOL    HW259997  11.436   0.897   0.662
 3720SOL     OW59998  13.370   9.000   1.342
 3720SOL    HW159999  13.434   8.925   1.362
 3720SOL    HW260000  13.372   9.066   1.417
 3721SOL     OW60001  13.449   9.902   1.808
 3721SOL    HW160002  13.426   9.999   1.812
 3721SOL    HW260003  13.378   9.853   1.757
 3722SOL     OW60004   7.948   1.033   6.787
 3722SOL    HW160005   7.891   1.032   6.869
 3722SOL    HW260006   8.041   1.007   6.811
 3723SOL     OW60007   1.451   0.318   0.122
 3723SOL    HW160008   1.358   0.282   0.122
 3723SOL    HW260009   1.491   0.310   0.031
 3724SOL     OW60010  11.281   8.994   1.684
 3724SOL    HW160011  11.315   8.900   1.683
 3724SOL    HW260012  11.234   9.011   1.771
 3725SOL     OW60013  16.782   4.616   0.949
 3725SOL    HW160014  16.682   4.624   0.947
 3725SOL    HW260015  16.818   4.619   0.856
 3726SOL     OW60016  13.729   9.979   7.119
 3726SOL    HW160017  13.640  10.023   7.133
 3726SOL    HW260018  13.769   9.956   7.207
 3727SOL     OW60019  14.929   0.475   7.627
 3727SOL    HW160020  14.984   0.558   7.618
 3727SOL    HW260021  14.856   0.476   7.560
 3728SOL     OW60022   8.015  13.402   0.087
 3728SOL    HW160023   8.038  13.406   8.444
 3728SOL    HW260024   7.936  13.460   0.105
 3729SOL     OW60025  13.496   1.042   7.525
 3729SOL    HW160026  13.540   0.987   7.453
 3729SOL    HW260027  13.513   1.139   7.508
 3730SOL     OW60028   1.849   9.558   7.026
 3730SOL    HW160029   1.752   9.539   7.010
 3730SOL    HW260030   1.891   9.480   7.072
 3731SOL     OW60031  11.500   5.254   7.190
 3731SOL    HW160032  11.510   5.163   7.148
 3731SOL    HW260033  11.537   5.323   7.128
 3732SOL     OW60034  14.653   1.038   8.089
 3732SOL    HW160035  14.615   1.036   8.181
 3732SOL    HW260036  14.707   0.954   8.074
 3733SOL     OW60037   0.009   8.341   1.029
 3733SOL    HW160038  16.956   8.273   0.964
 3733SOL    HW260039   0.057   8.294   1.103
 3734SOL     OW60040   6.122   0.795   0.960
 3734SOL    HW160041   6.048   0.778   0.894
 3734SOL    HW260042   6.206   0.752   0.929
 3735SOL     OW60043   9.788  10.466   6.558
 3735SOL    HW160044   9.854  10.520   6.506
 3735SOL    HW260045   9.816  10.462   6.654
 3736SOL     OW60046   3.115   8.556   8.109
 3736SOL    HW160047   3.061   8.572   8.027
 3736SOL    HW260048   3.055   8.524   8.183
 3737SOL     OW60049   1.169   3.876   0.180
 3737SOL    HW160050   1.244   3.940   0.194
 3737SOL    HW260051   1.182   3.795   0.237
 3738SOL     OW60052   6.197   9.957   0.906
 3738SOL    HW160053   6.272  10.017   0.934
 3738SOL    HW260054   6.130  10.008   0.853
 3739SOL     OW60055  14.460   3.209   0.525
 3739SOL    HW160056  14.361   3.214   0.535
 3739SOL    HW260057  14.500   3.300   0.537
 3740SOL     OW60058   3.058  16.148   6.630
 3740SOL    HW160059   3.132  16.087   6.600
 3740SOL    HW260060   3.043  16.218   6.560
 3741SOL     OW60061   0.279  14.482   0.730
 3741SOL    HW160062   0.363  14.494   0.782
 3741SOL    HW260063   0.231  14.400   0.763
 3742SOL     OW60064   7.371   9.927   8.163
 3742SOL    HW160065   7.438   9.863   8.126
 3742SOL    HW260066   7.417  10.004   8.205
 3743SOL     OW60067   6.928   4.506   7.123
 3743SOL    HW160068   7.028   4.499   7.112
 3743SOL    HW260069   6.884   4.434   7.070
 3744SOL     OW60070   4.746   6.293   2.472
 3744SOL    HW160071   4.655   6.323   2.446
 3744SOL    HW260072   4.759   6.310   2.570
 3745SOL     OW60073  10.447  14.277   0.876
 3745SOL    HW160074  10.420  14.342   0.805
 3745SOL    HW260075  10.380  14.203   0.881
 3746SOL     OW60076   4.362   5.626   1.349
 3746SOL    HW160077   4.302   5.689   1.396
 3746SOL    HW260078   4.366   5.539   1.399
 3747SOL     OW60079   4.271   6.835   0.700
 3747SOL    HW160080   4.297   6.909   0.761
 3747SOL    HW260081   4.213   6.770   0.749
 3748SOL     OW60082  11.821   7.963   7.097
 3748SOL    HW160083  11.731   7.999   7.072
 3748SOL    HW260084  11.891   8.032   7.076
 3749SOL     OW60085  10.306   8.461   6.843
 3749SOL    HW160086  10.364   8.379   6.839
 3749SOL    HW260087  10.222   8.445   6.792
 3750SOL     OW60088   8.468   5.520   1.342
 3750SOL    HW160089   8.387   5.493   1.394
 3750SOL    HW260090   8.547   5.467   1.373
 3751SOL     OW60091   3.923  15.019   1.938
 3751SOL    HW160092   3.944  14.933   1.984
 3751SOL    HW260093   3.838  15.009   1.887
 3752SOL     OW60094  10.601  10.774   1.328
 3752SOL    HW160095  10.650  10.739   1.248
 3752SOL    HW260096  10.647  10.743   1.411
 3753SOL     OW60097   5.373   2.389   1.482
 3753SOL    HW160098   5.422   2.328   1.419
 3753SOL    HW260099   5.435   2.461   1.514
 3754SOL     OW60100   8.249  10.397   0.400
 3754SOL    HW160101   8.344  10.425   0.412
 3754SOL    HW260102   8.236  10.365   0.306
 3755SOL     OW60103   2.237   2.547   7.463
 3755SOL    HW160104   2.148   2.536   7.420
 3755SOL    HW260105   2.235   2.625   7.527
 3756SOL     OW60106  11.130   6.564   1.164
 3756SOL    HW160107  11.173   6.621   1.234
 3756SOL    HW260108  11.191   6.558   1.084
 3757SOL     OW60109   7.129   8.314   0.747
 3757SOL    HW160110   7.046   8.273   0.785
 3757SOL    HW260111   7.177   8.365   0.818
 3758SOL     OW60112   9.987   7.872   1.889
 3758SOL    HW160113  10.071   7.821   1.907
 3758SOL    HW260114   9.939   7.888   1.976
 3759SOL     OW60115   1.361  14.250   1.625
 3759SOL    HW160116   1.388  14.246   1.529
 3759SOL    HW260117   1.349  14.346   1.652
 3760SOL     OW60118   0.501   3.669   0.176
 3760SOL    HW160119   0.430   3.728   0.138
 3760SOL    HW260120   0.589   3.716   0.171
 3761SOL     OW60121  14.214  15.957   7.259
 3761SOL    HW160122  14.245  15.939   7.352
 3761SOL    HW260123  14.123  15.919   7.246
 3762SOL     OW60124   9.297   8.706   8.000
 3762SOL    HW160125   9.241   8.735   8.078
 3762SOL    HW260126   9.238   8.681   7.924
 3763SOL     OW60127  11.947  10.119   8.264
 3763SOL    HW160128  12.000  10.087   8.186
 3763SOL    HW260129  11.868  10.060   8.277
 3764SOL     OW60130   1.386  14.391   0.738
 3764SOL    HW160131   1.427  14.327   0.672
 3764SOL    HW260132   1.388  14.484   0.700
 3765SOL     OW60133   0.169   5.007   5.908
 3765SOL    HW160134   0.088   4.997   5.965
 3765SOL    HW260135   0.154   4.962   5.820
 3766SOL     OW60136   9.215   0.351   0.146
 3766SOL    HW160137   9.156   0.399   0.211
 3766SOL    HW260138   9.178   0.359   0.054
 3767SOL     OW60139  14.868   6.687   6.388
 3767SOL    HW160140  14.948   6.630   6.373
 3767SOL    HW260141  14.845   6.737   6.305
 3768SOL     OW60142  16.324   8.134   8.136
 3768SOL    HW160143  16.270   8.070   8.081
 3768SOL    HW260144  16.381   8.083   8.200
 3769SOL     OW60145  13.567   1.564   5.576
 3769SOL    HW160146  13.524   1.631   5.516
 3769SOL    HW260147  13.661   1.548   5.548
 3770SOL     OW60148   9.057  14.888   8.368
 3770SOL    HW160149   8.996  14.826   8.318
 3770SOL    HW260150   9.021  14.981   8.362
 3771SOL     OW60151   0.438  14.651   7.647
 3771SOL    HW160152   0.349  14.637   7.692
 3771SOL    HW260153   0.505  14.588   7.687
 3772SOL     OW60154   2.188  12.535   0.546
 3772SOL    HW160155   2.178  12.438   0.523
 3772SOL    HW260156   2.121  12.589   0.496
 3773SOL     OW60157  14.074  13.210   2.433
 3773SOL    HW160158  14.058  13.159   2.349
 3773SOL    HW260159  14.068  13.148   2.512
 3774SOL     OW60160   9.342  13.405   7.191
 3774SOL    HW160161   9.306  13.491   7.154
 3774SOL    HW260162   9.313  13.329   7.133
 3775SOL     OW60163   0.624  13.022   1.947
 3775SOL    HW160164   0.580  13.111   1.958
 3775SOL    HW260165   0.587  12.978   1.865
 3776SOL     OW60166  15.513   3.717   1.280
 3776SOL    HW160167  15.591   3.714   1.217
 3776SOL    HW260168  15.509   3.632   1.333
 3777SOL     OW60169   3.035   5.661   0.280
 3777SOL    HW160170   2.940   5.681   0.303
 3777SOL    HW260171   3.094   5.682   0.358
 3778SOL     OW60172   5.896  10.137   1.435
 3778SOL    HW160173   5.966  10.075   1.469
 3778SOL    HW260174   5.848  10.179   1.512
 3779SOL     OW60175  14.367   4.090   0.948
 3779SOL    HW160176  14.377   4.122   1.042
 3779SOL    HW260177  14.287   4.030   0.942
 3780SOL     OW60178  11.414  11.843   1.131
 3780SOL    HW160179  11.390  11.765   1.188
 3780SOL    HW260180  11.510  11.837   1.103
 3781SOL     OW60181   1.461   3.141   7.573
 3781SOL    HW160182   1.409   3.069   7.619
 3781SOL    HW260183   1.554   3.145   7.610
 3782SOL     OW60184  11.192  14.633   7.782
 3782SOL    HW160185  11.229  14.635   7.689
 3782SOL    HW260186  11.243  14.697   7.840
 3783SOL     OW60187   4.642  16.932   0.951
 3783SOL    HW160188   4.731  16.978   0.959
 3783SOL    HW260189   4.625  16.910   0.855
 3784SOL     OW60190  15.265   5.828   0.263
 3784SOL    HW160191  15.281   5.918   0.304
 3784SOL    HW260192  15.312   5.758   0.317
 3785SOL     OW60193   0.748  13.462   8.343
 3785SOL    HW160194   0.787  13.418   8.262
 3785SOL    HW260195   0.697  13.394   8.396
 3786SOL     OW60196  11.663   0.915   0.270
 3786SOL    HW160197  11.655   0.823   0.310
 3786SOL    HW260198  11.637   0.912   0.174
 3787SOL     OW60199   0.564   0.658   1.516
 3787SOL    HW160200   0.641   0.595   1.503
 3787SOL    HW260201   0.598   0.752   1.521
 3788SOL     OW60202   2.024  11.903   0.886
 3788SOL    HW160203   1.938  11.873   0.928
 3788SOL    HW260204   2.010  11.920   0.788
 3789SOL     OW60205  14.672   8.712   7.604
 3789SOL    HW160206  14.770   8.730   7.592
 3789SOL    HW260207  14.644   8.745   7.694
 3790SOL     OW60208   0.089   8.825   8.017
 3790SOL    HW160209   0.162   8.768   8.055
 3790SOL    HW260210   0.116   8.921   8.018
 3791SOL     OW60211   3.880   8.212   1.079
 3791SOL    HW160212   3.935   8.281   1.126
 3791SOL    HW260213   3.923   8.122   1.090
 3792SOL     OW60214   0.163  15.413   0.132
 3792SOL    HW160215   0.167  15.502   0.177
 3792SOL    HW260216   0.074  15.371   0.147
 3793SOL     OW60217  12.423  16.038   0.760
 3793SOL    HW160218  12.492  15.967   0.772
 3793SOL    HW260219  12.411  16.087   0.847
 3794SOL     OW60220   9.750  15.345   7.576
 3794SOL    HW160221   9.835  15.397   7.580
 3794SOL    HW260222   9.673  15.408   7.588
 3795SOL     OW60223   9.364  10.807   2.552
 3795SOL    HW160224   9.326  10.899   2.559
 3795SOL    HW260225   9.363  10.764   2.643
 3796SOL     OW60226  14.372   8.254   1.502
 3796SOL    HW160227  14.439   8.324   1.480
 3796SOL    HW260228  14.371   8.238   1.601
 3797SOL     OW60229   5.257   8.584   0.607
 3797SOL    HW160230   5.247   8.678   0.574
 3797SOL    HW260231   5.172   8.534   0.590
 3798SOL     OW60232  11.351   8.361   7.535
 3798SOL    HW160233  11.383   8.403   7.620
 3798SOL    HW260234  11.264   8.402   7.508
 3799SOL     OW60235  16.649   0.656   8.035
 3799SOL    HW160236  16.560   0.700   8.046
 3799SOL    HW260237  16.651   0.571   8.086
 3800SOL     OW60238   5.383   8.283   2.390
 3800SOL    HW160239   5.414   8.377   2.374
 3800SOL    HW260240   5.320   8.282   2.467
 3801SOL     OW60241  14.474   3.918   0.170
 3801SOL    HW160242  14.420   3.948   0.249
 3801SOL    HW260243  14.550   3.981   0.156
 3802SOL     OW60244   0.955  13.553   1.588
 3802SOL    HW160245   0.946  13.629   1.523
 3802SOL    HW260246   0.891  13.480   1.563
 3803SOL     OW60247   6.639   2.130   8.019
 3803SOL    HW160248   6.622   2.058   8.086
 3803SOL    HW260249   6.720   2.108   7.965
 3804SOL     OW60250   5.297  16.333   0.143
 3804SOL    HW160251   5.201  16.307   0.140
 3804SOL    HW260252   5.306  16.430   0.119
 3805SOL     OW60253   8.373   7.032   6.427
 3805SOL    HW160254   8.427   6.989   6.355
 3805SOL    HW260255   8.323   7.110   6.390
 3806SOL     OW60256  10.604   5.469   7.250
 3806SOL    HW160257  10.657   5.545   7.286
 3806SOL    HW260258  10.510   5.500   7.231
 3807SOL     OW60259   0.051  13.611   0.431
 3807SOL    HW160260   0.051  13.707   0.459
 3807SOL    HW260261   0.031  13.605   0.333
 3808SOL     OW60262   2.266   9.002   0.089
 3808SOL    HW160263   2.259   8.943   0.169
 3808SOL    HW260264   2.289   9.095   0.118
 3809SOL     OW60265   4.119   2.347   2.189
 3809SOL    HW160266   4.047   2.390   2.134
 3809SOL    HW260267   4.134   2.402   2.272
 3810SOL     OW60268   2.778  15.665   6.390
 3810SOL    HW160269   2.859  15.656   6.332
 3810SOL    HW260270   2.717  15.587   6.374
 3811SOL     OW60271   3.329   2.186   0.529
 3811SOL    HW160272   3.408   2.192   0.467
 3811SOL    HW260273   3.327   2.267   0.587
 3812SOL     OW60274   0.245  11.604   1.136
 3812SOL    HW160275   0.251  11.600   1.236
 3812SOL    HW260276   0.332  11.576   1.096
 3813SOL     OW60277  15.303  16.423   8.061
 3813SOL    HW160278  15.230  16.367   8.023
 3813SOL    HW260279  15.360  16.459   7.987
 3814SOL     OW60280  11.170   4.608   8.425
 3814SOL    HW160281  11.247   4.576   8.369
 3814SOL    HW260282  11.203   4.677   0.035
 3815SOL     OW60283  13.571   0.777   6.612
 3815SOL    HW160284  13.653   0.767   6.667
 3815SOL    HW260285  13.560   0.697   6.553
 3816SOL     OW60286   0.614  13.698   7.324
 3816SOL    HW160287   0.673  13.739   7.394
 3816SOL    HW260288   0.670  13.649   7.258
 3817SOL     OW60289  14.462   7.647   7.719
 3817SOL    HW160290  14.493   7.742   7.719
 3817SOL    HW260291  14.395   7.634   7.646
 3818SOL     OW60292  12.179   2.774   6.465
 3818SOL    HW160293  12.108   2.782   6.396
 3818SOL    HW260294  12.138   2.775   6.556
 3819SOL     OW60295   1.076   0.874   7.560
 3819SOL    HW160296   1.059   0.820   7.643
 3819SOL    HW260297   1.162   0.925   7.572
 3820SOL     OW60298   9.594  14.272   7.978
 3820SOL    HW160299   9.550  14.198   8.027
 3820SOL    HW260300   9.527  14.344   7.958
 3821SOL     OW60301   7.584  12.381   1.785
 3821SOL    HW160302   7.684  12.380   1.779
 3821SOL    HW260303   7.548  12.449   1.721
 3822SOL     OW60304   7.537  13.869   1.561
 3822SOL    HW160305   7.506  13.830   1.475
 3822SOL    HW260306   7.543  13.798   1.631
 3823SOL     OW60307  15.722   2.990   6.810
 3823SOL    HW160308  15.623   2.990   6.826
 3823SOL    HW260309  15.761   3.076   6.843
 3824SOL     OW60310   3.094   5.329   8.258
 3824SOL    HW160311   3.112   5.357   8.164
 3824SOL    HW260312   3.010   5.374   8.291
 3825SOL     OW60313   8.662  16.351   6.993
 3825SOL    HW160314   8.702  16.269   7.034
 3825SOL    HW260315   8.727  16.427   7.001
 3826SOL     OW60316  10.715  12.892   1.716
 3826SOL    HW160317  10.689  12.841   1.798
 3826SOL    HW260318  10.640  12.954   1.691
 3827SOL     OW60319  15.204  11.093   6.859
 3827SOL    HW160320  15.224  11.180   6.904
 3827SOL    HW260321  15.238  11.095   6.765
 3828SOL     OW60322   5.321  14.815   0.258
 3828SOL    HW160323   5.420  14.803   0.248
 3828SOL    HW260324   5.299  14.912   0.250
 3829SOL     OW60325   6.855  15.743   7.272
 3829SOL    HW160326   6.914  15.668   7.300
 3829SOL    HW260327   6.790  15.711   7.203
 3830SOL     OW60328   4.453   8.949   7.862
 3830SOL    HW160329   4.459   8.951   7.962
 3830SOL    HW260330   4.422   8.859   7.832
 3831SOL     OW60331   7.914   0.739   7.268
 3831SOL    HW160332   7.881   0.679   7.195
 3831SOL    HW260333   7.965   0.685   7.335
 3832SOL     OW60334   1.010   9.172   1.373
 3832SOL    HW160335   0.978   9.139   1.462
 3832SOL    HW260336   1.098   9.130   1.352
 3833SOL     OW60337   0.491   4.958   6.760
 3833SOL    HW160338   0.482   4.866   6.796
 3833SOL    HW260339   0.576   4.999   6.792
 3834SOL     OW60340  11.956  12.810   0.245
 3834SOL    HW160341  11.957  12.715   0.275
 3834SOL    HW260342  11.864  12.848   0.260
 3835SOL     OW60343  11.549   8.845   0.619
 3835SOL    HW160344  11.567   8.808   0.710
 3835SOL    HW260345  11.585   8.782   0.549
 3836SOL     OW60346   6.468  13.959   0.988
 3836SOL    HW160347   6.459  13.913   0.899
 3836SOL    HW260348   6.404  14.035   0.993
 3837SOL     OW60349   9.824   1.461   7.657
 3837SOL    HW160350   9.753   1.520   7.696
 3837SOL    HW260351   9.830   1.476   7.559
 3838SOL     OW60352  12.552   8.698   0.520
 3838SOL    HW160353  12.551   8.599   0.533
 3838SOL    HW260354  12.646   8.728   0.502
 3839SOL     OW60355   7.629   5.436   1.429
 3839SOL    HW160356   7.542   5.417   1.475
 3839SOL    HW260357   7.699   5.374   1.462
 3840SOL     OW60358   2.765   3.359   7.575
 3840SOL    HW160359   2.725   3.447   7.598
 3840SOL    HW260360   2.785   3.355   7.477
 3841SOL     OW60361   7.401   3.924   6.616
 3841SOL    HW160362   7.351   4.006   6.644
 3841SOL    HW260363   7.446   3.941   6.528
 3842SOL     OW60364  13.676   7.906   1.210
 3842SOL    HW160365  13.671   7.882   1.113
 3842SOL    HW260366  13.620   7.842   1.263
 3843SOL     OW60367  14.393   3.389   1.059
 3843SOL    HW160368  14.344   3.407   1.145
 3843SOL    HW260369  14.420   3.476   1.018
 3844SOL     OW60370  11.293  10.569   1.444
 3844SOL    HW160371  11.286  10.557   1.543
 3844SOL    HW260372  11.204  10.593   1.407
 3845SOL     OW60373  10.907  14.505   0.294
 3845SOL    HW160374  10.814  14.488   0.261
 3845SOL    HW260375  10.950  14.575   0.237
 3846SOL     OW60376  12.731  16.461   0.833
 3846SOL    HW160377  12.669  16.437   0.908
 3846SOL    HW260378  12.679  16.498   0.756
 3847SOL     OW60379  14.107  12.491   8.355
 3847SOL    HW160380  14.150  12.563   8.299
 3847SOL    HW260381  14.173  12.418   8.372
 3848SOL     OW60382   1.367   8.125   7.727
 3848SOL    HW160383   1.407   8.130   7.635
 3848SOL    HW260384   1.435   8.157   7.794
 3849SOL     OW60385   1.773   1.152   7.463
 3849SOL    HW160386   1.779   1.178   7.367
 3849SOL    HW260387   1.684   1.177   7.499
 3850SOL     OW60388  13.599  11.469   7.664
 3850SOL    HW160389  13.549  11.436   7.584
 3850SOL    HW260390  13.544  11.456   7.746
 3851SOL     OW60391  15.975   5.617   5.922
 3851SOL    HW160392  15.961   5.673   5.840
 3851SOL    HW260393  15.977   5.675   6.003
 3852SOL     OW60394   9.533  11.612   0.133
 3852SOL    HW160395   9.572  11.648   0.218
 3852SOL    HW260396   9.517  11.687   0.069
 3853SOL     OW60397   9.432  15.214   1.310
 3853SOL    HW160398   9.392  15.305   1.299
 3853SOL    HW260399   9.398  15.154   1.239
 3854SOL     OW60400   7.547  13.394   8.435
 3854SOL    HW160401   7.512  13.445   0.059
 3854SOL    HW260402   7.624  13.337   0.011
 3855SOL     OW60403   5.317   3.377   7.331
 3855SOL    HW160404   5.285   3.386   7.425
 3855SOL    HW260405   5.403   3.426   7.320
 3856SOL     OW60406  11.410  15.073   7.043
 3856SOL    HW160407  11.431  15.060   6.946
 3856SOL    HW260408  11.314  15.100   7.053
 3857SOL     OW60409   9.588   3.168   6.157
 3857SOL    HW160410   9.529   3.087   6.157
 3857SOL    HW260411   9.645   3.168   6.075
 3858SOL     OW60412  16.131   0.658   1.840
 3858SOL    HW160413  16.101   0.660   1.935
 3858SOL    HW260414  16.127   0.750   1.801
 3859SOL     OW60415   4.432  13.558   6.488
 3859SOL    HW160416   4.368  13.481   6.490
 3859SOL    HW260417   4.515  13.531   6.438
 3860SOL     OW60418   6.539  12.317   6.771
 3860SOL    HW160419   6.516  12.257   6.694
 3860SOL    HW260420   6.633  12.351   6.759
 3861SOL     OW60421   6.779   5.421   8.412
 3861SOL    HW160422   6.691   5.462   8.387
 3861SOL    HW260423   6.806   5.453   0.048
 3862SOL     OW60424   2.530  15.860   8.347
 3862SOL    HW160425   2.550  15.879   8.443
 3862SOL    HW260426   2.603  15.897   8.290
 3863SOL     OW60427   8.551   5.643   7.327
 3863SOL    HW160428   8.516   5.578   7.259
 3863SOL    HW260429   8.608   5.712   7.281
 3864SOL     OW60430  12.617  15.488   0.601
 3864SOL    HW160431  12.664  15.443   0.525
 3864SOL    HW260432  12.685  15.522   0.667
 3865SOL     OW60433   6.958   9.800   0.153
 3865SOL    HW160434   6.930   9.770   0.244
 3865SOL    HW260435   6.901   9.756   0.084
 3866SOL     OW60436  14.643  15.432   0.700
 3866SOL    HW160437  14.732  15.387   0.686
 3866SOL    HW260438  14.604  15.400   0.787
 3867SOL     OW60439   4.284  15.041   7.716
 3867SOL    HW160440   4.372  15.019   7.758
 3867SOL    HW260441   4.298  15.062   7.619
 3868SOL     OW60442  10.648   3.438   8.387
 3868SOL    HW160443  10.614   3.362   8.442
 3868SOL    HW260444  10.626   3.421   8.290
 3869SOL     OW60445   0.298  15.205   0.266
 3869SOL    HW160446   0.260  15.282   0.215
 3869SOL    HW260447   0.344  15.142   0.203
 3870SOL     OW60448   6.143   6.917   7.719
 3870SOL    HW160449   6.129   6.976   7.799
 3870SOL    HW260450   6.057   6.905   7.671
 3871SOL     OW60451   2.790  10.404   8.259
 3871SOL    HW160452   2.756  10.484   8.308
 3871SOL    HW260453   2.714  10.341   8.243
 3872SOL     OW60454  16.417   6.263   6.314
 3872SOL    HW160455  16.468   6.323   6.251
 3872SOL    HW260456  16.322   6.292   6.318
 3873SOL     OW60457   7.913   2.900   7.571
 3873SOL    HW160458   8.009   2.909   7.546
 3873SOL    HW260459   7.875   2.818   7.528
 3874SOL     OW60460   5.583  12.118   1.569
 3874SOL    HW160461   5.548  12.200   1.613
 3874SOL    HW260462   5.682  12.111   1.585
 3875SOL     OW60463   2.512  12.752   8.030
 3875SOL    HW160464   2.484  12.805   7.950
 3875SOL    HW260465   2.437  12.751   8.097
 3876SOL     OW60466   8.503  15.045   7.504
 3876SOL    HW160467   8.564  15.104   7.558
 3876SOL    HW260468   8.412  15.087   7.499
 3877SOL     OW60469  12.199   4.735   6.727
 3877SOL    HW160470  12.149   4.670   6.669
 3877SOL    HW260471  12.298   4.720   6.716
 3878SOL     OW60472   8.724  10.771   1.517
 3878SOL    HW160473   8.635  10.815   1.504
 3878SOL    HW260474   8.772  10.814   1.593
 3879SOL     OW60475   3.555   4.088   8.430
 3879SOL    HW160476   3.468   4.039   8.425
 3879SOL    HW260477   3.602   4.062   0.060
 3880SOL     OW60478   1.852   5.393   0.290
 3880SOL    HW160479   1.788   5.468   0.280
 3880SOL    HW260480   1.814   5.310   0.249
 3881SOL     OW60481   8.256  14.942   1.456
 3881SOL    HW160482   8.187  14.914   1.388
 3881SOL    HW260483   8.344  14.903   1.430
 3882SOL     OW60484   6.071   2.951   7.953
 3882SOL    HW160485   6.012   2.925   7.877
 3882SOL    HW260486   6.099   3.046   7.943
 3883SOL     OW60487   5.108   7.140   7.308
 3883SOL    HW160488   5.163   7.134   7.392
 3883SOL    HW260489   5.116   7.232   7.270
 3884SOL     OW60490   2.569  11.516   1.644
 3884SOL    HW160491   2.569  11.468   1.732
 3884SOL    HW260492   2.555  11.614   1.659
 3885SOL     OW60493   7.473   6.896   0.890
 3885SOL    HW160494   7.373   6.894   0.884
 3885SOL    HW260495   7.500   6.907   0.986
 3886SOL     OW60496   3.223  16.442   6.736
 3886SOL    HW160497   3.148  16.427   6.672
 3886SOL    HW260498   3.253  16.355   6.775
 3887SOL     OW60499  10.452   8.830   1.912
 3887SOL    HW160500  10.421   8.919   1.945
 3887SOL    HW260501  10.387   8.759   1.941
 3888SOL     OW60502  16.219  16.384   0.195
 3888SOL    HW160503  16.242  16.288   0.177
 3888SOL    HW260504  16.187  16.394   0.289
 3889SOL     OW60505   8.717   1.644   6.157
 3889SOL    HW160506   8.808   1.643   6.117
 3889SOL    HW260507   8.653   1.690   6.095
 3890SOL     OW60508   2.280   9.455   7.451
 3890SOL    HW160509   2.250   9.462   7.546
 3890SOL    HW260510   2.279   9.545   7.409
 3891SOL     OW60511  11.802   2.684   8.119
 3891SOL    HW160512  11.776   2.766   8.069
 3891SOL    HW260513  11.899   2.664   8.102
 3892SOL     OW60514  12.047  11.428   1.009
 3892SOL    HW160515  12.033  11.526   1.015
 3892SOL    HW260516  12.137  11.404   1.045
 3893SOL     OW60517   6.451   8.254   1.080
 3893SOL    HW160518   6.425   8.173   1.028
 3893SOL    HW260519   6.430   8.240   1.177
 3894SOL     OW60520   5.855   8.685   1.235
 3894SOL    HW160521   5.882   8.664   1.141
 3894SOL    HW260522   5.782   8.623   1.264
 3895SOL     OW60523   0.781   3.285   8.424
 3895SOL    HW160524   0.832   3.352   8.371
 3895SOL    HW260525   0.713   3.332   0.026
 3896SOL     OW60526  14.069   3.865   6.874
 3896SOL    HW160527  14.078   3.963   6.857
 3896SOL    HW260528  13.998   3.827   6.815
 3897SOL     OW60529  14.519  14.120   1.784
 3897SOL    HW160530  14.618  14.131   1.789
 3897SOL    HW260531  14.487  14.072   1.865
 3898SOL     OW60532   2.554  15.331   1.221
 3898SOL    HW160533   2.586  15.352   1.129
 3898SOL    HW260534   2.605  15.386   1.288
 3899SOL     OW60535   3.686   3.208   0.651
 3899SOL    HW160536   3.735   3.243   0.731
 3899SOL    HW260537   3.648   3.285   0.599
 3900SOL     OW60538  11.776   4.563   1.431
 3900SOL    HW160539  11.752   4.637   1.495
 3900SOL    HW260540  11.735   4.478   1.462
 3901SOL     OW60541   6.953  11.234   0.018
 3901SOL    HW160542   6.857  11.259   0.018
 3901SOL    HW260543   6.975  11.187   0.104
 3902SOL     OW60544   1.857   2.301   0.564
 3902SOL    HW160545   1.933   2.278   0.504
 3902SOL    HW260546   1.892   2.318   0.657
 3903SOL     OW60547  14.249  10.853   2.323
 3903SOL    HW160548  14.231  10.756   2.338
 3903SOL    HW260549  14.340  10.864   2.283
 3904SOL     OW60550  12.251  16.892   7.439
 3904SOL    HW160551  12.281   0.003   7.453
 3904SOL    HW260552  12.221  16.880   7.344
 3905SOL     OW60553   0.797  15.451   1.151
 3905SOL    HW160554   0.770  15.356   1.138
 3905SOL    HW260555   0.743  15.510   1.089
 3906SOL     OW60556  13.730   8.139   1.795
 3906SOL    HW160557  13.813   8.151   1.850
 3906SOL    HW260558  13.752   8.086   1.713
 3907SOL     OW60559  12.607   6.753   7.546
 3907SOL    HW160560  12.662   6.834   7.567
 3907SOL    HW260561  12.623   6.684   7.617
 3908SOL     OW60562  11.267   0.595   7.860
 3908SOL    HW160563  11.175   0.611   7.826
 3908SOL    HW260564  11.333   0.642   7.801
 3909SOL     OW60565  13.199   8.005   1.970
 3909SOL    HW160566  13.169   7.954   2.051
 3909SOL    HW260567  13.296   8.027   1.978
 3910SOL     OW60568  14.518  14.617   7.272
 3910SOL    HW160569  14.605  14.575   7.300
 3910SOL    HW260570  14.537  14.690   7.207
 3911SOL     OW60571   7.338  11.769   0.523
 3911SOL    HW160572   7.355  11.697   0.457
 3911SOL    HW260573   7.425  11.811   0.550
 3912SOL     OW60574  14.130   3.960   7.806
 3912SOL    HW160575  14.196   4.000   7.742
 3912SOL    HW260576  14.112   4.024   7.880
 3913SOL     OW60577   1.533   8.892   1.842
 3913SOL    HW160578   1.627   8.874   1.870
 3913SOL    HW260579   1.479   8.809   1.850
 3914SOL     OW60580   9.354   5.373   1.802
 3914SOL    HW160581   9.430   5.426   1.765
 3914SOL    HW260582   9.389   5.305   1.867
 3915SOL     OW60583  15.500  11.135   8.095
 3915SOL    HW160584  15.495  11.080   8.179
 3915SOL    HW260585  15.514  11.074   8.017
 3916SOL     OW60586   4.798  11.159   8.092
 3916SOL    HW160587   4.703  11.185   8.109
 3916SOL    HW260588   4.842  11.228   8.035
 3917SOL     OW60589   5.320  13.439   7.162
 3917SOL    HW160590   5.364  13.354   7.191
 3917SOL    HW260591   5.388  13.513   7.164
 3918SOL     OW60592  14.788   0.457   0.640
 3918SOL    HW160593  14.787   0.369   0.686
 3918SOL    HW260594  14.707   0.465   0.581
 3919SOL     OW60595   8.992   8.386   1.181
 3919SOL    HW160596   9.091   8.398   1.183
 3919SOL    HW260597   8.950   8.460   1.128
 3920SOL     OW60598  15.358   3.866   8.124
 3920SOL    HW160599  15.338   3.780   8.077
 3920SOL    HW260600  15.274   3.903   8.163
 3921SOL     OW60601  16.684   0.567   7.775
 3921SOL    HW160602  16.719   0.474   7.783
 3921SOL    HW260603  16.680   0.609   7.866
 3922SOL     OW60604   9.036   6.663   1.207
 3922SOL    HW160605   9.013   6.658   1.110
 3922SOL    HW260606   9.023   6.756   1.241
 3923SOL     OW60607  12.704   2.044   0.895
 3923SOL    HW160608  12.793   2.042   0.941
 3923SOL    HW260609  12.632   2.060   0.962
 3924SOL     OW60610   2.990   7.898   0.798
 3924SOL    HW160611   2.959   7.983   0.756
 3924SOL    HW260612   3.059   7.855   0.740
 3925SOL     OW60613   3.038   9.904   0.250
 3925SOL    HW160614   2.960   9.950   0.207
 3925SOL    HW260615   3.105   9.880   0.180
 3926SOL     OW60616   0.891  12.137   0.848
 3926SOL    HW160617   0.851  12.155   0.758
 3926SOL    HW260618   0.945  12.053   0.844
 3927SOL     OW60619   8.857   0.570   7.898
 3927SOL    HW160620   8.801   0.500   7.854
 3927SOL    HW260621   8.940   0.527   7.933
 3928SOL     OW60622   6.175   4.091   8.378
 3928SOL    HW160623   6.206   4.128   8.290
 3928SOL    HW260624   6.237   4.018   8.406
 3929SOL     OW60625  10.352  14.594   1.350
 3929SOL    HW160626  10.326  14.622   1.258
 3929SOL    HW260627  10.333  14.668   1.414
 3930SOL     OW60628  13.376   0.339   6.473
 3930SOL    HW160629  13.392   0.310   6.567
 3930SOL    HW260630  13.399   0.264   6.410
 3931SOL     OW60631  11.605  13.472   0.583
 3931SOL    HW160632  11.658  13.417   0.519
 3931SOL    HW260633  11.511  13.437   0.586
 3932SOL     OW60634   7.243   9.086   1.420
 3932SOL    HW160635   7.264   9.173   1.376
 3932SOL    HW260636   7.325   9.049   1.463
 3933SOL     OW60637   3.838   1.634   1.314
 3933SOL    HW160638   3.916   1.690   1.286
 3933SOL    HW260639   3.757   1.662   1.261
 3934SOL     OW60640  12.390   4.216   0.641
 3934SOL    HW160641  12.403   4.131   0.691
 3934SOL    HW260642  12.307   4.261   0.673
 3935SOL     OW60643  12.377   2.672   7.378
 3935SOL    HW160644  12.416   2.737   7.313
 3935SOL    HW260645  12.442   2.597   7.394
 3936SOL     OW60646   2.738   1.086   6.645
 3936SOL    HW160647   2.673   1.039   6.585
 3936SOL    HW260648   2.827   1.040   6.640
 3937SOL     OW60649   8.381   3.177   1.415
 3937SOL    HW160650   8.351   3.223   1.499
 3937SOL    HW260651   8.398   3.245   1.344
 3938SOL     OW60652  15.424   3.503   6.886
 3938SOL    HW160653  15.481   3.451   6.950
 3938SOL    HW260654  15.434   3.466   6.794
 3939SOL     OW60655   5.543  15.628   1.276
 3939SOL    HW160656   5.612  15.574   1.228
 3939SOL    HW260657   5.508  15.577   1.354
 3940SOL     OW60658   8.235   1.446   1.139
 3940SOL    HW160659   8.281   1.446   1.050
 3940SOL    HW260660   8.283   1.509   1.201
 3941SOL     OW60661   0.431   2.443   0.940
 3941SOL    HW160662   0.417   2.402   1.030
 3941SOL    HW260663   0.517   2.409   0.901
 3942SOL     OW60664   0.484  10.333   0.343
 3942SOL    HW160665   0.541  10.291   0.413
 3942SOL    HW260666   0.538  10.398   0.289
 3943SOL     OW60667   8.936   0.228   6.267
 3943SOL    HW160668   8.917   0.246   6.364
 3943SOL    HW260669   8.888   0.145   6.239
 3944SOL     OW60670   0.482   1.593   8.158
 3944SOL    HW160671   0.568   1.593   8.208
 3944SOL    HW260672   0.426   1.671   8.188
 3945SOL     OW60673  13.742   3.674   7.083
 3945SOL    HW160674  13.779   3.641   7.170
 3945SOL    HW260675  13.753   3.603   7.013
 3946SOL     OW60676   8.275   6.808   0.389
 3946SOL    HW160677   8.223   6.728   0.359
 3946SOL    HW260678   8.373   6.786   0.389
 3947SOL     OW60679   3.579  10.718   1.015
 3947SOL    HW160680   3.550  10.693   0.922
 3947SOL    HW260681   3.673  10.687   1.030
 3948SOL     OW60682   1.355   8.556   0.958
 3948SOL    HW160683   1.396   8.550   1.049
 3948SOL    HW260684   1.426   8.576   0.891
 3949SOL     OW60685  13.218  16.107   0.879
 3949SOL    HW160686  13.261  16.075   0.795
 3949SOL    HW260687  13.119  16.118   0.864
 3950SOL     OW60688  16.881   5.419   8.018
 3950SOL    HW160689  16.956   5.412   7.953
 3950SOL    HW260690  16.802   5.461   7.974
 3951SOL     OW60691  10.655   3.732   1.710
 3951SOL    HW160692  10.649   3.740   1.809
 3951SOL    HW260693  10.688   3.640   1.686
 3952SOL     OW60694  14.314  12.815   0.736
 3952SOL    HW160695  14.352  12.907   0.731
 3952SOL    HW260696  14.374  12.752   0.687
 3953SOL     OW60697   7.839  13.032   8.376
 3953SOL    HW160698   7.783  12.995   8.301
 3953SOL    HW260699   7.935  13.007   8.362
 3954SOL     OW60700  12.936   3.775   0.755
 3954SOL    HW160701  12.990   3.693   0.740
 3954SOL    HW260702  12.961   3.815   0.844
 3955SOL     OW60703   0.131  16.788   0.510
 3955SOL    HW160704   0.100  16.871   0.558
 3955SOL    HW260705   0.225  16.768   0.537
 3956SOL     OW60706   5.052   9.036   6.595
 3956SOL    HW160707   4.979   8.968   6.591
 3956SOL    HW260708   5.140   8.990   6.610
 3957SOL     OW60709  16.003   3.929   7.220
 3957SOL    HW160710  15.926   3.940   7.156
 3957SOL    HW260711  16.082   3.980   7.185
 3958SOL     OW60712  15.662   5.379   8.173
 3958SOL    HW160713  15.655   5.341   8.265
 3958SOL    HW260714  15.692   5.474   8.179
 3959SOL     OW60715   5.101  16.478   1.890
 3959SOL    HW160716   5.170  16.406   1.884
 3959SOL    HW260717   5.124  16.551   1.826
 3960SOL     OW60718   0.362  10.971   7.539
 3960SOL    HW160719   0.298  11.021   7.481
 3960SOL    HW260720   0.429  11.035   7.577
 3961SOL     OW60721  14.899   3.144   0.801
 3961SOL    HW160722  14.861   3.089   0.875
 3961SOL    HW260723  14.885   3.098   0.714
 3962SOL     OW60724   9.948  16.582   0.615
 3962SOL    HW160725   9.942  16.633   0.529
 3962SOL    HW260726  10.004  16.634   0.680
 3963SOL     OW60727  12.965   0.925   1.368
 3963SOL    HW160728  12.902   0.948   1.443
 3963SOL    HW260729  12.913   0.908   1.285
 3964SOL     OW60730  10.355  10.117   0.642
 3964SOL    HW160731  10.440  10.070   0.662
 3964SOL    HW260732  10.278  10.054   0.656
 3965SOL     OW60733   5.007   2.919   0.997
 3965SOL    HW160734   5.066   2.920   0.916
 3965SOL    HW260735   5.063   2.907   1.079
 3966SOL     OW60736  15.227   3.954   7.794
 3966SOL    HW160737  15.270   3.863   7.792
 3966SOL    HW260738  15.262   4.005   7.872
 3967SOL     OW60739  14.275   4.398   8.132
 3967SOL    HW160740  14.235   4.476   8.179
 3967SOL    HW260741  14.271   4.318   8.192
 3968SOL     OW60742   1.015   0.247   7.821
 3968SOL    HW160743   0.970   0.307   7.756
 3968SOL    HW260744   0.946   0.198   7.875
 3969SOL     OW60745   9.157   0.418   8.339
 3969SOL    HW160746   9.063   0.418   8.305
 3969SOL    HW260747   9.192   0.512   8.340
 3970SOL     OW60748   5.329  14.131   7.783
 3970SOL    HW160749   5.373  14.102   7.868
 3970SOL    HW260750   5.244  14.081   7.771
 3971SOL     OW60751  13.974  10.415   8.418
 3971SOL    HW160752  13.989  10.510   8.392
 3971SOL    HW260753  14.013  10.355   8.348
 3972SOL     OW60754  11.973   7.529   0.994
 3972SOL    HW160755  11.910   7.603   0.967
 3972SOL    HW260756  11.934   7.441   0.966
 3973SOL     OW60757   4.648   0.089   1.569
 3973SOL    HW160758   4.746   0.080   1.550
 3973SOL    HW260759   4.621   0.184   1.559
 3974SOL     OW60760   5.207  16.068   1.056
 3974SOL    HW160761   5.128  16.054   1.116
 3974SOL    HW260762   5.277  16.120   1.104
 3975SOL     OW60763   8.967   0.398   1.217
 3975SOL    HW160764   8.897   0.466   1.194
 3975SOL    HW260765   8.993   0.409   1.312
 3976SOL     OW60766   3.271   1.553   1.736
 3976SOL    HW160767   3.354   1.500   1.720
 3976SOL    HW260768   3.205   1.534   1.664
 3977SOL     OW60769   9.198  12.666   7.860
 3977SOL    HW160770   9.112  12.707   7.828
 3977SOL    HW260771   9.272  12.733   7.853
 3978SOL     OW60772   8.781  14.815   1.402
 3978SOL    HW160773   8.699  14.769   1.435
 3978SOL    HW260774   8.755  14.887   1.338
 3979SOL     OW60775   4.297   7.206   8.021
 3979SOL    HW160776   4.374   7.210   8.085
 3979SOL    HW260777   4.280   7.297   7.984
 3980SOL     OW60778   0.996  14.136   7.615
 3980SOL    HW160779   0.899  14.119   7.632
 3980SOL    HW260780   1.046  14.049   7.617
 3981SOL     OW60781   7.364  13.404   7.788
 3981SOL    HW160782   7.422  13.326   7.809
 3981SOL    HW260783   7.394  13.446   7.702
 3982SOL     OW60784   5.065  14.305   0.305
 3982SOL    HW160785   5.161  14.280   0.319
 3982SOL    HW260786   5.017  14.304   0.393
 3983SOL     OW60787   9.315   1.022   7.974
 3983SOL    HW160788   9.336   0.975   7.889
 3983SOL    HW260789   9.298   0.955   8.046
 3984SOL     OW60790   7.916  12.794   0.811
 3984SOL    HW160791   7.902  12.787   0.910
 3984SOL    HW260792   7.827  12.806   0.766
 3985SOL     OW60793   3.420  14.177   2.922
 3985SOL    HW160794   3.362  14.258   2.934
 3985SOL    HW260795   3.511  14.196   2.959
 3986SOL     OW60796   3.899   5.751   1.844
 3986SOL    HW160797   3.984   5.786   1.883
 3986SOL    HW260798   3.887   5.788   1.752
 3987SOL     OW60799   4.531   6.048   0.056
 3987SOL    HW160800   4.537   6.138   0.014
 3987SOL    HW260801   4.441   6.008   0.038
 3988SOL     OW60802   1.343   6.012   0.635
 3988SOL    HW160803   1.292   6.060   0.706
 3988SOL    HW260804   1.405   5.947   0.676
 3989SOL     OW60805  16.383   3.434   0.396
 3989SOL    HW160806  16.468   3.407   0.442
 3989SOL    HW260807  16.323   3.354   0.388
 3990SOL     OW60808   9.995   5.822   0.038
 3990SOL    HW160809  10.086   5.802   0.003
 3990SOL    HW260810  10.002   5.884   0.116
 3991SOL     OW60811  10.987  12.082   7.537
 3991SOL    HW160812  10.968  12.132   7.622
 3991SOL    HW260813  10.916  12.100   7.470
 3992SOL     OW60814   2.561   9.663   1.185
 3992SOL    HW160815   2.650   9.689   1.148
 3992SOL    HW260816   2.567   9.572   1.226
 3993SOL     OW60817  16.320   0.986   6.303
 3993SOL    HW160818  16.361   1.076   6.315
 3993SOL    HW260819  16.360   0.941   6.224
 3994SOL     OW60820  15.361   8.989   7.899
 3994SOL    HW160821  15.445   8.959   7.855
 3994SOL    HW260822  15.356   8.951   7.991
 3995SOL     OW60823   8.550   4.575   0.563
 3995SOL    HW160824   8.644   4.605   0.574
 3995SOL    HW260825   8.539   4.484   0.604
 3996SOL     OW60826   9.991   4.522   6.408
 3996SOL    HW160827   9.905   4.487   6.371
 3996SOL    HW260828  10.014   4.609   6.364
 3997SOL     OW60829  13.101   1.423   7.347
 3997SOL    HW160830  13.169   1.377   7.290
 3997SOL    HW260831  13.009   1.406   7.309
 3998SOL     OW60832   5.873   6.364   1.284
 3998SOL    HW160833   5.886   6.265   1.293
 3998SOL    HW260834   5.865   6.404   1.375
 3999SOL     OW60835   3.616   6.855   8.097
 3999SOL    HW160836   3.644   6.937   8.146
 3999SOL    HW260837   3.679   6.837   8.022
 4000SOL     OW60838   8.884  12.997   0.260
 4000SOL    HW160839   8.806  12.944   0.294
 4000SOL    HW260840   8.850  13.075   0.207
 4001SOL     OW60841   7.133  14.044   7.122
 4001SOL    HW160842   7.160  14.136   7.093
 4001SOL    HW260843   7.203  14.006   7.183
 4002SOL     OW60844  11.338   4.873   1.403
 4002SOL    HW160845  11.374   4.944   1.464
 4002SOL    HW260846  11.240   4.887   1.390
 4003SOL     OW60847   8.351   7.081   0.008
 4003SOL    HW160848   8.297   7.048   0.085
 4003SOL    HW260849   8.445   7.097   0.036
 4004SOL     OW60850  12.818   1.113   7.581
 4004SOL    HW160851  12.831   1.119   7.483
 4004SOL    HW260852  12.906   1.125   7.628
 4005SOL     OW60853   7.676  10.997   6.800
 4005SOL    HW160854   7.747  10.996   6.729
 4005SOL    HW260855   7.590  10.963   6.761
 4006SOL     OW60856  10.143   2.486   0.055
 4006SOL    HW160857  10.047   2.484   0.085
 4006SOL    HW260858  10.203   2.489   0.135
 4007SOL     OW60859   0.783   0.652   1.172
 4007SOL    HW160860   0.709   0.719   1.178
 4007SOL    HW260861   0.852   0.672   1.241
 4008SOL     OW60862   2.001   8.751   0.974
 4008SOL    HW160863   2.078   8.730   0.913
 4008SOL    HW260864   1.965   8.842   0.953
 4009SOL     OW60865   6.294  16.393   8.352
 4009SOL    HW160866   6.322  16.416   8.259
 4009SOL    HW260867   6.375  16.381   8.409
 4010SOL     OW60868   9.004   3.490   6.806
 4010SOL    HW160869   9.005   3.511   6.708
 4010SOL    HW260870   8.967   3.568   6.857
 4011SOL     OW60871   1.732   5.118   6.537
 4011SOL    HW160872   1.638   5.094   6.512
 4011SOL    HW260873   1.777   5.039   6.579
 4012SOL     OW60874   5.474   6.230   0.373
 4012SOL    HW160875   5.378   6.218   0.397
 4012SOL    HW260876   5.484   6.307   0.311
 4013SOL     OW60877   5.635   1.610   0.674
 4013SOL    HW160878   5.569   1.674   0.712
 4013SOL    HW260879   5.712   1.600   0.737
 4014SOL     OW60880   9.855   6.071   6.954
 4014SOL    HW160881   9.863   6.021   7.040
 4014SOL    HW260882   9.775   6.130   6.958
 4015SOL     OW60883   1.535   2.822   0.698
 4015SOL    HW160884   1.441   2.795   0.719
 4015SOL    HW260885   1.540   2.922   0.689
 4016SOL     OW60886   9.092   1.460   6.792
 4016SOL    HW160887   9.099   1.522   6.714
 4016SOL    HW260888   9.017   1.489   6.851
 4017SOL     OW60889   2.489   5.884   7.809
 4017SOL    HW160890   2.559   5.937   7.761
 4017SOL    HW260891   2.432   5.946   7.863
 4018SOL     OW60892   9.184  15.157   7.345
 4018SOL    HW160893   9.087  15.166   7.366
 4018SOL    HW260894   9.200  15.070   7.297
 4019SOL     OW60895   3.529   1.532   7.150
 4019SOL    HW160896   3.557   1.487   7.065
 4019SOL    HW260897   3.447   1.488   7.186
 4020SOL     OW60898  11.687   2.824   6.552
 4020SOL    HW160899  11.765   2.887   6.554
 4020SOL    HW260900  11.643   2.822   6.642
 4021SOL     OW60901   2.615   5.790   6.781
 4021SOL    HW160902   2.673   5.804   6.861
 4021SOL    HW260903   2.667   5.744   6.709
 4022SOL     OW60904  13.127   4.755   8.247
 4022SOL    HW160905  13.153   4.660   8.230
 4022SOL    HW260906  13.200   4.801   8.298
 4023SOL     OW60907   4.700   3.297   7.412
 4023SOL    HW160908   4.638   3.221   7.388
 4023SOL    HW260909   4.748   3.327   7.329
 4024SOL     OW60910   9.582  12.308   6.744
 4024SOL    HW160911   9.668  12.278   6.703
 4024SOL    HW260912   9.515  12.327   6.672
 4025SOL     OW60913   9.891  10.315   7.487
 4025SOL    HW160914   9.828  10.392   7.477
 4025SOL    HW260915   9.841  10.235   7.521
 4026SOL     OW60916   5.786  10.666   0.693
 4026SOL    HW160917   5.783  10.685   0.791
 4026SOL    HW260918   5.878  10.685   0.658
 4027SOL     OW60919   9.357   6.089   0.674
 4027SOL    HW160920   9.411   6.124   0.751
 4027SOL    HW260921   9.397   6.003   0.643
 4028SOL     OW60922  13.962  15.324   7.306
 4028SOL    HW160923  13.886  15.343   7.244
 4028SOL    HW260924  13.928  15.277   7.387
 4029SOL     OW60925   6.318   0.003   8.410
 4029SOL    HW160926   6.331  16.888   8.414
 4029SOL    HW260927   6.289   0.029   8.317
 4030SOL     OW60928   3.422   6.130   1.184
 4030SOL    HW160929   3.414   6.225   1.154
 4030SOL    HW260930   3.513   6.095   1.160
 4031SOL     OW60931   3.527  13.661   0.139
 4031SOL    HW160932   3.482  13.743   0.103
 4031SOL    HW260933   3.461  13.607   0.190
 4032SOL     OW60934  12.729   2.230   0.209
 4032SOL    HW160935  12.776   2.258   0.292
 4032SOL    HW260936  12.790   2.174   0.153
 4033SOL     OW60937   9.343  12.415   6.894
 4033SOL    HW160938   9.429  12.377   6.860
 4033SOL    HW260939   9.343  12.515   6.881
 4034SOL     OW60940   3.713  15.235   0.113
 4034SOL    HW160941   3.698  15.324   0.070
 4034SOL    HW260942   3.625  15.197   0.142
 4035SOL     OW60943  15.115  14.650   0.560
 4035SOL    HW160944  15.053  14.642   0.638
 4035SOL    HW260945  15.068  14.621   0.477
 4036SOL     OW60946   3.040  14.819   3.007
 4036SOL    HW160947   3.086  14.733   2.986
 4036SOL    HW260948   2.955  14.800   3.056
 4037SOL     OW60949   8.027   7.593   0.035
 4037SOL    HW160950   8.116   7.566   0.073
 4037SOL    HW260951   7.973   7.639   0.105
 4038SOL     OW60952   4.479   5.203   7.251
 4038SOL    HW160953   4.409   5.256   7.204
 4038SOL    HW260954   4.529   5.263   7.314
 4039SOL     OW60955   0.638  14.009   2.728
 4039SOL    HW160956   0.721  14.019   2.783
 4039SOL    HW260957   0.641  14.073   2.651
 4040SOL     OW60958   3.499  11.727   6.470
 4040SOL    HW160959   3.411  11.749   6.427
 4040SOL    HW260960   3.573  11.761   6.412
 4041SOL     OW60961  16.270   2.633   5.890
 4041SOL    HW160962  16.269   2.726   5.926
 4041SOL    HW260963  16.207   2.627   5.813
 4042SOL     OW60964   1.597   2.561   6.330
 4042SOL    HW160965   1.540   2.643   6.326
 4042SOL    HW260966   1.601   2.518   6.240
 4043SOL     OW60967   8.908  13.490   7.632
 4043SOL    HW160968   8.998  13.531   7.617
 4043SOL    HW260969   8.851  13.553   7.685
 4044SOL     OW60970  13.524  15.945   7.304
 4044SOL    HW160971  13.493  16.038   7.324
 4044SOL    HW260972  13.513  15.888   7.385
 4045SOL     OW60973   6.178   3.377   7.443
 4045SOL    HW160974   6.203   3.335   7.530
 4045SOL    HW260975   6.241   3.452   7.423
 4046SOL     OW60976   1.574   4.756   7.088
 4046SOL    HW160977   1.485   4.781   7.128
 4046SOL    HW260978   1.562   4.678   7.027
 4047SOL     OW60979   0.420   2.690   6.715
 4047SOL    HW160980   0.346   2.690   6.648
 4047SOL    HW260981   0.499   2.642   6.677
 4048SOL     OW60982   6.988  14.714   8.249
 4048SOL    HW160983   7.060  14.645   8.243
 4048SOL    HW260984   7.025  14.796   8.292
 4049SOL     OW60985   9.686  12.299   7.599
 4049SOL    HW160986   9.710  12.214   7.645
 4049SOL    HW260987   9.594  12.291   7.560
 4050SOL     OW60988  13.590   2.264   0.363
 4050SOL    HW160989  13.517   2.278   0.430
 4050SOL    HW260990  13.640   2.180   0.385
 4051SOL     OW60991   4.932   8.030   7.217
 4051SOL    HW160992   4.905   8.080   7.299
 4051SOL    HW260993   4.856   8.030   7.151
 4052SOL     OW60994  14.096   2.716   7.799
 4052SOL    HW160995  14.116   2.647   7.869
 4052SOL    HW260996  14.170   2.717   7.731
 4053SOL     OW60997   2.101  14.367   1.399
 4053SOL    HW160998   2.055  14.395   1.484
 4053SOL    HW260999   2.121  14.269   1.404
 4054SOL     OW61000   0.218   9.428   0.027
 4054SOL    HW161001   0.152   9.410   0.101
 4054SOL    HW261002   0.258   9.342   8.451
 4055SOL     OW61003   5.899   8.620   0.974
 4055SOL    HW161004   5.877   8.624   0.877
 4055SOL    HW261005   5.960   8.543   0.992
 4056SOL     OW61006   5.665  12.096   7.652
 4056SOL    HW161007   5.691  12.047   7.568
 4056SOL    HW261008   5.726  12.174   7.665
 4057SOL     OW61009   6.074  16.354   0.305
 4057SOL    HW161010   6.066  16.451   0.282
 4057SOL    HW261011   6.166  16.336   0.342
 4058SOL     OW61012   4.368  13.243   8.038
 4058SOL    HW161013   4.465  13.224   8.052
 4058SOL    HW261014   4.349  13.339   8.055
 4059SOL     OW61015   2.901   6.616   6.493
 4059SOL    HW161016   2.847   6.682   6.441
 4059SOL    HW261017   2.990   6.604   6.449
 4060SOL     OW61018   7.623   8.779   1.189
 4060SOL    HW161019   7.620   8.736   1.099
 4060SOL    HW261020   7.533   8.771   1.233
 4061SOL     OW61021  10.334   5.513   7.184
 4061SOL    HW161022  10.269   5.589   7.185
 4061SOL    HW261023  10.284   5.426   7.188
 4062SOL     OW61024  14.608   0.291   6.076
 4062SOL    HW161025  14.674   0.299   6.000
 4062SOL    HW261026  14.561   0.379   6.087
 4063SOL     OW61027  12.079  14.613   1.983
 4063SOL    HW161028  12.053  14.537   2.042
 4063SOL    HW261029  12.153  14.665   2.026
 4064SOL     OW61030   8.006  13.323   1.553
 4064SOL    HW161031   7.993  13.285   1.644
 4064SOL    HW261032   7.987  13.421   1.554
 4065SOL     OW61033  13.086  13.244   7.485
 4065SOL    HW161034  13.099  13.317   7.417
 4065SOL    HW261035  13.002  13.261   7.536
 4066SOL     OW61036  16.020  10.134   0.802
 4066SOL    HW161037  15.923  10.160   0.806
 4066SOL    HW261038  16.060  10.167   0.716
 4067SOL     OW61039  16.978  12.882   0.800
 4067SOL    HW161040   0.060  12.809   0.778
 4067SOL    HW261041  16.955  12.932   0.716
 4068SOL     OW61042  15.989  15.215   7.934
 4068SOL    HW161043  15.963  15.215   8.030
 4068SOL    HW261044  15.992  15.121   7.900
 4069SOL     OW61045  15.251   7.984   7.862
 4069SOL    HW161046  15.186   7.911   7.842
 4069SOL    HW261047  15.222   8.034   7.943
 4070SOL     OW61048  14.446   3.897   6.105
 4070SOL    HW161049  14.525   3.944   6.064
 4070SOL    HW261050  14.466   3.875   6.200
 4071SOL     OW61051  16.241   6.799   0.701
 4071SOL    HW161052  16.195   6.748   0.773
 4071SOL    HW261053  16.319   6.745   0.667
 4072SOL     OW61054  14.194   8.908   2.248
 4072SOL    HW161055  14.261   8.979   2.270
 4072SOL    HW261056  14.216   8.825   2.299
 4073SOL     OW61057   3.100  12.794   1.059
 4073SOL    HW161058   3.061  12.851   0.987
 4073SOL    HW261059   3.126  12.851   1.136
 4074SOL     OW61060   1.431   3.931   7.459
 4074SOL    HW161061   1.393   3.888   7.376
 4074SOL    HW261062   1.519   3.972   7.438
 4075SOL     OW61063  14.548   2.259   7.435
 4075SOL    HW161064  14.632   2.299   7.471
 4075SOL    HW261065  14.552   2.160   7.445
 4076SOL     OW61066   6.053   6.308   0.835
 4076SOL    HW161067   6.034   6.213   0.859
 4076SOL    HW261068   6.046   6.365   0.917
 4077SOL     OW61069   0.176   3.151   0.974
 4077SOL    HW161070   0.252   3.189   0.922
 4077SOL    HW261071   0.211   3.094   1.048
 4078SOL     OW61072   0.874  14.041   0.604
 4078SOL    HW161073   0.969  14.029   0.631
 4078SOL    HW261074   0.846  14.136   0.621
 4079SOL     OW61075   5.537   0.121   1.024
 4079SOL    HW161076   5.509   0.088   0.934
 4079SOL    HW261077   5.617   0.180   1.014
 4080SOL     OW61078   2.928  14.809   1.922
 4080SOL    HW161079   2.942  14.816   1.824
 4080SOL    HW261080   3.016  14.795   1.967
 4081SOL     OW61081   5.826  16.163   7.431
 4081SOL    HW161082   5.866  16.254   7.443
 4081SOL    HW261083   5.868  16.099   7.496
 4082SOL     OW61084   2.331   4.339   7.592
 4082SOL    HW161085   2.324   4.316   7.495
 4082SOL    HW261086   2.357   4.435   7.602
 4083SOL     OW61087   5.047  12.475   0.128
 4083SOL    HW161088   4.969  12.425   0.166
 4083SOL    HW261089   5.025  12.572   0.122
 4084SOL     OW61090   3.247  16.584   0.629
 4084SOL    HW161091   3.332  16.594   0.680
 4084SOL    HW261092   3.252  16.638   0.545
 4085SOL     OW61093   1.672  14.306   7.359
 4085SOL    HW161094   1.703  14.268   7.271
 4085SOL    HW261095   1.734  14.379   7.387
 4086SOL     OW61096   0.357   7.985   8.088
 4086SOL    HW161097   0.289   7.913   8.099
 4086SOL    HW261098   0.435   7.967   8.148
 4087SOL     OW61099   2.245   4.861   8.156
 4087SOL    HW161100   2.267   4.956   8.133
 4087SOL    HW261101   2.314   4.825   8.219
 4088SOL     OW61102  15.432   6.678   1.365
 4088SOL    HW161103  15.398   6.677   1.458
 4088SOL    HW261104  15.391   6.754   1.314
 4089SOL     OW61105   0.930  12.239   7.584
 4089SOL    HW161106   1.006  12.252   7.647
 4089SOL    HW261107   0.959  12.178   7.509
 4090SOL     OW61108   3.698   9.903   8.021
 4090SOL    HW161109   3.605   9.875   7.996
 4090SOL    HW261110   3.764   9.848   7.970
 4091SOL     OW61111   0.649  15.003   2.069
 4091SOL    HW161112   0.657  15.042   1.977
 4091SOL    HW261113   0.740  14.978   2.102
 4092SOL     OW61114  13.161   5.132   1.802
 4092SOL    HW161115  13.249   5.164   1.837
 4092SOL    HW261116  13.091   5.140   1.873
 4093SOL     OW61117   0.287  12.209   1.629
 4093SOL    HW161118   0.352  12.242   1.562
 4093SOL    HW261119   0.198  12.194   1.585
 4094SOL     OW61120  11.533   7.946   0.066
 4094SOL    HW161121  11.464   8.003   0.110
 4094SOL    HW261122  11.502   7.922   8.428
 4095SOL     OW61123   9.465   6.571   6.980
 4095SOL    HW161124   9.493   6.591   7.074
 4095SOL    HW261125   9.545   6.543   6.926
 4096SOL     OW61126  10.819  13.442   0.620
 4096SOL    HW161127  10.749  13.429   0.549
 4096SOL    HW261128  10.779  13.422   0.709
 4097SOL     OW61129   0.268   5.633   7.835
 4097SOL    HW161130   0.193   5.568   7.828
 4097SOL    HW261131   0.326   5.610   7.913
 4098SOL     OW61132   8.146   1.233   0.456
 4098SOL    HW161133   8.128   1.266   0.548
 4098SOL    HW261134   8.198   1.148   0.460
 4099SOL     OW61135  14.878   7.713   7.841
 4099SOL    HW161136  14.895   7.702   7.743
 4099SOL    HW261137  14.892   7.625   7.887
 4100SOL     OW61138  11.109   5.459   0.491
 4100SOL    HW161139  11.087   5.438   0.395
 4100SOL    HW261140  11.164   5.385   0.529
 4101SOL     OW61141   8.465   2.831   8.229
 4101SOL    HW161142   8.406   2.829   8.309
 4101SOL    HW261143   8.464   2.922   8.188
 4102SOL     OW61144  15.894   7.449   0.355
 4102SOL    HW161145  15.884   7.355   0.322
 4102SOL    HW261146  15.862   7.512   0.284
 4103SOL     OW61147   5.517   6.307   7.783
 4103SOL    HW161148   5.529   6.331   7.686
 4103SOL    HW261149   5.461   6.225   7.790
 4104SOL     OW61150   5.248   1.473   8.395
 4104SOL    HW161151   5.189   1.415   8.451
 4104SOL    HW261152   5.281   1.550   8.450
 4105SOL     OW61153   1.053   8.773   0.691
 4105SOL    HW161154   1.141   8.752   0.648
 4105SOL    HW261155   1.061   8.767   0.790
 4106SOL     OW61156  12.367   3.006   6.807
 4106SOL    HW161157  12.386   2.909   6.793
 4106SOL    HW261158  12.347   3.022   6.904
 4107SOL     OW61159   4.096   2.589   1.120
 4107SOL    HW161160   4.095   2.688   1.111
 4107SOL    HW261161   4.184   2.559   1.158
 4108SOL     OW61162   1.812   3.926   7.802
 4108SOL    HW161163   1.811   3.884   7.712
 4108SOL    HW261164   1.845   3.860   7.870
 4109SOL     OW61165   2.267  15.757   0.690
 4109SOL    HW161166   2.226  15.840   0.728
 4109SOL    HW261167   2.296  15.697   0.764
 4110SOL     OW61168   6.491   7.201   1.889
 4110SOL    HW161169   6.542   7.217   1.804
 4110SOL    HW261170   6.393   7.194   1.868
 4111SOL     OW61171   2.322  15.611   0.462
 4111SOL    HW161172   2.259  15.533   0.457
 4111SOL    HW261173   2.297  15.669   0.539
 4112SOL     OW61174  10.010   4.797   5.929
 4112SOL    HW161175  10.027   4.704   5.961
 4112SOL    HW261176  10.082   4.824   5.864
 4113SOL     OW61177   5.882   6.068   0.197
 4113SOL    HW161178   5.900   6.126   0.277
 4113SOL    HW261179   5.788   6.080   0.168
 4114SOL     OW61180  12.291   9.268   1.611
 4114SOL    HW161181  12.344   9.268   1.697
 4114SOL    HW261182  12.272   9.174   1.584
 4115SOL     OW61183   9.156  15.563   2.250
 4115SOL    HW161184   9.227  15.494   2.263
 4115SOL    HW261185   9.073  15.534   2.297
 4116SOL     OW61186  13.307  16.751   0.674
 4116SOL    HW161187  13.240  16.677   0.671
 4116SOL    HW261188  13.264  16.836   0.644
 4117SOL     OW61189   2.332  13.057   0.172
 4117SOL    HW161190   2.347  13.041   0.269
 4117SOL    HW261191   2.295  13.149   0.159
 4118SOL     OW61192   8.910   0.645   8.436
 4118SOL    HW161193   8.860   0.728   8.412
 4118SOL    HW261194   8.990   0.669   0.037
 4119SOL     OW61195   0.193   2.211   0.999
 4119SOL    HW161196   0.126   2.284   1.011
 4119SOL    HW261197   0.276   2.233   1.051
 4120SOL     OW61198  12.288   7.601   7.378
 4120SOL    HW161199  12.193   7.632   7.372
 4120SOL    HW261200  12.292   7.512   7.423
 4121SOL     OW61201  13.814   5.522   6.132
 4121SOL    HW161202  13.907   5.538   6.163
 4121SOL    HW261203  13.777   5.605   6.092
 4122SOL     OW61204  16.374  15.492   0.022
 4122SOL    HW161205  16.301  15.548   0.060
 4122SOL    HW261206  16.463  15.531   0.047
 4123SOL     OW61207   8.696   0.619   0.346
 4123SOL    HW161208   8.677   0.531   0.390
 4123SOL    HW261209   8.752   0.675   0.408
 4124SOL     OW61210   8.574  16.059   7.282
 4124SOL    HW161211   8.608  15.995   7.351
 4124SOL    HW261212   8.492  16.106   7.317
 4125SOL     OW61213   0.884  15.127   8.167
 4125SOL    HW161214   0.916  15.136   8.073
 4125SOL    HW261215   0.792  15.087   8.168
 4126SOL     OW61216   8.336   7.019   8.195
 4126SOL    HW161217   8.341   7.042   8.292
 4126SOL    HW261218   8.249   6.973   8.177
 4127SOL     OW61219   7.817  15.742   1.861
 4127SOL    HW161220   7.789  15.824   1.912
 4127SOL    HW261221   7.747  15.672   1.870
 4128SOL     OW61222   9.094   5.159   2.076
 4128SOL    HW161223   9.154   5.089   2.115
 4128SOL    HW261224   9.061   5.219   2.149
 4129SOL     OW61225  12.010   2.531   0.390
 4129SOL    HW161226  12.020   2.451   0.330
 4129SOL    HW261227  12.027   2.504   0.485
 4130SOL     OW61228   7.633   7.936   1.230
 4130SOL    HW161229   7.710   7.966   1.173
 4130SOL    HW261230   7.667   7.881   1.306
 4131SOL     OW61231   2.513   7.061   7.800
 4131SOL    HW161232   2.499   7.011   7.715
 4131SOL    HW261233   2.425   7.090   7.837
 4132SOL     OW61234  13.762   5.743   6.453
 4132SOL    HW161235  13.783   5.799   6.373
 4132SOL    HW261236  13.834   5.674   6.464
 4133SOL     OW61237   5.187   6.749   1.373
 4133SOL    HW161238   5.110   6.811   1.356
 4133SOL    HW261239   5.159   6.678   1.438
 4134SOL     OW61240   2.865  16.819   6.843
 4134SOL    HW161241   2.876  16.885   6.770
 4134SOL    HW261242   2.951  16.771   6.859
 4135SOL     OW61243   7.834   0.084   6.234
 4135SOL    HW161244   7.892   0.026   6.177
 4135SOL    HW261245   7.818   0.039   6.322
 4136SOL     OW61246   8.517   2.494   1.472
 4136SOL    HW161247   8.446   2.455   1.532
 4136SOL    HW261248   8.598   2.515   1.526
 4137SOL     OW61249   3.603   3.428   0.506
 4137SOL    HW161250   3.578   3.414   0.410
 4137SOL    HW261251   3.700   3.455   0.511
 4138SOL     OW61252   9.781   7.866   0.449
 4138SOL    HW161253   9.733   7.943   0.489
 4138SOL    HW261254   9.879   7.884   0.448
 4139SOL     OW61255   8.351   4.066   6.080
 4139SOL    HW161256   8.274   4.015   6.120
 4139SOL    HW261257   8.317   4.151   6.040
 4140SOL     OW61258   7.370  11.216   1.346
 4140SOL    HW161259   7.327  11.276   1.278
 4140SOL    HW261260   7.386  11.126   1.306
 4141SOL     OW61261  14.865   7.924   7.453
 4141SOL    HW161262  14.844   8.010   7.500
 4141SOL    HW261263  14.814   7.921   7.367
 4142SOL     OW61264  15.017  11.009   0.642
 4142SOL    HW161265  15.034  11.027   0.545
 4142SOL    HW261266  14.981  11.091   0.686
 4143SOL     OW61267   3.788   5.803   7.233
 4143SOL    HW161268   3.850   5.725   7.221
 4143SOL    HW261269   3.694   5.775   7.217
 4144SOL     OW61270  14.191  13.355   1.512
 4144SOL    HW161271  14.267  13.371   1.576
 4144SOL    HW261272  14.107  13.337   1.564
 4145SOL     OW61273   6.828  15.715   1.378
 4145SOL    HW161274   6.829  15.785   1.306
 4145SOL    HW261275   6.912  15.661   1.372
 4146SOL     OW61276  12.776   5.973   1.576
 4146SOL    HW161277  12.709   6.046   1.561
 4146SOL    HW261278  12.799   5.968   1.673
 4147SOL     OW61279   7.206  15.207   6.737
 4147SOL    HW161280   7.265  15.179   6.662
 4147SOL    HW261281   7.260  15.261   6.803
 4148SOL     OW61282  15.166   8.760   1.309
 4148SOL    HW161283  15.079   8.778   1.355
 4148SOL    HW261284  15.236   8.739   1.378
 4149SOL     OW61285   3.307   3.668   0.819
 4149SOL    HW161286   3.356   3.677   0.732
 4149SOL    HW261287   3.235   3.599   0.810
 4150SOL     OW61288   8.622   5.242   7.249
 4150SOL    HW161289   8.530   5.227   7.212
 4150SOL    HW261290   8.650   5.162   7.302
 4151SOL     OW61291  11.781  14.861   7.679
 4151SOL    HW161292  11.695  14.896   7.642
 4151SOL    HW261293  11.856  14.889   7.619
 4152SOL     OW61294  12.609  15.547   1.143
 4152SOL    HW161295  12.531  15.603   1.115
 4152SOL    HW261296  12.592  15.508   1.233
 4153SOL     OW61297  15.895   4.410   1.034
 4153SOL    HW161298  15.841   4.344   0.981
 4153SOL    HW261299  15.990   4.409   1.001
 4154SOL     OW61300  10.194   4.453   6.756
 4154SOL    HW161301  10.236   4.431   6.844
 4154SOL    HW261302  10.165   4.549   6.756
 4155SOL     OW61303   7.954   8.243   7.670
 4155SOL    HW161304   7.942   8.341   7.656
 4155SOL    HW261305   8.036   8.226   7.724
 4156SOL     OW61306  13.174   6.825   1.740
 4156SOL    HW161307  13.112   6.845   1.664
 4156SOL    HW261308  13.242   6.758   1.710
 4157SOL     OW61309  13.706  13.995   8.290
 4157SOL    HW161310  13.742  14.075   8.243
 4157SOL    HW261311  13.622  14.019   8.338
 4158SOL     OW61312   9.151   8.797   1.152
 4158SOL    HW161313   9.199   8.878   1.184
 4158SOL    HW261314   9.058   8.822   1.124
 4159SOL     OW61315  15.803  14.018   1.688
 4159SOL    HW161316  15.767  13.944   1.745
 4159SOL    HW261317  15.798  14.104   1.738
 4160SOL     OW61318   8.966  16.209   0.785
 4160SOL    HW161319   8.901  16.168   0.848
 4160SOL    HW261320   8.996  16.140   0.719
 4161SOL     OW61321  14.129   6.000   7.038
 4161SOL    HW161322  14.089   5.963   6.955
 4161SOL    HW261323  14.163   5.926   7.095
 4162SOL     OW61324   4.380  15.773   0.066
 4162SOL    HW161325   4.361  15.869   0.046
 4162SOL    HW261326   4.418  15.765   0.158
 4163SOL     OW61327   7.441   6.766   8.026
 4163SOL    HW161328   7.382   6.831   7.979
 4163SOL    HW261329   7.510   6.731   7.961
 4164SOL     OW61330  11.028  14.249   0.117
 4164SOL    HW161331  11.050  14.185   0.043
 4164SOL    HW261332  11.067  14.339   0.096
 4165SOL     OW61333   8.415  15.889   1.485
 4165SOL    HW161334   8.355  15.940   1.424
 4165SOL    HW261335   8.480  15.951   1.528
 4166SOL     OW61336   8.902   0.462   8.238
 4166SOL    HW161337   8.806   0.439   8.223
 4166SOL    HW261338   8.909   0.535   8.306
 4167SOL     OW61339   2.458  12.215   2.284
 4167SOL    HW161340   2.463  12.142   2.216
 4167SOL    HW261341   2.452  12.176   2.376
 4168SOL     OW61342  12.846  14.932   0.403
 4168SOL    HW161343  12.828  14.897   0.494
 4168SOL    HW261344  12.931  14.986   0.404
 4169SOL     OW61345  14.377   2.235   0.623
 4169SOL    HW161346  14.427   2.171   0.681
 4169SOL    HW261347  14.337   2.307   0.679
 4170SOL     OW61348   3.599   2.575   7.648
 4170SOL    HW161349   3.637   2.633   7.576
 4170SOL    HW261350   3.499   2.582   7.648
 4171SOL     OW61351   4.029   6.109   6.766
 4171SOL    HW161352   4.031   6.169   6.846
 4171SOL    HW261353   4.001   6.017   6.794
 4172SOL     OW61354  12.919  14.897   8.194
 4172SOL    HW161355  13.018  14.904   8.205
 4172SOL    HW261356  12.874  14.951   8.265
 4173SOL     OW61357  15.180  12.143   1.547
 4173SOL    HW161358  15.259  12.081   1.549
 4173SOL    HW261359  15.124  12.129   1.628
 4174SOL     OW61360  14.514   7.973   7.422
 4174SOL    HW161361  14.515   7.962   7.521
 4174SOL    HW261362  14.443   8.039   7.396
 4175SOL     OW61363   7.526   2.260   7.440
 4175SOL    HW161364   7.518   2.181   7.379
 4175SOL    HW261365   7.623   2.275   7.463
 4176SOL     OW61366  16.036   4.766   1.330
 4176SOL    HW161367  16.012   4.751   1.426
 4176SOL    HW261368  16.125   4.811   1.324
 4177SOL     OW61369   0.695  14.770   0.368
 4177SOL    HW161370   0.643  14.685   0.367
 4177SOL    HW261371   0.721  14.795   0.275
 4178SOL     OW61372  16.940  10.602   6.814
 4178SOL    HW161373  16.895  10.653   6.740
 4178SOL    HW261374   0.048  10.574   6.784
 4179SOL     OW61375  14.142  16.819   8.290
 4179SOL    HW161376  14.122  16.811   8.387
 4179SOL    HW261377  14.060  16.850   8.241
 4180SOL     OW61378   2.872  13.659   2.654
 4180SOL    HW161379   2.955  13.620   2.696
 4180SOL    HW261380   2.802  13.588   2.648
 4181SOL     OW61381   3.677   3.213   7.763
 4181SOL    HW161382   3.672   3.298   7.711
 4181SOL    HW261383   3.747   3.153   7.723
 4182SOL     OW61384   5.029   9.935   0.253
 4182SOL    HW161385   5.042   9.905   0.347
 4182SOL    HW261386   4.963   9.876   0.208
 4183SOL     OW61387   3.871  10.233   1.226
 4183SOL    HW161388   3.834  10.165   1.162
 4183SOL    HW261389   3.934  10.293   1.177
 4184SOL     OW61390   6.759   8.914   0.887
 4184SOL    HW161391   6.846   8.935   0.932
 4184SOL    HW261392   6.775   8.893   0.790
 4185SOL     OW61393  12.989   3.106   1.921
 4185SOL    HW161394  12.890   3.118   1.914
 4185SOL    HW261395  13.020   3.135   2.012
 4186SOL     OW61396  10.706  12.732   1.479
 4186SOL    HW161397  10.713  12.789   1.561
 4186SOL    HW261398  10.651  12.778   1.410
 4187SOL     OW61399  16.165  14.886   8.034
 4187SOL    HW161400  16.109  14.872   8.115
 4187SOL    HW261401  16.242  14.821   8.035
 4188SOL     OW61402   6.252   3.640   8.298
 4188SOL    HW161403   6.185   3.602   8.235
 4188SOL    HW261404   6.215   3.722   8.341
 4189SOL     OW61405   4.991  16.057   1.221
 4189SOL    HW161406   4.949  16.145   1.239
 4189SOL    HW261407   4.939  15.985   1.267
 4190SOL     OW61408   0.671   6.652   1.224
 4190SOL    HW161409   0.717   6.597   1.154
 4190SOL    HW261410   0.733   6.665   1.302
 4191SOL     OW61411  16.379   7.628   0.051
 4191SOL    HW161412  16.441   7.706   0.063
 4191SOL    HW261413  16.404   7.578   8.423
 4192SOL     OW61414  16.923   4.429   7.988
 4192SOL    HW161415   0.029   4.426   8.033
 4192SOL    HW261416  16.936   4.440   7.889
 4193SOL     OW61417  10.423   0.094   7.114
 4193SOL    HW161418  10.419   0.158   7.038
 4193SOL    HW261419  10.438   0.001   7.080
 4194SOL     OW61420   6.735  13.316   8.446
 4194SOL    HW161421   6.761  13.233   0.041
 4194SOL    HW261422   6.749  13.304   8.348
 4195SOL     OW61423   4.781   6.444   6.552
 4195SOL    HW161424   4.786   6.483   6.460
 4195SOL    HW261425   4.871   6.447   6.595
 4196SOL     OW61426  12.912   1.308   6.656
 4196SOL    HW161427  12.991   1.368   6.668
 4196SOL    HW261428  12.915   1.235   6.723
 4197SOL     OW61429  16.109  14.681   6.324
 4197SOL    HW161430  16.201  14.669   6.286
 4197SOL    HW261431  16.050  14.607   6.293
 4198SOL     OW61432  16.560  15.222   7.286
 4198SOL    HW161433  16.643  15.233   7.231
 4198SOL    HW261434  16.525  15.129   7.277
 4199SOL     OW61435  14.697   8.429   7.617
 4199SOL    HW161436  14.659   8.522   7.609
 4199SOL    HW261437  14.746   8.421   7.704
 4200SOL     OW61438  10.863   6.729   2.002
 4200SOL    HW161439  10.935   6.739   2.072
 4200SOL    HW261440  10.871   6.804   1.936
 4201SOL     OW61441   2.892  15.850   2.139
 4201SOL    HW161442   2.812  15.849   2.198
 4201SOL    HW261443   2.971  15.886   2.189
 4202SOL     OW61444   2.850   7.055   1.348
 4202SOL    HW161445   2.765   7.006   1.367
 4202SOL    HW261446   2.922   7.023   1.410
 4203SOL     OW61447   6.226   2.326   1.173
 4203SOL    HW161448   6.193   2.233   1.156
 4203SOL    HW261449   6.215   2.347   1.270
 4204SOL     OW61450   5.511   8.292   7.594
 4204SOL    HW161451   5.521   8.339   7.506
 4204SOL    HW261452   5.525   8.194   7.582
 4205SOL     OW61453   7.991   8.216   7.009
 4205SOL    HW161454   8.036   8.161   7.079
 4205SOL    HW261455   7.960   8.156   6.935
 4206SOL     OW61456   5.719   3.651   8.428
 4206SOL    HW161457   5.742   3.710   8.350
 4206SOL    HW261458   5.671   3.570   8.394
 4207SOL     OW61459   3.907   0.634   0.346
 4207SOL    HW161460   3.979   0.566   0.357
 4207SOL    HW261461   3.886   0.674   0.435
 4208SOL     OW61462   4.642  15.993   6.812
 4208SOL    HW161463   4.671  15.897   6.807
 4208SOL    HW261464   4.550  16.002   6.773
 4209SOL     OW61465   6.859  13.853   1.800
 4209SOL    HW161466   6.952  13.845   1.836
 4209SOL    HW261467   6.801  13.782   1.840
 4210SOL     OW61468   3.000   2.486   1.274
 4210SOL    HW161469   2.967   2.443   1.190
 4210SOL    HW261470   3.004   2.585   1.261
 4211SOL     OW61471  11.109   4.173   7.784
 4211SOL    HW161472  11.021   4.129   7.766
 4211SOL    HW261473  11.099   4.238   7.860
 4212SOL     OW61474  15.223  14.628   0.204
 4212SOL    HW161475  15.284  14.550   0.214
 4212SOL    HW261476  15.140  14.612   0.258
 4213SOL     OW61477  13.598   1.482   0.917
 4213SOL    HW161478  13.622   1.480   1.014
 4213SOL    HW261479  13.526   1.414   0.900
 4214SOL     OW61480   0.450   3.702   1.292
 4214SOL    HW161481   0.394   3.620   1.300
 4214SOL    HW261482   0.447   3.753   1.378
 4215SOL     OW61483  15.081   2.045   0.034
 4215SOL    HW161484  15.158   1.990   0.000
 4215SOL    HW261485  15.080   2.133   8.442
 4216SOL     OW61486   5.727  13.799   2.128
 4216SOL    HW161487   5.779  13.769   2.208
 4216SOL    HW261488   5.631  13.775   2.140
 4217SOL     OW61489   9.927  15.247   7.186
 4217SOL    HW161490   9.832  15.257   7.217
 4217SOL    HW261491   9.942  15.152   7.157
 4218SOL     OW61492   9.347  15.460   8.304
 4218SOL    HW161493   9.359  15.516   8.387
 4218SOL    HW261494   9.437  15.426   8.275
 4219SOL     OW61495   5.433  13.637   2.837
 4219SOL    HW161496   5.334  13.624   2.837
 4219SOL    HW261497   5.478  13.554   2.803
 4220SOL     OW61498   8.993   3.690   6.165
 4220SOL    HW161499   8.907   3.720   6.125
 4220SOL    HW261500   9.055   3.768   6.175
 4221SOL     OW61501   2.337   6.796   0.730
 4221SOL    HW161502   2.355   6.881   0.780
 4221SOL    HW261503   2.386   6.798   0.642
 4222SOL     OW61504  11.830   2.256   0.928
 4222SOL    HW161505  11.810   2.259   0.830
 4222SOL    HW261506  11.924   2.225   0.942
 4223SOL     OW61507   1.410   5.042   0.622
 4223SOL    HW161508   1.506   5.069   0.610
 4223SOL    HW261509   1.375   5.079   0.708
 4224SOL     OW61510   5.539  16.747   7.965
 4224SOL    HW161511   5.622  16.710   8.006
 4224SOL    HW261512   5.464  16.743   8.031
 4225SOL     OW61513  12.117  12.257   1.743
 4225SOL    HW161514  12.163  12.188   1.686
 4225SOL    HW261515  12.141  12.242   1.839
 4226SOL     OW61516  16.100   2.869   7.425
 4226SOL    HW161517  16.176   2.929   7.400
 4226SOL    HW261518  16.111   2.781   7.378
 4227SOL     OW61519   6.605  15.752   7.921
 4227SOL    HW161520   6.514  15.764   7.961
 4227SOL    HW261521   6.624  15.654   7.911
 4228SOL     OW61522   3.769   4.946   8.300
 4228SOL    HW161523   3.763   5.018   8.232
 4228SOL    HW261524   3.861   4.907   8.299
 4229SOL     OW61525   1.094   0.782   7.301
 4229SOL    HW161526   1.161   0.844   7.261
 4229SOL    HW261527   1.078   0.807   7.396
 4230SOL     OW61528   5.753  10.661   6.661
 4230SOL    HW161529   5.719  10.604   6.586
 4230SOL    HW261530   5.849  10.640   6.680
 4231SOL     OW61531  13.618   0.051   8.189
 4231SOL    HW161532  13.635   0.147   8.207
 4231SOL    HW261533  13.705   0.000   8.193
 4232SOL     OW61534   7.818  11.770   7.468
 4232SOL    HW161535   7.856  11.707   7.536
 4232SOL    HW261536   7.818  11.863   7.505
 4233SOL     OW61537   6.318   2.043   6.458
 4233SOL    HW161538   6.269   2.026   6.372
 4233SOL    HW261539   6.259   2.092   6.522
 4234SOL     OW61540  10.671   0.769   8.257
 4234SOL    HW161541  10.579   0.749   8.290
 4234SOL    HW261542  10.668   0.791   8.159
 4235SOL     OW61543   3.725  12.088   0.157
 4235SOL    HW161544   3.714  11.999   0.199
 4235SOL    HW261545   3.680  12.089   0.067
 4236SOL     OW61546   1.410   2.558   0.205
 4236SOL    HW161547   1.450   2.642   0.243
 4236SOL    HW261548   1.481   2.488   0.199
 4237SOL     OW61549  15.120  13.618   7.584
 4237SOL    HW161550  15.212  13.582   7.571
 4237SOL    HW261551  15.114  13.664   7.672
 4238SOL     OW61552  12.188   0.870   0.620
 4238SOL    HW161553  12.167   0.904   0.529
 4238SOL    HW261554  12.219   0.775   0.613
 4239SOL     OW61555   8.162   0.214   0.481
 4239SOL    HW161556   8.232   0.189   0.414
 4239SOL    HW261557   8.159   0.313   0.492
 4240SOL     OW61558  12.680  13.303   8.292
 4240SOL    HW161559  12.723  13.251   8.367
 4240SOL    HW261560  12.739  13.300   8.211
 4241SOL     OW61561   4.448  11.549   7.417
 4241SOL    HW161562   4.535  11.532   7.372
 4241SOL    HW261563   4.456  11.527   7.515
 4242SOL     OW61564  11.558  12.702   1.648
 4242SOL    HW161565  11.621  12.759   1.701
 4242SOL    HW261566  11.470  12.698   1.695
 4243SOL     OW61567  12.816  13.062   1.023
 4243SOL    HW161568  12.787  13.054   0.928
 4243SOL    HW261569  12.890  12.996   1.041
 4244SOL     OW61570   9.954  15.039   0.309
 4244SOL    HW161571   9.989  14.959   0.259
 4244SOL    HW261572   9.994  15.040   0.401
 4245SOL     OW61573   9.202   3.911   8.156
 4245SOL    HW161574   9.142   3.880   8.082
 4245SOL    HW261575   9.274   3.969   8.118
 4246SOL     OW61576  15.081  11.316   1.753
 4246SOL    HW161577  15.136  11.342   1.832
 4246SOL    HW261578  15.138  11.315   1.671
 4247SOL     OW61579  11.110  13.896   1.333
 4247SOL    HW161580  11.106  13.824   1.265
 4247SOL    HW261581  11.203  13.902   1.370
 4248SOL     OW61582  10.414   2.560   6.100
 4248SOL    HW161583  10.384   2.562   6.196
 4248SOL    HW261584  10.461   2.474   6.081
 4249SOL     OW61585   9.594  14.148   7.738
 4249SOL    HW161586   9.512  14.186   7.695
 4249SOL    HW261587   9.611  14.195   7.825
 4250SOL     OW61588   1.791  10.440   6.809
 4250SOL    HW161589   1.714  10.378   6.789
 4250SOL    HW261590   1.877  10.389   6.806
 4251SOL     OW61591  10.949   9.718   6.344
 4251SOL    HW161592  11.013   9.681   6.277
 4251SOL    HW261593  10.923   9.811   6.317
 4252SOL     OW61594   3.567  14.729   0.056
 4252SOL    HW161595   3.581  14.687   8.420
 4252SOL    HW261596   3.519  14.816   0.045
 4253SOL     OW61597   6.515  10.295   7.180
 4253SOL    HW161598   6.614  10.286   7.191
 4253SOL    HW261599   6.482  10.228   7.114
 4254SOL     OW61600   6.450  10.007   8.268
 4254SOL    HW161601   6.485   9.961   8.350
 4254SOL    HW261602   6.352  10.024   8.278
 4255SOL     OW61603   1.858  11.745   7.221
 4255SOL    HW161604   1.927  11.811   7.190
 4255SOL    HW261605   1.783  11.793   7.267
 4256SOL     OW61606   1.383   3.476   0.205
 4256SOL    HW161607   1.359   3.378   0.207
 4256SOL    HW261608   1.431   3.496   0.119
 4257SOL     OW61609  13.044  13.834   0.351
 4257SOL    HW161610  12.956  13.805   0.390
 4257SOL    HW261611  13.118  13.814   0.415
 4258SOL     OW61612   1.506   9.727   0.275
 4258SOL    HW161613   1.427   9.738   0.215
 4258SOL    HW261614   1.562   9.810   0.273
 4259SOL     OW61615   5.135   3.700   7.620
 4259SOL    HW161616   5.049   3.686   7.570
 4259SOL    HW261617   5.157   3.798   7.624
 4260SOL     OW61618  14.094   8.051   1.597
 4260SOL    HW161619  14.137   7.961   1.587
 4260SOL    HW261620  13.995   8.041   1.586
 4261SOL     OW61621  16.602  10.255   1.180
 4261SOL    HW161622  16.616  10.354   1.188
 4261SOL    HW261623  16.506  10.233   1.200
 4262SOL     OW61624  12.672   0.844   0.735
 4262SOL    HW161625  12.667   0.939   0.703
 4262SOL    HW261626  12.597   0.826   0.798
 4263SOL     OW61627   6.101  11.101   7.595
 4263SOL    HW161628   6.055  11.188   7.577
 4263SOL    HW261629   6.069  11.032   7.531
 4264SOL     OW61630  12.516  11.130   0.212
 4264SOL    HW161631  12.583  11.204   0.206
 4264SOL    HW261632  12.502  11.104   0.308
 4265SOL     OW61633   4.022   7.560   0.112
 4265SOL    HW161634   4.063   7.468   0.108
 4265SOL    HW261635   3.950   7.561   0.181
 4266SOL     OW61636  11.010  13.378   1.832
 4266SOL    HW161637  11.022  13.284   1.865
 4266SOL    HW261638  11.077  13.396   1.759
 4267SOL     OW61639  10.806   9.828   6.027
 4267SOL    HW161640  10.785   9.737   5.991
 4267SOL    HW261641  10.868   9.876   5.965
 4268SOL     OW61642   1.426  16.970   6.344
 4268SOL    HW161643   1.448  16.877   6.316
 4268SOL    HW261644   1.491   0.050   6.302
 4269SOL     OW61645  10.234   4.645   0.135
 4269SOL    HW161646  10.205   4.612   0.225
 4269SOL    HW261647  10.168   4.615   0.066
 4270SOL     OW61648   0.438  10.442   1.899
 4270SOL    HW161649   0.409  10.369   1.962
 4270SOL    HW261650   0.537  10.443   1.893
 4271SOL     OW61651   3.656   6.942   1.680
 4271SOL    HW161652   3.618   6.943   1.772
 4271SOL    HW261653   3.585   6.965   1.613
 4272SOL     OW61654   9.657  14.112   2.114
 4272SOL    HW161655   9.686  14.087   2.206
 4272SOL    HW261656   9.563  14.081   2.098
 4273SOL     OW61657   8.380  10.146   1.348
 4273SOL    HW161658   8.383  10.104   1.257
 4273SOL    HW261659   8.463  10.201   1.362
 4274SOL     OW61660   6.944  12.082   1.504
 4274SOL    HW161661   7.042  12.070   1.520
 4274SOL    HW261662   6.908  12.150   1.568
 4275SOL     OW61663   3.663   2.181   0.322
 4275SOL    HW161664   3.602   2.259   0.312
 4275SOL    HW261665   3.670   2.133   0.234
 4276SOL     OW61666  10.772  13.475   0.298
 4276SOL    HW161667  10.851  13.522   0.337
 4276SOL    HW261668  10.744  13.522   0.214
 4277SOL     OW61669  14.742   1.107   1.259
 4277SOL    HW161670  14.742   1.203   1.287
 4277SOL    HW261671  14.664   1.090   1.200
 4278SOL     OW61672   3.849   6.994   0.111
 4278SOL    HW161673   3.775   6.931   0.086
 4278SOL    HW261674   3.936   6.944   0.114
 4279SOL     OW61675   1.765  14.347   2.095
 4279SOL    HW161676   1.855  14.318   2.061
 4279SOL    HW261677   1.750  14.310   2.186
 4280SOL     OW61678   6.509   5.693   1.082
 4280SOL    HW161679   6.563   5.658   1.158
 4280SOL    HW261680   6.501   5.792   1.091
 4281SOL     OW61681   0.078   0.692   8.339
 4281SOL    HW161682   0.155   0.724   8.285
 4281SOL    HW261683   0.107   0.679   8.434
 4282SOL     OW61684   1.207   7.578   7.659
 4282SOL    HW161685   1.110   7.578   7.683
 4282SOL    HW261686   1.261   7.545   7.736
 4283SOL     OW61687   6.981  10.594   0.686
 4283SOL    HW161688   6.979  10.540   0.603
 4283SOL    HW261689   6.887  10.614   0.716
 4284SOL     OW61690  16.889  12.662   2.647
 4284SOL    HW161691  16.888  12.585   2.711
 4284SOL    HW261692  16.818  12.649   2.578
 4285SOL     OW61693  13.563   7.993   0.021
 4285SOL    HW161694  13.621   7.931   8.422
 4285SOL    HW261695  13.611   8.080   0.035
 4286SOL     OW61696  11.505  12.328   0.323
 4286SOL    HW161697  11.549  12.281   0.400
 4286SOL    HW261698  11.462  12.412   0.356
 4287SOL     OW61699   7.137  14.715   7.612
 4287SOL    HW161700   7.189  14.723   7.527
 4287SOL    HW261701   7.043  14.690   7.591
 4288SOL     OW61702  12.069   1.221   0.459
 4288SOL    HW161703  12.151   1.278   0.452
 4288SOL    HW261704  12.093   1.126   0.437
 4289SOL     OW61705   2.960  10.669   1.892
 4289SOL    HW161706   2.922  10.736   1.829
 4289SOL    HW261707   2.940  10.577   1.859
 4290SOL     OW61708  14.304  13.838   1.773
 4290SOL    HW161709  14.350  13.875   1.854
 4290SOL    HW261710  14.253  13.911   1.728
 4291SOL     OW61711  10.593   1.981   6.388
 4291SOL    HW161712  10.587   2.072   6.346
 4291SOL    HW261713  10.503   1.938   6.387
 4292SOL     OW61714   1.016  13.758   2.095
 4292SOL    HW161715   1.007  13.786   2.191
 4292SOL    HW261716   0.926  13.752   2.053
 4293SOL     OW61717  10.210  16.557   6.533
 4293SOL    HW161718  10.250  16.589   6.619
 4293SOL    HW261719  10.110  16.563   6.539
 4294SOL     OW61720  12.517   1.854   7.979
 4294SOL    HW161721  12.551   1.925   7.917
 4294SOL    HW261722  12.486   1.897   8.064
 4295SOL     OW61723  15.200   1.920   0.606
 4295SOL    HW161724  15.204   2.019   0.617
 4295SOL    HW261725  15.245   1.876   0.684
 4296SOL     OW61726  11.810   1.079   8.269
 4296SOL    HW161727  11.720   1.078   8.311
 4296SOL    HW261728  11.880   1.091   8.340
 4297SOL     OW61729   1.797   7.343   8.360
 4297SOL    HW161730   1.861   7.292   8.302
 4297SOL    HW261731   1.790   7.437   8.327
 4298SOL     OW61732  12.072   1.171   1.104
 4298SOL    HW161733  12.028   1.158   1.015
 4298SOL    HW261734  12.004   1.199   1.171
 4299SOL     OW61735  10.368   2.127   6.677
 4299SOL    HW161736  10.384   2.215   6.634
 4299SOL    HW261737  10.319   2.140   6.763
 4300SOL     OW61738   6.835   7.960   8.353
 4300SOL    HW161739   6.845   7.890   8.424
 4300SOL    HW261740   6.889   8.040   8.378
 4301SOL     OW61741   8.765  12.600   7.722
 4301SOL    HW161742   8.750  12.572   7.816
 4301SOL    HW261743   8.680  12.635   7.683
 4302SOL     OW61744   4.089   0.666   1.711
 4302SOL    HW161745   4.025   0.737   1.680
 4302SOL    HW261746   4.168   0.664   1.650
 4303SOL     OW61747   2.228   7.831   1.279
 4303SOL    HW161748   2.134   7.798   1.282
 4303SOL    HW261749   2.230   7.930   1.285
 4304SOL     OW61750  13.069   0.053   1.780
 4304SOL    HW161751  13.054  16.964   1.713
 4304SOL    HW261752  13.147   0.029   1.838
 4305SOL     OW61753   4.577  15.916   2.114
 4305SOL    HW161754   4.601  16.008   2.082
 4305SOL    HW261755   4.506  15.922   2.183
 4306SOL     OW61756   2.060   1.136   0.327
 4306SOL    HW161757   2.087   1.093   0.241
 4306SOL    HW261758   2.020   1.226   0.308
 4307SOL     OW61759  10.752   7.314   1.587
 4307SOL    HW161760  10.787   7.266   1.507
 4307SOL    HW261761  10.737   7.410   1.564
 4308SOL     OW61762   4.693   7.292   0.655
 4308SOL    HW161763   4.628   7.362   0.687
 4308SOL    HW261764   4.643   7.219   0.610
 4309SOL     OW61765  16.875  13.690   6.896
 4309SOL    HW161766  16.864  13.717   6.800
 4309SOL    HW261767  16.959  13.732   6.932
 4310SOL     OW61768   5.715   4.732   1.668
 4310SOL    HW161769   5.619   4.709   1.649
 4310SOL    HW261770   5.722   4.768   1.761
 4311SOL     OW61771   6.809   0.494   1.237
 4311SOL    HW161772   6.794   0.580   1.287
 4311SOL    HW261773   6.733   0.478   1.175
 4312SOL     OW61774   2.346   0.552   6.882
 4312SOL    HW161775   2.308   0.537   6.790
 4312SOL    HW261776   2.415   0.482   6.901
 4313SOL     OW61777   2.246  14.121   6.819
 4313SOL    HW161778   2.220  14.186   6.747
 4313SOL    HW261779   2.256  14.030   6.779
 4314SOL     OW61780  15.845   8.570   0.402
 4314SOL    HW161781  15.914   8.548   0.333
 4314SOL    HW261782  15.800   8.485   0.430
 4315SOL     OW61783  11.466   6.446   0.224
 4315SOL    HW161784  11.552   6.493   0.208
 4315SOL    HW261785  11.429   6.472   0.313
 4316SOL     OW61786   5.667   3.652   0.736
 4316SOL    HW161787   5.678   3.642   0.637
 4316SOL    HW261788   5.671   3.748   0.761
 4317SOL     OW61789  12.373  15.575   0.513
 4317SOL    HW161790  12.462  15.550   0.552
 4317SOL    HW261791  12.351  15.512   0.438
 4318SOL     OW61792  14.486  15.298   1.215
 4318SOL    HW161793  14.413  15.367   1.215
 4318SOL    HW261794  14.562  15.329   1.271
 4319SOL     OW61795   5.460  12.768   2.518
 4319SOL    HW161796   5.458  12.784   2.616
 4319SOL    HW261797   5.555  12.772   2.485
 4320SOL     OW61798  12.825  11.381   1.781
 4320SOL    HW161799  12.790  11.289   1.797
 4320SOL    HW261800  12.862  11.417   1.866
 4321SOL     OW61801   9.565  16.422   8.327
 4321SOL    HW161802   9.613  16.425   8.414
 4321SOL    HW261803   9.551  16.327   8.299
 4322SOL     OW61804  16.022  16.624   7.965
 4322SOL    HW161805  15.973  16.590   8.045
 4322SOL    HW261806  16.010  16.724   7.959
 4323SOL     OW61807  13.830   1.630   6.800
 4323SOL    HW161808  13.769   1.664   6.872
 4323SOL    HW261809  13.922   1.616   6.839
 4324SOL     OW61810   0.460   3.287   0.373
 4324SOL    HW161811   0.442   3.384   0.392
 4324SOL    HW261812   0.415   3.231   0.443
 4325SOL     OW61813  10.381   4.870   6.669
 4325SOL    HW161814  10.403   4.791   6.612
 4325SOL    HW261815  10.377   4.842   6.765
 4326SOL     OW61816   9.395  12.337   7.736
 4326SOL    HW161817   9.407  12.348   7.637
 4326SOL    HW261818   9.465  12.390   7.784
 4327SOL     OW61819  16.897  11.977   7.140
 4327SOL    HW161820  16.895  11.877   7.135
 4327SOL    HW261821  16.923  12.015   7.051
 4328SOL     OW61822   5.310  11.360   0.091
 4328SOL    HW161823   5.307  11.416   0.008
 4328SOL    HW261824   5.242  11.286   0.084
 4329SOL     OW61825   0.941   0.852   0.807
 4329SOL    HW161826   0.990   0.834   0.892
 4329SOL    HW261827   0.961   0.780   0.740
 4330SOL     OW61828   3.917  12.974   2.303
 4330SOL    HW161829   3.858  12.895   2.317
 4330SOL    HW261830   3.945  12.978   2.207
 4331SOL     OW61831  14.169   2.564   1.702
 4331SOL    HW161832  14.240   2.527   1.641
 4331SOL    HW261833  14.210   2.586   1.790
 4332SOL     OW61834  12.846  12.665   6.715
 4332SOL    HW161835  12.866  12.753   6.670
 4332SOL    HW261836  12.890  12.591   6.664
 4333SOL     OW61837   0.691  14.853   2.421
 4333SOL    HW161838   0.737  14.941   2.410
 4333SOL    HW261839   0.599  14.868   2.456
 4334SOL     OW61840   0.035   1.950   7.738
 4334SOL    HW161841   0.026   1.906   7.828
 4334SOL    HW261842   0.016   2.048   7.747
 4335SOL     OW61843  12.890   1.973   0.697
 4335SOL    HW161844  12.844   1.966   0.608
 4335SOL    HW261845  12.823   1.995   0.768
 4336SOL     OW61846   5.339  10.490   7.948
 4336SOL    HW161847   5.380  10.522   7.863
 4336SOL    HW261848   5.370  10.397   7.967
 4337SOL     OW61849   4.891  12.229   1.979
 4337SOL    HW161850   4.968  12.292   1.994
 4337SOL    HW261851   4.854  12.201   2.067
 4338SOL     OW61852  10.178   1.330   8.283
 4338SOL    HW161853  10.207   1.425   8.279
 4338SOL    HW261854  10.223   1.284   8.359
 4339SOL     OW61855  12.017   0.359   7.560
 4339SOL    HW161856  12.005   0.448   7.516
 4339SOL    HW261857  12.099   0.361   7.616
 4340SOL     OW61858  12.622  14.526   8.238
 4340SOL    HW161859  12.608  14.467   8.158
 4340SOL    HW261860  12.715  14.564   8.235
 4341SOL     OW61861  14.220   1.223   6.366
 4341SOL    HW161862  14.179   1.291   6.305
 4341SOL    HW261863  14.272   1.270   6.438
 4342SOL     OW61864   0.103   7.834   8.077
 4342SOL    HW161865   0.038   7.887   8.023
 4342SOL    HW261866   0.059   7.807   8.163
 4343SOL     OW61867   1.226   9.999   6.830
 4343SOL    HW161868   1.325   9.984   6.834
 4343SOL    HW261869   1.206  10.095   6.850
 4344SOL     OW61870   0.462  15.167   8.325
 4344SOL    HW161871   0.517  15.242   8.363
 4344SOL    HW261872   0.427  15.110   8.399
 4345SOL     OW61873  13.245   8.182   0.531
 4345SOL    HW161874  13.218   8.101   0.479
 4345SOL    HW261875  13.244   8.261   0.470
 4346SOL     OW61876   3.844  15.940   8.056
 4346SOL    HW161877   3.881  16.033   8.064
 4346SOL    HW261878   3.765  15.930   8.117
 4347SOL     OW61879  10.648   5.997   7.022
 4347SOL    HW161880  10.680   6.063   6.954
 4347SOL    HW261881  10.726   5.947   7.060
 4348SOL     OW61882  10.973  14.374   8.088
 4348SOL    HW161883  10.935  14.436   8.157
 4348SOL    HW261884  11.054  14.329   8.125
 4349SOL     OW61885  10.340  14.969   7.746
 4349SOL    HW161886  10.352  15.067   7.762
 4349SOL    HW261887  10.350  14.919   7.832
 4350SOL     OW61888  12.493   5.393   1.587
 4350SOL    HW161889  12.472   5.401   1.490
 4350SOL    HW261890  12.409   5.378   1.639
 4351SOL     OW61891  12.798   9.749   0.556
 4351SOL    HW161892  12.772   9.666   0.605
 4351SOL    HW261893  12.889   9.737   0.516
 4352SOL     OW61894   6.469  11.273   0.562
 4352SOL    HW161895   6.400  11.202   0.566
 4352SOL    HW261896   6.522  11.264   0.477
 4353SOL     OW61897   9.003   0.024   2.123
 4353SOL    HW161898   9.091   0.071   2.118
 4353SOL    HW261899   8.930   0.092   2.137
 4354SOL     OW61900   6.556  15.288   8.212
 4354SOL    HW161901   6.516  15.358   8.271
 4354SOL    HW261902   6.483  15.242   8.161
 4355SOL     OW61903  11.167  14.340   7.409
 4355SOL    HW161904  11.121  14.301   7.489
 4355SOL    HW261905  11.118  14.422   7.380
 4356SOL     OW61906   4.177   5.972   0.183
 4356SOL    HW161907   4.243   5.940   0.251
 4356SOL    HW261908   4.174   6.072   0.183
 4357SOL     OW61909   3.865   7.530   0.350
 4357SOL    HW161910   3.906   7.439   0.364
 4357SOL    HW261911   3.784   7.539   0.408
 4358SOL     OW61912   2.274   4.179   7.975
 4358SOL    HW161913   2.346   4.233   7.932
 4358SOL    HW261914   2.185   4.213   7.945
 4359SOL     OW61915   2.848  14.687   8.028
 4359SOL    HW161916   2.946  14.673   8.014
 4359SOL    HW261917   2.820  14.773   7.986
 4360SOL     OW61918   9.087  11.058   7.717
 4360SOL    HW161919   9.032  11.014   7.647
 4360SOL    HW261920   9.164  11.106   7.674
 4361SOL     OW61921  10.241   2.859   1.010
 4361SOL    HW161922  10.220   2.836   0.915
 4361SOL    HW261923  10.183   2.935   1.039
 4362SOL     OW61924   8.050  10.306   1.566
 4362SOL    HW161925   7.984  10.237   1.598
 4362SOL    HW261926   8.143  10.274   1.583
 4363SOL     OW61927   6.428   1.326   7.132
 4363SOL    HW161928   6.481   1.246   7.105
 4363SOL    HW261929   6.489   1.397   7.166
 4364SOL     OW61930  10.539   1.495   8.178
 4364SOL    HW161931  10.594   1.573   8.151
 4364SOL    HW261932  10.590   1.439   8.244
 4365SOL     OW61933  14.447  15.872   6.679
 4365SOL    HW161934  14.349  15.854   6.674
 4365SOL    HW261935  14.478  15.913   6.593
 4366SOL     OW61936  10.441   4.257   5.980
 4366SOL    HW161937  10.454   4.299   5.890
 4366SOL    HW261938  10.459   4.326   6.051
 4367SOL     OW61939  12.636   4.731   0.800
 4367SOL    HW161940  12.591   4.719   0.888
 4367SOL    HW261941  12.594   4.670   0.733
 4368SOL     OW61942  15.743   6.306   6.083
 4368SOL    HW161943  15.753   6.286   5.986
 4368SOL    HW261944  15.699   6.396   6.095
 4369SOL     OW61945  11.352  13.586   0.845
 4369SOL    HW161946  11.296  13.665   0.822
 4369SOL    HW261947  11.443  13.616   0.874
 4370SOL     OW61948  11.708  11.223   1.214
 4370SOL    HW161949  11.682  11.174   1.297
 4370SOL    HW261950  11.663  11.181   1.135
 4371SOL     OW61951   2.668   7.325   1.733
 4371SOL    HW161952   2.680   7.407   1.675
 4371SOL    HW261953   2.641   7.248   1.675
 4372SOL     OW61954  11.009   6.209   7.685
 4372SOL    HW161955  11.073   6.140   7.720
 4372SOL    HW261956  10.930   6.163   7.645
 4373SOL     OW61957   5.962   5.754   1.323
 4373SOL    HW161958   5.873   5.792   1.299
 4373SOL    HW261959   6.016   5.825   1.370
 4374SOL     OW61960  11.486   4.012   7.873
 4374SOL    HW161961  11.571   3.958   7.883
 4374SOL    HW261962  11.470   4.031   7.777
 4375SOL     OW61963   4.780   0.898   7.208
 4375SOL    HW161964   4.711   0.895   7.281
 4375SOL    HW261965   4.736   0.878   7.120
 4376SOL     OW61966  10.396  14.064   0.399
 4376SOL    HW161967  10.480  14.118   0.400
 4376SOL    HW261968  10.384  14.019   0.487
 4377SOL     OW61969  14.628  11.223   1.113
 4377SOL    HW161970  14.723  11.240   1.140
 4377SOL    HW261971  14.572  11.213   1.195
 4378SOL     OW61972  12.982   3.972   0.314
 4378SOL    HW161973  12.963   4.049   0.376
 4378SOL    HW261974  13.069   3.987   0.268
 4379SOL     OW61975   0.082   7.352   0.524
 4379SOL    HW161976   0.147   7.311   0.459
 4379SOL    HW261977   0.031   7.279   0.570
 4380SOL     OW61978   0.675   2.749   1.248
 4380SOL    HW161979   0.579   2.774   1.234
 4380SOL    HW261980   0.687   2.652   1.228
 4381SOL     OW61981  16.301   2.390   7.685
 4381SOL    HW161982  16.302   2.290   7.676
 4381SOL    HW261983  16.302   2.415   7.782
 4382SOL     OW61984  14.930   3.026   7.705
 4382SOL    HW161985  14.921   3.084   7.623
 4382SOL    HW261986  15.000   3.064   7.765
 4383SOL     OW61987  16.095   7.881   1.543
 4383SOL    HW161988  15.996   7.880   1.533
 4383SOL    HW261989  16.119   7.889   1.640
 4384SOL     OW61990   8.727  10.048   1.504
 4384SOL    HW161991   8.665   9.970   1.502
 4384SOL    HW261992   8.777  10.050   1.590
 4385SOL     OW61993  15.085  13.007   7.897
 4385SOL    HW161994  15.017  12.995   7.969
 4385SOL    HW261995  15.048  12.974   7.810
 4386SOL     OW61996  12.385  11.720   6.781
 4386SOL    HW161997  12.374  11.804   6.834
 4386SOL    HW261998  12.364  11.739   6.685
 4387SOL     OW61999  16.084   3.281   1.413
 4387SOL    HW162000  16.013   3.302   1.481
 4387SOL    HW262001  16.066   3.191   1.373
 4388SOL     OW62002   9.020   7.246   1.104
 4388SOL    HW162003   9.000   7.306   1.026
 4388SOL    HW262004   8.941   7.246   1.166
 4389SOL     OW62005  12.940  14.737   7.178
 4389SOL    HW162006  12.960  14.815   7.238
 4389SOL    HW262007  12.863  14.760   7.119
 4390SOL     OW62008  12.748  11.599   7.713
 4390SOL    HW162009  12.654  11.569   7.699
 4390SOL    HW262010  12.752  11.699   7.712
 4391SOL     OW62011  15.357   3.226   0.655
 4391SOL    HW162012  15.284   3.259   0.714
 4391SOL    HW262013  15.404   3.149   0.698
 4392SOL     OW62014   6.568  10.157   7.928
 4392SOL    HW162015   6.661  10.188   7.914
 4392SOL    HW262016   6.533  10.194   8.014
 4393SOL     OW62017   7.317   3.952   7.023
 4393SOL    HW162018   7.267   3.946   7.109
 4393SOL    HW262019   7.286   4.032   6.972
 4394SOL     OW62020   4.961   9.894   0.935
 4394SOL    HW162021   4.912   9.807   0.931
 4394SOL    HW262022   5.058   9.877   0.948
 4395SOL     OW62023  10.937  14.336   1.372
 4395SOL    HW162024  10.878  14.387   1.434
 4395SOL    HW262025  11.008  14.288   1.424
 4396SOL     OW62026  15.071   5.083   1.410
 4396SOL    HW162027  15.069   5.131   1.498
 4396SOL    HW262028  14.980   5.083   1.370
 4397SOL     OW62029   1.657   6.744   1.454
 4397SOL    HW162030   1.648   6.779   1.547
 4397SOL    HW262031   1.750   6.761   1.421
 4398SOL     OW62032   7.410   9.216   2.302
 4398SOL    HW162033   7.348   9.168   2.239
 4398SOL    HW262034   7.363   9.233   2.388
 4399SOL     OW62035  10.909   6.273   6.465
 4399SOL    HW162036  10.914   6.361   6.417
 4399SOL    HW262037  10.816   6.257   6.497
 4400SOL     OW62038  11.703   6.235   0.745
 4400SOL    HW162039  11.760   6.154   0.738
 4400SOL    HW262040  11.757   6.311   0.781
 4401SOL     OW62041   6.372  15.143   8.067
 4401SOL    HW162042   6.430  15.127   7.987
 4401SOL    HW262043   6.317  15.062   8.085
 4402SOL     OW62044   3.086  13.076   8.240
 4402SOL    HW162045   3.183  13.056   8.228
 4402SOL    HW262046   3.072  13.175   8.244
 4403SOL     OW62047  14.829  13.010   0.122
 4403SOL    HW162048  14.745  12.972   0.083
 4403SOL    HW262049  14.881  12.937   0.167
 4404SOL     OW62050  14.844   6.830   1.007
 4404SOL    HW162051  14.778   6.881   0.953
 4404SOL    HW262052  14.920   6.891   1.033
 4405SOL     OW62053   3.862   5.169   7.093
 4405SOL    HW162054   3.887   5.202   7.002
 4405SOL    HW262055   3.937   5.187   7.156
 4406SOL     OW62056  11.806   0.244   2.331
 4406SOL    HW162057  11.801   0.241   2.431
 4406SOL    HW262058  11.817   0.339   2.301
 4407SOL     OW62059  10.193  14.161   7.461
 4407SOL    HW162060  10.233  14.121   7.543
 4407SOL    HW262061  10.208  14.099   7.383
 4408SOL     OW62062   8.508   1.757   6.012
 4408SOL    HW162063   8.531   1.853   6.030
 4408SOL    HW262064   8.419   1.752   5.966
 4409SOL     OW62065  15.874  15.475   1.117
 4409SOL    HW162066  15.851  15.486   1.214
 4409SOL    HW262067  15.907  15.562   1.081
 4410SOL     OW62068  10.411   7.548   1.379
 4410SOL    HW162069  10.464   7.465   1.363
 4410SOL    HW262070  10.469   7.628   1.366
 4411SOL     OW62071   8.048  13.165   0.222
 4411SOL    HW162072   8.143  13.138   0.205
 4411SOL    HW262073   8.019  13.231   0.153
 4412SOL     OW62074   9.686  11.949   1.410
 4412SOL    HW162075   9.663  11.939   1.313
 4412SOL    HW262076   9.782  11.925   1.424
 4413SOL     OW62077  14.565  11.487   8.276
 4413SOL    HW162078  14.525  11.549   8.208
 4413SOL    HW262079  14.534  11.393   8.258
 4414SOL     OW62080   1.412  15.140   0.602
 4414SOL    HW162081   1.440  15.152   0.697
 4414SOL    HW262082   1.491  15.116   0.546
 4415SOL     OW62083   7.636   4.410   2.357
 4415SOL    HW162084   7.570   4.343   2.323
 4415SOL    HW262085   7.727   4.370   2.359
 4416SOL     OW62086   0.611   0.874   1.248
 4416SOL    HW162087   0.636   0.880   1.344
 4416SOL    HW262088   0.522   0.917   1.234
 4417SOL     OW62089  16.749  12.373   7.835
 4417SOL    HW162090  16.671  12.427   7.804
 4417SOL    HW262091  16.832  12.403   7.788
 4418SOL     OW62092  12.925   7.740   8.319
 4418SOL    HW162093  13.015   7.757   8.360
 4418SOL    HW262094  12.920   7.645   8.288
 4419SOL     OW62095   7.163   7.623   0.634
 4419SOL    HW162096   7.064   7.632   0.643
 4419SOL    HW262097   7.186   7.529   0.610
 4420SOL     OW62098   9.729   1.506   0.128
 4420SOL    HW162099   9.764   1.444   0.199
 4420SOL    HW262100   9.806   1.543   0.077
 4421SOL     OW62101  13.330  14.959   7.963
 4421SOL    HW162102  13.387  15.035   7.994
 4421SOL    HW262103  13.330  14.887   8.032
 4422SOL     OW62104   1.744  13.043   0.114
 4422SOL    HW162105   1.771  12.986   0.035
 4422SOL    HW262106   1.704  13.128   0.081
 4423SOL     OW62107  12.146  12.666   1.376
 4423SOL    HW162108  12.156  12.713   1.464
 4423SOL    HW262109  12.051  12.672   1.345
 4424SOL     OW62110   0.171   9.494   1.984
 4424SOL    HW162111   0.202   9.399   1.982
 4424SOL    HW262112   0.085   9.501   2.034
 4425SOL     OW62113  12.240  13.047   0.640
 4425SOL    HW162114  12.285  13.096   0.565
 4425SOL    HW262115  12.181  13.109   0.690
 4426SOL     OW62116  10.611   0.489   7.045
 4426SOL    HW162117  10.584   0.432   7.123
 4426SOL    HW262118  10.660   0.570   7.078
 4427SOL     OW62119  10.127   6.842   1.461
 4427SOL    HW162120  10.134   6.797   1.550
 4427SOL    HW262121  10.194   6.915   1.456
 4428SOL     OW62122  16.880   7.225   1.330
 4428SOL    HW162123  16.923   7.210   1.419
 4428SOL    HW262124  16.951   7.234   1.260
 4429SOL     OW62125  16.910  11.219   0.637
 4429SOL    HW162126  16.851  11.146   0.671
 4429SOL    HW262127  16.927  11.284   0.711
 4430SOL     OW62128   3.133   2.658   6.936
 4430SOL    HW162129   3.144   2.754   6.912
 4430SOL    HW262130   3.189   2.602   6.876
 4431SOL     OW62131  12.351  10.102   1.228
 4431SOL    HW162132  12.303  10.165   1.288
 4431SOL    HW262133  12.325  10.120   1.133
 4432SOL     OW62134  13.544   0.344   0.030
 4432SOL    HW162135  13.506   0.426   0.073
 4432SOL    HW262136  13.630   0.320   0.074
 4433SOL     OW62137   9.926   3.947   0.259
 4433SOL    HW162138   9.970   3.863   0.224
 4433SOL    HW262139   9.832   3.951   0.227
 4434SOL     OW62140   7.375  16.370   7.651
 4434SOL    HW162141   7.433  16.427   7.709
 4434SOL    HW262142   7.430  16.327   7.580
 4435SOL     OW62143   0.102   7.731   0.750
 4435SOL    HW162144   0.090   7.689   0.660
 4435SOL    HW262145   0.189   7.701   0.789
 4436SOL     OW62146   4.966   8.952   6.926
 4436SOL    HW162147   4.875   8.982   6.899
 4436SOL    HW262148   4.979   8.968   7.024
 4437SOL     OW62149   4.529   5.590   0.296
 4437SOL    HW162150   4.577   5.517   0.248
 4437SOL    HW262151   4.570   5.678   0.274
 4438SOL     OW62152   8.314   5.220   0.750
 4438SOL    HW162153   8.352   5.309   0.774
 4438SOL    HW262154   8.238   5.232   0.686
 4439SOL     OW62155   3.110  10.585   1.069
 4439SOL    HW162156   3.056  10.654   1.021
 4439SOL    HW262157   3.194  10.627   1.103
 4440SOL     OW62158   5.698   0.223   8.386
 4440SOL    HW162159   5.701   0.133   8.342
 4440SOL    HW262160   5.765   0.283   8.343
 4441SOL     OW62161   4.475   4.304   7.999
 4441SOL    HW162162   4.509   4.217   7.964
 4441SOL    HW262163   4.509   4.378   7.940
 4442SOL     OW62164  13.141   6.320   7.105
 4442SOL    HW162165  13.224   6.317   7.049
 4442SOL    HW262166  13.084   6.396   7.075
 4443SOL     OW62167  14.312   9.164   2.720
 4443SOL    HW162168  14.361   9.092   2.671
 4443SOL    HW262169  14.326   9.251   2.673
 4444SOL     OW62170   8.791  12.416   6.359
 4444SOL    HW162171   8.808  12.352   6.284
 4444SOL    HW262172   8.837  12.503   6.340
 4445SOL     OW62173  16.603  15.118   0.827
 4445SOL    HW162174  16.609  15.168   0.740
 4445SOL    HW262175  16.546  15.171   0.891
 4446SOL     OW62176  16.882  12.014   8.303
 4446SOL    HW162177  16.870  11.915   8.309
 4446SOL    HW262178  16.950  12.044   8.370
 4447SOL     OW62179  12.628   0.295   0.300
 4447SOL    HW162180  12.575   0.371   0.339
 4447SOL    HW262181  12.690   0.331   0.230
 4448SOL     OW62182  10.301   7.066   1.427
 4448SOL    HW162183  10.323   7.099   1.335
 4448SOL    HW262184  10.235   7.128   1.470
 4449SOL     OW62185   4.605   6.740   0.102
 4449SOL    HW162186   4.556   6.792   0.031
 4449SOL    HW262187   4.619   6.798   0.182
 4450SOL     OW62188  13.929  10.811   0.508
 4450SOL    HW162189  13.836  10.779   0.492
 4450SOL    HW262190  13.994  10.749   0.463
 4451SOL     OW62191  12.273   8.011   1.769
 4451SOL    HW162192  12.362   8.045   1.801
 4451SOL    HW262193  12.259   7.918   1.801
 4452SOL     OW62194  16.883   3.144   7.599
 4452SOL    HW162195  16.908   3.086   7.677
 4452SOL    HW262196  16.854   3.234   7.632
 4453SOL     OW62197  10.773   8.205   8.219
 4453SOL    HW162198  10.800   8.135   8.153
 4453SOL    HW262199  10.829   8.195   8.302
 4454SOL     OW62200   5.327   3.775   0.586
 4454SOL    HW162201   5.388   3.805   0.512
 4454SOL    HW262202   5.319   3.848   0.654
 4455SOL     OW62203   0.954   9.282   8.414
 4455SOL    HW162204   0.982   9.208   8.354
 4455SOL    HW262205   1.010   9.363   8.397
 4456SOL     OW62206  13.499   9.181   8.280
 4456SOL    HW162207  13.421   9.122   8.261
 4456SOL    HW262208  13.583   9.127   8.275
 4457SOL     OW62209   1.028  11.915   0.582
 4457SOL    HW162210   1.050  11.868   0.497
 4457SOL    HW262211   1.049  12.012   0.574
 4458SOL     OW62212   1.447  13.797   7.275
 4458SOL    HW162213   1.409  13.888   7.255
 4458SOL    HW262214   1.379  13.728   7.252
 4459SOL     OW62215   2.463  13.472   7.451
 4459SOL    HW162216   2.418  13.478   7.362
 4459SOL    HW262217   2.558  13.445   7.439
 4460SOL     OW62218  11.850  13.759   8.425
 4460SOL    HW162219  11.927  13.800   0.019
 4460SOL    HW262220  11.884  13.696   8.355
 4461SOL     OW62221   9.525  10.406   6.537
 4461SOL    HW162222   9.621  10.431   6.548
 4461SOL    HW262223   9.467  10.486   6.552
 4462SOL     OW62224  14.334   7.825   1.836
 4462SOL    HW162225  14.287   7.899   1.884
 4462SOL    HW262226  14.428   7.852   1.816
 4463SOL     OW62227  12.851   8.129   0.698
 4463SOL    HW162228  12.846   8.049   0.638
 4463SOL    HW262229  12.911   8.197   0.656
 4464SOL     OW62230   3.510  14.321   2.084
 4464SOL    HW162231   3.603  14.300   2.112
 4464SOL    HW262232   3.459  14.237   2.066
 4465SOL     OW62233   6.291   6.045   0.328
 4465SOL    HW162234   6.240   5.962   0.307
 4465SOL    HW262235   6.266   6.078   0.420
 4466SOL     OW62236   9.018  13.747   0.106
 4466SOL    HW162237   8.974  13.804   0.176
 4466SOL    HW262238   8.967  13.756   0.020
 4467SOL     OW62239  16.137   5.940   6.752
 4467SOL    HW162240  16.161   5.933   6.849
 4467SOL    HW262241  16.215   5.973   6.700
 4468SOL     OW62242   1.183   4.567   6.392
 4468SOL    HW162243   1.153   4.554   6.298
 4468SOL    HW262244   1.276   4.601   6.393
 4469SOL     OW62245  12.670   1.726   5.962
 4469SOL    HW162246  12.643   1.696   5.870
 4469SOL    HW262247  12.686   1.647   6.020
 4470SOL     OW62248  12.280  12.873   6.264
 4470SOL    HW162249  12.368  12.894   6.223
 4470SOL    HW262250  12.264  12.775   6.264
 4471SOL     OW62251   6.571  13.353   7.763
 4471SOL    HW162252   6.549  13.268   7.714
 4471SOL    HW262253   6.571  13.336   7.861
 4472SOL     OW62254   0.551   5.794   1.777
 4472SOL    HW162255   0.535   5.718   1.840
 4472SOL    HW262256   0.515   5.879   1.817
 4473SOL     OW62257  12.593   8.420   0.511
 4473SOL    HW162258  12.573   8.364   0.591
 4473SOL    HW262259  12.677   8.387   0.468
 4474SOL     OW62260  12.442   6.246   8.436
 4474SOL    HW162261  12.499   6.295   0.048
 4474SOL    HW262262  12.424   6.305   8.357
 4475SOL     OW62263  12.757  12.673   1.027
 4475SOL    HW162264  12.723  12.579   1.014
 4475SOL    HW262265  12.791  12.683   1.121
 4476SOL     OW62266  13.177  13.098   8.012
 4476SOL    HW162267  13.128  13.055   8.087
 4476SOL    HW262268  13.175  13.038   7.932
 4477SOL     OW62269   7.849   7.716   0.205
 4477SOL    HW162270   7.826   7.672   0.292
 4477SOL    HW262271   7.765   7.737   0.155
 4478SOL     OW62272   1.702   4.403   0.269
 4478SOL    HW162273   1.633   4.378   0.201
 4478SOL    HW262274   1.700   4.337   0.344
 4479SOL     OW62275   1.466   5.037   6.847
 4479SOL    HW162276   1.385   4.982   6.868
 4479SOL    HW262277   1.438   5.122   6.801
 4480SOL     OW62278   3.857   9.747   2.036
 4480SOL    HW162279   3.771   9.777   2.078
 4480SOL    HW262280   3.879   9.655   2.069
 4481SOL     OW62281   4.571  16.365   1.830
 4481SOL    HW162282   4.505  16.431   1.796
 4481SOL    HW262283   4.645  16.354   1.763
 4482SOL     OW62284   3.135   1.906   7.461
 4482SOL    HW162285   3.138   2.003   7.486
 4482SOL    HW262286   3.151   1.850   7.542
 4483SOL     OW62287   7.216   8.749   6.636
 4483SOL    HW162288   7.144   8.792   6.582
 4483SOL    HW262289   7.268   8.820   6.685
 4484SOL     OW62290  15.741   3.671   1.132
 4484SOL    HW162291  15.769   3.765   1.113
 4484SOL    HW262292  15.821   3.616   1.154
 4485SOL     OW62293   1.772  12.609   0.315
 4485SOL    HW162294   1.722  12.688   0.352
 4485SOL    HW262295   1.732  12.584   0.226
 4486SOL     OW62296   2.007   0.058   7.709
 4486SOL    HW162297   2.039   0.128   7.646
 4486SOL    HW262298   2.075   0.045   7.782
 4487SOL     OW62299  10.503  10.953   1.743
 4487SOL    HW162300  10.527  11.047   1.769
 4487SOL    HW262301  10.507  10.894   1.824
 4488SOL     OW62302   4.149  13.395   1.226
 4488SOL    HW162303   4.184  13.462   1.161
 4488SOL    HW262304   4.153  13.304   1.185
 4489SOL     OW62305  11.247  15.278   8.146
 4489SOL    HW162306  11.188  15.358   8.136
 4489SOL    HW262307  11.210  15.217   8.215
 4490SOL     OW62308   2.472  12.224   7.124
 4490SOL    HW162309   2.571  12.220   7.130
 4490SOL    HW262310   2.439  12.306   7.172
 4491SOL     OW62311  14.442   3.713   0.397
 4491SOL    HW162312  14.517   3.728   0.333
 4491SOL    HW262313  14.384   3.638   0.364
 4492SOL     OW62314  12.264   5.759   6.422
 4492SOL    HW162315  12.324   5.748   6.501
 4492SOL    HW262316  12.298   5.833   6.364
 4493SOL     OW62317   0.685   0.738   0.563
 4493SOL    HW162318   0.675   0.782   0.653
 4493SOL    HW262319   0.659   0.802   0.491
 4494SOL     OW62320   6.414  13.558   8.372
 4494SOL    HW162321   6.351  13.613   8.426
 4494SOL    HW262322   6.495  13.613   8.348
 4495SOL     OW62323   0.714  16.665   1.068
 4495SOL    HW162324   0.734  16.625   0.979
 4495SOL    HW262325   0.689  16.594   1.133
 4496SOL     OW62326  15.363  15.153   0.258
 4496SOL    HW162327  15.451  15.132   0.299
 4496SOL    HW262328  15.361  15.118   0.164
 4497SOL     OW62329   2.513   6.125   6.652
 4497SOL    HW162330   2.431   6.148   6.598
 4497SOL    HW262331   2.486   6.100   6.745
 4498SOL     OW62332  12.462  13.205   1.300
 4498SOL    HW162333  12.387  13.180   1.361
 4498SOL    HW262334  12.510  13.284   1.337
 4499SOL     OW62335  14.118   2.841   5.899
 4499SOL    HW162336  14.141   2.873   5.806
 4499SOL    HW262337  14.195   2.860   5.960
 4500SOL     OW62338   7.491  12.939   7.375
 4500SOL    HW162339   7.564  12.870   7.373
 4500SOL    HW262340   7.500  12.995   7.457
 4501SOL     OW62341   9.914   0.880   5.995
 4501SOL    HW162342   9.927   0.969   5.951
 4501SOL    HW262343   9.847   0.826   5.943
 4502SOL     OW62344   7.947   3.420   6.733
 4502SOL    HW162345   8.043   3.433   6.758
 4502SOL    HW262346   7.941   3.353   6.659
 4503SOL     OW62347   9.140  13.995   6.483
 4503SOL    HW162348   9.100  14.086   6.492
 4503SOL    HW262349   9.153  13.973   6.387
 4504SOL     OW62350  15.030   3.954   1.220
 4504SOL    HW162351  15.118   3.960   1.267
 4504SOL    HW262352  15.042   3.909   1.131
 4505SOL     OW62353  15.656  13.218   7.174
 4505SOL    HW162354  15.658  13.119   7.166
 4505SOL    HW262355  15.687  13.245   7.266
 4506SOL     OW62356   9.427   0.067   8.069
 4506SOL    HW162357   9.346   0.040   8.016
 4506SOL    HW262358   9.406   0.149   8.121
 4507SOL     OW62359   9.646  14.784   8.370
 4507SOL    HW162360   9.739  14.807   8.341
 4507SOL    HW262361   9.588  14.865   8.361
 4508SOL     OW62362  16.753  12.788   7.594
 4508SOL    HW162363  16.768  12.863   7.529
 4508SOL    HW262364  16.788  12.814   7.684
 4509SOL     OW62365   4.702  16.731   1.310
 4509SOL    HW162366   4.724  16.646   1.359
 4509SOL    HW262367   4.662  16.709   1.222
 4510SOL     OW62368  15.946  16.525   7.359
 4510SOL    HW162369  15.856  16.501   7.323
 4510SOL    HW262370  15.987  16.596   7.302
 4511SOL     OW62371   3.927  10.780   2.804
 4511SOL    HW162372   3.915  10.875   2.832
 4511SOL    HW262373   3.911  10.720   2.882
 4512SOL     OW62374   6.235   8.787   8.399
 4512SOL    HW162375   6.283   8.795   8.311
 4512SOL    HW262376   6.146   8.831   8.392
 4513SOL     OW62377  16.971   9.995   8.393
 4513SOL    HW162378  16.945  10.086   8.361
 4513SOL    HW262379  16.958   9.928   8.320
 4514SOL     OW62380   5.259   3.718   8.300
 4514SOL    HW162381   5.264   3.626   8.340
 4514SOL    HW262382   5.307   3.719   8.213
 4515SOL     OW62383  15.808   5.403   0.724
 4515SOL    HW162384  15.881   5.358   0.776
 4515SOL    HW262385  15.725   5.347   0.728
 4516SOL     OW62386   8.700   9.592   1.509
 4516SOL    HW162387   8.770   9.628   1.447
 4516SOL    HW262388   8.745   9.549   1.588
 4517SOL     OW62389  12.239  10.674   1.231
 4517SOL    HW162390  12.163  10.653   1.292
 4517SOL    HW262391  12.266  10.591   1.183
 4518SOL     OW62392   9.182  16.497   7.559
 4518SOL    HW162393   9.131  16.424   7.513
 4518SOL    HW262394   9.238  16.457   7.632
 4519SOL     OW62395  16.178  10.384   1.113
 4519SOL    HW162396  16.097  10.328   1.099
 4519SOL    HW262397  16.246  10.333   1.165
 4520SOL     OW62398   0.990  11.502   0.288
 4520SOL    HW162399   0.913  11.470   0.232
 4520SOL    HW262400   0.974  11.475   0.383
 4521SOL     OW62401  16.688   7.732   6.824
 4521SOL    HW162402  16.589   7.741   6.824
 4521SOL    HW262403  16.730   7.822   6.807
 4522SOL     OW62404   7.397   1.247   6.393
 4522SOL    HW162405   7.485   1.242   6.345
 4522SOL    HW262406   7.325   1.214   6.332
 4523SOL     OW62407  16.061   2.915   6.724
 4523SOL    HW162408  16.021   2.866   6.801
 4523SOL    HW262409  15.997   2.914   6.647
 4524SOL     OW62410   8.850  14.454   1.437
 4524SOL    HW162411   8.940  14.479   1.473
 4524SOL    HW262412   8.789  14.432   1.513
 4525SOL     OW62413  14.879  10.966   7.807
 4525SOL    HW162414  14.857  10.872   7.835
 4525SOL    HW262415  14.953  11.001   7.863
 4526SOL     OW62416   8.038   0.225   0.887
 4526SOL    HW162417   8.116   0.280   0.917
 4526SOL    HW262418   7.960   0.285   0.867
 4527SOL     OW62419   4.712   8.178   2.094
 4527SOL    HW162420   4.778   8.186   2.169
 4527SOL    HW262421   4.623   8.151   2.130
 4528SOL     OW62422  13.224   8.918   6.685
 4528SOL    HW162423  13.189   8.944   6.595
 4528SOL    HW262424  13.307   8.863   6.674
 4529SOL     OW62425   7.184  12.810   6.874
 4529SOL    HW162426   7.251  12.812   6.800
 4529SOL    HW262427   7.099  12.770   6.841
 4530SOL     OW62428  11.733  11.142   8.301
 4530SOL    HW162429  11.690  11.083   8.233
 4530SOL    HW262430  11.776  11.220   8.256
 4531SOL     OW62431  13.088   5.389   6.921
 4531SOL    HW162432  12.999   5.373   6.965
 4531SOL    HW262433  13.125   5.476   6.951
 4532SOL     OW62434   5.678   8.605   1.593
 4532SOL    HW162435   5.642   8.624   1.684
 4532SOL    HW262436   5.774   8.632   1.589
 4533SOL     OW62437  10.041   3.972   7.000
 4533SOL    HW162438  10.062   3.882   7.040
 4533SOL    HW262439  10.103   3.991   6.925
 4534SOL     OW62440  14.992   4.726   6.536
 4534SOL    HW162441  15.009   4.819   6.569
 4534SOL    HW262442  14.981   4.727   6.437
 4535SOL     OW62443   4.811   9.345   2.430
 4535SOL    HW162444   4.886   9.329   2.494
 4535SOL    HW262445   4.741   9.401   2.475
 4536SOL     OW62446  16.749   1.802   6.768
 4536SOL    HW162447  16.715   1.708   6.764
 4536SOL    HW262448  16.671   1.864   6.774
 4537SOL     OW62449   1.972  15.705   0.146
 4537SOL    HW162450   1.893  15.707   0.084
 4537SOL    HW262451   1.998  15.610   0.164
 4538SOL     OW62452   9.340  13.911   0.304
 4538SOL    HW162453   9.326  13.935   0.207
 4538SOL    HW262454   9.422  13.855   0.312
 4539SOL     OW62455  13.866  14.204   6.465
 4539SOL    HW162456  13.770  14.195   6.440
 4539SOL    HW262457  13.893  14.300   6.459
 4540SOL     OW62458   8.930   1.983   7.854
 4540SOL    HW162459   8.909   1.938   7.941
 4540SOL    HW262460   8.972   1.917   7.791
 4541SOL     OW62461  16.216   5.020   6.117
 4541SOL    HW162462  16.134   5.012   6.060
 4541SOL    HW262463  16.296   4.993   6.063
 4542SOL     OW62464   8.475   9.475   0.434
 4542SOL    HW162465   8.485   9.537   0.356
 4542SOL    HW262466   8.537   9.505   0.508
 4543SOL     OW62467   7.530   2.089   2.005
 4543SOL    HW162468   7.457   2.156   1.996
 4543SOL    HW262469   7.604   2.126   2.060
 4544SOL     OW62470  14.134   9.096   0.416
 4544SOL    HW162471  14.115   9.156   0.494
 4544SOL    HW262472  14.049   9.051   0.388
 4545SOL     OW62473   5.734   4.138   1.437
 4545SOL    HW162474   5.824   4.112   1.470
 4545SOL    HW262475   5.737   4.151   1.337
 4546SOL     OW62476   3.120   0.566   6.440
 4546SOL    HW162477   3.134   0.509   6.359
 4546SOL    HW262478   3.205   0.610   6.466
 4547SOL     OW62479   7.907   0.250   8.073
 4547SOL    HW162480   7.863   0.310   8.006
 4547SOL    HW262481   7.888   0.284   8.165
 4548SOL     OW62482   0.256  16.843   8.156
 4548SOL    HW162483   0.179  16.862   8.216
 4548SOL    HW262484   0.225  16.836   8.062
 4549SOL     OW62485   4.420  15.781   7.155
 4549SOL    HW162486   4.475  15.736   7.085
 4549SOL    HW262487   4.478  15.802   7.234
 4550SOL     OW62488   7.930   8.325   1.175
 4550SOL    HW162489   7.877   8.382   1.112
 4550SOL    HW262490   7.946   8.376   1.259
 4551SOL     OW62491   2.101   6.395   6.807
 4551SOL    HW162492   2.107   6.472   6.870
 4551SOL    HW262493   2.179   6.333   6.823
 4552SOL     OW62494  14.293  12.692   0.202
 4552SOL    HW162495  14.345  12.649   0.127
 4552SOL    HW262496  14.210  12.734   0.165
 4553SOL     OW62497  13.185  14.002   6.628
 4553SOL    HW162498  13.207  13.906   6.643
 4553SOL    HW262499  13.234  14.035   6.548
 4554SOL     OW62500  15.601   1.720   7.617
 4554SOL    HW162501  15.671   1.680   7.677
 4554SOL    HW262502  15.517   1.666   7.624
 4555SOL     OW62503   1.377   2.515   0.856
 4555SOL    HW162504   1.465   2.520   0.809
 4555SOL    HW262505   1.362   2.422   0.890
 4556SOL     OW62506   4.781  13.845   8.300
 4556SOL    HW162507   4.866  13.867   8.348
 4556SOL    HW262508   4.796  13.850   8.201
 4557SOL     OW62509   5.858  11.151   1.969
 4557SOL    HW162510   5.896  11.222   2.028
 4557SOL    HW262511   5.774  11.114   2.010
 4558SOL     OW62512   8.384   8.657   0.327
 4558SOL    HW162513   8.349   8.577   0.376
 4558SOL    HW262514   8.321   8.734   0.339
 4559SOL     OW62515   7.578   0.632   7.989
 4559SOL    HW162516   7.558   0.679   7.903
 4559SOL    HW262517   7.493   0.597   8.028
 4560SOL     OW62518   4.891  13.715   6.980
 4560SOL    HW162519   4.900  13.689   7.076
 4560SOL    HW262520   4.981  13.710   6.936
 4561SOL     OW62521  15.754  13.307   8.254
 4561SOL    HW162522  15.728  13.403   8.255
 4561SOL    HW262523  15.807  13.286   8.336
 4562SOL     OW62524  15.385  12.069   2.007
 4562SOL    HW162525  15.378  12.163   1.972
 4562SOL    HW262526  15.394  12.072   2.106
 4563SOL     OW62527  11.969  11.135   6.477
 4563SOL    HW162528  11.927  11.225   6.483
 4563SOL    HW262529  12.067  11.142   6.499
 4564SOL     OW62530   9.324   1.437   1.334
 4564SOL    HW162531   9.262   1.488   1.274
 4564SOL    HW262532   9.418   1.467   1.317
 4565SOL     OW62533  15.711  10.891   1.343
 4565SOL    HW162534  15.776  10.884   1.419
 4565SOL    HW262535  15.656  10.808   1.337
 4566SOL     OW62536   2.491   3.987   7.917
 4566SOL    HW162537   2.505   4.004   7.819
 4566SOL    HW262538   2.406   4.031   7.947
 4567SOL     OW62539  16.120   4.347   8.035
 4567SOL    HW162540  16.123   4.443   8.005
 4567SOL    HW262541  16.050   4.337   8.106
 4568SOL     OW62542  11.264  11.440   0.560
 4568SOL    HW162543  11.291  11.370   0.626
 4568SOL    HW262544  11.208  11.509   0.605
 4569SOL     OW62545  10.029   4.753   6.267
 4569SOL    HW162546  10.128   4.741   6.253
 4569SOL    HW262547  10.006   4.850   6.258
 4570SOL     OW62548   5.905   6.244   6.514
 4570SOL    HW162549   5.897   6.315   6.584
 4570SOL    HW262550   5.910   6.286   6.424
 4571SOL     OW62551  15.255   6.704   7.283
 4571SOL    HW162552  15.230   6.638   7.212
 4571SOL    HW262553  15.302   6.782   7.241
 4572SOL     OW62554  13.930   9.222   8.317
 4572SOL    HW162555  14.018   9.197   8.357
 4572SOL    HW262556  13.887   9.293   8.372
 4573SOL     OW62557   6.557   8.367   0.395
 4573SOL    HW162558   6.506   8.355   0.309
 4573SOL    HW262559   6.500   8.416   0.461
 4574SOL     OW62560   7.959   2.799   1.073
 4574SOL    HW162561   7.957   2.899   1.079
 4574SOL    HW262562   8.040   2.771   1.021
 4575SOL     OW62563  14.920  13.452   0.900
 4575SOL    HW162564  14.993  13.521   0.893
 4575SOL    HW262565  14.875  13.443   0.812
 4576SOL     OW62566  16.919   5.902   6.777
 4576SOL    HW162567   0.011   5.966   6.763
 4576SOL    HW262568  16.951   5.824   6.831
 4577SOL     OW62569  16.199   0.736   0.183
 4577SOL    HW162570  16.191   0.831   0.153
 4577SOL    HW262571  16.294   0.706   0.173
 4578SOL     OW62572  14.217  14.392   1.443
 4578SOL    HW162573  14.141  14.402   1.379
 4578SOL    HW262574  14.293  14.345   1.398
 4579SOL     OW62575  15.792   0.822   1.077
 4579SOL    HW162576  15.878   0.871   1.094
 4579SOL    HW262577  15.729   0.837   1.153
 4580SOL     OW62578  13.817   5.023   6.959
 4580SOL    HW162579  13.826   5.066   7.048
 4580SOL    HW262580  13.850   4.929   6.963
 4581SOL     OW62581   4.959   1.047   6.476
 4581SOL    HW162582   5.053   1.047   6.511
 4581SOL    HW262583   4.941   0.961   6.429
 4582SOL     OW62584  11.861   3.581   1.343
 4582SOL    HW162585  11.932   3.647   1.367
 4582SOL    HW262586  11.783   3.593   1.404
 4583SOL     OW62587   9.128   9.604   1.973
 4583SOL    HW162588   9.142   9.651   2.061
 4583SOL    HW262589   9.043   9.636   1.932
 4584SOL     OW62590   4.113  13.566   1.714
 4584SOL    HW162591   4.114  13.474   1.674
 4584SOL    HW262592   4.078  13.632   1.648
 4585SOL     OW62593   8.523   0.381   1.219
 4585SOL    HW162594   8.583   0.337   1.286
 4585SOL    HW262595   8.430   0.386   1.256
 4586SOL     OW62596   8.278   8.913   6.919
 4586SOL    HW162597   8.225   8.990   6.954
 4586SOL    HW262598   8.311   8.858   6.996
 4587SOL     OW62599  14.420   2.788   5.823
 4587SOL    HW162600  14.365   2.826   5.748
 4587SOL    HW262601  14.399   2.838   5.908
 4588SOL     OW62602   4.892  12.440   0.523
 4588SOL    HW162603   4.980  12.488   0.520
 4588SOL    HW262604   4.874  12.398   0.434
 4589SOL     OW62605   6.179  10.076   8.308
 4589SOL    HW162606   6.116  10.092   8.232
 4589SOL    HW262607   6.157  10.137   8.384
 4590SOL     OW62608  13.441  13.160   8.040
 4590SOL    HW162609  13.343  13.141   8.036
 4590SOL    HW262610  13.487  13.116   7.963
 4591SOL     OW62611   4.461   0.867   0.502
 4591SOL    HW162612   4.452   0.941   0.569
 4591SOL    HW262613   4.434   0.900   0.411
 4592SOL     OW62614  13.398   2.507   7.948
 4592SOL    HW162615  13.351   2.419   7.953
 4592SOL    HW262616  13.481   2.498   7.893
 4593SOL     OW62617   0.325   0.192   7.777
 4593SOL    HW162618   0.415   0.177   7.818
 4593SOL    HW262619   0.258   0.211   7.848
 4594SOL     OW62620  15.487   5.732   6.348
 4594SOL    HW162621  15.578   5.713   6.312
 4594SOL    HW262622  15.431   5.649   6.344
 4595SOL     OW62623  13.921  10.684   6.123
 4595SOL    HW162624  13.989  10.657   6.054
 4595SOL    HW262625  13.831  10.653   6.095
 4596SOL     OW62626   6.063   3.783   7.313
 4596SOL    HW162627   6.141   3.760   7.255
 4596SOL    HW262628   6.038   3.879   7.300
 4597SOL     OW62629  10.501  13.989   6.888
 4597SOL    HW162630  10.504  14.036   6.800
 4597SOL    HW262631  10.475  13.894   6.874
 4598SOL     OW62632   5.195   9.732   7.521
 4598SOL    HW162633   5.112   9.713   7.469
 4598SOL    HW262634   5.171   9.749   7.617
 4599SOL     OW62635  15.601   2.482   5.959
 4599SOL    HW162636  15.656   2.468   5.877
 4599SOL    HW262637  15.505   2.461   5.938
 4600SOL     OW62638  12.635   7.428   7.521
 4600SOL    HW162639  12.556   7.450   7.580
 4600SOL    HW262640  12.603   7.416   7.427
 4601SOL     OW62641   2.002  16.583   0.079
 4601SOL    HW162642   2.097  16.602   0.056
 4601SOL    HW262643   1.955  16.543   0.001
 4602SOL     OW62644   2.767   3.654   7.280
 4602SOL    HW162645   2.706   3.701   7.216
 4602SOL    HW262646   2.862   3.674   7.256
 4603SOL     OW62647  13.911   1.495   8.197
 4603SOL    HW162648  13.928   1.399   8.178
 4603SOL    HW262649  13.818   1.519   8.169
 4604SOL     OW62650   0.602   0.148   1.202
 4604SOL    HW162651   0.617   0.147   1.300
 4604SOL    HW262652   0.640   0.232   1.163
 4605SOL     OW62653   0.637   9.564   0.780
 4605SOL    HW162654   0.665   9.513   0.699
 4605SOL    HW262655   0.563   9.627   0.756
 4606SOL     OW62656   2.866  14.429   0.639
 4606SOL    HW162657   2.915  14.368   0.577
 4606SOL    HW262658   2.794  14.477   0.590
 4607SOL     OW62659  15.475   5.375   1.328
 4607SOL    HW162660  15.532   5.401   1.250
 4607SOL    HW262661  15.394   5.325   1.295
 4608SOL     OW62662  15.323   1.992   7.171
 4608SOL    HW162663  15.370   1.939   7.101
 4608SOL    HW262664  15.242   2.035   7.132
 4609SOL     OW62665   0.437   9.687   2.220
 4609SOL    HW162666   0.414   9.742   2.301
 4609SOL    HW262667   0.419   9.591   2.239
 4610SOL     OW62668  13.274  11.404   6.556
 4610SOL    HW162669  13.318  11.423   6.468
 4610SOL    HW262670  13.175  11.405   6.543
 4611SOL     OW62671  15.176  12.784   0.078
 4611SOL    HW162672  15.194  12.845   0.001
 4611SOL    HW262673  15.092  12.813   0.124
 4612SOL     OW62674  14.873   7.214   1.472
 4612SOL    HW162675  14.931   7.295   1.480
 4612SOL    HW262676  14.821   7.202   1.556
 4613SOL     OW62677  11.542   2.007   6.932
 4613SOL    HW162678  11.527   2.101   6.963
 4613SOL    HW262679  11.488   1.991   6.849
 4614SOL     OW62680  10.572   3.853   7.997
 4614SOL    HW162681  10.553   3.787   8.069
 4614SOL    HW262682  10.510   3.931   8.006
 4615SOL     OW62683   6.127  11.547   6.098
 4615SOL    HW162684   6.171  11.470   6.145
 4615SOL    HW262685   6.099  11.518   6.006
 4616SOL     OW62686  16.228   5.292   6.153
 4616SOL    HW162687  16.236   5.192   6.145
 4616SOL    HW262688  16.153   5.324   6.095
 4617SOL     OW62689  10.030   8.960   1.764
 4617SOL    HW162690  10.046   9.048   1.719
 4617SOL    HW262691   9.997   8.976   1.857
 4618SOL     OW62692  14.018   8.320   1.675
 4618SOL    HW162693  13.997   8.283   1.766
 4618SOL    HW262694  14.057   8.247   1.619
 4619SOL     OW62695   6.780   3.869   6.887
 4619SOL    HW162696   6.843   3.792   6.893
 4619SOL    HW262697   6.808   3.929   6.811
 4620SOL     OW62698   1.837  11.394   8.445
 4620SOL    HW162699   1.870  11.383   0.085
 4620SOL    HW262700   1.915  11.406   8.383
 4621SOL     OW62701   6.204   6.905   0.107
 4621SOL    HW162702   6.277   6.952   0.056
 4621SOL    HW262703   6.235   6.813   0.132
 4622SOL     OW62704   4.444   7.301   1.853
 4622SOL    HW162705   4.497   7.218   1.843
 4622SOL    HW262706   4.385   7.294   1.934
 4623SOL     OW62707   1.364   4.717   0.203
 4623SOL    HW162708   1.415   4.686   0.283
 4623SOL    HW262709   1.427   4.747   0.132
 4624SOL     OW62710   9.336  10.260   1.878
 4624SOL    HW162711   9.398  10.264   1.800
 4624SOL    HW262712   9.386  10.227   1.958
 4625SOL     OW62713   5.624  13.992   2.504
 4625SOL    HW162714   5.705  14.045   2.531
 4625SOL    HW262715   5.620  13.908   2.557
 4626SOL     OW62716   6.298   1.485   6.305
 4626SOL    HW162717   6.344   1.450   6.386
 4626SOL    HW262718   6.220   1.542   6.333
 4627SOL     OW62719   1.040  12.044   2.275
 4627SOL    HW162720   0.957  12.037   2.220
 4627SOL    HW262721   1.103  12.107   2.230
 4628SOL     OW62722  14.269  14.755   2.191
 4628SOL    HW162723  14.337  14.829   2.199
 4628SOL    HW262724  14.267  14.703   2.276
 4629SOL     OW62725  13.447   6.905   7.664
 4629SOL    HW162726  13.443   6.998   7.700
 4629SOL    HW262727  13.542   6.879   7.648
 4630SOL     OW62728   9.855   2.983   7.947
 4630SOL    HW162729   9.938   3.000   8.000
 4630SOL    HW262730   9.836   2.885   7.943
 4631SOL     OW62731   2.506  13.936   8.302
 4631SOL    HW162732   2.570  13.996   8.351
 4631SOL    HW262733   2.539  13.842   8.306
 4632SOL     OW62734  16.142   7.926   7.021
 4632SOL    HW162735  16.175   7.923   6.926
 4632SOL    HW262736  16.151   8.019   7.056
 4633SOL     OW62737   6.629   1.156   0.970
 4633SOL    HW162738   6.600   1.070   1.013
 4633SOL    HW262739   6.686   1.207   1.034
 4634SOL     OW62740  11.468  15.440   6.709
 4634SOL    HW162741  11.453  15.525   6.657
 4634SOL    HW262742  11.385  15.386   6.708
 4635SOL     OW62743  16.580   3.952   5.690
 4635SOL    HW162744  16.593   4.051   5.694
 4635SOL    HW262745  16.668   3.907   5.707
 4636SOL     OW62746   2.911  13.641   6.930
 4636SOL    HW162747   2.954  13.622   6.842
 4636SOL    HW262748   2.848  13.719   6.921
 4637SOL     OW62749  13.669   9.432   7.331
 4637SOL    HW162750  13.738   9.504   7.339
 4637SOL    HW262751  13.597   9.447   7.399
 4638SOL     OW62752  12.824  15.719   1.337
 4638SOL    HW162753  12.854  15.624   1.326
 4638SOL    HW262754  12.905  15.778   1.348
 4639SOL     OW62755   9.507   5.646   8.330
 4639SOL    HW162756   9.597   5.641   8.374
 4639SOL    HW262757   9.501   5.730   8.276
 4640SOL     OW62758  10.850  16.913   2.063
 4640SOL    HW162759  10.947  16.937   2.060
 4640SOL    HW262760  10.840  16.814   2.074
 4641SOL     OW62761   1.662  15.761   1.354
 4641SOL    HW162762   1.740  15.776   1.414
 4641SOL    HW262763   1.603  15.842   1.355
 4642SOL     OW62764  14.984  13.383   7.569
 4642SOL    HW162765  15.027  13.326   7.639
 4642SOL    HW262766  15.031  13.471   7.564
 4643SOL     OW62767   6.479  13.594   7.330
 4643SOL    HW162768   6.449  13.668   7.391
 4643SOL    HW262769   6.578  13.599   7.318
 4644SOL     OW62770   3.554  12.464   1.708
 4644SOL    HW162771   3.477  12.516   1.672
 4644SOL    HW262772   3.591  12.405   1.637
 4645SOL     OW62773   0.797  12.267   0.001
 4645SOL    HW162774   0.884  12.220   0.018
 4645SOL    HW262775   0.760  12.299   0.088
 4646SOL     OW62776   6.128   7.318   2.037
 4646SOL    HW162777   6.117   7.239   2.097
 4646SOL    HW262778   6.088   7.399   2.080
 4647SOL     OW62779  12.377   4.982   0.551
 4647SOL    HW162780  12.334   5.072   0.560
 4647SOL    HW262781  12.466   4.984   0.596
 4648SOL     OW62782   9.016  11.312   0.340
 4648SOL    HW162783   9.067  11.396   0.358
 4648SOL    HW262784   9.048  11.239   0.401
 4649SOL     OW62785  10.328  12.953   0.756
 4649SOL    HW162786  10.300  12.859   0.737
 4649SOL    HW262787  10.419  12.953   0.797
 4650SOL     OW62788   1.051  15.398   1.247
 4650SOL    HW162789   0.959  15.416   1.214
 4650SOL    HW262790   1.108  15.479   1.232
 4651SOL     OW62791  11.348   9.479   1.358
 4651SOL    HW162792  11.264   9.532   1.359
 4651SOL    HW262793  11.380   9.468   1.264
 4652SOL     OW62794   6.117   2.508   8.317
 4652SOL    HW162795   6.068   2.571   8.377
 4652SOL    HW262796   6.195   2.556   8.275
 4653SOL     OW62797   8.859   9.700   1.311
 4653SOL    HW162798   8.921   9.635   1.267
 4653SOL    HW262799   8.830   9.769   1.244
 4654SOL     OW62800   1.613  16.419   1.694
 4654SOL    HW162801   1.566  16.381   1.614
 4654SOL    HW262802   1.575  16.509   1.716
 4655SOL     OW62803  12.749   1.994   0.463
 4655SOL    HW162804  12.677   1.933   0.430
 4655SOL    HW262805  12.829   1.987   0.404
 4656SOL     OW62806   3.467   0.290   7.151
 4656SOL    HW162807   3.450   0.192   7.151
 4656SOL    HW262808   3.450   0.328   7.060
 4657SOL     OW62809   5.208   1.092   8.345
 4657SOL    HW162810   5.139   1.033   8.303
 4657SOL    HW262811   5.281   1.036   8.383
 4658SOL     OW62812   9.129   4.462   6.322
 4658SOL    HW162813   9.190   4.517   6.378
 4658SOL    HW262814   9.124   4.500   6.230
 4659SOL     OW62815  15.812   0.539   6.730
 4659SOL    HW162816  15.809   0.479   6.650
 4659SOL    HW262817  15.833   0.485   6.812
 4660SOL     OW62818   8.512   9.195   0.400
 4660SOL    HW162819   8.603   9.195   0.359
 4660SOL    HW262820   8.484   9.289   0.418
 4661SOL     OW62821  16.388   8.867   7.145
 4661SOL    HW162822  16.400   8.813   7.228
 4661SOL    HW262823  16.477   8.905   7.117
 4662SOL     OW62824  16.549   2.214   6.918
 4662SOL    HW162825  16.453   2.222   6.890
 4662SOL    HW262826  16.571   2.287   6.982
 4663SOL     OW62827  11.845   0.501   2.242
 4663SOL    HW162828  11.900   0.583   2.256
 4663SOL    HW262829  11.770   0.521   2.179
 4664SOL     OW62830   4.449  15.716   7.588
 4664SOL    HW162831   4.404  15.632   7.617
 4664SOL    HW262832   4.526  15.736   7.648
 4665SOL     OW62833   5.177  15.428   1.652
 4665SOL    HW162834   5.133  15.364   1.589
 4665SOL    HW262835   5.264  15.391   1.682
 4666SOL     OW62836   6.037   3.309   0.540
 4666SOL    HW162837   6.096   3.228   0.547
 4666SOL    HW262838   5.965   3.304   0.609
 4667SOL     OW62839   2.925   0.130   2.041
 4667SOL    HW162840   2.983   0.169   2.112
 4667SOL    HW262841   2.961   0.040   2.015
 4668SOL     OW62842   2.460  11.570   7.082
 4668SOL    HW162843   2.490  11.665   7.090
 4668SOL    HW262844   2.360  11.566   7.091
 4669SOL     OW62845   8.913   9.701   1.829
 4669SOL    HW162846   8.837   9.751   1.869
 4669SOL    HW262847   8.966   9.762   1.770
 4670SOL     OW62848  15.413   7.326   1.762
 4670SOL    HW162849  15.496   7.274   1.783
 4670SOL    HW262850  15.353   7.271   1.704
 4671SOL     OW62851   0.809   7.154   5.755
 4671SOL    HW162852   0.737   7.218   5.729
 4671SOL    HW262853   0.852   7.117   5.673
 4672SOL     OW62854   1.094   2.322   1.608
 4672SOL    HW162855   1.189   2.292   1.596
 4672SOL    HW262856   1.071   2.321   1.705
 4673SOL     OW62857  15.811  12.421   7.678
 4673SOL    HW162858  15.817  12.444   7.581
 4673SOL    HW262859  15.716  12.402   7.701
 4674SOL     OW62860  16.413   2.927   7.628
 4674SOL    HW162861  16.325   2.899   7.666
 4674SOL    HW262862  16.480   2.854   7.642
 4675SOL     OW62863  13.896   6.422   7.725
 4675SOL    HW162864  13.967   6.351   7.720
 4675SOL    HW262865  13.807   6.382   7.704
 4676SOL     OW62866  13.063   9.387   2.036
 4676SOL    HW162867  13.043   9.396   2.133
 4676SOL    HW262868  13.157   9.354   2.024
 4677SOL     OW62869  14.664   9.157   0.083
 4677SOL    HW162870  14.616   9.221   0.142
 4677SOL    HW262871  14.727   9.101   0.138
 4678SOL     OW62872  15.998   3.805   0.939
 4678SOL    HW162873  16.095   3.820   0.958
 4678SOL    HW262874  15.942   3.856   1.005
 4679SOL     OW62875  16.832  16.727   7.774
 4679SOL    HW162876  16.897  16.667   7.821
 4679SOL    HW262877  16.742  16.720   7.818
 4680SOL     OW62878   8.739   5.765   0.701
 4680SOL    HW162879   8.730   5.780   0.603
 4680SOL    HW262880   8.836   5.755   0.725
 4681SOL     OW62881  13.990   7.387   7.591
 4681SOL    HW162882  14.030   7.404   7.501
 4681SOL    HW262883  13.891   7.396   7.586
 4682SOL     OW62884   5.528   4.349   6.903
 4682SOL    HW162885   5.514   4.255   6.936
 4682SOL    HW262886   5.523   4.412   6.981
 4683SOL     OW62887  11.198   1.306   6.226
 4683SOL    HW162888  11.139   1.335   6.301
 4683SOL    HW262889  11.187   1.368   6.149
 4684SOL     OW62890  14.806   1.923   7.397
 4684SOL    HW162891  14.845   1.924   7.305
 4684SOL    HW262892  14.711   1.954   7.393
 4685SOL     OW62893  15.521  11.388   2.603
 4685SOL    HW162894  15.514  11.295   2.641
 4685SOL    HW262895  15.457  11.448   2.651
 4686SOL     OW62896  10.917  16.410   0.518
 4686SOL    HW162897  10.900  16.394   0.421
 4686SOL    HW262898  10.986  16.345   0.551
 4687SOL     OW62899   4.128   5.844   7.873
 4687SOL    HW162900   4.100   5.873   7.782
 4687SOL    HW262901   4.180   5.916   7.918
 4688SOL     OW62902  11.472   6.959   7.402
 4688SOL    HW162903  11.537   7.012   7.457
 4688SOL    HW262904  11.457   6.870   7.446
 4689SOL     OW62905  13.097  10.755   0.186
 4689SOL    HW162906  13.065  10.844   0.219
 4689SOL    HW262907  13.085  10.750   0.087
 4690SOL     OW62908  11.706   9.995   0.120
 4690SOL    HW162909  11.616   9.960   0.145
 4690SOL    HW262910  11.717   9.992   0.021
 4691SOL     OW62911   3.841   3.338   7.455
 4691SOL    HW162912   3.773   3.393   7.504
 4691SOL    HW262913   3.802   3.249   7.433
 4692SOL     OW62914   5.281   5.682   7.312
 4692SOL    HW162915   5.219   5.617   7.356
 4692SOL    HW262916   5.228   5.753   7.266
 4693SOL     OW62917  11.311   2.223   7.374
 4693SOL    HW162918  11.385   2.163   7.344
 4693SOL    HW262919  11.247   2.236   7.298
 4694SOL     OW62920   7.075   7.574   1.576
 4694SOL    HW162921   7.028   7.545   1.493
 4694SOL    HW262922   7.168   7.603   1.552
 4695SOL     OW62923  11.123   2.683   1.687
 4695SOL    HW162924  11.091   2.657   1.779
 4695SOL    HW262925  11.136   2.782   1.683
 4696SOL     OW62926  14.164   9.182   8.450
 4696SOL    HW162927  14.154   9.261   0.057
 4696SOL    HW262928  14.249   9.189   8.399
 4697SOL     OW62929  16.489  10.741   7.104
 4697SOL    HW162930  16.540  10.656   7.117
 4697SOL    HW262931  16.501  10.773   7.010
 4698SOL     OW62932   1.045   5.068   0.464
 4698SOL    HW162933   1.132   5.038   0.423
 4698SOL    HW262934   0.976   4.998   0.449
 4699SOL     OW62935  14.601   6.151   8.194
 4699SOL    HW162936  14.676   6.097   8.157
 4699SOL    HW262937  14.523   6.148   8.131
 4700SOL     OW62938  15.340   4.174   0.718
 4700SOL    HW162939  15.322   4.250   0.781
 4700SOL    HW262940  15.275   4.100   0.735
 4701SOL     OW62941  12.324   6.738   7.441
 4701SOL    HW162942  12.314   6.683   7.359
 4701SOL    HW262943  12.420   6.736   7.471
 4702SOL     OW62944   4.213  13.094   2.652
 4702SOL    HW162945   4.147  13.022   2.676
 4702SOL    HW262946   4.256  13.128   2.735
 4703SOL     OW62947   7.542   6.528   0.208
 4703SOL    HW162948   7.530   6.626   0.224
 4703SOL    HW262949   7.465   6.478   0.247
 4704SOL     OW62950   9.902  16.510   0.984
 4704SOL    HW162951   9.903  16.463   1.072
 4704SOL    HW262952   9.934  16.604   0.996
 4705SOL     OW62953   1.135   0.610   7.082
 4705SOL    HW162954   1.227   0.618   7.042
 4705SOL    HW262955   1.124   0.680   7.154
 4706SOL     OW62956   4.066   4.760   7.071
 4706SOL    HW162957   4.116   4.724   7.149
 4706SOL    HW262958   4.130   4.776   6.995
 4707SOL     OW62959   6.515   3.418   0.431
 4707SOL    HW162960   6.489   3.487   0.364
 4707SOL    HW262961   6.613   3.424   0.449
 4708SOL     OW62962  13.579  10.319   6.985
 4708SOL    HW162963  13.651  10.381   7.016
 4708SOL    HW262964  13.592  10.299   6.888
 4709SOL     OW62965  16.432   1.538   7.192
 4709SOL    HW162966  16.342   1.506   7.162
 4709SOL    HW262967  16.477   1.467   7.246
 4710SOL     OW62968   0.559   7.128   7.421
 4710SOL    HW162969   0.473   7.102   7.465
 4710SOL    HW262970   0.540   7.166   7.330
 4711SOL     OW62971  11.943   7.747   8.425
 4711SOL    HW162972  11.897   7.834   8.442
 4711SOL    HW262973  11.887   7.691   8.364
 4712SOL     OW62974   3.150  11.375   1.196
 4712SOL    HW162975   3.195  11.463   1.207
 4712SOL    HW262976   3.120  11.342   1.286
 4713SOL     OW62977  15.160   1.291   0.910
 4713SOL    HW162978  15.132   1.300   1.005
 4713SOL    HW262979  15.255   1.320   0.900
 4714SOL     OW62980  10.867  11.745   0.192
 4714SOL    HW162981  10.818  11.716   0.274
 4714SOL    HW262982  10.955  11.698   0.188
 4715SOL     OW62983   0.962  10.016   7.661
 4715SOL    HW162984   0.879  10.017   7.716
 4715SOL    HW262985   1.027  10.083   7.696
 4716SOL     OW62986   0.015  15.239   2.104
 4716SOL    HW162987   0.112  15.248   2.080
 4716SOL    HW262988  16.982  15.147   2.141
 4717SOL     OW62989   8.746  11.368   0.315
 4717SOL    HW162990   8.692  11.287   0.294
 4717SOL    HW262991   8.842  11.343   0.326
 4718SOL     OW62992   0.000   4.624   1.471
 4718SOL    HW162993   0.035   4.578   1.553
 4718SOL    HW262994  16.963   4.719   1.492
 4719SOL     OW62995  15.214  10.579   2.529
 4719SOL    HW162996  15.160  10.549   2.451
 4719SOL    HW262997  15.184  10.530   2.611
 4720SOL     OW62998  15.902  13.488   6.074
 4720SOL    HW162999  15.833  13.417   6.090
 4720SOL    HW263000  15.972  13.454   6.012
 4721SOL     OW63001   9.786   3.042   1.060
 4721SOL    HW163002   9.777   3.131   1.104
 4721SOL    HW263003   9.743   2.972   1.118
 4722SOL     OW63004  11.802  15.085   1.733
 4722SOL    HW163005  11.725  15.085   1.670
 4722SOL    HW263006  11.788  15.155   1.804
 4723SOL     OW63007   0.112  13.834   6.983
 4723SOL    HW163008   0.091  13.903   7.052
 4723SOL    HW263009   0.204  13.800   6.997
 4724SOL     OW63010   5.126  12.872   7.539
 4724SOL    HW163011   5.046  12.825   7.575
 4724SOL    HW263012   5.173  12.920   7.614
 4725SOL     OW63013   2.703   4.643   7.612
 4725SOL    HW163014   2.775   4.711   7.631
 4725SOL    HW263015   2.745   4.559   7.578
 4726SOL     OW63016   5.645   8.045   1.416
 4726SOL    HW163017   5.607   8.057   1.508
 4726SOL    HW263018   5.702   8.124   1.394
 4727SOL     OW63019  15.668   1.976   1.403
 4727SOL    HW163020  15.761   1.968   1.367
 4727SOL    HW263021  15.660   1.922   1.486
 4728SOL     OW63022  11.313   6.458   1.461
 4728SOL    HW163023  11.276   6.543   1.423
 4728SOL    HW263024  11.373   6.416   1.394
 4729SOL     OW63025   8.223   8.883   0.366
 4729SOL    HW163026   8.253   8.954   0.302
 4729SOL    HW263027   8.256   8.905   0.458
 4730SOL     OW63028   2.528   9.334   6.684
 4730SOL    HW163029   2.621   9.323   6.718
 4730SOL    HW263030   2.524   9.307   6.588
 4731SOL     OW63031   3.919  11.208   0.473
 4731SOL    HW163032   3.923  11.298   0.517
 4731SOL    HW263033   4.010  11.181   0.445
 4732SOL     OW63034   3.869   6.915   7.423
 4732SOL    HW163035   3.800   6.843   7.434
 4732SOL    HW263036   3.841   6.978   7.351
 4733SOL     OW63037   4.621   4.386   7.037
 4733SOL    HW163038   4.594   4.398   7.133
 4733SOL    HW263039   4.540   4.366   6.982
 4734SOL     OW63040  10.057  14.741   7.965
 4734SOL    HW163041  10.008  14.827   7.949
 4734SOL    HW263042  10.023  14.671   7.902
 4735SOL     OW63043   3.677  15.487   0.005
 4735SOL    HW163044   3.658  15.491   8.361
 4735SOL    HW263045   3.764  15.531   0.025
 4736SOL     OW63046   2.385   2.001   8.353
 4736SOL    HW163047   2.376   1.903   8.365
 4736SOL    HW263048   2.418   2.020   8.260
 4737SOL     OW63049  15.654  16.411   6.858
 4737SOL    HW163050  15.590  16.435   6.785
 4737SOL    HW263051  15.626  16.325   6.900
 4738SOL     OW63052  14.167   6.065   0.180
 4738SOL    HW163053  14.135   6.070   0.086
 4738SOL    HW263054  14.226   5.984   0.191
 4739SOL     OW63055   0.289   2.384   6.081
 4739SOL    HW163056   0.213   2.420   6.026
 4739SOL    HW263057   0.336   2.312   6.030
 4740SOL     OW63058   1.479   0.808   7.747
 4740SOL    HW163059   1.568   0.785   7.705
 4740SOL    HW263060   1.478   0.777   7.842
 4741SOL     OW63061  14.783   3.725   6.621
 4741SOL    HW163062  14.795   3.636   6.576
 4741SOL    HW263063  14.732   3.712   6.706
 4742SOL     OW63064  10.813   8.575   6.878
 4742SOL    HW163065  10.827   8.612   6.786
 4742SOL    HW263066  10.781   8.481   6.871
 4743SOL     OW63067   6.745   0.189   5.955
 4743SOL    HW163068   6.764   0.247   5.877
 4743SOL    HW263069   6.810   0.208   6.028
 4744SOL     OW63070  11.858   2.503   1.049
 4744SOL    HW163071  11.856   2.489   1.148
 4744SOL    HW263072  11.848   2.414   1.003
 4745SOL     OW63073  15.841   4.641   6.243
 4745SOL    HW163074  15.840   4.714   6.174
 4745SOL    HW263075  15.936   4.619   6.266
 4746SOL     OW63076  14.349   8.587   8.316
 4746SOL    HW163077  14.261   8.544   8.338
 4746SOL    HW263078  14.335   8.683   8.293
 4747SOL     OW63079   3.585  11.670   6.714
 4747SOL    HW163080   3.545  11.694   6.625
 4747SOL    HW263081   3.536  11.591   6.752
 4748SOL     OW63082  14.337   7.640   8.311
 4748SOL    HW163083  14.263   7.605   8.254
 4748SOL    HW263084  14.408   7.571   8.319
 4749SOL     OW63085   5.256  13.597   7.811
 4749SOL    HW163086   5.255  13.686   7.765
 4749SOL    HW263087   5.239  13.610   7.909
 4750SOL     OW63088   2.848   3.874   8.166
 4750SOL    HW163089   2.944   3.845   8.159
 4750SOL    HW263090   2.795   3.829   8.093
 4751SOL     OW63091   8.433   2.464   7.290
 4751SOL    HW163092   8.522   2.485   7.252
 4751SOL    HW263093   8.365   2.528   7.254
 4752SOL     OW63094   1.845  13.451   0.047
 4752SOL    HW163095   1.887  13.432   0.136
 4752SOL    HW263096   1.907  13.425   8.428
 4753SOL     OW63097  15.598   8.263   7.930
 4753SOL    HW163098  15.676   8.314   7.966
 4753SOL    HW263099  15.513   8.308   7.957
 4754SOL     OW63100   2.477   2.336   8.320
 4754SOL    HW163101   2.381   2.309   8.327
 4754SOL    HW263102   2.533   2.255   8.307
 4755SOL     OW63103   0.253   9.068   0.346
 4755SOL    HW163104   0.319   9.111   0.285
 4755SOL    HW263105   0.227   9.132   0.418
 4756SOL     OW63106   6.563   0.777   0.656
 4756SOL    HW163107   6.487   0.784   0.591
 4756SOL    HW263108   6.647   0.809   0.612
 4757SOL     OW63109   5.048  12.774   1.694
 4757SOL    HW163110   5.027  12.871   1.701
 4757SOL    HW263111   5.141  12.757   1.729
 4758SOL     OW63112   1.652  12.257   7.699
 4758SOL    HW163113   1.562  12.243   7.739
 4758SOL    HW263114   1.719  12.203   7.750
 4759SOL     OW63115   4.132  10.163   7.401
 4759SOL    HW163116   4.124  10.064   7.401
 4759SOL    HW263117   4.106  10.199   7.312
 4760SOL     OW63118   6.374   7.448   0.274
 4760SOL    HW163119   6.419   7.517   0.331
 4760SOL    HW263120   6.339   7.374   0.332
 4761SOL     OW63121  14.764   7.533   1.452
 4761SOL    HW163122  14.726   7.528   1.359
 4761SOL    HW263123  14.698   7.578   1.512
 4762SOL     OW63124   9.208  13.586   1.455
 4762SOL    HW163125   9.216  13.684   1.469
 4762SOL    HW263126   9.246  13.562   1.365
 4763SOL     OW63127   9.008   4.948   1.150
 4763SOL    HW163128   8.916   4.985   1.162
 4763SOL    HW263129   9.012   4.857   1.191
 4764SOL     OW63130   1.010   0.621   0.665
 4764SOL    HW163131   0.952   0.578   0.734
 4764SOL    HW263132   1.099   0.576   0.662
 4765SOL     OW63133   2.460   2.539   6.921
 4765SOL    HW163134   2.459   2.457   6.864
 4765SOL    HW263135   2.420   2.616   6.871
 4766SOL     OW63136  13.777  11.251   7.718
 4766SOL    HW163137  13.728  11.335   7.696
 4766SOL    HW263138  13.766  11.230   7.816
 4767SOL     OW63139   7.476   9.700   1.540
 4767SOL    HW163140   7.566   9.727   1.575
 4767SOL    HW263141   7.426   9.649   1.610
 4768SOL     OW63142   0.495   0.412   2.186
 4768SOL    HW163143   0.544   0.354   2.251
 4768SOL    HW263144   0.425   0.465   2.235
 4769SOL     OW63145  12.776  13.162   7.321
 4769SOL    HW163146  12.865  13.116   7.315
 4769SOL    HW263147  12.703  13.096   7.302
 4770SOL     OW63148  15.584   4.521   6.246
 4770SOL    HW163149  15.552   4.520   6.152
 4770SOL    HW263150  15.674   4.565   6.251
 4771SOL     OW63151   1.699  13.891   7.166
 4771SOL    HW163152   1.693  13.944   7.082
 4771SOL    HW263153   1.607  13.875   7.202
 4772SOL     OW63154   6.302  15.807   1.838
 4772SOL    HW163155   6.360  15.751   1.897
 4772SOL    HW263156   6.214  15.823   1.883
 4773SOL     OW63157   0.830   9.092   8.050
 4773SOL    HW163158   0.836   9.060   7.956
 4773SOL    HW263159   0.871   9.183   8.058
 4774SOL     OW63160  11.722  12.256   0.159
 4774SOL    HW163161  11.796  12.247   0.225
 4774SOL    HW263162  11.639  12.285   0.206
 4775SOL     OW63163  11.138   8.771   1.991
 4775SOL    HW163164  11.188   8.745   2.074
 4775SOL    HW263165  11.143   8.870   1.978
 4776SOL     OW63166   9.107  12.686   0.588
 4776SOL    HW163167   9.186  12.630   0.563
 4776SOL    HW263168   9.132  12.783   0.583
 4777SOL     OW63169   1.593  10.182   7.610
 4777SOL    HW163170   1.579  10.272   7.653
 4777SOL    HW263171   1.687  10.176   7.578
 4778SOL     OW63172  10.649  14.469   0.216
 4778SOL    HW163173  10.591  14.547   0.192
 4778SOL    HW263174  10.618  14.387   0.167
 4779SOL     OW63175  12.229   8.403   6.499
 4779SOL    HW163176  12.179   8.320   6.477
 4779SOL    HW263177  12.325   8.392   6.474
 4780SOL     OW63178   1.867  12.596   1.718
 4780SOL    HW163179   1.826  12.576   1.807
 4780SOL    HW263180   1.807  12.658   1.666
 4781SOL     OW63181  11.636   8.384   6.580
 4781SOL    HW163182  11.647   8.472   6.627
 4781SOL    HW263183  11.661   8.395   6.484
 4782SOL     OW63184   8.245   8.357   8.436
 4782SOL    HW163185   8.303   8.351   8.355
 4782SOL    HW263186   8.187   8.276   8.442
 4783SOL     OW63187   1.800  16.448   1.983
 4783SOL    HW163188   1.812  16.529   1.926
 4783SOL    HW263189   1.794  16.474   2.079
 4784SOL     OW63190   2.387  12.160   6.861
 4784SOL    HW163191   2.417  12.183   6.953
 4784SOL    HW263192   2.467  12.153   6.801
 4785SOL     OW63193   4.915   2.361   1.711
 4785SOL    HW163194   4.987   2.324   1.652
 4785SOL    HW263195   4.942   2.352   1.806
 4786SOL     OW63196   7.950   7.164   1.203
 4786SOL    HW163197   7.883   7.123   1.140
 4786SOL    HW263198   7.907   7.240   1.251
 4787SOL     OW63199  11.890  13.557   1.233
 4787SOL    HW163200  11.967  13.604   1.188
 4787SOL    HW263201  11.844  13.620   1.295
 4788SOL     OW63202   1.651  13.693   0.708
 4788SOL    HW163203   1.637  13.610   0.654
 4788SOL    HW263204   1.586  13.694   0.784
 4789SOL     OW63205  11.612   2.090   1.736
 4789SOL    HW163206  11.572   2.131   1.818
 4789SOL    HW263207  11.698   2.137   1.715
 4790SOL     OW63208  13.782  15.333   8.046
 4790SOL    HW163209  13.866  15.279   8.045
 4790SOL    HW263210  13.770  15.375   8.136
 4791SOL     OW63211   2.094   3.820   7.770
 4791SOL    HW163212   2.030   3.896   7.758
 4791SOL    HW263213   2.063   3.762   7.845
 4792SOL     OW63214   5.901  16.900   1.087
 4792SOL    HW163215   5.928   0.013   1.084
 4792SOL    HW263216   5.921  16.856   1.000
 4793SOL     OW63217   6.293   3.044   6.869
 4793SOL    HW163218   6.279   3.135   6.831
 4793SOL    HW263219   6.206   3.009   6.903
 4794SOL     OW63220   2.414  12.052   2.500
 4794SOL    HW163221   2.365  12.052   2.587
 4794SOL    HW263222   2.462  11.965   2.489
 4795SOL     OW63223   1.784   9.134   6.433
 4795SOL    HW163224   1.697   9.163   6.473
 4795SOL    HW263225   1.767   9.074   6.355
 4796SOL     OW63226   6.193  14.037   8.273
 4796SOL    HW163227   6.096  14.021   8.254
 4796SOL    HW263228   6.222  14.121   8.227
 4797SOL     OW63229  15.928  12.524   0.368
 4797SOL    HW163230  15.848  12.580   0.345
 4797SOL    HW263231  15.915  12.431   0.336
 4798SOL     OW63232  16.483  10.959   0.216
 4798SOL    HW163233  16.425  10.978   0.137
 4798SOL    HW263234  16.460  11.021   0.290
 4799SOL     OW63235   1.866   2.949   8.074
 4799SOL    HW163236   1.781   2.997   8.097
 4799SOL    HW263237   1.859   2.909   7.983
 4800SOL     OW63238  12.340  11.956   6.909
 4800SOL    HW163239  12.344  12.046   6.867
 4800SOL    HW263240  12.367  11.962   7.005
 4801SOL     OW63241   5.566  14.953   8.051
 4801SOL    HW163242   5.466  14.953   8.053
 4801SOL    HW263243   5.599  14.858   8.057
 4802SOL     OW63244  12.960  11.277   8.332
 4802SOL    HW163245  13.043  11.248   8.284
 4802SOL    HW263246  12.975  11.369   8.370
 4803SOL     OW63247   2.325   1.876   0.890
 4803SOL    HW163248   2.337   1.948   0.821
 4803SOL    HW263249   2.413   1.831   0.906
 4804SOL     OW63250  13.185   3.406   7.289
 4804SOL    HW163251  13.189   3.495   7.245
 4804SOL    HW263252  13.117   3.349   7.242
 4805SOL     OW63253   1.034   6.901   1.152
 4805SOL    HW163254   1.048   6.829   1.084
 4805SOL    HW263255   1.042   6.991   1.108
 4806SOL     OW63256  16.193  11.099   7.370
 4806SOL    HW163257  16.271  11.151   7.402
 4806SOL    HW263258  16.225  11.016   7.323
 4807SOL     OW63259  13.363   6.647   1.651
 4807SOL    HW163260  13.368   6.567   1.591
 4807SOL    HW263261  13.454   6.665   1.690
 4808SOL     OW63262  12.470   1.869   6.099
 4808SOL    HW163263  12.381   1.837   6.068
 4808SOL    HW263264  12.542   1.813   6.058
 4809SOL     OW63265   3.807   0.372   1.108
 4809SOL    HW163266   3.755   0.300   1.061
 4809SOL    HW263267   3.886   0.332   1.154
 4810SOL     OW63268   0.576   9.735   0.266
 4810SOL    HW163269   0.492   9.706   0.219
 4810SOL    HW263270   0.642   9.660   0.266
 4811SOL     OW63271  10.328  16.400   7.751
 4811SOL    HW163272  10.321  16.336   7.828
 4811SOL    HW263273  10.327  16.494   7.786
 4812SOL     OW63274  14.963   8.255   1.412
 4812SOL    HW163275  15.011   8.247   1.325
 4812SOL    HW263276  14.866   8.234   1.399
 4813SOL     OW63277   3.425  10.446   2.645
 4813SOL    HW163278   3.438  10.443   2.546
 4813SOL    HW263279   3.337  10.406   2.668
 4814SOL     OW63280   8.754   5.049   1.170
 4814SOL    HW163281   8.741   5.018   1.264
 4814SOL    HW263282   8.695   4.996   1.109
 4815SOL     OW63283   2.903  12.425   0.921
 4815SOL    HW163284   2.922  12.498   0.856
 4815SOL    HW263285   2.809  12.392   0.910
 4816SOL     OW63286   3.543   6.669   1.177
 4816SOL    HW163287   3.512   6.752   1.224
 4816SOL    HW263288   3.521   6.676   1.080
 4817SOL     OW63289   8.014   2.078   6.941
 4817SOL    HW163290   8.044   2.166   6.978
 4817SOL    HW263291   7.969   2.025   7.013
 4818SOL     OW63292  16.492  11.319   0.352
 4818SOL    HW163293  16.547  11.305   0.270
 4818SOL    HW263294  16.403  11.356   0.327
 4819SOL     OW63295  12.810  16.875   7.423
 4819SOL    HW163296  12.760  16.887   7.338
 4819SOL    HW263297  12.746  16.872   7.500
 4820SOL     OW63298  12.938   8.352   7.656
 4820SOL    HW163299  13.036   8.373   7.649
 4820SOL    HW263300  12.923   8.256   7.635
 4821SOL     OW63301   7.084  11.595   7.455
 4821SOL    HW163302   7.004  11.654   7.466
 4821SOL    HW263303   7.130  11.618   7.369
 4822SOL     OW63304   0.261   1.331   6.158
 4822SOL    HW163305   0.350   1.286   6.166
 4822SOL    HW263306   0.275   1.426   6.130
 4823SOL     OW63307   6.579   8.546   7.854
 4823SOL    HW163308   6.593   8.487   7.933
 4823SOL    HW263309   6.655   8.533   7.789
 4824SOL     OW63310  14.937   4.875   5.982
 4824SOL    HW163311  15.019   4.821   5.964
 4824SOL    HW263312  14.886   4.886   5.896
 4825SOL     OW63313   2.737  15.866   1.651
 4825SOL    HW163314   2.739  15.947   1.593
 4825SOL    HW263315   2.830  15.834   1.666
 4826SOL     OW63316   7.457  12.641   0.204
 4826SOL    HW163317   7.536  12.637   0.143
 4826SOL    HW263318   7.394  12.567   0.181
 4827SOL     OW63319   4.851   7.134   0.999
 4827SOL    HW163320   4.906   7.085   0.932
 4827SOL    HW263321   4.843   7.230   0.972
 4828SOL     OW63322  10.397  16.027   7.026
 4828SOL    HW163323  10.303  16.024   6.991
 4828SOL    HW263324  10.425  16.122   7.038
 4829SOL     OW63325   4.698   7.559   2.749
 4829SOL    HW163326   4.666   7.654   2.751
 4829SOL    HW263327   4.622   7.499   2.726
 4830SOL     OW63328   2.467  11.994   2.117
 4830SOL    HW163329   2.425  11.903   2.112
 4830SOL    HW263330   2.494  12.024   2.026
 4831SOL     OW63331   3.075   4.605   8.364
 4831SOL    HW163332   3.173   4.583   8.358
 4831SOL    HW263333   3.023   4.521   8.377
 4832SOL     OW63334   9.363  12.856   8.366
 4832SOL    HW163335   9.375  12.770   8.317
 4832SOL    HW263336   9.411  12.929   8.318
 4833SOL     OW63337   1.324   3.372   7.582
 4833SOL    HW163338   1.369   3.284   7.568
 4833SOL    HW263339   1.245   3.380   7.520
 4834SOL     OW63340   2.039   9.947   8.305
 4834SOL    HW163341   2.066  10.043   8.291
 4834SOL    HW263342   1.941   9.943   8.322
 4835SOL     OW63343   1.335  12.056   7.133
 4835SOL    HW163344   1.377  12.139   7.169
 4835SOL    HW263345   1.329  12.063   7.033
 4836SOL     OW63346  15.595   4.509   7.445
 4836SOL    HW163347  15.679   4.532   7.495
 4836SOL    HW263348  15.616   4.444   7.372
 4837SOL     OW63349  16.247   8.618   0.044
 4837SOL    HW163350  16.229   8.628   8.400
 4837SOL    HW263351  16.279   8.704   0.082
 4838SOL     OW63352  12.610  13.704   7.431
 4838SOL    HW163353  12.627  13.785   7.488
 4838SOL    HW263354  12.670  13.630   7.460
 4839SOL     OW63355   1.885   7.187   1.247
 4839SOL    HW163356   1.844   7.104   1.208
 4839SOL    HW263357   1.846   7.203   1.338
 4840SOL     OW63358   7.800   3.464   0.127
 4840SOL    HW163359   7.834   3.440   0.217
 4840SOL    HW263360   7.722   3.407   0.104
 4841SOL     OW63361   1.025   4.798   0.661
 4841SOL    HW163362   1.108   4.754   0.626
 4841SOL    HW263363   0.967   4.827   0.584
 4842SOL     OW63364   8.461   8.350   7.185
 4842SOL    HW163365   8.411   8.384   7.266
 4842SOL    HW263366   8.553   8.388   7.185
 4843SOL     OW63367   3.346   7.870   0.239
 4843SOL    HW163368   3.346   7.880   0.139
 4843SOL    HW263369   3.440   7.871   0.272
 4844SOL     OW63370   9.215   6.504   1.981
 4844SOL    HW163371   9.267   6.586   2.004
 4844SOL    HW263372   9.195   6.453   2.065
 4845SOL     OW63373  12.214   0.374   8.008
 4845SOL    HW163374  12.230   0.379   8.106
 4845SOL    HW263375  12.187   0.281   7.983
 4846SOL     OW63376   4.617  16.463   0.908
 4846SOL    HW163377   4.643  16.386   0.966
 4846SOL    HW263378   4.644  16.446   0.814
 4847SOL     OW63379  16.954  10.724   0.646
 4847SOL    HW163380   0.010  10.708   0.555
 4847SOL    HW263381  16.909  10.814   0.647
 4848SOL     OW63382   7.646  13.414   7.200
 4848SOL    HW163383   7.739  13.417   7.164
 4848SOL    HW263384   7.645  13.449   7.293
 4849SOL     OW63385   0.539  12.506   1.125
 4849SOL    HW163386   0.525  12.603   1.147
 4849SOL    HW263387   0.452  12.457   1.136
 4850SOL     OW63388   2.892  16.377   7.610
 4850SOL    HW163389   2.907  16.284   7.576
 4850SOL    HW263390   2.954  16.439   7.563
 4851SOL     OW63391   9.128   7.848   6.965
 4851SOL    HW163392   9.091   7.779   7.027
 4851SOL    HW263393   9.057   7.877   6.901
 4852SOL     OW63394   9.483   9.029   1.126
 4852SOL    HW163395   9.404   9.020   1.186
 4852SOL    HW263396   9.515   9.124   1.127
 4853SOL     OW63397  14.564  15.495   6.891
 4853SOL    HW163398  14.618  15.568   6.849
 4853SOL    HW263399  14.491  15.468   6.828
 4854SOL     OW63400   2.859  15.040   7.174
 4854SOL    HW163401   2.781  14.977   7.171
 4854SOL    HW263402   2.904  15.033   7.263
 4855SOL     OW63403  12.309  10.049   7.535
 4855SOL    HW163404  12.286  10.136   7.579
 4855SOL    HW263405  12.256   9.976   7.577
 4856SOL     OW63406   0.581  14.886   7.704
 4856SOL    HW163407   0.537  14.799   7.681
 4856SOL    HW263408   0.646  14.871   7.779
 4857SOL     OW63409  10.706  16.456   7.242
 4857SOL    HW163410  10.636  16.415   7.301
 4857SOL    HW263411  10.746  16.534   7.288
 4858SOL     OW63412  14.695   3.459   7.865
 4858SOL    HW163413  14.708   3.374   7.915
 4858SOL    HW263414  14.620   3.511   7.906
 4859SOL     OW63415   4.128   2.429   7.318
 4859SOL    HW163416   4.167   2.403   7.406
 4859SOL    HW263417   4.042   2.381   7.303
 4860SOL     OW63418   8.252   9.746   7.320
 4860SOL    HW163419   8.208   9.836   7.320
 4860SOL    HW263420   8.350   9.757   7.304
 4861SOL     OW63421  13.506   3.200   5.972
 4861SOL    HW163422  13.477   3.205   5.877
 4861SOL    HW263423  13.535   3.291   6.003
 4862SOL     OW63424   4.855   8.308   1.677
 4862SOL    HW163425   4.782   8.376   1.679
 4862SOL    HW263426   4.930   8.337   1.737
 4863SOL     OW63427   6.182   5.775   0.332
 4863SOL    HW163428   6.281   5.761   0.337
 4863SOL    HW263429   6.135   5.706   0.388
 4864SOL     OW63430   3.402  12.685   0.069
 4864SOL    HW163431   3.440  12.707   0.158
 4864SOL    HW263432   3.302  12.678   0.076
 4865SOL     OW63433  14.815   6.710   0.252
 4865SOL    HW163434  14.800   6.771   0.330
 4865SOL    HW263435  14.912   6.708   0.229
 4866SOL     OW63436  16.361   4.991   6.373
 4866SOL    HW163437  16.317   5.052   6.439
 4866SOL    HW263438  16.309   4.991   6.288
 4867SOL     OW63439  12.480   6.341   7.581
 4867SOL    HW163440  12.434   6.253   7.572
 4867SOL    HW263441  12.543   6.353   7.504
 4868SOL     OW63442  14.855  16.889   1.095
 4868SOL    HW163443  14.802  16.921   1.017
 4868SOL    HW263444  14.795  16.877   1.174
 4869SOL     OW63445  13.639   8.983   7.266
 4869SOL    HW163446  13.698   8.908   7.296
 4869SOL    HW263447  13.693   9.066   7.254
 4870SOL     OW63448   3.119   7.323   7.806
 4870SOL    HW163449   3.157   7.328   7.714
 4870SOL    HW263450   3.102   7.416   7.839
 4871SOL     OW63451  12.423   9.708   7.158
 4871SOL    HW163452  12.417   9.761   7.243
 4871SOL    HW263453  12.340   9.652   7.148
 4872SOL     OW63454   1.855   4.539   0.476
 4872SOL    HW163455   1.807   4.503   0.396
 4872SOL    HW263456   1.852   4.473   0.550
 4873SOL     OW63457   0.658   2.330   0.832
 4873SOL    HW163458   0.705   2.269   0.896
 4873SOL    HW263459   0.716   2.346   0.752
 4874SOL     OW63460  12.268   8.703   7.612
 4874SOL    HW163461  12.314   8.626   7.657
 4874SOL    HW263462  12.255   8.777   7.678
 4875SOL     OW63463   3.319   1.142   0.936
 4875SOL    HW163464   3.356   1.220   0.988
 4875SOL    HW263465   3.258   1.089   0.995
 4876SOL     OW63466  13.470   7.777   0.173
 4876SOL    HW163467  13.504   7.856   0.122
 4876SOL    HW263468  13.547   7.722   0.204
 4877SOL     OW63469  13.872   6.354   0.658
 4877SOL    HW163470  13.872   6.351   0.558
 4877SOL    HW263471  13.945   6.413   0.690
 4878SOL     OW63472   8.972   5.850   0.076
 4878SOL    HW163473   8.962   5.921   0.006
 4878SOL    HW263474   8.999   5.891   0.162
 4879SOL     OW63475  13.734   6.713   8.067
 4879SOL    HW163476  13.638   6.697   8.087
 4879SOL    HW263477  13.778   6.759   8.144
 4880SOL     OW63478  16.919  10.432   1.758
 4880SOL    HW163479  16.966  10.417   1.845
 4880SOL    HW263480  16.846  10.499   1.771
 4881SOL     OW63481   6.343   8.839   7.570
 4881SOL    HW163482   6.353   8.806   7.664
 4881SOL    HW263483   6.433   8.845   7.527
 4882SOL     OW63484   7.524  12.113   1.219
 4882SOL    HW163485   7.588  12.181   1.182
 4882SOL    HW263486   7.470  12.074   1.145
 4883SOL     OW63487   9.319   2.128   7.806
 4883SOL    HW163488   9.375   2.093   7.881
 4883SOL    HW263489   9.227   2.089   7.811
 4884SOL     OW63490   6.389   6.053   0.807
 4884SOL    HW163491   6.332   5.971   0.808
 4884SOL    HW263492   6.465   6.040   0.742
 4885SOL     OW63493   7.054  13.835   2.163
 4885SOL    HW163494   7.081  13.809   2.071
 4885SOL    HW263495   7.114  13.792   2.230
 4886SOL     OW63496   1.310  15.642   1.575
 4886SOL    HW163497   1.357  15.619   1.489
 4886SOL    HW263498   1.345  15.583   1.648
 4887SOL     OW63499  15.521   6.995   7.376
 4887SOL    HW163500  15.462   6.954   7.445
 4887SOL    HW263501  15.479   6.984   7.286
 4888SOL     OW63502   5.685  10.490   6.449
 4888SOL    HW163503   5.625  10.428   6.398
 4888SOL    HW263504   5.739  10.544   6.385
 4889SOL     OW63505   4.805   1.472   1.359
 4889SOL    HW163506   4.733   1.484   1.427
 4889SOL    HW263507   4.823   1.374   1.348
 4890SOL     OW63508   2.505  10.136   0.883
 4890SOL    HW163509   2.442  10.214   0.882
 4890SOL    HW263510   2.455  10.054   0.910
 4891SOL     OW63511  10.723   8.338   6.159
 4891SOL    HW163512  10.628   8.337   6.127
 4891SOL    HW263513  10.766   8.423   6.129
 4892SOL     OW63514  15.742   4.152   7.623
 4892SOL    HW163515  15.820   4.124   7.567
 4892SOL    HW263516  15.760   4.242   7.662
 4893SOL     OW63517  12.876   5.872   1.119
 4893SOL    HW163518  12.790   5.827   1.096
 4893SOL    HW263519  12.921   5.823   1.193
 4894SOL     OW63520   9.658   0.913   0.693
 4894SOL    HW163521   9.670   0.849   0.769
 4894SOL    HW263522   9.638   0.862   0.609
 4895SOL     OW63523   6.936  16.712   0.601
 4895SOL    HW163524   7.005  16.780   0.578
 4895SOL    HW263525   6.845  16.749   0.582
 4896SOL     OW63526   2.412  13.339   7.993
 4896SOL    HW163527   2.477  13.267   7.967
 4896SOL    HW263528   2.329  13.298   8.031
 4897SOL     OW63529   2.736  15.268   2.318
 4897SOL    HW163530   2.669  15.213   2.367
 4897SOL    HW263531   2.826  15.224   2.324
 4898SOL     OW63532   8.723  13.848   8.108
 4898SOL    HW163533   8.656  13.923   8.111
 4898SOL    HW263534   8.682  13.769   8.062
 4899SOL     OW63535  16.899  14.783   7.093
 4899SOL    HW163536  16.852  14.762   7.007
 4899SOL    HW263537  16.832  14.814   7.161
 4900SOL     OW63538   4.195   4.974   6.683
 4900SOL    HW163539   4.282   5.023   6.674
 4900SOL    HW263540   4.121   5.031   6.648
 4901SOL     OW63541  13.327  11.998   1.232
 4901SOL    HW163542  13.238  12.001   1.185
 4901SOL    HW263543  13.353  12.090   1.260
 4902SOL     OW63544   0.088   7.908   7.448
 4902SOL    HW163545   0.178   7.882   7.484
 4902SOL    HW263546   0.016   7.862   7.501
 4903SOL     OW63547   0.900   3.117   8.224
 4903SOL    HW163548   0.905   3.173   8.142
 4903SOL    HW263549   0.861   3.170   8.299
 4904SOL     OW63550  14.021   1.971   6.243
 4904SOL    HW163551  14.115   1.939   6.229
 4904SOL    HW263552  13.957   1.905   6.204
 4905SOL     OW63553   7.214   3.427   7.157
 4905SOL    HW163554   7.193   3.362   7.085
 4905SOL    HW263555   7.244   3.514   7.117
 4906SOL     OW63556   0.924  12.897   7.335
 4906SOL    HW163557   0.825  12.887   7.324
 4906SOL    HW263558   0.968  12.807   7.336
 4907SOL     OW63559   4.629   3.538   0.462
 4907SOL    HW163560   4.550   3.546   0.523
 4907SOL    HW263561   4.711   3.520   0.515
 4908SOL     OW63562  15.410  13.920   0.351
 4908SOL    HW163563  15.333  13.962   0.302
 4908SOL    HW263564  15.419  13.825   0.324
 4909SOL     OW63565   0.038   9.767   1.072
 4909SOL    HW163566  16.977   9.786   0.984
 4909SOL    HW263567   0.083   9.850   1.106
 4910SOL     OW63568   9.814   0.789   6.399
 4910SOL    HW163569   9.826   0.698   6.362
 4910SOL    HW263570   9.866   0.855   6.345
 4911SOL     OW63571   7.375   1.211   8.128
 4911SOL    HW163572   7.464   1.170   8.149
 4911SOL    HW263573   7.303   1.142   8.139
 4912SOL     OW63574   1.692   3.460   6.236
 4912SOL    HW163575   1.610   3.432   6.186
 4912SOL    HW263576   1.774   3.430   6.186
 4913SOL     OW63577   5.510  13.279   2.173
 4913SOL    HW163578   5.586  13.226   2.137
 4913SOL    HW263579   5.544  13.365   2.211
 4914SOL     OW63580   1.925  10.898   8.152
 4914SOL    HW163581   1.832  10.862   8.140
 4914SOL    HW263582   1.991  10.825   8.135
 4915SOL     OW63583  11.570   2.189   0.999
 4915SOL    HW163584  11.516   2.245   0.936
 4915SOL    HW263585  11.667   2.208   0.985
 4916SOL     OW63586  12.627  12.551   1.510
 4916SOL    HW163587  12.599  12.646   1.522
 4916SOL    HW263588  12.580  12.512   1.431
 4917SOL     OW63589   7.139   1.916   7.712
 4917SOL    HW163590   7.082   1.941   7.791
 4917SOL    HW263591   7.082   1.911   7.630
 4918SOL     OW63592   9.000  10.416   1.581
 4918SOL    HW163593   9.072  10.486   1.578
 4918SOL    HW263594   9.034  10.335   1.628
 4919SOL     OW63595  16.465   4.343   0.040
 4919SOL    HW163596  16.407   4.262   0.043
 4919SOL    HW263597  16.510   4.355   0.128
 4920SOL     OW63598   3.052   2.748   1.255
 4920SOL    HW163599   3.101   2.787   1.177
 4920SOL    HW263600   3.076   2.797   1.338
 4921SOL     OW63601   8.628  13.200   1.257
 4921SOL    HW163602   8.688  13.169   1.330
 4921SOL    HW263603   8.606  13.297   1.271
 4922SOL     OW63604  16.976  13.011   8.037
 4922SOL    HW163605   0.040  13.098   8.030
 4922SOL    HW263606   0.052  12.944   8.081
 4923SOL     OW63607  16.328   2.062   5.848
 4923SOL    HW163608  16.413   2.047   5.898
 4923SOL    HW263609  16.256   2.004   5.886
 4924SOL     OW63610  15.479   6.217   7.803
 4924SOL    HW163611  15.489   6.307   7.846
 4924SOL    HW263612  15.409   6.165   7.852
 4925SOL     OW63613   5.008   4.256   0.587
 4925SOL    HW163614   5.099   4.220   0.610
 4925SOL    HW263615   5.018   4.346   0.543
 4926SOL     OW63616  13.533  10.748   8.152
 4926SOL    HW163617  13.588  10.805   8.213
 4926SOL    HW263618  13.472  10.806   8.098
 4927SOL     OW63619   1.782  11.508   7.747
 4927SOL    HW163620   1.784  11.423   7.800
 4927SOL    HW263621   1.796  11.487   7.650
 4928SOL     OW63622  11.660   5.618   1.252
 4928SOL    HW163623  11.677   5.701   1.305
 4928SOL    HW263624  11.600   5.557   1.304
 4929SOL     OW63625   6.142   0.304   7.581
 4929SOL    HW163626   6.231   0.297   7.538
 4929SOL    HW263627   6.150   0.352   7.669
 4930SOL     OW63628   5.767   6.011   7.560
 4930SOL    HW163629   5.852   6.064   7.552
 4930SOL    HW263630   5.696   6.054   7.505
 4931SOL     OW63631   5.159   4.940   1.707
 4931SOL    HW163632   5.161   4.840   1.714
 4931SOL    HW263633   5.101   4.966   1.630
 4932SOL     OW63634   0.874   3.997   8.115
 4932SOL    HW163635   0.969   4.024   8.095
 4932SOL    HW263636   0.852   3.915   8.063
 4933SOL     OW63637   2.688   8.709   7.197
 4933SOL    HW163638   2.769   8.696   7.140
 4933SOL    HW263639   2.631   8.781   7.158
 4934SOL     OW63640   1.798  15.074   2.010
 4934SOL    HW163641   1.761  15.068   2.102
 4934SOL    HW263642   1.753  15.149   1.961
 4935SOL     OW63643   8.085   8.704   0.705
 4935SOL    HW163644   8.070   8.646   0.785
 4935SOL    HW263645   8.183   8.722   0.695
 4936SOL     OW63646   0.505  11.005   1.278
 4936SOL    HW163647   0.544  11.054   1.356
 4936SOL    HW263648   0.461  11.070   1.216
 4937SOL     OW63649   8.912  15.505   2.364
 4937SOL    HW163650   8.920  15.486   2.462
 4937SOL    HW263651   8.820  15.480   2.333
 4938SOL     OW63652  11.238  14.346   7.813
 4938SOL    HW163653  11.216  14.442   7.800
 4938SOL    HW263654  11.155  14.295   7.835
 4939SOL     OW63655  10.298  16.713   6.326
 4939SOL    HW163656  10.260  16.657   6.399
 4939SOL    HW263657  10.313  16.656   6.245
 4940SOL     OW63658  10.392  12.588   0.490
 4940SOL    HW163659  10.473  12.561   0.542
 4940SOL    HW263660  10.419  12.627   0.402
 4941SOL     OW63661   9.526   1.247   6.826
 4941SOL    HW163662   9.617   1.288   6.821
 4941SOL    HW263663   9.511   1.209   6.917
 4942SOL     OW63664  16.888  12.572   7.263
 4942SOL    HW163665  16.862  12.668   7.250
 4942SOL    HW263666  16.853  12.517   7.187
 4943SOL     OW63667  11.227   5.873   6.534
 4943SOL    HW163668  11.226   5.886   6.435
 4943SOL    HW263669  11.133   5.880   6.568
 4944SOL     OW63670   4.552  12.898   1.813
 4944SOL    HW163671   4.634  12.885   1.869
 4944SOL    HW263672   4.479  12.938   1.869
 4945SOL     OW63673   8.512  10.495   0.450
 4945SOL    HW163674   8.511  10.484   0.549
 4945SOL    HW263675   8.494  10.590   0.426
 4946SOL     OW63676   4.965   9.020   7.600
 4946SOL    HW163677   4.956   8.925   7.629
 4946SOL    HW263678   4.879   9.052   7.561
 4947SOL     OW63679   2.624   7.722   7.206
 4947SOL    HW163680   2.682   7.779   7.264
 4947SOL    HW263681   2.530   7.759   7.206
 4948SOL     OW63682   8.806  16.499   7.354
 4948SOL    HW163683   8.863  16.442   7.294
 4948SOL    HW263684   8.777  16.445   7.433
 4949SOL     OW63685  15.118  10.066   8.242
 4949SOL    HW163686  15.108   9.986   8.184
 4949SOL    HW263687  15.052  10.061   8.317
 4950SOL     OW63688  15.975  11.996   1.922
 4950SOL    HW163689  15.907  12.062   1.890
 4950SOL    HW263690  15.931  11.908   1.938
 4951SOL     OW63691  14.404  15.227   7.768
 4951SOL    HW163692  14.502  15.207   7.761
 4951SOL    HW263693  14.392  15.326   7.779
 4952SOL     OW63694   1.213  16.797   1.637
 4952SOL    HW163695   1.248  16.878   1.684
 4952SOL    HW263696   1.172  16.823   1.550
 4953SOL     OW63697  10.346   4.909   1.567
 4953SOL    HW163698  10.443   4.916   1.545
 4953SOL    HW263699  10.299   4.858   1.495
 4954SOL     OW63700   7.165  11.705   7.803
 4954SOL    HW163701   7.258  11.669   7.794
 4954SOL    HW263702   7.144  11.764   7.725
 4955SOL     OW63703   4.546   7.966   7.593
 4955SOL    HW163704   4.602   7.901   7.541
 4955SOL    HW263705   4.605   8.016   7.657
 4956SOL     OW63706   6.175   8.840   7.008
 4956SOL    HW163707   6.255   8.804   7.056
 4956SOL    HW263708   6.133   8.913   7.062
 4957SOL     OW63709   5.400  13.591   1.585
 4957SOL    HW163710   5.356  13.554   1.666
 4957SOL    HW263711   5.476  13.650   1.612
 4958SOL     OW63712   9.223  10.833   8.351
 4958SOL    HW163713   9.187  10.872   8.437
 4958SOL    HW263714   9.305  10.882   8.324
 4959SOL     OW63715  16.154   6.146   0.914
 4959SOL    HW163716  16.223   6.216   0.894
 4959SOL    HW263717  16.147   6.084   0.836
 4960SOL     OW63718   0.806  16.390   7.216
 4960SOL    HW163719   0.888  16.332   7.213
 4960SOL    HW263720   0.769  16.388   7.309
 4961SOL     OW63721   8.676  12.794   0.364
 4961SOL    HW163722   8.769  12.756   0.356
 4961SOL    HW263723   8.636  12.767   0.451
 4962SOL     OW63724   3.392   6.954   7.368
 4962SOL    HW163725   3.306   7.000   7.352
 4962SOL    HW263726   3.457   6.977   7.295
 4963SOL     OW63727  12.700   6.370   7.404
 4963SOL    HW163728  12.704   6.292   7.342
 4963SOL    HW263729  12.758   6.443   7.369
 4964SOL     OW63730   3.356  10.663   0.499
 4964SOL    HW163731   3.330  10.706   0.412
 4964SOL    HW263732   3.455  10.653   0.503
 4965SOL     OW63733   2.146   7.198   1.335
 4965SOL    HW163734   2.154   7.144   1.418
 4965SOL    HW263735   2.053   7.193   1.300
 4966SOL     OW63736  15.503  13.158   7.981
 4966SOL    HW163737  15.427  13.217   8.009
 4966SOL    HW263738  15.487  13.065   8.014
 4967SOL     OW63739   6.130   9.116   1.030
 4967SOL    HW163740   6.067   9.191   1.050
 4967SOL    HW263741   6.098   9.033   1.077
 4968SOL     OW63742  15.887   4.605   0.125
 4968SOL    HW163743  15.936   4.662   0.190
 4968SOL    HW263744  15.820   4.660   0.075
 4969SOL     OW63745  13.450  13.840   0.278
 4969SOL    HW163746  13.535  13.808   0.320
 4969SOL    HW263747  13.408  13.910   0.335
 4970SOL     OW63748  14.730  14.588   0.383
 4970SOL    HW163749  14.704  14.492   0.381
 4970SOL    HW263750  14.723  14.627   0.291
 4971SOL     OW63751   2.239   2.767   1.908
 4971SOL    HW163752   2.262   2.725   1.996
 4971SOL    HW263753   2.313   2.751   1.843
 4972SOL     OW63754  12.847  12.253   0.321
 4972SOL    HW163755  12.816  12.311   0.246
 4972SOL    HW263756  12.871  12.310   0.400
 4973SOL     OW63757   1.241  12.490   1.852
 4973SOL    HW163758   1.171  12.451   1.911
 4973SOL    HW263759   1.329  12.487   1.899
 4974SOL     OW63760   3.392   4.554   7.102
 4974SOL    HW163761   3.301   4.526   7.072
 4974SOL    HW263762   3.452   4.474   7.105
 4975SOL     OW63763   1.099  12.924   0.346
 4975SOL    HW163764   1.042  13.005   0.329
 4975SOL    HW263765   1.145  12.898   0.261
 4976SOL     OW63766  15.597   9.436   2.377
 4976SOL    HW163767  15.651   9.494   2.438
 4976SOL    HW263768  15.517   9.487   2.345
 4977SOL     OW63769  14.143   5.092   0.084
 4977SOL    HW163770  14.146   5.179   0.133
 4977SOL    HW263771  14.181   5.104   8.446
 4978SOL     OW63772  16.336   9.434   1.024
 4978SOL    HW163773  16.370   9.518   0.983
 4978SOL    HW263774  16.246   9.413   0.987
 4979SOL     OW63775  10.728  16.750   1.179
 4979SOL    HW163776  10.721  16.667   1.122
 4979SOL    HW263777  10.786  16.731   1.258
 4980SOL     OW63778   9.164  13.189   1.190
 4980SOL    HW163779   9.200  13.175   1.282
 4980SOL    HW263780   9.093  13.259   1.192
 4981SOL     OW63781   3.032   0.217   2.501
 4981SOL    HW163782   3.051   0.158   2.580
 4981SOL    HW263783   2.939   0.254   2.510
 4982SOL     OW63784   6.408  13.842   7.939
 4982SOL    HW163785   6.352  13.825   7.858
 4982SOL    HW263786   6.421  13.941   7.950
 4983SOL     OW63787   8.865   2.255   7.852
 4983SOL    HW163788   8.765   2.248   7.858
 4983SOL    HW263789   8.904   2.163   7.845
 4984SOL     OW63790   2.069   8.488   1.099
 4984SOL    HW163791   1.994   8.437   1.141
 4984SOL    HW263792   2.032   8.570   1.054
 4985SOL     OW63793  14.918   0.849   7.263
 4985SOL    HW163794  14.841   0.790   7.235
 4985SOL    HW263795  14.902   0.882   7.356
 4986SOL     OW63796   9.028   8.261   8.336
 4986SOL    HW163797   9.088   8.183   8.321
 4986SOL    HW263798   8.948   8.255   8.277
 4987SOL     OW63799   7.186   1.004   8.181
 4987SOL    HW163800   7.201   0.907   8.201
 4987SOL    HW263801   7.179   1.055   8.267
 4988SOL     OW63802   2.901  14.015   0.092
 4988SOL    HW163803   2.899  14.080   0.169
 4988SOL    HW263804   2.983  14.031   0.037
 4989SOL     OW63805   6.688   0.338   7.734
 4989SOL    HW163806   6.590   0.354   7.744
 4989SOL    HW263807   6.725   0.395   7.661
 4990SOL     OW63808  15.946   1.366   0.583
 4990SOL    HW163809  16.034   1.367   0.534
 4990SOL    HW263810  15.927   1.273   0.614
 4991SOL     OW63811   4.703   2.733   7.530
 4991SOL    HW163812   4.680   2.649   7.580
 4991SOL    HW263813   4.766   2.711   7.456
 4992SOL     OW63814   9.993   8.301   0.671
 4992SOL    HW163815  10.047   8.385   0.680
 4992SOL    HW263816  10.045   8.234   0.619
 4993SOL     OW63817   1.292   2.816   0.465
 4993SOL    HW163818   1.288   2.792   0.562
 4993SOL    HW263819   1.384   2.797   0.430
 4994SOL     OW63820   8.159   5.771   6.860
 4994SOL    HW163821   8.158   5.702   6.788
 4994SOL    HW263822   8.067   5.808   6.871
 4995SOL     OW63823   1.388   1.727   2.034
 4995SOL    HW163824   1.325   1.652   2.054
 4995SOL    HW263825   1.417   1.769   2.120
 4996SOL     OW63826   7.163  10.274   1.958
 4996SOL    HW163827   7.223  10.322   2.021
 4996SOL    HW263828   7.120  10.197   2.005
 4997SOL     OW63829  15.487  10.221   1.428
 4997SOL    HW163830  15.504  10.146   1.491
 4997SOL    HW263831  15.452  10.300   1.478
 4998SOL     OW63832   1.356  13.932   2.212
 4998SOL    HW163833   1.315  13.932   2.303
 4998SOL    HW263834   1.315  13.858   2.158
 4999SOL     OW63835   2.859  16.899   0.195
 4999SOL    HW163836   2.938  16.845   0.224
 4999SOL    HW263837   2.775  16.854   0.226
 5000SOL     OW63838   3.512   7.098   7.144
 5000SOL    HW163839   3.441   7.039   7.104
 5000SOL    HW263840   3.530   7.175   7.083
 5001SOL     OW63841   9.328   8.638   0.562
 5001SOL    HW163842   9.371   8.704   0.624
 5001SOL    HW263843   9.296   8.559   0.615
 5002SOL     OW63844   7.168  14.445   8.132
 5002SOL    HW163845   7.091  14.396   8.092
 5002SOL    HW263846   7.213  14.387   8.200
 5003SOL     OW63847  14.153  12.650   7.208
 5003SOL    HW163848  14.075  12.713   7.208
 5003SOL    HW263849  14.159  12.605   7.119
 5004SOL     OW63850   3.715   2.425   6.606
 5004SOL    HW163851   3.687   2.502   6.549
 5004SOL    HW263852   3.765   2.359   6.551
 5005SOL     OW63853  10.982   0.599   0.678
 5005SOL    HW163854  10.911   0.529   0.686
 5005SOL    HW263855  10.990   0.627   0.582
 5006SOL     OW63856   3.237   7.911   1.081
 5006SOL    HW163857   3.145   7.949   1.069
 5006SOL    HW263858   3.300   7.957   1.019
 5007SOL     OW63859   0.614   0.019   7.069
 5007SOL    HW163860   0.525   0.056   7.095
 5007SOL    HW263861   0.681   0.093   7.066
 5008SOL     OW63862  13.623   0.419   1.087
 5008SOL    HW163863  13.661   0.353   1.152
 5008SOL    HW263864  13.523   0.411   1.085
 5009SOL     OW63865  11.703  13.676   0.199
 5009SOL    HW163866  11.740  13.690   0.107
 5009SOL    HW263867  11.771  13.706   0.266
 5010SOL     OW63868  10.044   1.676   8.204
 5010SOL    HW163869  10.042   1.771   8.173
 5010SOL    HW263870  10.139   1.645   8.210
 5011SOL     OW63871   3.707   1.326   8.256
 5011SOL    HW163872   3.692   1.320   8.157
 5011SOL    HW263873   3.621   1.307   8.304
 5012SOL     OW63874  14.420  15.963   0.752
 5012SOL    HW163875  14.446  15.912   0.670
 5012SOL    HW263876  14.460  16.054   0.750
 5013SOL     OW63877   6.342  10.509   7.180
 5013SOL    HW163878   6.343  10.557   7.093
 5013SOL    HW263879   6.405  10.431   7.176
 5014SOL     OW63880  16.389  11.262   7.477
 5014SOL    HW163881  16.477  11.259   7.525
 5014SOL    HW263882  16.320  11.303   7.536
 5015SOL     OW63883   3.410   5.622   6.516
 5015SOL    HW163884   3.367   5.612   6.426
 5015SOL    HW263885   3.340   5.645   6.583
 5016SOL     OW63886   6.703  15.049   8.170
 5016SOL    HW163887   6.647  15.130   8.190
 5016SOL    HW263888   6.795  15.079   8.143
 5017SOL     OW63889   1.668   3.141   1.547
 5017SOL    HW163890   1.594   3.078   1.570
 5017SOL    HW263891   1.630   3.233   1.535
 5018SOL     OW63892  13.721  12.330   7.573
 5018SOL    HW163893  13.745  12.249   7.519
 5018SOL    HW263894  13.801  12.389   7.582
 5019SOL     OW63895   6.300  10.398   7.983
 5019SOL    HW163896   6.303  10.325   7.914
 5019SOL    HW263897   6.349  10.368   8.065
 5020SOL     OW63898  15.225   8.210   6.965
 5020SOL    HW163899  15.265   8.122   6.938
 5020SOL    HW263900  15.141   8.226   6.913
 5021SOL     OW63901   7.643   6.014   7.711
 5021SOL    HW163902   7.546   6.036   7.709
 5021SOL    HW263903   7.665   5.966   7.796
 5022SOL     OW63904   7.194   0.680   0.728
 5022SOL    HW163905   7.186   0.588   0.689
 5022SOL    HW263906   7.110   0.731   0.713
 5023SOL     OW63907  11.098  15.417   7.168
 5023SOL    HW163908  11.124  15.509   7.138
 5023SOL    HW263909  11.004  15.399   7.140
 5024SOL     OW63910  14.189  16.086   8.359
 5024SOL    HW163911  14.183  16.142   8.277
 5024SOL    HW263912  14.280  16.097   8.400
 5025SOL     OW63913  11.148  13.430   6.583
 5025SOL    HW163914  11.154  13.361   6.510
 5025SOL    HW263915  11.159  13.521   6.543
 5026SOL     OW63916  15.548  16.042   7.870
 5026SOL    HW163917  15.623  16.096   7.833
 5026SOL    HW263918  15.569  16.014   7.964
 5027SOL     OW63919   2.657   8.595   6.762
 5027SOL    HW163920   2.648   8.515   6.821
 5027SOL    HW263921   2.751   8.629   6.766
 5028SOL     OW63922  10.130   1.765   5.657
 5028SOL    HW163923  10.051   1.777   5.597
 5028SOL    HW263924  10.173   1.854   5.674
 5029SOL     OW63925   0.112  14.648   8.162
 5029SOL    HW163926   0.054  14.630   8.083
 5029SOL    HW263927   0.181  14.717   8.138
 5030SOL     OW63928   0.781   1.754   0.483
 5030SOL    HW163929   0.765   1.848   0.511
 5030SOL    HW263930   0.715   1.727   0.413
 5031SOL     OW63931   3.883   9.150   0.673
 5031SOL    HW163932   3.971   9.130   0.716
 5031SOL    HW263933   3.894   9.147   0.574
 5032SOL     OW63934  10.573   8.905   8.330
 5032SOL    HW163935  10.506   8.854   8.276
 5032SOL    HW263936  10.647   8.936   8.270
 5033SOL     OW63937   3.236   9.041   0.296
 5033SOL    HW163938   3.326   9.007   0.267
 5033SOL    HW263939   3.248   9.120   0.355
 5034SOL     OW63940  14.821   3.950   7.644
 5034SOL    HW163941  14.765   3.924   7.566
 5034SOL    HW263942  14.917   3.927   7.626
 5035SOL     OW63943  10.411  14.943   0.092
 5035SOL    HW163944  10.341  15.014   0.090
 5035SOL    HW263945  10.479  14.965   0.162
 5036SOL     OW63946   1.570   7.685   1.002
 5036SOL    HW163947   1.551   7.781   1.020
 5036SOL    HW263948   1.656   7.677   0.951
 5037SOL     OW63949  14.732  13.721   7.913
 5037SOL    HW163950  14.636  13.726   7.887
 5037SOL    HW263951  14.748  13.637   7.966
 5038SOL     OW63952  14.973  11.470   1.286
 5038SOL    HW163953  15.047  11.506   1.342
 5038SOL    HW263954  14.892  11.528   1.297
 5039SOL     OW63955  11.764  12.516   7.584
 5039SOL    HW163956  11.798  12.601   7.624
 5039SOL    HW263957  11.806  12.504   7.494
 5040SOL     OW63958   4.053  16.941   0.207
 5040SOL    HW163959   3.972  16.974   0.157
 5040SOL    HW263960   4.109  16.885   0.145
 5041SOL     OW63961  16.507  10.197   2.321
 5041SOL    HW163962  16.579  10.133   2.346
 5041SOL    HW263963  16.541  10.291   2.328
 5042SOL     OW63964  10.451  12.326   7.573
 5042SOL    HW163965  10.352  12.339   7.569
 5042SOL    HW263966  10.475  12.240   7.529
 5043SOL     OW63967  11.088   0.041   6.725
 5043SOL    HW163968  11.090  16.963   6.646
 5043SOL    HW263969  11.158   0.014   6.790
 5044SOL     OW63970  10.772   0.875   0.115
 5044SOL    HW163971  10.738   0.785   0.087
 5044SOL    HW263972  10.732   0.945   0.056
 5045SOL     OW63973   4.769  14.860   1.802
 5045SOL    HW163974   4.852  14.873   1.856
 5045SOL    HW263975   4.698  14.818   1.858
 5046SOL     OW63976   7.898   7.303   0.693
 5046SOL    HW163977   7.838   7.366   0.744
 5046SOL    HW263978   7.974   7.276   0.751
 5047SOL     OW63979   1.711   6.505   1.155
 5047SOL    HW163980   1.659   6.433   1.201
 5047SOL    HW263981   1.650   6.560   1.099
 5048SOL     OW63982   0.158  11.153   0.123
 5048SOL    HW163983   0.229  11.129   0.188
 5048SOL    HW263984   0.120  11.243   0.147
 5049SOL     OW63985   5.797   2.465   1.651
 5049SOL    HW163986   5.837   2.423   1.732
 5049SOL    HW263987   5.842   2.431   1.569
 5050SOL     OW63988   0.559   9.049   1.486
 5050SOL    HW163989   0.617   9.083   1.560
 5050SOL    HW263990   0.494   9.119   1.459
 5051SOL     OW63991  14.625  11.992   2.054
 5051SOL    HW163992  14.605  12.088   2.034
 5051SOL    HW263993  14.555  11.955   2.116
 5052SOL     OW63994  13.236  16.929   7.685
 5052SOL    HW163995  13.214   0.014   7.753
 5052SOL    HW263996  13.152  16.888   7.650
 5053SOL     OW63997   2.720  16.499   7.417
 5053SOL    HW163998   2.766  16.458   7.495
 5053SOL    HW263999   2.759  16.462   7.332
 5054SOL     OW64000   6.766   6.189   1.692
 5054SOL    HW164001   6.673   6.213   1.717
 5054SOL    HW264002   6.826   6.198   1.772
 5055SOL     OW64003   9.080  10.113   6.992
 5055SOL    HW164004   9.153  10.145   6.932
 5055SOL    HW264005   9.041  10.029   6.954
 5056SOL     OW64006   0.008   9.917   0.617
 5056SOL    HW164007  16.927   9.950   0.548
 5056SOL    HW264008   0.086   9.980   0.622
 5057SOL     OW64009   7.587  13.948   7.348
 5057SOL    HW164010   7.572  13.925   7.445
 5057SOL    HW264011   7.668  13.900   7.315
 5058SOL     OW64012   8.431   4.369   6.876
 5058SOL    HW164013   8.360   4.303   6.851
 5058SOL    HW264014   8.502   4.323   6.929
 5059SOL     OW64015   3.643   2.642   6.435
 5059SOL    HW164016   3.684   2.729   6.406
 5059SOL    HW264017   3.563   2.622   6.379
 5060SOL     OW64018  11.086   1.344   7.126
 5060SOL    HW164019  11.093   1.299   7.215
 5060SOL    HW264020  11.170   1.328   7.074
 5061SOL     OW64021   8.995  10.486   6.888
 5061SOL    HW164022   8.976  10.584   6.892
 5061SOL    HW264023   8.991  10.447   6.980
 5062SOL     OW64024   7.956   2.517   1.679
 5062SOL    HW164025   7.989   2.429   1.644
 5062SOL    HW264026   7.967   2.519   1.778
 5063SOL     OW64027   3.703  15.757   0.346
 5063SOL    HW164028   3.618  15.769   0.397
 5063SOL    HW264029   3.725  15.660   0.340
 5064SOL     OW64030  14.708   2.519   1.030
 5064SOL    HW164031  14.668   2.605   1.062
 5064SOL    HW264032  14.658   2.488   0.949
 5065SOL     OW64033   4.895   5.715   7.708
 5065SOL    HW164034   4.974   5.658   7.686
 5065SOL    HW264035   4.841   5.670   7.779
 5066SOL     OW64036  14.805   7.311   7.625
 5066SOL    HW164037  14.860   7.320   7.708
 5066SOL    HW264038  14.785   7.214   7.609
 5067SOL     OW64039  15.987  11.091   2.488
 5067SOL    HW164040  15.972  11.108   2.585
 5067SOL    HW264041  16.012  10.995   2.474
 5068SOL     OW64042   2.339   6.424   6.228
 5068SOL    HW164043   2.426   6.457   6.193
 5068SOL    HW264044   2.269   6.494   6.213
 5069SOL     OW64045   6.914   4.551   1.376
 5069SOL    HW164046   6.874   4.460   1.386
 5069SOL    HW264047   6.947   4.563   1.283
 5070SOL     OW64048   8.612   6.165   0.178
 5070SOL    HW164049   8.577   6.249   0.137
 5070SOL    HW264050   8.632   6.099   0.105
 5071SOL     OW64051  14.315   7.099   7.270
 5071SOL    HW164052  14.217   7.117   7.282
 5071SOL    HW264053  14.366   7.184   7.284
 5072SOL     OW64054  11.036   9.327   7.563
 5072SOL    HW164055  10.995   9.341   7.472
 5072SOL    HW264056  11.064   9.415   7.600
 5073SOL     OW64057  10.688   0.014   6.095
 5073SOL    HW164058  10.655   0.107   6.113
 5073SOL    HW264059  10.611  16.938   6.074
 5074SOL     OW64060   6.819   7.042   6.772
 5074SOL    HW164061   6.864   7.079   6.691
 5074SOL    HW264062   6.735   7.094   6.790
 5075SOL     OW64063  13.344   1.107   1.545
 5075SOL    HW164064  13.295   1.194   1.541
 5075SOL    HW264065  13.339   1.070   1.638
 5076SOL     OW64066  12.548   8.381   1.912
 5076SOL    HW164067  12.598   8.464   1.889
 5076SOL    HW264068  12.560   8.361   2.010
 5077SOL     OW64069   1.678  12.362   8.131
 5077SOL    HW164070   1.634  12.285   8.084
 5077SOL    HW264071   1.760  12.330   8.178
 5078SOL     OW64072   8.251   3.533   7.555
 5078SOL    HW164073   8.166   3.482   7.540
 5078SOL    HW264074   8.254   3.612   7.495
 5079SOL     OW64075  11.169   9.812   7.187
 5079SOL    HW164076  11.165   9.898   7.239
 5079SOL    HW264077  11.257   9.767   7.203
 5080SOL     OW64078   2.376   4.184   6.060
 5080SOL    HW164079   2.306   4.129   6.013
 5080SOL    HW264080   2.415   4.250   5.996
 5081SOL     OW64081   6.871   9.636   0.856
 5081SOL    HW164082   6.840   9.547   0.890
 5081SOL    HW264083   6.881   9.699   0.933
 5082SOL     OW64084  15.679  15.246   0.120
 5082SOL    HW164085  15.597  15.263   0.065
 5082SOL    HW264086  15.672  15.295   0.206
 5083SOL     OW64087  12.202  11.017   0.241
 5083SOL    HW164088  12.226  10.929   0.202
 5083SOL    HW264089  12.240  11.090   0.185
 5084SOL     OW64090  16.234  11.396   0.291
 5084SOL    HW164091  16.217  11.336   0.213
 5084SOL    HW264092  16.156  11.458   0.303
 5085SOL     OW64093  10.420  15.192   6.896
 5085SOL    HW164094  10.380  15.102   6.878
 5085SOL    HW264095  10.393  15.255   6.824
 5086SOL     OW64096  12.951  16.214   0.862
 5086SOL    HW164097  12.925  16.307   0.835
 5086SOL    HW264098  12.950  16.207   0.962
 5087SOL     OW64099  13.052  16.828   1.603
 5087SOL    HW164100  13.034  16.869   1.513
 5087SOL    HW264101  13.020  16.734   1.603
 5088SOL     OW64102   7.578  16.615   8.186
 5088SOL    HW164103   7.563  16.529   8.137
 5088SOL    HW264104   7.567  16.600   8.284
 5089SOL     OW64105  15.568  11.823   0.313
 5089SOL    HW164106  15.543  11.893   0.380
 5089SOL    HW264107  15.531  11.734   0.343
 5090SOL     OW64108   0.246   7.254   6.568
 5090SOL    HW164109   0.231   7.247   6.667
 5090SOL    HW264110   0.223   7.346   6.538
 5091SOL     OW64111  11.534   3.849   7.204
 5091SOL    HW164112  11.620   3.810   7.235
 5091SOL    HW264113  11.517   3.935   7.252
 5092SOL     OW64114  15.916  15.296   7.191
 5092SOL    HW164115  15.969  15.380   7.177
 5092SOL    HW264116  15.924  15.237   7.111
 5093SOL     OW64117  12.920  16.152   8.321
 5093SOL    HW164118  12.948  16.059   8.296
 5093SOL    HW264119  12.843  16.148   8.385
 5094SOL     OW64120   9.149  10.921   7.175
 5094SOL    HW164121   9.067  10.880   7.135
 5094SOL    HW264122   9.166  10.880   7.265
 5095SOL     OW64123  15.889   5.266   7.746
 5095SOL    HW164124  15.919   5.361   7.757
 5095SOL    HW264125  15.847   5.235   7.831
 5096SOL     OW64126   5.606   4.630   0.927
 5096SOL    HW164127   5.690   4.622   0.980
 5096SOL    HW264128   5.626   4.617   0.830
 5097SOL     OW64129   8.528  10.296   0.917
 5097SOL    HW164130   8.430  10.284   0.934
 5097SOL    HW264131   8.562  10.220   0.862
 5098SOL     OW64132   7.605   5.044   1.499
 5098SOL    HW164133   7.525   5.066   1.444
 5098SOL    HW264134   7.609   4.946   1.515
 5099SOL     OW64135   8.168  14.911   7.986
 5099SOL    HW164136   8.267  14.913   7.997
 5099SOL    HW264137   8.143  14.956   7.900
 5100SOL     OW64138   6.945  15.961   8.276
 5100SOL    HW164139   6.900  15.933   8.191
 5100SOL    HW264140   6.969  16.058   8.270
 5101SOL     OW64141  10.475  15.605   1.806
 5101SOL    HW164142  10.396  15.600   1.868
 5101SOL    HW264143  10.535  15.679   1.836
 5102SOL     OW64144   5.407  14.558   1.617
 5102SOL    HW164145   5.502  14.572   1.647
 5102SOL    HW264146   5.344  14.592   1.687
 5103SOL     OW64147  14.654   3.653   6.063
 5103SOL    HW164148  14.679   3.709   5.984
 5103SOL    HW264149  14.568   3.605   6.043
 5104SOL     OW64150   3.749   0.041   7.776
 5104SOL    HW164151   3.785   0.126   7.813
 5104SOL    HW264152   3.771   0.034   7.679
 5105SOL     OW64153  13.474   2.036   7.135
 5105SOL    HW164154  13.566   1.997   7.131
 5105SOL    HW264155  13.464   2.104   7.062
 5106SOL     OW64156   8.279  11.157   1.269
 5106SOL    HW164157   8.291  11.058   1.280
 5106SOL    HW264158   8.195  11.185   1.315
 5107SOL     OW64159   2.424   0.587   1.532
 5107SOL    HW164160   2.388   0.639   1.610
 5107SOL    HW264161   2.358   0.592   1.457
 5108SOL     OW64162  12.518   8.367   7.005
 5108SOL    HW164163  12.450   8.439   6.991
 5108SOL    HW264164  12.559   8.376   7.096
 5109SOL     OW64165  11.979   7.045   7.803
 5109SOL    HW164166  12.066   7.000   7.823
 5109SOL    HW264167  11.989   7.144   7.815
 5110SOL     OW64168   9.146  15.151   8.049
 5110SOL    HW164169   9.070  15.093   8.018
 5110SOL    HW264170   9.207  15.097   8.107
 5111SOL     OW64171   2.161   0.242   2.061
 5111SOL    HW164172   2.261   0.245   2.061
 5111SOL    HW264173   2.130   0.188   2.139
 5112SOL     OW64174   1.461   1.089   1.115
 5112SOL    HW164175   1.479   1.035   1.033
 5112SOL    HW264176   1.512   1.175   1.111
 5113SOL     OW64177   6.958   6.434   7.190
 5113SOL    HW164178   6.966   6.531   7.213
 5113SOL    HW264179   7.033   6.383   7.234
 5114SOL     OW64180   9.944   1.600   8.446
 5114SOL    HW164181  10.027   1.564   0.035
 5114SOL    HW264182   9.963   1.624   8.351
 5115SOL     OW64183   5.354   4.301   0.166
 5115SOL    HW164184   5.356   4.356   0.250
 5115SOL    HW264185   5.261   4.302   0.129
 5116SOL     OW64186   6.731   7.481   0.705
 5116SOL    HW164187   6.638   7.511   0.684
 5116SOL    HW264188   6.794   7.557   0.691
 5117SOL     OW64189  10.623  14.421   2.005
 5117SOL    HW164190  10.670  14.374   2.079
 5117SOL    HW264191  10.590  14.509   2.037
 5118SOL     OW64192   6.930  12.382   0.677
 5118SOL    HW164193   6.979  12.461   0.642
 5118SOL    HW264194   6.995  12.310   0.702
 5119SOL     OW64195   6.013   3.278   8.162
 5119SOL    HW164196   6.070   3.243   8.089
 5119SOL    HW264197   6.038   3.234   8.248
 5120SOL     OW64198  10.612   5.262   0.077
 5120SOL    HW164199  10.560   5.183   0.111
 5120SOL    HW264200  10.684   5.285   0.142
 5121SOL     OW64201   0.212   1.836   6.922
 5121SOL    HW164202   0.215   1.909   6.854
 5121SOL    HW264203   0.279   1.855   6.994
 5122SOL     OW64204   0.293  14.567   0.469
 5122SOL    HW164205   0.238  14.508   0.410
 5122SOL    HW264206   0.283  14.536   0.564
 5123SOL     OW64207  10.698  15.083   7.688
 5123SOL    HW164208  10.699  14.997   7.740
 5123SOL    HW264209  10.726  15.158   7.747
 5124SOL     OW64210   5.960   3.964   0.736
 5124SOL    HW164211   6.015   3.889   0.773
 5124SOL    HW264212   5.865   3.954   0.767
 5125SOL     OW64213  12.214  16.899   0.462
 5125SOL    HW164214  12.279  16.870   0.532
 5125SOL    HW264215  12.243   0.003   0.423
 5126SOL     OW64216   8.427   2.096   6.313
 5126SOL    HW164217   8.353   2.051   6.362
 5126SOL    HW264218   8.391   2.176   6.265
 5127SOL     OW64219  16.024   8.551   0.191
 5127SOL    HW164220  15.952   8.546   0.122
 5127SOL    HW264221  16.113   8.561   0.146
 5128SOL     OW64222   5.792   3.598   1.792
 5128SOL    HW164223   5.760   3.517   1.840
 5128SOL    HW264224   5.715   3.659   1.772
 5129SOL     OW64225  15.155   4.832   8.271
 5129SOL    HW164226  15.081   4.889   8.308
 5129SOL    HW264227  15.233   4.890   8.247
 5130SOL     OW64228   6.707  16.911   1.292
 5130SOL    HW164229   6.750  16.932   1.204
 5130SOL    HW264230   6.665  16.820   1.288
 5131SOL     OW64231  14.279   4.178   8.318
 5131SOL    HW164232  14.268   4.251   8.385
 5131SOL    HW264233  14.239   4.094   8.353
 5132SOL     OW64234  13.575  14.780   7.073
 5132SOL    HW164235  13.493  14.723   7.083
 5132SOL    HW264236  13.594  14.794   6.976
 5133SOL     OW64237  10.280  16.218   7.954
 5133SOL    HW164238  10.198  16.172   7.921
 5133SOL    HW264239  10.335  16.155   8.009
 5134SOL     OW64240   9.186   9.610   0.028
 5134SOL    HW164241   9.247   9.536   0.001
 5134SOL    HW264242   9.147   9.590   0.118
 5135SOL     OW64243   2.392  14.396   1.122
 5135SOL    HW164244   2.374  14.438   1.211
 5135SOL    HW264245   2.355  14.303   1.121
 5136SOL     OW64246   6.305  13.820   1.163
 5136SOL    HW164247   6.372  13.875   1.113
 5136SOL    HW264248   6.244  13.774   1.099
 5137SOL     OW64249   4.057   6.831   8.047
 5137SOL    HW164250   4.077   6.738   8.015
 5137SOL    HW264251   4.019   6.827   8.139
 5138SOL     OW64252  13.529  10.213   2.617
 5138SOL    HW164253  13.571  10.133   2.659
 5138SOL    HW264254  13.444  10.235   2.664
 5139SOL     OW64255  14.561   6.589   7.816
 5139SOL    HW164256  14.637   6.559   7.873
 5139SOL    HW264257  14.585   6.576   7.720
 5140SOL     OW64258   4.887   1.221   1.257
 5140SOL    HW164259   4.850   1.128   1.262
 5140SOL    HW264260   4.984   1.217   1.231
 5141SOL     OW64261   6.889   4.336   1.064
 5141SOL    HW164262   6.798   4.334   1.105
 5141SOL    HW264263   6.940   4.255   1.093
 5142SOL     OW64264   7.975  15.792   0.242
 5142SOL    HW164265   7.883  15.778   0.278
 5142SOL    HW264266   8.014  15.703   0.216
 5143SOL     OW64267   4.127   0.271   1.484
 5143SOL    HW164268   4.214   0.318   1.470
 5143SOL    HW264269   4.063   0.332   1.532
 5144SOL     OW64270   6.061  15.628   6.495
 5144SOL    HW164271   6.138  15.622   6.558
 5144SOL    HW264272   6.063  15.717   6.449
 5145SOL     OW64273  12.640   0.211   1.401
 5145SOL    HW164274  12.545   0.230   1.425
 5145SOL    HW264275  12.665   0.265   1.320
 5146SOL     OW64276  15.921   1.954   1.281
 5146SOL    HW164277  15.928   1.874   1.222
 5146SOL    HW264278  16.005   1.964   1.334
 5147SOL     OW64279  14.513  13.452   0.302
 5147SOL    HW164280  14.571  13.447   0.220
 5147SOL    HW264281  14.516  13.364   0.350
 5148SOL     OW64282   6.696  16.118   7.246
 5148SOL    HW164283   6.754  16.122   7.165
 5148SOL    HW264284   6.604  16.086   7.220
 5149SOL     OW64285  15.601   7.156   1.452
 5149SOL    HW164286  15.576   7.076   1.507
 5149SOL    HW264287  15.699   7.155   1.434
 5150SOL     OW64288   2.978  10.739   7.889
 5150SOL    HW164289   2.951  10.679   7.964
 5150SOL    HW264290   3.070  10.714   7.858
 5151SOL     OW64291   5.782  11.510   7.641
 5151SOL    HW164292   5.712  11.546   7.580
 5151SOL    HW264293   5.740  11.482   7.727
 5152SOL     OW64294  11.831  10.362   8.341
 5152SOL    HW164295  11.882  10.278   8.322
 5152SOL    HW264296  11.869  10.406   8.423
 5153SOL     OW64297  10.851   0.062   0.347
 5153SOL    HW164298  10.902   0.144   0.322
 5153SOL    HW264299  10.776   0.047   0.282
 5154SOL     OW64300  10.511   9.807   6.866
 5154SOL    HW164301  10.432   9.834   6.921
 5154SOL    HW264302  10.493   9.719   6.822
 5155SOL     OW64303   2.740  11.466   7.699
 5155SOL    HW164304   2.737  11.366   7.704
 5155SOL    HW264305   2.835  11.496   7.690
 5156SOL     OW64306   1.746  13.442   1.443
 5156SOL    HW164307   1.802  13.440   1.526
 5156SOL    HW264308   1.657  13.480   1.464
 5157SOL     OW64309   0.132  16.373   0.552
 5157SOL    HW164310   0.194  16.432   0.501
 5157SOL    HW264311   0.170  16.353   0.642
 5158SOL     OW64312   5.465   3.046   2.115
 5158SOL    HW164313   5.488   2.967   2.171
 5158SOL    HW264314   5.434   3.121   2.175
 5159SOL     OW64315  11.915   0.580   7.422
 5159SOL    HW164316  11.863   0.649   7.472
 5159SOL    HW264317  11.856   0.534   7.357
 5160SOL     OW64318   8.549   5.295   6.864
 5160SOL    HW164319   8.552   5.195   6.873
 5160SOL    HW264320   8.604   5.337   6.936
 5161SOL     OW64321  11.943  13.380   7.872
 5161SOL    HW164322  11.969  13.410   7.780
 5161SOL    HW264323  11.925  13.282   7.871
 5162SOL     OW64324   3.593   8.808   7.171
 5162SOL    HW164325   3.663   8.879   7.161
 5162SOL    HW264326   3.597   8.768   7.262
 5163SOL     OW64327  15.123   0.635   7.839
 5163SOL    HW164328  15.099   0.726   7.874
 5163SOL    HW264329  15.059   0.568   7.876
 5164SOL     OW64330   4.262  12.306   1.046
 5164SOL    HW164331   4.344  12.343   1.002
 5164SOL    HW264332   4.279  12.211   1.074
 5165SOL     OW64333   8.456   1.609   1.683
 5165SOL    HW164334   8.470   1.513   1.705
 5165SOL    HW264335   8.488   1.666   1.759
 5166SOL     OW64336   0.219  15.610   7.298
 5166SOL    HW164337   0.306  15.581   7.259
 5166SOL    HW264338   0.166  15.659   7.229
 5167SOL     OW64339   4.750   2.336   0.676
 5167SOL    HW164340   4.733   2.247   0.634
 5167SOL    HW264341   4.729   2.332   0.774
 5168SOL     OW64342   6.754   1.084   0.727
 5168SOL    HW164343   6.708   1.151   0.667
 5168SOL    HW264344   6.718   1.092   0.820
 5169SOL     OW64345   6.852   0.445   0.782
 5169SOL    HW164346   6.942   0.446   0.826
 5169SOL    HW264347   6.816   0.352   0.783
 5170SOL     OW64348  10.468   8.166   0.143
 5170SOL    HW164349  10.469   8.092   0.210
 5170SOL    HW264350  10.457   8.128   0.051
 5171SOL     OW64351   0.408  16.077   1.154
 5171SOL    HW164352   0.402  16.053   1.057
 5171SOL    HW264353   0.421  15.994   1.208
 5172SOL     OW64354   6.088   4.219   0.690
 5172SOL    HW164355   6.172   4.201   0.638
 5172SOL    HW264356   6.046   4.132   0.716
 5173SOL     OW64357   6.396   8.196   1.360
 5173SOL    HW164358   6.383   8.098   1.375
 5173SOL    HW264359   6.475   8.227   1.412
 5174SOL     OW64360  12.594   5.741   6.267
 5174SOL    HW164361  12.526   5.813   6.284
 5174SOL    HW264362  12.598   5.722   6.169
 5175SOL     OW64363  15.016  14.980   0.222
 5175SOL    HW164364  15.089  14.989   0.289
 5175SOL    HW264365  14.927  14.985   0.268
 5176SOL     OW64366   3.204  16.837   7.067
 5176SOL    HW164367   3.184  16.739   7.063
 5176SOL    HW264368   3.190  16.878   6.977
 5177SOL     OW64369   0.958   9.936   0.272
 5177SOL    HW164370   0.947   9.881   0.354
 5177SOL    HW264371   1.018  10.014   0.291
 5178SOL     OW64372   7.556   6.463   8.201
 5178SOL    HW164373   7.466   6.470   8.159
 5178SOL    HW264374   7.591   6.555   8.219
 5179SOL     OW64375   1.970   7.103   7.304
 5179SOL    HW164376   1.938   7.162   7.231
 5179SOL    HW264377   1.922   7.126   7.389
 5180SOL     OW64378   5.997   9.578   7.755
 5180SOL    HW164379   5.953   9.533   7.678
 5180SOL    HW264380   5.994   9.518   7.835
 5181SOL     OW64381   5.484   0.023   0.768
 5181SOL    HW164382   5.470   0.089   0.695
 5181SOL    HW264383   5.409  16.939   0.767
 5182SOL     OW64384   9.593   5.991   0.146
 5182SOL    HW164385   9.543   6.043   0.216
 5182SOL    HW264386   9.576   5.893   0.159
 5183SOL     OW64387   2.849  13.199   1.923
 5183SOL    HW164388   2.781  13.271   1.937
 5183SOL    HW264389   2.885  13.170   2.012
 5184SOL     OW64390  12.355  16.645   1.040
 5184SOL    HW164391  12.273  16.594   1.066
 5184SOL    HW264392  12.331  16.712   0.969
 5185SOL     OW64393  12.510  12.658   0.097
 5185SOL    HW164394  12.529  12.708   0.181
 5185SOL    HW264395  12.495  12.561   0.118
 5186SOL     OW64396   9.693   6.780   1.179
 5186SOL    HW164397   9.766   6.727   1.136
 5186SOL    HW264398   9.728   6.825   1.261
 5187SOL     OW64399   6.469  10.271   8.190
 5187SOL    HW164400   6.461  10.324   8.274
 5187SOL    HW264401   6.457  10.174   8.210
 5188SOL     OW64402   6.621   0.589   0.846
 5188SOL    HW164403   6.602   0.659   0.777
 5188SOL    HW264404   6.706   0.541   0.822
 5189SOL     OW64405  11.436  14.167   7.760
 5189SOL    HW164406  11.354  14.224   7.757
 5189SOL    HW264407  11.505  14.211   7.816
 5190SOL     OW64408   6.037  10.728   0.599
 5190SOL    HW164409   6.120  10.767   0.639
 5190SOL    HW264410   6.001  10.789   0.529
 5191SOL     OW64411   4.433   8.931   0.158
 5191SOL    HW164412   4.411   8.857   0.222
 5191SOL    HW264413   4.508   8.901   0.099
 5192SOL     OW64414  12.089   7.340   7.302
 5192SOL    HW164415  12.168   7.353   7.243
 5192SOL    HW264416  12.006   7.334   7.247
 5193SOL     OW64417  11.468  15.041   6.768
 5193SOL    HW164418  11.505  14.973   6.705
 5193SOL    HW264419  11.498  15.132   6.740
 5194SOL     OW64420   6.143   0.630   0.599
 5194SOL    HW164421   6.077   0.656   0.669
 5194SOL    HW264422   6.096   0.613   0.512
 5195SOL     OW64423  13.821   6.857   8.287
 5195SOL    HW164424  13.896   6.918   8.262
 5195SOL    HW264425  13.841   6.814   8.375
 5196SOL     OW64426   8.972  15.061   0.344
 5196SOL    HW164427   8.923  15.034   0.261
 5196SOL    HW264428   8.949  14.998   0.418
 5197SOL     OW64429   1.377  16.895   2.046
 5197SOL    HW164430   1.441  16.888   2.123
 5197SOL    HW264431   1.284  16.884   2.080
 5198SOL     OW64432   8.790  11.699   1.667
 5198SOL    HW164433   8.791  11.648   1.753
 5198SOL    HW264434   8.725  11.774   1.672
 5199SOL     OW64435  10.291  11.037   6.627
 5199SOL    HW164436  10.308  11.092   6.545
 5199SOL    HW264437  10.365  11.051   6.693
 5200SOL     OW64438   1.281  11.675   7.285
 5200SOL    HW164439   1.276  11.583   7.244
 5200SOL    HW264440   1.357  11.725   7.243
 5201SOL     OW64441   3.963   3.853   1.177
 5201SOL    HW164442   4.019   3.829   1.257
 5201SOL    HW264443   3.986   3.792   1.102
 5202SOL     OW64444   6.859   3.013   0.247
 5202SOL    HW164445   6.775   2.981   0.203
 5202SOL    HW264446   6.851   3.111   0.266
 5203SOL     OW64447   5.102  11.597   6.778
 5203SOL    HW164448   5.127  11.694   6.769
 5203SOL    HW264449   5.067  11.564   6.691
 5204SOL     OW64450  14.201   1.142   1.777
 5204SOL    HW164451  14.248   1.056   1.794
 5204SOL    HW264452  14.193   1.193   1.863
 5205SOL     OW64453   2.300   4.883   6.487
 5205SOL    HW164454   2.359   4.928   6.421
 5205SOL    HW264455   2.219   4.939   6.503
 5206SOL     OW64456   9.282   4.693   1.281
 5206SOL    HW164457   9.184   4.701   1.265
 5206SOL    HW264458   9.298   4.666   1.376
 5207SOL     OW64459  11.624  13.596   6.946
 5207SOL    HW164460  11.598  13.667   7.012
 5207SOL    HW264461  11.703  13.546   6.982
 5208SOL     OW64462   7.613   1.160   0.704
 5208SOL    HW164463   7.538   1.227   0.701
 5208SOL    HW264464   7.576   1.068   0.691
 5209SOL     OW64465  12.088   6.620   0.957
 5209SOL    HW164466  12.080   6.718   0.938
 5209SOL    HW264467  12.023   6.570   0.899
 5210SOL     OW64468   6.929   9.442   6.985
 5210SOL    HW164469   6.911   9.486   7.073
 5210SOL    HW264470   7.008   9.485   6.942
 5211SOL     OW64471   7.893   4.907   0.789
 5211SOL    HW164472   7.961   4.857   0.735
 5211SOL    HW264473   7.878   4.997   0.750
 5212SOL     OW64474  14.950  15.065   1.664
 5212SOL    HW164475  14.856  15.095   1.651
 5212SOL    HW264476  15.010  15.144   1.675
 5213SOL     OW64477  16.011   2.468   0.112
 5213SOL    HW164478  16.002   2.513   0.023
 5213SOL    HW264479  16.044   2.533   0.179
 5214SOL     OW64480   7.749  15.352   0.344
 5214SOL    HW164481   7.841  15.312   0.341
 5214SOL    HW264482   7.729  15.397   0.257
 5215SOL     OW64483  10.981   9.665   6.604
 5215SOL    HW164484  11.072   9.624   6.613
 5215SOL    HW264485  10.963   9.687   6.509
 5216SOL     OW64486  10.967  12.981   1.020
 5216SOL    HW164487  11.043  13.006   1.080
 5216SOL    HW264488  11.001  12.926   0.944
 5217SOL     OW64489   2.697   2.456   7.027
 5217SOL    HW164490   2.768   2.524   7.008
 5217SOL    HW264491   2.610   2.487   6.991
 5218SOL     OW64492   3.617  13.389   8.206
 5218SOL    HW164493   3.714  13.410   8.195
 5218SOL    HW264494   3.597  13.300   8.167
 5219SOL     OW64495  12.642   1.098   1.993
 5219SOL    HW164496  12.603   1.012   2.024
 5219SOL    HW264497  12.742   1.090   1.989
 5220SOL     OW64498  10.835   8.178   7.080
 5220SOL    HW164499  10.786   8.092   7.095
 5220SOL    HW264500  10.932   8.159   7.064
 5221SOL     OW64501   8.787   6.003   7.366
 5221SOL    HW164502   8.779   6.089   7.416
 5221SOL    HW264503   8.882   5.973   7.366
 5222SOL     OW64504  13.922   9.910   0.534
 5222SOL    HW164505  13.993   9.976   0.510
 5222SOL    HW264506  13.885   9.932   0.624
 5223SOL     OW64507  16.486   8.786   0.748
 5223SOL    HW164508  16.513   8.794   0.652
 5223SOL    HW264509  16.388   8.771   0.754
 5224SOL     OW64510  12.803   5.395   6.670
 5224SOL    HW164511  12.901   5.404   6.648
 5224SOL    HW264512  12.781   5.456   6.746
 5225SOL     OW64513   4.176   0.072   1.665
 5225SOL    HW164514   4.214   0.119   1.745
 5225SOL    HW264515   4.143   0.139   1.599
 5226SOL     OW64516   5.611   5.229   0.423
 5226SOL    HW164517   5.640   5.272   0.337
 5226SOL    HW264518   5.572   5.139   0.404
 5227SOL     OW64519   3.735  12.032   7.901
 5227SOL    HW164520   3.733  12.062   7.806
 5227SOL    HW264521   3.818  11.979   7.918
 5228SOL     OW64522  14.438   9.017   0.003
 5228SOL    HW164523  14.389   9.003   0.089
 5228SOL    HW264524  14.530   9.052   0.023
 5229SOL     OW64525  14.495   7.326   7.330
 5229SOL    HW164526  14.501   7.362   7.423
 5229SOL    HW264527  14.560   7.251   7.319
 5230SOL     OW64528   2.990   9.981   2.017
 5230SOL    HW164529   2.970   9.900   2.072
 5230SOL    HW264530   2.906  10.011   1.971
 5231SOL     OW64531   1.526   3.464   0.449
 5231SOL    HW164532   1.458   3.478   0.521
 5231SOL    HW264533   1.485   3.481   0.359
 5232SOL     OW64534   0.816   2.073   6.964
 5232SOL    HW164535   0.832   1.979   6.936
 5232SOL    HW264536   0.804   2.131   6.883
 5233SOL     OW64537  14.832   6.628   8.435
 5233SOL    HW164538  14.926   6.657   8.417
 5233SOL    HW264539  14.800   6.671   0.065
 5234SOL     OW64540   7.416   6.206   5.924
 5234SOL    HW164541   7.367   6.266   5.860
 5234SOL    HW264542   7.353   6.138   5.961
 5235SOL     OW64543   1.061   3.161   0.790
 5235SOL    HW164544   1.030   3.238   0.846
 5235SOL    HW264545   1.152   3.181   0.752
 5236SOL     OW64546  16.179  11.339   7.931
 5236SOL    HW164547  16.096  11.287   7.948
 5236SOL    HW264548  16.186  11.414   7.996
 5237SOL     OW64549   9.616   2.392   6.608
 5237SOL    HW164550   9.551   2.462   6.578
 5237SOL    HW264551   9.601   2.308   6.556
 5238SOL     OW64552   9.385  16.915   7.495
 5238SOL    HW164553   9.413   0.008   7.437
 5238SOL    HW264554   9.371  16.833   7.439
 5239SOL     OW64555  11.193  11.792   8.158
 5239SOL    HW164556  11.245  11.835   8.084
 5239SOL    HW264557  11.227  11.699   8.173
 5240SOL     OW64558   6.884  15.636   0.953
 5240SOL    HW164559   6.816  15.586   1.007
 5240SOL    HW264560   6.973  15.591   0.962
 5241SOL     OW64561  16.233   7.907   6.762
 5241SOL    HW164562  16.146   7.877   6.723
 5241SOL    HW264563  16.292   7.944   6.690
 5242SOL     OW64564   3.307   6.805   1.648
 5242SOL    HW164565   3.239   6.833   1.716
 5242SOL    HW264566   3.351   6.886   1.610
 5243SOL     OW64567  14.114   9.468   6.769
 5243SOL    HW164568  14.034   9.512   6.809
 5243SOL    HW264569  14.147   9.521   6.691
 5244SOL     OW64570  15.314   1.982   0.280
 5244SOL    HW164571  15.315   1.969   0.181
 5244SOL    HW264572  15.317   1.893   0.325
 5245SOL     OW64573   3.011   0.947   8.421
 5245SOL    HW164574   3.026   0.858   8.379
 5245SOL    HW264575   2.996   0.936   0.065
 5246SOL     OW64576  15.422   1.403   1.016
 5246SOL    HW164577  15.443   1.312   1.051
 5246SOL    HW264578  15.470   1.472   1.071
 5247SOL     OW64579   7.131  10.221   7.573
 5247SOL    HW164580   7.071  10.141   7.564
 5247SOL    HW264581   7.196  10.206   7.647
 5248SOL     OW64582   9.153  13.041   0.274
 5248SOL    HW164583   9.170  13.138   0.292
 5248SOL    HW264584   9.055  13.024   0.270
 5249SOL     OW64585   9.803  13.860   7.138
 5249SOL    HW164586   9.770  13.932   7.078
 5249SOL    HW264587   9.806  13.894   7.232
 5250SOL     OW64588   4.863   8.080   8.444
 5250SOL    HW164589   4.790   8.143   8.416
 5250SOL    HW264590   4.825   7.988   0.002
 5251SOL     OW64591  14.794  10.265   0.026
 5251SOL    HW164592  14.758  10.316   8.401
 5251SOL    HW264593  14.841  10.328   0.087
 5252SOL     OW64594  12.151   6.079   6.656
 5252SOL    HW164595  12.184   6.160   6.704
 5252SOL    HW264596  12.101   6.106   6.575
 5253SOL     OW64597   6.993   0.276   1.210
 5253SOL    HW164598   6.915   0.333   1.235
 5253SOL    HW264599   7.068   0.334   1.178
 5254SOL     OW64600  10.560   1.726   8.430
 5254SOL    HW164601  10.634   1.791   8.413
 5254SOL    HW264602  10.473   1.768   8.407
 5255SOL     OW64603   0.507   5.296   5.813
 5255SOL    HW164604   0.530   5.369   5.749
 5255SOL    HW264605   0.585   5.235   5.824
 5256SOL     OW64606   9.727  10.990   0.416
 5256SOL    HW164607   9.706  10.914   0.478
 5256SOL    HW264608   9.712  11.076   0.464
 5257SOL     OW64609  12.473  11.628   7.987
 5257SOL    HW164610  12.442  11.722   7.980
 5257SOL    HW264611  12.556  11.624   8.042
 5258SOL     OW64612   3.121  13.488   2.166
 5258SOL    HW164613   3.117  13.526   2.259
 5258SOL    HW264614   3.174  13.549   2.108
 5259SOL     OW64615   2.232   1.646   0.591
 5259SOL    HW164616   2.281   1.604   0.668
 5259SOL    HW264617   2.282   1.726   0.560
 5260SOL     OW64618   5.416  14.197   7.290
 5260SOL    HW164619   5.495  14.146   7.258
 5260SOL    HW264620   5.392  14.268   7.223
 5261SOL     OW64621  15.405   6.967   0.380
 5261SOL    HW164622  15.340   7.012   0.319
 5261SOL    HW264623  15.364   6.955   0.470
 5262SOL     OW64624   1.061   4.120   7.529
 5262SOL    HW164625   1.021   4.201   7.485
 5262SOL    HW264626   1.085   4.053   7.460
 5263SOL     OW64627   0.075  10.042   7.732
 5263SOL    HW164628   0.034   9.996   7.653
 5263SOL    HW264629   0.165  10.076   7.708
 5264SOL     OW64630   6.568   6.126   6.638
 5264SOL    HW164631   6.628   6.198   6.671
 5264SOL    HW264632   6.476   6.163   6.623
 5265SOL     OW64633   9.224   3.086   0.227
 5265SOL    HW164634   9.196   3.101   0.132
 5265SOL    HW264635   9.238   2.988   0.243
 5266SOL     OW64636   5.800  13.540   0.901
 5266SOL    HW164637   5.723  13.594   0.935
 5266SOL    HW264638   5.868  13.602   0.861
 5267SOL     OW64639   8.289   2.923   7.221
 5267SOL    HW164640   8.221   2.970   7.165
 5267SOL    HW264641   8.264   2.930   7.318
 5268SOL     OW64642   1.022   1.876   8.184
 5268SOL    HW164643   1.007   1.945   8.255
 5268SOL    HW264644   1.048   1.789   8.226
 5269SOL     OW64645   4.425   3.466   7.914
 5269SOL    HW164646   4.336   3.470   7.869
 5269SOL    HW264647   4.454   3.370   7.924
 5270SOL     OW64648   3.928  15.300   1.935
 5270SOL    HW164649   3.923  15.202   1.957
 5270SOL    HW264650   4.013  15.338   1.973
 5271SOL     OW64651   7.515  14.039   7.694
 5271SOL    HW164652   7.594  13.979   7.707
 5271SOL    HW264653   7.476  14.062   7.783
 5272SOL     OW64654   4.056   2.348   8.099
 5272SOL    HW164655   4.145   2.332   8.141
 5272SOL    HW264656   4.035   2.273   8.035
 5273SOL     OW64657  11.630  13.309   7.524
 5273SOL    HW164658  11.585  13.321   7.612
 5273SOL    HW264659  11.561  13.296   7.453
 5274SOL     OW64660   1.678   5.363   0.690
 5274SOL    HW164661   1.679   5.264   0.671
 5274SOL    HW264662   1.586   5.399   0.674
 5275SOL     OW64663  13.870   5.405   0.110
 5275SOL    HW164664  13.841   5.425   0.017
 5275SOL    HW264665  13.848   5.310   0.132
 5276SOL     OW64666   0.769   6.746   7.555
 5276SOL    HW164667   0.777   6.845   7.543
 5276SOL    HW264668   0.814   6.719   7.641
 5277SOL     OW64669  16.694  14.168   7.924
 5277SOL    HW164670  16.641  14.116   7.857
 5277SOL    HW264671  16.730  14.106   7.994
 5278SOL     OW64672   7.712   3.564   8.006
 5278SOL    HW164673   7.649   3.642   8.012
 5278SOL    HW264674   7.779   3.570   8.080
 5279SOL     OW64675   4.716   3.034   8.313
 5279SOL    HW164676   4.733   3.060   8.218
 5279SOL    HW264677   4.765   3.097   8.374
 5280SOL     OW64678   3.251  14.035   0.818
 5280SOL    HW164679   3.193  14.078   0.887
 5280SOL    HW264680   3.278  13.944   0.849
 5281SOL     OW64681   2.331   3.981   6.843
 5281SOL    HW164682   2.365   4.062   6.892
 5281SOL    HW264683   2.332   3.902   6.905
 5282SOL     OW64684   6.269   9.136   8.021
 5282SOL    HW164685   6.204   9.129   8.096
 5282SOL    HW264686   6.249   9.065   7.953
 5283SOL     OW64687   7.402   8.483   0.032
 5283SOL    HW164688   7.380   8.411   8.421
 5283SOL    HW264689   7.324   8.497   0.094
 5284SOL     OW64690   8.935  15.429   2.625
 5284SOL    HW164691   8.924  15.330   2.613
 5284SOL    HW264692   8.929  15.452   2.722
 5285SOL     OW64693   3.451   1.194   0.026
 5285SOL    HW164694   3.371   1.175   0.083
 5285SOL    HW264695   3.420   1.216   8.387
 5286SOL     OW64696  10.281  15.699   8.037
 5286SOL    HW164697  10.376  15.684   8.012
 5286SOL    HW264698  10.235  15.751   7.965
 5287SOL     OW64699  10.519   2.829   6.401
 5287SOL    HW164700  10.506   2.831   6.500
 5287SOL    HW264701  10.605   2.874   6.378
 5288SOL     OW64702  10.831  15.983   6.846
 5288SOL    HW164703  10.864  16.008   6.755
 5288SOL    HW264704  10.732  15.972   6.844
 5289SOL     OW64705   3.961   1.252   0.543
 5289SOL    HW164706   3.890   1.300   0.493
 5289SOL    HW264707   3.929   1.160   0.567
 5290SOL     OW64708  11.844   9.379   7.054
 5290SOL    HW164709  11.799   9.389   6.965
 5290SOL    HW264710  11.943   9.373   7.040
 5291SOL     OW64711   7.149  14.355   7.674
 5291SOL    HW164712   7.180  14.346   7.579
 5291SOL    HW264713   7.222  14.397   7.728
 5292SOL     OW64714   1.786   6.170   1.179
 5292SOL    HW164715   1.722   6.230   1.226
 5292SOL    HW264716   1.736   6.096   1.134
 5293SOL     OW64717  16.419   1.089   7.269
 5293SOL    HW164718  16.323   1.078   7.243
 5293SOL    HW264719  16.443   1.020   7.337
 5294SOL     OW64720  15.202   2.464   6.501
 5294SOL    HW164721  15.167   2.371   6.506
 5294SOL    HW264722  15.139   2.520   6.446
 5295SOL     OW64723  12.335  10.459   1.089
 5295SOL    HW164724  12.317  10.362   1.073
 5295SOL    HW264725  12.434  10.474   1.094
 5296SOL     OW64726  15.823  10.290   0.108
 5296SOL    HW164727  15.786  10.318   0.019
 5296SOL    HW264728  15.778  10.342   0.180
 5297SOL     OW64729  14.339   6.395   7.279
 5297SOL    HW164730  14.385   6.440   7.203
 5297SOL    HW264731  14.344   6.296   7.268
 5298SOL     OW64732  15.579   5.864   0.868
 5298SOL    HW164733  15.621   5.837   0.781
 5298SOL    HW264734  15.549   5.959   0.862
 5299SOL     OW64735  12.909   0.128   1.007
 5299SOL    HW164736  12.916   0.191   1.085
 5299SOL    HW264737  12.838   0.060   1.026
 5300SOL     OW64738   9.167   2.894   8.294
 5300SOL    HW164739   9.181   2.831   8.370
 5300SOL    HW264740   9.170   2.988   8.327
 5301SOL     OW64741   3.730   5.479   0.688
 5301SOL    HW164742   3.677   5.394   0.684
 5301SOL    HW264743   3.828   5.458   0.694
 5302SOL     OW64744   0.528  15.096   6.808
 5302SOL    HW164745   0.597  15.123   6.740
 5302SOL    HW264746   0.485  15.177   6.846
 5303SOL     OW64747  12.153   4.604   1.325
 5303SOL    HW164748  12.198   4.605   1.414
 5303SOL    HW264749  12.088   4.529   1.321
 5304SOL     OW64750  10.476   9.554   6.742
 5304SOL    HW164751  10.431   9.473   6.705
 5304SOL    HW264752  10.562   9.569   6.693
 5305SOL     OW64753  13.854   8.793   6.951
 5305SOL    HW164754  13.759   8.762   6.945
 5305SOL    HW264755  13.904   8.763   6.870
 5306SOL     OW64756  16.168  12.170   1.068
 5306SOL    HW164757  16.167  12.169   1.168
 5306SOL    HW264758  16.077  12.148   1.033
 5307SOL     OW64759  12.454  10.544   0.538
 5307SOL    HW164760  12.412  10.477   0.477
 5307SOL    HW264761  12.384  10.605   0.574
 5308SOL     OW64762   0.020  12.182   1.544
 5308SOL    HW164763  16.981  12.276   1.569
 5308SOL    HW264764  16.927  12.141   1.494
 5309SOL     OW64765   5.072  13.362   7.255
 5309SOL    HW164766   5.163  13.393   7.226
 5309SOL    HW264767   5.082  13.287   7.320
 5310SOL     OW64768   9.472   9.892   1.029
 5310SOL    HW164769   9.430   9.881   1.120
 5310SOL    HW264770   9.413   9.849   0.960
 5311SOL     OW64771  10.357   5.083   1.265
 5311SOL    HW164772  10.413   5.093   1.347
 5311SOL    HW264773  10.356   5.169   1.213
 5312SOL     OW64774  14.496  15.294   6.322
 5312SOL    HW164775  14.410  15.314   6.276
 5312SOL    HW264776  14.506  15.195   6.331
 5313SOL     OW64777   7.444   3.077   7.494
 5313SOL    HW164778   7.412   3.165   7.459
 5313SOL    HW264779   7.508   3.092   7.570
 5314SOL     OW64780   6.653   2.301   6.712
 5314SOL    HW164781   6.626   2.397   6.701
 5314SOL    HW264782   6.676   2.262   6.623
 5315SOL     OW64783   5.261  15.701   2.162
 5315SOL    HW164784   5.322  15.631   2.200
 5315SOL    HW264785   5.173  15.660   2.138
 5316SOL     OW64786   1.113   1.583   1.297
 5316SOL    HW164787   1.190   1.586   1.233
 5316SOL    HW264788   1.028   1.594   1.246
 5317SOL     OW64789  12.629  14.943   1.576
 5317SOL    HW164790  12.612  14.881   1.653
 5317SOL    HW264791  12.616  15.037   1.606
 5318SOL     OW64792   7.309  11.398   1.817
 5318SOL    HW164793   7.279  11.320   1.764
 5318SOL    HW264794   7.409  11.399   1.823
 5319SOL     OW64795   9.145   0.169   0.494
 5319SOL    HW164796   9.146   0.121   0.582
 5319SOL    HW264797   9.232   0.218   0.482
 5320SOL     OW64798   3.878  13.101   1.126
 5320SOL    HW164799   3.851  13.193   1.098
 5320SOL    HW264800   3.876  13.040   1.046
 5321SOL     OW64801   1.027   4.089   0.070
 5321SOL    HW164802   1.072   4.009   0.111
 5321SOL    HW264803   1.079   4.118   8.443
 5322SOL     OW64804  10.449   6.826   2.324
 5322SOL    HW164805  10.505   6.754   2.286
 5322SOL    HW264806  10.492   6.915   2.307
 5323SOL     OW64807   2.493   5.202   8.222
 5323SOL    HW164808   2.459   5.222   8.314
 5323SOL    HW264809   2.417   5.175   8.163
 5324SOL     OW64810  10.687   2.108   7.083
 5324SOL    HW164811  10.631   2.051   7.022
 5324SOL    HW264812  10.689   2.202   7.048
 5325SOL     OW64813   5.149   1.705   7.760
 5325SOL    HW164814   5.184   1.613   7.775
 5325SOL    HW264815   5.225   1.769   7.755
 5326SOL     OW64816   3.430  15.312   1.138
 5326SOL    HW164817   3.446  15.320   1.040
 5326SOL    HW264818   3.513  15.278   1.183
 5327SOL     OW64819   9.900  11.794   0.809
 5327SOL    HW164820   9.816  11.804   0.756
 5327SOL    HW264821   9.931  11.699   0.806
 5328SOL     OW64822   2.008   6.728   1.802
 5328SOL    HW164823   2.059   6.719   1.888
 5328SOL    HW264824   1.914   6.697   1.816
 5329SOL     OW64825   0.750   2.725   8.233
 5329SOL    HW164826   0.726   2.796   8.167
 5329SOL    HW264827   0.684   2.650   8.227
 5330SOL     OW64828  10.826   1.546   7.921
 5330SOL    HW164829  10.790   1.596   8.000
 5330SOL    HW264830  10.861   1.610   7.854
 5331SOL     OW64831   1.762   6.626   0.021
 5331SOL    HW164832   1.849   6.579   0.036
 5331SOL    HW264833   1.733   6.671   0.105
 5332SOL     OW64834  13.908  13.891   0.005
 5332SOL    HW164835  13.993  13.937   8.432
 5332SOL    HW264836  13.832  13.929   8.407
 5333SOL     OW64837   3.081  10.863   0.436
 5333SOL    HW164838   3.152  10.828   0.374
 5333SOL    HW264839   3.104  10.839   0.530
 5334SOL     OW64840   9.774   2.853   0.618
 5334SOL    HW164841   9.696   2.796   0.590
 5334SOL    HW264842   9.765   2.943   0.578
 5335SOL     OW64843  12.912  13.490   6.982
 5335SOL    HW164844  12.951  13.418   7.039
 5335SOL    HW264845  12.984  13.553   6.953
 5336SOL     OW64846   3.390   6.636   8.395
 5336SOL    HW164847   3.346   6.554   8.361
 5336SOL    HW264848   3.337   6.674   0.017
 5337SOL     OW64849  10.765   9.772   6.972
 5337SOL    HW164850  10.784   9.839   7.044
 5337SOL    HW264851  10.673   9.788   6.936
 5338SOL     OW64852   4.036   4.567   0.269
 5338SOL    HW164853   3.941   4.537   0.264
 5338SOL    HW264854   4.091   4.517   0.201
 5339SOL     OW64855   1.747   1.678   1.280
 5339SOL    HW164856   1.706   1.767   1.297
 5339SOL    HW264857   1.752   1.662   1.181
 5340SOL     OW64858  15.229   1.431   6.826
 5340SOL    HW164859  15.288   1.403   6.902
 5340SOL    HW264860  15.280   1.491   6.765
 5341SOL     OW64861   7.438   3.942   7.428
 5341SOL    HW164862   7.425   3.845   7.409
 5341SOL    HW264863   7.354   3.979   7.468
 5342SOL     OW64864   0.629   1.994   6.626
 5342SOL    HW164865   0.642   1.912   6.681
 5342SOL    HW264866   0.675   1.982   6.537
 5343SOL     OW64867   8.796   7.635   7.785
 5343SOL    HW164868   8.868   7.565   7.788
 5343SOL    HW264869   8.741   7.629   7.868
 5344SOL     OW64870   1.207   3.033   0.042
 5344SOL    HW164871   1.110   3.041   0.064
 5344SOL    HW264872   1.259   3.097   0.098
 5345SOL     OW64873   0.129  10.721   1.161
 5345SOL    HW164874   0.043  10.768   1.181
 5345SOL    HW264875   0.191  10.784   1.115
 5346SOL     OW64876  10.919   7.243   1.094
 5346SOL    HW164877  10.884   7.186   1.020
 5346SOL    HW264878  11.016   7.261   1.080
 5347SOL     OW64879   9.389  12.690   0.771
 5347SOL    HW164880   9.304  12.715   0.817
 5347SOL    HW264881   9.446  12.637   0.834
 5348SOL     OW64882   6.025   5.934   0.501
 5348SOL    HW164883   6.091   5.996   0.544
 5348SOL    HW264884   6.073   5.876   0.435
 5349SOL     OW64885   0.985   7.181   7.929
 5349SOL    HW164886   0.998   7.142   8.021
 5349SOL    HW264887   1.067   7.165   7.875
 5350SOL     OW64888  14.404   9.264   8.324
 5350SOL    HW164889  14.424   9.275   8.227
 5350SOL    HW264890  14.438   9.175   8.355
 5351SOL     OW64891   1.942  14.064   7.728
 5351SOL    HW164892   2.004  14.100   7.658
 5351SOL    HW264893   1.925  13.967   7.710
 5352SOL     OW64894  14.596  14.877   6.541
 5352SOL    HW164895  14.568  14.928   6.460
 5352SOL    HW264896  14.635  14.789   6.514
 5353SOL     OW64897  13.808   5.709   7.030
 5353SOL    HW164898  13.766   5.677   6.945
 5353SOL    HW264899  13.776   5.801   7.051
 5354SOL     OW64900   4.957  12.094   0.702
 5354SOL    HW164901   5.018  12.109   0.779
 5354SOL    HW264902   5.011  12.066   0.622
 5355SOL     OW64903   3.057  13.286   6.694
 5355SOL    HW164904   3.087  13.195   6.664
 5355SOL    HW264905   2.960  13.298   6.674
 5356SOL     OW64906   5.006   9.207   1.120
 5356SOL    HW164907   4.966   9.164   1.200
 5356SOL    HW264908   5.093   9.164   1.098
 5357SOL     OW64909   1.681   0.873   8.042
 5357SOL    HW164910   1.618   0.798   8.020
 5357SOL    HW264911   1.646   0.958   8.005
 5358SOL     OW64912  13.987   8.379   8.171
 5358SOL    HW164913  14.032   8.375   8.081
 5358SOL    HW264914  13.913   8.313   8.175
 5359SOL     OW64915  14.484  13.111   0.080
 5359SOL    HW164916  14.410  13.116   0.148
 5359SOL    HW264917  14.520  13.018   0.077
 5360SOL     OW64918   9.607   8.687   0.086
 5360SOL    HW164919   9.680   8.651   0.028
 5360SOL    HW264920   9.518   8.666   0.045
 5361SOL     OW64921   2.712   9.109   1.705
 5361SOL    HW164922   2.672   9.165   1.777
 5361SOL    HW264923   2.688   9.148   1.616
 5362SOL     OW64924  12.967   2.665   6.415
 5362SOL    HW164925  13.065   2.650   6.399
 5362SOL    HW264926  12.946   2.651   6.511
 5363SOL     OW64927   7.107   0.886   7.663
 5363SOL    HW164928   7.142   0.925   7.749
 5363SOL    HW264929   7.169   0.813   7.633
 5364SOL     OW64930  16.359  13.867   8.226
 5364SOL    HW164931  16.339  13.796   8.294
 5364SOL    HW264932  16.294  13.942   8.236
 5365SOL     OW64933   3.811   4.829   0.738
 5365SOL    HW164934   3.844   4.735   0.753
 5365SOL    HW264935   3.723   4.841   0.784
 5366SOL     OW64936  15.443   2.042   6.082
 5366SOL    HW164937  15.438   1.942   6.086
 5366SOL    HW264938  15.528   2.069   6.035
 5367SOL     OW64939   2.029   7.440   7.462
 5367SOL    HW164940   2.120   7.476   7.443
 5367SOL    HW264941   2.032   7.386   7.547
 5368SOL     OW64942   9.769   1.051   2.038
 5368SOL    HW164943   9.699   1.122   2.028
 5368SOL    HW264944   9.764   1.012   2.130
 5369SOL     OW64945   3.549   7.847   0.734
 5369SOL    HW164946   3.509   7.798   0.656
 5369SOL    HW264947   3.566   7.783   0.809
 5370SOL     OW64948  11.138   9.448   6.921
 5370SOL    HW164949  11.211   9.511   6.896
 5370SOL    HW264950  11.049   9.492   6.908
 5371SOL     OW64951   3.556  13.965   0.020
 5371SOL    HW164952   3.502  13.908   8.412
 5371SOL    HW264953   3.644  13.921   0.038
 5372SOL     OW64954  13.737  13.390   7.538
 5372SOL    HW164955  13.714  13.452   7.613
 5372SOL    HW264956  13.834  13.366   7.543
 5373SOL     OW64957   3.938  15.029   7.129
 5373SOL    HW164958   3.841  15.006   7.128
 5373SOL    HW264959   3.956  15.099   7.059
 5374SOL     OW64960  12.744  10.536   7.356
 5374SOL    HW164961  12.675  10.464   7.348
 5374SOL    HW264962  12.771  10.546   7.452
 5375SOL     OW64963   7.886   7.777   0.695
 5375SOL    HW164964   7.819   7.818   0.634
 5375SOL    HW264965   7.857   7.685   0.719
 5376SOL     OW64966  11.010   2.640   1.932
 5376SOL    HW164967  11.060   2.693   2.001
 5376SOL    HW264968  10.915   2.629   1.962
 5377SOL     OW64969  11.237   2.732   0.356
 5377SOL    HW164970  11.322   2.679   0.350
 5377SOL    HW264971  11.192   2.734   0.267
 5378SOL     OW64972  10.326  11.060   1.121
 5378SOL    HW164973  10.422  11.032   1.114
 5378SOL    HW264974  10.282  11.051   1.031
 5379SOL     OW64975   0.641  16.652   0.498
 5379SOL    HW164976   0.664  16.678   0.405
 5379SOL    HW264977   0.703  16.698   0.562
 5380SOL     OW64978   0.181  16.221   1.235
 5380SOL    HW164979   0.131  16.227   1.149
 5380SOL    HW264980   0.267  16.172   1.220
 5381SOL     OW64981   5.049   5.919   0.497
 5381SOL    HW164982   5.116   5.963   0.556
 5381SOL    HW264983   5.002   5.847   0.547
 5382SOL     OW64984   4.756   9.512   1.507
 5382SOL    HW164985   4.670   9.537   1.461
 5382SOL    HW264986   4.783   9.586   1.568
 5383SOL     OW64987  13.023   8.416   7.049
 5383SOL    HW164988  12.994   8.492   6.991
 5383SOL    HW264989  13.009   8.440   7.145
 5384SOL     OW64990   8.591  12.899   0.929
 5384SOL    HW164991   8.533  12.898   0.848
 5384SOL    HW264992   8.622  12.993   0.946
 5385SOL     OW64993  12.347   1.663   0.936
 5385SOL    HW164994  12.427   1.698   0.887
 5385SOL    HW264995  12.376   1.615   1.018
 5386SOL     OW64996  16.343   1.210   7.885
 5386SOL    HW164997  16.402   1.148   7.833
 5386SOL    HW264998  16.350   1.303   7.847
 5387SOL     OW64999  15.634   8.422   1.461
 5387SOL    HW165000  15.718   8.378   1.428
 5387SOL    HW265001  15.621   8.509   1.414
 5388SOL     OW65002   9.283   5.938   1.045
 5388SOL    HW165003   9.341   5.875   0.993
 5388SOL    HW265004   9.340   6.004   1.093
 5389SOL     OW65005   9.372   4.210   7.354
 5389SOL    HW165006   9.453   4.267   7.369
 5389SOL    HW265007   9.378   4.128   7.412
 5390SOL     OW65008   6.409   7.147   2.544
 5390SOL    HW165009   6.396   7.239   2.581
 5390SOL    HW265010   6.498   7.112   2.572
 5391SOL     OW65011   0.447  15.342   6.881
 5391SOL    HW165012   0.485  15.432   6.904
 5391SOL    HW265013   0.353  15.336   6.916
 5392SOL     OW65014  13.157  16.544   7.132
 5392SOL    HW165015  13.113  16.458   7.104
 5392SOL    HW265016  13.086  16.611   7.157
 5393SOL     OW65017   1.752   8.375   7.849
 5393SOL    HW165018   1.834   8.381   7.792
 5393SOL    HW265019   1.778   8.373   7.945
 5394SOL     OW65020   9.297   5.228   7.630
 5394SOL    HW165021   9.345   5.297   7.685
 5394SOL    HW265022   9.218   5.269   7.586
 5395SOL     OW65023   8.262   0.551   7.860
 5395SOL    HW165024   8.259   0.651   7.868
 5395SOL    HW265025   8.169   0.516   7.850
 5396SOL     OW65026  10.317   5.097   8.385
 5396SOL    HW165027  10.234   5.053   8.350
 5396SOL    HW265028  10.333   5.183   8.336
 5397SOL     OW65029   2.790  11.802   0.185
 5397SOL    HW165030   2.763  11.781   0.092
 5397SOL    HW265031   2.723  11.764   0.249
 5398SOL     OW65032  16.251  10.414   6.768
 5398SOL    HW165033  16.310  10.414   6.688
 5398SOL    HW265034  16.164  10.460   6.746
 5399SOL     OW65035   5.143  14.451   6.932
 5399SOL    HW165036   5.073  14.393   6.975
 5399SOL    HW265037   5.147  14.432   6.834
 5400SOL     OW65038  12.137   1.596   7.031
 5400SOL    HW165039  12.230   1.628   7.009
 5400SOL    HW265040  12.102   1.542   6.954
 5401SOL     OW65041   7.674   8.177   6.878
 5401SOL    HW165042   7.586   8.147   6.841
 5401SOL    HW265043   7.664   8.199   6.975
 5402SOL     OW65044  16.844   1.106   8.362
 5402SOL    HW165045  16.875   1.180   8.302
 5402SOL    HW265046  16.913   1.090   8.433
 5403SOL     OW65047  14.136   5.518   0.888
 5403SOL    HW165048  14.177   5.524   0.797
 5403SOL    HW265049  14.072   5.441   0.891
 5404SOL     OW65050   3.090  13.564   7.127
 5404SOL    HW165051   3.147  13.489   7.092
 5404SOL    HW265052   3.026  13.592   7.055
 5405SOL     OW65053   6.134  11.033   6.136
 5405SOL    HW165054   6.146  11.132   6.147
 5405SOL    HW265055   6.223  10.988   6.142
 5406SOL     OW65056   9.482   9.787   6.883
 5406SOL    HW165057   9.534   9.755   6.804
 5406SOL    HW265058   9.517   9.742   6.965
 5407SOL     OW65059  13.753   9.993   2.081
 5407SOL    HW165060  13.806   9.944   2.151
 5407SOL    HW265061  13.734   9.931   2.005
 5408SOL     OW65062   9.702   9.870   0.853
 5408SOL    HW165063   9.630   9.870   0.922
 5408SOL    HW265064   9.734   9.963   0.836
 5409SOL     OW65065   0.661  11.921   7.532
 5409SOL    HW165066   0.610  11.837   7.514
 5409SOL    HW265067   0.759  11.903   7.522
 5410SOL     OW65068   8.255   5.740   0.094
 5410SOL    HW165069   8.306   5.705   0.016
 5410SOL    HW265070   8.307   5.725   0.178
 5411SOL     OW65071   9.681  13.623   7.629
 5411SOL    HW165072   9.593  13.668   7.617
 5411SOL    HW265073   9.677  13.530   7.592
 5412SOL     OW65074   7.038  12.464   1.416
 5412SOL    HW165075   7.060  12.488   1.510
 5412SOL    HW265076   6.976  12.532   1.377
 5413SOL     OW65077   3.726  13.494   1.222
 5413SOL    HW165078   3.755  13.443   1.142
 5413SOL    HW265079   3.703  13.588   1.195
 5414SOL     OW65080  12.706   9.547   1.173
 5414SOL    HW165081  12.665   9.486   1.241
 5414SOL    HW265082  12.785   9.502   1.131
 5415SOL     OW65083   9.711  11.166   0.199
 5415SOL    HW165084   9.793  11.149   0.145
 5415SOL    HW265085   9.704  11.098   0.271
 5416SOL     OW65086  10.482   4.469   7.704
 5416SOL    HW165087  10.534   4.509   7.629
 5416SOL    HW265088  10.476   4.370   7.690
 5417SOL     OW65089   8.923  15.128   8.335
 5417SOL    HW165090   8.989  15.200   8.314
 5417SOL    HW265091   8.854  15.124   8.263
 5418SOL     OW65092  13.619  16.885   7.446
 5418SOL    HW165093  13.694  16.951   7.443
 5418SOL    HW265094  13.532  16.933   7.442
 5419SOL     OW65095   8.751  13.650   1.000
 5419SOL    HW165096   8.658  13.622   1.024
 5419SOL    HW265097   8.749  13.704   0.916
 5420SOL     OW65098   2.037   6.259   6.582
 5420SOL    HW165099   2.053   6.322   6.659
 5420SOL    HW265100   1.965   6.296   6.523
 5421SOL     OW65101   3.346   6.906   8.335
 5421SOL    HW165102   3.284   6.924   8.259
 5421SOL    HW265103   3.380   6.812   8.330
 5422SOL     OW65104  12.557   1.877   6.681
 5422SOL    HW165105  12.498   1.800   6.654
 5422SOL    HW265106  12.536   1.903   6.776
 5423SOL     OW65107   3.008   4.764   0.996
 5423SOL    HW165108   2.958   4.697   0.941
 5423SOL    HW265109   3.051   4.719   1.074
 5424SOL     OW65110   2.525   9.979   8.327
 5424SOL    HW165111   2.598   9.921   8.290
 5424SOL    HW265112   2.507   9.953   8.422
 5425SOL     OW65113  14.776  10.010   7.159
 5425SOL    HW165114  14.850   9.944   7.175
 5425SOL    HW265115  14.802  10.070   7.083
 5426SOL     OW65116  15.508  10.429   7.493
 5426SOL    HW165117  15.470  10.500   7.434
 5426SOL    HW265118  15.543  10.354   7.438
 5427SOL     OW65119   3.142   3.553   1.418
 5427SOL    HW165120   3.239   3.539   1.437
 5427SOL    HW265121   3.106   3.624   1.478
 5428SOL     OW65122   3.008   7.437   1.216
 5428SOL    HW165123   3.060   7.368   1.166
 5428SOL    HW265124   2.964   7.395   1.295
 5429SOL     OW65125   8.634  16.508   1.371
 5429SOL    HW165126   8.568  16.538   1.441
 5429SOL    HW265127   8.705  16.453   1.414
 5430SOL     OW65128   6.680   7.832   7.200
 5430SOL    HW165129   6.675   7.791   7.109
 5430SOL    HW265130   6.736   7.774   7.259
 5431SOL     OW65131  14.230   8.672   2.427
 5431SOL    HW165132  14.207   8.575   2.424
 5431SOL    HW265133  14.160   8.721   2.479
 5432SOL     OW65134  13.475  11.241   1.148
 5432SOL    HW165135  13.572  11.257   1.126
 5432SOL    HW265136  13.467  11.162   1.209
 5433SOL     OW65137   3.791   5.520   7.721
 5433SOL    HW165138   3.810   5.475   7.809
 5433SOL    HW265139   3.876   5.556   7.683
 5434SOL     OW65140   4.912   7.083   1.263
 5434SOL    HW165141   4.844   7.025   1.308
 5434SOL    HW265142   4.881   7.102   1.170
 5435SOL     OW65143  11.350  16.751   6.529
 5435SOL    HW165144  11.398  16.797   6.604
 5435SOL    HW265145  11.410  16.748   6.449
 5436SOL     OW65146   7.390   3.014   1.388
 5436SOL    HW165147   7.365   3.088   1.326
 5436SOL    HW265148   7.467   3.043   1.445
 5437SOL     OW65149   4.013   7.535   7.796
 5437SOL    HW165150   3.966   7.619   7.770
 5437SOL    HW265151   3.948   7.459   7.793
 5438SOL     OW65152   6.145   0.181   0.642
 5438SOL    HW165153   6.158   0.143   0.734
 5438SOL    HW265154   6.055   0.156   0.608
 5439SOL     OW65155   4.130   6.674   7.330
 5439SOL    HW165156   4.215   6.725   7.339
 5439SOL    HW265157   4.100   6.644   7.421
 5440SOL     OW65158   9.212   2.536   6.650
 5440SOL    HW165159   9.297   2.547   6.598
 5440SOL    HW265160   9.155   2.468   6.605
 5441SOL     OW65161   7.702  15.367   2.082
 5441SOL    HW165162   7.757  15.339   2.160
 5441SOL    HW265163   7.607  15.340   2.096
 5442SOL     OW65164   1.088   6.632   6.603
 5442SOL    HW165165   0.990   6.639   6.622
 5442SOL    HW265166   1.113   6.702   6.536
 5443SOL     OW65167  11.631   8.767   8.020
 5443SOL    HW165168  11.686   8.812   7.949
 5443SOL    HW265169  11.691   8.726   8.088
 5444SOL     OW65170   5.262  12.219   7.644
 5444SOL    HW165171   5.176  12.261   7.614
 5444SOL    HW265172   5.242  12.149   7.713
 5445SOL     OW65173   1.615   6.308   0.257
 5445SOL    HW165174   1.543   6.371   0.227
 5445SOL    HW265175   1.581   6.250   0.331
 5446SOL     OW65176  14.731   4.824   7.074
 5446SOL    HW165177  14.765   4.756   7.009
 5446SOL    HW265178  14.805   4.888   7.097
 5447SOL     OW65179  11.418  16.947   1.555
 5447SOL    HW165180  11.335   0.013   1.582
 5447SOL    HW265181  11.464  16.913   1.637
 5448SOL     OW65182   0.680  16.719   0.233
 5448SOL    HW165183   0.604  16.717   0.168
 5448SOL    HW265184   0.731  16.804   0.223
 5449SOL     OW65185   6.288   3.463   1.823
 5449SOL    HW165186   6.261   3.557   1.802
 5449SOL    HW265187   6.370   3.464   1.880
 5450SOL     OW65188  13.569   9.715   1.417
 5450SOL    HW165189  13.613   9.721   1.327
 5450SOL    HW265190  13.517   9.799   1.434
 5451SOL     OW65191   0.356  12.828   7.194
 5451SOL    HW165192   0.447  12.868   7.203
 5451SOL    HW265193   0.359  12.731   7.218
 5452SOL     OW65194  11.054   5.759   1.500
 5452SOL    HW165195  11.149   5.729   1.488
 5452SOL    HW265196  10.999   5.682   1.533
 5453SOL     OW65197  11.116  11.253   0.354
 5453SOL    HW165198  11.141  11.335   0.405
 5453SOL    HW265199  11.177  11.178   0.380
 5454SOL     OW65200   0.274   7.552   8.410
 5454SOL    HW165201   0.313   7.636   8.447
 5454SOL    HW265202   0.311   7.535   8.318
 5455SOL     OW65203   9.932  14.146   8.120
 5455SOL    HW165204   9.891  14.237   8.115
 5455SOL    HW265205  10.002  14.144   8.190
 5456SOL     OW65206   1.542   1.625   8.285
 5456SOL    HW165207   1.642   1.628   8.285
 5456SOL    HW265208   1.506   1.716   8.267
 5457SOL     OW65209  16.111   0.732   6.620
 5457SOL    HW165210  16.107   0.753   6.717
 5457SOL    HW265211  16.102   0.634   6.606
 5458SOL     OW65212   2.740   0.762   6.621
 5458SOL    HW165213   2.824   0.814   6.609
 5458SOL    HW265214   2.665   0.809   6.574
 5459SOL     OW65215  10.571  12.629   7.194
 5459SOL    HW165216  10.605  12.564   7.126
 5459SOL    HW265217  10.577  12.588   7.285
 5460SOL     OW65218  15.074  14.412   1.695
 5460SOL    HW165219  15.143  14.343   1.719
 5460SOL    HW265220  15.048  14.401   1.599
 5461SOL     OW65221   6.631  11.662   8.336
 5461SOL    HW165222   6.642  11.663   8.435
 5461SOL    HW265223   6.661  11.574   8.300
 5462SOL     OW65224   5.525  16.743   8.320
 5462SOL    HW165225   5.447  16.767   8.262
 5462SOL    HW265226   5.548  16.647   8.306
 5463SOL     OW65227   6.314  11.661   6.775
 5463SOL    HW165228   6.344  11.606   6.853
 5463SOL    HW265229   6.233  11.619   6.733
 5464SOL     OW65230   9.753  13.768   8.371
 5464SOL    HW165231   9.841  13.724   8.354
 5464SOL    HW265232   9.743  13.847   8.311
 5465SOL     OW65233   1.350   5.270   7.255
 5465SOL    HW165234   1.412   5.192   7.245
 5465SOL    HW265235   1.344   5.296   7.351
 5466SOL     OW65236   9.490   5.187   1.961
 5466SOL    HW165237   9.489   5.245   2.042
 5466SOL    HW265238   9.577   5.198   1.914
 5467SOL     OW65239   1.236  16.251   6.585
 5467SOL    HW165240   1.219  16.159   6.548
 5467SOL    HW265241   1.204  16.320   6.520
 5468SOL     OW65242  16.617   8.122   7.028
 5468SOL    HW165243  16.709   8.117   6.990
 5468SOL    HW265244  16.586   8.030   7.053
 5469SOL     OW65245   1.767  14.550   1.866
 5469SOL    HW165246   1.748  14.641   1.904
 5469SOL    HW265247   1.758  14.481   1.937
 5470SOL     OW65248   2.470   2.079   8.086
 5470SOL    HW165249   2.429   2.166   8.057
 5470SOL    HW265250   2.556   2.065   8.039
 5471SOL     OW65251  16.010  13.342   7.267
 5471SOL    HW165252  15.956  13.358   7.184
 5471SOL    HW265253  16.057  13.254   7.260
 5472SOL     OW65254  16.749   6.294   1.195
 5472SOL    HW165255  16.709   6.280   1.286
 5472SOL    HW265256  16.718   6.382   1.159
 5473SOL     OW65257   2.236  14.516   6.924
 5473SOL    HW165258   2.170  14.459   6.876
 5473SOL    HW265259   2.256  14.597   6.868
 5474SOL     OW65260  11.705  15.575   0.827
 5474SOL    HW165261  11.695  15.663   0.874
 5474SOL    HW265262  11.728  15.591   0.731
 5475SOL     OW65263  11.762  12.324   6.574
 5475SOL    HW165264  11.783  12.239   6.525
 5475SOL    HW265265  11.775  12.401   6.512
 5476SOL     OW65266   9.131  15.473   1.124
 5476SOL    HW165267   9.057  15.420   1.166
 5476SOL    HW265268   9.208  15.479   1.188
 5477SOL     OW65269   8.069   6.126   0.240
 5477SOL    HW165270   8.132   6.144   0.316
 5477SOL    HW265271   8.117   6.077   0.168
 5478SOL     OW65272   5.856   8.262   1.730
 5478SOL    HW165273   5.848   8.338   1.794
 5478SOL    HW265274   5.894   8.294   1.644
 5479SOL     OW65275  10.306   8.577   8.443
 5479SOL    HW165276  10.289   8.497   0.046
 5479SOL    HW265277  10.384   8.628   0.025
 5480SOL     OW65278   5.889  11.844   6.686
 5480SOL    HW165279   5.887  11.753   6.728
 5480SOL    HW265280   5.913  11.912   6.755
 5481SOL     OW65281   3.668   4.007   0.214
 5481SOL    HW165282   3.722   3.923   0.215
 5481SOL    HW265283   3.723   4.082   0.251
 5482SOL     OW65284   5.814   0.986   7.062
 5482SOL    HW165285   5.749   0.946   7.126
 5482SOL    HW265286   5.885   1.034   7.113
 5483SOL     OW65287  15.365  16.786   8.391
 5483SOL    HW165288  15.272  16.813   8.364
 5483SOL    HW265289  15.360  16.720   0.012
 5484SOL     OW65290   5.229  13.324   1.316
 5484SOL    HW165291   5.274  13.246   1.360
 5484SOL    HW265292   5.149  13.351   1.370
 5485SOL     OW65293  13.729  11.694   1.449
 5485SOL    HW165294  13.675  11.664   1.371
 5485SOL    HW265295  13.671  11.749   1.510
 5486SOL     OW65296   0.896  12.472   8.299
 5486SOL    HW165297   0.853  12.399   8.351
 5486SOL    HW265298   0.969  12.434   8.242
 5487SOL     OW65299   3.039  13.332   1.482
 5487SOL    HW165300   2.988  13.338   1.568
 5487SOL    HW265301   3.122  13.387   1.488
 5488SOL     OW65302   8.275   2.837   8.441
 5488SOL    HW165303   8.279   2.932   8.412
 5488SOL    HW265304   8.211   2.829   0.064
 5489SOL     OW65305   3.963  10.055   0.748
 5489SOL    HW165306   3.971   9.956   0.759
 5489SOL    HW265307   4.054  10.097   0.755
 5490SOL     OW65308  14.242  10.386   1.148
 5490SOL    HW165309  14.181  10.368   1.224
 5490SOL    HW265310  14.275  10.481   1.152
 5491SOL     OW65311  11.291   2.906   0.558
 5491SOL    HW165312  11.265   2.853   0.478
 5491SOL    HW265313  11.270   2.854   0.641
 5492SOL     OW65314  13.872  16.934   8.231
 5492SOL    HW165315  13.894   0.018   8.301
 5492SOL    HW265316  13.928  16.951   8.150
 5493SOL     OW65317   4.290   0.174   0.888
 5493SOL    HW165318   4.384   0.208   0.885
 5493SOL    HW265319   4.290   0.081   0.926
 5494SOL     OW65320   4.806   5.976   7.345
 5494SOL    HW165321   4.886   6.014   7.390
 5494SOL    HW265322   4.761   5.911   7.407
 5495SOL     OW65323   3.916   0.848   1.600
 5495SOL    HW165324   3.914   0.948   1.605
 5495SOL    HW265325   3.955   0.820   1.512
 5496SOL     OW65326  11.946   0.392   0.511
 5496SOL    HW165327  11.892   0.400   0.427
 5496SOL    HW265328  11.917   0.462   0.577
 5497SOL     OW65329  15.648  12.949   7.153
 5497SOL    HW165330  15.719  12.890   7.115
 5497SOL    HW265331  15.597  12.900   7.223
 5498SOL     OW65332   1.894  14.610   0.936
 5498SOL    HW165333   1.893  14.544   1.011
 5498SOL    HW265334   1.975  14.592   0.879
 5499SOL     OW65335  16.956   6.724   0.845
 5499SOL    HW165336   0.042   6.731   0.917
 5499SOL    HW265337  16.887   6.796   0.858
 5500SOL     OW65338   7.962   3.967   6.612
 5500SOL    HW165339   8.031   3.911   6.566
 5500SOL    HW265340   7.929   4.038   6.550
 5501SOL     OW65341   8.686   7.083   6.067
 5501SOL    HW165342   8.696   7.103   5.970
 5501SOL    HW265343   8.612   7.137   6.105
 5502SOL     OW65344  11.276  10.014   8.330
 5502SOL    HW165345  11.253   9.928   8.376
 5502SOL    HW265346  11.193  10.057   8.295
 5503SOL     OW65347  13.591  14.092   1.626
 5503SOL    HW165348  13.653  14.148   1.570
 5503SOL    HW265349  13.519  14.150   1.664
 5504SOL     OW65350   7.614   9.290   1.572
 5504SOL    HW165351   7.629   9.332   1.662
 5504SOL    HW265352   7.582   9.359   1.507
 5505SOL     OW65353   8.729   2.313   0.124
 5505SOL    HW165354   8.732   2.412   0.107
 5505SOL    HW265355   8.642   2.277   0.090
 5506SOL     OW65356   9.539   4.523   7.138
 5506SOL    HW165357   9.440   4.512   7.137
 5506SOL    HW265358   9.580   4.464   7.069
 5507SOL     OW65359   8.613   6.621   0.154
 5507SOL    HW165360   8.580   6.632   0.248
 5507SOL    HW265361   8.578   6.535   0.116
 5508SOL     OW65362  10.404   7.166   7.789
 5508SOL    HW165363  10.422   7.249   7.736
 5508SOL    HW265364  10.355   7.100   7.732
 5509SOL     OW65365   7.791   4.148   0.476
 5509SOL    HW165366   7.787   4.101   0.388
 5509SOL    HW265367   7.789   4.080   0.550
 5510SOL     OW65368  14.560  13.024   7.768
 5510SOL    HW165369  14.484  13.086   7.787
 5510SOL    HW265370  14.528  12.949   7.710
 5511SOL     OW65371  11.931  11.275   1.605
 5511SOL    HW165372  11.921  11.179   1.630
 5511SOL    HW265373  11.938  11.284   1.505
 5512SOL     OW65374   8.871  16.954   6.557
 5512SOL    HW165375   8.778  16.925   6.535
 5512SOL    HW265376   8.876   0.071   6.554
 5513SOL     OW65377   7.804  12.913   1.278
 5513SOL    HW165378   7.865  12.926   1.356
 5513SOL    HW265379   7.804  12.995   1.221
 5514SOL     OW65380  11.056   9.615   1.026
 5514SOL    HW165381  11.010   9.701   1.004
 5514SOL    HW265382  11.143   9.635   1.071
 5515SOL     OW65383  11.637   8.875   6.637
 5515SOL    HW165384  11.716   8.936   6.626
 5515SOL    HW265385  11.564   8.922   6.684
 5516SOL     OW65386   1.488  10.958   8.130
 5516SOL    HW165387   1.511  11.043   8.083
 5516SOL    HW265388   1.560  10.891   8.114
 5517SOL     OW65389   7.084   2.947   0.099
 5517SOL    HW165390   6.994   2.963   0.140
 5517SOL    HW265391   7.149   3.013   0.134
 5518SOL     OW65392  12.331  12.840   1.854
 5518SOL    HW165393  12.332  12.745   1.885
 5518SOL    HW265394  12.382  12.897   1.919
 5519SOL     OW65395   2.905   8.585   7.928
 5519SOL    HW165396   2.919   8.633   7.842
 5519SOL    HW265397   2.819   8.614   7.969
 5520SOL     OW65398  12.812   7.909   0.536
 5520SOL    HW165399  12.890   7.911   0.473
 5520SOL    HW265400  12.738   7.857   0.496
 5521SOL     OW65401  13.730   0.731   8.294
 5521SOL    HW165402  13.778   0.796   8.352
 5521SOL    HW265403  13.635   0.723   8.324
 5522SOL     OW65404   6.382   0.250   7.447
 5522SOL    HW165405   6.337   0.226   7.361
 5522SOL    HW265406   6.463   0.306   7.426
 5523SOL     OW65407   5.892   4.322   1.013
 5523SOL    HW165408   5.984   4.286   1.028
 5523SOL    HW265409   5.893   4.421   1.030
 5524SOL     OW65410  10.769   7.416   0.614
 5524SOL    HW165411  10.821   7.335   0.641
 5524SOL    HW265412  10.831   7.493   0.601
 5525SOL     OW65413  15.827  15.124   1.651
 5525SOL    HW165414  15.851  15.170   1.737
 5525SOL    HW265415  15.865  15.176   1.574
 5526SOL     OW65416   4.062  10.120   7.799
 5526SOL    HW165417   4.030  10.045   7.740
 5526SOL    HW265418   4.162  10.116   7.805
 5527SOL     OW65419  14.556   3.724   8.225
 5527SOL    HW165420  14.554   3.817   8.263
 5527SOL    HW265421  14.463   3.691   8.214
 5528SOL     OW65422   8.225  11.318   0.243
 5528SOL    HW165423   8.303  11.354   0.294
 5528SOL    HW265424   8.198  11.230   0.283
 5529SOL     OW65425  14.181   3.198   0.575
 5529SOL    HW165426  14.104   3.205   0.638
 5529SOL    HW265427  14.158   3.133   0.502
 5530SOL     OW65428   5.451   1.068   7.362
 5530SOL    HW165429   5.508   1.117   7.427
 5530SOL    HW265430   5.379   1.018   7.411
 5531SOL     OW65431   4.607  10.737   1.513
 5531SOL    HW165432   4.558  10.822   1.531
 5531SOL    HW265433   4.699  10.758   1.480
 5532SOL     OW65434   8.445  11.878   7.248
 5532SOL    HW165435   8.368  11.814   7.245
 5532SOL    HW265436   8.488  11.884   7.158
 5533SOL     OW65437   2.243   3.970   7.587
 5533SOL    HW165438   2.208   3.902   7.650
 5533SOL    HW265439   2.199   4.058   7.604
 5534SOL     OW65440   8.430   5.380   1.109
 5534SOL    HW165441   8.469   5.437   1.181
 5534SOL    HW265442   8.331   5.380   1.116
 5535SOL     OW65443   2.077   3.531   1.540
 5535SOL    HW165444   2.132   3.508   1.620
 5535SOL    HW265445   2.000   3.589   1.568
 5536SOL     OW65446   7.266  10.406   7.409
 5536SOL    HW165447   7.214  10.347   7.471
 5536SOL    HW265448   7.345  10.356   7.373
 5537SOL     OW65449   6.986  14.449   7.318
 5537SOL    HW165450   7.058  14.390   7.356
 5537SOL    HW265451   6.904  14.441   7.374
 5538SOL     OW65452   9.228   8.957   7.656
 5538SOL    HW165453   9.233   8.885   7.588
 5538SOL    HW265454   9.154   8.936   7.721
 5539SOL     OW65455   8.122  10.040   1.345
 5539SOL    HW165456   8.089  10.036   1.250
 5539SOL    HW265457   8.212  10.084   1.347
 5540SOL     OW65458   8.585  15.177   0.726
 5540SOL    HW165459   8.552  15.262   0.685
 5540SOL    HW265460   8.510  15.111   0.729
 5541SOL     OW65461   3.858  14.021   1.904
 5541SOL    HW165462   3.952  13.997   1.882
 5541SOL    HW265463   3.841  14.005   2.001
 5542SOL     OW65464  15.688  16.455   7.280
 5542SOL    HW165465  15.639  16.463   7.367
 5542SOL    HW265466  15.697  16.359   7.255
 5543SOL     OW65467   3.040   6.165   0.982
 5543SOL    HW165468   3.036   6.147   1.080
 5543SOL    HW265469   3.134   6.190   0.957
 5544SOL     OW65470   2.283   8.784   7.253
 5544SOL    HW165471   2.249   8.825   7.338
 5544SOL    HW265472   2.372   8.823   7.230
 5545SOL     OW65473   4.162  12.236   1.373
 5545SOL    HW165474   4.155  12.327   1.414
 5545SOL    HW265475   4.199  12.172   1.441
 5546SOL     OW65476   5.763   8.595   0.111
 5546SOL    HW165477   5.779   8.541   0.193
 5546SOL    HW265478   5.738   8.534   0.035
 5547SOL     OW65479   0.782  16.107   7.529
 5547SOL    HW165480   0.803  16.076   7.437
 5547SOL    HW265481   0.713  16.046   7.569
 5548SOL     OW65482   0.144   8.976   6.783
 5548SOL    HW165483   0.141   9.074   6.763
 5548SOL    HW265484   0.122   8.925   6.700
 5549SOL     OW65485  16.694   8.989   1.022
 5549SOL    HW165486  16.762   9.024   0.957
 5549SOL    HW265487  16.736   8.977   1.112
 5550SOL     OW65488  10.407   8.116   0.969
 5550SOL    HW165489  10.457   8.150   1.049
 5550SOL    HW265490  10.388   8.192   0.907
 5551SOL     OW65491   3.014   2.731   0.078
 5551SOL    HW165492   2.985   2.729   8.437
 5551SOL    HW265493   2.933   2.740   0.137
 5552SOL     OW65494  14.446   2.785   0.886
 5552SOL    HW165495  14.529   2.785   0.830
 5552SOL    HW265496  14.372   2.738   0.837
 5553SOL     OW65497   5.318   6.500   0.496
 5553SOL    HW165498   5.333   6.481   0.399
 5553SOL    HW265499   5.399   6.472   0.548
 5554SOL     OW65500   2.706   3.025   1.764
 5554SOL    HW165501   2.789   3.079   1.775
 5554SOL    HW265502   2.670   3.000   1.854
 5555SOL     OW65503  15.587   2.439   6.925
 5555SOL    HW165504  15.624   2.370   6.987
 5555SOL    HW265505  15.488   2.429   6.920
 5556SOL     OW65506  16.329   1.470   7.766
 5556SOL    HW165507  16.397   1.528   7.721
 5556SOL    HW265508  16.273   1.423   7.697
 5557SOL     OW65509  15.352   9.519   7.102
 5557SOL    HW165510  15.305   9.446   7.151
 5557SOL    HW265511  15.285   9.590   7.078
 5558SOL     OW65512   0.601   9.459   7.885
 5558SOL    HW165513   0.625   9.551   7.854
 5558SOL    HW265514   0.503   9.455   7.906
 5559SOL     OW65515   2.726  14.430   7.252
 5559SOL    HW165516   2.755  14.334   7.254
 5559SOL    HW265517   2.634  14.438   7.292
 5560SOL     OW65518  13.340  10.162   1.055
 5560SOL    HW165519  13.341  10.174   0.956
 5560SOL    HW265520  13.433  10.151   1.089
 5561SOL     OW65521   4.991   4.792   7.954
 5561SOL    HW165522   4.924   4.720   7.939
 5561SOL    HW265523   5.064   4.758   8.013
 5562SOL     OW65524   2.626  15.195   0.391
 5562SOL    HW165525   2.586  15.196   0.483
 5562SOL    HW265526   2.613  15.106   0.349
 5563SOL     OW65527   8.427   9.602   7.750
 5563SOL    HW165528   8.518   9.638   7.730
 5563SOL    HW265529   8.397   9.635   7.840
 5564SOL     OW65530   8.412  16.548   6.724
 5564SOL    HW165531   8.344  16.619   6.743
 5564SOL    HW265532   8.367  16.471   6.679
 5565SOL     OW65533   4.426  16.335   7.305
 5565SOL    HW165534   4.443  16.236   7.305
 5565SOL    HW265535   4.332  16.352   7.336
 5566SOL     OW65536   4.898   9.172   8.024
 5566SOL    HW165537   4.844   9.186   8.107
 5566SOL    HW265538   4.856   9.224   7.949
 5567SOL     OW65539   7.747  13.598   0.744
 5567SOL    HW165540   7.845  13.587   0.727
 5567SOL    HW265541   7.732  13.623   0.840
 5568SOL     OW65542   0.383   2.283   7.229
 5568SOL    HW165543   0.452   2.233   7.176
 5568SOL    HW265544   0.364   2.371   7.185
 5569SOL     OW65545  16.954   8.037   8.446
 5569SOL    HW165546  16.897   7.979   0.050
 5569SOL    HW265547   0.066   8.031   0.023
 5570SOL     OW65548  13.637  13.230   0.796
 5570SOL    HW165549  13.735  13.248   0.796
 5570SOL    HW265550  13.606  13.215   0.702
 5571SOL     OW65551   1.544  16.010   0.375
 5571SOL    HW165552   1.606  16.083   0.346
 5571SOL    HW265553   1.457  16.019   0.327
 5572SOL     OW65554  13.276   7.262   0.611
 5572SOL    HW165555  13.323   7.279   0.524
 5572SOL    HW265556  13.191   7.212   0.594
 5573SOL     OW65557  16.860   7.064   6.480
 5573SOL    HW165558  16.942   7.097   6.434
 5573SOL    HW265559  16.871   6.967   6.502
 5574SOL     OW65560   2.228   9.227   8.174
 5574SOL    HW165561   2.312   9.205   8.126
 5574SOL    HW265562   2.190   9.144   8.216
 5575SOL     OW65563   3.940  13.486   1.390
 5575SOL    HW165564   4.016  13.454   1.335
 5575SOL    HW265565   3.856  13.487   1.336
 5576SOL     OW65566  10.830   5.296   7.867
 5576SOL    HW165567  10.929   5.301   7.881
 5576SOL    HW265568  10.784   5.353   7.935
 5577SOL     OW65569   5.521  12.424   7.009
 5577SOL    HW165570   5.607  12.438   6.961
 5577SOL    HW265571   5.463  12.362   6.956
 5578SOL     OW65572   8.603  10.729   8.174
 5578SOL    HW165573   8.535  10.655   8.169
 5578SOL    HW265574   8.694  10.689   8.186
 5579SOL     OW65575  16.443  14.869   7.794
 5579SOL    HW165576  16.428  14.964   7.769
 5579SOL    HW265577  16.387  14.810   7.736
 5580SOL     OW65578  10.280   0.249   0.973
 5580SOL    HW165579  10.271   0.317   1.045
 5580SOL    HW265580  10.259   0.291   0.885
 5581SOL     OW65581   7.562  16.840   1.743
 5581SOL    HW165582   7.612  16.877   1.822
 5581SOL    HW265583   7.476  16.800   1.774
 5582SOL     OW65584   7.224   4.914   8.446
 5582SOL    HW165585   7.139   4.928   0.043
 5582SOL    HW265586   7.223   4.970   8.364
 5583SOL     OW65587   1.395   1.321   1.930
 5583SOL    HW165588   1.411   1.287   2.022
 5583SOL    HW265589   1.297   1.328   1.913
 5584SOL     OW65590   9.780  13.652   6.811
 5584SOL    HW165591   9.857  13.684   6.866
 5584SOL    HW265592   9.792  13.555   6.789
 5585SOL     OW65593  16.630   1.862   8.102
 5585SOL    HW165594  16.585   1.909   8.178
 5585SOL    HW265595  16.718   1.825   8.133
 5586SOL     OW65596   0.478   6.491   7.239
 5586SOL    HW165597   0.505   6.567   7.298
 5586SOL    HW265598   0.556   6.430   7.225
 5587SOL     OW65599  15.906  11.181   7.230
 5587SOL    HW165600  16.003  11.196   7.248
 5587SOL    HW265601  15.886  11.083   7.234
 5588SOL     OW65602   3.255   1.120   0.203
 5588SOL    HW165603   3.289   1.136   0.296
 5588SOL    HW265604   3.168   1.168   0.191
 5589SOL     OW65605   0.637   2.779   5.840
 5589SOL    HW165606   0.724   2.814   5.806
 5589SOL    HW265607   0.577   2.856   5.864
 5590SOL     OW65608  13.556   3.665   7.385
 5590SOL    HW165609  13.514   3.574   7.390
 5590SOL    HW265610  13.493   3.732   7.425
 5591SOL     OW65611   5.883  13.717   2.341
 5591SOL    HW165612   5.878  13.636   2.398
 5591SOL    HW265613   5.927  13.791   2.392
 5592SOL     OW65614   3.485   3.676   0.593
 5592SOL    HW165615   3.521   3.586   0.569
 5592SOL    HW265616   3.561   3.740   0.605
 5593SOL     OW65617  13.727   7.668   0.218
 5593SOL    HW165618  13.783   7.604   0.272
 5593SOL    HW265619  13.763   7.761   0.228
 5594SOL     OW65620   8.921  16.918   0.792
 5594SOL    HW165621   8.953  16.838   0.843
 5594SOL    HW265622   8.835  16.897   0.747
 5595SOL     OW65623   7.211   3.695   0.899
 5595SOL    HW165624   7.289   3.643   0.864
 5595SOL    HW265625   7.155   3.726   0.822
 5596SOL     OW65626   8.493   0.891   0.516
 5596SOL    HW165627   8.572   0.905   0.456
 5596SOL    HW265628   8.413   0.938   0.476
 5597SOL     OW65629   0.777   0.507   8.058
 5597SOL    HW165630   0.857   0.567   8.053
 5597SOL    HW265631   0.798   0.427   8.113
 5598SOL     OW65632  15.228  13.678   2.341
 5598SOL    HW165633  15.223  13.603   2.407
 5598SOL    HW265634  15.136  13.702   2.311
 5599SOL     OW65635   8.513   1.127   0.229
 5599SOL    HW165636   8.423   1.096   0.198
 5599SOL    HW265637   8.542   1.207   0.175
 5600SOL     OW65638   4.487  14.209   1.978
 5600SOL    HW165639   4.574  14.237   2.019
 5600SOL    HW265640   4.419  14.280   1.994
 5601SOL     OW65641   3.368  10.407   0.761
 5601SOL    HW165642   3.296  10.440   0.699
 5601SOL    HW265643   3.327  10.376   0.847
 5602SOL     OW65644   2.193   1.524   1.678
 5602SOL    HW165645   2.235   1.584   1.746
 5602SOL    HW265646   2.180   1.574   1.593
 5603SOL     OW65647  11.685   4.755   6.358
 5603SOL    HW165648  11.664   4.658   6.372
 5603SOL    HW265649  11.649   4.784   6.269
 5604SOL     OW65650   2.123   0.248   7.538
 5604SOL    HW165651   2.185   0.197   7.479
 5604SOL    HW265652   2.176   0.288   7.614
 5605SOL     OW65653  13.631  16.746   6.823
 5605SOL    HW165654  13.722  16.734   6.861
 5605SOL    HW265655  13.582  16.659   6.827
 5606SOL     OW65656   5.768  16.299   0.630
 5606SOL    HW165657   5.831  16.242   0.577
 5606SOL    HW265658   5.716  16.242   0.692
 5607SOL     OW65659   3.970   2.028   0.210
 5607SOL    HW165660   4.070   2.025   0.201
 5607SOL    HW265661   3.945   2.067   0.298
 5608SOL     OW65662   5.643  16.776   0.737
 5608SOL    HW165663   5.598  16.863   0.760
 5608SOL    HW265664   5.729  16.795   0.690
 5609SOL     OW65665  14.175  11.847   1.670
 5609SOL    HW165666  14.157  11.917   1.738
 5609SOL    HW265667  14.171  11.888   1.578
 5610SOL     OW65668  12.541   1.447   5.828
 5610SOL    HW165669  12.627   1.429   5.875
 5610SOL    HW265670  12.553   1.527   5.768
 5611SOL     OW65671   7.044   8.882   6.926
 5611SOL    HW165672   7.031   8.981   6.918
 5611SOL    HW265673   6.967   8.835   6.882
 5612SOL     OW65674   8.323  16.357   1.883
 5612SOL    HW165675   8.259  16.310   1.944
 5612SOL    HW265676   8.347  16.446   1.922
 5613SOL     OW65677   7.895  11.971   1.164
 5613SOL    HW165678   7.867  12.004   1.254
 5613SOL    HW265679   7.816  11.932   1.117
 5614SOL     OW65680  16.158  10.293   7.133
 5614SOL    HW165681  16.073  10.340   7.157
 5614SOL    HW265682  16.222  10.357   7.093
 5615SOL     OW65683   5.101  15.194   7.604
 5615SOL    HW165684   5.137  15.187   7.697
 5615SOL    HW265685   5.134  15.279   7.561
 5616SOL     OW65686  12.178   1.361   7.412
 5616SOL    HW165687  12.190   1.266   7.441
 5616SOL    HW265688  12.267   1.401   7.390
 5617SOL     OW65689  13.537  14.906   0.455
 5617SOL    HW165690  13.533  14.865   0.546
 5617SOL    HW265691  13.505  14.840   0.387
 5618SOL     OW65692   2.332   6.947   6.934
 5618SOL    HW165693   2.273   6.890   6.876
 5618SOL    HW265694   2.304   6.937   7.029
 5619SOL     OW65695   4.513   3.105   7.352
 5619SOL    HW165696   4.427   3.156   7.345
 5619SOL    HW265697   4.527   3.052   7.269
 5620SOL     OW65698   2.174   3.063   7.533
 5620SOL    HW165699   2.135   3.133   7.593
 5620SOL    HW265700   2.100   3.008   7.494
 5621SOL     OW65701  14.630   4.874   0.164
 5621SOL    HW165702  14.576   4.958   0.171
 5621SOL    HW265703  14.589   4.803   0.222
 5622SOL     OW65704   6.621  10.977   6.596
 5622SOL    HW165705   6.604  10.891   6.643
 5622SOL    HW265706   6.601  10.966   6.498
 5623SOL     OW65707  15.856   8.720   6.335
 5623SOL    HW165708  15.828   8.797   6.392
 5623SOL    HW265709  15.950   8.734   6.305
 5624SOL     OW65710   1.231   3.260   6.688
 5624SOL    HW165711   1.259   3.255   6.592
 5624SOL    HW265712   1.275   3.186   6.739
 5625SOL     OW65713   4.929  14.679   1.126
 5625SOL    HW165714   4.893  14.677   1.033
 5625SOL    HW265715   4.854  14.672   1.192
 5626SOL     OW65716   5.495   3.785   2.043
 5626SOL    HW165717   5.555   3.824   2.112
 5626SOL    HW265718   5.497   3.685   2.049
 5627SOL     OW65719   7.967   1.713   2.173
 5627SOL    HW165720   8.035   1.680   2.107
 5627SOL    HW265721   7.898   1.642   2.189
 5628SOL     OW65722   2.038   7.131   6.888
 5628SOL    HW165723   1.990   7.175   6.964
 5628SOL    HW265724   2.087   7.200   6.835
 5629SOL     OW65725  15.096  16.476   0.831
 5629SOL    HW165726  15.046  16.398   0.794
 5629SOL    HW265727  15.032  16.544   0.865
 5630SOL     OW65728   2.928   6.811   8.421
 5630SOL    HW165729   2.927   6.895   8.366
 5630SOL    HW265730   2.885   6.737   8.370
 5631SOL     OW65731   3.587   5.434   1.409
 5631SOL    HW165732   3.540   5.516   1.374
 5631SOL    HW265733   3.588   5.364   1.338
 5632SOL     OW65734   6.092   3.746   0.859
 5632SOL    HW165735   6.176   3.699   0.887
 5632SOL    HW265736   6.017   3.680   0.852
 5633SOL     OW65737  10.277  11.043   7.106
 5633SOL    HW165738  10.274  10.973   7.035
 5633SOL    HW265739  10.187  11.087   7.113
 5634SOL     OW65740   5.326  10.759   0.463
 5634SOL    HW165741   5.278  10.847   0.473
 5634SOL    HW265742   5.423  10.773   0.482
 5635SOL     OW65743   4.053  15.962   7.331
 5635SOL    HW165744   4.089  15.956   7.238
 5635SOL    HW265745   4.109  15.906   7.392
 5636SOL     OW65746   5.375   8.628   7.303
 5636SOL    HW165747   5.327   8.631   7.216
 5636SOL    HW265748   5.314   8.658   7.376
 5637SOL     OW65749   4.448  11.846   6.182
 5637SOL    HW165750   4.452  11.751   6.151
 5637SOL    HW265751   4.352  11.876   6.184
 5638SOL     OW65752  10.270  14.561   0.328
 5638SOL    HW165753  10.302  14.474   0.291
 5638SOL    HW265754  10.183  14.548   0.375
 5639SOL     OW65755   9.332   2.088   6.624
 5639SOL    HW165756   9.278   2.066   6.705
 5639SOL    HW265757   9.271   2.104   6.546
 5640SOL     OW65758   1.917   2.664   6.845
 5640SOL    HW165759   1.981   2.723   6.795
 5640SOL    HW265760   1.916   2.573   6.804
 5641SOL     OW65761   6.641  13.259   0.465
 5641SOL    HW165762   6.694  13.344   0.456
 5641SOL    HW265763   6.688  13.197   0.528
 5642SOL     OW65764   6.058  15.232   0.917
 5642SOL    HW165765   6.123  15.303   0.891
 5642SOL    HW265766   6.007  15.202   0.837
 5643SOL     OW65767   6.366  16.836   1.165
 5643SOL    HW165768   6.276  16.843   1.209
 5643SOL    HW265769   6.429  16.788   1.226
 5644SOL     OW65770   0.431   7.330   1.458
 5644SOL    HW165771   0.346   7.365   1.497
 5644SOL    HW265772   0.499   7.321   1.531
 5645SOL     OW65773  10.706   8.467   8.271
 5645SOL    HW165774  10.721   8.369   8.253
 5645SOL    HW265775  10.710   8.484   8.369
 5646SOL     OW65776  16.223   3.261   0.766
 5646SOL    HW165777  16.150   3.279   0.700
 5646SOL    HW265778  16.271   3.346   0.786
 5647SOL     OW65779   0.400  13.242   1.676
 5647SOL    HW165780   0.442  13.313   1.621
 5647SOL    HW265781   0.367  13.168   1.617
 5648SOL     OW65782  15.033   4.885   1.937
 5648SOL    HW165783  15.030   4.908   2.035
 5648SOL    HW265784  14.968   4.942   1.887
 5649SOL     OW65785   5.114   6.843   0.995
 5649SOL    HW165786   5.049   6.774   1.026
 5649SOL    HW265787   5.196   6.798   0.959
 5650SOL     OW65788   1.780   7.221   1.497
 5650SOL    HW165789   1.810   7.239   1.591
 5650SOL    HW265790   1.682   7.239   1.489
 5651SOL     OW65791  14.933   2.301   7.967
 5651SOL    HW165792  14.984   2.279   7.884
 5651SOL    HW265793  14.993   2.348   8.032
 5652SOL     OW65794   7.166  14.078   8.024
 5652SOL    HW165795   7.128  14.000   7.975
 5652SOL    HW265796   7.106  14.158   8.012
 5653SOL     OW65797  13.789   1.292   1.473
 5653SOL    HW165798  13.720   1.223   1.452
 5653SOL    HW265799  13.747   1.382   1.471
 5654SOL     OW65800   5.036   3.058   8.152
 5654SOL    HW165801   5.072   2.998   8.223
 5654SOL    HW265802   5.078   3.149   8.161
 5655SOL     OW65803   0.181   5.344   6.157
 5655SOL    HW165804   0.255   5.307   6.213
 5655SOL    HW265805   0.201   5.328   6.061
 5656SOL     OW65806   3.664  14.215   3.044
 5656SOL    HW165807   3.729  14.140   3.058
 5656SOL    HW265808   3.690  14.292   3.102
 5657SOL     OW65809  10.480   7.830   0.069
 5657SOL    HW165810  10.456   7.872   0.157
 5657SOL    HW265811  10.551   7.761   0.084
 5658SOL     OW65812   4.872   7.273   1.458
 5658SOL    HW165813   4.903   7.209   1.387
 5658SOL    HW265814   4.777   7.299   1.440
 5659SOL     OW65815  15.439   3.057   0.267
 5659SOL    HW165816  15.436   3.112   0.183
 5659SOL    HW265817  15.368   3.089   0.330
 5660SOL     OW65818  16.501   1.162   0.262
 5660SOL    HW165819  16.537   1.073   0.289
 5660SOL    HW265820  16.403   1.166   0.282
 5661SOL     OW65821   9.120   4.570   6.076
 5661SOL    HW165822   9.117   4.665   6.044
 5661SOL    HW265823   9.161   4.513   6.005
 5662SOL     OW65824  14.527  13.200   0.433
 5662SOL    HW165825  14.519  13.250   0.519
 5662SOL    HW265826  14.535  13.102   0.452
 5663SOL     OW65827   4.880  13.138   1.914
 5663SOL    HW165828   4.864  13.200   1.991
 5663SOL    HW265829   4.837  13.050   1.932
 5664SOL     OW65830  13.706  15.553   2.042
 5664SOL    HW165831  13.793  15.566   2.089
 5664SOL    HW265832  13.631  15.561   2.108
 5665SOL     OW65833   0.917   9.124   0.179
 5665SOL    HW165834   0.863   9.048   0.144
 5665SOL    HW265835   0.922   9.196   0.111
 5666SOL     OW65836   9.406   0.173   7.342
 5666SOL    HW165837   9.336   0.133   7.283
 5666SOL    HW265838   9.379   0.266   7.367
 5667SOL     OW65839   6.848   2.256   8.449
 5667SOL    HW165840   6.845   2.271   8.350
 5667SOL    HW265841   6.895   2.170   0.014
 5668SOL     OW65842   6.870   9.225   0.495
 5668SOL    HW165843   6.834   9.235   0.402
 5668SOL    HW265844   6.801   9.184   0.554
 5669SOL     OW65845  16.259   1.975   1.072
 5669SOL    HW165846  16.248   2.062   1.120
 5669SOL    HW265847  16.200   1.974   0.992
 5670SOL     OW65848   3.678   8.269   6.816
 5670SOL    HW165849   3.617   8.337   6.777
 5670SOL    HW265850   3.736   8.231   6.743
 5671SOL     OW65851   3.444  10.419   8.183
 5671SOL    HW165852   3.531  10.417   8.232
 5671SOL    HW265853   3.378  10.361   8.230
 5672SOL     OW65854  16.107  13.121   1.653
 5672SOL    HW165855  16.134  13.206   1.607
 5672SOL    HW265856  16.109  13.045   1.588
 5673SOL     OW65857  10.702   5.202   7.027
 5673SOL    HW165858  10.629   5.218   6.960
 5673SOL    HW265859  10.757   5.285   7.036
 5674SOL     OW65860   8.238  16.217   7.113
 5674SOL    HW165861   8.276  16.290   7.056
 5674SOL    HW265862   8.139  16.212   7.098
 5675SOL     OW65863  12.246   8.994   1.544
 5675SOL    HW165864  12.240   8.910   1.490
 5675SOL    HW265865  12.290   8.975   1.631
 5676SOL     OW65866  13.444  10.485   7.437
 5676SOL    HW165867  13.522  10.539   7.405
 5676SOL    HW265868  13.454  10.468   7.535
 5677SOL     OW65869   8.738  15.340   0.992
 5677SOL    HW165870   8.780  15.273   0.931
 5677SOL    HW265871   8.760  15.316   1.087
 5678SOL     OW65872   6.668  11.888   7.327
 5678SOL    HW165873   6.684  11.977   7.368
 5678SOL    HW265874   6.571  11.879   7.304
 5679SOL     OW65875  15.229   7.425   1.107
 5679SOL    HW165876  15.134   7.425   1.077
 5679SOL    HW265877  15.289   7.400   1.031
 5680SOL     OW65878   7.896  14.673   7.756
 5680SOL    HW165879   7.836  14.594   7.744
 5680SOL    HW265880   7.956  14.658   7.835
 5681SOL     OW65881   4.957  11.785   2.074
 5681SOL    HW165882   4.916  11.849   2.008
 5681SOL    HW265883   4.884  11.730   2.115
 5682SOL     OW65884   8.259   0.123   7.645
 5682SOL    HW165885   8.207   0.142   7.729
 5682SOL    HW265886   8.234   0.033   7.610
 5683SOL     OW65887  15.871   9.556   7.993
 5683SOL    HW165888  15.859   9.648   8.031
 5683SOL    HW265889  15.782   9.523   7.958
 5684SOL     OW65890  15.915  15.763   7.693
 5684SOL    HW165891  15.849  15.793   7.762
 5684SOL    HW265892  15.866  15.722   7.616
 5685SOL     OW65893  14.109   0.336   7.656
 5685SOL    HW165894  14.103   0.390   7.572
 5685SOL    HW265895  14.024   0.285   7.669
 5686SOL     OW65896  16.115   0.808   6.885
 5686SOL    HW165897  16.204   0.838   6.919
 5686SOL    HW265898  16.076   0.740   6.947
 5687SOL     OW65899   5.900  16.920   1.565
 5687SOL    HW165900   5.863  16.838   1.522
 5687SOL    HW265901   5.977  16.895   1.624
 5688SOL     OW65902   1.601   0.080   1.729
 5688SOL    HW165903   1.643   0.137   1.800
 5688SOL    HW265904   1.630   0.112   1.639
 5689SOL     OW65905   3.737  13.564   1.984
 5689SOL    HW165906   3.752  13.468   2.007
 5689SOL    HW265907   3.825  13.607   1.960
 5690SOL     OW65908  12.931   3.722   1.348
 5690SOL    HW165909  12.981   3.791   1.399
 5690SOL    HW265910  12.893   3.654   1.411
 5691SOL     OW65911  10.746   6.937   6.839
 5691SOL    HW165912  10.810   6.896   6.904
 5691SOL    HW265913  10.775   7.031   6.819
 5692SOL     OW65914   9.216  15.047   6.651
 5692SOL    HW165915   9.312  15.073   6.661
 5692SOL    HW265916   9.199  15.018   6.557
 5693SOL     OW65917   0.014   1.378   6.276
 5693SOL    HW165918  16.937   1.298   6.276
 5693SOL    HW265919   0.101   1.355   6.232
 5694SOL     OW65920   4.597   1.464   8.012
 5694SOL    HW165921   4.527   1.395   7.998
 5694SOL    HW265922   4.686   1.420   8.025
 5695SOL     OW65923  11.478   9.488   7.478
 5695SOL    HW165924  11.538   9.476   7.399
 5695SOL    HW265925  11.451   9.584   7.485
 5696SOL     OW65926   0.569   9.878   1.200
 5696SOL    HW165927   0.500   9.819   1.242
 5696SOL    HW265928   0.610   9.936   1.270
 5697SOL     OW65929  15.458  11.323   2.135
 5697SOL    HW165930  15.545  11.276   2.119
 5697SOL    HW265931  15.474  11.421   2.141
 5698SOL     OW65932  14.094   6.078   0.912
 5698SOL    HW165933  14.175   6.120   0.873
 5698SOL    HW265934  14.106   6.064   1.010
 5699SOL     OW65935   3.147   4.635   1.199
 5699SOL    HW165936   3.198   4.604   1.118
 5699SOL    HW265937   3.154   4.567   1.271
 5700SOL     OW65938  12.025   0.883   0.841
 5700SOL    HW165939  11.933   0.849   0.822
 5700SOL    HW265940  12.081   0.872   0.759
 5701SOL     OW65941   5.782   0.396   7.649
 5701SOL    HW165942   5.801   0.303   7.680
 5701SOL    HW265943   5.728   0.393   7.566
 5702SOL     OW65944  12.768  11.728   1.283
 5702SOL    HW165945  12.737  11.636   1.309
 5702SOL    HW265946  12.773  11.786   1.365
 5703SOL     OW65947   0.797  13.725   7.839
 5703SOL    HW165948   0.846  13.786   7.901
 5703SOL    HW265949   0.851  13.711   7.756
 5704SOL     OW65950   2.610  13.563   1.685
 5704SOL    HW165951   2.561  13.585   1.770
 5704SOL    HW265952   2.657  13.645   1.652
 5705SOL     OW65953  13.543   7.290   0.067
 5705SOL    HW165954  13.606   7.238   0.125
 5705SOL    HW265955  13.592   7.369   0.029
 5706SOL     OW65956   9.524   7.326   0.923
 5706SOL    HW165957   9.586   7.253   0.951
 5706SOL    HW265958   9.429   7.293   0.930
 5707SOL     OW65959   4.791  12.254   1.189
 5707SOL    HW165960   4.866  12.189   1.201
 5707SOL    HW265961   4.792  12.320   1.263
 5708SOL     OW65962   2.629   5.676   8.451
 5708SOL    HW165963   2.604   5.659   8.356
 5708SOL    HW265964   2.663   5.592   0.038
 5709SOL     OW65965   4.388  11.183   1.145
 5709SOL    HW165966   4.403  11.096   1.192
 5709SOL    HW265967   4.297  11.184   1.104
 5710SOL     OW65968  10.456   5.813   7.101
 5710SOL    HW165969  10.518   5.880   7.060
 5710SOL    HW265970  10.372   5.808   7.047
 5711SOL     OW65971  13.345   0.986   7.098
 5711SOL    HW165972  13.305   1.072   7.129
 5711SOL    HW265973  13.287   0.947   7.026
 5712SOL     OW65974   9.381   5.619   7.538
 5712SOL    HW165975   9.368   5.577   7.448
 5712SOL    HW265976   9.356   5.716   7.533
 5713SOL     OW65977   9.967  16.341   1.224
 5713SOL    HW165978   9.887  16.343   1.283
 5713SOL    HW265979   9.996  16.246   1.209
 5714SOL     OW65980   6.227  13.084   0.540
 5714SOL    HW165981   6.231  13.159   0.606
 5714SOL    HW265982   6.192  13.119   0.453
 5715SOL     OW65983   7.823   8.076   1.077
 5715SOL    HW165984   7.887   8.017   1.027
 5715SOL    HW265985   7.874   8.148   1.124
 5716SOL     OW65986  11.576   0.150   1.426
 5716SOL    HW165987  11.514   0.087   1.473
 5716SOL    HW265988  11.568   0.241   1.468
 5717SOL     OW65989  10.873   2.784   1.192
 5717SOL    HW165990  10.862   2.695   1.148
 5717SOL    HW265991  10.970   2.801   1.210
 5718SOL     OW65992  14.097   0.775   7.821
 5718SOL    HW165993  14.192   0.752   7.800
 5718SOL    HW265994  14.047   0.692   7.845
 5719SOL     OW65995   9.379   2.162   7.541
 5719SOL    HW165996   9.354   2.165   7.638
 5719SOL    HW265997   9.433   2.243   7.518
 5720SOL     OW65998   5.264   2.500   1.251
 5720SOL    HW165999   5.295   2.465   1.339
 5720SOL    HW266000   5.173   2.464   1.230
 5721SOL     OW66001  13.149  10.551   7.914
 5721SOL    HW166002  13.227  10.535   7.975
 5721SOL    HW266003  13.180  10.598   7.832
 5722SOL     OW66004  15.827  16.299   5.793
 5722SOL    HW166005  15.859  16.270   5.703
 5722SOL    HW266006  15.768  16.228   5.832
 5723SOL     OW66007  16.596   0.816   8.335
 5723SOL    HW166008  16.610   0.903   8.382
 5723SOL    HW266009  16.500   0.805   8.311
 5724SOL     OW66010   1.927   0.376   7.386
 5724SOL    HW166011   2.002   0.337   7.440
 5724SOL    HW266012   1.852   0.403   7.447
 5725SOL     OW66013  11.140  15.699   0.634
 5725SOL    HW166014  11.101  15.786   0.604
 5725SOL    HW266015  11.234  15.713   0.666
 5726SOL     OW66016   9.955   7.798   7.178
 5726SOL    HW166017   9.971   7.873   7.113
 5726SOL    HW266018   9.882   7.824   7.241
 5727SOL     OW66019   4.891   8.194   2.303
 5727SOL    HW166020   4.902   8.096   2.320
 5727SOL    HW266021   4.910   8.244   2.387
 5728SOL     OW66022   1.201   2.719   1.975
 5728SOL    HW166023   1.210   2.760   2.066
 5728SOL    HW266024   1.175   2.623   1.984
 5729SOL     OW66025   4.822  16.554   0.124
 5729SOL    HW166026   4.861  16.609   0.198
 5729SOL    HW266027   4.735  16.594   0.095
 5730SOL     OW66028   1.123  14.124   1.690
 5730SOL    HW166029   1.211  14.158   1.657
 5730SOL    HW266030   1.051  14.189   1.664
 5731SOL     OW66031  14.595  12.673   0.345
 5731SOL    HW166032  14.557  12.624   0.267
 5731SOL    HW266033  14.676  12.624   0.378
 5732SOL     OW66034  13.692  12.889   1.180
 5732SOL    HW166035  13.709  12.882   1.082
 5732SOL    HW266036  13.733  12.973   1.215
 5733SOL     OW66037  13.668  10.758   7.104
 5733SOL    HW166038  13.583  10.750   7.053
 5733SOL    HW266039  13.714  10.843   7.079
 5734SOL     OW66040  13.900   4.243   6.352
 5734SOL    HW166041  13.832   4.235   6.426
 5734SOL    HW266042  13.853   4.236   6.264
 5735SOL     OW66043  10.334   8.781   8.245
 5735SOL    HW166044  10.288   8.862   8.282
 5735SOL    HW266045  10.317   8.702   8.304
 5736SOL     OW66046   1.861   0.094   0.067
 5736SOL    HW166047   1.856   0.107   8.422
 5736SOL    HW266048   1.860  16.980   0.088
 5737SOL     OW66049   6.037   5.417   7.553
 5737SOL    HW166050   6.131   5.404   7.586
 5737SOL    HW266051   6.027   5.375   7.463
 5738SOL     OW66052   3.747  12.492   7.381
 5738SOL    HW166053   3.670  12.429   7.384
 5738SOL    HW266054   3.728  12.571   7.439
 5739SOL     OW66055  12.999   0.261   1.229
 5739SOL    HW166056  12.982   0.286   1.325
 5739SOL    HW266057  13.036   0.339   1.180
 5740SOL     OW66058   0.153   7.819   1.440
 5740SOL    HW166059   0.106   7.758   1.504
 5740SOL    HW266060   0.181   7.902   1.488
 5741SOL     OW66061   3.116  16.487   7.136
 5741SOL    HW166062   3.083  16.533   7.053
 5741SOL    HW266063   3.215  16.500   7.144
 5742SOL     OW66064  11.603   7.060   0.129
 5742SOL    HW166065  11.611   7.130   0.057
 5742SOL    HW266066  11.693   7.041   0.167
 5743SOL     OW66067  13.739  14.647   6.326
 5743SOL    HW166068  13.779  14.717   6.267
 5743SOL    HW266069  13.671  14.595   6.275
 5744SOL     OW66070  14.415  16.885   6.933
 5744SOL    HW166071  14.451  16.958   6.875
 5744SOL    HW266072  14.337  16.920   6.986
 5745SOL     OW66073  11.573  12.872   2.046
 5745SOL    HW166074  11.537  12.965   2.058
 5745SOL    HW266075  11.534  12.812   2.115
 5746SOL     OW66076  13.433   3.422   7.394
 5746SOL    HW166077  13.340   3.423   7.357
 5746SOL    HW266078  13.483   3.344   7.356
 5747SOL     OW66079   2.087   6.704   0.678
 5747SOL    HW166080   2.034   6.707   0.762
 5747SOL    HW266081   2.180   6.737   0.696
 5748SOL     OW66082  14.056   2.250   0.836
 5748SOL    HW166083  13.978   2.261   0.773
 5748SOL    HW266084  14.106   2.167   0.813
 5749SOL     OW66085   5.191  14.978   7.453
 5749SOL    HW166086   5.289  14.993   7.447
 5749SOL    HW266087   5.148  15.055   7.501
 5750SOL     OW66088  11.120   9.558   7.672
 5750SOL    HW166089  11.042   9.574   7.732
 5750SOL    HW266090  11.197   9.524   7.725
 5751SOL     OW66091  11.497  13.249   1.067
 5751SOL    HW166092  11.586  13.273   1.029
 5751SOL    HW266093  11.456  13.329   1.111
 5752SOL     OW66094  15.825   2.866   7.351
 5752SOL    HW166095  15.781   2.794   7.405
 5752SOL    HW266096  15.918   2.881   7.386
 5753SOL     OW66097  16.191  15.412   6.514
 5753SOL    HW166098  16.204  15.387   6.611
 5753SOL    HW266099  16.135  15.342   6.469
 5754SOL     OW66100   6.214   3.096   6.423
 5754SOL    HW166101   6.265   3.077   6.339
 5754SOL    HW266102   6.123   3.056   6.417
 5755SOL     OW66103   0.595   1.767   7.573
 5755SOL    HW166104   0.637   1.789   7.661
 5755SOL    HW266105   0.619   1.674   7.547
 5756SOL     OW66106   6.687  11.479   7.270
 5756SOL    HW166107   6.591  11.503   7.262
 5756SOL    HW266108   6.704  11.438   7.360
 5757SOL     OW66109   6.481   6.648   6.488
 5757SOL    HW166110   6.421   6.587   6.438
 5757SOL    HW266111   6.510   6.723   6.429
 5758SOL     OW66112  14.999   6.332   8.026
 5758SOL    HW166113  14.979   6.371   8.116
 5758SOL    HW266114  15.076   6.269   8.032
 5759SOL     OW66115   7.099   7.274   7.816
 5759SOL    HW166116   7.004   7.273   7.785
 5759SOL    HW266117   7.104   7.243   7.911
 5760SOL     OW66118  12.111  11.688   7.886
 5760SOL    HW166119  12.056  11.722   7.809
 5760SOL    HW266120  12.185  11.751   7.905
 5761SOL     OW66121   6.159   6.728   1.499
 5761SOL    HW166122   6.163   6.727   1.399
 5761SOL    HW266123   6.167   6.634   1.534
 5762SOL     OW66124   5.791  15.093   6.899
 5762SOL    HW166125   5.745  15.109   6.986
 5762SOL    HW266126   5.871  15.035   6.913
 5763SOL     OW66127  13.477  15.443   1.344
 5763SOL    HW166128  13.532  15.460   1.262
 5763SOL    HW266129  13.460  15.529   1.392
 5764SOL     OW66130  15.009   4.183   8.374
 5764SOL    HW166131  15.091   4.241   8.375
 5764SOL    HW266132  14.952   4.208   8.296
 5765SOL     OW66133   3.131  14.103   1.459
 5765SOL    HW166134   3.164  14.136   1.371
 5765SOL    HW266135   3.052  14.044   1.446
 5766SOL     OW66136   4.642   6.372   1.206
 5766SOL    HW166137   4.714   6.413   1.262
 5766SOL    HW266138   4.621   6.433   1.129
 5767SOL     OW66139  11.030   3.770   0.976
 5767SOL    HW166140  11.119   3.799   0.941
 5767SOL    HW266141  11.030   3.670   0.988
 5768SOL     OW66142   4.313  16.657   1.099
 5768SOL    HW166143   4.290  16.661   1.196
 5768SOL    HW266144   4.412  16.665   1.088
 5769SOL     OW66145   3.452  14.120   0.234
 5769SOL    HW166146   3.494  14.071   0.158
 5769SOL    HW266147   3.516  14.123   0.311
 5770SOL     OW66148   8.890   3.619   1.569
 5770SOL    HW166149   8.968   3.654   1.517
 5770SOL    HW266150   8.817   3.688   1.570
 5771SOL     OW66151   1.533   1.333   1.365
 5771SOL    HW166152   1.476   1.411   1.390
 5771SOL    HW266153   1.556   1.339   1.267
 5772SOL     OW66154   1.214  13.156   0.111
 5772SOL    HW166155   1.231  13.058   0.110
 5772SOL    HW266156   1.126  13.174   0.156
 5773SOL     OW66157   8.273   4.610   7.438
 5773SOL    HW166158   8.195   4.569   7.485
 5773SOL    HW266159   8.273   4.581   7.342
 5774SOL     OW66160  13.087  10.706   1.902
 5774SOL    HW166161  13.026  10.726   1.825
 5774SOL    HW266162  13.135  10.790   1.929
 5775SOL     OW66163  10.833   2.848   8.127
 5775SOL    HW166164  10.815   2.874   8.032
 5775SOL    HW266165  10.762   2.887   8.186
 5776SOL     OW66166  14.653   7.609   8.430
 5776SOL    HW166167  14.650   7.564   8.341
 5776SOL    HW266168  14.704   7.695   8.423
 5777SOL     OW66169   2.635  11.508   7.280
 5777SOL    HW166170   2.687  11.592   7.297
 5777SOL    HW266171   2.563  11.526   7.213
 5778SOL     OW66172   9.877  10.606   0.530
 5778SOL    HW166173   9.949  10.672   0.511
 5778SOL    HW266174   9.858  10.553   0.448
 5779SOL     OW66175  12.803  10.558   7.625
 5779SOL    HW166176  12.874  10.502   7.668
 5779SOL    HW266177  12.806  10.651   7.663
 5780SOL     OW66178  12.140   5.089   7.334
 5780SOL    HW166179  12.213   5.046   7.281
 5780SOL    HW266180  12.066   5.024   7.350
 5781SOL     OW66181   3.395   0.649   6.421
 5781SOL    HW166182   3.363   0.678   6.330
 5781SOL    HW266183   3.435   0.558   6.415
 5782SOL     OW66184   8.875   8.939   7.603
 5782SOL    HW166185   8.824   8.857   7.575
 5782SOL    HW266186   8.932   8.917   7.682
 5783SOL     OW66187   9.395   3.790   6.208
 5783SOL    HW166188   9.487   3.816   6.238
 5783SOL    HW266189   9.389   3.691   6.201
 5784SOL     OW66190   2.155  13.323   7.790
 5784SOL    HW166191   2.111  13.409   7.761
 5784SOL    HW266192   2.247  13.318   7.750
 5785SOL     OW66193   7.275   6.250   0.958
 5785SOL    HW166194   7.290   6.328   1.020
 5785SOL    HW266195   7.235   6.175   1.009
 5786SOL     OW66196   7.566  16.314   0.564
 5786SOL    HW166197   7.549  16.216   0.566
 5786SOL    HW266198   7.577  16.348   0.657
 5787SOL     OW66199  10.419  13.669   2.389
 5787SOL    HW166200  10.378  13.748   2.435
 5787SOL    HW266201  10.379  13.585   2.426
 5788SOL     OW66202   8.999   7.205   0.671
 5788SOL    HW166203   9.011   7.255   0.757
 5788SOL    HW266204   9.034   7.112   0.681
 5789SOL     OW66205   8.801  16.689   0.511
 5789SOL    HW166206   8.751  16.604   0.530
 5789SOL    HW266207   8.762  16.763   0.565
 5790SOL     OW66208  14.348   4.184   0.560
 5790SOL    HW166209  14.319   4.225   0.647
 5790SOL    HW266210  14.445   4.161   0.566
 5791SOL     OW66211  13.521   2.575   6.630
 5791SOL    HW166212  13.456   2.650   6.618
 5791SOL    HW266213  13.514   2.512   6.553
 5792SOL     OW66214   7.533   6.694   7.485
 5792SOL    HW166215   7.617   6.641   7.495
 5792SOL    HW266216   7.548   6.768   7.420
 5793SOL     OW66217  11.788  12.221   6.829
 5793SOL    HW166218  11.883  12.201   6.850
 5793SOL    HW266219  11.781  12.254   6.735
 5794SOL     OW66220   1.920  12.212   0.590
 5794SOL    HW166221   1.860  12.280   0.548
 5794SOL    HW266222   1.966  12.253   0.669
 5795SOL     OW66223  12.432  11.696   0.735
 5795SOL    HW166224  12.359  11.632   0.713
 5795SOL    HW266225  12.396  11.769   0.794
 5796SOL     OW66226   8.230  15.291   6.525
 5796SOL    HW166227   8.276  15.209   6.489
 5796SOL    HW266228   8.163  15.323   6.458
 5797SOL     OW66229   6.770   3.642   7.762
 5797SOL    HW166230   6.856   3.634   7.812
 5797SOL    HW266231   6.713   3.561   7.780
 5798SOL     OW66232   8.358  11.384   6.727
 5798SOL    HW166233   8.281  11.424   6.677
 5798SOL    HW266234   8.437  11.444   6.720
 5799SOL     OW66235   4.530   6.523   7.501
 5799SOL    HW166236   4.487   6.532   7.591
 5799SOL    HW266237   4.459   6.512   7.431
 5800SOL     OW66238   7.049  11.011   6.558
 5800SOL    HW166239   7.119  10.993   6.488
 5800SOL    HW266240   7.040  10.930   6.616
 5801SOL     OW66241  13.999   5.388   1.217
 5801SOL    HW166242  14.051   5.464   1.254
 5801SOL    HW266243  14.053   5.339   1.149
 5802SOL     OW66244   4.456  11.138   7.490
 5802SOL    HW166245   4.545  11.154   7.533
 5802SOL    HW266246   4.460  11.052   7.438
 5803SOL     OW66247   1.332   4.912   1.188
 5803SOL    HW166248   1.326   4.868   1.099
 5803SOL    HW266249   1.353   5.009   1.177
 5804SOL     OW66250   1.508   9.928   6.812
 5804SOL    HW166251   1.573   9.853   6.808
 5804SOL    HW266252   1.535  10.001   6.749
 5805SOL     OW66253   6.894   0.427   0.163
 5805SOL    HW166254   6.848   0.511   0.191
 5805SOL    HW266255   6.828   0.364   0.123
 5806SOL     OW66256   3.396   8.264   0.030
 5806SOL    HW166257   3.324   8.273   8.415
 5806SOL    HW266258   3.356   8.228   0.115
 5807SOL     OW66259  15.735   4.839   0.970
 5807SOL    HW166260  15.651   4.894   0.972
 5807SOL    HW266261  15.715   4.748   1.007
 5808SOL     OW66262  15.430  14.356   7.221
 5808SOL    HW166263  15.444  14.430   7.156
 5808SOL    HW266264  15.478  14.376   7.306
 5809SOL     OW66265  14.281   3.815   1.136
 5809SOL    HW166266  14.232   3.871   1.070
 5809SOL    HW266267  14.344   3.754   1.088
 5810SOL     OW66268   1.362   4.626   1.565
 5810SOL    HW166269   1.364   4.721   1.534
 5810SOL    HW266270   1.345   4.624   1.664
 5811SOL     OW66271  11.263   9.361   0.459
 5811SOL    HW166272  11.236   9.319   0.546
 5811SOL    HW266273  11.181   9.384   0.407
 5812SOL     OW66274  16.103   1.006   7.553
 5812SOL    HW166275  16.054   1.005   7.466
 5812SOL    HW266276  16.151   0.919   7.566
 5813SOL     OW66277   1.370   9.489   1.830
 5813SOL    HW166278   1.320   9.453   1.751
 5813SOL    HW266279   1.465   9.456   1.827
 5814SOL     OW66280   9.172  16.896   0.370
 5814SOL    HW166281   9.178  16.977   0.428
 5814SOL    HW266282   9.143  16.923   0.278
 5815SOL     OW66283  14.809   2.308   8.300
 5815SOL    HW166284  14.790   2.366   8.221
 5815SOL    HW266285  14.745   2.231   8.300
 5816SOL     OW66286  13.851  10.357   0.985
 5816SOL    HW166287  13.867  10.258   0.977
 5816SOL    HW266288  13.757  10.378   0.958
 5817SOL     OW66289   6.926  12.899   7.909
 5817SOL    HW166290   6.955  12.889   7.814
 5817SOL    HW266291   6.828  12.879   7.917
 5818SOL     OW66292   6.572   8.423   6.611
 5818SOL    HW166293   6.552   8.518   6.584
 5818SOL    HW266294   6.496   8.364   6.583
 5819SOL     OW66295   9.913   7.223   7.412
 5819SOL    HW166296   9.936   7.148   7.474
 5819SOL    HW266297   9.833   7.197   7.358
 5820SOL     OW66298   2.463   8.720   0.969
 5820SOL    HW166299   2.541   8.767   0.929
 5820SOL    HW266300   2.435   8.767   1.053
 5821SOL     OW66301   3.799   8.824   1.313
 5821SOL    HW166302   3.770   8.754   1.248
 5821SOL    HW266303   3.895   8.810   1.337
 5822SOL     OW66304  14.418   1.850   7.185
 5822SOL    HW166305  14.357   1.926   7.160
 5822SOL    HW266306  14.459   1.813   7.102
 5823SOL     OW66307   3.756   1.399   0.423
 5823SOL    HW166308   3.686   1.405   0.495
 5823SOL    HW266309   3.716   1.359   0.341
 5824SOL     OW66310  11.249   0.934   1.795
 5824SOL    HW166311  11.319   0.897   1.734
 5824SOL    HW266312  11.285   0.934   1.889
 5825SOL     OW66313   2.792   5.432   0.773
 5825SOL    HW166314   2.789   5.336   0.803
 5825SOL    HW266315   2.795   5.492   0.853
 5826SOL     OW66316   8.045   9.968   0.626
 5826SOL    HW166317   7.992  10.001   0.549
 5826SOL    HW266318   8.131   9.929   0.594
 5827SOL     OW66319   0.033   1.368   7.021
 5827SOL    HW166320  16.980   1.321   6.941
 5827SOL    HW266321  16.943   1.377   7.090
 5828SOL     OW66322  14.481   8.778   2.396
 5828SOL    HW166323  14.393   8.735   2.417
 5828SOL    HW266324  14.492   8.861   2.451
 5829SOL     OW66325   6.676   3.577   7.232
 5829SOL    HW166326   6.715   3.602   7.320
 5829SOL    HW266327   6.644   3.483   7.234
 5830SOL     OW66328   2.757  12.263   7.156
 5830SOL    HW166329   2.842  12.307   7.126
 5830SOL    HW266330   2.735  12.294   7.249
 5831SOL     OW66331   7.250   3.138   0.212
 5831SOL    HW166332   7.282   3.128   0.306
 5831SOL    HW266333   7.327   3.131   0.150
 5832SOL     OW66334  15.855  13.362   7.040
 5832SOL    HW166335  15.778  13.312   7.079
 5832SOL    HW266336  15.862  13.341   6.942
 5833SOL     OW66337  11.968   0.242   7.154
 5833SOL    HW166338  11.960   0.193   7.240
 5833SOL    HW266339  12.065   0.260   7.134
 5834SOL     OW66340  12.105  13.125   6.838
 5834SOL    HW166341  12.104  13.046   6.776
 5834SOL    HW266342  12.053  13.200   6.797
 5835SOL     OW66343  13.037   6.637   5.700
 5835SOL    HW166344  12.964   6.703   5.684
 5835SOL    HW266345  13.008   6.572   5.771
 5836SOL     OW66346   0.943  13.778   1.389
 5836SOL    HW166347   0.859  13.828   1.371
 5836SOL    HW266348   1.018  13.819   1.336
 5837SOL     OW66349   7.106   3.524   1.091
 5837SOL    HW166350   7.137   3.591   1.024
 5837SOL    HW266351   7.059   3.449   1.044
 5838SOL     OW66352   7.154   2.921   1.503
 5838SOL    HW166353   7.244   2.949   1.470
 5838SOL    HW266354   7.163   2.837   1.557
 5839SOL     OW66355  16.482   1.268   7.577
 5839SOL    HW166356  16.384   1.284   7.570
 5839SOL    HW266357  16.499   1.180   7.622
 5840SOL     OW66358   7.760  11.993   7.135
 5840SOL    HW166359   7.736  11.905   7.176
 5840SOL    HW266360   7.810  11.977   7.050
 5841SOL     OW66361   5.825   3.619   7.976
 5841SOL    HW166362   5.826   3.675   7.893
 5841SOL    HW266363   5.780   3.532   7.957
 5842SOL     OW66364  15.531  12.433   7.735
 5842SOL    HW166365  15.521  12.513   7.675
 5842SOL    HW266366  15.550  12.464   7.828
 5843SOL     OW66367  16.264   6.626   8.275
 5843SOL    HW166368  16.247   6.679   8.192
 5843SOL    HW266369  16.190   6.641   8.340
 5844SOL     OW66370  15.615   4.052   0.160
 5844SOL    HW166371  15.632   3.961   0.124
 5844SOL    HW266372  15.536   4.093   0.115
 5845SOL     OW66373   3.831   9.268   8.416
 5845SOL    HW166374   3.928   9.280   8.440
 5845SOL    HW266375   3.825   9.222   8.327
 5846SOL     OW66376   0.243   4.336   6.438
 5846SOL    HW166377   0.275   4.431   6.441
 5846SOL    HW266378   0.319   4.274   6.458
 5847SOL     OW66379   0.397  16.737   0.576
 5847SOL    HW166380   0.389  16.747   0.676
 5847SOL    HW266381   0.487  16.702   0.553
 5848SOL     OW66382   6.847   0.408   7.962
 5848SOL    HW166383   6.895   0.490   7.931
 5848SOL    HW266384   6.792   0.370   7.887
 5849SOL     OW66385   2.155   3.990   0.943
 5849SOL    HW166386   2.092   4.058   0.906
 5849SOL    HW266387   2.244   4.034   0.960
 5850SOL     OW66388   6.370   0.937   6.699
 5850SOL    HW166389   6.285   0.912   6.653
 5850SOL    HW266390   6.435   0.972   6.631
 5851SOL     OW66391   4.097  14.627   8.324
 5851SOL    HW166392   4.106  14.542   8.273
 5851SOL    HW266393   4.017  14.677   8.292
 5852SOL     OW66394   9.124  16.428   6.303
 5852SOL    HW166395   9.075  16.415   6.217
 5852SOL    HW266396   9.198  16.361   6.309
 5853SOL     OW66397   2.868   3.856   2.030
 5853SOL    HW166398   2.856   3.836   1.933
 5853SOL    HW266399   2.856   3.954   2.045
 5854SOL     OW66400   3.627  13.249   0.627
 5854SOL    HW166401   3.701  13.217   0.568
 5854SOL    HW266402   3.561  13.175   0.640
 5855SOL     OW66403   8.516   5.983   7.016
 5855SOL    HW166404   8.562   5.926   7.085
 5855SOL    HW266405   8.445   6.037   7.060
 5856SOL     OW66406   9.945   5.637   0.435
 5856SOL    HW166407   9.962   5.565   0.503
 5856SOL    HW266408   9.888   5.600   0.362
 5857SOL     OW66409  14.291   6.167   6.642
 5857SOL    HW166410  14.317   6.253   6.599
 5857SOL    HW266411  14.271   6.183   6.739
 5858SOL     OW66412  14.517   5.415   6.058
 5858SOL    HW166413  14.553   5.322   6.064
 5858SOL    HW266414  14.504   5.440   5.962
 5859SOL     OW66415   1.847   3.791   7.563
 5859SOL    HW166416   1.855   3.733   7.482
 5859SOL    HW266417   1.883   3.882   7.543
 5860SOL     OW66418   5.641   8.815   6.435
 5860SOL    HW166419   5.699   8.874   6.491
 5860SOL    HW266420   5.577   8.765   6.495
 5861SOL     OW66421  10.749   5.587   0.374
 5861SOL    HW166422  10.684   5.661   0.394
 5861SOL    HW266423  10.822   5.622   0.315
 5862SOL     OW66424  11.791  10.681   0.617
 5862SOL    HW166425  11.771  10.612   0.686
 5862SOL    HW266426  11.841  10.757   0.658
 5863SOL     OW66427   7.825   2.212   7.756
 5863SOL    HW166428   7.782   2.294   7.793
 5863SOL    HW266429   7.823   2.216   7.656
 5864SOL     OW66430  11.879   9.097   0.873
 5864SOL    HW166431  11.783   9.078   0.850
 5864SOL    HW266432  11.893   9.196   0.878
 5865SOL     OW66433   7.700   4.140   1.106
 5865SOL    HW166434   7.771   4.110   1.041
 5865SOL    HW266435   7.632   4.068   1.116
 5866SOL     OW66436  15.597   1.564   7.375
 5866SOL    HW166437  15.620   1.609   7.289
 5866SOL    HW266438  15.603   1.631   7.450
 5867SOL     OW66439  16.244  14.453   7.411
 5867SOL    HW166440  16.332  14.461   7.458
 5867SOL    HW266441  16.170  14.459   7.479
 5868SOL     OW66442   3.266   7.465   0.850
 5868SOL    HW166443   3.191   7.407   0.881
 5868SOL    HW266444   3.280   7.540   0.916
 5869SOL     OW66445  16.833   1.650   7.837
 5869SOL    HW166446  16.784   1.710   7.774
 5869SOL    HW266447  16.768   1.586   7.878
 5870SOL     OW66448   5.834   3.301   0.722
 5870SOL    HW166449   5.839   3.225   0.786
 5870SOL    HW266450   5.742   3.305   0.682
 5871SOL     OW66451  11.290  16.817   6.082
 5871SOL    HW166452  11.389  16.833   6.071
 5871SOL    HW266453  11.243  16.905   6.087
 5872SOL     OW66454  14.627   0.776   0.573
 5872SOL    HW166455  14.648   0.788   0.670
 5872SOL    HW266456  14.658   0.856   0.522
 5873SOL     OW66457   2.632   3.269   7.151
 5873SOL    HW166458   2.585   3.201   7.207
 5873SOL    HW266459   2.704   3.313   7.205
 5874SOL     OW66460  15.821   0.499   7.437
 5874SOL    HW166461  15.780   0.523   7.526
 5874SOL    HW266462  15.750   0.498   7.367
 5875SOL     OW66463   8.730   4.409   8.416
 5875SOL    HW166464   8.712   4.347   8.340
 5875SOL    HW266465   8.669   4.387   0.038
 5876SOL     OW66466   5.071  10.912   1.418
 5876SOL    HW166467   5.067  10.986   1.350
 5876SOL    HW266468   4.982  10.866   1.423
 5877SOL     OW66469   0.264  14.919   1.229
 5877SOL    HW166470   0.270  15.015   1.254
 5877SOL    HW266471   0.176  14.882   1.257
 5878SOL     OW66472   5.763   3.368   7.257
 5878SOL    HW166473   5.833   3.379   7.186
 5878SOL    HW266474   5.797   3.306   7.327
 5879SOL     OW66475   5.130   4.803   0.764
 5879SOL    HW166476   5.227   4.787   0.784
 5879SOL    HW266477   5.089   4.851   0.841
 5880SOL     OW66478   0.707   5.839   7.780
 5880SOL    HW166479   0.677   5.784   7.702
 5880SOL    HW266480   0.806   5.854   7.775
 5881SOL     OW66481  15.389  15.077   1.570
 5881SOL    HW166482  15.396  15.137   1.650
 5881SOL    HW266483  15.467  15.014   1.570
 5882SOL     OW66484   8.647   8.329   0.991
 5882SOL    HW166485   8.572   8.337   1.056
 5882SOL    HW266486   8.683   8.236   0.993
 5883SOL     OW66487   1.361   0.011   0.492
 5883SOL    HW166488   1.448  16.960   0.457
 5883SOL    HW266489   1.344  16.954   0.582
 5884SOL     OW66490  14.240   5.834   1.232
 5884SOL    HW166491  14.207   5.925   1.206
 5884SOL    HW266492  14.265   5.783   1.149
 5885SOL     OW66493  11.998   8.154   7.015
 5885SOL    HW166494  11.981   8.185   6.921
 5885SOL    HW266495  12.090   8.116   7.021
 5886SOL     OW66496   7.029  10.427   0.468
 5886SOL    HW166497   6.982  10.393   0.387
 5886SOL    HW266498   7.074  10.351   0.515
 5887SOL     OW66499  14.810   4.897   5.749
 5887SOL    HW166500  14.832   4.960   5.675
 5887SOL    HW266501  14.728   4.845   5.725
 5888SOL     OW66502   8.131   1.554   6.034
 5888SOL    HW166503   8.168   1.631   5.982
 5888SOL    HW266504   8.061   1.586   6.097
 5889SOL     OW66505   1.018  16.221   7.308
 5889SOL    HW166506   0.961  16.140   7.294
 5889SOL    HW266507   1.086  16.201   7.379
 5890SOL     OW66508  13.315   6.365   0.325
 5890SOL    HW166509  13.325   6.464   0.332
 5890SOL    HW266510  13.372   6.330   0.251
 5891SOL     OW66511  15.656  15.582   2.185
 5891SOL    HW166512  15.614  15.491   2.184
 5891SOL    HW266513  15.615  15.636   2.259
 5892SOL     OW66514  14.040   9.774   2.058
 5892SOL    HW166515  13.977   9.790   2.134
 5892SOL    HW266516  14.134   9.783   2.090
 5893SOL     OW66517  14.379  13.298   0.973
 5893SOL    HW166518  14.440  13.377   0.971
 5893SOL    HW266519  14.418  13.228   1.034
 5894SOL     OW66520   8.697   2.988   6.714
 5894SOL    HW166521   8.656   3.019   6.628
 5894SOL    HW266522   8.737   3.065   6.762
 5895SOL     OW66523  15.307   2.893   7.966
 5895SOL    HW166524  15.392   2.896   7.915
 5895SOL    HW266525  15.247   2.968   7.937
 5896SOL     OW66526   5.343   1.303   1.293
 5896SOL    HW166527   5.406   1.322   1.217
 5896SOL    HW266528   5.383   1.232   1.352
 5897SOL     OW66529   7.265  10.724   6.634
 5897SOL    HW166530   7.170  10.740   6.659
 5897SOL    HW266531   7.271  10.710   6.535
 5898SOL     OW66532   1.231  16.341   1.410
 5898SOL    HW166533   1.220  16.432   1.371
 5898SOL    HW266534   1.324  16.330   1.444
 5899SOL     OW66535   2.527   9.205   0.563
 5899SOL    HW166536   2.609   9.245   0.603
 5899SOL    HW266537   2.532   9.105   0.571
 5900SOL     OW66538  14.664   7.881   0.408
 5900SOL    HW166539  14.708   7.794   0.429
 5900SOL    HW266540  14.727   7.956   0.426
 5901SOL     OW66541  11.794   7.589   8.257
 5901SOL    HW166542  11.853   7.511   8.235
 5901SOL    HW266543  11.742   7.615   8.176
 5902SOL     OW66544  13.943  15.831   0.280
 5902SOL    HW166545  13.976  15.871   0.195
 5902SOL    HW266546  13.947  15.732   0.275
 5903SOL     OW66547   2.895   0.900   7.647
 5903SOL    HW166548   2.868   0.850   7.565
 5903SOL    HW266549   2.992   0.883   7.666
 5904SOL     OW66550   5.839  14.420   1.733
 5904SOL    HW166551   5.762  14.357   1.724
 5904SOL    HW266552   5.906  14.402   1.661
 5905SOL     OW66553   5.570  10.096   2.322
 5905SOL    HW166554   5.527  10.006   2.328
 5905SOL    HW266555   5.655  10.089   2.269
 5906SOL     OW66556  13.021  12.579   8.030
 5906SOL    HW166557  12.965  12.608   7.952
 5906SOL    HW266558  12.987  12.623   8.113
 5907SOL     OW66559  15.299  16.074   0.267
 5907SOL    HW166560  15.281  15.979   0.243
 5907SOL    HW266561  15.310  16.128   0.184
 5908SOL     OW66562  14.989  13.223   0.013
 5908SOL    HW166563  15.075  13.230   0.063
 5908SOL    HW266564  14.932  13.151   0.054
 5909SOL     OW66565  11.491  15.288   1.498
 5909SOL    HW166566  11.552  15.363   1.523
 5909SOL    HW266567  11.527  15.202   1.534
 5910SOL     OW66568   7.257   0.893   0.058
 5910SOL    HW166569   7.228   0.985   0.032
 5910SOL    HW266570   7.239   0.877   0.155
 5911SOL     OW66571   1.739   0.430   7.604
 5911SOL    HW166572   1.793   0.383   7.675
 5911SOL    HW266573   1.644   0.399   7.609
 5912SOL     OW66574  14.211   1.663   1.062
 5912SOL    HW166575  14.284   1.731   1.055
 5912SOL    HW266576  14.230   1.602   1.139
 5913SOL     OW66577   2.676   3.499   8.232
 5913SOL    HW166578   2.587   3.499   8.187
 5913SOL    HW266579   2.745   3.537   8.171
 5914SOL     OW66580   9.168  16.286   0.221
 5914SOL    HW166581   9.185  16.358   0.289
 5914SOL    HW266582   9.245  16.283   0.157
 5915SOL     OW66583   7.782   6.101   0.924
 5915SOL    HW166584   7.731   6.185   0.940
 5915SOL    HW266585   7.748   6.056   0.841
 5916SOL     OW66586  14.970   5.401   7.136
 5916SOL    HW166587  14.993   5.438   7.046
 5916SOL    HW266588  14.960   5.476   7.202
 5917SOL     OW66589  13.225  12.056   0.525
 5917SOL    HW166590  13.149  12.009   0.571
 5917SOL    HW266591  13.263  11.996   0.454
 5918SOL     OW66592  11.763   8.582   7.748
 5918SOL    HW166593  11.841   8.586   7.686
 5918SOL    HW266594  11.739   8.487   7.766
 5919SOL     OW66595  11.496   5.211   6.354
 5919SOL    HW166596  11.545   5.136   6.398
 5919SOL    HW266597  11.544   5.297   6.371
 5920SOL     OW66598   9.467   0.831   1.209
 5920SOL    HW166599   9.562   0.816   1.236
 5920SOL    HW266600   9.418   0.744   1.206
 5921SOL     OW66601   0.728  13.782   0.972
 5921SOL    HW166602   0.662  13.835   1.025
 5921SOL    HW266603   0.708  13.685   0.982
 5922SOL     OW66604  10.926  11.810   8.218
 5922SOL    HW166605  11.024  11.813   8.195
 5922SOL    HW266606  10.877  11.763   8.145
 5923SOL     OW66607  11.644   8.616   6.731
 5923SOL    HW166608  11.638   8.702   6.679
 5923SOL    HW266609  11.690   8.634   6.819
 5924SOL     OW66610   7.183  12.722   0.886
 5924SOL    HW166611   7.135  12.674   0.960
 5924SOL    HW266612   7.233  12.655   0.831
 5925SOL     OW66613   6.849   6.814   1.632
 5925SOL    HW166614   6.883   6.729   1.673
 5925SOL    HW266615   6.896   6.892   1.673
 5926SOL     OW66616  16.028   8.655   8.050
 5926SOL    HW166617  15.934   8.623   8.057
 5926SOL    HW266618  16.050   8.673   7.953
 5927SOL     OW66619   2.761  15.356   6.863
 5927SOL    HW166620   2.667  15.373   6.833
 5927SOL    HW266621   2.822  15.424   6.823
 5928SOL     OW66622   4.281  13.338   6.458
 5928SOL    HW166623   4.349  13.268   6.433
 5928SOL    HW266624   4.190  13.295   6.464
 5929SOL     OW66625   5.400  13.224   7.795
 5929SOL    HW166626   5.396  13.310   7.743
 5929SOL    HW266627   5.467  13.233   7.869
 5930SOL     OW66628  11.129   5.433   7.603
 5930SOL    HW166629  11.088   5.491   7.672
 5930SOL    HW266630  11.056   5.386   7.552
 5931SOL     OW66631  14.996   2.943   6.196
 5931SOL    HW166632  15.024   2.953   6.292
 5931SOL    HW266633  14.920   2.878   6.190
 5932SOL     OW66634  10.913   2.203   6.098
 5932SOL    HW166635  10.879   2.268   6.031
 5932SOL    HW266636  11.002   2.169   6.069
 5933SOL     OW66637  11.704   3.913   0.722
 5933SOL    HW166638  11.725   3.851   0.799
 5933SOL    HW266639  11.743   3.875   0.638
 5934SOL     OW66640   3.255  13.607   1.952
 5934SOL    HW166641   3.346  13.621   1.992
 5934SOL    HW266642   3.226  13.690   1.904
 5935SOL     OW66643  12.428   6.192   7.290
 5935SOL    HW166644  12.525   6.205   7.266
 5935SOL    HW266645  12.414   6.099   7.322
 5936SOL     OW66646  14.853   8.942   2.258
 5936SOL    HW166647  14.918   8.938   2.334
 5936SOL    HW266648  14.794   8.860   2.260
 5937SOL     OW66649  12.855  15.779   7.502
 5937SOL    HW166650  12.925  15.811   7.438
 5937SOL    HW266651  12.875  15.811   7.594
 5938SOL     OW66652  13.051  11.584   0.555
 5938SOL    HW166653  13.095  11.555   0.640
 5938SOL    HW266654  13.116  11.576   0.480
 5939SOL     OW66655  12.344   8.908   0.985
 5939SOL    HW166656  12.257   8.957   0.987
 5939SOL    HW266657  12.372   8.895   0.890
 5940SOL     OW66658   1.016   3.356   1.443
 5940SOL    HW166659   1.066   3.367   1.529
 5940SOL    HW266660   1.063   3.408   1.371
 5941SOL     OW66661  13.268   2.948   1.019
 5941SOL    HW166662  13.335   3.020   1.033
 5941SOL    HW266663  13.293   2.868   1.075
 5942SOL     OW66664  15.792   8.203   6.805
 5942SOL    HW166665  15.801   8.292   6.759
 5942SOL    HW266666  15.851   8.136   6.760
 5943SOL     OW66667   9.471   5.191   0.246
 5943SOL    HW166668   9.397   5.131   0.278
 5943SOL    HW266669   9.559   5.149   0.264
 5944SOL     OW66670   5.059  11.734   7.426
 5944SOL    HW166671   5.155  11.761   7.418
 5944SOL    HW266672   5.001  11.816   7.432
 5945SOL     OW66673  12.704  16.144   0.043
 5945SOL    HW166674  12.677  16.048   0.043
 5945SOL    HW266675  12.762  16.162   0.122
 5946SOL     OW66676  10.723   8.309   6.862
 5946SOL    HW166677  10.761   8.263   6.942
 5946SOL    HW266678  10.625   8.290   6.856
 5947SOL     OW66679  11.977   1.912   7.780
 5947SOL    HW166680  11.999   1.846   7.851
 5947SOL    HW266681  12.037   1.991   7.788
 5948SOL     OW66682   9.004   6.674   0.642
 5948SOL    HW166683   9.086   6.616   0.645
 5948SOL    HW266684   8.941   6.639   0.573
 5949SOL     OW66685   7.119   4.824   7.987
 5949SOL    HW166686   7.050   4.842   8.057
 5949SOL    HW266687   7.183   4.901   7.983
 5950SOL     OW66688   2.133  11.951   1.660
 5950SOL    HW166689   2.068  11.876   1.648
 5950SOL    HW266690   2.093  12.036   1.624
 5951SOL     OW66691  16.422  15.707   7.837
 5951SOL    HW166692  16.367  15.629   7.807
 5951SOL    HW266693  16.361  15.781   7.867
 5952SOL     OW66694  16.256   7.312   0.752
 5952SOL    HW166695  16.233   7.222   0.714
 5952SOL    HW266696  16.347   7.339   0.720
 5953SOL     OW66697  12.732   7.090   1.417
 5953SOL    HW166698  12.658   7.135   1.467
 5953SOL    HW266699  12.752   7.001   1.458
 5954SOL     OW66700   9.897   7.426   6.555
 5954SOL    HW166701   9.852   7.504   6.512
 5954SOL    HW266702   9.839   7.390   6.628
 5955SOL     OW66703   1.135   6.797   6.390
 5955SOL    HW166704   1.109   6.740   6.312
 5955SOL    HW266705   1.116   6.893   6.368
 5956SOL     OW66706  14.220  16.607   7.258
 5956SOL    HW166707  14.231  16.607   7.159
 5956SOL    HW266708  14.300  16.649   7.301
 5957SOL     OW66709   2.130   2.021   1.186
 5957SOL    HW166710   2.094   2.089   1.251
 5957SOL    HW266711   2.230   2.018   1.193
 5958SOL     OW66712   4.786   6.295   6.212
 5958SOL    HW166713   4.780   6.395   6.208
 5958SOL    HW266714   4.766   6.257   6.122
 5959SOL     OW66715   4.410   6.630   1.209
 5959SOL    HW166716   4.437   6.725   1.228
 5959SOL    HW266717   4.401   6.580   1.295
 5960SOL     OW66718   8.896   7.010   5.730
 5960SOL    HW166719   8.994   7.026   5.738
 5960SOL    HW266720   8.879   6.914   5.706
 5961SOL     OW66721   5.877   5.677   8.399
 5961SOL    HW166722   5.948   5.726   8.349
 5961SOL    HW266723   5.867   5.718   0.036
 5962SOL     OW66724   4.086  13.316   0.145
 5962SOL    HW166725   4.173  13.348   0.110
 5962SOL    HW266726   4.037  13.392   0.189
 5963SOL     OW66727   6.914  12.258   1.284
 5963SOL    HW166728   6.913  12.176   1.341
 5963SOL    HW266729   6.959  12.332   1.334
 5964SOL     OW66730   8.985   8.660   0.692
 5964SOL    HW166731   8.915   8.610   0.641
 5964SOL    HW266732   9.038   8.716   0.628
 5965SOL     OW66733   0.225   0.480   0.998
 5965SOL    HW166734   0.271   0.568   1.002
 5965SOL    HW266735   0.270   0.422   0.930
 5966SOL     OW66736  10.062  13.489   1.231
 5966SOL    HW166737  10.016  13.458   1.314
 5966SOL    HW266738  10.161  13.488   1.245
 5967SOL     OW66739  13.962  10.139   6.570
 5967SOL    HW166740  13.896  10.212   6.551
 5967SOL    HW266741  14.053  10.168   6.540
 5968SOL     OW66742  10.739   8.917   7.705
 5968SOL    HW166743  10.686   8.839   7.670
 5968SOL    HW266744  10.698   9.002   7.672
 5969SOL     OW66745   8.064   3.269   1.480
 5969SOL    HW166746   8.147   3.275   1.536
 5969SOL    HW266747   8.061   3.180   1.434
 5970SOL     OW66748   2.775  16.154   7.974
 5970SOL    HW166749   2.874  16.148   7.958
 5970SOL    HW266750   2.728  16.101   7.903
 5971SOL     OW66751   6.936  11.026   1.579
 5971SOL    HW166752   6.923  11.061   1.672
 5971SOL    HW266753   6.922  11.100   1.513
 5972SOL     OW66754  13.471   3.071   8.300
 5972SOL    HW166755  13.384   3.024   8.312
 5972SOL    HW266756  13.457   3.170   8.308
 5973SOL     OW66757  10.601   1.756   1.111
 5973SOL    HW166758  10.506   1.780   1.089
 5973SOL    HW266759  10.638   1.824   1.174
 5974SOL     OW66760   1.236   2.669   1.486
 5974SOL    HW166761   1.257   2.595   1.422
 5974SOL    HW266762   1.210   2.751   1.435
 5975SOL     OW66763  11.996   6.147   6.448
 5975SOL    HW166764  11.917   6.196   6.412
 5975SOL    HW266765  12.042   6.098   6.374
 5976SOL     OW66766  10.769   0.474   1.482
 5976SOL    HW166767  10.774   0.385   1.437
 5976SOL    HW266768  10.857   0.494   1.526
 5977SOL     OW66769  14.183   6.622   7.235
 5977SOL    HW166770  14.229   6.538   7.265
 5977SOL    HW266771  14.248   6.698   7.237
 5978SOL     OW66772   9.414   1.472   0.440
 5978SOL    HW166773   9.441   1.551   0.384
 5978SOL    HW266774   9.375   1.504   0.526
 5979SOL     OW66775  13.766  15.888   7.990
 5979SOL    HW166776  13.799  15.933   8.073
 5979SOL    HW266777  13.798  15.939   7.910
 5980SOL     OW66778   3.567   0.420   2.378
 5980SOL    HW166779   3.515   0.336   2.393
 5980SOL    HW266780   3.587   0.464   2.466
 5981SOL     OW66781  14.376   2.556   6.195
 5981SOL    HW166782  14.362   2.552   6.096
 5981SOL    HW266783  14.293   2.527   6.242
 5982SOL     OW66784  14.367  10.557   6.569
 5982SOL    HW166785  14.461  10.523   6.574
 5982SOL    HW266786  14.346  10.582   6.474
 5983SOL     OW66787   0.684  16.230   0.266
 5983SOL    HW166788   0.739  16.305   0.229
 5983SOL    HW266789   0.600  16.220   0.212
 5984SOL     OW66790  10.241   1.112   6.536
 5984SOL    HW166791  10.156   1.138   6.582
 5984SOL    HW266792  10.244   1.012   6.526
 5985SOL     OW66793   4.397  15.596   0.525
 5985SOL    HW166794   4.453  15.583   0.607
 5985SOL    HW266795   4.308  15.634   0.551
 5986SOL     OW66796  12.051   2.166   8.068
 5986SOL    HW166797  12.101   2.136   7.987
 5986SOL    HW266798  11.953   2.163   8.049
 5987SOL     OW66799   9.591   3.438   7.160
 5987SOL    HW166800   9.543   3.367   7.109
 5987SOL    HW266801   9.533   3.472   7.233
 5988SOL     OW66802  14.439   0.731   7.149
 5988SOL    HW166803  14.412   0.827   7.152
 5988SOL    HW266804  14.429   0.696   7.056
 5989SOL     OW66805   5.399  10.194   7.306
 5989SOL    HW166806   5.303  10.195   7.279
 5989SOL    HW266807   5.449  10.130   7.248
 5990SOL     OW66808   7.122   8.178   8.216
 5990SOL    HW166809   7.188   8.103   8.218
 5990SOL    HW266810   7.143   8.239   8.139
 5991SOL     OW66811  10.526  10.116   1.006
 5991SOL    HW166812  10.529  10.211   1.036
 5991SOL    HW266813  10.617  10.088   0.974
 5992SOL     OW66814   6.105  12.150   7.675
 5992SOL    HW166815   6.118  12.146   7.774
 5992SOL    HW266816   6.119  12.059   7.636
 5993SOL     OW66817  12.434   9.833   6.763
 5993SOL    HW166818  12.340   9.801   6.761
 5993SOL    HW266819  12.459   9.858   6.857
 5994SOL     OW66820   8.408   3.248   6.646
 5994SOL    HW166821   8.425   3.346   6.658
 5994SOL    HW266822   8.480   3.209   6.589
 5995SOL     OW66823   5.187  11.512   8.012
 5995SOL    HW166824   5.097  11.530   8.051
 5995SOL    HW266825   5.212  11.417   8.028
 5996SOL     OW66826  12.338  12.836   8.413
 5996SOL    HW166827  12.390  12.763   0.004
 5996SOL    HW266828  12.389  12.922   8.422
 5997SOL     OW66829   1.058   4.925   1.784
 5997SOL    HW166830   1.105   4.904   1.870
 5997SOL    HW266831   1.065   4.847   1.723
 5998SOL     OW66832  13.270   7.903   0.341
 5998SOL    HW166833  13.345   7.846   0.307
 5998SOL    HW266834  13.250   7.878   0.436
 5999SOL     OW66835  13.843   7.671   7.242
 5999SOL    HW166836  13.794   7.711   7.320
 5999SOL    HW266837  13.940   7.691   7.250
 6000SOL     OW66838   9.949   0.607   0.962
 6000SOL    HW166839   9.934   0.511   0.986
 6000SOL    HW266840   9.985   0.656   1.041
 6001SOL     OW66841   9.881   7.695   6.764
 6001SOL    HW166842   9.835   7.766   6.817
 6001SOL    HW266843   9.818   7.619   6.750
 6002SOL     OW66844   6.966   2.621   1.005
 6002SOL    HW166845   7.051   2.648   1.051
 6002SOL    HW266846   6.983   2.612   0.906
 6003SOL     OW66847  11.364   9.978   6.742
 6003SOL    HW166848  11.313   9.947   6.822
 6003SOL    HW266849  11.328   9.934   6.660
 6004SOL     OW66850  11.462   4.979   6.679
 6004SOL    HW166851  11.447   5.060   6.736
 6004SOL    HW266852  11.485   4.901   6.736
 6005SOL     OW66853  11.913   4.961   0.655
 6005SOL    HW166854  11.829   4.920   0.622
 6005SOL    HW266855  11.975   4.890   0.689
 6006SOL     OW66856  15.034   7.858   5.589
 6006SOL    HW166857  14.974   7.933   5.618
 6006SOL    HW266858  14.981   7.774   5.582
 6007SOL     OW66859   9.585   1.010   0.278
 6007SOL    HW166860   9.576   1.107   0.299
 6007SOL    HW266861   9.619   0.999   0.185
 6008SOL     OW66862   3.594  10.521   0.213
 6008SOL    HW166863   3.673  10.495   0.158
 6008SOL    HW266864   3.510  10.512   0.159
 6009SOL     OW66865   2.257  16.830   0.266
 6009SOL    HW166866   2.232  16.760   0.333
 6009SOL    HW266867   2.330  16.888   0.304
 6010SOL     OW66868   9.135   4.416   8.256
 6010SOL    HW166869   9.110   4.499   8.305
 6010SOL    HW266870   9.136   4.339   8.320
 6011SOL     OW66871  13.086  12.631   1.411
 6011SOL    HW166872  13.077  12.644   1.509
 6011SOL    HW266873  13.174  12.667   1.380
 6012SOL     OW66874  10.272   5.815   7.512
 6012SOL    HW166875  10.278   5.883   7.439
 6012SOL    HW266876  10.362   5.805   7.556
 6013SOL     OW66877   3.056   9.788   0.876
 6013SOL    HW166878   3.074   9.690   0.877
 6013SOL    HW266879   3.049   9.822   0.970
 6014SOL     OW66880   2.062  16.896   1.291
 6014SOL    HW166881   2.132  16.892   1.220
 6014SOL    HW266882   2.099  16.862   1.377
 6015SOL     OW66883   4.146  10.925   0.636
 6015SOL    HW166884   4.171  10.885   0.725
 6015SOL    HW266885   4.046  10.937   0.632
 6016SOL     OW66886   5.011   8.733   7.268
 6016SOL    HW166887   5.014   8.829   7.240
 6016SOL    HW266888   5.067   8.721   7.350
 6017SOL     OW66889   4.943   2.525   7.618
 6017SOL    HW166890   4.849   2.519   7.650
 6017SOL    HW266891   4.944   2.555   7.522
 6018SOL     OW66892   5.568   2.579   1.545
 6018SOL    HW166893   5.593   2.617   1.456
 6018SOL    HW266894   5.648   2.538   1.588
 6019SOL     OW66895  11.694  10.973   7.616
 6019SOL    HW166896  11.773  10.918   7.645
 6019SOL    HW266897  11.713  11.013   7.526
 6020SOL     OW66898  11.415   5.217   6.815
 6020SOL    HW166899  11.501   5.265   6.799
 6020SOL    HW266900  11.338   5.279   6.799
 6021SOL     OW66901   5.597   2.863   1.844
 6021SOL    HW166902   5.585   2.806   1.925
 6021SOL    HW266903   5.633   2.952   1.871
 6022SOL     OW66904   0.594  12.861   0.934
 6022SOL    HW166905   0.526  12.811   0.881
 6022SOL    HW266906   0.682  12.858   0.886
 6023SOL     OW66907   2.191  13.808   7.489
 6023SOL    HW166908   2.139  13.891   7.506
 6023SOL    HW266909   2.224  13.808   7.394
 6024SOL     OW66910  15.511  12.527   0.185
 6024SOL    HW166911  15.582  12.471   0.143
 6024SOL    HW266912  15.430  12.471   0.201
 6025SOL     OW66913   2.527  15.136   7.199
 6025SOL    HW166914   2.490  15.167   7.111
 6025SOL    HW266915   2.560  15.043   7.191
 6026SOL     OW66916   8.843   3.897   2.052
 6026SOL    HW166917   8.901   3.955   2.109
 6026SOL    HW266918   8.754   3.941   2.040
 6027SOL     OW66919   4.651   6.563   6.922
 6027SOL    HW166920   4.625   6.502   6.847
 6027SOL    HW266921   4.655   6.512   7.007
 6028SOL     OW66922   5.468   2.757   0.307
 6028SOL    HW166923   5.429   2.666   0.322
 6028SOL    HW266924   5.397   2.826   0.318
 6029SOL     OW66925   3.887  10.734   0.473
 6029SOL    HW166926   3.905  10.750   0.375
 6029SOL    HW266927   3.881  10.822   0.520
 6030SOL     OW66928   9.426   6.101   1.573
 6030SOL    HW166929   9.353   6.110   1.506
 6030SOL    HW266930   9.470   6.190   1.588
 6031SOL     OW66931   6.102   4.356   7.117
 6031SOL    HW166932   6.060   4.446   7.127
 6031SOL    HW266933   6.202   4.365   7.120
 6032SOL     OW66934  16.205   3.234   7.386
 6032SOL    HW166935  16.180   3.232   7.482
 6032SOL    HW266936  16.246   3.146   7.360
 6033SOL     OW66937   0.182  10.017   0.341
 6033SOL    HW166938   0.260  10.049   0.288
 6033SOL    HW266939   0.200  10.030   0.439
 6034SOL     OW66940   9.727   6.918   8.368
 6034SOL    HW166941   9.664   6.965   8.429
 6034SOL    HW266942   9.799   6.874   8.423
 6035SOL     OW66943   8.029   0.335   6.383
 6035SOL    HW166944   8.061   0.429   6.381
 6035SOL    HW266945   8.039   0.294   6.292
 6036SOL     OW66946  13.994   0.720   1.201
 6036SOL    HW166947  14.014   0.817   1.189
 6036SOL    HW266948  13.982   0.701   1.299
 6037SOL     OW66949  10.616  13.617   0.111
 6037SOL    HW166950  10.634  13.685   0.040
 6037SOL    HW266951  10.605  13.663   0.199
 6038SOL     OW66952  16.839  12.714   0.165
 6038SOL    HW166953  16.865  12.623   0.197
 6038SOL    HW266954  16.909  12.748   0.102
 6039SOL     OW66955   7.071   5.713   1.632
 6039SOL    HW166956   6.997   5.717   1.565
 6039SOL    HW266957   7.091   5.618   1.655
 6040SOL     OW66958  10.811  12.356   1.738
 6040SOL    HW166959  10.868  12.423   1.784
 6040SOL    HW266960  10.774  12.291   1.805
 6041SOL     OW66961   6.282  13.843   1.732
 6041SOL    HW166962   6.232  13.850   1.818
 6041SOL    HW266963   6.355  13.912   1.730
 6042SOL     OW66964  16.872  11.329   7.535
 6042SOL    HW166965  16.846  11.401   7.471
 6042SOL    HW266966  16.953  11.357   7.586
 6043SOL     OW66967   4.326   0.229   6.895
 6043SOL    HW166968   4.300   0.191   6.806
 6043SOL    HW266969   4.396   0.171   6.936
 6044SOL     OW66970  10.416  10.482   0.460
 6044SOL    HW166971  10.413  10.392   0.416
 6044SOL    HW266972  10.385  10.473   0.555
 6045SOL     OW66973  16.515  15.324   7.547
 6045SOL    HW166974  16.535  15.287   7.456
 6045SOL    HW266975  16.589  15.384   7.576
 6046SOL     OW66976   6.742   0.682   6.687
 6046SOL    HW166977   6.818   0.617   6.689
 6046SOL    HW266978   6.673   0.650   6.622
 6047SOL     OW66979   8.387   8.753   7.116
 6047SOL    HW166980   8.423   8.812   7.188
 6047SOL    HW266981   8.317   8.693   7.155
 6048SOL     OW66982  12.471   1.935   6.931
 6048SOL    HW166983  12.416   2.016   6.910
 6048SOL    HW266984  12.520   1.949   7.017
 6049SOL     OW66985  16.515   8.523   6.884
 6049SOL    HW166986  16.501   8.531   6.982
 6049SOL    HW266987  16.604   8.480   6.866
 6050SOL     OW66988   1.642   3.381   7.869
 6050SOL    HW166989   1.663   3.461   7.813
 6050SOL    HW266990   1.543   3.371   7.878
 6051SOL     OW66991   5.166   8.174   1.666
 6051SOL    HW166992   5.081   8.144   1.622
 6051SOL    HW266993   5.227   8.212   1.597
 6052SOL     OW66994   5.251   6.997   7.123
 6052SOL    HW166995   5.258   7.069   7.054
 6052SOL    HW266996   5.189   7.027   7.196
 6053SOL     OW66997   0.548  14.187   1.739
 6053SOL    HW166998   0.489  14.217   1.813
 6053SOL    HW266999   0.515  14.224   1.652
 6054SOL     OW67000   0.431   4.262   7.058
 6054SOL    HW167001   0.398   4.172   7.032
 6054SOL    HW267002   0.474   4.257   7.148
 6055SOL     OW67003  12.295   9.161   7.143
 6055SOL    HW167004  12.346   9.099   7.083
 6055SOL    HW267005  12.331   9.155   7.236
 6056SOL     OW67006  14.717   1.091   1.692
 6056SOL    HW167007  14.665   1.068   1.775
 6056SOL    HW267008  14.659   1.079   1.612
 6057SOL     OW67009  12.173  10.580   1.641
 6057SOL    HW167010  12.263  10.616   1.616
 6057SOL    HW267011  12.145  10.618   1.729
 6058SOL     OW67012   2.735   9.342   8.279
 6058SOL    HW167013   2.688   9.426   8.303
 6058SOL    HW267014   2.820   9.336   8.330
 6059SOL     OW67015  13.971  11.512   1.869
 6059SOL    HW167016  13.910  11.536   1.793
 6059SOL    HW267017  14.066  11.508   1.835
 6060SOL     OW67018   6.368   4.445   0.875
 6060SOL    HW167019   6.382   4.363   0.931
 6060SOL    HW267020   6.427   4.441   0.795
 6061SOL     OW67021   7.476  16.814   1.372
 6061SOL    HW167022   7.543  16.785   1.440
 6061SOL    HW267023   7.519  16.816   1.281
 6062SOL     OW67024   2.103   9.703   1.518
 6062SOL    HW167025   2.108   9.677   1.615
 6062SOL    HW267026   2.022   9.758   1.503
 6063SOL     OW67027  16.272  16.526   6.668
 6063SOL    HW167028  16.244  16.615   6.703
 6063SOL    HW267029  16.327  16.538   6.585
 6064SOL     OW67030   4.396  16.810   6.501
 6064SOL    HW167031   4.336  16.735   6.472
 6064SOL    HW267032   4.355  16.897   6.475
 6065SOL     OW67033  12.296  10.425   0.338
 6065SOL    HW167034  12.260  10.518   0.330
 6065SOL    HW267035  12.308  10.386   0.246
 6066SOL     OW67036   0.492  13.728   6.489
 6066SOL    HW167037   0.469  13.763   6.398
 6066SOL    HW267038   0.589  13.705   6.492
 6067SOL     OW67039   8.891   0.238   1.871
 6067SOL    HW167040   8.845   0.194   1.948
 6067SOL    HW267041   8.897   0.337   1.888
 6068SOL     OW67042  16.565  16.893   6.837
 6068SOL    HW167043  16.549  16.840   6.754
 6068SOL    HW267044  16.600  16.833   6.909
 6069SOL     OW67045  12.775   2.014   7.358
 6069SOL    HW167046  12.712   2.090   7.370
 6069SOL    HW267047  12.806   1.982   7.447
 6070SOL     OW67048  12.684   2.879   6.539
 6070SOL    HW167049  12.733   2.883   6.452
 6070SOL    HW267050  12.596   2.834   6.525
 6071SOL     OW67051   9.135  14.979   1.286
 6071SOL    HW167052   9.214  15.000   1.228
 6071SOL    HW267053   9.147  14.888   1.326
 6072SOL     OW67054   6.744   9.197   0.250
 6072SOL    HW167055   6.724   9.099   0.247
 6072SOL    HW267056   6.817   9.217   0.184
 6073SOL     OW67057   9.185  12.494   8.080
 6073SOL    HW167058   9.187  12.539   7.991
 6073SOL    HW267059   9.164  12.397   8.067
 6074SOL     OW67060  15.566  15.056   1.201
 6074SOL    HW167061  15.636  15.086   1.136
 6074SOL    HW267062  15.597  14.973   1.247
 6075SOL     OW67063  16.268  14.239   7.777
 6075SOL    HW167064  16.324  14.207   7.701
 6075SOL    HW267065  16.298  14.196   7.862
 6076SOL     OW67066  13.235  15.479   6.581
 6076SOL    HW167067  13.295  15.438   6.512
 6076SOL    HW267068  13.205  15.569   6.549
 6077SOL     OW67069   1.413   5.798   1.011
 6077SOL    HW167070   1.317   5.826   1.013
 6077SOL    HW267071   1.419   5.700   0.996
 6078SOL     OW67072   9.792   4.454   0.789
 6078SOL    HW167073   9.757   4.488   0.876
 6078SOL    HW267074   9.844   4.526   0.743
 6079SOL     OW67075  12.688  14.119   1.597
 6079SOL    HW167076  12.725  14.151   1.684
 6079SOL    HW267077  12.649  14.028   1.609
 6080SOL     OW67078   3.711  10.017   0.135
 6080SOL    HW167079   3.773  10.083   0.091
 6080SOL    HW267080   3.673   9.956   0.065
 6081SOL     OW67081   6.924  11.344   0.824
 6081SOL    HW167082   6.853  11.412   0.804
 6081SOL    HW267083   6.914  11.311   0.918
 6082SOL     OW67084   2.703   2.294   1.677
 6082SOL    HW167085   2.744   2.323   1.591
 6082SOL    HW267086   2.647   2.368   1.714
 6083SOL     OW67087   0.306   5.538   7.557
 6083SOL    HW167088   0.312   5.602   7.634
 6083SOL    HW267089   0.308   5.444   7.592
 6084SOL     OW67090   1.672  16.422   7.508
 6084SOL    HW167091   1.647  16.339   7.458
 6084SOL    HW267092   1.645  16.413   7.604
 6085SOL     OW67093   2.234  16.091   1.820
 6085SOL    HW167094   2.245  16.039   1.736
 6085SOL    HW267095   2.195  16.181   1.798
 6086SOL     OW67096   4.828  16.599   1.740
 6086SOL    HW167097   4.919  16.640   1.747
 6086SOL    HW267098   4.765  16.666   1.701
 6087SOL     OW67099   8.395   8.586   7.626
 6087SOL    HW167100   8.424   8.678   7.597
 6087SOL    HW267101   8.354   8.538   7.549
 6088SOL     OW67102   7.635   3.378   8.266
 6088SOL    HW167103   7.613   3.475   8.269
 6088SOL    HW267104   7.627   3.339   8.358
 6089SOL     OW67105   4.525   6.895   8.075
 6089SOL    HW167106   4.589   6.874   8.001
 6089SOL    HW267107   4.435   6.916   8.036
 6090SOL     OW67108   4.416   1.679   0.482
 6090SOL    HW167109   4.376   1.629   0.559
 6090SOL    HW267110   4.513   1.659   0.476
 6091SOL     OW67111   4.895   1.893   1.970
 6091SOL    HW167112   4.845   1.928   2.050
 6091SOL    HW267113   4.860   1.803   1.946
 6092SOL     OW67114  15.409  16.774   7.803
 6092SOL    HW167115  15.494  16.818   7.777
 6092SOL    HW267116  15.367  16.825   7.879
 6093SOL     OW67117   7.609  16.113   6.087
 6093SOL    HW167118   7.682  16.166   6.043
 6093SOL    HW267119   7.648  16.056   6.159
 6094SOL     OW67120   3.227   9.484   7.196
 6094SOL    HW167121   3.136   9.512   7.165
 6094SOL    HW267122   3.260   9.410   7.138
 6095SOL     OW67123   3.672   9.136   2.020
 6095SOL    HW167124   3.765   9.109   2.042
 6095SOL    HW267125   3.621   9.152   2.105
 6096SOL     OW67126  15.068  10.895   1.087
 6096SOL    HW167127  15.097  10.868   1.179
 6096SOL    HW267128  14.978  10.856   1.068
 6097SOL     OW67129  13.524   9.283   0.738
 6097SOL    HW167130  13.612   9.237   0.751
 6097SOL    HW267131  13.509   9.300   0.640
 6098SOL     OW67132   0.563   7.343   0.251
 6098SOL    HW167133   0.623   7.421   0.237
 6098SOL    HW267134   0.541   7.334   0.349
 6099SOL     OW67135  12.994   4.871   6.150
 6099SOL    HW167136  13.073   4.913   6.105
 6099SOL    HW267137  13.024   4.793   6.204
 6100SOL     OW67138   5.581  13.110   1.626
 6100SOL    HW167139   5.654  13.156   1.575
 6100SOL    HW267140   5.565  13.159   1.712
 6101SOL     OW67141  12.225   6.903   0.656
 6101SOL    HW167142  12.293   6.875   0.724
 6101SOL    HW267143  12.232   7.002   0.640
 6102SOL     OW67144   9.523   5.211   8.428
 6102SOL    HW167145   9.440   5.166   8.395
 6102SOL    HW267146   9.519   5.220   0.074
 6103SOL     OW67147  16.440  13.213   0.610
 6103SOL    HW167148  16.413  13.288   0.670
 6103SOL    HW267149  16.519  13.165   0.650
 6104SOL     OW67150   9.247  12.131   7.861
 6104SOL    HW167151   9.302  12.202   7.819
 6104SOL    HW267152   9.209  12.164   7.947
 6105SOL     OW67153   9.233   6.137   1.382
 6105SOL    HW167154   9.243   6.189   1.297
 6105SOL    HW267155   9.161   6.179   1.438
 6106SOL     OW67156   4.734  10.797   7.268
 6106SOL    HW167157   4.747  10.735   7.346
 6106SOL    HW267158   4.773  10.755   7.186
 6107SOL     OW67159   7.741  12.123   1.523
 6107SOL    HW167160   7.644  12.148   1.522
 6107SOL    HW267161   7.787  12.169   1.599
 6108SOL     OW67162  14.688  14.321   0.370
 6108SOL    HW167163  14.680  14.255   0.295
 6108SOL    HW267164  14.755  14.289   0.436
 6109SOL     OW67165  14.165   3.458   6.104
 6109SOL    HW167166  14.105   3.420   6.033
 6109SOL    HW267167  14.166   3.557   6.098
 6110SOL     OW67168   6.422  15.772   7.069
 6110SOL    HW167169   6.402  15.769   7.167
 6110SOL    HW267170   6.340  15.798   7.018
 6111SOL     OW67171   4.737   2.318   7.893
 6111SOL    HW167172   4.671   2.248   7.866
 6111SOL    HW267173   4.724   2.340   7.990
 6112SOL     OW67174  15.488   1.614   6.246
 6112SOL    HW167175  15.534   1.683   6.189
 6112SOL    HW267176  15.393   1.606   6.219
 6113SOL     OW67177  13.336   8.026   6.512
 6113SOL    HW167178  13.289   8.092   6.453
 6113SOL    HW267179  13.278   8.006   6.591
 6114SOL     OW67180   5.201  11.004   0.489
 6114SOL    HW167181   5.247  11.092   0.472
 6114SOL    HW267182   5.104  11.014   0.468
 6115SOL     OW67183  16.172   5.878   0.378
 6115SOL    HW167184  16.084   5.919   0.352
 6115SOL    HW267185  16.228   5.946   0.426
 6116SOL     OW67186   0.556   0.228   1.999
 6116SOL    HW167187   0.486   0.157   1.995
 6116SOL    HW267188   0.531   0.297   2.067
 6117SOL     OW67189   5.654   6.886   1.278
 6117SOL    HW167190   5.679   6.809   1.337
 6117SOL    HW267191   5.554   6.894   1.275
 6118SOL     OW67192   1.556   6.342   0.863
 6118SOL    HW167193   1.589   6.251   0.839
 6118SOL    HW267194   1.507   6.382   0.785
 6119SOL     OW67195  10.137   6.411   7.335
 6119SOL    HW167196  10.109   6.498   7.375
 6119SOL    HW267197  10.233   6.394   7.357
 6120SOL     OW67198  10.078   0.892   1.667
 6120SOL    HW167199  10.157   0.951   1.688
 6120SOL    HW267200   9.998   0.925   1.717
 6121SOL     OW67201  11.176  13.150   8.193
 6121SOL    HW167202  11.229  13.067   8.209
 6121SOL    HW267203  11.091  13.147   8.245
 6122SOL     OW67204  15.920   1.342   0.182
 6122SOL    HW167205  15.867   1.262   0.211
 6122SOL    HW267206  15.909   1.415   0.250
 6123SOL     OW67207  11.003   8.025   6.518
 6123SOL    HW167208  10.921   8.059   6.565
 6123SOL    HW267209  11.029   8.090   6.446
 6124SOL     OW67210   1.506   0.324   1.379
 6124SOL    HW167211   1.442   0.266   1.329
 6124SOL    HW267212   1.579   0.267   1.418
 6125SOL     OW67213  10.498  15.810   0.337
 6125SOL    HW167214  10.402  15.797   0.311
 6125SOL    HW267215  10.507  15.800   0.436
 6126SOL     OW67216  12.935  13.297   1.102
 6126SOL    HW167217  12.894  13.210   1.074
 6126SOL    HW267218  12.865  13.368   1.102
 6127SOL     OW67219  16.025   5.301   0.882
 6127SOL    HW167220  15.991   5.357   0.957
 6127SOL    HW267221  16.057   5.213   0.918
 6128SOL     OW67222  14.088  15.942   8.084
 6128SOL    HW167223  14.102  16.002   8.005
 6128SOL    HW267224  14.014  15.978   8.141
 6129SOL     OW67225   8.394  12.301   1.627
 6129SOL    HW167226   8.350  12.330   1.712
 6129SOL    HW267227   8.491  12.322   1.630
 6130SOL     OW67228   7.041   1.189   1.147
 6130SOL    HW167229   7.016   1.103   1.190
 6130SOL    HW267230   7.127   1.177   1.096
 6131SOL     OW67231  15.547   2.626   0.855
 6131SOL    HW167232  15.528   2.528   0.859
 6131SOL    HW267233  15.546   2.664   0.947
 6132SOL     OW67234   1.812  12.463   7.611
 6132SOL    HW167235   1.742  12.395   7.630
 6132SOL    HW267236   1.902  12.427   7.637
 6133SOL     OW67237   2.791  10.880   7.269
 6133SOL    HW167238   2.836  10.943   7.206
 6133SOL    HW267239   2.822  10.787   7.250
 6134SOL     OW67240   7.156   8.447   7.544
 6134SOL    HW167241   7.103   8.374   7.587
 6134SOL    HW267242   7.154   8.435   7.445
 6135SOL     OW67243  12.028   5.838   6.572
 6135SOL    HW167244  12.079   5.916   6.609
 6135SOL    HW267245  12.087   5.787   6.510
 6136SOL     OW67246  13.870   9.849   2.281
 6136SOL    HW167247  13.786   9.841   2.335
 6136SOL    HW267248  13.949   9.849   2.342
 6137SOL     OW67249  10.718  11.377   0.470
 6137SOL    HW167250  10.770  11.292   0.456
 6137SOL    HW267251  10.696  11.387   0.567
 6138SOL     OW67252   3.445   4.731   6.547
 6138SOL    HW167253   3.538   4.753   6.574
 6138SOL    HW267254   3.442   4.714   6.448
 6139SOL     OW67255   2.334   3.192   1.869
 6139SOL    HW167256   2.399   3.184   1.945
 6139SOL    HW267257   2.383   3.178   1.782
 6140SOL     OW67258  15.320   7.460   7.678
 6140SOL    HW167259  15.384   7.529   7.642
 6140SOL    HW267260  15.259   7.431   7.605
 6141SOL     OW67261  14.414   4.739   1.466
 6141SOL    HW167262  14.367   4.766   1.550
 6141SOL    HW267263  14.356   4.677   1.414
 6142SOL     OW67264  11.881   8.065   0.277
 6142SOL    HW167265  11.977   8.064   0.304
 6142SOL    HW267266  11.843   8.156   0.295
 6143SOL     OW67267  12.960   7.214   1.278
 6143SOL    HW167268  12.970   7.313   1.285
 6143SOL    HW267269  12.881   7.185   1.332
 6144SOL     OW67270   7.532   2.172   6.126
 6144SOL    HW167271   7.520   2.078   6.094
 6144SOL    HW267272   7.511   2.236   6.052
 6145SOL     OW67273  15.432  15.241   1.786
 6145SOL    HW167274  15.364  15.289   1.843
 6145SOL    HW267275  15.514  15.297   1.778
 6146SOL     OW67276   7.135   6.088   0.572
 6146SOL    HW167277   7.157   6.182   0.596
 6146SOL    HW267278   7.219   6.037   0.555
 6147SOL     OW67279   4.012   3.880   0.579
 6147SOL    HW167280   4.086   3.816   0.559
 6147SOL    HW267281   4.036   3.934   0.659
 6148SOL     OW67282   6.942   1.444   0.714
 6148SOL    HW167283   7.025   1.486   0.679
 6148SOL    HW267284   6.962   1.351   0.746
 6149SOL     OW67285  12.715   5.998   8.190
 6149SOL    HW167286  12.806   6.022   8.154
 6149SOL    HW267287  12.708   5.899   8.199
 6150SOL     OW67288  12.832  15.098   7.806
 6150SOL    HW167289  12.894  15.166   7.767
 6150SOL    HW267290  12.883  15.018   7.836
 6151SOL     OW67291   1.240   5.846   8.284
 6151SOL    HW167292   1.142   5.841   8.302
 6151SOL    HW267293   1.290   5.802   8.359
 6152SOL     OW67294  11.402  11.594   1.252
 6152SOL    HW167295  11.469  11.536   1.298
 6152SOL    HW267296  11.378  11.554   1.163
 6153SOL     OW67297   0.785   4.502   6.938
 6153SOL    HW167298   0.830   4.526   7.024
 6153SOL    HW267299   0.841   4.436   6.888
 6154SOL     OW67300   2.665   4.885   0.564
 6154SOL    HW167301   2.725   4.952   0.520
 6154SOL    HW267302   2.654   4.910   0.660
 6155SOL     OW67303  16.631  14.087   7.382
 6155SOL    HW167304  16.684  14.004   7.398
 6155SOL    HW267305  16.693  14.165   7.374
 6156SOL     OW67306  11.622  11.293   0.051
 6156SOL    HW167307  11.658  11.384   0.028
 6156SOL    HW267308  11.655  11.226   8.438
 6157SOL     OW67309  12.314  12.487   8.264
 6157SOL    HW167310  12.312  12.403   8.318
 6157SOL    HW267311  12.227  12.535   8.274
 6158SOL     OW67312  10.700  13.363   0.857
 6158SOL    HW167313  10.736  13.271   0.841
 6158SOL    HW267314  10.654  13.366   0.946
 6159SOL     OW67315  14.448  10.629   8.321
 6159SOL    HW167316  14.442  10.725   8.346
 6159SOL    HW267317  14.383  10.576   8.376
 6160SOL     OW67318   2.513   5.740   1.171
 6160SOL    HW167319   2.459   5.667   1.129
 6160SOL    HW267320   2.477   5.761   1.262
 6161SOL     OW67321   4.254   4.598   7.751
 6161SOL    HW167322   4.323   4.658   7.790
 6161SOL    HW267323   4.299   4.532   7.689
 6162SOL     OW67324   0.547   2.251   8.403
 6162SOL    HW167325   0.636   2.289   8.378
 6162SOL    HW267326   0.479   2.324   8.406
 6163SOL     OW67327  15.633  16.555   8.426
 6163SOL    HW167328  15.574  16.599   0.040
 6163SOL    HW267329  15.715  16.610   8.413
 6164SOL     OW67330  11.134  13.422   0.946
 6164SOL    HW167331  11.216  13.476   0.929
 6164SOL    HW267332  11.102  13.382   0.860
 6165SOL     OW67333  16.243   5.492   6.330
 6165SOL    HW167334  16.309   5.467   6.401
 6165SOL    HW267335  16.236   5.419   6.263
 6166SOL     OW67336  15.488   2.394   7.864
 6166SOL    HW167337  15.505   2.438   7.952
 6166SOL    HW267338  15.405   2.432   7.823
 6167SOL     OW67339   7.213  13.550   1.825
 6167SOL    HW167340   7.148  13.480   1.855
 6167SOL    HW267341   7.275  13.573   1.900
 6168SOL     OW67342  11.037   0.703   0.412
 6168SOL    HW167343  10.995   0.646   0.341
 6168SOL    HW267344  11.133   0.718   0.390
 6169SOL     OW67345   7.518   0.699   0.083
 6169SOL    HW167346   7.464   0.617   0.103
 6169SOL    HW267347   7.475   0.778   0.127
 6170SOL     OW67348   9.340  13.602   0.438
 6170SOL    HW167349   9.309  13.665   0.510
 6170SOL    HW267350   9.266  13.588   0.372
 6171SOL     OW67351  12.132  13.936   6.828
 6171SOL    HW167352  12.219  13.887   6.833
 6171SOL    HW267353  12.111  13.958   6.733
 6172SOL     OW67354   6.609   1.057   1.783
 6172SOL    HW167355   6.682   1.113   1.824
 6172SOL    HW267356   6.534   1.047   1.849
 6173SOL     OW67357   9.455   7.779   0.552
 6173SOL    HW167358   9.485   7.799   0.458
 6173SOL    HW267359   9.357   7.757   0.551
 6174SOL     OW67360   0.294   6.170   0.537
 6174SOL    HW167361   0.343   6.099   0.587
 6174SOL    HW267362   0.278   6.248   0.598
 6175SOL     OW67363   3.902  15.500   8.063
 6175SOL    HW167364   3.974  15.433   8.079
 6175SOL    HW267365   3.931  15.589   8.097
 6176SOL     OW67366   7.044  10.959   0.974
 6176SOL    HW167367   7.015  10.896   1.046
 6176SOL    HW267368   7.056  10.910   0.888
 6177SOL     OW67369   1.033  15.865   0.741
 6177SOL    HW167370   0.997  15.796   0.804
 6177SOL    HW267371   1.073  15.820   0.662
 6178SOL     OW67372  15.440   9.609   8.072
 6178SOL    HW167373  15.457   9.672   7.996
 6178SOL    HW267374  15.396   9.658   8.147
 6179SOL     OW67375  12.111   5.867   1.524
 6179SOL    HW167376  12.090   5.852   1.427
 6179SOL    HW267377  12.197   5.917   1.532
 6180SOL     OW67378   5.450  12.655   0.003
 6180SOL    HW167379   5.405  12.566   0.017
 6180SOL    HW267380   5.431  12.688   8.365
 6181SOL     OW67381   0.760   8.427   6.937
 6181SOL    HW167382   0.812   8.396   6.857
 6181SOL    HW267383   0.812   8.499   6.984
 6182SOL     OW67384  10.888  12.108   8.213
 6182SOL    HW167385  10.790  12.088   8.213
 6182SOL    HW267386  10.940  12.022   8.208
 6183SOL     OW67387   5.296   5.253   1.033
 6183SOL    HW167388   5.241   5.325   0.991
 6183SOL    HW267389   5.386   5.251   0.989
 6184SOL     OW67390   9.028   2.178   0.397
 6184SOL    HW167391   8.953   2.116   0.377
 6184SOL    HW267392   9.108   2.126   0.427
 6185SOL     OW67393  12.655   3.270   0.040
 6185SOL    HW167394  12.626   3.204   0.109
 6185SOL    HW267395  12.681   3.221   8.410
 6186SOL     OW67396   3.090   4.380   7.256
 6186SOL    HW167397   3.140   4.298   7.286
 6186SOL    HW267398   3.080   4.443   7.333
 6187SOL     OW67399   7.373   7.984   1.134
 6187SOL    HW167400   7.337   8.049   1.201
 6187SOL    HW267401   7.463   7.953   1.164
 6188SOL     OW67402  15.317  11.381   6.603
 6188SOL    HW167403  15.365  11.433   6.533
 6188SOL    HW267404  15.218  11.387   6.587
 6189SOL     OW67405  15.945   1.779   8.089
 6189SOL    HW167406  15.921   1.783   7.992
 6189SOL    HW267407  16.036   1.819   8.102
 6190SOL     OW67408  11.893  16.058   1.109
 6190SOL    HW167409  11.914  15.981   1.049
 6190SOL    HW267410  11.969  16.074   1.171
 6191SOL     OW67411   3.666   9.131   6.935
 6191SOL    HW167412   3.716   9.090   7.011
 6191SOL    HW267413   3.649   9.061   6.865
 6192SOL     OW67414  16.384   1.831   7.506
 6192SOL    HW167415  16.433   1.751   7.539
 6192SOL    HW267416  16.446   1.910   7.503
 6193SOL     OW67417  12.754  15.361   0.399
 6193SOL    HW167418  12.854  15.357   0.403
 6193SOL    HW267419  12.718  15.278   0.357
 6194SOL     OW67420  11.003  10.384   0.111
 6194SOL    HW167421  10.929  10.375   0.044
 6194SOL    HW267422  11.062  10.303   0.106
 6195SOL     OW67423  11.927   2.651   1.937
 6195SOL    HW167424  11.865   2.591   1.987
 6195SOL    HW267425  12.020   2.641   1.973
 6196SOL     OW67426   1.914   1.055   0.948
 6196SOL    HW167427   2.012   1.070   0.959
 6196SOL    HW267428   1.886   0.975   1.001
 6197SOL     OW67429  14.379   6.743   0.782
 6197SOL    HW167430  14.448   6.773   0.716
 6197SOL    HW267431  14.326   6.668   0.742
 6198SOL     OW67432  13.155  13.345   7.872
 6198SOL    HW167433  13.238  13.352   7.815
 6198SOL    HW267434  13.161  13.262   7.927
 6199SOL     OW67435  14.905   4.333   7.496
 6199SOL    HW167436  14.935   4.316   7.590
 6199SOL    HW267437  14.933   4.425   7.468
 6200SOL     OW67438   3.170   6.673   6.696
 6200SOL    HW167439   3.216   6.610   6.634
 6200SOL    HW267440   3.144   6.756   6.646
 6201SOL     OW67441  15.710  14.565   6.340
 6201SOL    HW167442  15.801  14.534   6.311
 6201SOL    HW267443  15.665  14.609   6.263
 6202SOL     OW67444   2.614  16.819   1.454
 6202SOL    HW167445   2.690  16.762   1.422
 6202SOL    HW267446   2.529  16.768   1.449
 6203SOL     OW67447   1.826   5.017   0.423
 6203SOL    HW167448   1.808   5.071   0.341
 6203SOL    HW267449   1.916   4.973   0.415
 6204SOL     OW67450   4.774  10.387   7.771
 6204SOL    HW167451   4.758  10.290   7.753
 6204SOL    HW267452   4.688  10.430   7.801
 6205SOL     OW67453  11.932   5.189   0.825
 6205SOL    HW167454  11.945   5.114   0.760
 6205SOL    HW267455  11.845   5.176   0.874
 6206SOL     OW67456  11.510  16.052   8.235
 6206SOL    HW167457  11.589  16.070   8.293
 6206SOL    HW267458  11.441  16.001   8.288
 6207SOL     OW67459   3.427  12.179   0.693
 6207SOL    HW167460   3.520  12.155   0.666
 6207SOL    HW267461   3.369  12.098   0.689
 6208SOL     OW67462  13.945   5.716   0.863
 6208SOL    HW167463  14.005   5.641   0.890
 6208SOL    HW267464  13.992   5.775   0.797
 6209SOL     OW67465   8.997   5.700   5.996
 6209SOL    HW167466   9.015   5.610   5.957
 6209SOL    HW267467   8.918   5.695   6.058
 6210SOL     OW67468  14.423   1.833   1.085
 6210SOL    HW167469  14.498   1.888   1.047
 6210SOL    HW267470  14.458   1.774   1.157
 6211SOL     OW67471  13.880  11.819   2.003
 6211SOL    HW167472  13.796  11.823   2.056
 6211SOL    HW267473  13.958  11.834   2.063
 6212SOL     OW67474   5.506   0.441   0.773
 6212SOL    HW167475   5.534   0.518   0.716
 6212SOL    HW267476   5.413   0.455   0.805
 6213SOL     OW67477   8.499  16.478   0.177
 6213SOL    HW167478   8.544  16.389   0.178
 6213SOL    HW267479   8.431  16.483   0.250
 6214SOL     OW67480   5.538   2.766   7.396
 6214SOL    HW167481   5.555   2.722   7.484
 6214SOL    HW267482   5.566   2.706   7.322
 6215SOL     OW67483  14.368   9.368   7.778
 6215SOL    HW167484  14.285   9.422   7.774
 6215SOL    HW267485  14.445   9.422   7.745
 6216SOL     OW67486   4.200  10.861   6.773
 6216SOL    HW167487   4.298  10.877   6.781
 6216SOL    HW267488   4.151  10.926   6.831
 6217SOL     OW67489   7.368  14.937   7.957
 6217SOL    HW167490   7.456  14.893   7.976
 6217SOL    HW267491   7.302  14.868   7.929
 6218SOL     OW67492   5.507   9.675   1.142
 6218SOL    HW167493   5.467   9.600   1.090
 6218SOL    HW267494   5.548   9.741   1.079
 6219SOL     OW67495   8.519   0.470   7.315
 6219SOL    HW167496   8.433   0.424   7.292
 6219SOL    HW267497   8.504   0.535   7.389
 6220SOL     OW67498   3.316   2.137   8.377
 6220SOL    HW167499   3.386   2.175   8.315
 6220SOL    HW267500   3.252   2.082   8.324
 6221SOL     OW67501   9.429  14.661   1.402
 6221SOL    HW167502   9.430  14.592   1.474
 6221SOL    HW267503   9.492  14.735   1.424
 6222SOL     OW67504  13.055   4.782   5.679
 6222SOL    HW167505  13.032   4.741   5.590
 6222SOL    HW267506  12.994   4.859   5.696
 6223SOL     OW67507   2.771   9.982   6.998
 6223SOL    HW167508   2.713   9.904   7.025
 6223SOL    HW267509   2.739  10.018   6.911
 6224SOL     OW67510   5.751  15.789   7.574
 6224SOL    HW167511   5.689  15.754   7.645
 6224SOL    HW267512   5.764  15.719   7.504
 6225SOL     OW67513   1.529   8.340   1.844
 6225SOL    HW167514   1.516   8.438   1.856
 6225SOL    HW267515   1.443   8.292   1.863
 6226SOL     OW67516  14.284   4.308   0.807
 6226SOL    HW167517  14.204   4.345   0.853
 6226SOL    HW267518  14.320   4.230   0.859
 6227SOL     OW67519   9.999   2.121   8.303
 6227SOL    HW167520  10.029   2.049   8.240
 6227SOL    HW267521  10.078   2.166   8.343
 6228SOL     OW67522  15.315   8.593   0.920
 6228SOL    HW167523  15.233   8.613   0.972
 6228SOL    HW267524  15.297   8.519   0.855
 6229SOL     OW67525  10.058  16.087   7.867
 6229SOL    HW167526   9.993  16.109   7.940
 6229SOL    HW267527  10.026  16.126   7.781
 6230SOL     OW67528   6.681  10.588   6.961
 6230SOL    HW167529   6.762  10.529   6.965
 6230SOL    HW267530   6.692  10.664   7.024
 6231SOL     OW67531   7.771   6.548   7.513
 6231SOL    HW167532   7.827   6.617   7.558
 6231SOL    HW267533   7.829   6.488   7.459
 6232SOL     OW67534   4.409   6.317   0.972
 6232SOL    HW167535   4.408   6.273   0.882
 6232SOL    HW267536   4.474   6.392   0.972
 6233SOL     OW67537   8.712  13.539   8.371
 6233SOL    HW167538   8.776  13.474   8.413
 6233SOL    HW267539   8.759  13.625   8.352
 6234SOL     OW67540   8.518   3.572   7.057
 6234SOL    HW167541   8.550   3.584   7.151
 6234SOL    HW267542   8.422   3.597   7.050
 6235SOL     OW67543   6.279  10.848   7.348
 6235SOL    HW167544   6.189  10.858   7.391
 6235SOL    HW267545   6.328  10.773   7.392
 6236SOL     OW67546   3.417   8.038   0.916
 6236SOL    HW167547   3.498   8.093   0.938
 6236SOL    HW267548   3.441   7.972   0.844
 6237SOL     OW67549   0.411  12.620   1.556
 6237SOL    HW167550   0.406  12.619   1.656
 6237SOL    HW267551   0.491  12.568   1.525
 6238SOL     OW67552   8.798   4.560   5.658
 6238SOL    HW167553   8.721   4.504   5.627
 6238SOL    HW267554   8.883   4.510   5.644
 6239SOL     OW67555   3.861  12.931   0.914
 6239SOL    HW167556   3.866  12.845   0.965
 6239SOL    HW267557   3.897  12.917   0.822
 6240SOL     OW67558  10.151  15.863   1.353
 6240SOL    HW167559  10.247  15.885   1.334
 6240SOL    HW267560  10.148  15.779   1.408
 6241SOL     OW67561  12.517  12.025   1.371
 6241SOL    HW167562  12.494  11.928   1.366
 6241SOL    HW267563  12.464  12.075   1.303
 6242SOL     OW67564  12.089   2.402   7.796
 6242SOL    HW167565  12.009   2.457   7.773
 6242SOL    HW267566  12.114   2.416   7.892
 6243SOL     OW67567   5.193   1.441   1.687
 6243SOL    HW167568   5.289   1.411   1.693
 6243SOL    HW267569   5.190   1.540   1.673
 6244SOL     OW67570  16.160  13.362   0.768
 6244SOL    HW167571  16.136  13.328   0.677
 6244SOL    HW267572  16.206  13.290   0.820
 6245SOL     OW67573   4.483   8.100   8.061
 6245SOL    HW167574   4.478   8.154   7.977
 6245SOL    HW267575   4.453   8.155   8.138
 6246SOL     OW67576   7.373   1.934   8.442
 6246SOL    HW167577   7.467   1.899   8.446
 6246SOL    HW267578   7.371   2.029   0.017
 6247SOL     OW67579   1.560   2.751   1.261
 6247SOL    HW167580   1.490   2.703   1.208
 6247SOL    HW267581   1.544   2.850   1.254
 6248SOL     OW67582  12.772   6.939   0.776
 6248SOL    HW167583  12.788   6.884   0.858
 6248SOL    HW267584  12.695   7.000   0.792
 6249SOL     OW67585  14.864   5.517   5.764
 6249SOL    HW167586  14.933   5.516   5.690
 6249SOL    HW267587  14.775   5.539   5.725
 6250SOL     OW67588   4.015  16.336   1.635
 6250SOL    HW167589   4.061  16.394   1.702
 6250SOL    HW267590   4.081  16.275   1.591
 6251SOL     OW67591  13.546   0.563   6.440
 6251SOL    HW167592  13.618   0.509   6.396
 6251SOL    HW267593  13.465   0.506   6.454
 6252SOL     OW67594  15.020   6.077   6.567
 6252SOL    HW167595  14.991   6.008   6.501
 6252SOL    HW267596  15.093   6.039   6.624
 6253SOL     OW67597  12.917   0.551   6.840
 6253SOL    HW167598  12.889   0.460   6.873
 6253SOL    HW267599  12.984   0.540   6.767
 6254SOL     OW67600   9.949   8.728   7.170
 6254SOL    HW167601   9.881   8.763   7.106
 6254SOL    HW267602   9.905   8.714   7.260
 6255SOL     OW67603  10.615   2.702   7.019
 6255SOL    HW167604  10.686   2.687   7.088
 6255SOL    HW267605  10.645   2.663   6.932
 6256SOL     OW67606  16.396   9.472   7.073
 6256SOL    HW167607  16.396   9.375   7.098
 6256SOL    HW267608  16.328   9.488   7.002
 6257SOL     OW67609   3.231   7.660   8.322
 6257SOL    HW167610   3.218   7.600   8.400
 6257SOL    HW267611   3.266   7.606   8.245
 6258SOL     OW67612   6.292  14.596   8.273
 6258SOL    HW167613   6.322  14.685   8.307
 6258SOL    HW267614   6.349  14.524   8.312
 6259SOL     OW67615  13.963  14.067   0.834
 6259SOL    HW167616  13.980  14.166   0.835
 6259SOL    HW267617  13.910  14.043   0.753
 6260SOL     OW67618   8.769  11.438   1.560
 6260SOL    HW167619   8.790  11.383   1.641
 6260SOL    HW267620   8.777  11.535   1.583
 6261SOL     OW67621   7.027   9.608   8.133
 6261SOL    HW167622   7.061   9.625   8.041
 6261SOL    HW267623   7.075   9.667   8.198
 6262SOL     OW67624  10.458  16.291   7.025
 6262SOL    HW167625  10.384  16.333   6.973
 6262SOL    HW267626  10.539  16.349   7.020
 6263SOL     OW67627  12.372  16.444   0.223
 6263SOL    HW167628  12.331  16.533   0.243
 6263SOL    HW267629  12.307  16.371   0.247
 6264SOL     OW67630   1.072   5.710   0.153
 6264SOL    HW167631   1.000   5.777   0.172
 6264SOL    HW267632   1.036   5.639   0.092
 6265SOL     OW67633   9.457   9.206   0.772
 6265SOL    HW167634   9.539   9.183   0.824
 6265SOL    HW267635   9.387   9.136   0.788
 6266SOL     OW67636   7.339   9.385   6.753
 6266SOL    HW167637   7.323   9.453   6.682
 6266SOL    HW267638   7.437   9.365   6.758
 6267SOL     OW67639  14.011   1.835   7.518
 6267SOL    HW167640  14.073   1.806   7.591
 6267SOL    HW267641  14.032   1.929   7.492
 6268SOL     OW67642  10.640  13.459   1.556
 6268SOL    HW167643  10.701  13.504   1.491
 6268SOL    HW267644  10.691  13.391   1.609
 6269SOL     OW67645  16.575  12.303   1.680
 6269SOL    HW167646  16.619  12.355   1.606
 6269SOL    HW267647  16.507  12.361   1.725
 6270SOL     OW67648  15.648  14.400   6.919
 6270SOL    HW167649  15.666  14.346   6.837
 6270SOL    HW267650  15.721  14.385   6.986
 6271SOL     OW67651   7.879   4.052   7.514
 6271SOL    HW167652   7.928   4.060   7.601
 6271SOL    HW267653   7.801   3.991   7.525
 6272SOL     OW67654   0.391   1.949   7.800
 6272SOL    HW167655   0.360   1.927   7.707
 6272SOL    HW267656   0.490   1.938   7.805
 6273SOL     OW67657  15.718   5.205   6.878
 6273SOL    HW167658  15.809   5.247   6.886
 6273SOL    HW267659  15.727   5.105   6.881
 6274SOL     OW67660  12.604  10.077   8.096
 6274SOL    HW167661  12.574  10.027   8.014
 6274SOL    HW267662  12.578  10.173   8.087
 6275SOL     OW67663   9.853  11.094   6.482
 6275SOL    HW167664   9.762  11.132   6.498
 6275SOL    HW267665   9.844  11.007   6.432
 6276SOL     OW67666   2.847  10.607   7.249
 6276SOL    HW167667   2.944  10.597   7.227
 6276SOL    HW267668   2.794  10.550   7.186
 6277SOL     OW67669   6.064  10.469   7.208
 6277SOL    HW167670   6.162  10.483   7.200
 6277SOL    HW267671   6.020  10.491   7.121
 6278SOL     OW67672   8.258   5.422   7.503
 6278SOL    HW167673   8.215   5.416   7.413
 6278SOL    HW267674   8.357   5.410   7.494
 6279SOL     OW67675   3.387   5.188   8.181
 6279SOL    HW167676   3.391   5.146   8.271
 6279SOL    HW267677   3.353   5.122   8.114
 6280SOL     OW67678  16.875   5.852   6.345
 6280SOL    HW167679  16.878   5.813   6.253
 6280SOL    HW267680  16.959   5.903   6.363
 6281SOL     OW67681   1.259  14.690   1.465
 6281SOL    HW167682   1.228  14.686   1.370
 6281SOL    HW267683   1.346  14.739   1.470
 6282SOL     OW67684  12.293   2.404   0.961
 6282SOL    HW167685  12.224   2.338   0.932
 6282SOL    HW267686  12.282   2.424   1.058
 6283SOL     OW67687  12.128  11.255   6.800
 6283SOL    HW167688  12.037  11.219   6.821
 6283SOL    HW267689  12.156  11.223   6.709
 6284SOL     OW67690   0.739   4.095   6.862
 6284SOL    HW167691   0.736   4.057   6.954
 6284SOL    HW267692   0.795   4.037   6.803
 6285SOL     OW67693  10.635   5.423   6.398
 6285SOL    HW167694  10.702   5.404   6.470
 6285SOL    HW267695  10.642   5.353   6.327
 6286SOL     OW67696   0.934   9.339   8.066
 6286SOL    HW167697   1.004   9.358   7.997
 6286SOL    HW267698   0.884   9.422   8.087
 6287SOL     OW67699  12.394  11.159   7.535
 6287SOL    HW167700  12.336  11.085   7.501
 6287SOL    HW267701  12.426  11.214   7.458
 6288SOL     OW67702   8.068  11.526   2.491
 6288SOL    HW167703   8.101  11.432   2.477
 6288SOL    HW267704   8.062  11.545   2.589
 6289SOL     OW67705  10.573   3.188   8.147
 6289SOL    HW167706  10.577   3.287   8.132
 6289SOL    HW267707  10.535   3.144   8.066
 6290SOL     OW67708  12.980   2.406   8.053
 6290SOL    HW167709  13.031   2.474   8.000
 6290SOL    HW267710  12.888   2.397   8.015
 6291SOL     OW67711   5.462   1.094   1.716
 6291SOL    HW167712   5.561   1.091   1.728
 6291SOL    HW267713   5.417   1.062   1.799
 6292SOL     OW67714  11.162   3.098   8.180
 6292SOL    HW167715  11.094   3.107   8.107
 6292SOL    HW267716  11.213   3.013   8.167
 6293SOL     OW67717   2.647   7.629   0.639
 6293SOL    HW167718   2.624   7.534   0.661
 6293SOL    HW267719   2.704   7.667   0.712
 6294SOL     OW67720  14.477   9.031   2.524
 6294SOL    HW167721  14.433   9.058   2.438
 6294SOL    HW267722  14.544   9.100   2.551
 6295SOL     OW67723  15.698  12.674   0.333
 6295SOL    HW167724  15.652  12.683   0.421
 6295SOL    HW267725  15.638  12.628   0.268
 6296SOL     OW67726  14.678  13.303   1.551
 6296SOL    HW167727  14.739  13.323   1.475
 6296SOL    HW267728  14.727  13.317   1.637
 6297SOL     OW67729   2.186  13.604   2.407
 6297SOL    HW167730   2.131  13.520   2.407
 6297SOL    HW267731   2.149  13.669   2.342
 6298SOL     OW67732   0.711  15.772   0.642
 6298SOL    HW167733   0.754  15.863   0.646
 6298SOL    HW267734   0.779  15.704   0.616
 6299SOL     OW67735  16.123   1.637   6.931
 6299SOL    HW167736  16.046   1.629   6.868
 6299SOL    HW267737  16.203   1.672   6.882
 6300SOL     OW67738  12.743  15.294   7.979
 6300SOL    HW167739  12.776  15.216   7.926
 6300SOL    HW267740  12.817  15.327   8.038
 6301SOL     OW67741   0.715   0.183   7.666
 6301SOL    HW167742   0.775   0.259   7.643
 6301SOL    HW267743   0.643   0.175   7.596
 6302SOL     OW67744   8.204  14.766   2.415
 6302SOL    HW167745   8.251  14.831   2.474
 6302SOL    HW267746   8.106  14.767   2.436
 6303SOL     OW67747   0.565   7.992   1.415
 6303SOL    HW167748   0.524   8.037   1.494
 6303SOL    HW267749   0.595   8.061   1.349
 6304SOL     OW67750   3.066  12.957   0.285
 6304SOL    HW167751   3.043  12.973   0.189
 6304SOL    HW267752   3.064  12.859   0.304
 6305SOL     OW67753   8.393   0.653   0.164
 6305SOL    HW167754   8.379   0.564   0.121
 6305SOL    HW267755   8.432   0.640   0.256
 6306SOL     OW67756   1.158  14.789   7.963
 6306SOL    HW167757   1.120  14.772   8.055
 6306SOL    HW267758   1.256  14.768   7.963
 6307SOL     OW67759  14.217   5.305   1.579
 6307SOL    HW167760  14.156   5.367   1.628
 6307SOL    HW267761  14.174   5.215   1.572
 6308SOL     OW67762   2.571  15.709   1.489
 6308SOL    HW167763   2.476  15.707   1.521
 6308SOL    HW267764   2.625  15.766   1.551
 6309SOL     OW67765  11.460   7.881   1.443
 6309SOL    HW167766  11.413   7.934   1.514
 6309SOL    HW267767  11.420   7.902   1.354
 6310SOL     OW67768   1.409   3.735   7.738
 6310SOL    HW167769   1.440   3.695   7.652
 6310SOL    HW267770   1.400   3.834   7.727
 6311SOL     OW67771   2.600  10.628   0.177
 6311SOL    HW167772   2.671  10.598   0.241
 6311SOL    HW267773   2.554  10.708   0.213
 6312SOL     OW67774   3.191   4.715   6.655
 6312SOL    HW167775   3.282   4.728   6.616
 6312SOL    HW267776   3.168   4.794   6.712
 6313SOL     OW67777   9.418   4.267   1.904
 6313SOL    HW167778   9.412   4.167   1.911
 6313SOL    HW267779   9.430   4.306   1.996
 6314SOL     OW67780   7.597  15.562   8.078
 6314SOL    HW167781   7.519  15.593   8.024
 6314SOL    HW267782   7.635  15.479   8.036
 6315SOL     OW67783   2.789   0.044   7.571
 6315SOL    HW167784   2.878   0.036   7.527
 6315SOL    HW267785   2.781   0.133   7.617
 6316SOL     OW67786   9.990   4.291   1.556
 6316SOL    HW167787   9.915   4.250   1.607
 6316SOL    HW267788   9.995   4.389   1.576
 6317SOL     OW67789   9.006   2.736   7.199
 6317SOL    HW167790   8.959   2.789   7.129
 6317SOL    HW267791   8.940   2.707   7.268
 6318SOL     OW67792   5.891   4.840   1.383
 6318SOL    HW167793   5.840   4.759   1.352
 6318SOL    HW267794   5.934   4.820   1.470
 6319SOL     OW67795   4.848   0.973   0.775
 6319SOL    HW167796   4.811   0.898   0.830
 6319SOL    HW267797   4.946   0.983   0.793
 6320SOL     OW67798  13.082  11.942   7.204
 6320SOL    HW167799  12.994  11.986   7.185
 6320SOL    HW267800  13.147  12.011   7.236
 6321SOL     OW67801  11.404   9.382   1.082
 6321SOL    HW167802  11.385   9.419   0.990
 6321SOL    HW267803  11.323   9.332   1.114
 6322SOL     OW67804   9.543   6.784   1.714
 6322SOL    HW167805   9.633   6.740   1.719
 6322SOL    HW267806   9.539   6.857   1.782
 6323SOL     OW67807   5.813   8.073   7.589
 6323SOL    HW167808   5.716   8.063   7.568
 6323SOL    HW267809   5.834   8.026   7.675
 6324SOL     OW67810  14.062  16.966   8.035
 6324SOL    HW167811  14.091   0.076   8.058
 6324SOL    HW267812  14.142  16.913   8.005
 6325SOL     OW67813   0.139   8.628   0.485
 6325SOL    HW167814   0.082   8.620   0.567
 6325SOL    HW267815   0.218   8.567   0.494
 6326SOL     OW67816   5.013   4.922   0.979
 6326SOL    HW167817   4.963   4.851   1.028
 6326SOL    HW267818   5.088   4.955   1.036
 6327SOL     OW67819   7.185   8.937   1.195
 6327SOL    HW167820   7.110   8.969   1.137
 6327SOL    HW267821   7.187   8.990   1.279
 6328SOL     OW67822  11.420  13.255   7.357
 6328SOL    HW167823  11.341  13.309   7.329
 6328SOL    HW267824  11.393  13.189   7.427
 6329SOL     OW67825  15.282  16.652   1.149
 6329SOL    HW167826  15.212  16.632   1.217
 6329SOL    HW267827  15.290  16.575   1.086
 6330SOL     OW67828   8.926   8.095   1.671
 6330SOL    HW167829   8.961   8.092   1.765
 6330SOL    HW267830   8.853   8.027   1.661
 6331SOL     OW67831  16.888   3.808   7.837
 6331SOL    HW167832  16.864   3.718   7.873
 6331SOL    HW267833   0.004   3.822   7.846
 6332SOL     OW67834   0.478   7.291   0.513
 6332SOL    HW167835   0.547   7.231   0.554
 6332SOL    HW267836   0.447   7.357   0.582
 6333SOL     OW67837  12.496  12.483   1.277
 6333SOL    HW167838  12.469  12.577   1.261
 6333SOL    HW267839  12.414  12.426   1.289
 6334SOL     OW67840   4.493  15.038   6.833
 6334SOL    HW167841   4.456  14.973   6.766
 6334SOL    HW267842   4.574  15.083   6.794
 6335SOL     OW67843   7.635   8.056   0.161
 6335SOL    HW167844   7.543   8.087   0.135
 6335SOL    HW267845   7.654   8.084   0.255
 6336SOL     OW67846  13.232  16.379   0.816
 6336SOL    HW167847  13.151  16.434   0.838
 6336SOL    HW267848  13.223  16.288   0.857
 6337SOL     OW67849  14.468   8.405   8.149
 6337SOL    HW167850  14.428   8.477   8.206
 6337SOL    HW267851  14.523   8.344   8.206
 6338SOL     OW67852  11.163   1.041   0.663
 6338SOL    HW167853  11.224   0.962   0.668
 6338SOL    HW267854  11.151   1.080   0.755
 6339SOL     OW67855   7.603   9.322   6.738
 6339SOL    HW167856   7.642   9.288   6.652
 6339SOL    HW267857   7.671   9.312   6.811
 6340SOL     OW67858  11.836   7.017   0.886
 6340SOL    HW167859  11.758   7.026   0.947
 6340SOL    HW267860  11.818   6.944   0.820
 6341SOL     OW67861   3.653  14.959   7.403
 6341SOL    HW167862   3.641  15.052   7.368
 6341SOL    HW267863   3.728  14.958   7.471
 6342SOL     OW67864  16.491  10.826   1.423
 6342SOL    HW167865  16.574  10.794   1.468
 6342SOL    HW267866  16.467  10.765   1.348
 6343SOL     OW67867   8.236  15.464   1.964
 6343SOL    HW167868   8.315  15.429   1.914
 6343SOL    HW267869   8.165  15.492   1.899
 6344SOL     OW67870   3.934  10.919   0.966
 6344SOL    HW167871   3.948  10.983   1.041
 6344SOL    HW267872   3.855  10.949   0.912
 6345SOL     OW67873  12.961  10.346   6.479
 6345SOL    HW167874  12.883  10.397   6.516
 6345SOL    HW267875  12.993  10.390   6.395
 6346SOL     OW67876   2.705   7.324   0.957
 6346SOL    HW167877   2.746   7.241   0.997
 6346SOL    HW267878   2.749   7.405   0.997
 6347SOL     OW67879   0.087  11.064   0.471
 6347SOL    HW167880   0.022  11.015   0.413
 6347SOL    HW267881   0.038  11.131   0.527
 6348SOL     OW67882   2.818   6.315   7.555
 6348SOL    HW167883   2.880   6.259   7.611
 6348SOL    HW267884   2.740   6.343   7.611
 6349SOL     OW67885   0.252  16.223   1.727
 6349SOL    HW167886   0.221  16.291   1.793
 6349SOL    HW267887   0.189  16.221   1.649
 6350SOL     OW67888   9.029  16.310   7.780
 6350SOL    HW167889   9.127  16.329   7.774
 6350SOL    HW267890   9.015  16.212   7.793
 6351SOL     OW67891   4.649  13.866   0.323
 6351SOL    HW167892   4.671  13.963   0.314
 6351SOL    HW267893   4.593  13.851   0.404
 6352SOL     OW67894   6.256   3.610   6.672
 6352SOL    HW167895   6.239   3.524   6.626
 6352SOL    HW267896   6.224   3.686   6.615
 6353SOL     OW67897   1.657  14.220   0.325
 6353SOL    HW167898   1.618  14.172   0.246
 6353SOL    HW267899   1.692  14.309   0.296
 6354SOL     OW67900   1.457   2.965   1.644
 6354SOL    HW167901   1.473   3.001   1.736
 6354SOL    HW267902   1.361   2.976   1.620
 6355SOL     OW67903  13.347   9.197   1.544
 6355SOL    HW167904  13.389   9.288   1.542
 6355SOL    HW267905  13.257   9.202   1.586
 6356SOL     OW67906   9.512  16.821   5.984
 6356SOL    HW167907   9.600  16.806   6.029
 6356SOL    HW267908   9.511  16.911   5.941
 6357SOL     OW67909   5.526   6.701   7.996
 6357SOL    HW167910   5.555   6.784   7.949
 6357SOL    HW267911   5.588   6.683   8.073
 6358SOL     OW67912  10.134  16.402   2.259
 6358SOL    HW167913  10.094  16.420   2.349
 6358SOL    HW267914  10.210  16.466   2.243
 6359SOL     OW67915   4.587   9.846   8.140
 6359SOL    HW167916   4.576   9.753   8.104
 6359SOL    HW267917   4.498   9.881   8.171
 6360SOL     OW67918  15.872  16.710   8.420
 6360SOL    HW167919  15.866  16.798   0.013
 6360SOL    HW267920  15.929  16.648   0.019
 6361SOL     OW67921   7.096  15.046   6.922
 6361SOL    HW167922   7.127  15.113   6.855
 6361SOL    HW267923   7.153  14.964   6.915
 6362SOL     OW67924  10.995   2.885   7.701
 6362SOL    HW167925  11.088   2.859   7.727
 6362SOL    HW267926  10.987   2.884   7.601
 6363SOL     OW67927   4.635   8.474   1.697
 6363SOL    HW167928   4.630   8.482   1.597
 6363SOL    HW267929   4.556   8.423   1.730
 6364SOL     OW67930  10.059   4.280   0.528
 6364SOL    HW167931  10.149   4.320   0.545
 6364SOL    HW267932  10.002   4.346   0.478
 6365SOL     OW67933   3.769   2.254   6.819
 6365SOL    HW167934   3.694   2.189   6.832
 6365SOL    HW267935   3.741   2.324   6.752
 6366SOL     OW67936   2.080  15.349   1.433
 6366SOL    HW167937   2.005  15.329   1.370
 6366SOL    HW267938   2.044  15.363   1.524
 6367SOL     OW67939   3.367  15.239   7.803
 6367SOL    HW167940   3.276  15.224   7.841
 6367SOL    HW267941   3.359  15.263   7.706
 6368SOL     OW67942  11.303   0.680   2.142
 6368SOL    HW167943  11.286   0.614   2.068
 6368SOL    HW267944  11.300   0.632   2.230
 6369SOL     OW67945   3.918   3.029   7.231
 6369SOL    HW167946   4.003   3.071   7.203
 6369SOL    HW267947   3.895   2.954   7.170
 6370SOL     OW67948  11.619  13.676   0.886
 6370SOL    HW167949  11.671  13.595   0.860
 6370SOL    HW267950  11.675  13.735   0.944
 6371SOL     OW67951  16.528  12.565   0.077
 6371SOL    HW167952  16.551  12.633   0.007
 6371SOL    HW267953  16.604  12.554   0.140
 6372SOL     OW67954  12.754   3.620   6.953
 6372SOL    HW167955  12.707   3.567   6.883
 6372SOL    HW267956  12.766   3.714   6.922
 6373SOL     OW67957   2.891   1.871   0.972
 6373SOL    HW167958   2.969   1.836   0.920
 6373SOL    HW267959   2.812   1.880   0.912
 6374SOL     OW67960  11.347   8.654   7.134
 6374SOL    HW167961  11.257   8.690   7.158
 6374SOL    HW267962  11.367   8.575   7.192
 6375SOL     OW67963  13.353   8.399   8.156
 6375SOL    HW167964  13.274   8.420   8.214
 6375SOL    HW267965  13.324   8.390   8.061
 6376SOL     OW67966   2.984   6.639   2.336
 6376SOL    HW167967   3.008   6.562   2.277
 6376SOL    HW267968   2.893   6.625   2.375
 6377SOL     OW67969   8.435   3.781   1.027
 6377SOL    HW167970   8.421   3.825   0.938
 6377SOL    HW267971   8.372   3.820   1.094
 6378SOL     OW67972  15.321  12.740   1.460
 6378SOL    HW167973  15.291  12.652   1.494
 6378SOL    HW267974  15.388  12.727   1.387
 6379SOL     OW67975  16.939   9.884   7.932
 6379SOL    HW167976  16.846   9.919   7.919
 6379SOL    HW267977   0.018   9.932   7.870
 6380SOL     OW67978   2.417   7.656   1.360
 6380SOL    HW167979   2.384   7.561   1.362
 6380SOL    HW267980   2.345   7.715   1.324
 6381SOL     OW67981   0.146   9.232   1.721
 6381SOL    HW167982   0.127   9.191   1.632
 6381SOL    HW267983   0.133   9.331   1.716
 6382SOL     OW67984   1.999  16.324   6.720
 6382SOL    HW167985   1.993  16.230   6.687
 6382SOL    HW267986   1.993  16.387   6.642
 6383SOL     OW67987   1.470  12.459   2.035
 6383SOL    HW167988   1.527  12.384   2.067
 6383SOL    HW267989   1.407  12.487   2.108
 6384SOL     OW67990  13.346   1.699   8.229
 6384SOL    HW167991  13.437   1.720   8.193
 6384SOL    HW267992  13.280   1.767   8.195
 6385SOL     OW67993   8.735   2.967   1.617
 6385SOL    HW167994   8.704   3.062   1.621
 6385SOL    HW267995   8.791   2.947   1.697
 6386SOL     OW67996  10.906   2.350   7.320
 6386SOL    HW167997  10.933   2.410   7.396
 6386SOL    HW267998  10.835   2.288   7.351
 6387SOL     OW67999   1.014  11.936   2.896
 6387SOL    HW168000   1.090  11.989   2.935
 6387SOL    HW268001   1.051  11.866   2.835
 6388SOL     OW68002  12.743  14.606   0.538
 6388SOL    HW168003  12.654  14.634   0.503
 6388SOL    HW268004  12.784  14.681   0.590
 6389SOL     OW68005  16.701  13.947   0.187
 6389SOL    HW168006  16.681  13.928   0.283
 6389SOL    HW268007  16.734  14.041   0.177
 6390SOL     OW68008  16.771   4.662   6.996
 6390SOL    HW168009  16.793   4.564   7.000
 6390SOL    HW268010  16.703   4.678   6.924
 6391SOL     OW68011   0.859   9.761   7.977
 6391SOL    HW168012   0.821   9.827   8.042
 6391SOL    HW268013   0.791   9.740   7.907
 6392SOL     OW68014   9.951  16.616   1.262
 6392SOL    HW168015  10.033  16.672   1.251
 6392SOL    HW268016   9.975  16.519   1.263
 6393SOL     OW68017  15.801   2.720   0.822
 6393SOL    HW168018  15.707   2.687   0.825
 6393SOL    HW268019  15.851   2.684   0.901
 6394SOL     OW68020   9.787  15.853   7.347
 6394SOL    HW168021   9.845  15.873   7.427
 6394SOL    HW268022   9.726  15.930   7.330
 6395SOL     OW68023  11.788   8.105   0.716
 6395SOL    HW168024  11.798   8.203   0.698
 6395SOL    HW268025  11.873   8.069   0.756
 6396SOL     OW68026  10.772   4.451   1.527
 6396SOL    HW168027  10.702   4.389   1.560
 6396SOL    HW268028  10.861   4.423   1.562
 6397SOL     OW68029  13.322   8.494   6.876
 6397SOL    HW168030  13.314   8.407   6.925
 6397SOL    HW268031  13.239   8.511   6.824
 6398SOL     OW68032  11.739  11.530   0.958
 6398SOL    HW168033  11.791  11.544   0.874
 6398SOL    HW268034  11.797  11.483   1.025
 6399SOL     OW68035  10.731   4.762   7.323
 6399SOL    HW168036  10.768   4.763   7.230
 6399SOL    HW268037  10.711   4.855   7.352
 6400SOL     OW68038   6.885   8.029   7.938
 6400SOL    HW168039   6.876   8.105   8.002
 6400SOL    HW268040   6.849   8.057   7.848
 6401SOL     OW68041  13.870  10.440   1.244
 6401SOL    HW168042  13.791  10.398   1.290
 6401SOL    HW268043  13.869  10.416   1.147
 6402SOL     OW68044   7.801   2.462   0.543
 6402SOL    HW168045   7.875   2.525   0.566
 6402SOL    HW268046   7.771   2.413   0.625
 6403SOL     OW68047   8.357  14.619   1.228
 6403SOL    HW168048   8.265  14.636   1.191
 6403SOL    HW268049   8.384  14.525   1.208
 6404SOL     OW68050  16.225   3.472   7.578
 6404SOL    HW168051  16.309   3.485   7.632
 6404SOL    HW268052  16.177   3.391   7.609
 6405SOL     OW68053   9.798   4.943   5.847
 6405SOL    HW168054   9.789   5.025   5.903
 6405SOL    HW268055   9.872   4.886   5.883
 6406SOL     OW68056  14.970  16.251   0.731
 6406SOL    HW168057  14.892  16.207   0.775
 6406SOL    HW268058  15.047  16.187   0.727
 6407SOL     OW68059  12.484  11.109   1.179
 6407SOL    HW168060  12.409  11.044   1.175
 6407SOL    HW268061  12.489  11.149   1.271
 6408SOL     OW68062  15.192   6.398   6.602
 6408SOL    HW168063  15.152   6.368   6.516
 6408SOL    HW268064  15.277   6.349   6.618
 6409SOL     OW68065   7.204   8.267   6.737
 6409SOL    HW168066   7.176   8.185   6.687
 6409SOL    HW268067   7.192   8.347   6.679
 6410SOL     OW68068   7.643   3.062   6.360
 6410SOL    HW168069   7.670   3.127   6.289
 6410SOL    HW268070   7.666   2.969   6.330
 6411SOL     OW68071   6.422   5.879   2.029
 6411SOL    HW168072   6.442   5.799   1.973
 6411SOL    HW268073   6.333   5.867   2.074
 6412SOL     OW68074  10.355   9.605   1.686
 6412SOL    HW168075  10.317   9.512   1.688
 6412SOL    HW268076  10.440   9.607   1.740
 6413SOL     OW68077  14.100   0.489   7.417
 6413SOL    HW168078  14.076   0.451   7.328
 6413SOL    HW268079  14.188   0.536   7.412
 6414SOL     OW68080   5.132   2.885   1.238
 6414SOL    HW168081   5.126   2.955   1.310
 6414SOL    HW268082   5.093   2.799   1.273
 6415SOL     OW68083  16.879   8.155   6.927
 6415SOL    HW168084  16.977   8.160   6.946
 6415SOL    HW268085  16.846   8.246   6.901
 6416SOL     OW68086  11.053   5.212   7.254
 6416SOL    HW168087  11.000   5.143   7.203
 6416SOL    HW268088  10.998   5.247   7.330
 6417SOL     OW68089   4.019   0.955   0.579
 6417SOL    HW168090   3.963   0.873   0.587
 6417SOL    HW268091   4.068   0.972   0.664
 6418SOL     OW68092  14.307  10.557   7.416
 6418SOL    HW168093  14.318  10.586   7.322
 6418SOL    HW268094  14.238  10.614   7.461
 6419SOL     OW68095  12.222  15.957   1.066
 6419SOL    HW168096  12.143  15.922   1.015
 6419SOL    HW268097  12.189  16.001   1.150
 6420SOL     OW68098  14.720  13.427   2.021
 6420SOL    HW168099  14.694  13.521   2.001
 6420SOL    HW268100  14.751  13.420   2.116
 6421SOL     OW68101   5.207   9.768   0.997
 6421SOL    HW168102   5.254   9.820   1.068
 6421SOL    HW268103   5.168   9.685   1.036
 6422SOL     OW68104   9.853   6.583   0.806
 6422SOL    HW168105   9.937   6.635   0.787
 6422SOL    HW268106   9.777   6.647   0.816
 6423SOL     OW68107  12.144   1.715   1.533
 6423SOL    HW168108  12.166   1.691   1.438
 6423SOL    HW268109  12.214   1.777   1.568
 6424SOL     OW68110   2.786  10.556   0.363
 6424SOL    HW168111   2.872  10.515   0.333
 6424SOL    HW268112   2.803  10.649   0.395
 6425SOL     OW68113   3.373  15.060   7.173
 6425SOL    HW168114   3.326  14.991   7.118
 6425SOL    HW268115   3.305  15.112   7.226
 6426SOL     OW68116  10.776  13.767   6.840
 6426SOL    HW168117  10.754  13.814   6.754
 6426SOL    HW268118  10.750  13.671   6.834
 6427SOL     OW68119  10.446  12.168   1.084
 6427SOL    HW168120  10.524  12.187   1.024
 6427SOL    HW268121  10.377  12.240   1.074
 6428SOL     OW68122   2.981  11.107   0.364
 6428SOL    HW168123   3.027  11.021   0.386
 6428SOL    HW268124   2.891  11.088   0.323
 6429SOL     OW68125   6.177   6.810   2.561
 6429SOL    HW168126   6.082   6.781   2.549
 6429SOL    HW268127   6.234   6.729   2.577
 6430SOL     OW68128   5.399   0.208   8.425
 6430SOL    HW168129   5.495   0.182   8.411
 6430SOL    HW268130   5.392   0.308   8.428
 6431SOL     OW68131   7.682  11.223   7.245
 6431SOL    HW168132   7.694  11.290   7.319
 6431SOL    HW268133   7.720  11.135   7.273
 6432SOL     OW68134   7.836  10.931   6.583
 6432SOL    HW168135   7.810  10.962   6.492
 6432SOL    HW268136   7.841  10.831   6.585
 6433SOL     OW68137  16.828   1.894   7.409
 6433SOL    HW168138  16.814   1.869   7.313
 6433SOL    HW268139  16.916   1.941   7.419
 6434SOL     OW68140  10.634   2.051   6.729
 6434SOL    HW168141  10.616   1.987   6.803
 6434SOL    HW268142  10.547   2.080   6.689
 6435SOL     OW68143  11.863  14.653   0.510
 6435SOL    HW168144  11.831  14.692   0.424
 6435SOL    HW268145  11.785  14.620   0.563
 6436SOL     OW68146  12.698  15.239   1.264
 6436SOL    HW168147  12.635  15.164   1.242
 6436SOL    HW268148  12.648  15.310   1.313
 6437SOL     OW68149  10.732   8.674   8.099
 6437SOL    HW168150  10.643   8.702   8.063
 6437SOL    HW268151  10.720   8.595   8.160
 6438SOL     OW68152  10.942  13.499   0.035
 6438SOL    HW168153  10.939  13.597   0.017
 6438SOL    HW268154  11.013  13.479   0.102
 6439SOL     OW68155  11.754   4.413   7.206
 6439SOL    HW168156  11.741   4.509   7.181
 6439SOL    HW268157  11.842   4.403   7.253
 6440SOL     OW68158   4.764   5.105   1.549
 6440SOL    HW168159   4.701   5.156   1.490
 6440SOL    HW268160   4.736   5.114   1.644
 6441SOL     OW68161   7.949   6.900   1.570
 6441SOL    HW168162   7.969   6.967   1.641
 6441SOL    HW268163   7.949   6.808   1.610
 6442SOL     OW68164   2.396   3.882   1.208
 6442SOL    HW168165   2.412   3.859   1.304
 6442SOL    HW268166   2.411   3.801   1.152
 6443SOL     OW68167   5.992  13.202   7.616
 6443SOL    HW168168   6.080  13.249   7.617
 6443SOL    HW268169   6.006  13.103   7.618
 6444SOL     OW68170  11.272  12.782   1.165
 6444SOL    HW168171  11.273  12.752   1.261
 6444SOL    HW268172  11.249  12.879   1.160
 6445SOL     OW68173   2.422  13.623   0.579
 6445SOL    HW168174   2.439  13.576   0.665
 6445SOL    HW268175   2.506  13.666   0.547
 6446SOL     OW68176   1.789   6.800   6.848
 6446SOL    HW168177   1.858   6.849   6.797
 6446SOL    HW268178   1.728   6.751   6.785
 6447SOL     OW68179   6.421   0.392   7.768
 6447SOL    HW168180   6.331   0.383   7.810
 6447SOL    HW268181   6.416   0.454   7.690
 6448SOL     OW68182   9.132   8.796   2.026
 6448SOL    HW168183   9.040   8.790   2.065
 6448SOL    HW268184   9.199   8.798   2.100
 6449SOL     OW68185  15.890  16.102   1.442
 6449SOL    HW168186  15.828  16.163   1.394
 6449SOL    HW268187  15.845  16.013   1.456
 6450SOL     OW68188   3.745   9.001   2.431
 6450SOL    HW168189   3.830   9.010   2.483
 6450SOL    HW268190   3.762   8.944   2.350
 6451SOL     OW68191  12.638   5.080   0.226
 6451SOL    HW168192  12.659   5.006   0.290
 6451SOL    HW268193  12.713   5.089   0.161
 6452SOL     OW68194   4.075   9.910   0.273
 6452SOL    HW168195   4.134   9.858   0.334
 6452SOL    HW268196   3.983   9.915   0.311
 6453SOL     OW68197   8.942   4.991   7.071
 6453SOL    HW168198   8.997   4.985   7.155
 6453SOL    HW268199   8.932   5.087   7.045
 6454SOL     OW68200  11.672   0.848   6.191
 6454SOL    HW168201  11.744   0.788   6.154
 6454SOL    HW268202  11.586   0.829   6.144
 6455SOL     OW68203  12.868  13.730   0.735
 6455SOL    HW168204  12.784  13.756   0.784
 6455SOL    HW268205  12.853  13.740   0.637
 6456SOL     OW68206   3.527   9.354   6.856
 6456SOL    HW168207   3.575   9.267   6.863
 6456SOL    HW268208   3.458   9.347   6.784
 6457SOL     OW68209   2.577  11.184   1.576
 6457SOL    HW168210   2.481  11.205   1.595
 6457SOL    HW268211   2.617  11.258   1.523
 6458SOL     OW68212  15.398  12.783   0.235
 6458SOL    HW168213  15.318  12.787   0.175
 6458SOL    HW268214  15.444  12.695   0.224
 6459SOL     OW68215   3.447   6.951   0.501
 6459SOL    HW168216   3.421   7.045   0.479
 6459SOL    HW268217   3.504   6.913   0.428
 6460SOL     OW68218   5.491  14.122   7.547
 6460SOL    HW168219   5.444  14.144   7.462
 6460SOL    HW268220   5.425  14.122   7.622
 6461SOL     OW68221   5.901   9.414   7.537
 6461SOL    HW168222   5.808   9.439   7.513
 6461SOL    HW268223   5.965   9.470   7.485
 6462SOL     OW68224   5.167   4.453   1.897
 6462SOL    HW168225   5.258   4.475   1.933
 6462SOL    HW268226   5.108   4.422   1.971
 6463SOL     OW68227  15.698   4.823   6.414
 6463SOL    HW168228  15.754   4.756   6.365
 6463SOL    HW268229  15.751   4.861   6.490
 6464SOL     OW68230   9.556   1.275   0.323
 6464SOL    HW168231   9.653   1.299   0.323
 6464SOL    HW268232   9.505   1.342   0.377
 6465SOL     OW68233  12.601   6.371   0.173
 6465SOL    HW168234  12.695   6.370   0.139
 6465SOL    HW268235  12.596   6.321   0.260
 6466SOL     OW68236   4.995   3.757   1.188
 6466SOL    HW168237   4.981   3.712   1.100
 6466SOL    HW268238   4.946   3.844   1.189
 6467SOL     OW68239   9.738  13.586   7.132
 6467SOL    HW168240   9.758  13.683   7.118
 6467SOL    HW268241   9.664  13.577   7.200
 6468SOL     OW68242  11.858   0.773   1.108
 6468SOL    HW168243  11.814   0.860   1.087
 6468SOL    HW268244  11.821   0.702   1.048
 6469SOL     OW68245   8.371  12.669   8.217
 6469SOL    HW168246   8.278  12.652   8.249
 6469SOL    HW268247   8.425  12.709   8.292
 6470SOL     OW68248  10.286   0.680   1.332
 6470SOL    HW168249  10.361   0.735   1.295
 6470SOL    HW268250  10.285   0.687   1.431
 6471SOL     OW68251   6.279  11.068   0.578
 6471SOL    HW168252   6.287  10.987   0.520
 6471SOL    HW268253   6.185  11.102   0.573
 6472SOL     OW68254   3.350  11.138   7.889
 6472SOL    HW168255   3.367  11.236   7.905
 6472SOL    HW268256   3.401  11.085   7.957
 6473SOL     OW68257  10.270  14.825   0.424
 6473SOL    HW168258  10.284  14.729   0.400
 6473SOL    HW268259  10.345  14.856   0.482
 6474SOL     OW68260  14.351   8.952   6.667
 6474SOL    HW168261  14.313   8.908   6.586
 6474SOL    HW268262  14.284   8.951   6.741
 6475SOL     OW68263   0.284   5.843   8.387
 6475SOL    HW168264   0.263   5.748   8.366
 6475SOL    HW268265   0.268   5.900   8.306
 6476SOL     OW68266  15.236   0.224   6.819
 6476SOL    HW168267  15.210   0.294   6.752
 6476SOL    HW268268  15.330   0.241   6.849
 6477SOL     OW68269   3.651   6.922   0.983
 6477SOL    HW168270   3.655   6.990   0.910
 6477SOL    HW268271   3.578   6.856   0.964
 6478SOL     OW68272  10.380   6.789   1.232
 6478SOL    HW168273  10.297   6.733   1.227
 6478SOL    HW268274  10.420   6.782   1.323
 6479SOL     OW68275   1.334   3.157   1.405
 6479SOL    HW168276   1.383   3.081   1.363
 6479SOL    HW268277   1.272   3.122   1.476
 6480SOL     OW68278   9.999   6.717   0.335
 6480SOL    HW168279   9.985   6.623   0.304
 6480SOL    HW268280   9.940   6.778   0.282
 6481SOL     OW68281   6.398  13.317   8.241
 6481SOL    HW168282   6.301  13.297   8.230
 6481SOL    HW268283   6.410  13.403   8.290
 6482SOL     OW68284   2.605  16.005   0.513
 6482SOL    HW168285   2.602  15.910   0.482
 6482SOL    HW268286   2.555  16.013   0.599
 6483SOL     OW68287   4.526  11.314   0.331
 6483SOL    HW168288   4.543  11.360   0.244
 6483SOL    HW268289   4.556  11.219   0.326
 6484SOL     OW68290  13.999   0.819   0.394
 6484SOL    HW168291  14.068   0.873   0.346
 6484SOL    HW268292  13.910   0.865   0.386
 6485SOL     OW68293   1.489  16.672   1.410
 6485SOL    HW168294   1.393  16.654   1.388
 6485SOL    HW268295   1.547  16.608   1.361
 6486SOL     OW68296   9.341  12.557   0.532
 6486SOL    HW168297   9.399  12.598   0.463
 6486SOL    HW268298   9.368  12.590   0.623
 6487SOL     OW68299  13.368  13.847   0.852
 6487SOL    HW168300  13.278  13.806   0.843
 6487SOL    HW268301  13.438  13.782   0.822
 6488SOL     OW68302   3.114  15.787   7.627
 6488SOL    HW168303   3.196  15.839   7.652
 6488SOL    HW268304   3.084  15.816   7.536
 6489SOL     OW68305  15.276   4.384   0.890
 6489SOL    HW168306  15.227   4.447   0.829
 6489SOL    HW268307  15.338   4.437   0.949
 6490SOL     OW68308   3.955  16.264   8.357
 6490SOL    HW168309   3.975  16.362   8.354
 6490SOL    HW268310   3.887  16.246   8.429
 6491SOL     OW68311  16.241  16.663   1.524
 6491SOL    HW168312  16.310  16.670   1.597
 6491SOL    HW268313  16.151  16.686   1.561
 6492SOL     OW68314   2.979   6.779   1.139
 6492SOL    HW168315   2.975   6.687   1.179
 6492SOL    HW268316   2.895   6.797   1.088
 6493SOL     OW68317  15.004   4.774   1.367
 6493SOL    HW168318  14.990   4.872   1.351
 6493SOL    HW268319  15.090   4.760   1.415
 6494SOL     OW68320  11.195   5.072   1.710
 6494SOL    HW168321  11.126   5.017   1.757
 6494SOL    HW268322  11.150   5.133   1.644
 6495SOL     OW68323   5.390  14.110   1.536
 6495SOL    HW168324   5.333  14.043   1.584
 6495SOL    HW268325   5.373  14.104   1.438
 6496SOL     OW68326   8.237   7.248   6.004
 6496SOL    HW168327   8.141   7.232   5.981
 6496SOL    HW268328   8.268   7.333   5.960
 6497SOL     OW68329   9.051  11.579   1.007
 6497SOL    HW168330   9.084  11.527   0.928
 6497SOL    HW268331   8.995  11.520   1.064
 6498SOL     OW68332  10.897  15.768   1.318
 6498SOL    HW168333  10.923  15.861   1.345
 6498SOL    HW268334  10.862  15.719   1.398
 6499SOL     OW68335  11.604   7.813   0.301
 6499SOL    HW168336  11.596   7.866   0.216
 6499SOL    HW268337  11.666   7.860   0.364
 6500SOL     OW68338   5.404  13.973   0.521
 6500SOL    HW168339   5.462  14.006   0.596
 6500SOL    HW268340   5.457  13.912   0.462
 6501SOL     OW68341   3.243   4.942   7.215
 6501SOL    HW168342   3.208   5.034   7.196
 6501SOL    HW268343   3.272   4.899   7.130
 6502SOL     OW68344  13.865  15.890   0.840
 6502SOL    HW168345  13.916  15.848   0.914
 6502SOL    HW268346  13.912  15.874   0.753
 6503SOL     OW68347   0.043   5.696   6.927
 6503SOL    HW168348   0.073   5.637   6.852
 6503SOL    HW268349   0.021   5.640   7.007
 6504SOL     OW68350  11.906  15.722   1.406
 6504SOL    HW168351  11.906  15.622   1.412
 6504SOL    HW268352  11.845  15.751   1.332
 6505SOL     OW68353   6.106   4.080   7.229
 6505SOL    HW168354   6.108   4.166   7.177
 6505SOL    HW268355   6.196   4.065   7.271
 6506SOL     OW68356  12.739   0.199   7.178
 6506SOL    HW168357  12.723   0.102   7.193
 6506SOL    HW268358  12.814   0.211   7.113
 6507SOL     OW68359  13.304   1.696   7.034
 6507SOL    HW168360  13.219   1.643   7.025
 6507SOL    HW268361  13.308   1.764   6.961
 6508SOL     OW68362  13.697  12.828   1.539
 6508SOL    HW168363  13.676  12.761   1.468
 6508SOL    HW268364  13.614  12.845   1.593
 6509SOL     OW68365  11.345   1.295   7.009
 6509SOL    HW168366  11.361   1.270   6.913
 6509SOL    HW268367  11.387   1.383   7.028
 6510SOL     OW68368  10.618   7.021   1.950
 6510SOL    HW168369  10.604   7.048   2.045
 6510SOL    HW268370  10.599   7.099   1.890
 6511SOL     OW68371   1.614   2.561   0.732
 6511SOL    HW168372   1.595   2.659   0.727
 6511SOL    HW268373   1.628   2.525   0.640
 6512SOL     OW68374  16.800  12.101   7.857
 6512SOL    HW168375  16.767  12.059   7.772
 6512SOL    HW268376  16.787  12.200   7.852
 6513SOL     OW68377   1.654  11.972   1.666
 6513SOL    HW168378   1.566  11.928   1.646
 6513SOL    HW268379   1.639  12.070   1.680
 6514SOL     OW68380   7.586   4.763   1.559
 6514SOL    HW168381   7.648   4.685   1.571
 6514SOL    HW268382   7.530   4.773   1.641
 6515SOL     OW68383   0.278   5.916   7.874
 6515SOL    HW168384   0.362   5.948   7.832
 6515SOL    HW268385   0.266   5.818   7.856
 6516SOL     OW68386  14.088   8.883   0.976
 6516SOL    HW168387  14.087   8.865   0.878
 6516SOL    HW268388  14.018   8.828   1.021
 6517SOL     OW68389   0.938   1.276   7.524
 6517SOL    HW168390   0.917   1.357   7.470
 6517SOL    HW268391   1.034   1.251   7.512
 6518SOL     OW68392   1.805   3.506   8.060
 6518SOL    HW168393   1.868   3.453   8.116
 6518SOL    HW268394   1.752   3.444   8.002
 6519SOL     OW68395  10.310   9.935   6.469
 6519SOL    HW168396  10.291  10.005   6.399
 6519SOL    HW268397  10.226   9.916   6.520
 6520SOL     OW68398   6.019   1.703   8.409
 6520SOL    HW168399   6.045   1.713   0.051
 6520SOL    HW268400   5.950   1.632   8.399
 6521SOL     OW68401  15.602   7.435   1.387
 6521SOL    HW168402  15.585   7.343   1.422
 6521SOL    HW268403  15.670   7.430   1.314
 6522SOL     OW68404   3.842  14.452   8.146
 6522SOL    HW168405   3.861  14.521   8.076
 6522SOL    HW268406   3.743  14.440   8.154
 6523SOL     OW68407  12.045   3.689   7.223
 6523SOL    HW168408  12.068   3.598   7.259
 6523SOL    HW268409  12.035   3.684   7.123
 6524SOL     OW68410  15.092   4.315   6.766
 6524SOL    HW168411  14.992   4.317   6.778
 6524SOL    HW268412  15.119   4.380   6.696
 6525SOL     OW68413  10.881  16.232   1.214
 6525SOL    HW168414  10.787  16.246   1.182
 6525SOL    HW268415  10.906  16.304   1.279
 6526SOL     OW68416   7.717  11.632   7.840
 6526SOL    HW168417   7.637  11.662   7.788
 6526SOL    HW268418   7.792  11.613   7.777
 6527SOL     OW68419   2.626  13.681   7.699
 6527SOL    HW168420   2.684  13.718   7.628
 6527SOL    HW268421   2.532  13.713   7.687
 6528SOL     OW68422  13.525   0.788   0.807
 6528SOL    HW168423  13.469   0.779   0.890
 6528SOL    HW268424  13.494   0.867   0.755
 6529SOL     OW68425   4.950  12.375   7.807
 6529SOL    HW168426   4.850  12.376   7.812
 6529SOL    HW268427   4.986  12.464   7.835
 6530SOL     OW68428  15.367   8.887   1.733
 6530SOL    HW168429  15.343   8.950   1.807
 6530SOL    HW268430  15.466   8.880   1.726
 6531SOL     OW68431   4.366   1.161   1.210
 6531SOL    HW168432   4.438   1.168   1.140
 6531SOL    HW268433   4.299   1.234   1.196
 6532SOL     OW68434   7.541   1.957   1.774
 6532SOL    HW168435   7.479   1.878   1.767
 6532SOL    HW268436   7.531   1.998   1.865
 6533SOL     OW68437  15.525  11.143   7.304
 6533SOL    HW168438  15.583  11.223   7.290
 6533SOL    HW268439  15.539  11.108   7.397
 6534SOL     OW68440  13.501  16.333   1.194
 6534SOL    HW168441  13.436  16.261   1.222
 6534SOL    HW268442  13.508  16.333   1.094
 6535SOL     OW68443   3.922  15.604   0.068
 6535SOL    HW168444   4.017  15.572   0.064
 6535SOL    HW268445   3.916  15.696   0.029
 6536SOL     OW68446   3.710   5.049   6.598
 6536SOL    HW168447   3.711   4.950   6.593
 6536SOL    HW268448   3.804   5.083   6.602
 6537SOL     OW68449   7.511   5.984   2.483
 6537SOL    HW168450   7.476   6.076   2.466
 6537SOL    HW268451   7.442   5.917   2.457
 6538SOL     OW68452   4.231   9.704   8.055
 6538SOL    HW168453   4.142   9.695   8.100
 6538SOL    HW268454   4.256   9.616   8.013
 6539SOL     OW68455   8.600   9.435   0.108
 6539SOL    HW168456   8.503   9.443   0.084
 6539SOL    HW268457   8.647   9.520   0.082
 6540SOL     OW68458  11.408  13.053   0.876
 6540SOL    HW168459  11.420  13.132   0.937
 6540SOL    HW268460  11.483  12.989   0.890
 6541SOL     OW68461  14.536   1.631   8.299
 6541SOL    HW168462  14.545   1.549   8.243
 6541SOL    HW268463  14.626   1.655   8.336
 6542SOL     OW68464  14.247  13.144   1.345
 6542SOL    HW168465  14.223  13.219   1.406
 6542SOL    HW268466  14.344  13.121   1.357
 6543SOL     OW68467   8.770   0.504   1.681
 6543SOL    HW168468   8.817   0.507   1.769
 6543SOL    HW268469   8.705   0.428   1.680
 6544SOL     OW68470   2.981   1.597   7.679
 6544SOL    HW168471   3.011   1.530   7.747
 6544SOL    HW268472   3.051   1.667   7.668
 6545SOL     OW68473  14.522  15.111   0.125
 6545SOL    HW168474  14.488  15.176   0.194
 6545SOL    HW268475  14.607  15.145   0.086
 6546SOL     OW68476   9.951  10.581   7.968
 6546SOL    HW168477   9.919  10.497   7.923
 6546SOL    HW268478   9.975  10.561   8.063
 6547SOL     OW68479   5.156   0.489   1.258
 6547SOL    HW168480   5.119   0.570   1.303
 6547SOL    HW268481   5.255   0.486   1.271
 6548SOL     OW68482   3.240  16.868   2.131
 6548SOL    HW168483   3.224  16.791   2.194
 6548SOL    HW268484   3.161  16.878   2.070
 6549SOL     OW68485  11.204  16.427   8.207
 6549SOL    HW168486  11.291  16.471   8.187
 6549SOL    HW268487  11.219  16.345   8.262
 6550SOL     OW68488   6.074   6.680   0.377
 6550SOL    HW168489   6.049   6.645   0.467
 6550SOL    HW268490   6.059   6.610   0.308
 6551SOL     OW68491  13.084   8.967   1.798
 6551SOL    HW168492  13.075   9.054   1.750
 6551SOL    HW268493  13.126   8.899   1.737
 6552SOL     OW68494   2.148  16.348   1.734
 6552SOL    HW168495   2.055  16.374   1.709
 6552SOL    HW268496   2.195  16.426   1.775
 6553SOL     OW68497   7.387   9.897   7.450
 6553SOL    HW168498   7.367   9.807   7.490
 6553SOL    HW268499   7.303   9.933   7.408
 6554SOL     OW68500   0.226  15.663   2.143
 6554SOL    HW168501   0.215  15.659   2.043
 6554SOL    HW268502   0.273  15.748   2.168
 6555SOL     OW68503   4.470  16.598   1.489
 6555SOL    HW168504   4.443  16.576   1.582
 6555SOL    HW268505   4.390  16.630   1.437
 6556SOL     OW68506   5.782  16.774   7.682
 6556SOL    HW168507   5.718  16.831   7.733
 6556SOL    HW268508   5.867  16.764   7.734
 6557SOL     OW68509   4.890   9.255   7.045
 6557SOL    HW168510   4.812   9.217   6.994
 6557SOL    HW268511   4.878   9.237   7.142
 6558SOL     OW68512  14.588  12.060   1.628
 6558SOL    HW168513  14.673  12.104   1.598
 6558SOL    HW268514  14.608  11.988   1.694
 6559SOL     OW68515   5.056   5.467   7.690
 6559SOL    HW168516   5.137   5.411   7.709
 6559SOL    HW268517   4.986   5.449   7.759
 6560SOL     OW68518   9.830   0.467   1.949
 6560SOL    HW168519   9.734   0.442   1.951
 6560SOL    HW268520   9.886   0.389   1.978
 6561SOL     OW68521   7.773  13.532   6.756
 6561SOL    HW168522   7.683  13.543   6.798
 6561SOL    HW268523   7.843  13.533   6.826
 6562SOL     OW68524   7.878  11.650   6.824
 6562SOL    HW168525   7.834  11.582   6.765
 6562SOL    HW268526   7.966  11.615   6.856
 6563SOL     OW68527   6.328   4.956   6.563
 6563SOL    HW168528   6.360   5.023   6.631
 6563SOL    HW268529   6.361   4.983   6.473
 6564SOL     OW68530   7.664   9.391   1.830
 6564SOL    HW168531   7.740   9.349   1.880
 6564SOL    HW268532   7.653   9.486   1.858
 6565SOL     OW68533   6.339   0.612   0.921
 6565SOL    HW168534   6.303   0.537   0.866
 6565SOL    HW268535   6.437   0.622   0.902
 6566SOL     OW68536  10.255   4.618   1.126
 6566SOL    HW168537  10.228   4.533   1.080
 6566SOL    HW268538  10.354   4.630   1.117
 6567SOL     OW68539   8.603  13.904   7.236
 6567SOL    HW168540   8.636  13.950   7.154
 6567SOL    HW268541   8.575  13.972   7.304
 6568SOL     OW68542   1.305   4.625   8.073
 6568SOL    HW168543   1.351   4.563   8.136
 6568SOL    HW268544   1.279   4.709   8.121
 6569SOL     OW68545   3.145   4.041   8.443
 6569SOL    HW168546   3.176   4.105   0.060
 6569SOL    HW268547   3.046   4.046   8.434
 6570SOL     OW68548   0.423  13.886   0.222
 6570SOL    HW168549   0.465  13.963   0.173
 6570SOL    HW268550   0.396  13.816   0.156
 6571SOL     OW68551  13.599   5.733   0.649
 6571SOL    HW168552  13.504   5.725   0.618
 6571SOL    HW268553  13.613   5.823   0.690
 6572SOL     OW68554   0.600   6.042   8.175
 6572SOL    HW168555   0.525   6.107   8.161
 6572SOL    HW268556   0.675   6.088   8.223
 6573SOL     OW68557   8.580  13.159   6.294
 6573SOL    HW168558   8.530  13.111   6.366
 6573SOL    HW268559   8.551  13.124   6.205
 6574SOL     OW68560   9.348  16.828   2.285
 6574SOL    HW168561   9.440  16.854   2.255
 6574SOL    HW268562   9.302  16.909   2.322
 6575SOL     OW68563   6.405   2.731   7.635
 6575SOL    HW168564   6.472   2.688   7.695
 6575SOL    HW268565   6.331   2.667   7.617
 6576SOL     OW68566  10.442   4.523   0.855
 6576SOL    HW168567  10.414   4.588   0.784
 6576SOL    HW268568  10.362   4.475   0.890
 6577SOL     OW68569   8.511   3.052   7.093
 6577SOL    HW168570   8.444   3.008   7.153
 6577SOL    HW268571   8.474   3.059   7.001
 6578SOL     OW68572   5.401   0.484   8.422
 6578SOL    HW168573   5.467   0.523   0.033
 6578SOL    HW268574   5.428   0.507   8.329
 6579SOL     OW68575   8.222   4.264   7.586
 6579SOL    HW168576   8.208   4.255   7.487
 6579SOL    HW268577   8.242   4.175   7.625
 6580SOL     OW68578  10.758   4.651   7.761
 6580SOL    HW168579  10.688   4.643   7.833
 6580SOL    HW268580  10.717   4.631   7.672
 6581SOL     OW68581   2.436  12.287   7.500
 6581SOL    HW168582   2.386  12.200   7.496
 6581SOL    HW268583   2.413  12.342   7.420
 6582SOL     OW68584   3.276   6.020   8.306
 6582SOL    HW168585   3.369   6.018   8.269
 6582SOL    HW268586   3.280   5.999   8.404
 6583SOL     OW68587  16.449   3.030   7.112
 6583SOL    HW168588  16.503   3.067   7.036
 6583SOL    HW268589  16.352   3.049   7.096
 6584SOL     OW68590  10.372   1.593   6.266
 6584SOL    HW168591  10.376   1.684   6.308
 6584SOL    HW268592  10.292   1.588   6.206
 6585SOL     OW68593   2.235   1.249   1.702
 6585SOL    HW168594   2.231   1.347   1.682
 6585SOL    HW268595   2.297   1.204   1.637
 6586SOL     OW68596  16.881   8.172   0.847
 6586SOL    HW168597  16.794   8.138   0.884
 6586SOL    HW268598  16.940   8.096   0.824
 6587SOL     OW68599  13.119   3.526   0.216
 6587SOL    HW168600  13.108   3.584   0.296
 6587SOL    HW268601  13.030   3.492   0.186
 6588SOL     OW68602  10.234   8.102   7.085
 6588SOL    HW168603  10.274   8.038   7.150
 6588SOL    HW268604  10.148   8.066   7.051
 6589SOL     OW68605   2.859   7.373   6.718
 6589SOL    HW168606   2.903   7.431   6.650
 6589SOL    HW268607   2.805   7.303   6.673
 6590SOL     OW68608   4.254   5.610   7.799
 6590SOL    HW168609   4.352   5.630   7.792
 6590SOL    HW268610   4.208   5.688   7.841
 6591SOL     OW68611   5.882   6.256   0.412
 6591SOL    HW168612   5.808   6.230   0.475
 6591SOL    HW268613   5.961   6.287   0.465
 6592SOL     OW68614  11.610  14.169   2.059
 6592SOL    HW168615  11.650  14.090   2.105
 6592SOL    HW268616  11.663  14.251   2.081
 6593SOL     OW68617  14.068  15.083   1.669
 6593SOL    HW168618  13.981  15.033   1.667
 6593SOL    HW268619  14.057  15.167   1.722
 6594SOL     OW68620   1.023  16.294   2.360
 6594SOL    HW168621   0.964  16.357   2.410
 6594SOL    HW268622   1.068  16.233   2.425
 6595SOL     OW68623  11.640   2.697   5.809
 6595SOL    HW168624  11.728   2.689   5.761
 6595SOL    HW268625  11.656   2.718   5.905
 6596SOL     OW68626  12.286  15.621   7.486
 6596SOL    HW168627  12.271  15.648   7.581
 6596SOL    HW268628  12.384  15.624   7.466
 6597SOL     OW68629   0.593  13.235   1.086
 6597SOL    HW168630   0.570  13.155   1.031
 6597SOL    HW268631   0.532  13.239   1.166
 6598SOL     OW68632   3.131  10.478   2.163
 6598SOL    HW168633   3.139  10.576   2.143
 6598SOL    HW268634   3.137  10.427   2.077
 6599SOL     OW68635   8.521   0.928   6.194
 6599SOL    HW168636   8.435   0.959   6.154
 6599SOL    HW268637   8.596   0.942   6.129
 6600SOL     OW68638  16.810   7.550   7.414
 6600SOL    HW168639  16.760   7.485   7.357
 6600SOL    HW268640  16.859   7.500   7.486
 6601SOL     OW68641   2.343   6.382   1.205
 6601SOL    HW168642   2.313   6.380   1.109
 6601SOL    HW268643   2.336   6.289   1.243
 6602SOL     OW68644   9.365   4.403   8.099
 6602SOL    HW168645   9.282   4.421   8.152
 6602SOL    HW268646   9.425   4.343   8.152
 6603SOL     OW68647   6.667   9.703   7.348
 6603SOL    HW168648   6.622   9.626   7.394
 6603SOL    HW268649   6.667   9.783   7.409
 6604SOL     OW68650  10.684   9.188   7.934
 6604SOL    HW168651  10.767   9.184   7.879
 6604SOL    HW268652  10.623   9.113   7.908
 6605SOL     OW68653  12.935   2.047   5.832
 6605SOL    HW168654  12.977   1.977   5.774
 6605SOL    HW268655  12.892   2.005   5.911
 6606SOL     OW68656   6.972   4.601   7.624
 6606SOL    HW168657   6.958   4.689   7.669
 6606SOL    HW268658   6.956   4.527   7.690
 6607SOL     OW68659   4.694   9.030   2.202
 6607SOL    HW168660   4.776   9.047   2.256
 6607SOL    HW268661   4.613   9.059   2.253
 6608SOL     OW68662   8.574   6.605   1.170
 6608SOL    HW168663   8.642   6.565   1.109
 6608SOL    HW268664   8.558   6.700   1.144
 6609SOL     OW68665  16.396   7.330   1.131
 6609SOL    HW168666  16.299   7.309   1.147
 6609SOL    HW268667  16.446   7.321   1.217
 6610SOL     OW68668   3.465   1.179   2.212
 6610SOL    HW168669   3.536   1.192   2.143
 6610SOL    HW268670   3.404   1.105   2.184
 6611SOL     OW68671   8.476  12.000   1.587
 6611SOL    HW168672   8.538  11.982   1.663
 6611SOL    HW268673   8.454  12.097   1.584
 6612SOL     OW68674   7.598  13.303   0.768
 6612SOL    HW168675   7.544  13.223   0.797
 6612SOL    HW268676   7.663  13.274   0.697
 6613SOL     OW68677   2.130   1.864   7.848
 6613SOL    HW168678   2.199   1.876   7.920
 6613SOL    HW268679   2.110   1.766   7.838
 6614SOL     OW68680   7.575  12.926   1.035
 6614SOL    HW168681   7.566  12.967   1.126
 6614SOL    HW268682   7.547  12.831   1.038
 6615SOL     OW68683  11.510   8.746   1.414
 6615SOL    HW168684  11.594   8.800   1.422
 6615SOL    HW268685  11.468   8.762   1.325
 6616SOL     OW68686   2.138   6.703   0.040
 6616SOL    HW168687   2.232   6.674   0.054
 6616SOL    HW268688   2.076   6.628   0.061
 6617SOL     OW68689   7.812   4.194   8.231
 6617SOL    HW168690   7.910   4.173   8.238
 6617SOL    HW268691   7.800   4.293   8.234
 6618SOL     OW68692   8.823   4.529   1.456
 6618SOL    HW168693   8.901   4.578   1.495
 6618SOL    HW268694   8.856   4.446   1.411
 6619SOL     OW68695   2.769  15.393   2.077
 6619SOL    HW168696   2.844  15.349   2.026
 6619SOL    HW268697   2.755  15.344   2.163
 6620SOL     OW68698  11.840   0.784   0.519
 6620SOL    HW168699  11.836   0.884   0.528
 6620SOL    HW268700  11.751   0.750   0.488
 6621SOL     OW68701  16.613   9.344   0.432
 6621SOL    HW168702  16.586   9.274   0.366
 6621SOL    HW268703  16.627   9.302   0.522
 6622SOL     OW68704   0.013  13.494   0.780
 6622SOL    HW168705  16.942  13.513   0.862
 6622SOL    HW268706  16.940  13.512   0.699
 6623SOL     OW68707   6.865  11.759   7.492
 6623SOL    HW168708   6.801  11.737   7.566
 6623SOL    HW268709   6.816  11.804   7.418
 6624SOL     OW68710  16.276   4.804   0.354
 6624SOL    HW168711  16.321   4.892   0.335
 6624SOL    HW268712  16.327   4.730   0.312
 6625SOL     OW68713   1.328   6.983   0.907
 6625SOL    HW168714   1.405   6.994   0.844
 6625SOL    HW268715   1.247   7.027   0.869
 6626SOL     OW68716  11.769   7.332   6.947
 6626SOL    HW168717  11.850   7.382   6.974
 6626SOL    HW268718  11.773   7.312   6.849
 6627SOL     OW68719   0.407  15.089   7.722
 6627SOL    HW168720   0.480  15.022   7.709
 6627SOL    HW268721   0.412  15.159   7.651
 6628SOL     OW68722   3.157  14.558   1.563
 6628SOL    HW168723   3.099  14.479   1.581
 6628SOL    HW268724   3.194  14.593   1.650
 6629SOL     OW68725   1.239   1.141   1.264
 6629SOL    HW168726   1.199   1.217   1.212
 6629SOL    HW268727   1.326   1.116   1.223
 6630SOL     OW68728   0.006   2.755   0.557
 6630SOL    HW168729  16.898   2.747   0.516
 6630SOL    HW268730   0.034   2.851   0.558
 6631SOL     OW68731   9.215   0.963   0.169
 6631SOL    HW168732   9.271   0.997   0.093
 6631SOL    HW268733   9.262   0.981   0.256
 6632SOL     OW68734  11.383   4.644   0.305
 6632SOL    HW168735  11.362   4.709   0.232
 6632SOL    HW268736  11.474   4.605   0.290
 6633SOL     OW68737   7.833   0.554   7.082
 6633SOL    HW168738   7.812   0.564   6.985
 6633SOL    HW268739   7.755   0.514   7.130
 6634SOL     OW68740   4.753   7.558   7.009
 6634SOL    HW168741   4.802   7.539   6.924
 6634SOL    HW268742   4.752   7.475   7.065
 6635SOL     OW68743   5.704   8.431   8.352
 6635SOL    HW168744   5.632   8.441   8.282
 6635SOL    HW268745   5.793   8.453   8.312
 6636SOL     OW68746   6.360   7.533   7.296
 6636SOL    HW168747   6.459   7.533   7.312
 6636SOL    HW268748   6.341   7.571   7.206
 6637SOL     OW68749  10.790  14.072   8.363
 6637SOL    HW168750  10.763  14.163   8.333
 6637SOL    HW268751  10.890  14.066   8.365
 6638SOL     OW68752  15.092   0.831   6.429
 6638SOL    HW168753  15.045   0.914   6.400
 6638SOL    HW268754  15.165   0.810   6.364
 6639SOL     OW68755  13.579   1.428   7.856
 6639SOL    HW168756  13.657   1.421   7.794
 6639SOL    HW268757  13.503   1.372   7.821
 6640SOL     OW68758   1.959  10.386   1.311
 6640SOL    HW168759   1.981  10.478   1.345
 6640SOL    HW268760   1.977  10.381   1.213
 6641SOL     OW68761   6.858   7.204   1.794
 6641SOL    HW168762   6.775   7.221   1.742
 6641SOL    HW268763   6.877   7.282   1.854
 6642SOL     OW68764   1.433   8.538   1.228
 6642SOL    HW168765   1.396   8.631   1.229
 6642SOL    HW268766   1.439   8.503   1.321
 6643SOL     OW68767  11.136   0.284   0.831
 6643SOL    HW168768  11.133   0.289   0.931
 6643SOL    HW268769  11.047   0.253   0.797
 6644SOL     OW68770  12.732  11.168   1.096
 6644SOL    HW168771  12.637  11.147   1.118
 6644SOL    HW268772  12.738  11.259   1.056
 6645SOL     OW68773  15.429   9.417   1.952
 6645SOL    HW168774  15.356   9.418   2.020
 6645SOL    HW268775  15.505   9.474   1.985
 6646SOL     OW68776  15.448  16.738   0.377
 6646SOL    HW168777  15.484  16.770   0.465
 6646SOL    HW268778  15.520  16.745   0.307
 6647SOL     OW68779  13.765  10.229   1.947
 6647SOL    HW168780  13.693  10.235   1.878
 6647SOL    HW268781  13.751  10.147   2.002
 6648SOL     OW68782   1.195  13.993   0.406
 6648SOL    HW168783   1.202  14.092   0.393
 6648SOL    HW268784   1.246  13.947   0.333
 6649SOL     OW68785   7.311   5.110   0.363
 6649SOL    HW168786   7.237   5.175   0.385
 6649SOL    HW268787   7.399   5.154   0.380
 6650SOL     OW68788   7.616   8.017   1.986
 6650SOL    HW168789   7.575   7.953   2.051
 6650SOL    HW268790   7.592   8.110   2.012
 6651SOL     OW68791  14.443  11.419   0.309
 6651SOL    HW168792  14.451  11.451   0.215
 6651SOL    HW268793  14.418  11.322   0.309
 6652SOL     OW68794  11.025   5.328   6.401
 6652SOL    HW168795  11.044   5.276   6.484
 6652SOL    HW268796  11.031   5.426   6.420
 6653SOL     OW68797   9.668   6.382   0.828
 6653SOL    HW168798   9.728   6.461   0.839
 6653SOL    HW268799   9.665   6.355   0.732
 6654SOL     OW68800  13.225  10.041   1.530
 6654SOL    HW168801  13.308  10.021   1.478
 6654SOL    HW268802  13.157  10.081   1.469
 6655SOL     OW68803   7.258   6.152   1.730
 6655SOL    HW168804   7.334   6.108   1.684
 6655SOL    HW268805   7.182   6.087   1.738
 6656SOL     OW68806   6.532   8.225   7.753
 6656SOL    HW168807   6.560   8.257   7.844
 6656SOL    HW268808   6.477   8.295   7.708
 6657SOL     OW68809   5.067  16.875   7.002
 6657SOL    HW168810   5.065  16.916   7.093
 6657SOL    HW268811   4.997  16.804   6.995
 6658SOL     OW68812  15.375  10.410   0.106
 6658SOL    HW168813  15.406  10.350   0.180
 6658SOL    HW268814  15.413  10.501   0.120
 6659SOL     OW68815   6.411   9.591   7.889
 6659SOL    HW168816   6.368   9.638   7.966
 6659SOL    HW268817   6.506   9.621   7.881
 6660SOL     OW68818   8.795   8.043   0.507
 6660SOL    HW168819   8.819   8.100   0.429
 6660SOL    HW268820   8.877   8.002   0.546
 6661SOL     OW68821   8.018  11.313   8.134
 6661SOL    HW168822   8.092  11.333   8.198
 6661SOL    HW268823   7.930  11.336   8.176
 6662SOL     OW68824   0.065  14.085   0.998
 6662SOL    HW168825   0.091  13.995   0.964
 6662SOL    HW268826  16.949  14.089   1.010
 6663SOL     OW68827   7.358   6.021   7.743
 6663SOL    HW168828   7.380   5.933   7.784
 6663SOL    HW268829   7.310   6.078   7.809
 6664SOL     OW68830   7.369   0.481   0.145
 6664SOL    HW168831   7.422   0.412   0.195
 6664SOL    HW268832   7.289   0.437   0.103
 6665SOL     OW68833  10.977   2.533   7.506
 6665SOL    HW168834  10.915   2.563   7.578
 6665SOL    HW268835  11.071   2.552   7.533
 6666SOL     OW68836   4.436  11.421   7.122
 6666SOL    HW168837   4.518  11.460   7.164
 6666SOL    HW268838   4.382  11.375   7.192
 6667SOL     OW68839   9.200  15.854   6.125
 6667SOL    HW168840   9.233  15.948   6.133
 6667SOL    HW268841   9.137  15.847   6.048
 6668SOL     OW68842   7.250  10.754   1.155
 6668SOL    HW168843   7.152  10.767   1.171
 6668SOL    HW268844   7.265  10.668   1.107
 6669SOL     OW68845  12.961   0.910   7.243
 6669SOL    HW168846  12.964   0.862   7.156
 6669SOL    HW268847  12.971   0.844   7.318
 6670SOL     OW68848  12.393  16.590   7.920
 6670SOL    HW168849  12.391  16.500   7.963
 6670SOL    HW268850  12.313  16.642   7.949
 6671SOL     OW68851  12.371   0.683   1.274
 6671SOL    HW168852  12.347   0.730   1.189
 6671SOL    HW268853  12.468   0.698   1.294
 6672SOL     OW68854   7.316   9.325   1.301
 6672SOL    HW168855   7.391   9.374   1.345
 6672SOL    HW268856   7.325   9.334   1.201
 6673SOL     OW68857   4.959  12.269   2.435
 6673SOL    HW168858   4.885  12.305   2.491
 6673SOL    HW268859   5.008  12.198   2.485
 6674SOL     OW68860   8.888   7.263   7.197
 6674SOL    HW168861   8.903   7.253   7.098
 6674SOL    HW268862   8.889   7.173   7.239
 6675SOL     OW68863  13.802  12.102   7.434
 6675SOL    HW168864  13.871  12.087   7.363
 6675SOL    HW268865  13.714  12.070   7.402
 6676SOL     OW68866  10.785   7.771   7.571
 6676SOL    HW168867  10.824   7.679   7.569
 6676SOL    HW268868  10.727   7.781   7.651
 6677SOL     OW68869   9.727  13.975   8.202
 6677SOL    HW168870   9.640  14.007   8.165
 6677SOL    HW268871   9.801  14.035   8.171
 6678SOL     OW68872  15.944   4.930   1.123
 6678SOL    HW168873  15.865   4.898   1.071
 6678SOL    HW268874  15.967   4.863   1.194
 6679SOL     OW68875   4.747  14.899   7.652
 6679SOL    HW168876   4.787  14.863   7.737
 6679SOL    HW268877   4.760  14.832   7.579
 6680SOL     OW68878   2.793   1.199   7.867
 6680SOL    HW168879   2.777   1.130   7.938
 6680SOL    HW268880   2.722   1.270   7.873
 6681SOL     OW68881   9.932   8.839   8.404
 6681SOL    HW168882   9.958   8.835   8.308
 6681SOL    HW268883   9.901   8.748   8.433
 6682SOL     OW68884  10.883  16.815   6.047
 6682SOL    HW168885  10.861  16.753   5.972
 6682SOL    HW268886  10.813  16.885   6.054
 6683SOL     OW68887  11.087   1.900   7.925
 6683SOL    HW168888  11.175   1.948   7.918
 6683SOL    HW268889  11.023   1.956   7.977
 6684SOL     OW68890  14.283  12.225   7.325
 6684SOL    HW168891  14.243  12.199   7.237
 6684SOL    HW268892  14.239  12.308   7.359
 6685SOL     OW68893  14.579   9.550   7.718
 6685SOL    HW168894  14.521   9.597   7.784
 6685SOL    HW268895  14.665   9.599   7.708
 6686SOL     OW68896   1.692   5.697   7.841
 6686SOL    HW168897   1.724   5.747   7.922
 6686SOL    HW268898   1.734   5.738   7.759
 6687SOL     OW68899  13.884  13.761   1.552
 6687SOL    HW168900  13.822  13.787   1.626
 6687SOL    HW268901  13.968  13.722   1.591
 6688SOL     OW68902   4.402   6.377   1.369
 6688SOL    HW168903   4.402   6.294   1.425
 6688SOL    HW268904   4.478   6.372   1.304
 6689SOL     OW68905   8.561   9.826   1.548
 6689SOL    HW168906   8.615   9.742   1.537
 6689SOL    HW268907   8.505   9.818   1.630
 6690SOL     OW68908  10.075  15.940   0.012
 6690SOL    HW168909  10.153  15.908   8.412
 6690SOL    HW268910  10.107  15.972   0.101
 6691SOL     OW68911  12.758   0.696   5.936
 6691SOL    HW168912  12.661   0.672   5.934
 6691SOL    HW268913  12.769   0.788   5.975
 6692SOL     OW68914   4.841   6.339   7.982
 6692SOL    HW168915   4.786   6.257   7.999
 6692SOL    HW268916   4.898   6.358   8.062
 6693SOL     OW68917   0.043  15.532   6.901
 6693SOL    HW168918   0.114  15.601   6.887
 6693SOL    HW268919  16.936  15.576   6.900
 6694SOL     OW68920   4.961   2.862   7.964
 6694SOL    HW168921   5.011   2.865   7.877
 6694SOL    HW268922   4.991   2.937   8.022
 6695SOL     OW68923   3.719   6.583   7.838
 6695SOL    HW168924   3.760   6.673   7.857
 6695SOL    HW268925   3.768   6.539   7.763
 6696SOL     OW68926  14.601  12.877   1.528
 6696SOL    HW168927  14.621  12.883   1.626
 6696SOL    HW268928  14.632  12.789   1.492
 6697SOL     OW68929  12.073  14.924   1.054
 6697SOL    HW168930  12.130  14.944   1.133
 6697SOL    HW268931  11.979  14.908   1.083
 6698SOL     OW68932   0.022   7.685   1.647
 6698SOL    HW168933   0.091   7.627   1.692
 6698SOL    HW268934  16.942   7.721   1.715
 6699SOL     OW68935   1.856   7.152   7.555
 6699SOL    HW168936   1.917   7.207   7.613
 6699SOL    HW268937   1.771   7.201   7.540
 6700SOL     OW68938   5.960   4.988   8.066
 6700SOL    HW168939   5.968   4.993   8.165
 6700SOL    HW268940   6.037   5.034   8.023
 6701SOL     OW68941   4.475   5.165   0.049
 6701SOL    HW168942   4.415   5.092   0.016
 6701SOL    HW268943   4.452   5.250   0.002
 6702SOL     OW68944  15.576  11.548   8.336
 6702SOL    HW168945  15.639  11.536   8.412
 6702SOL    HW268946  15.490  11.588   8.369
 6703SOL     OW68947  16.920   5.019   7.169
 6703SOL    HW168948   0.025   5.065   7.181
 6703SOL    HW268949  16.916   4.979   7.077
 6704SOL     OW68950   0.322  15.441   2.270
 6704SOL    HW168951   0.282  15.524   2.232
 6704SOL    HW268952   0.272  15.414   2.352
 6705SOL     OW68953   4.464   0.815   7.971
 6705SOL    HW168954   4.430   0.731   7.929
 6705SOL    HW268955   4.519   0.866   7.905
 6706SOL     OW68956  14.670  15.713   7.209
 6706SOL    HW168957  14.685  15.790   7.147
 6706SOL    HW268958  14.584  15.667   7.184
 6707SOL     OW68959   2.463  13.086   8.225
 6707SOL    HW168960   2.376  13.120   8.190
 6707SOL    HW268961   2.510  13.158   8.276
 6708SOL     OW68962  11.490  10.121   7.095
 6708SOL    HW168963  11.398  10.113   7.055
 6708SOL    HW268964  11.508  10.217   7.117
 6709SOL     OW68965  11.637  16.112   1.222
 6709SOL    HW168966  11.723  16.081   1.181
 6709SOL    HW268967  11.629  16.211   1.213
 6710SOL     OW68968  11.304   5.666   6.719
 6710SOL    HW168969  11.290   5.706   6.810
 6710SOL    HW268970  11.273   5.731   6.650
 6711SOL     OW68971   8.075  13.976   7.520
 6711SOL    HW168972   7.993  14.019   7.558
 6711SOL    HW268973   8.140  14.046   7.493
 6712SOL     OW68974   8.138  13.232   6.043
 6712SOL    HW168975   8.040  13.229   6.022
 6712SOL    HW268976   8.181  13.147   6.012
 6713SOL     OW68977  11.404   0.826   1.250
 6713SOL    HW168978  11.315   0.831   1.204
 6713SOL    HW268979  11.413   0.737   1.294
 6714SOL     OW68980   7.424   8.933   7.263
 6714SOL    HW168981   7.431   8.834   7.260
 6714SOL    HW268982   7.338   8.960   7.307
 6715SOL     OW68983  12.824   8.929   6.550
 6715SOL    HW168984  12.823   8.848   6.492
 6715SOL    HW268985  12.761   8.916   6.627
 6716SOL     OW68986   3.589   2.933   7.815
 6716SOL    HW168987   3.495   2.898   7.809
 6716SOL    HW268988   3.587   3.033   7.818
 6717SOL     OW68989   3.613   9.615   7.363
 6717SOL    HW168990   3.586   9.708   7.388
 6717SOL    HW268991   3.558   9.583   7.287
 6718SOL     OW68992  11.933  11.005   1.689
 6718SOL    HW168993  11.911  10.908   1.701
 6718SOL    HW268994  12.031  11.019   1.702
 6719SOL     OW68995  10.004  13.321   6.950
 6719SOL    HW168996  10.091  13.352   6.910
 6719SOL    HW268997   9.930  13.340   6.886
 6720SOL     OW68998   2.567  13.710   1.988
 6720SOL    HW168999   2.494  13.647   1.963
 6720SOL    HW269000   2.596  13.692   2.082
 6721SOL     OW69001  12.045   1.877   6.610
 6721SOL    HW169002  11.981   1.942   6.568
 6721SOL    HW269003  12.047   1.892   6.709
 6722SOL     OW69004   2.363   1.663   6.497
 6722SOL    HW169005   2.437   1.634   6.436
 6722SOL    HW269006   2.323   1.748   6.463
 6723SOL     OW69007   2.571  15.712   1.211
 6723SOL    HW169008   2.558  15.710   1.310
 6723SOL    HW269009   2.662  15.676   1.189
 6724SOL     OW69010  14.489  15.868   0.506
 6724SOL    HW169011  14.577  15.827   0.481
 6724SOL    HW269012  14.460  15.932   0.435
 6725SOL     OW69013  10.983   3.124   7.965
 6725SOL    HW169014  11.056   3.118   7.896
 6725SOL    HW269015  10.910   3.060   7.941
 6726SOL     OW69016   7.425   1.356   6.825
 6726SOL    HW169017   7.365   1.418   6.875
 6726SOL    HW269018   7.440   1.273   6.879
 6727SOL     OW69019   5.560  10.287   1.179
 6727SOL    HW169020   5.502  10.206   1.170
 6727SOL    HW269021   5.561  10.317   1.274
 6728SOL     OW69022   1.170   1.327   1.065
 6728SOL    HW169023   1.200   1.277   0.984
 6728SOL    HW269024   1.215   1.416   1.068
 6729SOL     OW69025   6.823   8.189   2.001
 6729SOL    HW169026   6.908   8.211   2.048
 6729SOL    HW269027   6.781   8.273   1.966
 6730SOL     OW69028   7.161   7.488   7.655
 6730SOL    HW169029   7.199   7.565   7.705
 6730SOL    HW269030   7.146   7.411   7.717
 6731SOL     OW69031   4.664  13.563   7.197
 6731SOL    HW169032   4.616  13.647   7.171
 6731SOL    HW269033   4.761  13.581   7.206
 6732SOL     OW69034  15.396  10.941   0.445
 6732SOL    HW169035  15.359  11.008   0.382
 6732SOL    HW269036  15.484  10.907   0.411
 6733SOL     OW69037   1.548  12.223   7.444
 6733SOL    HW169038   1.595  12.228   7.532
 6733SOL    HW269039   1.449  12.228   7.458
 6734SOL     OW69040  12.430   5.930   7.367
 6734SOL    HW169041  12.402   5.877   7.286
 6734SOL    HW269042  12.492   5.874   7.423
 6735SOL     OW69043   3.650  16.961   7.262
 6735SOL    HW169044   3.561  16.977   7.219
 6735SOL    HW269045   3.718  16.941   7.192
 6736SOL     OW69046   8.255  13.606   8.163
 6736SOL    HW169047   8.339  13.551   8.165
 6736SOL    HW269048   8.280  13.702   8.150
 6737SOL     OW69049   0.671  12.176   7.660
 6737SOL    HW169050   0.765  12.200   7.637
 6737SOL    HW269051   0.651  12.084   7.628
 6738SOL     OW69052  10.828  12.138   0.499
 6738SOL    HW169053  10.813  12.116   0.402
 6738SOL    HW269054  10.873  12.061   0.544
 6739SOL     OW69055   9.664   0.744   7.529
 6739SOL    HW169056   9.662   0.755   7.629
 6739SOL    HW269057   9.727   0.670   7.505
 6740SOL     OW69058   6.954   2.733   6.708
 6740SOL    HW169059   6.891   2.688   6.646
 6740SOL    HW269060   7.022   2.785   6.656
 6741SOL     OW69061   9.145  13.871   1.897
 6741SOL    HW169062   9.184  13.949   1.849
 6741SOL    HW269063   9.124  13.897   1.992
 6742SOL     OW69064   5.919   3.994   7.640
 6742SOL    HW169065   5.895   4.050   7.561
 6742SOL    HW269066   5.916   4.050   7.723
 6743SOL     OW69067  15.883   4.823   0.740
 6743SOL    HW169068  15.822   4.829   0.818
 6743SOL    HW269069  15.977   4.846   0.768
 6744SOL     OW69070  10.396  10.580   1.361
 6744SOL    HW169071  10.362  10.551   1.271
 6744SOL    HW269072  10.457  10.658   1.350
 6745SOL     OW69073   3.926  14.165   7.620
 6745SOL    HW169074   3.838  14.200   7.587
 6745SOL    HW269075   3.917  14.137   7.716
 6746SOL     OW69076   0.243   0.205   1.581
 6746SOL    HW169077   0.225   0.248   1.670
 6746SOL    HW269078   0.341   0.190   1.570
 6747SOL     OW69079   6.056   4.689   0.380
 6747SOL    HW169080   6.084   4.601   0.340
 6747SOL    HW269081   6.095   4.764   0.327
 6748SOL     OW69082   8.871   1.521   6.948
 6748SOL    HW169083   8.889   1.535   7.045
 6748SOL    HW269084   8.783   1.475   6.937
 6749SOL     OW69085   1.600   0.616   6.770
 6749SOL    HW169086   1.686   0.623   6.821
 6749SOL    HW269087   1.612   0.656   6.679
 6750SOL     OW69088  10.479   8.104   0.551
 6750SOL    HW169089  10.502   8.030   0.615
 6750SOL    HW269090  10.548   8.176   0.557
 6751SOL     OW69091   0.662  13.041   0.654
 6751SOL    HW169092   0.722  12.970   0.692
 6751SOL    HW269093   0.566  13.015   0.668
 6752SOL     OW69094   2.386   7.026   0.325
 6752SOL    HW169095   2.439   7.107   0.348
 6752SOL    HW269096   2.427   6.982   0.245
 6753SOL     OW69097   1.915  10.254   0.262
 6753SOL    HW169098   1.975  10.274   0.339
 6753SOL    HW269099   1.932  10.161   0.229
 6754SOL     OW69100  10.319   2.488   1.499
 6754SOL    HW169101  10.314   2.468   1.401
 6754SOL    HW269102  10.403   2.449   1.536
 6755SOL     OW69103  11.317  10.965   6.932
 6755SOL    HW169104  11.361  10.972   6.843
 6755SOL    HW269105  11.219  10.984   6.922
 6756SOL     OW69106  11.156  14.949   7.406
 6756SOL    HW169107  11.127  15.043   7.423
 6756SOL    HW269108  11.196  14.911   7.489
 6757SOL     OW69109  13.822   8.154   7.692
 6757SOL    HW169110  13.785   8.244   7.712
 6757SOL    HW269111  13.853   8.151   7.597
 6758SOL     OW69112   5.642  13.534   2.526
 6758SOL    HW169113   5.737  13.504   2.521
 6758SOL    HW269114   5.593  13.479   2.594
 6759SOL     OW69115  11.938   1.406   8.041
 6759SOL    HW169116  11.890   1.319   8.032
 6759SOL    HW269117  11.962   1.421   8.137
 6760SOL     OW69118  16.118  13.067   2.217
 6760SOL    HW169119  16.073  13.000   2.277
 6760SOL    HW269120  16.050  13.130   2.180
 6761SOL     OW69121   3.328  14.864   0.258
 6761SOL    HW169122   3.355  14.890   0.165
 6761SOL    HW269123   3.283  14.775   0.256
 6762SOL     OW69124   0.706   5.038   7.246
 6762SOL    HW169125   0.750   5.011   7.332
 6762SOL    HW269126   0.706   5.137   7.238
 6763SOL     OW69127  10.343  11.996   7.078
 6763SOL    HW169128  10.401  12.078   7.070
 6763SOL    HW269129  10.264  12.005   7.017
 6764SOL     OW69130  14.683  15.117   1.651
 6764SOL    HW169131  14.638  15.098   1.564
 6764SOL    HW269132  14.624  15.087   1.726
 6765SOL     OW69133   8.882   6.859   7.757
 6765SOL    HW169134   8.831   6.869   7.672
 6765SOL    HW269135   8.859   6.934   7.819
 6766SOL     OW69136   2.188   0.132   7.010
 6766SOL    HW169137   2.172   0.035   7.025
 6766SOL    HW269138   2.132   0.164   6.933
 6767SOL     OW69139   9.732  13.326   8.312
 6767SOL    HW169140   9.746  13.371   8.224
 6767SOL    HW269141   9.640  13.346   8.346
 6768SOL     OW69142   0.407   7.882   7.017
 6768SOL    HW169143   0.420   7.970   6.972
 6768SOL    HW269144   0.417   7.893   7.115
 6769SOL     OW69145  13.222   1.105   0.211
 6769SOL    HW169146  13.298   1.133   0.271
 6769SOL    HW269147  13.168   1.186   0.188
 6770SOL     OW69148   0.039   0.235   0.841
 6770SOL    HW169149  16.968   0.319   0.828
 6770SOL    HW269150   0.049   0.217   0.938
 6771SOL     OW69151   2.143  13.381   2.050
 6771SOL    HW169152   2.059  13.374   2.104
 6771SOL    HW269153   2.157  13.476   2.022
 6772SOL     OW69154  13.599  11.994   1.918
 6772SOL    HW169155  13.611  11.948   2.006
 6772SOL    HW269156  13.613  11.929   1.843
 6773SOL     OW69157   7.709   5.848   7.923
 6773SOL    HW169158   7.747   5.856   8.015
 6773SOL    HW269159   7.752   5.771   7.875
 6774SOL     OW69160  11.014  14.865   7.697
 6774SOL    HW169161  10.990  14.940   7.759
 6774SOL    HW269162  11.071  14.799   7.744
 6775SOL     OW69163  10.756   2.915   6.610
 6775SOL    HW169164  10.761   2.921   6.510
 6775SOL    HW269165  10.668   2.874   6.636
 6776SOL     OW69166   9.286   0.792   8.128
 6776SOL    HW169167   9.288   0.762   8.223
 6776SOL    HW269168   9.286   0.712   8.068
 6777SOL     OW69169   9.029   3.367   7.070
 6777SOL    HW169170   9.012   3.269   7.059
 6777SOL    HW269171   9.026   3.411   6.981
 6778SOL     OW69172   7.733   2.115   1.669
 6778SOL    HW169173   7.659   2.058   1.705
 6778SOL    HW269174   7.773   2.168   1.744
 6779SOL     OW69175   0.731  15.870   6.921
 6779SOL    HW169176   0.743  15.798   6.853
 6779SOL    HW269177   0.812  15.876   6.979
 6780SOL     OW69178  16.931   5.729   6.102
 6780SOL    HW169179  16.879   5.726   6.016
 6780SOL    HW269180   0.026   5.790   6.092
 6781SOL     OW69181   1.364   0.295   1.015
 6781SOL    HW169182   1.311   0.376   1.039
 6781SOL    HW269183   1.374   0.237   1.096
 6782SOL     OW69184  16.323   7.842   0.801
 6782SOL    HW169185  16.267   7.867   0.722
 6782SOL    HW269186  16.299   7.750   0.832
 6783SOL     OW69187  10.713   1.294   7.902
 6783SOL    HW169188  10.756   1.384   7.910
 6783SOL    HW269189  10.618   1.300   7.931
 6784SOL     OW69190  14.358   8.825   1.006
 6784SOL    HW169191  14.263   8.855   1.000
 6784SOL    HW269192  14.367   8.758   1.080
 6785SOL     OW69193   3.620   5.640   0.879
 6785SOL    HW169194   3.671   5.574   0.824
 6785SOL    HW269195   3.525   5.643   0.848
 6786SOL     OW69196   2.065  16.518   1.069
 6786SOL    HW169197   2.017  16.471   0.995
 6786SOL    HW269198   2.016  16.603   1.091
 6787SOL     OW69199  15.816  13.631   7.839
 6787SOL    HW169200  15.852  13.624   7.932
 6787SOL    HW269201  15.892  13.643   7.775
 6788SOL     OW69202   4.095   1.270   7.239
 6788SOL    HW169203   4.144   1.207   7.178
 6788SOL    HW269204   4.130   1.363   7.227
 6789SOL     OW69205  15.693   4.024   0.424
 6789SOL    HW169206  15.674   4.053   0.330
 6789SOL    HW269207  15.735   3.934   0.423
 6790SOL     OW69208   0.510   1.299   6.528
 6790SOL    HW169209   0.608   1.315   6.533
 6790SOL    HW269210   0.491   1.223   6.465
 6791SOL     OW69211   4.827   5.247   0.336
 6791SOL    HW169212   4.788   5.155   0.336
 6791SOL    HW269213   4.877   5.262   0.421
 6792SOL     OW69214   3.587   6.814   0.311
 6792SOL    HW169215   3.632   6.815   0.222
 6792SOL    HW269216   3.542   6.726   0.324
 6793SOL     OW69217   9.152  10.890   7.942
 6793SOL    HW169218   9.206  10.812   7.912
 6793SOL    HW269219   9.124  10.943   7.861
 6794SOL     OW69220   1.284   6.671   8.110
 6794SOL    HW169221   1.282   6.758   8.059
 6794SOL    HW269222   1.289   6.691   8.208
 6795SOL     OW69223   6.244   8.303   1.574
 6795SOL    HW169224   6.249   8.259   1.663
 6795SOL    HW269225   6.298   8.251   1.508
 6796SOL     OW69226  15.622   7.138   0.385
 6796SOL    HW169227  15.545   7.076   0.373
 6796SOL    HW269228  15.630   7.165   0.481
 6797SOL     OW69229  10.472   2.335   0.789
 6797SOL    HW169230  10.479   2.269   0.714
 6797SOL    HW269231  10.401   2.402   0.768
 6798SOL     OW69232  14.002  11.942   2.327
 6798SOL    HW169233  14.009  11.934   2.427
 6798SOL    HW269234  13.921  11.997   2.304
 6799SOL     OW69235   9.277   6.413   7.983
 6799SOL    HW169236   9.312   6.385   8.072
 6799SOL    HW269237   9.295   6.341   7.916
 6800SOL     OW69238   2.086  11.345   7.108
 6800SOL    HW169239   1.998  11.325   7.152
 6800SOL    HW269240   2.082  11.319   7.011
 6801SOL     OW69241  16.394  13.806   7.961
 6801SOL    HW169242  16.413  13.708   7.965
 6801SOL    HW269243  16.377  13.840   8.054
 6802SOL     OW69244   4.003  14.369   7.415
 6802SOL    HW169245   3.966  14.460   7.435
 6802SOL    HW269246   3.992  14.310   7.496
 6803SOL     OW69247   4.901   4.991   6.659
 6803SOL    HW169248   4.816   4.988   6.711
 6803SOL    HW269249   4.886   5.035   6.571
 6804SOL     OW69250   5.758   5.150   0.649
 6804SOL    HW169251   5.830   5.083   0.635
 6804SOL    HW269252   5.726   5.183   0.560
 6805SOL     OW69253   3.287   5.887   7.559
 6805SOL    HW169254   3.315   5.800   7.518
 6805SOL    HW269255   3.193   5.880   7.593
 6806SOL     OW69256   4.167  14.249   0.052
 6806SOL    HW169257   4.246  14.216   0.104
 6806SOL    HW269258   4.117  14.317   0.106
 6807SOL     OW69259   8.314  15.578   7.322
 6807SOL    HW169260   8.404  15.619   7.308
 6807SOL    HW269261   8.246  15.651   7.332
 6808SOL     OW69262  10.414  12.011   6.730
 6808SOL    HW169263  10.417  12.109   6.746
 6808SOL    HW269264  10.334  11.989   6.673
 6809SOL     OW69265  16.795   8.415   6.839
 6809SOL    HW169266  16.864   8.476   6.878
 6809SOL    HW269267  16.821   8.389   6.746
 6810SOL     OW69268  11.188   9.253   1.207
 6810SOL    HW169269  11.110   9.312   1.224
 6810SOL    HW269270  11.217   9.208   1.292
 6811SOL     OW69271   1.809   9.522   1.261
 6811SOL    HW169272   1.793   9.491   1.354
 6811SOL    HW269273   1.781   9.451   1.196
 6812SOL     OW69274   6.411   6.281   7.870
 6812SOL    HW169275   6.470   6.313   7.944
 6812SOL    HW269276   6.428   6.337   7.788
 6813SOL     OW69277  14.257  10.515   0.022
 6813SOL    HW169278  14.223  10.421   0.034
 6813SOL    HW269279  14.181  10.575   8.450
 6814SOL     OW69280   7.932  10.538   1.666
 6814SOL    HW169281   7.981  10.459   1.629
 6814SOL    HW269282   7.997  10.610   1.689
 6815SOL     OW69283  15.614  10.019   0.842
 6815SOL    HW169284  15.628   9.977   0.932
 6815SOL    HW269285  15.593   9.948   0.775
 6816SOL     OW69286  12.061  15.824   0.672
 6816SOL    HW169287  12.146  15.830   0.621
 6816SOL    HW269288  11.984  15.843   0.611
 6817SOL     OW69289  14.013  14.002   6.795
 6817SOL    HW169290  13.941  13.968   6.734
 6817SOL    HW269291  14.003  14.101   6.806
 6818SOL     OW69292  11.982  14.323   0.260
 6818SOL    HW169293  11.906  14.291   0.316
 6818SOL    HW269294  12.068  14.283   0.294
 6819SOL     OW69295  12.121   8.498   7.944
 6819SOL    HW169296  12.029   8.462   7.964
 6819SOL    HW269297  12.119   8.597   7.946
 6820SOL     OW69298  11.954   9.227   7.988
 6820SOL    HW169299  11.996   9.244   7.899
 6820SOL    HW269300  11.922   9.313   8.027
 6821SOL     OW69301  14.020   8.769   6.167
 6821SOL    HW169302  13.971   8.747   6.083
 6821SOL    HW269303  14.119   8.770   6.148
 6822SOL     OW69304   1.643  13.658   8.194
 6822SOL    HW169305   1.709  13.684   8.123
 6822SOL    HW269306   1.585  13.584   8.159
 6823SOL     OW69307  10.767  14.723   6.922
 6823SOL    HW169308  10.826  14.800   6.899
 6823SOL    HW269309  10.787  14.646   6.862
 6824SOL     OW69310   3.529  12.837   0.862
 6824SOL    HW169311   3.607  12.868   0.916
 6824SOL    HW269312   3.463  12.791   0.921
 6825SOL     OW69313  14.046  15.308   1.820
 6825SOL    HW169314  14.092  15.397   1.824
 6825SOL    HW269315  13.959  15.313   1.870
 6826SOL     OW69316  12.284   4.148   7.024
 6826SOL    HW169317  12.205   4.209   7.018
 6826SOL    HW269318  12.359   4.196   7.070
 6827SOL     OW69319   2.348   2.448   0.291
 6827SOL    HW169320   2.435   2.453   0.243
 6827SOL    HW269321   2.340   2.525   0.354
 6828SOL     OW69322   6.257   5.336   8.375
 6828SOL    HW169323   6.319   5.257   8.385
 6828SOL    HW269324   6.166   5.304   8.350
 6829SOL     OW69325  16.029  12.525   7.808
 6829SOL    HW169326  16.014  12.618   7.843
 6829SOL    HW269327  15.944  12.491   7.767
 6830SOL     OW69328   4.761   4.076   6.515
 6830SOL    HW169329   4.829   4.146   6.493
 6830SOL    HW269330   4.806   3.997   6.555
 6831SOL     OW69331  14.784  14.999   0.366
 6831SOL    HW169332  14.708  14.948   0.327
 6831SOL    HW269333  14.764  15.097   0.363
 6832SOL     OW69334   9.459   2.046   8.021
 6832SOL    HW169335   9.503   2.115   8.079
 6832SOL    HW269336   9.401   1.988   8.078
 6833SOL     OW69337   1.651   4.276   7.144
 6833SOL    HW169338   1.687   4.190   7.108
 6833SOL    HW269339   1.556   4.287   7.118
 6834SOL     OW69340   2.755   0.782   1.695
 6834SOL    HW169341   2.778   0.725   1.775
 6834SOL    HW269342   2.663   0.819   1.706
 6835SOL     OW69343   5.698   2.516   8.225
 6835SOL    HW169344   5.741   2.461   8.153
 6835SOL    HW269345   5.692   2.611   8.195
 6836SOL     OW69346   9.224  11.731   2.106
 6836SOL    HW169347   9.284  11.809   2.125
 6836SOL    HW269348   9.255  11.652   2.158
 6837SOL     OW69349  15.770  11.898   1.682
 6837SOL    HW169350  15.712  11.907   1.763
 6837SOL    HW269351  15.712  11.881   1.602
 6838SOL     OW69352   2.180   1.113   0.993
 6838SOL    HW169353   2.197   1.209   1.019
 6838SOL    HW269354   2.240   1.053   1.046
 6839SOL     OW69355   6.916  10.458   6.749
 6839SOL    HW169356   6.998  10.443   6.693
 6839SOL    HW269357   6.943  10.461   6.846
 6840SOL     OW69358   5.087   8.988   1.566
 6840SOL    HW169359   5.164   8.959   1.510
 6840SOL    HW269360   5.061   8.913   1.628
 6841SOL     OW69361  16.918  15.773   0.974
 6841SOL    HW169362  16.874  15.766   0.884
 6841SOL    HW269363   0.010  15.838   0.969
 6842SOL     OW69364   1.298   1.549   7.215
 6842SOL    HW169365   1.286   1.600   7.300
 6842SOL    HW269366   1.376   1.586   7.164
 6843SOL     OW69367  10.567  16.196   0.793
 6843SOL    HW169368  10.548  16.294   0.788
 6843SOL    HW269369  10.597  16.172   0.885
 6844SOL     OW69370  12.748  16.188   0.511
 6844SOL    HW169371  12.651  16.203   0.528
 6844SOL    HW269372  12.799  16.271   0.533
 6845SOL     OW69373   5.734  13.155   0.555
 6845SOL    HW169374   5.775  13.228   0.608
 6845SOL    HW269375   5.746  13.068   0.602
 6846SOL     OW69376  11.343   5.876   7.426
 6846SOL    HW169377  11.351   5.782   7.392
 6846SOL    HW269378  11.310   5.875   7.521
 6847SOL     OW69379  12.084  10.005   8.041
 6847SOL    HW169380  12.160  10.053   7.997
 6847SOL    HW269381  12.007   9.998   7.978
 6848SOL     OW69382  15.194   7.407   0.620
 6848SOL    HW169383  15.119   7.386   0.682
 6848SOL    HW269384  15.265   7.337   0.628
 6849SOL     OW69385  14.280   1.240   1.170
 6849SOL    HW169386  14.232   1.250   1.083
 6849SOL    HW269387  14.240   1.164   1.221
 6850SOL     OW69388   8.755   3.299   0.118
 6850SOL    HW169389   8.746   3.234   0.193
 6850SOL    HW269390   8.678   3.289   0.055
 6851SOL     OW69391   3.122   3.464   0.782
 6851SOL    HW169392   3.062   3.461   0.702
 6851SOL    HW269393   3.171   3.377   0.791
 6852SOL     OW69394   1.510  16.402   0.710
 6852SOL    HW169395   1.571  16.326   0.691
 6852SOL    HW269396   1.562  16.487   0.713
 6853SOL     OW69397   6.893   7.788   0.107
 6853SOL    HW169398   6.851   7.721   0.168
 6853SOL    HW269399   6.968   7.745   0.057
 6854SOL     OW69400   9.487  16.741   7.694
 6854SOL    HW169401   9.456  16.813   7.632
 6854SOL    HW269402   9.503  16.657   7.642
 6855SOL     OW69403   7.432  10.974   0.539
 6855SOL    HW169404   7.359  10.944   0.478
 6855SOL    HW269405   7.411  10.945   0.633
 6856SOL     OW69406   2.705   9.814   8.201
 6856SOL    HW169407   2.687   9.725   8.244
 6856SOL    HW269408   2.799   9.814   8.165
 6857SOL     OW69409   6.780  14.689   0.745
 6857SOL    HW169410   6.794  14.681   0.843
 6857SOL    HW269411   6.719  14.766   0.726
 6858SOL     OW69412   3.226   2.198   1.075
 6858SOL    HW169413   3.224   2.271   1.007
 6858SOL    HW269414   3.136   2.156   1.082
 6859SOL     OW69415   3.265  13.274   2.081
 6859SOL    HW169416   3.214  13.218   2.016
 6859SOL    HW269417   3.206  13.347   2.116
 6860SOL     OW69418   5.484   3.848   0.364
 6860SOL    HW169419   5.529   3.772   0.318
 6860SOL    HW269420   5.546   3.927   0.367
 6861SOL     OW69421   3.906   5.654   0.173
 6861SOL    HW169422   3.822   5.632   0.123
 6861SOL    HW269423   3.984   5.612   0.126
 6862SOL     OW69424   4.681  14.308   1.653
 6862SOL    HW169425   4.616  14.236   1.676
 6862SOL    HW269426   4.774  14.273   1.663
 6863SOL     OW69427   9.590  12.850   7.387
 6863SOL    HW169428   9.665  12.914   7.402
 6863SOL    HW269429   9.558  12.815   7.474
 6864SOL     OW69430  13.777   4.475   0.336
 6864SOL    HW169431  13.684   4.439   0.327
 6864SOL    HW269432  13.787   4.555   0.277
 6865SOL     OW69433  14.560   1.280   7.669
 6865SOL    HW169434  14.598   1.372   7.662
 6865SOL    HW269435  14.624   1.221   7.719
 6866SOL     OW69436  13.379  11.119   7.653
 6866SOL    HW169437  13.397  11.027   7.616
 6866SOL    HW269438  13.418  11.126   7.745
 6867SOL     OW69439   1.268   5.945   1.304
 6867SOL    HW169440   1.257   5.848   1.283
 6867SOL    HW269441   1.306   5.955   1.396
 6868SOL     OW69442   2.901  13.555   2.010
 6868SOL    HW169443   2.932  13.576   1.917
 6868SOL    HW269444   2.974  13.512   2.061
 6869SOL     OW69445   7.602   5.819   0.348
 6869SOL    HW169446   7.530   5.808   0.417
 6869SOL    HW269447   7.590   5.907   0.302
 6870SOL     OW69448   6.539  12.587   7.337
 6870SOL    HW169449   6.465  12.649   7.311
 6870SOL    HW269450   6.577  12.544   7.255
 6871SOL     OW69451  16.645  15.825   1.358
 6871SOL    HW169452  16.726  15.879   1.380
 6871SOL    HW269453  16.641  15.808   1.260
 6872SOL     OW69454  11.312  10.668   7.763
 6872SOL    HW169455  11.321  10.642   7.860
 6872SOL    HW269456  11.397  10.645   7.715
 6873SOL     OW69457   4.426   3.054   1.823
 6873SOL    HW169458   4.521   3.030   1.845
 6873SOL    HW269459   4.398   3.133   1.878
 6874SOL     OW69460   6.956  13.862   7.430
 6874SOL    HW169461   6.995  13.889   7.518
 6874SOL    HW269462   7.004  13.782   7.395
 6875SOL     OW69463   0.575   3.659   1.051
 6875SOL    HW169464   0.596   3.751   1.017
 6875SOL    HW269465   0.532   3.665   1.140
 6876SOL     OW69466   6.804   0.876   0.163
 6876SOL    HW169467   6.780   0.784   0.192
 6876SOL    HW269468   6.876   0.913   0.222
 6877SOL     OW69469  16.200   6.176   7.461
 6877SOL    HW169470  16.173   6.146   7.553
 6877SOL    HW269471  16.124   6.162   7.398
 6878SOL     OW69472   6.878   1.642   1.174
 6878SOL    HW169473   6.901   1.653   1.077
 6878SOL    HW269474   6.927   1.563   1.212
 6879SOL     OW69475   2.741   3.874   7.671
 6879SOL    HW169476   2.656   3.909   7.632
 6879SOL    HW269477   2.783   3.946   7.727
 6880SOL     OW69478   6.051   3.730   0.342
 6880SOL    HW169479   6.026   3.702   0.249
 6880SOL    HW269480   6.105   3.657   0.384
 6881SOL     OW69481  13.677   0.549   7.062
 6881SOL    HW169482  13.638   0.641   7.067
 6881SOL    HW269483  13.618   0.485   7.110
 6882SOL     OW69484  13.991   7.435   6.063
 6882SOL    HW169485  13.915   7.466   6.006
 6882SOL    HW269486  14.066   7.403   6.005
 6883SOL     OW69487   2.053  13.897   0.565
 6883SOL    HW169488   1.995  13.822   0.595
 6883SOL    HW269489   1.997  13.976   0.540
 6884SOL     OW69490   4.727   8.051   7.019
 6884SOL    HW169491   4.712   8.002   6.933
 6884SOL    HW269492   4.730   8.149   7.001
 6885SOL     OW69493  12.698  10.882   0.788
 6885SOL    HW169494  12.637  10.808   0.817
 6885SOL    HW269495  12.763  10.846   0.720
 6886SOL     OW69496   0.698  10.613   0.990
 6886SOL    HW169497   0.672  10.542   1.056
 6886SOL    HW269498   0.759  10.573   0.921
 6887SOL     OW69499  14.659  11.944   7.819
 6887SOL    HW169500  14.748  11.940   7.772
 6887SOL    HW269501  14.588  11.909   7.758
 6888SOL     OW69502   5.739   1.300   1.124
 6888SOL    HW169503   5.762   1.346   1.210
 6888SOL    HW269504   5.647   1.326   1.095
 6889SOL     OW69505  15.665   9.208   7.998
 6889SOL    HW169506  15.605   9.168   8.067
 6889SOL    HW269507  15.753   9.230   8.039
 6890SOL     OW69508  15.299  12.343   0.224
 6890SOL    HW169509  15.319  12.313   0.317
 6890SOL    HW269510  15.274  12.265   0.168
 6891SOL     OW69511   1.957  10.487   1.030
 6891SOL    HW169512   1.920  10.422   0.963
 6891SOL    HW269513   1.885  10.548   1.061
 6892SOL     OW69514   6.629   4.360   1.155
 6892SOL    HW169515   6.560   4.307   1.105
 6892SOL    HW269516   6.592   4.450   1.179
 6893SOL     OW69517  11.075  14.229   0.385
 6893SOL    HW169518  11.016  14.293   0.435
 6893SOL    HW269519  11.058  14.238   0.287
 6894SOL     OW69520  12.721   0.746   6.747
 6894SOL    HW169521  12.763   0.753   6.656
 6894SOL    HW269522  12.770   0.677   6.801
 6895SOL     OW69523  15.283   6.525   5.886
 6895SOL    HW169524  15.377   6.536   5.854
 6895SOL    HW269525  15.221   6.570   5.822
 6896SOL     OW69526  15.431   4.854   6.457
 6896SOL    HW169527  15.529   4.847   6.440
 6896SOL    HW269528  15.388   4.764   6.441
 6897SOL     OW69529   7.368  12.227   1.868
 6897SOL    HW169530   7.390  12.144   1.920
 6897SOL    HW269531   7.453  12.271   1.838
 6898SOL     OW69532   8.341   6.949   7.698
 6898SOL    HW169533   8.406   6.982   7.630
 6898SOL    HW269534   8.313   7.024   7.757
 6899SOL     OW69535   9.432   0.199   0.223
 6899SOL    HW169536   9.455   0.121   0.164
 6899SOL    HW269537   9.345   0.238   0.194
 6900SOL     OW69538  14.127   7.409   7.349
 6900SOL    HW169539  14.134   7.451   7.259
 6900SOL    HW269540  14.106   7.312   7.340
 6901SOL     OW69541  15.012   5.482   0.726
 6901SOL    HW169542  14.944   5.434   0.669
 6901SOL    HW269543  14.998   5.458   0.822
 6902SOL     OW69544   9.733   5.526   0.282
 6902SOL    HW169545   9.718   5.471   0.364
 6902SOL    HW269546   9.795   5.478   0.221
 6903SOL     OW69547   6.270  11.385   8.248
 6903SOL    HW169548   6.260  11.454   8.320
 6903SOL    HW269549   6.341  11.319   8.274
 6904SOL     OW69550   2.353  12.702   2.314
 6904SOL    HW169551   2.334  12.605   2.298
 6904SOL    HW269552   2.451  12.715   2.325
 6905SOL     OW69553  15.017   1.400   7.604
 6905SOL    HW169554  15.059   1.364   7.687
 6905SOL    HW269555  15.035   1.498   7.598
 6906SOL     OW69556   2.656  15.367   0.956
 6906SOL    HW169557   2.608  15.382   0.870
 6906SOL    HW269558   2.689  15.273   0.961
 6907SOL     OW69559   0.412  11.975   1.725
 6907SOL    HW169560   0.368  12.062   1.705
 6907SOL    HW269561   0.352  11.900   1.696
 6908SOL     OW69562   2.042  13.380   2.407
 6908SOL    HW169563   1.984  13.358   2.329
 6908SOL    HW269564   2.048  13.302   2.468
 6909SOL     OW69565   3.368   3.947   1.479
 6909SOL    HW169566   3.376   3.876   1.549
 6909SOL    HW269567   3.436   3.931   1.407
 6910SOL     OW69568   2.200  12.903   1.725
 6910SOL    HW169569   2.178  12.811   1.692
 6910SOL    HW269570   2.273  12.897   1.793
 6911SOL     OW69571  16.293   8.078   1.528
 6911SOL    HW169572  16.367   8.053   1.466
 6911SOL    HW269573  16.224   8.007   1.530
 6912SOL     OW69574  12.986  16.367   7.937
 6912SOL    HW169575  12.920  16.366   8.013
 6912SOL    HW269576  13.047  16.288   7.945
 6913SOL     OW69577   3.277  15.658   1.409
 6913SOL    HW169578   3.182  15.687   1.398
 6913SOL    HW269579   3.279  15.568   1.453
 6914SOL     OW69580   8.019  12.899   1.473
 6914SOL    HW169581   8.056  12.955   1.547
 6914SOL    HW269582   8.072  12.914   1.390
 6915SOL     OW69583   9.134   7.521   8.229
 6915SOL    HW169584   9.093   7.533   8.319
 6915SOL    HW269585   9.156   7.611   8.190
 6916SOL     OW69586   7.411   1.878   7.717
 6916SOL    HW169587   7.446   1.871   7.810
 6916SOL    HW269588   7.312   1.895   7.719
 6917SOL     OW69589  12.504  14.161   7.920
 6917SOL    HW169590  12.546  14.242   7.962
 6917SOL    HW269591  12.508  14.169   7.821
 6918SOL     OW69592  16.328  11.652   7.170
 6918SOL    HW169593  16.349  11.556   7.190
 6918SOL    HW269594  16.399  11.690   7.110
 6919SOL     OW69595   4.085   0.979   7.827
 6919SOL    HW169596   4.033   1.048   7.876
 6919SOL    HW269597   4.096   0.898   7.885
 6920SOL     OW69598   5.492  12.893   7.708
 6920SOL    HW169599   5.402  12.933   7.725
 6920SOL    HW269600   5.494  12.849   7.618
 6921SOL     OW69601   0.471   7.214   7.155
 6921SOL    HW169602   0.465   7.270   7.073
 6921SOL    HW269603   0.397   7.147   7.155
 6922SOL     OW69604   3.427  16.023   0.991
 6922SOL    HW169605   3.352  16.075   0.951
 6922SOL    HW269606   3.426  16.033   1.090
 6923SOL     OW69607  10.738  13.236   7.593
 6923SOL    HW169608  10.784  13.293   7.525
 6923SOL    HW269609  10.785  13.149   7.601
 6924SOL     OW69610   7.395   9.726   1.904
 6924SOL    HW169611   7.313   9.781   1.921
 6924SOL    HW269612   7.378   9.663   1.828
 6925SOL     OW69613  15.566   8.581   7.876
 6925SOL    HW169614  15.504   8.620   7.807
 6925SOL    HW269615  15.531   8.600   7.967
 6926SOL     OW69616  15.460  15.547   6.130
 6926SOL    HW169617  15.514  15.476   6.084
 6926SOL    HW269618  15.378  15.567   6.076
 6927SOL     OW69619   1.890  13.434   1.685
 6927SOL    HW169620   1.839  13.374   1.747
 6927SOL    HW269621   1.958  13.380   1.635
 6928SOL     OW69622   8.207   9.107   0.752
 6928SOL    HW169623   8.230   9.051   0.832
 6928SOL    HW269624   8.152   9.186   0.782
 6929SOL     OW69625  10.905  15.136   0.206
 6929SOL    HW169626  10.958  15.063   0.250
 6929SOL    HW269627  10.873  15.104   0.117
 6930SOL     OW69628   4.981   6.384   1.912
 6930SOL    HW169629   5.058   6.447   1.912
 6930SOL    HW269630   4.932   6.391   1.825
 6931SOL     OW69631  12.672   8.417   8.352
 6931SOL    HW169632  12.602   8.481   8.321
 6931SOL    HW269633  12.629   8.335   8.389
 6932SOL     OW69634  11.350   3.038   6.273
 6932SOL    HW169635  11.360   3.072   6.180
 6932SOL    HW269636  11.261   2.994   6.284
 6933SOL     OW69637  10.321   6.420   1.430
 6933SOL    HW169638  10.414   6.458   1.429
 6933SOL    HW269639  10.296   6.391   1.338
 6934SOL     OW69640   0.248   4.044   1.170
 6934SOL    HW169641   0.266   3.950   1.201
 6934SOL    HW269642   0.169   4.045   1.109
 6935SOL     OW69643  16.451   5.676   8.224
 6935SOL    HW169644  16.472   5.770   8.198
 6935SOL    HW269645  16.432   5.622   8.142
 6936SOL     OW69646   7.289   6.691   0.622
 6936SOL    HW169647   7.291   6.662   0.718
 6936SOL    HW269648   7.382   6.713   0.593
 6937SOL     OW69649   1.647   7.561   7.156
 6937SOL    HW169650   1.687   7.539   7.245
 6937SOL    HW269651   1.579   7.491   7.132
 6938SOL     OW69652  10.699  14.848   7.819
 6938SOL    HW169653  10.735  14.842   7.912
 6938SOL    HW269654  10.713  14.761   7.772
 6939SOL     OW69655  16.791   7.450   0.112
 6939SOL    HW169656  16.727   7.374   0.124
 6939SOL    HW269657  16.784   7.512   0.191
 6940SOL     OW69658  12.835   9.644   1.944
 6940SOL    HW169659  12.857   9.640   2.041
 6940SOL    HW269660  12.759   9.582   1.924
 6941SOL     OW69661  14.890  15.945   7.283
 6941SOL    HW169662  14.836  15.938   7.199
 6941SOL    HW269663  14.870  15.866   7.342
 6942SOL     OW69664   4.664   0.364   7.576
 6942SOL    HW169665   4.635   0.460   7.577
 6942SOL    HW269666   4.583   0.305   7.569
 6943SOL     OW69667   7.980   4.430   1.566
 6943SOL    HW169668   8.053   4.366   1.543
 6943SOL    HW269669   7.954   4.482   1.485
 6944SOL     OW69670   4.096   8.500   7.602
 6944SOL    HW169671   4.055   8.480   7.512
 6944SOL    HW269672   4.109   8.599   7.611
 6945SOL     OW69673  14.557  13.988   7.403
 6945SOL    HW169674  14.570  13.901   7.451
 6945SOL    HW269675  14.461  14.014   7.407
 6946SOL     OW69676  15.235   4.890   1.529
 6946SOL    HW169677  15.182   4.964   1.486
 6946SOL    HW269678  15.246   4.910   1.626
 6947SOL     OW69679  10.526   2.821   0.989
 6947SOL    HW169680  10.432   2.856   0.995
 6947SOL    HW269681  10.590   2.893   1.018
 6948SOL     OW69682  14.983   4.306   7.763
 6948SOL    HW169683  14.894   4.262   7.770
 6948SOL    HW269684  15.031   4.299   7.851
 6949SOL     OW69685   4.540   2.714   8.171
 6949SOL    HW169686   4.472   2.643   8.189
 6949SOL    HW269687   4.614   2.707   8.239
 6950SOL     OW69688   6.858   2.591   6.927
 6950SOL    HW169689   6.912   2.635   6.855
 6950SOL    HW269690   6.771   2.639   6.938
 6951SOL     OW69691   6.618  10.752   1.818
 6951SOL    HW169692   6.628  10.724   1.723
 6951SOL    HW269693   6.524  10.782   1.835
 6952SOL     OW69694  16.965   6.279   6.887
 6952SOL    HW169695  16.942   6.373   6.861
 6952SOL    HW269696  16.895   6.244   6.949
 6953SOL     OW69697  14.051   2.109   7.445
 6953SOL    HW169698  14.111   2.156   7.380
 6953SOL    HW269699  13.957   2.142   7.433
 6954SOL     OW69700   6.964   0.662   7.901
 6954SOL    HW169701   6.921   0.725   7.837
 6954SOL    HW269702   6.935   0.685   7.994
 6955SOL     OW69703  15.135   0.279   7.629
 6955SOL    HW169704  15.056   0.338   7.646
 6955SOL    HW269705  15.209   0.334   7.588
 6956SOL     OW69706   5.778   9.909   0.508
 6956SOL    HW169707   5.702   9.964   0.543
 6956SOL    HW269708   5.788   9.827   0.563
 6957SOL     OW69709  15.968  13.867   7.181
 6957SOL    HW169710  15.888  13.919   7.211
 6957SOL    HW269711  15.939  13.775   7.154
 6958SOL     OW69712   3.565  12.759   0.291
 6958SOL    HW169713   3.645  12.709   0.257
 6958SOL    HW269714   3.595  12.835   0.349
 6959SOL     OW69715   0.928  16.858   6.992
 6959SOL    HW169716   0.860  16.799   6.949
 6959SOL    HW269717   0.901  16.879   7.085
 6960SOL     OW69718  11.600  12.205   0.551
 6960SOL    HW169719  11.652  12.121   0.568
 6960SOL    HW269720  11.502  12.186   0.563
 6961SOL     OW69721   4.371  11.801   0.345
 6961SOL    HW169722   4.400  11.834   0.256
 6961SOL    HW269723   4.448  11.803   0.408
 6962SOL     OW69724  16.054   1.222   6.990
 6962SOL    HW169725  15.963   1.197   7.023
 6962SOL    HW269726  16.068   1.185   6.898
 6963SOL     OW69727   5.205  10.738   1.253
 6963SOL    HW169728   5.190  10.768   1.159
 6963SOL    HW269729   5.160  10.801   1.316
 6964SOL     OW69730  11.962   0.588   1.866
 6964SOL    HW169731  11.978   0.680   1.830
 6964SOL    HW269732  12.010   0.578   1.953
 6965SOL     OW69733   0.319   1.663   0.648
 6965SOL    HW169734   0.359   1.578   0.684
 6965SOL    HW269735   0.372   1.741   0.680
 6966SOL     OW69736  14.121  16.115   7.865
 6966SOL    HW169737  14.028  16.104   7.831
 6966SOL    HW269738  14.179  16.043   7.827
 6967SOL     OW69739   1.004  11.679   7.279
 6967SOL    HW169740   0.981  11.750   7.212
 6967SOL    HW269741   1.103  11.670   7.284
 6968SOL     OW69742   0.519  10.636   8.385
 6968SOL    HW169743   0.434  10.639   8.332
 6968SOL    HW269744   0.544  10.729   8.413
 6969SOL     OW69745  14.223  12.314   2.119
 6969SOL    HW169746  14.168  12.292   2.039
 6969SOL    HW269747  14.183  12.391   2.168
 6970SOL     OW69748   2.459   9.459   0.790
 6970SOL    HW169749   2.437   9.541   0.843
 6970SOL    HW269750   2.522   9.402   0.842
 6971SOL     OW69751   9.547  16.521   7.235
 6971SOL    HW169752   9.529  16.543   7.139
 6971SOL    HW269753   9.624  16.457   7.241
 6972SOL     OW69754   3.294   7.251   6.806
 6972SOL    HW169755   3.334   7.340   6.784
 6972SOL    HW269756   3.205   7.263   6.849
 6973SOL     OW69757   1.935   9.525   0.897
 6973SOL    HW169758   1.837   9.542   0.898
 6973SOL    HW269759   1.954   9.438   0.851
 6974SOL     OW69760   4.381   0.729   7.276
 6974SOL    HW169761   4.419   0.637   7.288
 6974SOL    HW269762   4.281   0.725   7.280
 6975SOL     OW69763  14.791   8.219   6.343
 6975SOL    HW169764  14.704   8.218   6.294
 6975SOL    HW269765  14.860   8.263   6.286
 6976SOL     OW69766   8.167  13.376   0.576
 6976SOL    HW169767   8.155  13.280   0.598
 6976SOL    HW269768   8.263  13.402   0.586
 6977SOL     OW69769  11.187  14.220   8.175
 6977SOL    HW169770  11.247  14.248   8.250
 6977SOL    HW269771  11.239  14.166   8.108
 6978SOL     OW69772  14.232  15.743   1.229
 6978SOL    HW169773  14.221  15.718   1.325
 6978SOL    HW269774  14.286  15.828   1.222
 6979SOL     OW69775  13.238   2.780   5.904
 6979SOL    HW169776  13.212   2.714   5.833
 6979SOL    HW269777  13.299   2.849   5.866
 6980SOL     OW69778   0.026   8.754   0.051
 6980SOL    HW169779  16.977   8.849   0.045
 6980SOL    HW269780   0.002   8.717   0.140
 6981SOL     OW69781   7.046  10.874   8.382
 6981SOL    HW169782   7.094  10.827   0.003
 6981SOL    HW269783   6.956  10.903   8.413
 6982SOL     OW69784  11.309   1.243   1.135
 6982SOL    HW169785  11.302   1.226   1.234
 6982SOL    HW269786  11.377   1.315   1.119
 6983SOL     OW69787   0.246   8.039   0.363
 6983SOL    HW169788   0.266   8.096   0.442
 6983SOL    HW269789   0.251   7.943   0.389
 6984SOL     OW69790   4.747   4.196   0.587
 6984SOL    HW169791   4.737   4.097   0.577
 6984SOL    HW269792   4.844   4.220   0.590
 6985SOL     OW69793   6.656   4.046   0.183
 6985SOL    HW169794   6.668   4.010   0.090
 6985SOL    HW269795   6.725   4.117   0.200
 6986SOL     OW69796   2.994  13.608   7.624
 6986SOL    HW169797   3.042  13.541   7.567
 6986SOL    HW269798   2.981  13.570   7.716
 6987SOL     OW69799   9.284   4.630   6.462
 6987SOL    HW169800   9.354   4.699   6.444
 6987SOL    HW269801   9.273   4.618   6.560
 6988SOL     OW69802   0.260   7.220   0.355
 6988SOL    HW169803   0.343   7.240   0.408
 6988SOL    HW269804   0.271   7.255   0.262
 6989SOL     OW69805  11.902   4.531   0.357
 6989SOL    HW169806  11.994   4.568   0.343
 6989SOL    HW269807  11.876   4.542   0.453
 6990SOL     OW69808   5.115   4.531   1.110
 6990SOL    HW169809   5.214   4.534   1.099
 6990SOL    HW269810   5.073   4.503   1.024
 6991SOL     OW69811   0.244   4.234   1.382
 6991SOL    HW169812   0.251   4.165   1.311
 6991SOL    HW269813   0.190   4.311   1.349
 6992SOL     OW69814   2.026  12.679   0.375
 6992SOL    HW169815   2.083  12.667   0.293
 6992SOL    HW269816   1.932  12.652   0.355
 6993SOL     OW69817  11.705  16.299   1.472
 6993SOL    HW169818  11.638  16.308   1.547
 6993SOL    HW269819  11.662  16.327   1.386
 6994SOL     OW69820  12.254  11.393   7.598
 6994SOL    HW169821  12.329  11.458   7.615
 6994SOL    HW269822  12.293  11.302   7.579
 6995SOL     OW69823   7.709   5.288   7.628
 6995SOL    HW169824   7.796   5.265   7.585
 6995SOL    HW269825   7.646   5.326   7.560
 6996SOL     OW69826   2.116  16.853   7.037
 6996SOL    HW169827   2.022  16.864   7.071
 6996SOL    HW269828   2.143  16.757   7.046
 6997SOL     OW69829   6.383   9.178   1.125
 6997SOL    HW169830   6.297   9.153   1.081
 6997SOL    HW269831   6.401   9.115   1.200
 6998SOL     OW69832   8.575   4.316   0.708
 6998SOL    HW169833   8.585   4.225   0.748
 6998SOL    HW269834   8.623   4.383   0.765
 6999SOL     OW69835  12.434   3.991   0.788
 6999SOL    HW169836  12.362   3.950   0.843
 6999SOL    HW269837  12.507   3.924   0.772
 7000SOL     OW69838   9.500  13.686   1.957
 7000SOL    HW169839   9.407  13.668   1.926
 7000SOL    HW269840   9.500  13.698   2.056
 7001SOL     OW69841   1.804  10.290   2.182
 7001SOL    HW169842   1.847  10.268   2.269
 7001SOL    HW269843   1.739  10.365   2.195
 7002SOL     OW69844  15.248   2.058   7.882
 7002SOL    HW169845  15.246   2.070   7.982
 7002SOL    HW269846  15.230   1.963   7.860
 7003SOL     OW69847   4.289  11.266   6.942
 7003SOL    HW169848   4.346  11.325   6.999
 7003SOL    HW269849   4.305  11.287   6.846
 7004SOL     OW69850   5.886   6.028   7.897
 7004SOL    HW169851   5.856   6.013   7.992
 7004SOL    HW269852   5.872   5.944   7.844
 7005SOL     OW69853  16.531   7.881   7.153
 7005SOL    HW169854  16.620   7.844   7.181
 7005SOL    HW269855  16.461   7.812   7.166
 7006SOL     OW69856   8.024   1.137   0.220
 7006SOL    HW169857   8.061   1.177   0.304
 7006SOL    HW269858   7.925   1.154   0.216
 7007SOL     OW69859   5.376   4.502   0.995
 7007SOL    HW169860   5.326   4.477   0.911
 7007SOL    HW269861   5.462   4.547   0.970
 7008SOL     OW69862   0.901  10.908   0.727
 7008SOL    HW169863   0.943  10.839   0.786
 7008SOL    HW269864   0.919  10.885   0.631
 7009SOL     OW69865  12.446  16.261   0.017
 7009SOL    HW169866  12.543  16.238   0.015
 7009SOL    HW269867  12.430  16.337   0.080
 7010SOL     OW69868   6.505  13.678   2.151
 7010SOL    HW169869   6.485  13.628   2.067
 7010SOL    HW269870   6.600  13.663   2.177
 7011SOL     OW69871  11.140   8.503   7.427
 7011SOL    HW169872  11.196   8.586   7.433
 7011SOL    HW269873  11.047   8.527   7.402
 7012SOL     OW69874   7.325   6.858   6.873
 7012SOL    HW169875   7.282   6.946   6.890
 7012SOL    HW269876   7.315   6.833   6.777
 7013SOL     OW69877  13.591   4.387   6.956
 7013SOL    HW169878  13.512   4.326   6.944
 7013SOL    HW269879  13.660   4.342   7.013
 7014SOL     OW69880   9.499   7.170   6.402
 7014SOL    HW169881   9.497   7.092   6.339
 7014SOL    HW269882   9.542   7.143   6.488
 7015SOL     OW69883   8.965  14.995   6.751
 7015SOL    HW169884   8.963  14.980   6.849
 7015SOL    HW269885   9.059  15.014   6.721
 7016SOL     OW69886  14.144   4.103   6.383
 7016SOL    HW169887  14.055   4.147   6.380
 7016SOL    HW269888  14.176   4.084   6.289
 7017SOL     OW69889  14.908   3.488   1.234
 7017SOL    HW169890  14.859   3.534   1.307
 7017SOL    HW269891  14.849   3.418   1.193
 7018SOL     OW69892  10.590  10.717   8.429
 7018SOL    HW169893  10.634  10.735   0.063
 7018SOL    HW269894  10.540  10.798   8.400
 7019SOL     OW69895   6.477   4.876   0.301
 7019SOL    HW169896   6.380   4.857   0.307
 7019SOL    HW269897   6.514   4.834   0.218
 7020SOL     OW69898  16.123  13.522   1.126
 7020SOL    HW169899  16.077  13.506   1.213
 7020SOL    HW269900  16.058  13.507   1.051
 7021SOL     OW69901   4.841   4.561   7.932
 7021SOL    HW169902   4.884   4.502   7.863
 7021SOL    HW269903   4.742   4.563   7.917
 7022SOL     OW69904  10.259  15.245   1.742
 7022SOL    HW169905  10.284  15.256   1.838
 7022SOL    HW269906  10.285  15.327   1.691
 7023SOL     OW69907   7.162   6.318   7.334
 7023SOL    HW169908   7.106   6.287   7.411
 7023SOL    HW269909   7.239   6.372   7.370
 7024SOL     OW69910  10.098   9.713   0.504
 7024SOL    HW169911  10.061   9.651   0.573
 7024SOL    HW269912  10.036   9.716   0.425
 7025SOL     OW69913  11.124  14.297   0.707
 7025SOL    HW169914  11.088  14.273   0.798
 7025SOL    HW269915  11.049  14.328   0.649
 7026SOL     OW69916  13.133   2.806   1.444
 7026SOL    HW169917  13.185   2.886   1.473
 7026SOL    HW269918  13.045   2.834   1.407
 7027SOL     OW69919  12.364  15.262   1.514
 7027SOL    HW169920  12.304  15.182   1.517
 7027SOL    HW269921  12.446  15.245   1.569
 7028SOL     OW69922   8.596   7.809   7.687
 7028SOL    HW169923   8.665   7.748   7.725
 7028SOL    HW269924   8.574   7.881   7.753
 7029SOL     OW69925  14.944  14.704   1.283
 7029SOL    HW169926  14.918  14.664   1.371
 7029SOL    HW269927  14.968  14.800   1.296
 7030SOL     OW69928  12.204  14.502   8.008
 7030SOL    HW169929  12.193  14.438   8.085
 7030SOL    HW269930  12.125  14.494   7.947
 7031SOL     OW69931   9.130   0.700   0.140
 7031SOL    HW169932   9.108   0.651   0.224
 7031SOL    HW269933   9.159   0.793   0.163
 7032SOL     OW69934  10.408  11.522   0.236
 7032SOL    HW169935  10.464  11.531   0.154
 7032SOL    HW269936  10.414  11.606   0.290
 7033SOL     OW69937   0.657   9.326   1.865
 7033SOL    HW169938   0.579   9.306   1.924
 7033SOL    HW269939   0.713   9.398   1.907
 7034SOL     OW69940   8.700  15.992   6.917
 7034SOL    HW169941   8.751  16.039   6.989
 7034SOL    HW269942   8.602  15.999   6.936
 7035SOL     OW69943   1.574  13.717   7.521
 7035SOL    HW169944   1.546  13.621   7.521
 7035SOL    HW269945   1.523  13.767   7.451
 7036SOL     OW69946   0.047  15.744   7.126
 7036SOL    HW169947  16.972  15.824   7.133
 7036SOL    HW269948  16.977  15.668   7.088
 7037SOL     OW69949   7.355  15.915   1.437
 7037SOL    HW169950   7.414  15.843   1.472
 7037SOL    HW269951   7.410  15.981   1.385
 7038SOL     OW69952  12.136  13.563   0.370
 7038SOL    HW169953  12.203  13.524   0.433
 7038SOL    HW269954  12.181  13.633   0.314
 7039SOL     OW69955  16.230  16.014   6.731
 7039SOL    HW169956  16.141  15.967   6.727
 7039SOL    HW269957  16.222  16.105   6.691
 7040SOL     OW69958   0.172   4.174   6.227
 7040SOL    HW169959   0.260   4.147   6.188
 7040SOL    HW269960   0.188   4.240   6.301
 7041SOL     OW69961   6.239  11.605   0.417
 7041SOL    HW169962   6.235  11.509   0.444
 7041SOL    HW269963   6.296  11.615   0.336
 7042SOL     OW69964  13.582   1.485   6.277
 7042SOL    HW169965  13.526   1.411   6.314
 7042SOL    HW269966  13.634   1.451   6.198
 7043SOL     OW69967  16.163   7.259   8.437
 7043SOL    HW169968  16.146   7.205   8.354
 7043SOL    HW269969  16.085   7.319   8.453
 7044SOL     OW69970  12.499   5.059   6.722
 7044SOL    HW169971  12.448   5.144   6.719
 7044SOL    HW269972  12.467   4.998   6.650
 7045SOL     OW69973   9.523  10.207   1.394
 7045SOL    HW169974   9.568  10.168   1.313
 7045SOL    HW269975   9.436  10.248   1.367
 7046SOL     OW69976  14.518   2.384   8.142
 7046SOL    HW169977  14.527   2.305   8.081
 7046SOL    HW269978  14.460   2.359   8.220
 7047SOL     OW69979   0.227   9.585   6.674
 7047SOL    HW169980   0.319   9.603   6.640
 7047SOL    HW269981   0.183   9.515   6.618
 7048SOL     OW69982   5.464  14.746   7.452
 7048SOL    HW169983   5.521  14.744   7.534
 7048SOL    HW269984   5.454  14.840   7.420
 7049SOL     OW69985  14.793  12.486   7.701
 7049SOL    HW169986  14.805  12.584   7.721
 7049SOL    HW269987  14.882  12.445   7.682
 7050SOL     OW69988  11.867   7.713   7.186
 7050SOL    HW169989  11.856   7.806   7.152
 7050SOL    HW269990  11.932   7.712   7.262
 7051SOL     OW69991   1.437  10.837   0.196
 7051SOL    HW169992   1.505  10.794   0.138
 7051SOL    HW269993   1.454  10.935   0.201
 7052SOL     OW69994   7.241   7.832   0.480
 7052SOL    HW169995   7.221   7.750   0.535
 7052SOL    HW269996   7.158   7.886   0.471
 7053SOL     OW69997   7.098   3.583   0.342
 7053SOL    HW169998   7.139   3.558   0.430
 7053SOL    HW269999   7.082   3.500   0.288
 7054SOL     OW70000   9.205  15.830   7.871
 7054SOL    HW170001   9.174  15.768   7.943
 7054SOL    HW270002   9.276  15.784   7.817
 7055SOL     OW70003   8.368  15.027   0.238
 7055SOL    HW170004   8.283  15.068   0.204
 7055SOL    HW270005   8.352  14.931   0.261
 7056SOL     OW70006  14.076  11.210   8.442
 7056SOL    HW170007  14.111  11.297   0.022
 7056SOL    HW270008  14.047  11.154   0.066
 7057SOL     OW70009   6.467  15.033   6.850
 7057SOL    HW170010   6.384  15.001   6.806
 7057SOL    HW270011   6.447  15.058   6.945
 7058SOL     OW70012   0.169   9.686   0.621
 7058SOL    HW170013   0.111   9.768   0.614
 7058SOL    HW270014   0.118   9.613   0.665
 7059SOL     OW70015  12.685  13.127   7.772
 7059SOL    HW170016  12.615  13.070   7.815
 7059SOL    HW270017  12.774  13.082   7.777
 7060SOL     OW70018   6.975  13.074   7.384
 7060SOL    HW170019   7.033  13.064   7.303
 7060SOL    HW270020   7.032  13.095   7.463
 7061SOL     OW70021   5.227  14.653   0.058
 7061SOL    HW170022   5.144  14.607   0.089
 7061SOL    HW270023   5.263  14.711   0.131
 7062SOL     OW70024   4.711  14.976   1.345
 7062SOL    HW170025   4.797  15.011   1.305
 7062SOL    HW270026   4.733  14.912   1.418
 7063SOL     OW70027  12.022   0.563   8.288
 7063SOL    HW170028  11.985   0.611   8.208
 7063SOL    HW270029  11.953   0.501   8.324
 7064SOL     OW70030   3.097  16.413   1.019
 7064SOL    HW170031   3.139  16.332   0.980
 7064SOL    HW270032   2.998  16.410   1.005
 7065SOL     OW70033  14.832   9.463   7.275
 7065SOL    HW170034  14.883   9.377   7.280
 7065SOL    HW270035  14.825   9.493   7.180
 7066SOL     OW70036   3.950  11.020   8.436
 7066SOL    HW170037   3.946  11.088   8.363
 7066SOL    HW270038   4.021  10.953   8.415
 7067SOL     OW70039   8.359  13.812   0.316
 7067SOL    HW170040   8.276  13.757   0.329
 7067SOL    HW270041   8.365  13.842   0.221
 7068SOL     OW70042   8.205   5.454   1.421
 7068SOL    HW170043   8.183   5.432   1.326
 7068SOL    HW270044   8.145   5.529   1.452
 7069SOL     OW70045   0.945   3.767   7.152
 7069SOL    HW170046   1.028   3.739   7.102
 7069SOL    HW270047   0.888   3.687   7.170
 7070SOL     OW70048   7.674   2.818   7.904
 7070SOL    HW170049   7.728   2.736   7.924
 7070SOL    HW270050   7.734   2.888   7.866
 7071SOL     OW70051  14.894   5.032   0.712
 7071SOL    HW170052  14.850   4.947   0.743
 7071SOL    HW270053  14.836   5.110   0.735
 7072SOL     OW70054  16.542   6.575   0.870
 7072SOL    HW170055  16.513   6.661   0.912
 7072SOL    HW270056  16.628   6.544   0.911
 7073SOL     OW70057  10.648   1.517   0.128
 7073SOL    HW170058  10.608   1.593   0.077
 7073SOL    HW270059  10.706   1.552   0.201
 7074SOL     OW70060   0.387   9.724   1.347
 7074SOL    HW170061   0.302   9.774   1.368
 7074SOL    HW270062   0.445   9.722   1.429
 7075SOL     OW70063  16.661   1.674   8.391
 7075SOL    HW170064  16.665   1.578   8.419
 7075SOL    HW270065  16.726   1.690   8.317
 7076SOL     OW70066   8.838   1.600   0.179
 7076SOL    HW170067   8.932   1.617   0.209
 7076SOL    HW270068   8.782   1.573   0.257
 7077SOL     OW70069   3.462   2.301   7.160
 7077SOL    HW170070   3.455   2.306   7.061
 7077SOL    HW270071   3.415   2.380   7.201
 7078SOL     OW70072   9.371   3.756   7.780
 7078SOL    HW170073   9.429   3.778   7.858
 7078SOL    HW270074   9.427   3.756   7.696
 7079SOL     OW70075   1.381  10.102   0.845
 7079SOL    HW170076   1.387  10.117   0.747
 7079SOL    HW270077   1.294  10.138   0.880
 7080SOL     OW70078  16.625  10.223   0.652
 7080SOL    HW170079  16.687  10.197   0.726
 7080SOL    HW270080  16.678  10.251   0.572
 7081SOL     OW70081   2.853  13.121   0.340
 7081SOL    HW170082   2.936  13.066   0.328
 7081SOL    HW270083   2.795  13.111   0.259
 7082SOL     OW70084   8.774  13.213   0.129
 7082SOL    HW170085   8.838  13.283   0.099
 7082SOL    HW270086   8.701  13.255   0.182
 7083SOL     OW70087  13.891   0.974   7.234
 7083SOL    HW170088  13.968   1.001   7.291
 7083SOL    HW270089  13.924   0.920   7.157
 7084SOL     OW70090  11.729  13.229   1.297
 7084SOL    HW170091  11.729  13.280   1.211
 7084SOL    HW270092  11.656  13.160   1.295
 7085SOL     OW70093   4.988   4.271   7.648
 7085SOL    HW170094   5.072   4.230   7.684
 7085SOL    HW270095   5.011   4.345   7.584
 7086SOL     OW70096  15.838  16.926   1.776
 7086SOL    HW170097  15.887   0.026   1.805
 7086SOL    HW270098  15.871  16.848   1.830
 7087SOL     OW70099   2.585   2.087   7.452
 7087SOL    HW170100   2.580   2.024   7.529
 7087SOL    HW270101   2.624   2.174   7.483
 7088SOL     OW70102  16.189  10.017   1.974
 7088SOL    HW170103  16.261  10.012   2.043
 7088SOL    HW270104  16.165   9.925   1.944
 7089SOL     OW70105  11.130   8.503   1.519
 7089SOL    HW170106  11.080   8.417   1.533
 7089SOL    HW270107  11.117   8.562   1.599
 7090SOL     OW70108   7.684   5.562   0.434
 7090SOL    HW170109   7.670   5.659   0.414
 7090SOL    HW270110   7.769   5.531   0.392
 7091SOL     OW70111   8.185   7.274   1.110
 7091SOL    HW170112   8.260   7.276   1.177
 7091SOL    HW270113   8.104   7.233   1.152
 7092SOL     OW70114   4.612   0.102   6.728
 7092SOL    HW170115   4.587   0.074   6.820
 7092SOL    HW270116   4.632   0.021   6.672
 7093SOL     OW70117   2.305  15.593   1.959
 7093SOL    HW170118   2.319  15.692   1.959
 7093SOL    HW270119   2.376  15.550   2.015
 7094SOL     OW70120   2.145   0.988   0.110
 7094SOL    HW170121   2.083   0.913   0.087
 7094SOL    HW270122   2.222   0.953   0.162
 7095SOL     OW70123   7.018   4.252   7.548
 7095SOL    HW170124   6.977   4.298   7.627
 7095SOL    HW270125   7.004   4.308   7.466
 7096SOL     OW70126   4.668  13.892   1.621
 7096SOL    HW170127   4.606  13.950   1.675
 7096SOL    HW270128   4.742  13.859   1.680
 7097SOL     OW70129   2.690   2.306   7.602
 7097SOL    HW170130   2.611   2.367   7.607
 7097SOL    HW270131   2.697   2.254   7.688
 7098SOL     OW70132   0.845   9.027   7.783
 7098SOL    HW170133   0.884   8.991   7.698
 7098SOL    HW270134   0.800   9.115   7.765
 7099SOL     OW70135   6.887   8.361   6.421
 7099SOL    HW170136   6.893   8.307   6.505
 7099SOL    HW270137   6.979   8.392   6.395
 7100SOL     OW70138   8.473   2.937   1.531
 7100SOL    HW170139   8.569   2.945   1.558
 7100SOL    HW270140   8.442   3.024   1.493
 7101SOL     OW70141  15.627   1.841   1.631
 7101SOL    HW170142  15.580   1.903   1.694
 7101SOL    HW270143  15.610   1.746   1.658
 7102SOL     OW70144   3.560  16.775   7.449
 7102SOL    HW170145   3.639  16.716   7.468
 7102SOL    HW270146   3.585  16.842   7.379
 7103SOL     OW70147  16.801   6.538   7.130
 7103SOL    HW170148  16.829   6.545   7.034
 7103SOL    HW270149  16.804   6.628   7.172
 7104SOL     OW70150   9.536  10.217   7.935
 7104SOL    HW170151   9.610  10.150   7.936
 7104SOL    HW270152   9.507  10.236   8.029
 7105SOL     OW70153   1.082  14.958   7.764
 7105SOL    HW170154   1.131  14.922   7.684
 7105SOL    HW270155   1.095  14.897   7.842
 7106SOL     OW70156   1.437   5.493   0.648
 7106SOL    HW170157   1.342   5.464   0.660
 7106SOL    HW270158   1.444   5.555   0.570
 7107SOL     OW70159   4.741   1.531   7.615
 7107SOL    HW170160   4.653   1.492   7.589
 7107SOL    HW270161   4.815   1.468   7.587
 7108SOL     OW70162  15.960  10.615   8.095
 7108SOL    HW170163  16.002  10.596   8.184
 7108SOL    HW270164  16.024  10.588   8.023
 7109SOL     OW70165   2.960   4.758   0.272
 7109SOL    HW170166   2.896   4.685   0.251
 7109SOL    HW270167   2.929   4.843   0.229
 7110SOL     OW70168   3.475   5.413   8.067
 7110SOL    HW170169   3.440   5.326   8.102
 7110SOL    HW270170   3.431   5.489   8.114
 7111SOL     OW70171   6.546  14.733   7.138
 7111SOL    HW170172   6.489  14.744   7.056
 7111SOL    HW270173   6.578  14.823   7.168
 7112SOL     OW70174   2.596   7.098   1.606
 7112SOL    HW170175   2.595   7.035   1.528
 7112SOL    HW270176   2.519   7.077   1.666
 7113SOL     OW70177   2.408  14.516   0.864
 7113SOL    HW170178   2.389  14.486   0.957
 7113SOL    HW270179   2.486  14.466   0.827
 7114SOL     OW70180  11.866   7.873   1.654
 7114SOL    HW170181  11.810   7.887   1.572
 7114SOL    HW270182  11.870   7.776   1.675
 7115SOL     OW70183  15.378  16.270   7.575
 7115SOL    HW170184  15.299  16.303   7.628
 7115SOL    HW270185  15.397  16.175   7.600
 7116SOL     OW70186  14.072   3.297   0.992
 7116SOL    HW170187  14.111   3.387   0.977
 7116SOL    HW270188  13.982   3.306   1.035
 7117SOL     OW70189  14.177  11.841   7.449
 7117SOL    HW170190  14.245  11.911   7.470
 7117SOL    HW270191  14.091  11.863   7.495
 7118SOL     OW70192  10.135   6.688   1.689
 7118SOL    HW170193  10.226   6.686   1.730
 7118SOL    HW270194  10.104   6.594   1.673
 7119SOL     OW70195   7.445   8.212   8.302
 7119SOL    HW170196   7.408   8.146   8.235
 7119SOL    HW270197   7.424   8.181   8.394
 7120SOL     OW70198   8.457  16.724   6.345
 7120SOL    HW170199   8.444  16.625   6.350
 7120SOL    HW270200   8.382  16.765   6.292
 7121SOL     OW70201  14.600  14.445   1.820
 7121SOL    HW170202  14.575  14.404   1.909
 7121SOL    HW270203  14.536  14.519   1.799
 7122SOL     OW70204   8.780   8.524   7.762
 7122SOL    HW170205   8.696   8.541   7.814
 7122SOL    HW270206   8.784   8.587   7.685
 7123SOL     OW70207  11.096   8.766   7.219
 7123SOL    HW170208  11.153   8.773   7.301
 7123SOL    HW270209  11.002   8.792   7.241
 7124SOL     OW70210  14.236  10.346   8.015
 7124SOL    HW170211  14.261  10.327   7.920
 7124SOL    HW270212  14.295  10.419   8.050
 7125SOL     OW70213  11.315   2.520   0.100
 7125SOL    HW170214  11.226   2.565   0.109
 7125SOL    HW270215  11.352   2.538   0.009
 7126SOL     OW70216   6.824   7.276   7.751
 7126SOL    HW170217   6.808   7.181   7.780
 7126SOL    HW270218   6.827   7.280   7.651
 7127SOL     OW70219  14.965  10.456   6.151
 7127SOL    HW170220  15.001  10.539   6.109
 7127SOL    HW270221  15.034  10.383   6.144
 7128SOL     OW70222  12.530   1.854   0.367
 7128SOL    HW170223  12.542   1.787   0.294
 7128SOL    HW270224  12.502   1.942   0.328
 7129SOL     OW70225   9.263   9.978   0.364
 7129SOL    HW170226   9.312   9.953   0.448
 7129SOL    HW270227   9.326   9.972   0.286
 7130SOL     OW70228  11.836  15.474   6.798
 7130SOL    HW170229  11.782  15.405   6.750
 7130SOL    HW270230  11.920  15.432   6.834
 7131SOL     OW70231  14.555  16.852   0.580
 7131SOL    HW170232  14.486  16.847   0.652
 7131SOL    HW270233  14.523  16.911   0.506
 7132SOL     OW70234   1.508   6.015   7.186
 7132SOL    HW170235   1.545   5.962   7.262
 7132SOL    HW270236   1.558   5.992   7.102
 7133SOL     OW70237  15.758  13.718   7.500
 7133SOL    HW170238  15.839  13.687   7.549
 7133SOL    HW270239  15.765  13.816   7.482
 7134SOL     OW70240  14.466  14.322   0.919
 7134SOL    HW170241  14.399  14.255   0.885
 7134SOL    HW270242  14.492  14.384   0.845
 7135SOL     OW70243   2.457  10.501   0.659
 7135SOL    HW170244   2.546  10.466   0.629
 7135SOL    HW270245   2.413  10.547   0.582
 7136SOL     OW70246   8.148   8.626   7.207
 7136SOL    HW170247   8.090   8.545   7.209
 7136SOL    HW270248   8.117   8.688   7.135
 7137SOL     OW70249  15.829  15.558   0.542
 7137SOL    HW170250  15.886  15.495   0.489
 7137SOL    HW270251  15.866  15.568   0.634
 7138SOL     OW70252  12.868   9.303   8.203
 7138SOL    HW170253  12.847   9.223   8.259
 7138SOL    HW270254  12.948   9.284   8.146
 7139SOL     OW70255  12.197  13.704   8.314
 7139SOL    HW170256  12.115  13.656   8.282
 7139SOL    HW270257  12.191  13.800   8.289
 7140SOL     OW70258   4.133   5.382   7.905
 7140SOL    HW170259   4.161   5.292   7.872
 7140SOL    HW270260   4.183   5.453   7.856
 7141SOL     OW70261  10.209   7.921   7.548
 7141SOL    HW170262  10.298   7.936   7.591
 7141SOL    HW270263  10.141   7.983   7.588
 7142SOL     OW70264  10.712   7.573   1.512
 7142SOL    HW170265  10.717   7.606   1.606
 7142SOL    HW270266  10.688   7.649   1.452
 7143SOL     OW70267  10.771  15.483   2.652
 7143SOL    HW170268  10.825  15.457   2.572
 7143SOL    HW270269  10.800  15.430   2.731
 7144SOL     OW70270   0.494  15.834   1.509
 7144SOL    HW170271   0.477  15.741   1.542
 7144SOL    HW270272   0.459  15.843   1.416
 7145SOL     OW70273   7.668   5.802   7.533
 7145SOL    HW170274   7.673   5.886   7.587
 7145SOL    HW270275   7.574   5.785   7.505
 7146SOL     OW70276   5.387  15.626   0.213
 7146SOL    HW170277   5.352  15.581   0.295
 7146SOL    HW270278   5.481  15.596   0.196
 7147SOL     OW70279   8.462   6.250   1.644
 7147SOL    HW170280   8.464   6.258   1.544
 7147SOL    HW270281   8.553   6.225   1.677
 7148SOL     OW70282   9.070   1.196   0.495
 7148SOL    HW170283   8.984   1.147   0.505
 7148SOL    HW270284   9.113   1.171   0.409
 7149SOL     OW70285   5.466  13.449   1.358
 7149SOL    HW170286   5.453  13.500   1.443
 7149SOL    HW270287   5.379  13.408   1.329
 7150SOL     OW70288  13.777  12.732   6.828
 7150SOL    HW170289  13.846  12.660   6.831
 7150SOL    HW270290  13.794  12.793   6.750
 7151SOL     OW70291   8.711   7.272   8.158
 7151SOL    HW170292   8.784   7.332   8.125
 7151SOL    HW270293   8.738   7.231   8.245
 7152SOL     OW70294   6.148  14.139   1.617
 7152SOL    HW170295   6.174  14.058   1.564
 7152SOL    HW270296   6.115  14.111   1.707
 7153SOL     OW70297  14.084   2.715   7.438
 7153SOL    HW170298  13.998   2.712   7.490
 7153SOL    HW270299  14.161   2.708   7.501
 7154SOL     OW70300  16.561  13.847   2.358
 7154SOL    HW170301  16.571  13.945   2.340
 7154SOL    HW270302  16.485  13.832   2.422
 7155SOL     OW70303  12.198   9.551   7.142
 7155SOL    HW170304  12.189   9.525   7.238
 7155SOL    HW270305  12.174   9.473   7.084
 7156SOL     OW70306  14.004   4.104   1.895
 7156SOL    HW170307  14.017   4.093   1.994
 7156SOL    HW270308  14.032   4.196   1.868
 7157SOL     OW70309   2.539   7.250   0.399
 7157SOL    HW170310   2.630   7.237   0.437
 7157SOL    HW270311   2.517   7.348   0.397
 7158SOL     OW70312   2.433  12.868   7.499
 7158SOL    HW170313   2.377  12.939   7.542
 7158SOL    HW270314   2.375  12.789   7.479
 7159SOL     OW70315  16.399   6.674   7.295
 7159SOL    HW170316  16.386   6.771   7.314
 7159SOL    HW270317  16.423   6.662   7.198
 7160SOL     OW70318   2.856  16.398   7.199
 7160SOL    HW170319   2.948  16.431   7.176
 7160SOL    HW270320   2.810  16.370   7.115
 7161SOL     OW70321   0.237  16.499   7.698
 7161SOL    HW170322   0.259  16.540   7.610
 7161SOL    HW270323   0.238  16.400   7.690
 7162SOL     OW70324  14.135  13.355   6.604
 7162SOL    HW170325  14.168  13.449   6.603
 7162SOL    HW270326  14.060  13.346   6.538
 7163SOL     OW70327   3.008  15.770   1.658
 7163SOL    HW170328   3.002  15.737   1.564
 7163SOL    HW270329   3.076  15.843   1.663
 7164SOL     OW70330  12.179   2.627   6.964
 7164SOL    HW170331  12.150   2.548   6.911
 7164SOL    HW270332  12.239   2.685   6.908
 7165SOL     OW70333  11.230   5.137   6.311
 7165SOL    HW170334  11.167   5.214   6.317
 7165SOL    HW270335  11.324   5.170   6.315
 7166SOL     OW70336  12.789   1.413   5.936
 7166SOL    HW170337  12.795   1.343   6.007
 7166SOL    HW270338  12.861   1.398   5.868
 7167SOL     OW70339   3.730   5.088   0.512
 7167SOL    HW170340   3.780   5.001   0.504
 7167SOL    HW270341   3.781   5.160   0.466
 7168SOL     OW70342  11.856   4.301   1.064
 7168SOL    HW170343  11.870   4.208   1.033
 7168SOL    HW270344  11.764   4.331   1.040
 7169SOL     OW70345   4.375   6.786   7.354
 7169SOL    HW170346   4.380   6.877   7.395
 7169SOL    HW270347   4.464   6.761   7.317
 7170SOL     OW70348  14.477  10.563   0.183
 7170SOL    HW170349  14.388  10.565   0.138
 7170SOL    HW270350  14.470  10.609   0.272
 7171SOL     OW70351  10.561   4.345   6.910
 7171SOL    HW170352  10.608   4.278   6.966
 7171SOL    HW270353  10.562   4.434   6.956
 7172SOL     OW70354   8.482   6.285   1.377
 7172SOL    HW170355   8.518   6.200   1.337
 7172SOL    HW270356   8.424   6.331   1.311
 7173SOL     OW70357  10.236   1.161   7.726
 7173SOL    HW170358  10.151   1.134   7.680
 7173SOL    HW270359  10.214   1.207   7.812
 7174SOL     OW70360  13.044  13.288   0.650
 7174SOL    HW170361  12.984  13.222   0.604
 7174SOL    HW270362  12.988  13.355   0.699
 7175SOL     OW70363   7.600   7.889   8.125
 7175SOL    HW170364   7.571   7.856   8.035
 7175SOL    HW270365   7.629   7.812   8.181
 7176SOL     OW70366  14.750   8.770   1.217
 7176SOL    HW170367  14.668   8.814   1.253
 7176SOL    HW270368  14.823   8.773   1.286
 7177SOL     OW70369  13.533   5.714   1.090
 7177SOL    HW170370  13.549   5.617   1.076
 7177SOL    HW270371  13.606   5.766   1.046
 7178SOL     OW70372  13.550  16.244   0.177
 7178SOL    HW170373  13.562  16.146   0.161
 7178SOL    HW270374  13.513  16.287   0.094
 7179SOL     OW70375   9.899   5.007   6.550
 7179SOL    HW170376   9.854   5.073   6.609
 7179SOL    HW270377   9.995   4.997   6.578
 7180SOL     OW70378  12.648   3.816   0.722
 7180SOL    HW170379  12.745   3.797   0.704
 7180SOL    HW270380  12.598   3.813   0.635
 7181SOL     OW70381  10.410   2.056   1.137
 7181SOL    HW170382  10.396   2.049   1.236
 7181SOL    HW270383  10.503   2.087   1.119
 7182SOL     OW70384  13.211   3.438   1.372
 7182SOL    HW170385  13.221   3.395   1.462
 7182SOL    HW270386  13.237   3.535   1.378
 7183SOL     OW70387  16.853   4.480   6.094
 7183SOL    HW170388  16.822   4.402   6.040
 7183SOL    HW270389  16.899   4.546   6.034
 7184SOL     OW70390  13.838   8.973   1.199
 7184SOL    HW170391  13.827   8.942   1.293
 7184SOL    HW270392  13.868   9.068   1.198
 7185SOL     OW70393  12.776  13.271   1.692
 7185SOL    HW170394  12.812  13.342   1.752
 7185SOL    HW270395  12.676  13.281   1.685
 7186SOL     OW70396   6.399   9.087   0.196
 7186SOL    HW170397   6.427   9.136   0.278
 7186SOL    HW270398   6.429   9.137   0.115
 7187SOL     OW70399   9.508   6.453   6.604
 7187SOL    HW170400   9.560   6.459   6.690
 7187SOL    HW270401   9.571   6.433   6.529
 7188SOL     OW70402   9.237   1.193   0.925
 7188SOL    HW170403   9.300   1.155   0.994
 7188SOL    HW270404   9.172   1.123   0.898
 7189SOL     OW70405   6.773  14.471   1.348
 7189SOL    HW170406   6.798  14.547   1.408
 7189SOL    HW270407   6.853  14.413   1.333
 7190SOL     OW70408   0.612   7.509   8.358
 7190SOL    HW170409   0.675   7.439   8.325
 7190SOL    HW270410   0.529   7.508   8.302
 7191SOL     OW70411  15.990  15.367   0.426
 7191SOL    HW170412  15.936  15.283   0.419
 7191SOL    HW270413  16.060  15.367   0.354
 7192SOL     OW70414   8.216   0.076   0.041
 7192SOL    HW170415   8.126   0.119   0.035
 7192SOL    HW270416   8.248   0.052   8.403
 7193SOL     OW70417   1.196   1.210   7.492
 7193SOL    HW170418   1.227   1.225   7.398
 7193SOL    HW270419   1.249   1.136   7.533
 7194SOL     OW70420  16.646   3.656   6.909
 7194SOL    HW170421  16.715   3.595   6.948
 7194SOL    HW270422  16.681   3.749   6.905
 7195SOL     OW70423  16.890  10.870   1.235
 7195SOL    HW170424  16.928  10.856   1.327
 7195SOL    HW270425  16.809  10.929   1.242
 7196SOL     OW70426  13.231  13.767   0.547
 7196SOL    HW170427  13.296  13.695   0.521
 7196SOL    HW270428  13.192  13.746   0.637
 7197SOL     OW70429   9.476   1.139   7.067
 7197SOL    HW170430   9.453   1.045   7.093
 7197SOL    HW270431   9.400   1.199   7.090
 7198SOL     OW70432  14.294  10.658   7.155
 7198SOL    HW170433  14.381  10.624   7.120
 7198SOL    HW270434  14.297  10.757   7.163
 7199SOL     OW70435  16.828  10.166   7.459
 7199SOL    HW170436  16.873  10.082   7.490
 7199SOL    HW270437  16.814  10.162   7.360
 7200SOL     OW70438  10.326   1.798   1.074
 7200SOL    HW170439  10.339   1.895   1.096
 7200SOL    HW270440  10.280   1.752   1.151
 7201SOL     OW70441   5.666  16.613   2.130
 7201SOL    HW170442   5.575  16.573   2.141
 7201SOL    HW270443   5.657  16.710   2.106
 7202SOL     OW70444  16.911   0.893   0.562
 7202SOL    HW170445  16.982   0.877   0.631
 7202SOL    HW270446  16.837   0.946   0.603
 7203SOL     OW70447   3.644  11.138   8.313
 7203SOL    HW170448   3.744  11.143   8.314
 7203SOL    HW270449   3.608  11.211   8.256
 7204SOL     OW70450   7.572  15.418   1.114
 7204SOL    HW170451   7.578  15.500   1.170
 7204SOL    HW270452   7.478  15.403   1.085
 7205SOL     OW70453  16.738   5.140   0.911
 7205SOL    HW170454  16.784   5.185   0.835
 7205SOL    HW270455  16.795   5.145   0.993
 7206SOL     OW70456   0.879   7.731   0.252
 7206SOL    HW170457   0.821   7.662   0.210
 7206SOL    HW270458   0.975   7.712   0.231
 7207SOL     OW70459   1.828   8.341   6.722
 7207SOL    HW170460   1.838   8.315   6.819
 7207SOL    HW270461   1.889   8.285   6.667
 7208SOL     OW70462  12.069   8.966   6.714
 7208SOL    HW170463  12.040   8.938   6.806
 7208SOL    HW270464  12.100   9.061   6.716
 7209SOL     OW70465  12.495   6.812   1.430
 7209SOL    HW170466  12.436   6.821   1.350
 7209SOL    HW270467  12.458   6.865   1.505
 7210SOL     OW70468   0.642   9.197   7.282
 7210SOL    HW170469   0.716   9.259   7.257
 7210SOL    HW270470   0.569   9.201   7.214
 7211SOL     OW70471   3.349   4.212   1.587
 7211SOL    HW170472   3.391   4.278   1.524
 7211SOL    HW270473   3.359   4.120   1.550
 7212SOL     OW70474   6.936  10.241   0.960
 7212SOL    HW170475   6.899  10.260   1.050
 7212SOL    HW270476   6.864  10.205   0.901
 7213SOL     OW70477  15.289   8.926   1.127
 7213SOL    HW170478  15.371   8.875   1.100
 7213SOL    HW270479  15.237   8.873   1.194
 7214SOL     OW70480  14.170  15.667   7.409
 7214SOL    HW170481  14.230  15.736   7.451
 7214SOL    HW270482  14.105  15.712   7.349
 7215SOL     OW70483   7.842   5.654   7.373
 7215SOL    HW170484   7.797   5.583   7.320
 7215SOL    HW270485   7.773   5.709   7.420
 7216SOL     OW70486   9.767   4.001   7.758
 7216SOL    HW170487   9.769   3.948   7.843
 7216SOL    HW270488   9.675   4.037   7.742
 7217SOL     OW70489   7.825   2.925   6.802
 7217SOL    HW170490   7.742   2.872   6.788
 7217SOL    HW270491   7.864   2.951   6.713
 7218SOL     OW70492   8.668  12.340   1.592
 7218SOL    HW170493   8.744  12.404   1.582
 7218SOL    HW270494   8.641  12.305   1.503
 7219SOL     OW70495  12.270  13.466   7.180
 7219SOL    HW170496  12.261  13.505   7.088
 7219SOL    HW270497  12.193  13.404   7.197
 7220SOL     OW70498  15.421   5.702   7.772
 7220SOL    HW170499  15.330   5.714   7.733
 7220SOL    HW270500  15.444   5.605   7.773
 7221SOL     OW70501   1.082  10.575   0.163
 7221SOL    HW170502   1.031  10.637   0.103
 7221SOL    HW270503   1.134  10.510   0.106
 7222SOL     OW70504   6.967   1.852   7.510
 7222SOL    HW170505   6.994   1.820   7.419
 7222SOL    HW270506   6.867   1.851   7.518
 7223SOL     OW70507  11.244   8.260   0.708
 7223SOL    HW170508  11.294   8.291   0.627
 7223SOL    HW270509  11.204   8.170   0.690
 7224SOL     OW70510  15.634  14.256   6.670
 7224SOL    HW170511  15.712  14.198   6.645
 7224SOL    HW270512  15.599  14.302   6.588
 7225SOL     OW70513   9.374   0.886   7.745
 7225SOL    HW170514   9.301   0.818   7.737
 7225SOL    HW270515   9.462   0.840   7.759
 7226SOL     OW70516   8.531  16.054   8.196
 7226SOL    HW170517   8.568  16.124   8.135
 7226SOL    HW270518   8.530  15.965   8.149
 7227SOL     OW70519   9.053   0.362   1.476
 7227SOL    HW170520   8.976   0.316   1.520
 7227SOL    HW270521   9.138   0.319   1.504
 7228SOL     OW70522   4.888  13.656   7.503
 7228SOL    HW170523   4.950  13.596   7.553
 7228SOL    HW270524   4.917  13.751   7.516
 7229SOL     OW70525  13.153   5.114   8.056
 7229SOL    HW170526  13.199   5.201   8.069
 7229SOL    HW270527  13.061   5.130   8.019
 7230SOL     OW70528  11.167   6.032   7.835
 7230SOL    HW170529  11.265   6.039   7.853
 7230SOL    HW270530  11.116   6.046   7.920
 7231SOL     OW70531   5.263  11.906   6.036
 7231SOL    HW170532   5.342  11.954   5.997
 7231SOL    HW270533   5.188  11.970   6.048
 7232SOL     OW70534  10.033  16.245   6.188
 7232SOL    HW170535   9.959  16.189   6.151
 7232SOL    HW270536  10.097  16.269   6.115
 7233SOL     OW70537   8.268   1.039   0.134
 7233SOL    HW170538   8.182   1.087   0.148
 7233SOL    HW270539   8.273   1.007   0.039
 7234SOL     OW70540   5.382   1.645   1.135
 7234SOL    HW170541   5.299   1.649   1.080
 7234SOL    HW270542   5.358   1.621   1.230
 7235SOL     OW70543   0.561   3.958   7.325
 7235SOL    HW170544   0.494   3.927   7.393
 7235SOL    HW270545   0.561   4.058   7.321
 7236SOL     OW70546   4.821   6.065   1.789
 7236SOL    HW170547   4.729   6.027   1.782
 7236SOL    HW270548   4.820   6.161   1.762
 7237SOL     OW70549   5.600   2.088   2.153
 7237SOL    HW170550   5.562   2.059   2.241
 7237SOL    HW270551   5.629   2.183   2.158
 7238SOL     OW70552   9.084   2.426   7.908
 7238SOL    HW170553   9.011   2.359   7.895
 7238SOL    HW270554   9.092   2.449   8.005
 7239SOL     OW70555  11.825  14.065   6.682
 7239SOL    HW170556  11.916  14.045   6.647
 7239SOL    HW270557  11.830  14.081   6.781
 7240SOL     OW70558   0.603   3.091   0.945
 7240SOL    HW170559   0.587   3.119   1.040
 7240SOL    HW270560   0.590   2.992   0.937
 7241SOL     OW70561   9.810  11.867   0.108
 7241SOL    HW170562   9.808  11.787   0.048
 7241SOL    HW270563   9.852  11.841   0.196
 7242SOL     OW70564   1.024   9.826   7.476
 7242SOL    HW170565   1.007   9.898   7.543
 7242SOL    HW270566   1.093   9.763   7.512
 7243SOL     OW70567   3.167   5.814   1.629
 7243SOL    HW170568   3.178   5.811   1.529
 7243SOL    HW270569   3.220   5.740   1.670
 7244SOL     OW70570   9.469  10.575   1.051
 7244SOL    HW170571   9.387  10.521   1.029
 7244SOL    HW270572   9.443  10.672   1.060
 7245SOL     OW70573   6.250  11.469   7.664
 7245SOL    HW170574   6.258  11.480   7.763
 7245SOL    HW270575   6.287  11.550   7.618
 7246SOL     OW70576   0.234  10.405   2.224
 7246SOL    HW170577   0.248  10.493   2.268
 7246SOL    HW270578   0.220  10.334   2.293
 7247SOL     OW70579   6.810   0.849   1.616
 7247SOL    HW170580   6.733   0.885   1.668
 7247SOL    HW270581   6.854   0.775   1.667
 7248SOL     OW70582   1.583  14.650   8.209
 7248SOL    HW170583   1.665  14.608   8.248
 7248SOL    HW270584   1.503  14.624   8.263
 7249SOL     OW70585  16.111   9.989   7.590
 7249SOL    HW170586  16.050   9.943   7.654
 7249SOL    HW270587  16.064  10.066   7.548
 7250SOL     OW70588  16.001  14.474   1.095
 7250SOL    HW170589  15.947  14.396   1.061
 7250SOL    HW270590  16.073  14.495   1.029
 7251SOL     OW70591   7.447   0.594   0.577
 7251SOL    HW170592   7.399   0.622   0.660
 7251SOL    HW270593   7.381   0.590   0.501
 7252SOL     OW70594  13.743   0.930   6.882
 7252SOL    HW170595  13.828   0.899   6.925
 7252SOL    HW270596  13.666   0.892   6.933
 7253SOL     OW70597   7.409   6.429   6.513
 7253SOL    HW170598   7.426   6.496   6.585
 7253SOL    HW270599   7.494   6.381   6.492
 7254SOL     OW70600   7.965   4.945   7.241
 7254SOL    HW170601   7.903   4.880   7.286
 7254SOL    HW270602   8.060   4.918   7.260
 7255SOL     OW70603   0.660   7.095   0.605
 7255SOL    HW170604   0.727   7.066   0.673
 7255SOL    HW270605   0.690   7.066   0.514
 7256SOL     OW70606  15.519   9.850   0.635
 7256SOL    HW170607  15.491   9.754   0.631
 7256SOL    HW270608  15.581   9.870   0.559
 7257SOL     OW70609   3.026   2.922   8.109
 7257SOL    HW170610   3.053   3.008   8.153
 7257SOL    HW270611   2.959   2.940   8.038
 7258SOL     OW70612  12.117  10.117   7.035
 7258SOL    HW170613  12.047  10.057   6.998
 7258SOL    HW270614  12.126  10.102   7.134
 7259SOL     OW70615  16.250  11.290   8.294
 7259SOL    HW170616  16.159  11.290   8.336
 7259SOL    HW270617  16.270  11.199   8.258
 7260SOL     OW70618  10.161   6.776   6.842
 7260SOL    HW170619  10.188   6.854   6.898
 7260SOL    HW270620  10.061   6.772   6.836
 7261SOL     OW70621   4.826   2.951   0.289
 7261SOL    HW170622   4.809   3.045   0.260
 7261SOL    HW270623   4.741   2.910   0.321
 7262SOL     OW70624  14.566  10.767   0.914
 7262SOL    HW170625  14.572  10.835   0.841
 7262SOL    HW270626  14.512  10.689   0.882
 7263SOL     OW70627  15.650   7.170   0.657
 7263SOL    HW170628  15.698   7.082   0.654
 7263SOL    HW270629  15.715   7.243   0.676
 7264SOL     OW70630  14.840  11.796   2.248
 7264SOL    HW170631  14.792  11.749   2.174
 7264SOL    HW270632  14.775  11.823   2.319
 7265SOL     OW70633   3.178   7.126   6.000
 7265SOL    HW170634   3.187   7.225   6.008
 7265SOL    HW270635   3.081   7.102   5.989
 7266SOL     OW70636   5.034  13.572   0.257
 7266SOL    HW170637   4.957  13.616   0.304
 7266SOL    HW270638   5.084  13.640   0.204
 7267SOL     OW70639   5.145  14.540   7.916
 7267SOL    HW170640   5.171  14.526   8.012
 7267SOL    HW270641   5.204  14.483   7.858
 7268SOL     OW70642  14.599   9.344   2.311
 7268SOL    HW170643  14.585   9.442   2.325
 7268SOL    HW270644  14.615   9.299   2.399
 7269SOL     OW70645   0.768  15.308   7.763
 7269SOL    HW170646   0.690  15.323   7.824
 7269SOL    HW270647   0.737  15.261   7.681
 7270SOL     OW70648   5.293  12.426   8.454
 7270SOL    HW170649   5.199  12.443   0.027
 7270SOL    HW270650   5.313  12.328   0.008
 7271SOL     OW70651   8.848   0.658   1.459
 7271SOL    HW170652   8.822   0.593   1.530
 7271SOL    HW270653   8.797   0.743   1.472
 7272SOL     OW70654   7.737  15.233   8.423
 7272SOL    HW170655   7.751  15.148   0.020
 7272SOL    HW270656   7.646  15.232   8.381
 7273SOL     OW70657   1.389   6.855   6.636
 7273SOL    HW170658   1.304   6.853   6.689
 7273SOL    HW270659   1.391   6.937   6.579
 7274SOL     OW70660   6.607  14.904   0.701
 7274SOL    HW170661   6.528  14.853   0.735
 7274SOL    HW270662   6.610  14.899   0.602
 7275SOL     OW70663   1.602   8.323   1.165
 7275SOL    HW170664   1.541   8.401   1.180
 7275SOL    HW270665   1.599   8.262   1.244
 7276SOL     OW70666   0.003   9.300   7.073
 7276SOL    HW170667  16.942   9.297   6.984
 7276SOL    HW270668   0.021   9.395   7.098
 7277SOL     OW70669  15.459  10.344   1.026
 7277SOL    HW170670  15.555  10.370   1.024
 7277SOL    HW270671  15.448  10.258   1.074
 7278SOL     OW70672  15.451   0.892   0.118
 7278SOL    HW170673  15.466   0.885   0.019
 7278SOL    HW270674  15.471   0.804   0.161
 7279SOL     OW70675   2.197   2.317   8.329
 7279SOL    HW170676   2.184   2.373   8.248
 7279SOL    HW270677   2.128   2.244   8.330
 7280SOL     OW70678  13.146  14.994   0.519
 7280SOL    HW170679  13.142  15.007   0.420
 7280SOL    HW270680  13.185  14.905   0.540
 7281SOL     OW70681  13.343  16.870   6.802
 7281SOL    HW170682  13.434  16.844   6.835
 7281SOL    HW270683  13.277  16.861   6.877
 7282SOL     OW70684   4.724   6.923   1.390
 7282SOL    HW170685   4.765   6.840   1.429
 7282SOL    HW270686   4.644   6.898   1.336
 7283SOL     OW70687   9.592   7.105   7.425
 7283SOL    HW170688   9.591   7.148   7.335
 7283SOL    HW270689   9.547   7.165   7.491
 7284SOL     OW70690  10.317  10.853   0.532
 7284SOL    HW170691  10.374  10.812   0.460
 7284SOL    HW270692  10.368  10.854   0.618
 7285SOL     OW70693   3.427  14.076   2.447
 7285SOL    HW170694   3.421  14.167   2.489
 7285SOL    HW270695   3.360  14.068   2.373
 7286SOL     OW70696   1.456  13.553   2.026
 7286SOL    HW170697   1.389  13.627   2.027
 7286SOL    HW270698   1.448  13.502   1.940
 7287SOL     OW70699  12.044   6.808   1.851
 7287SOL    HW170700  12.126   6.767   1.891
 7287SOL    HW270701  12.008   6.877   1.913
 7288SOL     OW70702  13.277   0.768   8.001
 7288SOL    HW170703  13.304   0.677   7.969
 7288SOL    HW270704  13.208   0.806   7.939
 7289SOL     OW70705   6.541   4.797   7.721
 7289SOL    HW170706   6.456   4.848   7.712
 7289SOL    HW270707   6.601   4.842   7.787
 7290SOL     OW70708  14.371  16.481   7.909
 7290SOL    HW170709  14.345  16.516   7.999
 7290SOL    HW270710  14.459  16.520   7.882
 7291SOL     OW70711  11.255   3.704   8.162
 7291SOL    HW170712  11.257   3.783   8.101
 7291SOL    HW270713  11.334   3.646   8.144
 7292SOL     OW70714   2.491  11.707   6.339
 7292SOL    HW170715   2.580  11.705   6.294
 7292SOL    HW270716   2.446  11.619   6.329
 7293SOL     OW70717   7.747   2.206   2.130
 7293SOL    HW170718   7.756   2.276   2.201
 7293SOL    HW270719   7.809   2.130   2.151
 7294SOL     OW70720   3.858   4.138   1.976
 7294SOL    HW170721   3.815   4.180   1.896
 7294SOL    HW270722   3.890   4.210   2.038
 7295SOL     OW70723  16.798  14.725   6.844
 7295SOL    HW170724  16.712  14.710   6.797
 7295SOL    HW270725  16.873  14.687   6.790
 7296SOL     OW70726  15.047   0.520   1.175
 7296SOL    HW170727  15.110   0.551   1.104
 7296SOL    HW270728  14.954   0.549   1.152
 7297SOL     OW70729   2.303   9.142   7.126
 7297SOL    HW170730   2.299   9.075   7.052
 7297SOL    HW270731   2.384   9.200   7.115
 7298SOL     OW70732  16.628  11.638   2.111
 7298SOL    HW170733  16.727  11.629   2.104
 7298SOL    HW270734  16.606  11.717   2.169
 7299SOL     OW70735   2.339  10.633   0.445
 7299SOL    HW170736   2.384  10.711   0.401
 7299SOL    HW270737   2.248  10.660   0.477
 7300SOL     OW70738  15.185   3.294   6.206
 7300SOL    HW170739  15.183   3.387   6.171
 7300SOL    HW270740  15.147   3.232   6.137
 7301SOL     OW70741  10.020  12.047   1.712
 7301SOL    HW170742   9.992  12.140   1.691
 7301SOL    HW270743  10.120  12.041   1.709
 7302SOL     OW70744  13.559  16.205   6.644
 7302SOL    HW170745  13.522  16.157   6.565
 7302SOL    HW270746  13.507  16.180   6.726
 7303SOL     OW70747   5.136   5.257   7.322
 7303SOL    HW170748   5.225   5.256   7.278
 7303SOL    HW270749   5.126   5.177   7.381
 7304SOL     OW70750   8.231   8.049   6.513
 7304SOL    HW170751   8.210   7.984   6.440
 7304SOL    HW270752   8.329   8.068   6.514
 7305SOL     OW70753   4.849  10.750   1.378
 7305SOL    HW170754   4.898  10.664   1.386
 7305SOL    HW270755   4.806  10.756   1.288
 7306SOL     OW70756   6.562  10.185   1.214
 7306SOL    HW170757   6.513  10.191   1.127
 7306SOL    HW270758   6.533  10.102   1.263
 7307SOL     OW70759   2.992   2.636   7.888
 7307SOL    HW170760   2.923   2.654   7.818
 7307SOL    HW270761   3.043   2.553   7.863
 7308SOL     OW70762   5.854   7.344   1.141
 7308SOL    HW170763   5.892   7.252   1.133
 7308SOL    HW270764   5.848   7.386   1.050
 7309SOL     OW70765  16.203   2.195   1.257
 7309SOL    HW170766  16.239   2.263   1.321
 7309SOL    HW270767  16.196   2.106   1.303
 7310SOL     OW70768  16.496  15.152   0.039
 7310SOL    HW170769  16.410  15.189   0.006
 7310SOL    HW270770  16.566  15.223   0.039
 7311SOL     OW70771   3.147  13.798   2.899
 7311SOL    HW170772   3.203  13.848   2.964
 7311SOL    HW270773   3.098  13.725   2.946
 7312SOL     OW70774  13.896   8.161   7.426
 7312SOL    HW170775  13.961   8.088   7.406
 7312SOL    HW270776  13.928   8.246   7.383
 7313SOL     OW70777   4.457   6.459   6.195
 7313SOL    HW170778   4.478   6.381   6.137
 7313SOL    HW270779   4.518   6.535   6.173
 7314SOL     OW70780  14.157  10.384   2.497
 7314SOL    HW170781  14.176  10.303   2.552
 7314SOL    HW270782  14.090  10.441   2.545
 7315SOL     OW70783   9.269   6.063   6.908
 7315SOL    HW170784   9.352   6.008   6.900
 7315SOL    HW270785   9.293   6.160   6.914
 7316SOL     OW70786  11.131  10.132   5.955
 7316SOL    HW170787  11.120  10.102   6.050
 7316SOL    HW270788  11.184  10.216   5.953
 7317SOL     OW70789   9.352  15.827   2.018
 7317SOL    HW170790   9.337  15.899   1.951
 7317SOL    HW270791   9.443  15.836   2.058
 7318SOL     OW70792  13.659   9.744   0.230
 7318SOL    HW170793  13.604   9.781   0.156
 7318SOL    HW270794  13.637   9.647   0.242
 7319SOL     OW70795   0.203   6.458   7.238
 7319SOL    HW170796   0.193   6.388   7.168
 7319SOL    HW270797   0.300   6.477   7.253
 7320SOL     OW70798  12.641   6.745   8.210
 7320SOL    HW170799  12.663   6.701   8.123
 7320SOL    HW270800  12.542   6.752   8.219
 7321SOL     OW70801   2.020   1.029   7.073
 7321SOL    HW170802   1.968   0.957   7.117
 7321SOL    HW270803   1.972   1.059   6.990
 7322SOL     OW70804   1.265  13.369   0.982
 7322SOL    HW170805   1.328  13.447   0.979
 7322SOL    HW270806   1.171  13.402   0.988
 7323SOL     OW70807  10.422   8.643   7.216
 7323SOL    HW170808  10.502   8.659   7.158
 7323SOL    HW270809  10.412   8.545   7.232
 7324SOL     OW70810   6.166   0.576   1.656
 7324SOL    HW170811   6.156   0.497   1.595
 7324SOL    HW270812   6.219   0.549   1.737
 7325SOL     OW70813   0.013   5.924   7.084
 7325SOL    HW170814  16.899   5.917   7.106
 7325SOL    HW270815   0.040   5.847   7.026
 7326SOL     OW70816  10.198   6.638   0.500
 7326SOL    HW170817  10.126   6.673   0.440
 7326SOL    HW270818  10.286   6.674   0.470
 7327SOL     OW70819   6.947   2.503   0.090
 7327SOL    HW170820   6.939   2.409   0.058
 7327SOL    HW270821   6.879   2.520   0.161
 7328SOL     OW70822   0.678   0.449   0.556
 7328SOL    HW170823   0.624   0.441   0.473
 7328SOL    HW270824   0.684   0.545   0.582
 7329SOL     OW70825   0.229  14.459   0.044
 7329SOL    HW170826   0.201  14.411   0.128
 7329SOL    HW270827   0.163  14.531   0.024
 7330SOL     OW70828  12.156   4.820   7.822
 7330SOL    HW170829  12.087   4.752   7.795
 7330SOL    HW270830  12.240   4.805   7.771
 7331SOL     OW70831   3.934   0.309   0.093
 7331SOL    HW170832   4.026   0.311   0.054
 7331SOL    HW270833   3.892   0.399   0.084
 7332SOL     OW70834   3.385   4.924   7.524
 7332SOL    HW170835   3.453   4.995   7.507
 7332SOL    HW270836   3.405   4.844   7.468
 7333SOL     OW70837  14.817   6.994   5.940
 7333SOL    HW170838  14.795   6.976   5.844
 7333SOL    HW270839  14.791   7.088   5.964
 7334SOL     OW70840  16.458   2.941   8.185
 7334SOL    HW170841  16.495   3.007   8.119
 7334SOL    HW270842  16.368   2.910   8.155
 7335SOL     OW70843  11.463   7.863   8.258
 7335SOL    HW170844  11.541   7.821   8.210
 7335SOL    HW270845  11.380   7.810   8.239
 7336SOL     OW70846  10.532   8.821   0.354
 7336SOL    HW170847  10.624   8.833   0.392
 7336SOL    HW270848  10.483   8.752   0.407
 7337SOL     OW70849   5.460   9.442   8.422
 7337SOL    HW170850   5.505   9.401   0.048
 7337SOL    HW270851   5.410   9.524   8.450
 7338SOL     OW70852   9.555   6.562   1.289
 7338SOL    HW170853   9.591   6.645   1.246
 7338SOL    HW270854   9.457   6.573   1.306
 7339SOL     OW70855   3.479  15.636   1.919
 7339SOL    HW170856   3.566  15.588   1.928
 7339SOL    HW270857   3.495  15.728   1.884
 7340SOL     OW70858   7.543  15.004   1.183
 7340SOL    HW170859   7.622  15.062   1.165
 7340SOL    HW270860   7.519  14.953   1.100
 7341SOL     OW70861   2.152  12.385   7.159
 7341SOL    HW170862   2.058  12.394   7.192
 7341SOL    HW270863   2.151  12.366   7.061
 7342SOL     OW70864   3.676   4.115   1.537
 7342SOL    HW170865   3.626   4.140   1.454
 7342SOL    HW270866   3.766   4.079   1.511
 7343SOL     OW70867  16.047   1.945   0.866
 7343SOL    HW170868  16.101   1.993   0.797
 7343SOL    HW270869  15.991   1.875   0.821
 7344SOL     OW70870  15.986  10.183   8.245
 7344SOL    HW170871  16.022  10.226   8.162
 7344SOL    HW270872  16.021  10.232   8.325
 7345SOL     OW70873   2.421   3.798   1.467
 7345SOL    HW170874   2.418   3.732   1.543
 7345SOL    HW270875   2.397   3.889   1.501
 7346SOL     OW70876  16.546   8.772   0.474
 7346SOL    HW170877  16.616   8.703   0.455
 7346SOL    HW270878  16.540   8.835   0.397
 7347SOL     OW70879   3.608  14.499   1.117
 7347SOL    HW170880   3.518  14.540   1.134
 7347SOL    HW270881   3.642  14.530   1.028
 7348SOL     OW70882  16.818  13.499   1.884
 7348SOL    HW170883  16.858  13.499   1.976
 7348SOL    HW270884  16.891  13.502   1.816
 7349SOL     OW70885   1.956   0.173   7.188
 7349SOL    HW170886   2.046   0.178   7.144
 7349SOL    HW270887   1.950   0.242   7.259
 7350SOL     OW70888  13.164  12.630   0.767
 7350SOL    HW170889  13.109  12.665   0.691
 7350SOL    HW270890  13.251  12.680   0.771
 7351SOL     OW70891  10.592  11.550   0.023
 7351SOL    HW170892  10.629  11.641   0.002
 7351SOL    HW270893  10.667  11.483   0.021
 7352SOL     OW70894   1.554   8.620   0.741
 7352SOL    HW170895   1.611   8.631   0.660
 7352SOL    HW270896   1.604   8.653   0.821
 7353SOL     OW70897  16.729   2.421   7.430
 7353SOL    HW170898  16.639   2.452   7.461
 7353SOL    HW270899  16.750   2.333   7.473
 7354SOL     OW70900   6.850   0.589   0.541
 7354SOL    HW170901   6.845   0.539   0.628
 7354SOL    HW270902   6.838   0.687   0.558
 7355SOL     OW70903   1.946   7.727   7.654
 7355SOL    HW170904   2.045   7.726   7.644
 7355SOL    HW270905   1.916   7.640   7.694
 7356SOL     OW70906   7.642  16.307   1.154
 7356SOL    HW170907   7.592  16.394   1.149
 7356SOL    HW270908   7.721  16.318   1.214
 7357SOL     OW70909   9.389  12.618   8.216
 7357SOL    HW170910   9.311  12.584   8.163
 7357SOL    HW270911   9.474  12.591   8.170
 7358SOL     OW70912  11.831  12.275   7.687
 7358SOL    HW170913  11.752  12.215   7.677
 7358SOL    HW270914  11.809  12.365   7.649
 7359SOL     OW70915  11.002   3.095   8.406
 7359SOL    HW170916  10.965   3.185   8.431
 7359SOL    HW270917  11.058   3.104   8.324
 7360SOL     OW70918   2.852  12.156   2.226
 7360SOL    HW170919   2.882  12.205   2.308
 7360SOL    HW270920   2.793  12.079   2.253
 7361SOL     OW70921  16.703   1.400   7.663
 7361SOL    HW170922  16.627   1.342   7.633
 7361SOL    HW270923  16.700   1.408   7.763
 7362SOL     OW70924   9.487   6.869   7.319
 7362SOL    HW170925   9.529   6.950   7.360
 7362SOL    HW270926   9.406   6.843   7.371
 7363SOL     OW70927   0.961  11.814   1.070
 7363SOL    HW170928   1.020  11.849   1.143
 7363SOL    HW270929   1.001  11.837   0.981
 7364SOL     OW70930   2.197  15.407   7.365
 7364SOL    HW170931   2.200  15.471   7.442
 7364SOL    HW270932   2.290  15.384   7.336
 7365SOL     OW70933  12.701   6.997   0.388
 7365SOL    HW170934  12.716   7.033   0.295
 7365SOL    HW270935  12.631   7.052   0.434
 7366SOL     OW70936  10.860  15.644   7.204
 7366SOL    HW170937  10.953  15.661   7.171
 7366SOL    HW270938  10.858  15.656   7.303
 7367SOL     OW70939   3.637   4.566   0.654
 7367SOL    HW170940   3.735   4.553   0.663
 7367SOL    HW270941   3.604   4.516   0.573
 7368SOL     OW70942  16.440   4.092   8.261
 7368SOL    HW170943  16.535   4.071   8.240
 7368SOL    HW270944  16.416   4.182   8.224
 7369SOL     OW70945   5.815   3.315   6.823
 7369SOL    HW170946   5.730   3.367   6.830
 7369SOL    HW270947   5.872   3.333   6.903
 7370SOL     OW70948   1.249  15.309   6.433
 7370SOL    HW170949   1.331  15.356   6.401
 7370SOL    HW270950   1.168  15.353   6.395
 7371SOL     OW70951   2.407   4.083   1.031
 7371SOL    HW170952   2.420   4.172   1.075
 7371SOL    HW270953   2.402   4.012   1.101
 7372SOL     OW70954   8.954  16.204   2.235
 7372SOL    HW170955   8.974  16.301   2.218
 7372SOL    HW270956   9.031  16.162   2.283
 7373SOL     OW70957   6.079   1.052   1.058
 7373SOL    HW170958   6.135   1.128   1.025
 7373SOL    HW270959   6.108   0.967   1.012
 7374SOL     OW70960   7.004   1.406   1.870
 7374SOL    HW170961   7.045   1.497   1.877
 7374SOL    HW270962   7.014   1.372   1.777
 7375SOL     OW70963   2.708   0.614   8.203
 7375SOL    HW170964   2.704   0.649   8.296
 7375SOL    HW270965   2.738   0.687   8.141
 7376SOL     OW70966  16.231  14.860   0.163
 7376SOL    HW170967  16.236  14.870   0.064
 7376SOL    HW270968  16.308  14.909   0.205
 7377SOL     OW70969   7.254  12.939   1.033
 7377SOL    HW170970   7.316  12.998   0.982
 7377SOL    HW270971   7.227  12.861   0.976
 7378SOL     OW70972   3.017  14.313   1.608
 7378SOL    HW170973   3.029  14.278   1.701
 7378SOL    HW270974   3.059  14.251   1.543
 7379SOL     OW70975  12.986   9.376   0.637
 7379SOL    HW170976  13.029   9.293   0.674
 7379SOL    HW270977  12.966   9.440   0.711
 7380SOL     OW70978   9.408   1.787   7.163
 7380SOL    HW170979   9.351   1.806   7.083
 7380SOL    HW270980   9.455   1.700   7.151
 7381SOL     OW70981  13.300   4.621   6.463
 7381SOL    HW170982  13.251   4.639   6.378
 7381SOL    HW270983  13.274   4.532   6.499
 7382SOL     OW70984   9.920  13.094   7.855
 7382SOL    HW170985   9.917  13.194   7.845
 7382SOL    HW270986   9.921  13.052   7.764
 7383SOL     OW70987   2.061   9.547   1.143
 7383SOL    HW170988   2.037   9.556   1.047
 7383SOL    HW270989   1.979   9.554   1.199
 7384SOL     OW70990  10.562   4.219   7.531
 7384SOL    HW170991  10.566   4.121   7.515
 7384SOL    HW270992  10.655   4.254   7.545
 7385SOL     OW70993  15.073   9.841   8.098
 7385SOL    HW170994  15.080   9.742   8.082
 7385SOL    HW270995  14.982   9.873   8.073
 7386SOL     OW70996   8.223   4.761   7.931
 7386SOL    HW170997   8.203   4.804   7.843
 7386SOL    HW270998   8.309   4.710   7.925
 7387SOL     OW70999  15.380  14.411   8.451
 7387SOL    HW171000  15.368  14.392   0.095
 7387SOL    HW271001  15.297  14.385   8.402
 7388SOL     OW71002  15.727  11.930   6.910
 7388SOL    HW171003  15.729  12.023   6.875
 7388SOL    HW271004  15.819  11.890   6.904
 7389SOL     OW71005   7.017   4.817   6.829
 7389SOL    HW171006   7.035   4.912   6.804
 7389SOL    HW271007   7.102   4.774   6.859
 7390SOL     OW71008   3.938   3.706   7.785
 7390SOL    HW171009   3.847   3.693   7.745
 7390SOL    HW271010   3.930   3.758   7.870
 7391SOL     OW71011   1.962  11.400   6.630
 7391SOL    HW171012   1.936  11.488   6.589
 7391SOL    HW271013   1.889  11.334   6.614
 7392SOL     OW71014  11.620   5.447   6.396
 7392SOL    HW171015  11.720   5.438   6.397
 7392SOL    HW271016  11.591   5.507   6.470
 7393SOL     OW71017  10.194   1.422   0.844
 7393SOL    HW171018  10.247   1.383   0.768
 7393SOL    HW271019  10.210   1.367   0.927
 7394SOL     OW71020   1.808   9.866   2.219
 7394SOL    HW171021   1.786   9.836   2.312
 7394SOL    HW271022   1.792   9.792   2.155
 7395SOL     OW71023  16.236  13.808   1.720
 7395SOL    HW171024  16.318  13.831   1.774
 7395SOL    HW271025  16.195  13.893   1.686
 7396SOL     OW71026   6.606   8.563   7.474
 7396SOL    HW171027   6.636   8.526   7.386
 7396SOL    HW271028   6.672   8.537   7.545
 7397SOL     OW71029   7.104  16.486   1.460
 7397SOL    HW171030   7.118  16.560   1.525
 7397SOL    HW271031   7.031  16.510   1.396
 7398SOL     OW71032   8.039   4.476   1.841
 7398SOL    HW171033   7.973   4.432   1.902
 7398SOL    HW271034   8.017   4.454   1.746
 7399SOL     OW71035  12.463  16.927   7.834
 7399SOL    HW171036  12.507  16.956   7.919
 7399SOL    HW271037  12.400  16.852   7.851
 7400SOL     OW71038  16.545  12.000   0.234
 7400SOL    HW171039  16.488  12.027   0.312
 7400SOL    HW271040  16.641  11.997   0.262
 7401SOL     OW71041   3.720  14.374   0.064
 7401SOL    HW171042   3.790  14.445   0.053
 7401SOL    HW271043   3.655  14.403   0.134
 7402SOL     OW71044   5.783  10.237   6.841
 7402SOL    HW171045   5.745  10.150   6.875
 7402SOL    HW271046   5.750  10.312   6.898
 7403SOL     OW71047   8.749  14.000   7.003
 7403SOL    HW171048   8.694  13.936   6.950
 7403SOL    HW271049   8.792  14.065   6.942
 7404SOL     OW71050   9.603   3.754   6.699
 7404SOL    HW171051   9.546   3.673   6.687
 7404SOL    HW271052   9.545   3.836   6.697
 7405SOL     OW71053  13.070  12.026   1.137
 7405SOL    HW171054  13.033  11.936   1.114
 7405SOL    HW271055  13.017  12.066   1.211
 7406SOL     OW71056  10.079  15.218   2.437
 7406SOL    HW171057  10.075  15.313   2.467
 7406SOL    HW271058  10.027  15.161   2.502
 7407SOL     OW71059  10.975  15.537   7.883
 7407SOL    HW171060  10.938  15.630   7.887
 7407SOL    HW271061  11.059  15.538   7.829
 7408SOL     OW71062   7.705  11.468   6.684
 7408SOL    HW171063   7.734  11.402   6.614
 7408SOL    HW271064   7.621  11.512   6.654
 7409SOL     OW71065   3.316   9.165   7.279
 7409SOL    HW171066   3.325   9.214   7.193
 7409SOL    HW271067   3.406   9.158   7.323
 7410SOL     OW71068  16.034   2.715   0.673
 7410SOL    HW171069  16.038   2.761   0.585
 7410SOL    HW271070  15.943   2.727   0.713
 7411SOL     OW71071  11.973  12.728   0.968
 7411SOL    HW171072  11.953  12.660   0.897
 7411SOL    HW271073  12.067  12.763   0.955
 7412SOL     OW71074  13.503   2.570   0.140
 7412SOL    HW171075  13.519   2.567   0.239
 7412SOL    HW271076  13.574   2.517   0.093
 7413SOL     OW71077   4.387   8.566   7.452
 7413SOL    HW171078   4.384   8.663   7.427
 7413SOL    HW271079   4.445   8.555   7.533
 7414SOL     OW71080   7.196   4.063   0.012
 7414SOL    HW171081   7.189   3.990   0.080
 7414SOL    HW271082   7.233   4.145   0.055
 7415SOL     OW71083  10.340  10.388   0.725
 7415SOL    HW171084  10.257  10.393   0.781
 7415SOL    HW271085  10.354  10.293   0.695
 7416SOL     OW71086   9.750  12.639   7.313
 7416SOL    HW171087   9.688  12.567   7.281
 7416SOL    HW271088   9.697  12.720   7.338
 7417SOL     OW71089   6.982   3.313   0.959
 7417SOL    HW171090   6.986   3.255   0.878
 7417SOL    HW271091   7.001   3.258   1.040
 7418SOL     OW71092   2.620   8.373   6.918
 7418SOL    HW171093   2.597   8.286   6.875
 7418SOL    HW271094   2.682   8.356   6.995
 7419SOL     OW71095   5.229  12.012   7.832
 7419SOL    HW171096   5.175  11.931   7.813
 7419SOL    HW271097   5.326  11.991   7.819
 7420SOL     OW71098   0.231   2.047   6.748
 7420SOL    HW171099   0.298   2.095   6.692
 7420SOL    HW271100   0.160   2.111   6.778
 7421SOL     OW71101   0.910   5.642   7.563
 7421SOL    HW171102   0.937   5.569   7.501
 7421SOL    HW271103   0.814   5.666   7.548
 7422SOL     OW71104  15.915  16.387   6.970
 7422SOL    HW171105  15.819  16.400   6.945
 7422SOL    HW271106  15.962  16.475   6.966
 7423SOL     OW71107   8.500   4.673   6.521
 7423SOL    HW171108   8.414   4.721   6.503
 7423SOL    HW271109   8.533   4.630   6.437
 7424SOL     OW71110   3.755   9.710   7.078
 7424SOL    HW171111   3.808   9.771   7.137
 7424SOL    HW271112   3.678   9.673   7.129
 7425SOL     OW71113  15.460  14.303   0.810
 7425SOL    HW171114  15.446  14.401   0.797
 7425SOL    HW271115  15.556  14.281   0.793
 7426SOL     OW71116   3.956   5.586   7.166
 7426SOL    HW171117   4.053   5.591   7.142
 7426SOL    HW271118   3.904   5.552   7.087
 7427SOL     OW71119  15.844   1.224   6.683
 7427SOL    HW171120  15.920   1.163   6.705
 7427SOL    HW271121  15.821   1.216   6.586
 7428SOL     OW71122   9.227  16.611   0.748
 7428SOL    HW171123   9.323  16.637   0.738
 7428SOL    HW271124   9.175  16.643   0.668
 7429SOL     OW71125  15.045  13.699   7.338
 7429SOL    HW171126  15.065  13.673   7.432
 7429SOL    HW271127  14.978  13.636   7.299
 7430SOL     OW71128   3.849  11.503   1.714
 7430SOL    HW171129   3.808  11.590   1.685
 7430SOL    HW271130   3.881  11.511   1.808
 7431SOL     OW71131   6.626   4.604   6.752
 7431SOL    HW171132   6.700   4.652   6.705
 7431SOL    HW271133   6.538   4.634   6.714
 7432SOL     OW71134  16.679   9.414   1.244
 7432SOL    HW171135  16.753   9.369   1.294
 7432SOL    HW271136  16.709   9.505   1.215
 7433SOL     OW71137   8.054  15.403   6.341
 7433SOL    HW171138   7.974  15.437   6.290
 7433SOL    HW271139   8.131  15.465   6.328
 7434SOL     OW71140   3.613   2.785   8.306
 7434SOL    HW171141   3.574   2.700   8.343
 7434SOL    HW271142   3.684   2.763   8.240
 7435SOL     OW71143   6.746   9.463   0.081
 7435SOL    HW171144   6.819   9.396   0.082
 7435SOL    HW271145   6.709   9.475   0.173
 7436SOL     OW71146   6.274   0.074   6.851
 7436SOL    HW171147   6.247   0.064   6.755
 7436SOL    HW271148   6.355   0.018   6.868
 7437SOL     OW71149   8.734   8.700   7.540
 7437SOL    HW171150   8.713   8.616   7.490
 7437SOL    HW271151   8.650   8.753   7.553
 7438SOL     OW71152   9.423  15.160   0.339
 7438SOL    HW171153   9.518  15.133   0.350
 7438SOL    HW271154   9.385  15.187   0.428
 7439SOL     OW71155  13.776  15.954   6.505
 7439SOL    HW171156  13.800  15.985   6.413
 7439SOL    HW271157  13.684  15.917   6.505
 7440SOL     OW71158   7.753   0.563   0.173
 7440SOL    HW171159   7.672   0.597   0.125
 7440SOL    HW271160   7.830   0.558   0.109
 7441SOL     OW71161  11.609   2.997   5.955
 7441SOL    HW171162  11.624   2.908   5.997
 7441SOL    HW271163  11.697   3.045   5.946
 7442SOL     OW71164   3.245   7.859   7.275
 7442SOL    HW171165   3.213   7.845   7.369
 7442SOL    HW271166   3.196   7.936   7.234
 7443SOL     OW71167   7.731   7.795   1.470
 7443SOL    HW171168   7.688   7.782   1.559
 7443SOL    HW271169   7.829   7.809   1.482
 7444SOL     OW71170  13.190   3.820   8.230
 7444SOL    HW171171  13.264   3.770   8.276
 7444SOL    HW271172  13.229   3.883   8.164
 7445SOL     OW71173   3.288  13.765   2.667
 7445SOL    HW171174   3.371  13.816   2.692
 7445SOL    HW271175   3.227  13.760   2.747
 7446SOL     OW71176   3.062   1.530   7.281
 7446SOL    HW171177   3.156   1.503   7.263
 7446SOL    HW271178   3.030   1.487   7.365
 7447SOL     OW71179   4.384   6.804   0.439
 7447SOL    HW171180   4.360   6.804   0.536
 7447SOL    HW271181   4.362   6.715   0.400
 7448SOL     OW71182   0.405   2.094   6.195
 7448SOL    HW171183   0.310   2.076   6.219
 7448SOL    HW271184   0.411   2.121   6.099
 7449SOL     OW71185   7.575   8.791   6.585
 7449SOL    HW171186   7.533   8.719   6.640
 7449SOL    HW271187   7.622   8.750   6.507
 7450SOL     OW71188  12.603  16.550   0.334
 7450SOL    HW171189  12.528  16.503   0.288
 7450SOL    HW271190  12.690  16.516   0.297
 7451SOL     OW71191   2.415   3.661   0.715
 7451SOL    HW171192   2.335   3.701   0.760
 7451SOL    HW271193   2.499   3.698   0.755
 7452SOL     OW71194   9.789   6.558   1.453
 7452SOL    HW171195   9.776   6.577   1.550
 7452SOL    HW271196   9.700   6.548   1.409
 7453SOL     OW71197   5.022   6.211   6.911
 7453SOL    HW171198   5.033   6.188   7.008
 7453SOL    HW271199   5.101   6.177   6.860
 7454SOL     OW71200  12.237   2.791   5.857
 7454SOL    HW171201  12.174   2.838   5.795
 7454SOL    HW271202  12.225   2.692   5.848
 7455SOL     OW71203   6.861  11.558   6.196
 7455SOL    HW171204   6.909  11.604   6.122
 7455SOL    HW271205   6.869  11.459   6.184
 7456SOL     OW71206   6.719   1.824   8.414
 7456SOL    HW171207   6.760   1.735   8.433
 7456SOL    HW271208   6.731   1.884   0.039
 7457SOL     OW71209  10.090   5.653   7.844
 7457SOL    HW171210  10.035   5.602   7.779
 7457SOL    HW271211  10.170   5.599   7.869
 7458SOL     OW71212   0.019   1.711   0.037
 7458SOL    HW171213  16.975   1.710   0.133
 7458SOL    HW271214   0.041   1.618   0.008
 7459SOL     OW71215   2.197   2.108   7.068
 7459SOL    HW171216   2.253   2.054   7.005
 7459SOL    HW271217   2.253   2.137   7.147
 7460SOL     OW71218  15.978   0.618   0.484
 7460SOL    HW171219  15.981   0.602   0.385
 7460SOL    HW271220  15.958   0.532   0.531
 7461SOL     OW71221   1.145   2.215   0.180
 7461SOL    HW171222   1.198   2.271   0.116
 7461SOL    HW271223   1.050   2.247   0.181
 7462SOL     OW71224   7.488   8.810   0.286
 7462SOL    HW171225   7.482   8.865   0.202
 7462SOL    HW271226   7.571   8.836   0.336
 7463SOL     OW71227   7.895   5.198   0.990
 7463SOL    HW171228   7.860   5.289   1.012
 7463SOL    HW271229   7.878   5.137   1.068
 7464SOL     OW71230  16.900  11.056   7.476
 7464SOL    HW171231  16.899  10.993   7.553
 7464SOL    HW271232  16.885  11.149   7.508
 7465SOL     OW71233   2.852   9.428   0.798
 7465SOL    HW171234   2.825   9.507   0.743
 7465SOL    HW271235   2.779   9.408   0.864
 7466SOL     OW71236  11.095   7.618   7.995
 7466SOL    HW171237  11.091   7.696   7.933
 7466SOL    HW271238  11.145   7.643   8.078
 7467SOL     OW71239  11.037   0.627   1.937
 7467SOL    HW171240  11.120   0.574   1.921
 7467SOL    HW271241  11.007   0.614   2.032
 7468SOL     OW71242   1.556   4.779   0.023
 7468SOL    HW171243   1.585   4.711   8.409
 7468SOL    HW271244   1.631   4.842   0.042
 7469SOL     OW71245   4.630  15.215   1.453
 7469SOL    HW171246   4.704  15.237   1.518
 7469SOL    HW271247   4.644  15.123   1.417
 7470SOL     OW71248   9.981   0.939   0.874
 7470SOL    HW171249   9.945   0.994   0.798
 7470SOL    HW271250  10.028   0.859   0.838
 7471SOL     OW71251   9.851  16.447   7.645
 7471SOL    HW171252   9.884  16.475   7.735
 7471SOL    HW271253   9.868  16.519   7.578
 7472SOL     OW71254   6.207  14.925   8.141
 7472SOL    HW171255   6.150  14.850   8.107
 7472SOL    HW271256   6.255  14.896   8.224
 7473SOL     OW71257   9.918   8.302   0.937
 7473SOL    HW171258   9.941   8.291   0.840
 7473SOL    HW271259   9.825   8.337   0.946
 7474SOL     OW71260   7.117   2.947   8.260
 7474SOL    HW171261   7.205   2.984   8.232
 7474SOL    HW271262   7.105   2.960   8.359
 7475SOL     OW71263   5.736   2.064   6.910
 7475SOL    HW171264   5.810   2.114   6.866
 7475SOL    HW271265   5.768   1.972   6.935
 7476SOL     OW71266   9.591   7.636   0.095
 7476SOL    HW171267   9.664   7.699   0.070
 7476SOL    HW271268   9.578   7.569   0.022
 7477SOL     OW71269   9.317  10.197   1.059
 7477SOL    HW171270   9.395  10.180   0.999
 7477SOL    HW271271   9.259  10.116   1.063
 7478SOL     OW71272   9.787   9.238   7.586
 7478SOL    HW171273   9.707   9.178   7.581
 7478SOL    HW271274   9.799   9.272   7.679
 7479SOL     OW71275   5.269   1.475   7.820
 7479SOL    HW171276   5.323   1.415   7.762
 7479SOL    HW271277   5.231   1.424   7.897
 7480SOL     OW71278  13.617   6.446   1.618
 7480SOL    HW171279  13.683   6.452   1.542
 7480SOL    HW271280  13.618   6.532   1.669
 7481SOL     OW71281   4.598  15.649   6.996
 7481SOL    HW171282   4.650  15.579   7.045
 7481SOL    HW271283   4.655  15.688   6.923
 7482SOL     OW71284   7.531   2.715   1.812
 7482SOL    HW171285   7.518   2.804   1.856
 7482SOL    HW271286   7.487   2.644   1.868
 7483SOL     OW71287  15.749   5.666   6.243
 7483SOL    HW171288  15.834   5.698   6.201
 7483SOL    HW271289  15.694   5.619   6.174
 7484SOL     OW71290   9.575  11.834   7.661
 7484SOL    HW171291   9.495  11.774   7.667
 7484SOL    HW271292   9.658  11.778   7.662
 7485SOL     OW71293   2.571   6.066   0.640
 7485SOL    HW171294   2.628   6.133   0.689
 7485SOL    HW271295   2.558   6.096   0.546
 7486SOL     OW71296   9.697   8.642   2.293
 7486SOL    HW171297   9.618   8.669   2.347
 7486SOL    HW271298   9.667   8.596   2.209
 7487SOL     OW71299   0.526  12.912   2.810
 7487SOL    HW171300   0.588  12.873   2.878
 7487SOL    HW271301   0.454  12.845   2.789
 7488SOL     OW71302  11.945   3.776   0.280
 7488SOL    HW171303  11.973   3.826   0.198
 7488SOL    HW271304  11.944   3.678   0.261
 7489SOL     OW71305   2.608  10.318   1.342
 7489SOL    HW171306   2.554  10.270   1.411
 7489SOL    HW271307   2.548  10.351   1.270
 7490SOL     OW71308  14.266   9.594   6.201
 7490SOL    HW171309  14.183   9.574   6.149
 7490SOL    HW271310  14.299   9.685   6.178
 7491SOL     OW71311  12.014  15.216   6.521
 7491SOL    HW171312  12.061  15.141   6.476
 7491SOL    HW271313  11.923  15.227   6.480
 7492SOL     OW71314  12.417   5.731   1.618
 7492SOL    HW171315  12.342   5.665   1.613
 7492SOL    HW271316  12.459   5.727   1.709
 7493SOL     OW71317  14.199   3.921   8.398
 7493SOL    HW171318  14.250   3.836   8.413
 7493SOL    HW271319  14.124   3.902   8.334
 7494SOL     OW71320   9.475   8.994   0.362
 7494SOL    HW171321   9.523   8.982   0.275
 7494SOL    HW271322   9.423   9.079   0.360
 7495SOL     OW71323   8.499   9.472   1.359
 7495SOL    HW171324   8.410   9.480   1.405
 7495SOL    HW271325   8.572   9.496   1.423
 7496SOL     OW71326   9.781  10.075   7.580
 7496SOL    HW171327   9.868  10.033   7.553
 7496SOL    HW271328   9.768  10.063   7.679
 7497SOL     OW71329  12.510  14.146   8.306
 7497SOL    HW171330  12.492  14.065   8.251
 7497SOL    HW271331  12.607  14.170   8.299
 7498SOL     OW71332  16.240   0.971   6.565
 7498SOL    HW171333  16.266   0.978   6.469
 7498SOL    HW271334  16.199   0.881   6.582
 7499SOL     OW71335   8.383  14.994   0.736
 7499SOL    HW171336   8.289  15.017   0.711
 7499SOL    HW271337   8.416  14.920   0.678
 7500SOL     OW71338  14.748   8.231   7.173
 7500SOL    HW171339  14.747   8.136   7.204
 7500SOL    HW271340  14.763   8.292   7.251
 7501SOL     OW71341  10.435   5.184   7.982
 7501SOL    HW171342  10.383   5.099   7.973
 7501SOL    HW271343  10.442   5.229   7.893
 7502SOL     OW71344  13.858   1.016   2.133
 7502SOL    HW171345  13.794   0.940   2.144
 7502SOL    HW271346  13.836   1.089   2.197
 7503SOL     OW71347  14.963   1.370   6.822
 7503SOL    HW171348  15.058   1.399   6.835
 7503SOL    HW271349  14.960   1.270   6.817
 7504SOL     OW71350  13.002  10.392   7.726
 7504SOL    HW171351  13.069  10.353   7.663
 7504SOL    HW271352  13.049  10.432   7.805
 7505SOL     OW71353  11.317  13.644   1.528
 7505SOL    HW171354  11.411  13.610   1.533
 7505SOL    HW271355  11.316  13.734   1.484
 7506SOL     OW71356   7.218  11.011   1.868
 7506SOL    HW171357   7.216  11.074   1.790
 7506SOL    HW271358   7.180  11.057   1.948
 7507SOL     OW71359   6.502  11.817   8.156
 7507SOL    HW171360   6.418  11.859   8.190
 7507SOL    HW271361   6.544  11.763   8.229
 7508SOL     OW71362   0.845   6.955   1.336
 7508SOL    HW171363   0.803   7.045   1.320
 7508SOL    HW271364   0.914   6.938   1.265
 7509SOL     OW71365  15.481   2.178   0.363
 7509SOL    HW171366  15.559   2.176   0.300
 7509SOL    HW271367  15.417   2.106   0.339
 7510SOL     OW71368   0.549   9.774   6.887
 7510SOL    HW171369   0.568   9.707   6.958
 7510SOL    HW271370   0.589   9.745   6.800
 7511SOL     OW71371   5.661   2.410   6.502
 7511SOL    HW171372   5.756   2.382   6.483
 7511SOL    HW271373   5.618   2.439   6.416
 7512SOL     OW71374   9.032   1.780   7.700
 7512SOL    HW171375   9.132   1.771   7.700
 7512SOL    HW271376   8.997   1.767   7.608
 7513SOL     OW71377  13.726  13.459   0.045
 7513SOL    HW171378  13.765  13.368   0.033
 7513SOL    HW271379  13.792  13.528   0.016
 7514SOL     OW71380  11.189   4.008   7.578
 7514SOL    HW171381  11.160   4.075   7.647
 7514SOL    HW271382  11.289   4.005   7.575
 7515SOL     OW71383   4.859   8.047   1.221
 7515SOL    HW171384   4.901   8.069   1.309
 7515SOL    HW271385   4.764   8.077   1.221
 7516SOL     OW71386  11.197   7.964   7.389
 7516SOL    HW171387  11.233   7.916   7.310
 7516SOL    HW271388  11.157   8.051   7.361
 7517SOL     OW71389  11.084  10.694   1.667
 7517SOL    HW171390  11.025  10.630   1.617
 7517SOL    HW271391  11.167  10.646   1.697
 7518SOL     OW71392   5.453   3.841   1.148
 7518SOL    HW171393   5.547   3.862   1.122
 7518SOL    HW271394   5.396   3.923   1.137
 7519SOL     OW71395   5.475   6.769   1.552
 7519SOL    HW171396   5.428   6.684   1.529
 7519SOL    HW271397   5.407   6.842   1.564
 7520SOL     OW71398   4.105  14.741   2.318
 7520SOL    HW171399   4.054  14.732   2.403
 7520SOL    HW271400   4.204  14.739   2.337
 7521SOL     OW71401  11.427   9.707   7.781
 7521SOL    HW171402  11.365   9.777   7.817
 7521SOL    HW271403  11.437   9.718   7.683
 7522SOL     OW71404  10.694  13.647   1.827
 7522SOL    HW171405  10.645  13.583   1.767
 7522SOL    HW271406  10.635  13.725   1.848
 7523SOL     OW71407   3.790   3.350   0.866
 7523SOL    HW171408   3.809   3.443   0.834
 7523SOL    HW271409   3.865   3.317   0.923
 7524SOL     OW71410  14.055  15.589   0.507
 7524SOL    HW171411  14.153  15.603   0.517
 7524SOL    HW271412  14.022  15.526   0.577
 7525SOL     OW71413  12.953  10.275   1.431
 7525SOL    HW171414  12.960  10.362   1.481
 7525SOL    HW271415  13.019  10.276   1.355
 7526SOL     OW71416   0.192  11.720   8.014
 7526SOL    HW171417   0.139  11.748   7.934
 7526SOL    HW271418   0.210  11.799   8.072
 7527SOL     OW71419   8.337   2.407   1.650
 7527SOL    HW171420   8.336   2.308   1.665
 7527SOL    HW271421   8.258   2.448   1.694
 7528SOL     OW71422  10.860  10.469   7.935
 7528SOL    HW171423  10.763  10.490   7.925
 7528SOL    HW271424  10.915  10.541   7.893
 7529SOL     OW71425   6.602   2.566   6.692
 7529SOL    HW171426   6.677   2.588   6.631
 7529SOL    HW271427   6.610   2.621   6.775
 7530SOL     OW71428   8.670  10.175   6.914
 7530SOL    HW171429   8.746  10.207   6.858
 7530SOL    HW271430   8.585  10.214   6.879
 7531SOL     OW71431  14.695   0.391   7.781
 7531SOL    HW171432  14.780   0.431   7.747
 7531SOL    HW271433  14.713   0.343   7.867
 7532SOL     OW71434  12.100  16.778   1.436
 7532SOL    HW171435  12.130  16.684   1.426
 7532SOL    HW271436  12.079  16.796   1.533
 7533SOL     OW71437   3.649   4.217   7.443
 7533SOL    HW171438   3.695   4.154   7.380
 7533SOL    HW271439   3.648   4.309   7.403
 7534SOL     OW71440  13.701   3.210   0.434
 7534SOL    HW171441  13.777   3.238   0.375
 7534SOL    HW271442  13.706   3.260   0.521
 7535SOL     OW71443   3.147   8.401   0.663
 7535SOL    HW171444   3.192   8.489   0.677
 7535SOL    HW271445   3.105   8.371   0.749
 7536SOL     OW71446  16.588   5.052   6.737
 7536SOL    HW171447  16.677   5.008   6.740
 7536SOL    HW271448  16.593   5.136   6.682
 7537SOL     OW71449  13.263   8.277   7.036
 7537SOL    HW171450  13.321   8.309   7.111
 7537SOL    HW271451  13.172   8.317   7.045
 7538SOL     OW71452   9.281   6.631   5.854
 7538SOL    HW171453   9.357   6.694   5.869
 7538SOL    HW271454   9.309   6.560   5.789
 7539SOL     OW71455   7.006   9.008   0.994
 7539SOL    HW171456   6.966   9.099   0.982
 7539SOL    HW271457   7.046   8.977   0.907
 7540SOL     OW71458  11.818   5.863   0.455
 7540SOL    HW171459  11.916   5.877   0.437
 7540SOL    HW271460  11.807   5.784   0.515
 7541SOL     OW71461   2.133   7.402   8.233
 7541SOL    HW171462   2.075   7.480   8.209
 7541SOL    HW271463   2.078   7.318   8.231
 7542SOL     OW71464  14.425   4.182   6.419
 7542SOL    HW171465  14.328   4.164   6.399
 7542SOL    HW271466  14.475   4.191   6.333
 7543SOL     OW71467   0.226   0.875   7.652
 7543SOL    HW171468   0.259   0.969   7.662
 7543SOL    HW271469   0.181   0.846   7.736
 7544SOL     OW71470  16.642   7.298   5.969
 7544SOL    HW171471  16.572   7.360   5.933
 7544SOL    HW271472  16.722   7.350   5.997
 7545SOL     OW71473   6.336   8.776   2.167
 7545SOL    HW171474   6.258   8.820   2.211
 7545SOL    HW271475   6.413   8.772   2.231
 7546SOL     OW71476   2.228  11.761   7.480
 7546SOL    HW171477   2.259  11.732   7.571
 7546SOL    HW271478   2.149  11.707   7.452
 7547SOL     OW71479  15.788  15.149   6.731
 7547SOL    HW171480  15.811  15.220   6.665
 7547SOL    HW271481  15.770  15.063   6.684
 7548SOL     OW71482   7.073   1.976   6.751
 7548SOL    HW171483   7.084   2.070   6.785
 7548SOL    HW271484   6.980   1.963   6.717
 7549SOL     OW71485   6.832  15.913   1.190
 7549SOL    HW171486   6.894  15.971   1.243
 7549SOL    HW271487   6.851  15.925   1.093
 7550SOL     OW71488   5.415   9.579   0.489
 7550SOL    HW171489   5.490   9.591   0.423
 7550SOL    HW271490   5.386   9.668   0.522
 7551SOL     OW71491   0.940   1.624   1.075
 7551SOL    HW171492   1.002   1.666   1.009
 7551SOL    HW271493   0.910   1.535   1.041
 7552SOL     OW71494   8.679  14.997   1.223
 7552SOL    HW171495   8.721  15.088   1.231
 7552SOL    HW271496   8.630  14.991   1.136
 7553SOL     OW71497  16.274   9.868   7.240
 7553SOL    HW171498  16.303   9.963   7.251
 7553SOL    HW271499  16.354   9.812   7.216
 7554SOL     OW71500  14.468   4.451   1.239
 7554SOL    HW171501  14.523   4.524   1.199
 7554SOL    HW271502  14.385   4.490   1.278
 7555SOL     OW71503  11.504   2.711   1.122
 7555SOL    HW171504  11.537   2.805   1.113
 7555SOL    HW271505  11.443   2.704   1.200
 7556SOL     OW71506   6.897   1.483   6.794
 7556SOL    HW171507   6.939   1.396   6.770
 7556SOL    HW271508   6.967   1.548   6.822
 7557SOL     OW71509   9.606   2.132   0.807
 7557SOL    HW171510   9.550   2.194   0.862
 7557SOL    HW271511   9.600   2.039   0.842
 7558SOL     OW71512   3.665  11.469   8.346
 7558SOL    HW171513   3.728  11.413   8.399
 7558SOL    HW271514   3.657  11.559   8.387
 7559SOL     OW71515   9.948   5.957   7.475
 7559SOL    HW171516   9.997   5.950   7.561
 7559SOL    HW271517   9.899   5.872   7.457
 7560SOL     OW71518  10.853  14.842   6.550
 7560SOL    HW171519  10.773  14.813   6.498
 7560SOL    HW271520  10.936  14.811   6.503
 7561SOL     OW71521  16.240   3.253   6.600
 7561SOL    HW171522  16.304   3.270   6.674
 7561SOL    HW271523  16.282   3.279   6.513
 7562SOL     OW71524   4.792  13.329   7.290
 7562SOL    HW171525   4.736  13.404   7.254
 7562SOL    HW271526   4.888  13.345   7.267
 7563SOL     OW71527   8.497   8.096   6.521
 7563SOL    HW171528   8.541   8.160   6.584
 7563SOL    HW271529   8.567   8.054   6.462
 7564SOL     OW71530   8.793   3.103   0.687
 7564SOL    HW171531   8.889   3.083   0.707
 7564SOL    HW271532   8.736   3.074   0.764
 7565SOL     OW71533   2.346   5.516   1.131
 7565SOL    HW171534   2.321   5.471   1.217
 7565SOL    HW271535   2.425   5.470   1.092
 7566SOL     OW71536   2.999   5.285   6.160
 7566SOL    HW171537   3.048   5.276   6.073
 7566SOL    HW271538   2.900   5.276   6.144
 7567SOL     OW71539   5.095   0.760   0.846
 7567SOL    HW171540   5.082   0.706   0.762
 7567SOL    HW271541   5.112   0.856   0.822
 7568SOL     OW71542  11.954  15.982   7.786
 7568SOL    HW171543  11.901  15.920   7.730
 7568SOL    HW271544  11.924  16.076   7.770
 7569SOL     OW71545   6.814  15.160   0.190
 7569SOL    HW171546   6.775  15.068   0.179
 7569SOL    HW271547   6.853  15.168   0.281
 7570SOL     OW71548   3.021  16.860   1.956
 7570SOL    HW171549   2.975  16.878   1.869
 7570SOL    HW271550   3.067  16.772   1.951
 7571SOL     OW71551  14.744  12.446   0.986
 7571SOL    HW171552  14.825  12.497   1.017
 7571SOL    HW271553  14.667  12.508   0.976
 7572SOL     OW71554  16.227  15.875   7.925
 7572SOL    HW171555  16.196  15.804   7.988
 7572SOL    HW271556  16.214  15.965   7.966
 7573SOL     OW71557  12.462   8.774   1.959
 7573SOL    HW171558  12.535   8.709   1.938
 7573SOL    HW271559  12.428   8.757   2.051
 7574SOL     OW71560  10.084  13.858   0.936
 7574SOL    HW171561  10.027  13.801   0.876
 7574SOL    HW271562  10.073  13.827   1.031
 7575SOL     OW71563   2.329   6.150   7.226
 7575SOL    HW171564   2.303   6.244   7.205
 7575SOL    HW271565   2.426   6.147   7.251
 7576SOL     OW71566  14.874  16.544   7.641
 7576SOL    HW171567  14.867  16.527   7.543
 7576SOL    HW271568  14.841  16.636   7.662
 7577SOL     OW71569   6.378  13.039   6.039
 7577SOL    HW171570   6.318  13.072   5.965
 7577SOL    HW271571   6.467  13.083   6.030
 7578SOL     OW71572   2.348   2.245   0.478
 7578SOL    HW171573   2.444   2.217   0.489
 7578SOL    HW271574   2.341   2.317   0.410
 7579SOL     OW71575   6.134   6.647   6.523
 7579SOL    HW171576   6.208   6.582   6.504
 7579SOL    HW271577   6.068   6.645   6.449
 7580SOL     OW71578   7.681  12.933   7.027
 7580SOL    HW171579   7.704  12.842   6.992
 7580SOL    HW271580   7.585  12.934   7.056
 7581SOL     OW71581   0.627  16.703   7.992
 7581SOL    HW171582   0.581  16.784   8.027
 7581SOL    HW271583   0.561  16.644   7.946
 7582SOL     OW71584  11.498  13.860   0.229
 7582SOL    HW171585  11.568  13.791   0.211
 7582SOL    HW271586  11.410  13.815   0.244
 7583SOL     OW71587   0.925   0.484   1.725
 7583SOL    HW171588   0.877   0.423   1.787
 7583SOL    HW271589   0.997   0.434   1.677
 7584SOL     OW71590  15.988  14.851   8.239
 7584SOL    HW171591  15.896  14.844   8.201
 7584SOL    HW271592  15.996  14.937   8.289
 7585SOL     OW71593   5.599   6.004   8.292
 7585SOL    HW171594   5.592   5.906   8.308
 7585SOL    HW271595   5.685   6.024   8.246
 7586SOL     OW71596   8.960   0.771   7.248
 7586SOL    HW171597   8.917   0.839   7.188
 7586SOL    HW271598   8.892   0.737   7.313
 7587SOL     OW71599   7.138  10.154   0.371
 7587SOL    HW171600   7.170  10.162   0.466
 7587SOL    HW271601   7.170  10.068   0.332
 7588SOL     OW71602   4.941   4.838   8.306
 7588SOL    HW171603   4.950   4.748   8.263
 7588SOL    HW271604   4.861   4.885   8.269
 7589SOL     OW71605  11.957  14.368   1.719
 7589SOL    HW171606  11.881  14.416   1.762
 7589SOL    HW271607  11.932  14.271   1.707
 7590SOL     OW71608  15.246   1.929   1.588
 7590SOL    HW171609  15.241   1.839   1.545
 7590SOL    HW271610  15.253   1.918   1.687
 7591SOL     OW71611   3.957  12.223   8.174
 7591SOL    HW171612   3.858  12.209   8.174
 7591SOL    HW271613   3.983  12.275   8.255
 7592SOL     OW71614   6.662  11.347   7.996
 7592SOL    HW171615   6.746  11.301   7.969
 7592SOL    HW271616   6.676  11.391   8.085
 7593SOL     OW71617   5.713   6.429   2.368
 7593SOL    HW171618   5.643   6.362   2.392
 7593SOL    HW271619   5.773   6.444   2.447
 7594SOL     OW71620   5.913   5.088   7.681
 7594SOL    HW171621   5.914   4.999   7.727
 7594SOL    HW271622   5.936   5.076   7.584
 7595SOL     OW71623   0.195   6.108   1.205
 7595SOL    HW171624   0.152   6.182   1.257
 7595SOL    HW271625   0.226   6.037   1.269
 7596SOL     OW71626  15.463   7.916   7.154
 7596SOL    HW171627  15.537   7.851   7.172
 7596SOL    HW271628  15.377   7.878   7.187
 7597SOL     OW71629   8.347  16.618   7.544
 7597SOL    HW171630   8.442  16.639   7.518
 7597SOL    HW271631   8.292  16.700   7.539
 7598SOL     OW71632  15.408   2.423   0.119
 7598SOL    HW171633  15.412   2.486   0.042
 7598SOL    HW271634  15.409   2.329   0.086
 7599SOL     OW71635  12.003   1.098   0.011
 7599SOL    HW171636  12.011   1.010   0.057
 7599SOL    HW271637  12.002   1.171   0.080
 7600SOL     OW71638   3.256  10.394   2.395
 7600SOL    HW171639   3.208  10.423   2.312
 7600SOL    HW271640   3.213  10.438   2.474
 7601SOL     OW71641  14.735  11.799   6.440
 7601SOL    HW171642  14.776  11.812   6.350
 7601SOL    HW271643  14.668  11.725   6.437
 7602SOL     OW71644   4.003  15.136   6.652
 7602SOL    HW171645   4.094  15.101   6.630
 7602SOL    HW271646   3.964  15.180   6.570
 7603SOL     OW71647  10.778   7.940   0.900
 7603SOL    HW171648  10.728   7.902   0.822
 7603SOL    HW271649  10.772   7.877   0.977
 7604SOL     OW71650  15.557   6.806   8.256
 7604SOL    HW171651  15.636   6.824   8.198
 7604SOL    HW271652  15.574   6.841   8.348
 7605SOL     OW71653  12.845   7.119   6.634
 7605SOL    HW171654  12.892   7.030   6.636
 7605SOL    HW271655  12.771   7.116   6.568
 7606SOL     OW71656   5.547   7.600   7.743
 7606SOL    HW171657   5.568   7.662   7.819
 7606SOL    HW271658   5.454   7.566   7.753
 7607SOL     OW71659  14.453   1.034   0.308
 7607SOL    HW171660  14.521   1.002   0.241
 7607SOL    HW271661  14.478   1.125   0.340
 7608SOL     OW71662  12.130  11.633   0.245
 7608SOL    HW171663  12.126  11.566   0.170
 7608SOL    HW271664  12.117  11.725   0.208
 7609SOL     OW71665   5.505  12.009   7.289
 7609SOL    HW171666   5.590  11.992   7.339
 7609SOL    HW271667   5.526  12.033   7.194
 7610SOL     OW71668  11.650   7.656   8.029
 7610SOL    HW171669  11.657   7.737   7.970
 7610SOL    HW271670  11.572   7.601   7.999
 7611SOL     OW71671   9.814  10.480   0.287
 7611SOL    HW171672   9.730  10.427   0.299
 7611SOL    HW271673   9.802  10.545   0.211
 7612SOL     OW71674   6.000  14.342   8.048
 7612SOL    HW171675   6.085  14.310   8.089
 7612SOL    HW271676   5.972  14.278   7.976
 7613SOL     OW71677  16.618  10.585   2.587
 7613SOL    HW171678  16.591  10.560   2.680
 7613SOL    HW271679  16.617  10.684   2.577
 7614SOL     OW71680   8.795  11.335   2.322
 7614SOL    HW171681   8.702  11.370   2.313
 7614SOL    HW271682   8.820  11.330   2.419
 7615SOL     OW71683   7.166   1.640   7.716
 7615SOL    HW171684   7.218   1.636   7.801
 7615SOL    HW271685   7.151   1.735   7.690
 7616SOL     OW71686  14.977   8.253   7.969
 7616SOL    HW171687  15.057   8.225   8.022
 7616SOL    HW271688  14.957   8.183   7.900
 7617SOL     OW71689   7.715  15.472   0.091
 7617SOL    HW171690   7.726  15.382   0.051
 7617SOL    HW271691   7.634  15.516   0.052
 7618SOL     OW71692   5.640  15.524   0.183
 7618SOL    HW171693   5.700  15.571   0.118
 7618SOL    HW271694   5.653  15.425   0.175
 7619SOL     OW71695   4.786   7.270   1.974
 7619SOL    HW171696   4.759   7.309   2.061
 7619SOL    HW271697   4.866   7.318   1.938
 7620SOL     OW71698  15.553  15.325   2.182
 7620SOL    HW171699  15.479  15.329   2.249
 7620SOL    HW271700  15.547  15.239   2.132
 7621SOL     OW71701   0.139  12.639   0.785
 7621SOL    HW171702   0.138  12.581   0.703
 7621SOL    HW271703   0.093  12.592   0.859
 7622SOL     OW71704  10.807   0.178   8.394
 7622SOL    HW171705  10.907   0.172   8.397
 7622SOL    HW271706  10.774   0.140   8.308
 7623SOL     OW71707  15.253  10.980   8.442
 7623SOL    HW171708  15.189  11.005   8.370
 7623SOL    HW271709  15.230  10.889   0.023
 7624SOL     OW71710  10.879  16.835   7.439
 7624SOL    HW171711  10.816  16.770   7.480
 7624SOL    HW271712  10.846  16.928   7.456
 7625SOL     OW71713   1.709   2.071   0.494
 7625SOL    HW171714   1.760   2.149   0.531
 7625SOL    HW271715   1.729   1.989   0.548
 7626SOL     OW71716  12.975   9.738   1.730
 7626SOL    HW171717  12.929   9.696   1.808
 7626SOL    HW271718  12.938   9.699   1.645
 7627SOL     OW71719   8.481  15.975   7.670
 7627SOL    HW171720   8.385  15.950   7.684
 7627SOL    HW271721   8.505  16.051   7.730
 7628SOL     OW71722  14.336   2.929   6.040
 7628SOL    HW171723  14.309   3.023   6.020
 7628SOL    HW271724  14.355   2.921   6.138
 7629SOL     OW71725   0.501   2.828   2.144
 7629SOL    HW171726   0.582   2.852   2.198
 7629SOL    HW271727   0.476   2.733   2.161
 7630SOL     OW71728   2.811   1.801   8.382
 7630SOL    HW171729   2.892   1.750   8.412
 7630SOL    HW271730   2.835   1.857   8.303
 7631SOL     OW71731   0.556   3.177   1.204
 7631SOL    HW171732   0.537   3.147   1.297
 7631SOL    HW271733   0.489   3.247   1.177
 7632SOL     OW71734   2.055  13.003   2.219
 7632SOL    HW171735   2.103  12.933   2.166
 7632SOL    HW271736   2.095  13.009   2.310
 7633SOL     OW71737   8.677  10.155   8.001
 7633SOL    HW171738   8.776  10.145   8.003
 7633SOL    HW271739   8.634  10.067   8.021
 7634SOL     OW71740  10.855  10.066   6.902
 7634SOL    HW171741  10.913  10.002   6.852
 7634SOL    HW271742  10.850  10.038   6.998
 7635SOL     OW71743   0.368  12.979   0.256
 7635SOL    HW171744   0.452  13.012   0.297
 7635SOL    HW271745   0.368  13.001   0.158
 7636SOL     OW71746   2.541  12.473   1.926
 7636SOL    HW171747   2.560  12.571   1.933
 7636SOL    HW271748   2.587  12.424   2.000
 7637SOL     OW71749  10.213   2.539   5.918
 7637SOL    HW171750  10.288   2.565   5.978
 7637SOL    HW271751  10.177   2.620   5.872
 7638SOL     OW71752   4.290   8.314   1.217
 7638SOL    HW171753   4.319   8.238   1.275
 7638SOL    HW271754   4.308   8.291   1.121
 7639SOL     OW71755  15.885  15.258   8.190
 7639SOL    HW171756  15.800  15.233   8.144
 7639SOL    HW271757  15.884  15.357   8.208
 7640SOL     OW71758   5.478   2.010   2.386
 7640SOL    HW171759   5.441   2.078   2.450
 7640SOL    HW271760   5.496   1.925   2.435
 7641SOL     OW71761   9.721   2.730   7.493
 7641SOL    HW171762   9.702   2.824   7.466
 7641SOL    HW271763   9.770   2.683   7.420
 7642SOL     OW71764   6.279  14.201   1.276
 7642SOL    HW171765   6.346  14.253   1.329
 7642SOL    HW271766   6.246  14.124   1.331
 7643SOL     OW71767   9.671   9.704   8.386
 7643SOL    HW171768   9.682   9.803   8.389
 7643SOL    HW271769   9.629   9.672   0.017
 7644SOL     OW71770   9.919   5.062   7.866
 7644SOL    HW171771   9.910   5.036   7.770
 7644SOL    HW271772   9.971   5.147   7.873
 7645SOL     OW71773   3.670  13.225   0.212
 7645SOL    HW171774   3.696  13.321   0.205
 7645SOL    HW271775   3.717  13.172   0.142
 7646SOL     OW71776  12.667   6.081   6.408
 7646SOL    HW171777  12.700   6.147   6.475
 7646SOL    HW271778  12.708   6.100   6.319
 7647SOL     OW71779   6.275   3.234   1.669
 7647SOL    HW171780   6.274   3.319   1.723
 7647SOL    HW271781   6.339   3.169   1.711
 7648SOL     OW71782  13.477   5.007   6.420
 7648SOL    HW171783  13.398   5.068   6.413
 7648SOL    HW271784  13.488   4.978   6.515
 7649SOL     OW71785  15.560  14.396   1.199
 7649SOL    HW171786  15.544  14.471   1.135
 7649SOL    HW271787  15.473  14.372   1.244
 7650SOL     OW71788  15.084   6.662   5.749
 7650SOL    HW171789  14.985   6.673   5.743
 7650SOL    HW271790  15.128   6.752   5.746
 7651SOL     OW71791   2.290   9.849   8.234
 7651SOL    HW171792   2.203   9.891   8.258
 7651SOL    HW271793   2.364   9.914   8.250
 7652SOL     OW71794   3.860   8.744   0.350
 7652SOL    HW171795   3.860   8.768   0.253
 7652SOL    HW271796   3.954   8.740   0.383
 7653SOL     OW71797   1.196  16.936   1.129
 7653SOL    HW171798   1.125  16.974   1.069
 7653SOL    HW271799   1.213  16.841   1.103
 7654SOL     OW71800   4.965  14.295   0.572
 7654SOL    HW171801   4.883  14.351   0.572
 7654SOL    HW271802   5.013  14.305   0.659
 7655SOL     OW71803  14.016   8.377   7.293
 7655SOL    HW171804  14.105   8.385   7.338
 7655SOL    HW271805  14.027   8.389   7.194
 7656SOL     OW71806  12.222   2.690   0.674
 7656SOL    HW171807  12.234   2.726   0.766
 7656SOL    HW271808  12.195   2.763   0.612
 7657SOL     OW71809   2.301  11.922   8.222
 7657SOL    HW171810   2.295  11.886   8.129
 7657SOL    HW271811   2.350  11.857   8.281
 7658SOL     OW71812   6.495   2.555   0.495
 7658SOL    HW171813   6.537   2.485   0.553
 7658SOL    HW271814   6.478   2.518   0.404
 7659SOL     OW71815  15.606   1.598   0.388
 7659SOL    HW171816  15.607   1.677   0.449
 7659SOL    HW271817  15.549   1.526   0.427
 7660SOL     OW71818  11.899   9.590   7.419
 7660SOL    HW171819  11.864   9.549   7.503
 7660SOL    HW271820  11.823   9.629   7.367
 7661SOL     OW71821   8.614   7.477   0.471
 7661SOL    HW171822   8.561   7.540   0.527
 7661SOL    HW271823   8.682   7.431   0.528
 7662SOL     OW71824  13.015  13.076   1.325
 7662SOL    HW171825  13.076  13.090   1.403
 7662SOL    HW271826  13.005  13.161   1.274
 7663SOL     OW71827  13.849   4.398   7.525
 7663SOL    HW171828  13.910   4.444   7.460
 7663SOL    HW271829  13.848   4.300   7.507
 7664SOL     OW71830   9.940   2.192   7.420
 7664SOL    HW171831   9.892   2.268   7.465
 7664SOL    HW271832   9.971   2.127   7.489
 7665SOL     OW71833   2.588  14.079   1.106
 7665SOL    HW171834   2.631  13.989   1.116
 7665SOL    HW271835   2.633  14.128   1.031
 7666SOL     OW71836   5.404   9.838   0.267
 7666SOL    HW171837   5.377   9.850   0.362
 7666SOL    HW271838   5.396   9.925   0.218
 7667SOL     OW71839  10.302   7.386   5.819
 7667SOL    HW171840  10.359   7.412   5.742
 7667SOL    HW271841  10.225   7.449   5.828
 7668SOL     OW71842   3.789  10.478   1.785
 7668SOL    HW171843   3.796  10.383   1.815
 7668SOL    HW271844   3.879  10.521   1.792
 7669SOL     OW71845  11.533   2.992   0.426
 7669SOL    HW171846  11.452   2.961   0.476
 7669SOL    HW271847  11.564   2.921   0.363
 7670SOL     OW71848   2.179   3.573   8.261
 7670SOL    HW171849   2.194   3.656   8.207
 7670SOL    HW271850   2.219   3.584   8.352
 7671SOL     OW71851   4.105   2.184   7.674
 7671SOL    HW171852   4.168   2.258   7.652
 7671SOL    HW271853   4.016   2.201   7.630
 7672SOL     OW71854  12.104   4.510   7.085
 7672SOL    HW171855  12.064   4.490   7.175
 7672SOL    HW271856  12.085   4.435   7.023
 7673SOL     OW71857  11.739   3.885   8.193
 7673SOL    HW171858  11.677   3.945   8.243
 7673SOL    HW271859  11.737   3.794   8.235
 7674SOL     OW71860   0.570  16.479   7.113
 7674SOL    HW171861   0.663  16.449   7.135
 7674SOL    HW271862   0.565  16.579   7.115
 7675SOL     OW71863   4.865  15.222   1.599
 7675SOL    HW171864   4.890  15.189   1.690
 7675SOL    HW271865   4.946  15.229   1.542
 7676SOL     OW71866   3.091  16.422   1.605
 7676SOL    HW171867   3.082  16.407   1.703
 7676SOL    HW271868   3.000  16.435   1.565
 7677SOL     OW71869   3.713  11.253   0.305
 7677SOL    HW171870   3.650  11.310   0.357
 7677SOL    HW271871   3.792  11.230   0.362
 7678SOL     OW71872  13.603   9.230   7.828
 7678SOL    HW171873  13.522   9.283   7.804
 7678SOL    HW271874  13.684   9.273   7.787
 7679SOL     OW71875   3.852  10.657   0.995
 7679SOL    HW171876   3.837  10.615   0.906
 7679SOL    HW271877   3.888  10.750   0.982
 7680SOL     OW71878   5.145  16.885   7.637
 7680SOL    HW171879   5.155  16.819   7.562
 7680SOL    HW271880   5.064  16.941   7.621
 7681SOL     OW71881   0.348   5.395   7.157
 7681SOL    HW171882   0.337   5.486   7.196
 7681SOL    HW271883   0.278   5.334   7.193
 7682SOL     OW71884   7.387   2.804   0.038
 7682SOL    HW171885   7.308   2.756   0.076
 7682SOL    HW271886   7.468   2.782   0.092
 7683SOL     OW71887   1.974  15.404   1.685
 7683SOL    HW171888   2.003  15.490   1.728
 7683SOL    HW271889   1.971  15.332   1.755
 7684SOL     OW71890   4.809   1.648   1.896
 7684SOL    HW171891   4.861   1.564   1.880
 7684SOL    HW271892   4.738   1.631   1.964
 7685SOL     OW71893  10.060   3.040   1.101
 7685SOL    HW171894   9.965   3.046   1.070
 7685SOL    HW271895  10.063   3.054   1.200
 7686SOL     OW71896  13.880   6.222   6.464
 7686SOL    HW171897  13.833   6.194   6.380
 7686SOL    HW271898  13.954   6.157   6.483
 7687SOL     OW71899   8.008  10.035   1.084
 7687SOL    HW171900   8.095  10.037   1.035
 7687SOL    HW271901   7.937   9.997   1.025
 7688SOL     OW71902   4.123   5.526   0.044
 7688SOL    HW171903   4.055   5.481   8.439
 7688SOL    HW271904   4.158   5.460   0.110
 7689SOL     OW71905   3.940  10.659   8.024
 7689SOL    HW171906   3.951  10.602   7.943
 7689SOL    HW271907   3.989  10.745   8.010
 7690SOL     OW71908  14.362   9.725   0.687
 7690SOL    HW171909  14.301   9.714   0.765
 7690SOL    HW271910  14.436   9.658   0.692
 7691SOL     OW71911  15.540  13.605   7.652
 7691SOL    HW171912  15.475  13.561   7.591
 7691SOL    HW271913  15.615  13.645   7.599
 7692SOL     OW71914  10.802   1.771   7.421
 7692SOL    HW171915  10.758   1.796   7.507
 7692SOL    HW271916  10.811   1.671   7.416
 7693SOL     OW71917   9.342   3.791   0.488
 7693SOL    HW171918   9.307   3.877   0.452
 7693SOL    HW271919   9.414   3.757   0.428
 7694SOL     OW71920  12.699  14.340   0.495
 7694SOL    HW171921  12.603  14.330   0.469
 7694SOL    HW271922  12.717  14.435   0.520
 7695SOL     OW71923   3.872   3.849   6.813
 7695SOL    HW171924   3.786   3.862   6.763
 7695SOL    HW271925   3.884   3.753   6.835
 7696SOL     OW71926   3.452   4.807   0.365
 7696SOL    HW171927   3.451   4.795   0.464
 7696SOL    HW271928   3.372   4.763   0.325
 7697SOL     OW71929  10.112  10.653   7.196
 7697SOL    HW171930  10.158  10.566   7.181
 7697SOL    HW271931  10.176  10.718   7.237
 7698SOL     OW71932  13.411   3.552   0.913
 7698SOL    HW171933  13.388   3.457   0.896
 7698SOL    HW271934  13.394   3.573   1.009
 7699SOL     OW71935   5.187   8.844   0.503
 7699SOL    HW171936   5.090   8.842   0.482
 7699SOL    HW271937   5.238   8.882   0.426
 7700SOL     OW71938   7.159   6.899   0.052
 7700SOL    HW171939   7.096   6.882   0.127
 7700SOL    HW271940   7.196   6.992   0.059
 7701SOL     OW71941   2.329  12.258   0.753
 7701SOL    HW171942   2.374  12.219   0.833
 7701SOL    HW271943   2.390  12.323   0.708
 7702SOL     OW71944  12.471   2.296   1.293
 7702SOL    HW171945  12.387   2.339   1.261
 7702SOL    HW271946  12.495   2.219   1.234
 7703SOL     OW71947   4.673   2.493   7.689
 7703SOL    HW171948   4.600   2.549   7.727
 7703SOL    HW271949   4.700   2.424   7.757
 7704SOL     OW71950   0.407  15.973   0.898
 7704SOL    HW171951   0.473  16.043   0.870
 7704SOL    HW271952   0.435  15.884   0.863
 7705SOL     OW71953   9.424   6.383   0.457
 7705SOL    HW171954   9.405   6.450   0.385
 7705SOL    HW271955   9.366   6.400   0.536
 7706SOL     OW71956   9.932  12.668   6.449
 7706SOL    HW171957  10.029  12.644   6.437
 7706SOL    HW271958   9.919  12.765   6.427
 7707SOL     OW71959   5.626  13.232   1.257
 7707SOL    HW171960   5.564  13.304   1.288
 7707SOL    HW271961   5.662  13.255   1.166
 7708SOL     OW71962   6.656  16.813   8.369
 7708SOL    HW171963   6.567  16.768   8.374
 7708SOL    HW271964   6.646  16.910   8.390
 7709SOL     OW71965   5.336  14.892   1.907
 7709SOL    HW171966   5.424  14.913   1.951
 7709SOL    HW271967   5.287  14.977   1.888
 7710SOL     OW71968   3.073  16.545   8.376
 7710SOL    HW171969   3.095  16.540   8.278
 7710SOL    HW271970   3.117  16.624   8.416
 7711SOL     OW71971   7.211  10.612   0.369
 7711SOL    HW171972   7.140  10.553   0.408
 7711SOL    HW271973   7.301  10.582   0.402
 7712SOL     OW71974   9.331  12.693   6.850
 7712SOL    HW171975   9.394  12.668   6.776
 7712SOL    HW271976   9.261  12.755   6.814
 7713SOL     OW71977  10.934  11.782   0.856
 7713SOL    HW171978  10.954  11.830   0.941
 7713SOL    HW271979  10.842  11.744   0.860
 7714SOL     OW71980   8.914   0.758   0.970
 7714SOL    HW171981   9.009   0.728   0.971
 7714SOL    HW271982   8.889   0.794   1.060
 7715SOL     OW71983   4.394   0.855   0.864
 7715SOL    HW171984   4.415   0.929   0.800
 7715SOL    HW271985   4.426   0.768   0.826
 7716SOL     OW71986   4.093  13.307   0.902
 7716SOL    HW171987   4.139  13.393   0.922
 7716SOL    HW271988   4.117  13.240   0.973
 7717SOL     OW71989   1.120   3.526   6.627
 7717SOL    HW171990   1.117   3.546   6.529
 7717SOL    HW271991   1.164   3.437   6.641
 7718SOL     OW71992   7.701   9.524   8.022
 7718SOL    HW171993   7.799   9.544   8.029
 7718SOL    HW271994   7.675   9.459   8.094
 7719SOL     OW71995   3.274   8.256   1.027
 7719SOL    HW171996   3.320   8.186   0.973
 7719SOL    HW271997   3.293   8.242   1.124
 7720SOL     OW71998   5.041  15.415   0.159
 7720SOL    HW171999   5.039  15.452   0.252
 7720SOL    HW272000   4.963  15.451   0.107
 7721SOL     OW72001   2.828   0.612   7.033
 7721SOL    HW172002   2.840   0.711   7.036
 7721SOL    HW272003   2.824   0.582   6.938
 7722SOL     OW72004   8.122  10.041   0.184
 7722SOL    HW172005   8.222  10.035   0.184
 7722SOL    HW272006   8.086   9.989   0.106
 7723SOL     OW72007   7.453   8.661   7.197
 7723SOL    HW172008   7.387   8.667   7.122
 7723SOL    HW272009   7.545   8.647   7.159
 7724SOL     OW72010   4.883  13.172   0.903
 7724SOL    HW172011   4.849  13.092   0.854
 7724SOL    HW272012   4.826  13.190   0.983
 7725SOL     OW72013  12.500   7.361   7.915
 7725SOL    HW172014  12.423   7.326   7.969
 7725SOL    HW272015  12.465   7.411   7.836
 7726SOL     OW72016   8.891  14.186   6.848
 7726SOL    HW172017   8.972  14.132   6.824
 7726SOL    HW272018   8.853  14.228   6.765
 7727SOL     OW72019  14.899  10.480   0.166
 7727SOL    HW172020  14.932  10.469   0.260
 7727SOL    HW272021  14.836  10.557   0.162
 7728SOL     OW72022   5.732  11.125   0.772
 7728SOL    HW172023   5.724  11.055   0.843
 7728SOL    HW272024   5.645  11.175   0.766
 7729SOL     OW72025  12.340   3.900   6.752
 7729SOL    HW172026  12.360   3.997   6.734
 7729SOL    HW272027  12.358   3.880   6.848
 7730SOL     OW72028   4.552   1.620   8.239
 7730SOL    HW172029   4.459   1.656   8.235
 7730SOL    HW272030   4.570   1.566   8.156
 7731SOL     OW72031   3.426  10.673   8.078
 7731SOL    HW172032   3.419  10.580   8.115
 7731SOL    HW272033   3.396  10.738   8.148
 7732SOL     OW72034   1.750  13.277   1.853
 7732SOL    HW172035   1.806  13.216   1.909
 7732SOL    HW272036   1.656  13.242   1.850
 7733SOL     OW72037   7.992   3.454   7.478
 7733SOL    HW172038   7.952   3.545   7.476
 7733SOL    HW272039   7.978   3.409   7.389
 7734SOL     OW72040   7.757   7.291   6.110
 7734SOL    HW172041   7.710   7.343   6.039
 7734SOL    HW272042   7.751   7.194   6.089
 7735SOL     OW72043  14.291   9.327   0.370
 7735SOL    HW172044  14.248   9.238   0.383
 7735SOL    HW272045  14.262   9.389   0.443
 7736SOL     OW72046   4.045   7.489   0.606
 7736SOL    HW172047   4.025   7.412   0.545
 7736SOL    HW272048   4.065   7.570   0.551
 7737SOL     OW72049  10.945   6.745   7.357
 7737SOL    HW172050  10.860   6.744   7.304
 7737SOL    HW272051  10.926   6.778   7.450
 7738SOL     OW72052   1.572   8.262   6.659
 7738SOL    HW172053   1.568   8.202   6.580
 7738SOL    HW272054   1.665   8.298   6.670
 7739SOL     OW72055  13.569  16.288   1.735
 7739SOL    HW172056  13.492  16.332   1.782
 7739SOL    HW272057  13.623  16.237   1.802
 7740SOL     OW72058   2.373   2.844   0.764
 7740SOL    HW172059   2.350   2.940   0.749
 7740SOL    HW272060   2.291   2.793   0.790
 7741SOL     OW72061   6.847  11.616   1.411
 7741SOL    HW172062   6.826  11.537   1.352
 7741SOL    HW272063   6.857  11.585   1.505
 7742SOL     OW72064   0.570  10.547   1.260
 7742SOL    HW172065   0.478  10.567   1.292
 7742SOL    HW272066   0.622  10.632   1.254
 7743SOL     OW72067   0.781   3.204   6.831
 7743SOL    HW172068   0.701   3.151   6.861
 7743SOL    HW272069   0.774   3.220   6.732
 7744SOL     OW72070   6.999   1.274   1.625
 7744SOL    HW172071   7.056   1.334   1.569
 7744SOL    HW272072   6.999   1.182   1.587
 7745SOL     OW72073   2.315   1.858   8.046
 7745SOL    HW172074   2.359   1.783   7.995
 7745SOL    HW272075   2.381   1.932   8.058
 7746SOL     OW72076   2.909   7.160   7.880
 7746SOL    HW172077   2.986   7.210   7.840
 7746SOL    HW272078   2.926   7.062   7.874
 7747SOL     OW72079  15.088   8.656   1.065
 7747SOL    HW172080  15.119   8.684   1.156
 7747SOL    HW272081  15.020   8.722   1.032
 7748SOL     OW72082  10.530   0.281   0.300
 7748SOL    HW172083  10.613   0.307   0.349
 7748SOL    HW272084  10.492   0.361   0.253
 7749SOL     OW72085   8.725  15.099   8.144
 7749SOL    HW172086   8.688  15.184   8.106
 7749SOL    HW272087   8.650  15.036   8.162
 7750SOL     OW72088   5.001   2.304   1.962
 7750SOL    HW172089   5.035   2.296   2.056
 7750SOL    HW272090   5.001   2.214   1.919
 7751SOL     OW72091  16.954  13.994   1.623
 7751SOL    HW172092  16.880  13.957   1.567
 7751SOL    HW272093  16.920  14.070   1.678
 7752SOL     OW72094   7.722   6.169   7.395
 7752SOL    HW172095   7.806   6.222   7.403
 7752SOL    HW272096   7.742   6.072   7.404
 7753SOL     OW72097   5.960   4.113   7.896
 7753SOL    HW172098   6.043   4.060   7.914
 7753SOL    HW272099   5.905   4.119   7.979
 7754SOL     OW72100  10.975  10.687   7.457
 7754SOL    HW172101  10.934  10.608   7.504
 7754SOL    HW272102  11.034  10.736   7.520
 7755SOL     OW72103   8.173   3.641   0.511
 7755SOL    HW172104   8.265   3.678   0.501
 7755SOL    HW272105   8.120   3.660   0.429
 7756SOL     OW72106   6.007   4.332   7.739
 7756SOL    HW172107   5.991   4.251   7.796
 7756SOL    HW272108   5.930   4.395   7.747
 7757SOL     OW72109  13.540   0.804   7.041
 7757SOL    HW172110  13.482   0.879   7.072
 7757SOL    HW272111  13.485   0.736   6.993
 7758SOL     OW72112  11.585  15.720   1.426
 7758SOL    HW172113  11.614  15.637   1.474
 7758SOL    HW272114  11.631  15.725   1.338
 7759SOL     OW72115  15.607   6.422   6.536
 7759SOL    HW172116  15.695   6.383   6.565
 7759SOL    HW272117  15.534   6.358   6.559
 7760SOL     OW72118   3.882   5.271   0.384
 7760SOL    HW172119   3.956   5.267   0.450
 7760SOL    HW272120   3.919   5.271   0.291
 7761SOL     OW72121  11.060   1.276   1.882
 7761SOL    HW172122  11.123   1.239   1.950
 7761SOL    HW272123  10.981   1.316   1.928
 7762SOL     OW72124  13.318  13.332   1.131
 7762SOL    HW172125  13.371  13.361   1.051
 7762SOL    HW272126  13.221  13.327   1.107
 7763SOL     OW72127   9.964  13.446   0.966
 7763SOL    HW172128   9.980  13.527   0.909
 7763SOL    HW272129  10.011  13.457   1.054
 7764SOL     OW72130   1.135  13.241   0.557
 7764SOL    HW172131   1.155  13.338   0.569
 7764SOL    HW272132   1.214  13.195   0.516
 7765SOL     OW72133   6.533  15.330   0.702
 7765SOL    HW172134   6.612  15.268   0.695
 7765SOL    HW272135   6.547  15.408   0.641
 7766SOL     OW72136   5.178  13.407   6.929
 7766SOL    HW172137   5.228  13.366   6.852
 7766SOL    HW272138   5.238  13.411   7.009
 7767SOL     OW72139   8.162   3.395   0.639
 7767SOL    HW172140   8.237   3.337   0.609
 7767SOL    HW272141   8.164   3.482   0.590
 7768SOL     OW72142  15.997   9.996   0.393
 7768SOL    HW172143  15.926  10.003   0.323
 7768SOL    HW272144  15.985   9.910   0.444
 7769SOL     OW72145   9.784  13.481   8.072
 7769SOL    HW172146   9.780  13.543   7.994
 7769SOL    HW272147   9.879  13.449   8.084
 7770SOL     OW72148  13.943   6.918   1.392
 7770SOL    HW172149  13.993   6.837   1.360
 7770SOL    HW272150  13.982   6.950   1.478
 7771SOL     OW72151   3.771   3.537   8.147
 7771SOL    HW172152   3.847   3.472   8.138
 7771SOL    HW272153   3.706   3.504   8.215
 7772SOL     OW72154  13.676   2.938   6.359
 7772SOL    HW172155  13.596   2.975   6.311
 7772SOL    HW272156  13.667   2.839   6.368
 7773SOL     OW72157   5.120   6.677   7.946
 7773SOL    HW172158   5.052   6.652   7.877
 7773SOL    HW272159   5.208   6.635   7.924
 7774SOL     OW72160   4.179   3.119   7.167
 7774SOL    HW172161   4.213   3.188   7.230
 7774SOL    HW272162   4.227   3.127   7.080
 7775SOL     OW72163   2.120   2.770   1.576
 7775SOL    HW172164   2.032   2.723   1.569
 7775SOL    HW272165   2.112   2.845   1.642
 7776SOL     OW72166   8.070   2.672   8.338
 7776SOL    HW172167   8.150   2.730   8.350
 7776SOL    HW272168   8.071   2.600   8.406
 7777SOL     OW72169   6.008  10.023   7.529
 7777SOL    HW172170   6.043  10.026   7.435
 7777SOL    HW272171   5.932  10.086   7.538
 7778SOL     OW72172   0.282   5.074   7.479
 7778SOL    HW172173   0.304   5.018   7.399
 7778SOL    HW272174   0.192   5.049   7.514
 7779SOL     OW72175   0.671  10.535   7.478
 7779SOL    HW172176   0.769  10.548   7.495
 7779SOL    HW272177   0.633  10.620   7.440
 7780SOL     OW72178   1.492   4.840   6.648
 7780SOL    HW172179   1.484   4.897   6.567
 7780SOL    HW272180   1.499   4.898   6.729
 7781SOL     OW72181   3.746  14.013   7.281
 7781SOL    HW172182   3.806  13.972   7.351
 7781SOL    HW272183   3.663  13.958   7.273
 7782SOL     OW72184   2.131  10.527   7.682
 7782SOL    HW172185   2.057  10.491   7.625
 7782SOL    HW272186   2.166  10.454   7.741
 7783SOL     OW72187   6.048   7.476   6.241
 7783SOL    HW172188   6.115   7.550   6.242
 7783SOL    HW272189   5.957   7.513   6.261
 7784SOL     OW72190   6.901  16.789   8.231
 7784SOL    HW172191   6.924  16.693   8.248
 7784SOL    HW272192   6.814  16.811   8.275
 7785SOL     OW72193  10.890   6.588   6.648
 7785SOL    HW172194  10.811   6.552   6.599
 7785SOL    HW272195  10.917   6.676   6.609
 7786SOL     OW72196  15.539   0.726   7.434
 7786SOL    HW172197  15.574   0.681   7.516
 7786SOL    HW272198  15.451   0.770   7.455
 7787SOL     OW72199  11.512   3.583   7.616
 7787SOL    HW172200  11.420   3.609   7.647
 7787SOL    HW272201  11.566   3.665   7.601
 7788SOL     OW72202   9.103  14.496   1.537
 7788SOL    HW172203   9.157  14.422   1.497
 7788SOL    HW272204   9.128  14.508   1.633
 7789SOL     OW72205   4.772  16.897   0.060
 7789SOL    HW172206   4.784  16.925   0.155
 7789SOL    HW272207   4.706  16.821   0.055
 7790SOL     OW72208  10.808   8.803   7.238
 7790SOL    HW172209  10.785   8.890   7.281
 7790SOL    HW272210  10.738   8.780   7.170
 7791SOL     OW72211   1.859  13.873   0.878
 7791SOL    HW172212   1.888  13.968   0.884
 7791SOL    HW272213   1.919  13.823   0.815
 7792SOL     OW72214   5.022  16.154   7.851
 7792SOL    HW172215   4.997  16.095   7.928
 7792SOL    HW272216   5.036  16.247   7.884
 7793SOL     OW72217  12.217  14.977   1.275
 7793SOL    HW172218  12.302  14.928   1.294
 7793SOL    HW272219  12.190  15.030   1.356
 7794SOL     OW72220   7.102  16.380   0.904
 7794SOL    HW172221   7.056  16.320   0.969
 7794SOL    HW272222   7.145  16.326   0.832
 7795SOL     OW72223  15.667   5.261   7.579
 7795SOL    HW172224  15.754   5.276   7.627
 7795SOL    HW272225  15.660   5.165   7.552
 7796SOL     OW72226  15.012   2.718   1.409
 7796SOL    HW172227  15.047   2.671   1.490
 7796SOL    HW272228  14.912   2.708   1.405
 7797SOL     OW72229   9.531   9.717   6.409
 7797SOL    HW172230   9.492   9.773   6.335
 7797SOL    HW272231   9.580   9.639   6.369
 7798SOL     OW72232   0.211   8.893   0.722
 7798SOL    HW172233   0.257   8.826   0.780
 7798SOL    HW272234   0.244   8.885   0.628
 7799SOL     OW72235   4.822  14.074   1.084
 7799SOL    HW172236   4.779  14.052   0.997
 7799SOL    HW272237   4.791  14.164   1.115
 7800SOL     OW72238   1.564  12.576   1.056
 7800SOL    HW172239   1.624  12.580   1.136
 7800SOL    HW272240   1.543  12.669   1.026
 7801SOL     OW72241   5.475   0.936   7.998
 7801SOL    HW172242   5.538   0.870   8.040
 7801SOL    HW272243   5.505   1.029   8.019
 7802SOL     OW72244   6.426  15.699   1.137
 7802SOL    HW172245   6.441  15.627   1.069
 7802SOL    HW272246   6.469  15.672   1.224
 7803SOL     OW72247  11.002  14.708   0.135
 7803SOL    HW172248  11.096  14.711   0.103
 7803SOL    HW272249  10.985  14.785   0.196
 7804SOL     OW72250  12.311  13.469   0.554
 7804SOL    HW172251  12.401  13.512   0.544
 7804SOL    HW272252  12.318  13.372   0.531
 7805SOL     OW72253   4.579   1.538   0.057
 7805SOL    HW172254   4.499   1.576   0.103
 7805SOL    HW272255   4.576   1.562   8.414
 7806SOL     OW72256   9.469   4.106   6.151
 7806SOL    HW172257   9.395   4.152   6.200
 7806SOL    HW272258   9.431   4.051   6.077
 7807SOL     OW72259   6.861  15.855   7.523
 7807SOL    HW172260   6.775  15.863   7.574
 7807SOL    HW272261   6.843  15.817   7.432
 7808SOL     OW72262   1.684  14.813   1.959
 7808SOL    HW172263   1.611  14.843   1.898
 7808SOL    HW272264   1.743  14.891   1.981
 7809SOL     OW72265   9.673   8.560   6.930
 7809SOL    HW172266   9.577   8.583   6.919
 7809SOL    HW272267   9.709   8.522   6.845
 7810SOL     OW72268  15.931   8.466   6.411
 7810SOL    HW172269  15.906   8.556   6.374
 7810SOL    HW272270  15.981   8.414   6.342
 7811SOL     OW72271   5.369  12.155   8.248
 7811SOL    HW172272   5.368  12.146   8.348
 7811SOL    HW272273   5.305  12.089   8.209
 7812SOL     OW72274  11.637   4.437   7.615
 7812SOL    HW172275  11.636   4.509   7.545
 7812SOL    HW272276  11.582   4.466   7.693
 7813SOL     OW72277  16.302   1.767   0.604
 7813SOL    HW172278  16.260   1.858   0.596
 7813SOL    HW272279  16.259   1.718   0.680
 7814SOL     OW72280   7.284   5.513   7.399
 7814SOL    HW172281   7.189   5.508   7.430
 7814SOL    HW272282   7.296   5.594   7.342
 7815SOL     OW72283   3.959   6.214   7.552
 7815SOL    HW172284   3.897   6.137   7.566
 7815SOL    HW272285   4.053   6.181   7.541
 7816SOL     OW72286  12.292   9.391   7.859
 7816SOL    HW172287  12.370   9.393   7.796
 7816SOL    HW272288  12.323   9.360   7.949
 7817SOL     OW72289  13.688  14.386   0.544
 7817SOL    HW172290  13.696  14.365   0.642
 7817SOL    HW272291  13.649  14.307   0.496
 7818SOL     OW72292  13.450  15.313   0.370
 7818SOL    HW172293  13.370  15.310   0.431
 7818SOL    HW272294  13.526  15.263   0.412
 7819SOL     OW72295   3.312  14.659   0.688
 7819SOL    HW172296   3.217  14.689   0.678
 7819SOL    HW272297   3.370  14.713   0.627
 7820SOL     OW72298   5.117  12.370   2.066
 7820SOL    HW172299   5.214  12.346   2.067
 7820SOL    HW272300   5.096  12.429   2.145
 7821SOL     OW72301   9.756   7.994   8.272
 7821SOL    HW172302   9.740   8.083   8.228
 7821SOL    HW272303   9.787   7.928   8.203
 7822SOL     OW72304   3.838  15.273   1.681
 7822SOL    HW172305   3.874  15.287   1.773
 7822SOL    HW272306   3.766  15.204   1.683
 7823SOL     OW72307  15.048  15.417   1.456
 7823SOL    HW172308  15.015  15.433   1.363
 7823SOL    HW272309  15.030  15.498   1.512
 7824SOL     OW72310   8.790  12.109   0.263
 7824SOL    HW172311   8.870  12.168   0.256
 7824SOL    HW272312   8.782  12.074   0.356
 7825SOL     OW72313   6.943   0.588   7.131
 7825SOL    HW172314   6.848   0.570   7.105
 7825SOL    HW272315   6.949   0.594   7.231
 7826SOL     OW72316   0.209   8.427   6.411
 7826SOL    HW172317   0.223   8.519   6.447
 7826SOL    HW272318   0.169   8.432   6.320
 7827SOL     OW72319   3.060  16.055   0.138
 7827SOL    HW172320   3.082  16.144   0.098
 7827SOL    HW272321   3.143  16.000   0.146
 7828SOL     OW72322  13.984   2.452   7.645
 7828SOL    HW172323  14.078   2.470   7.674
 7828SOL    HW272324  13.941   2.537   7.615
 7829SOL     OW72325   6.467   6.749   6.936
 7829SOL    HW172326   6.546   6.689   6.925
 7829SOL    HW272327   6.497   6.840   6.962
 7830SOL     OW72328   0.122  16.773   0.925
 7830SOL    HW172329   0.102  16.732   1.014
 7830SOL    HW272330   0.041  16.822   0.893
 7831SOL     OW72331  12.984  10.179   0.413
 7831SOL    HW172332  12.990  10.231   0.328
 7831SOL    HW272333  13.076  10.160   0.447
 7832SOL     OW72334   4.440  12.816   0.454
 7832SOL    HW172335   4.523  12.773   0.418
 7832SOL    HW272336   4.360  12.768   0.418
 7833SOL     OW72337  16.032   6.718   8.405
 7833SOL    HW172338  15.975   6.736   0.031
 7833SOL    HW272339  15.975   6.684   8.330
 7834SOL     OW72340   7.362  12.258   2.195
 7834SOL    HW172341   7.345  12.166   2.232
 7834SOL    HW272342   7.402  12.316   2.265
 7835SOL     OW72343   2.919  11.200   0.049
 7835SOL    HW172344   2.972  11.182   8.420
 7835SOL    HW272345   2.961  11.275   0.099
 7836SOL     OW72346   6.688  14.872   6.810
 7836SOL    HW172347   6.612  14.936   6.823
 7836SOL    HW272348   6.651  14.781   6.790
 7837SOL     OW72349  15.076  15.574   1.022
 7837SOL    HW172350  15.150  15.641   1.023
 7837SOL    HW272351  15.111  15.486   0.989
 7838SOL     OW72352  13.575   6.915   0.197
 7838SOL    HW172353  13.596   6.818   0.208
 7838SOL    HW272354  13.507   6.942   0.266
 7839SOL     OW72355   4.609  11.059   0.295
 7839SOL    HW172356   4.580  11.016   0.210
 7839SOL    HW272357   4.693  11.017   0.327
 7840SOL     OW72358  14.215   9.628   0.466
 7840SOL    HW172359  14.259   9.664   0.549
 7840SOL    HW272360  14.117   9.617   0.484
 7841SOL     OW72361   3.891   3.864   7.999
 7841SOL    HW172362   3.844   3.950   7.978
 7841SOL    HW272363   3.916   3.862   8.096
 7842SOL     OW72364   4.746   5.869   1.147
 7842SOL    HW172365   4.658   5.829   1.121
 7842SOL    HW272366   4.744   5.968   1.133
 7843SOL     OW72367   1.219  15.273   0.025
 7843SOL    HW172368   1.198  15.367   0.001
 7843SOL    HW272369   1.182  15.212   8.409
 7844SOL     OW72370  11.522  13.645   7.898
 7844SOL    HW172371  11.566  13.690   7.820
 7844SOL    HW272372  11.589  13.587   7.945
 7845SOL     OW72373  12.775   3.115   6.649
 7845SOL    HW172374  12.750   3.025   6.613
 7845SOL    HW272375  12.770   3.183   6.575
 7846SOL     OW72376   1.268   9.327   0.091
 7846SOL    HW172377   1.354   9.377   0.081
 7846SOL    HW272378   1.196   9.374   0.041
 7847SOL     OW72379   5.428   4.129   8.148
 7847SOL    HW172380   5.470   4.209   8.191
 7847SOL    HW272381   5.370   4.081   8.213
 7848SOL     OW72382  15.770   9.883   7.547
 7848SOL    HW172383  15.724   9.805   7.505
 7848SOL    HW272384  15.841   9.850   7.609
 7849SOL     OW72385  10.899  14.537   1.179
 7849SOL    HW172386  10.907  14.458   1.240
 7849SOL    HW272387  10.856  14.509   1.094
 7850SOL     OW72388  13.264   2.821   0.251
 7850SOL    HW172389  13.364   2.826   0.257
 7850SOL    HW272390  13.228   2.908   0.216
 7851SOL     OW72391  16.336   8.852   0.150
 7851SOL    HW172392  16.432   8.823   0.155
 7851SOL    HW272393  16.329   8.935   0.095
 7852SOL     OW72394   8.106  13.783   7.724
 7852SOL    HW172395   8.098  13.838   7.641
 7852SOL    HW272396   8.031  13.717   7.727
 7853SOL     OW72397  12.818   0.245   8.451
 7853SOL    HW172398  12.877   0.245   0.077
 7853SOL    HW272399  12.869   0.212   8.371
 7854SOL     OW72400  10.091  13.389   1.894
 7854SOL    HW172401  10.035  13.316   1.932
 7854SOL    HW272402  10.178  13.351   1.860
 7855SOL     OW72403   7.452   1.043   7.563
 7855SOL    HW172404   7.517   0.967   7.559
 7855SOL    HW272405   7.484   1.111   7.630
 7856SOL     OW72406   3.732   3.520   0.129
 7856SOL    HW172407   3.660   3.473   0.181
 7856SOL    HW272408   3.820   3.475   0.145
 7857SOL     OW72409  14.554   5.289   1.279
 7857SOL    HW172410  14.507   5.255   1.360
 7857SOL    HW272411  14.491   5.342   1.223
 7858SOL     OW72412   0.571   0.157   7.901
 7858SOL    HW172413   0.622   0.176   7.817
 7858SOL    HW272414   0.559   0.242   7.953
 7859SOL     OW72415  13.067   5.442   6.643
 7859SOL    HW172416  13.095   5.412   6.734
 7859SOL    HW272417  13.115   5.526   6.619
 7860SOL     OW72418  13.232   2.604   6.394
 7860SOL    HW172419  13.228   2.510   6.428
 7860SOL    HW272420  13.284   2.661   6.457
 7861SOL     OW72421   9.020   4.452   0.657
 7861SOL    HW172422   9.106   4.502   0.660
 7861SOL    HW272423   8.947   4.513   0.626
 7862SOL     OW72424   7.405   5.784   7.485
 7862SOL    HW172425   7.352   5.724   7.545
 7862SOL    HW272426   7.356   5.870   7.473
 7863SOL     OW72427  13.099   7.660   1.085
 7863SOL    HW172428  13.160   7.734   1.114
 7863SOL    HW272429  13.073   7.606   1.165
 7864SOL     OW72430   4.220   9.277   0.385
 7864SOL    HW172431   4.141   9.221   0.407
 7864SOL    HW272432   4.193   9.351   0.323
 7865SOL     OW72433  15.107  11.587   0.270
 7865SOL    HW172434  15.140  11.634   0.352
 7865SOL    HW272435  15.178  11.527   0.234
 7866SOL     OW72436  15.466   2.590   8.358
 7866SOL    HW172437  15.434   2.679   8.325
 7866SOL    HW272438  15.558   2.600   8.396
 7867SOL     OW72439  10.588  12.259   0.529
 7867SOL    HW172440  10.677  12.215   0.516
 7867SOL    HW272441  10.535  12.254   0.444
 7868SOL     OW72442   7.965   2.002   7.471
 7868SOL    HW172443   8.037   1.937   7.444
 7868SOL    HW272444   7.877   1.972   7.435
 7869SOL     OW72445  11.552  15.454   7.363
 7869SOL    HW172446  11.596  15.411   7.442
 7869SOL    HW272447  11.544  15.386   7.289
 7870SOL     OW72448   7.525   9.478   1.391
 7870SOL    HW172449   7.592   9.506   1.321
 7870SOL    HW272450   7.498   9.559   1.444
 7871SOL     OW72451   5.597  16.130   0.785
 7871SOL    HW172452   5.624  16.102   0.877
 7871SOL    HW272453   5.539  16.060   0.744
 7872SOL     OW72454   5.146  10.209   1.106
 7872SOL    HW172455   5.126  10.307   1.116
 7872SOL    HW272456   5.066  10.162   1.071
 7873SOL     OW72457  11.438   8.430   7.276
 7873SOL    HW172458  11.403   8.411   7.368
 7873SOL    HW272459  11.537   8.434   7.278
 7874SOL     OW72460  16.730  13.679   0.138
 7874SOL    HW172461  16.733  13.776   0.161
 7874SOL    HW272462  16.704  13.668   0.042
 7875SOL     OW72463   9.803   3.011   6.412
 7875SOL    HW172464   9.711   3.015   6.451
 7875SOL    HW272465   9.821   3.095   6.360
 7876SOL     OW72466  10.254   6.544   6.947
 7876SOL    HW172467  10.222   6.633   6.915
 7876SOL    HW272468  10.300   6.497   6.872
 7877SOL     OW72469   6.959   6.590   1.745
 7877SOL    HW172470   6.996   6.636   1.825
 7877SOL    HW272471   7.022   6.518   1.715
 7878SOL     OW72472  12.668   4.830   7.981
 7878SOL    HW172473  12.705   4.898   7.917
 7878SOL    HW272474  12.741   4.793   8.037
 7879SOL     OW72475   9.920  12.049   8.373
 7879SOL    HW172476   9.871  11.993   8.440
 7879SOL    HW272477   9.880  12.141   8.371
 7880SOL     OW72478  14.044  12.784   1.410
 7880SOL    HW172479  14.035  12.863   1.349
 7880SOL    HW272480  14.046  12.700   1.356
 7881SOL     OW72481  11.735   3.895   7.919
 7881SOL    HW172482  11.762   3.808   7.879
 7881SOL    HW272483  11.732   3.887   8.018
 7882SOL     OW72484  15.576  15.967   8.139
 7882SOL    HW172485  15.482  15.978   8.170
 7882SOL    HW272486  15.638  16.010   8.205
 7883SOL     OW72487  10.362  15.379   7.092
 7883SOL    HW172488  10.346  15.339   7.182
 7883SOL    HW272489  10.376  15.306   7.025
 7884SOL     OW72490  14.528   9.478   0.008
 7884SOL    HW172491  14.478   9.404   8.417
 7884SOL    HW272492  14.514   9.563   8.411
 7885SOL     OW72493  15.579   1.997   7.278
 7885SOL    HW172494  15.587   1.994   7.378
 7885SOL    HW272495  15.483   1.994   7.252
 7886SOL     OW72496   6.129  16.080   7.118
 7886SOL    HW172497   6.030  16.088   7.131
 7886SOL    HW272498   6.149  15.999   7.063
 7887SOL     OW72499   4.934  12.523   6.834
 7887SOL    HW172500   4.899  12.543   6.742
 7887SOL    HW272501   4.858  12.494   6.892
 7888SOL     OW72502   8.057   5.980   7.587
 7888SOL    HW172503   8.089   5.896   7.631
 7888SOL    HW272504   8.040   5.962   7.490
 7889SOL     OW72505   5.610   1.162   0.048
 7889SOL    HW172506   5.575   1.245   0.091
 7889SOL    HW272507   5.534   1.102   0.024
 7890SOL     OW72508  10.300  10.579   8.154
 7890SOL    HW172509  10.359  10.551   8.229
 7890SOL    HW272510  10.226  10.636   8.189
 7891SOL     OW72511   0.648  11.321   2.173
 7891SOL    HW172512   0.654  11.221   2.178
 7891SOL    HW272513   0.602  11.355   2.255
 7892SOL     OW72514  16.353   4.776   1.772
 7892SOL    HW172515  16.262   4.796   1.809
 7892SOL    HW272516  16.380   4.684   1.798
 7893SOL     OW72517   0.319  16.500   0.147
 7893SOL    HW172518   0.365  16.581   0.109
 7893SOL    HW272519   0.318  16.506   0.246
 7894SOL     OW72520  13.993   8.322   0.445
 7894SOL    HW172521  13.960   8.315   0.539
 7894SOL    HW272522  14.066   8.255   0.430
 7895SOL     OW72523   8.856  12.205   0.949
 7895SOL    HW172524   8.811  12.280   0.998
 7895SOL    HW272525   8.937  12.176   1.000
 7896SOL     OW72526   0.508   6.026   7.763
 7896SOL    HW172527   0.534   6.114   7.803
 7896SOL    HW272528   0.584   5.962   7.772
 7897SOL     OW72529   3.173  13.570   8.276
 7897SOL    HW172530   3.197  13.587   8.372
 7897SOL    HW272531   3.255  13.575   8.220
 7898SOL     OW72532   7.950   8.703   8.120
 7898SOL    HW172533   8.041   8.664   8.112
 7898SOL    HW272534   7.927   8.752   8.035
 7899SOL     OW72535  11.081  10.155   0.553
 7899SOL    HW172536  11.104  10.237   0.606
 7899SOL    HW272537  11.125  10.075   0.594
 7900SOL     OW72538  10.030  16.301   6.453
 7900SOL    HW172539  10.009  16.398   6.462
 7900SOL    HW272540  10.042  16.278   6.356
 7901SOL     OW72541   2.284  16.945   1.719
 7901SOL    HW172542   2.278   0.048   1.669
 7901SOL    HW272543   2.372  16.940   1.767
 7902SOL     OW72544   2.693   8.919   0.961
 7902SOL    HW172545   2.723   8.995   1.018
 7902SOL    HW272546   2.772   8.877   0.917
 7903SOL     OW72547  12.383  12.380   0.396
 7903SOL    HW172548  12.356  12.309   0.461
 7903SOL    HW272549  12.392  12.468   0.444
 7904SOL     OW72550   3.889  10.243   8.218
 7904SOL    HW172551   3.880  10.206   8.126
 7904SOL    HW272552   3.816  10.309   8.235
 7905SOL     OW72553  16.594   1.069   0.005
 7905SOL    HW172554  16.583   1.118   0.091
 7905SOL    HW272555  16.685   1.087   8.422
 7906SOL     OW72556   8.174   4.697   6.202
 7906SOL    HW172557   8.238   4.744   6.140
 7906SOL    HW272558   8.081   4.726   6.182
 7907SOL     OW72559   9.122  14.275   7.157
 7907SOL    HW172560   9.181  14.196   7.173
 7907SOL    HW272561   9.027  14.246   7.156
 7908SOL     OW72562   7.722  11.638   2.046
 7908SOL    HW172563   7.728  11.560   2.108
 7908SOL    HW272564   7.626  11.656   2.023
 7909SOL     OW72565   0.676   2.727   7.838
 7909SOL    HW172566   0.737   2.766   7.769
 7909SOL    HW272567   0.678   2.785   7.920
 7910SOL     OW72568  12.649   9.552   6.519
 7910SOL    HW172569  12.607   9.642   6.510
 7910SOL    HW272570  12.731   9.548   6.462
 7911SOL     OW72571   9.893   4.038   0.517
 7911SOL    HW172572   9.904   4.010   0.422
 7911SOL    HW272573   9.920   4.133   0.528
 7912SOL     OW72574  16.927   3.558   6.076
 7912SOL    HW172575   0.001   3.637   6.095
 7912SOL    HW272576  16.982   3.486   6.034
 7913SOL     OW72577  11.602   7.810   6.312
 7913SOL    HW172578  11.532   7.800   6.242
 7913SOL    HW272579  11.692   7.790   6.273
 7914SOL     OW72580   1.750   6.959   1.156
 7914SOL    HW172581   1.757   6.907   1.071
 7914SOL    HW272582   1.657   6.993   1.167
 7915SOL     OW72583   4.746  10.081   8.056
 7915SOL    HW172584   4.841  10.071   8.025
 7915SOL    HW272585   4.706   9.991   8.070
 7916SOL     OW72586   4.314   1.782   0.826
 7916SOL    HW172587   4.406   1.804   0.860
 7916SOL    HW272588   4.316   1.692   0.783
 7917SOL     OW72589  15.343   3.700   7.762
 7917SOL    HW172590  15.337   3.662   7.855
 7917SOL    HW272591  15.321   3.629   7.695
 7918SOL     OW72592  13.252   8.555   0.761
 7918SOL    HW172593  13.241   8.456   0.762
 7918SOL    HW272594  13.291   8.586   0.847
 7919SOL     OW72595   8.546   4.558   6.279
 7919SOL    HW172596   8.461   4.512   6.255
 7919SOL    HW272597   8.564   4.632   6.215
 7920SOL     OW72598  15.269  11.749   6.978
 7920SOL    HW172599  15.331  11.825   6.994
 7920SOL    HW272600  15.302  11.695   6.901
 7921SOL     OW72601   4.623   1.673   7.829
 7921SOL    HW172602   4.662   1.630   7.748
 7921SOL    HW272603   4.603   1.603   7.898
 7922SOL     OW72604   5.896  14.200   7.550
 7922SOL    HW172605   5.845  14.115   7.547
 7922SOL    HW272606   5.961  14.203   7.474
 7923SOL     OW72607   3.164  14.820   6.743
 7923SOL    HW172608   3.153  14.867   6.656
 7923SOL    HW272609   3.182  14.723   6.726
 7924SOL     OW72610   2.143   4.432   0.382
 7924SOL    HW172611   2.075   4.438   0.309
 7924SOL    HW272612   2.128   4.504   0.449
 7925SOL     OW72613   3.524  10.958   2.344
 7925SOL    HW172614   3.476  10.977   2.259
 7925SOL    HW272615   3.514  11.036   2.406
 7926SOL     OW72616  14.470  11.830   7.653
 7926SOL    HW172617  14.520  11.770   7.589
 7926SOL    HW272618  14.423  11.902   7.601
 7927SOL     OW72619  10.446  14.914   6.152
 7927SOL    HW172620  10.484  14.826   6.126
 7927SOL    HW272621  10.520  14.976   6.180
 7928SOL     OW72622  15.630  12.104   5.910
 7928SOL    HW172623  15.586  12.178   5.962
 7928SOL    HW272624  15.562  12.036   5.885
 7929SOL     OW72625   0.337   8.311   1.417
 7929SOL    HW172626   0.427   8.343   1.391
 7929SOL    HW272627   0.328   8.313   1.516
 7930SOL     OW72628  13.418   8.008   7.474
 7930SOL    HW172629  13.403   8.022   7.572
 7930SOL    HW272630  13.364   7.930   7.443
 7931SOL     OW72631  16.345  10.752   0.789
 7931SOL    HW172632  16.347  10.808   0.872
 7931SOL    HW272633  16.300  10.665   0.809
 7932SOL     OW72634  11.247   9.771   0.007
 7932SOL    HW172635  11.154   9.734   0.015
 7932SOL    HW272636  11.312   9.696   8.446
 7933SOL     OW72637   5.810   9.541   6.663
 7933SOL    HW172638   5.730   9.575   6.612
 7933SOL    HW272639   5.878   9.508   6.598
 7934SOL     OW72640   6.157  11.149   8.049
 7934SOL    HW172641   6.101  11.230   8.065
 7934SOL    HW272642   6.253  11.176   8.039
 7935SOL     OW72643  13.314   4.994   7.216
 7935SOL    HW172644  13.341   4.931   7.144
 7935SOL    HW272645  13.395   5.026   7.265
 7936SOL     OW72646  15.723   2.734   8.030
 7936SOL    HW172647  15.716   2.822   8.076
 7936SOL    HW272648  15.770   2.745   7.943
 7937SOL     OW72649  11.285  16.581   7.495
 7937SOL    HW172650  11.377  16.604   7.463
 7937SOL    HW272651  11.286  16.563   7.593
 7938SOL     OW72652   2.269  11.775   2.603
 7938SOL    HW172653   2.271  11.860   2.657
 7938SOL    HW272654   2.189  11.721   2.628
 7939SOL     OW72655   8.450   5.098   7.606
 7939SOL    HW172656   8.436   5.001   7.622
 7939SOL    HW272657   8.402   5.151   7.676
 7940SOL     OW72658  11.878  10.929   1.110
 7940SOL    HW172659  11.936  11.010   1.109
 7940SOL    HW272660  11.785  10.953   1.080
 7941SOL     OW72661   6.266  11.186   2.445
 7941SOL    HW172662   6.306  11.113   2.500
 7941SOL    HW272663   6.315  11.271   2.463
 7942SOL     OW72664   8.222   4.102   1.594
 7942SOL    HW172665   8.124   4.084   1.605
 7942SOL    HW272666   8.272   4.015   1.590
 7943SOL     OW72667  13.791   7.255   0.434
 7943SOL    HW172668  13.775   7.202   0.351
 7943SOL    HW272669  13.786   7.195   0.514
 7944SOL     OW72670  10.976  12.226   8.447
 7944SOL    HW172671  10.996  12.148   0.052
 7944SOL    HW272672  10.948  12.193   8.357
 7945SOL     OW72673   3.204   0.610   0.570
 7945SOL    HW172674   3.231   0.679   0.503
 7945SOL    HW272675   3.187   0.654   0.658
 7946SOL     OW72676   0.123   9.308   0.911
 7946SOL    HW172677   0.046   9.267   0.960
 7946SOL    HW272678   0.187   9.237   0.883
 7947SOL     OW72679   5.329  14.396   3.089
 7947SOL    HW172680   5.348  14.492   3.069
 7947SOL    HW272681   5.234  14.375   3.065
 7948SOL     OW72682   4.977  16.635   0.818
 7948SOL    HW172683   5.036  16.584   0.754
 7948SOL    HW272684   5.033  16.693   0.876
 7949SOL     OW72685  16.005  14.992   7.380
 7949SOL    HW172686  15.965  15.075   7.421
 7949SOL    HW272687  15.953  14.968   7.298
 7950SOL     OW72688   4.039  14.766   1.679
 7950SOL    HW172689   4.067  14.851   1.634
 7950SOL    HW272690   4.021  14.696   1.609
 7951SOL     OW72691   5.849   1.192   8.346
 7951SOL    HW172692   5.837   1.160   8.252
 7951SOL    HW272693   5.761   1.194   8.392
 7952SOL     OW72694  12.259  10.630   0.886
 7952SOL    HW172695  12.281  10.572   0.964
 7952SOL    HW272696  12.179  10.686   0.908
 7953SOL     OW72697   9.325  16.626   5.913
 7953SOL    HW172698   9.402  16.684   5.938
 7953SOL    HW272699   9.287  16.657   5.826
 7954SOL     OW72700  16.860   8.506   1.895
 7954SOL    HW172701  16.863   8.448   1.977
 7954SOL    HW272702  16.941   8.489   1.839
 7955SOL     OW72703   3.241   4.910   1.366
 7955SOL    HW172704   3.250   4.810   1.363
 7955SOL    HW272705   3.185   4.940   1.290
 7956SOL     OW72706   1.402   7.089   6.485
 7956SOL    HW172707   1.352   7.121   6.404
 7956SOL    HW272708   1.410   7.165   6.550
 7957SOL     OW72709  13.920   4.172   8.204
 7957SOL    HW172710  13.886   4.240   8.140
 7957SOL    HW272711  13.896   4.199   8.297
 7958SOL     OW72712  14.679   2.799   0.739
 7958SOL    HW172713  14.723   2.870   0.684
 7958SOL    HW272714  14.670   2.716   0.684
 7959SOL     OW72715   6.378   7.094   7.823
 7959SOL    HW172716   6.409   6.998   7.824
 7959SOL    HW272717   6.293   7.102   7.875
 7960SOL     OW72718   4.249  16.474   2.320
 7960SOL    HW172719   4.343  16.492   2.351
 7960SOL    HW272720   4.221  16.383   2.352
 7961SOL     OW72721   5.968   4.038   6.106
 7961SOL    HW172722   5.932   4.131   6.103
 7961SOL    HW272723   5.982   4.005   6.013
 7962SOL     OW72724   8.890   1.044   8.087
 7962SOL    HW172725   8.981   1.065   8.123
 7962SOL    HW272726   8.821   1.069   8.155
 7963SOL     OW72727   3.427   2.015   1.062
 7963SOL    HW172728   3.355   2.084   1.061
 7963SOL    HW272729   3.516   2.060   1.066
 7964SOL     OW72730   6.563   8.733   6.922
 7964SOL    HW172731   6.495   8.715   6.852
 7964SOL    HW272732   6.651   8.753   6.878
 7965SOL     OW72733  13.068   7.488   1.299
 7965SOL    HW172734  13.035   7.509   1.391
 7965SOL    HW272735  13.168   7.486   1.298
 7966SOL     OW72736  12.671   3.758   7.578
 7966SOL    HW172737  12.657   3.660   7.569
 7966SOL    HW272738  12.662   3.802   7.489
 7967SOL     OW72739   6.143   0.614   8.039
 7967SOL    HW172740   6.218   0.592   8.102
 7967SOL    HW272741   6.148   0.711   8.014
 7968SOL     OW72742   4.222   0.603   6.384
 7968SOL    HW172743   4.277   0.574   6.306
 7968SOL    HW272744   4.182   0.523   6.429
 7969SOL     OW72745   2.237   9.061   1.548
 7969SOL    HW172746   2.145   9.098   1.541
 7969SOL    HW272747   2.240   8.992   1.621
 7970SOL     OW72748   7.448   7.875   0.662
 7970SOL    HW172749   7.414   7.933   0.735
 7970SOL    HW272750   7.378   7.867   0.590
 7971SOL     OW72751   3.286   8.710   0.094
 7971SOL    HW172752   3.309   8.669   0.006
 7971SOL    HW272753   3.186   8.718   0.102
 7972SOL     OW72754   5.496   7.874   1.090
 7972SOL    HW172755   5.559   7.897   1.015
 7972SOL    HW272756   5.473   7.777   1.087
 7973SOL     OW72757   3.892   9.332   7.221
 7973SOL    HW172758   3.797   9.311   7.199
 7973SOL    HW272759   3.936   9.251   7.260
 7974SOL     OW72760  14.148   8.362   6.457
 7974SOL    HW172761  14.117   8.454   6.433
 7974SOL    HW272762  14.210   8.328   6.386
 7975SOL     OW72763   3.555   5.709   1.721
 7975SOL    HW172764   3.467   5.663   1.732
 7975SOL    HW272765   3.587   5.742   1.809
 7976SOL     OW72766   5.658  14.282   7.920
 7976SOL    HW172767   5.745  14.246   7.887
 7976SOL    HW272768   5.628  14.358   7.862
 7977SOL     OW72769  13.437   6.503   6.740
 7977SOL    HW172770  13.425   6.594   6.700
 7977SOL    HW272771  13.460   6.437   6.668
 7978SOL     OW72772   1.849   6.367   6.422
 7978SOL    HW172773   1.811   6.304   6.354
 7978SOL    HW272774   1.872   6.454   6.378
 7979SOL     OW72775  16.857  14.417   0.757
 7979SOL    HW172776  16.875  14.494   0.819
 7979SOL    HW272777  16.766  14.380   0.776
 7980SOL     OW72778   1.044  10.913   1.493
 7980SOL    HW172779   1.112  10.929   1.421
 7980SOL    HW272780   1.089  10.874   1.573
 7981SOL     OW72781  10.446  12.626   1.018
 7981SOL    HW172782  10.347  12.629   1.007
 7981SOL    HW272783  10.471  12.661   1.108
 7982SOL     OW72784   4.154   6.249   0.198
 7982SOL    HW172785   4.183   6.298   0.116
 7982SOL    HW272786   4.230   6.246   0.263
 7983SOL     OW72787   8.627   3.657   1.373
 7983SOL    HW172788   8.651   3.673   1.277
 7983SOL    HW272789   8.663   3.732   1.429
 7984SOL     OW72790  12.491   5.610   8.019
 7984SOL    HW172791  12.511   5.681   7.952
 7984SOL    HW272792  12.495   5.520   7.974
 7985SOL     OW72793   2.533   1.355   1.090
 7985SOL    HW172794   2.612   1.407   1.058
 7985SOL    HW272795   2.548   1.325   1.184
 7986SOL     OW72796  12.695  12.661   6.946
 7986SOL    HW172797  12.758  12.651   6.869
 7986SOL    HW272798  12.608  12.697   6.914
 7987SOL     OW72799  14.959   9.502   1.371
 7987SOL    HW172800  15.010   9.558   1.437
 7987SOL    HW272801  15.020   9.469   1.300
 7988SOL     OW72802   0.191   7.412   1.556
 7988SOL    HW172803   0.188   7.454   1.646
 7988SOL    HW272804   0.132   7.331   1.555
 7989SOL     OW72805   7.040  11.155   7.039
 7989SOL    HW172806   7.119  11.102   7.070
 7989SOL    HW272807   7.001  11.205   7.116
 7990SOL     OW72808   2.295   5.791   5.945
 7990SOL    HW172809   2.233   5.822   5.873
 7990SOL    HW272810   2.270   5.698   5.973
 7991SOL     OW72811   1.038   5.145   7.534
 7991SOL    HW172812   1.112   5.090   7.575
 7991SOL    HW272813   1.017   5.222   7.593
 7992SOL     OW72814   4.489   8.263   7.841
 7992SOL    HW172815   4.409   8.284   7.785
 7992SOL    HW272816   4.554   8.210   7.787
 7993SOL     OW72817  10.176   3.827   0.930
 7993SOL    HW172818  10.114   3.856   0.857
 7993SOL    HW272819  10.212   3.908   0.976
 7994SOL     OW72820   6.387   0.575   7.566
 7994SOL    HW172821   6.295   0.602   7.536
 7994SOL    HW272822   6.450   0.651   7.552
 7995SOL     OW72823   8.105  10.560   7.358
 7995SOL    HW172824   8.141  10.598   7.272
 7995SOL    HW272825   8.038  10.489   7.338
 7996SOL     OW72826   7.559   1.681   0.921
 7996SOL    HW172827   7.630   1.645   0.861
 7996SOL    HW272828   7.601   1.735   0.994
 7997SOL     OW72829   6.285   5.735   7.088
 7997SOL    HW172830   6.340   5.732   7.171
 7997SOL    HW272831   6.256   5.828   7.070
 7998SOL     OW72832  12.131   5.209   8.401
 7998SOL    HW172833  12.034   5.200   8.382
 7998SOL    HW272834  12.170   5.119   8.419
 7999SOL     OW72835   7.748  14.662   0.584
 7999SOL    HW172836   7.677  14.593   0.596
 7999SOL    HW272837   7.741  14.730   0.658
 8000SOL     OW72838   3.696  12.916   1.958
 8000SOL    HW172839   3.605  12.953   1.973
 8000SOL    HW272840   3.692  12.843   1.890
 8001SOL     OW72841   6.413   7.274   0.062
 8001SOL    HW172842   6.327   7.286   0.012
 8001SOL    HW272843   6.414   7.334   0.142
 8002SOL     OW72844  11.091  14.183   1.051
 8002SOL    HW172845  11.137  14.263   1.092
 8002SOL    HW272846  11.160  14.123   1.010
 8003SOL     OW72847  10.686  13.229   6.208
 8003SOL    HW172848  10.768  13.244   6.153
 8003SOL    HW272849  10.607  13.270   6.163
 8004SOL     OW72850  16.416   1.239   6.350
 8004SOL    HW172851  16.506   1.257   6.390
 8004SOL    HW272852  16.350   1.303   6.388
 8005SOL     OW72853  16.416   2.423   8.354
 8005SOL    HW172854  16.367   2.502   8.318
 8005SOL    HW272855  16.396   2.413   8.452
 8006SOL     OW72856  14.431  10.181   7.096
 8006SOL    HW172857  14.485  10.178   7.181
 8006SOL    HW272858  14.489  10.211   7.021
 8007SOL     OW72859  11.445   4.112   6.478
 8007SOL    HW172860  11.410   4.075   6.565
 8007SOL    HW272861  11.376   4.170   6.436
 8008SOL     OW72862   3.445   6.103   7.508
 8008SOL    HW172863   3.512   6.077   7.439
 8008SOL    HW272864   3.386   6.025   7.528
 8009SOL     OW72865   8.383   7.773   7.229
 8009SOL    HW172866   8.294   7.817   7.248
 8009SOL    HW272867   8.422   7.739   7.314
 8010SOL     OW72868  12.172   9.747   6.755
 8010SOL    HW172869  12.108   9.819   6.727
 8010SOL    HW272870  12.122   9.673   6.799
 8011SOL     OW72871  12.910   0.139   1.984
 8011SOL    HW172872  12.963   0.108   1.905
 8011SOL    HW272873  12.813   0.117   1.969
 8012SOL     OW72874  11.666   6.707   6.739
 8012SOL    HW172875  11.632   6.621   6.777
 8012SOL    HW272876  11.679   6.696   6.640
 8013SOL     OW72877   9.504   2.558   0.843
 8013SOL    HW172878   9.436   2.631   0.831
 8013SOL    HW272879   9.535   2.526   0.754
 8014SOL     OW72880   0.347   5.394   0.008
 8014SOL    HW172881   0.387   5.305   8.438
 8014SOL    HW272882   0.400   5.436   0.081
 8015SOL     OW72883   4.801  16.298   0.227
 8015SOL    HW172884   4.804  16.389   0.188
 8015SOL    HW272885   4.709  16.279   0.262
 8016SOL     OW72886  11.376  13.743   1.139
 8016SOL    HW172887  11.399  13.837   1.115
 8016SOL    HW272888  11.277  13.731   1.134
 8017SOL     OW72889   8.566   4.776   6.768
 8017SOL    HW172890   8.540   4.740   6.678
 8017SOL    HW272891   8.658   4.815   6.762
 8018SOL     OW72892  15.528   8.486   0.658
 8018SOL    HW172893  15.430   8.469   0.668
 8018SOL    HW272894  15.545   8.584   0.660
 8019SOL     OW72895   3.908   8.061   7.543
 8019SOL    HW172896   3.810   8.044   7.551
 8019SOL    HW272897   3.948   8.001   7.474
 8020SOL     OW72898  14.277   8.973   1.979
 8020SOL    HW172899  14.248   8.942   2.069
 8020SOL    HW272900  14.227   9.055   1.954
 8021SOL     OW72901  14.988   2.075   7.544
 8021SOL    HW172902  15.078   2.070   7.501
 8021SOL    HW272903  14.925   2.015   7.496
 8022SOL     OW72904   1.527   5.171   8.298
 8022SOL    HW172905   1.624   5.184   8.319
 8022SOL    HW272906   1.476   5.252   8.327
 8023SOL     OW72907  16.610   5.676   0.346
 8023SOL    HW172908  16.529   5.683   0.404
 8023SOL    HW272909  16.691   5.701   0.399
 8024SOL     OW72910  13.427  11.800   8.186
 8024SOL    HW172911  13.343  11.818   8.135
 8024SOL    HW272912  13.409  11.810   8.284
 8025SOL     OW72913  16.311  11.039   2.128
 8025SOL    HW172914  16.373  10.974   2.084
 8025SOL    HW272915  16.328  11.040   2.226
 8026SOL     OW72916   3.837  14.781   0.968
 8026SOL    HW172917   3.791  14.711   0.914
 8026SOL    HW272918   3.932  14.790   0.938
 8027SOL     OW72919  14.214  12.192   1.104
 8027SOL    HW172920  14.222  12.292   1.102
 8027SOL    HW272921  14.243  12.158   1.193
 8028SOL     OW72922  13.822   6.112   6.910
 8028SOL    HW172923  13.772   6.056   6.976
 8028SOL    HW272924  13.898   6.059   6.872
 8029SOL     OW72925   2.362   4.248   0.143
 8029SOL    HW172926   2.378   4.283   0.051
 8029SOL    HW272927   2.358   4.325   0.207
 8030SOL     OW72928   1.386  14.650   0.634
 8030SOL    HW172929   1.333  14.703   0.700
 8030SOL    HW272930   1.470  14.700   0.610
 8031SOL     OW72931   5.189   7.937   8.141
 8031SOL    HW172932   5.276   7.986   8.148
 8031SOL    HW272933   5.142   7.940   8.229
 8032SOL     OW72934   2.047  11.864   0.154
 8032SOL    HW172935   2.142  11.890   0.171
 8032SOL    HW272936   2.044  11.790   0.087
 8033SOL     OW72937  14.265   3.185   5.966
 8033SOL    HW172938  14.330   3.217   5.897
 8033SOL    HW272939  14.173   3.217   5.943
 8034SOL     OW72940   9.180   6.283   1.792
 8034SOL    HW172941   9.151   6.294   1.696
 8034SOL    HW272942   9.221   6.368   1.824
 8035SOL     OW72943  14.432   2.440   1.152
 8035SOL    HW172944  14.481   2.413   1.235
 8035SOL    HW272945  14.498   2.468   1.082
 8036SOL     OW72946   7.954  16.149   7.049
 8036SOL    HW172947   7.897  16.221   7.008
 8036SOL    HW272948   8.008  16.105   6.977
 8037SOL     OW72949  10.732   0.879   1.678
 8037SOL    HW172950  10.675   0.841   1.750
 8037SOL    HW272951  10.828   0.870   1.703
 8038SOL     OW72952  12.589   2.499   7.420
 8038SOL    HW172953  12.623   2.512   7.327
 8038SOL    HW272954  12.643   2.555   7.483
 8039SOL     OW72955  13.033  12.900   1.100
 8039SOL    HW172956  13.028  12.929   1.195
 8039SOL    HW272957  13.037  12.800   1.095
 8040SOL     OW72958  13.987  16.693   6.543
 8040SOL    HW172959  13.976  16.617   6.607
 8040SOL    HW272960  14.025  16.659   6.457
 8041SOL     OW72961   2.919  13.681   8.260
 8041SOL    HW172962   2.912  13.715   8.166
 8041SOL    HW272963   3.007  13.634   8.272
 8042SOL     OW72964  11.346   1.554   2.101
 8042SOL    HW172965  11.413   1.480   2.098
 8042SOL    HW272966  11.265   1.523   2.150
 8043SOL     OW72967   0.534   4.446   6.838
 8043SOL    HW172968   0.625   4.467   6.874
 8043SOL    HW272969   0.490   4.379   6.898
 8044SOL     OW72970   3.595   3.658   7.976
 8044SOL    HW172971   3.557   3.734   8.028
 8044SOL    HW272972   3.670   3.617   8.028
 8045SOL     OW72973   2.086   3.763   7.188
 8045SOL    HW172974   2.045   3.798   7.104
 8045SOL    HW272975   2.014   3.724   7.246
 8046SOL     OW72976  13.964   3.346   7.506
 8046SOL    HW172977  13.874   3.309   7.481
 8046SOL    HW272978  13.962   3.446   7.496
 8047SOL     OW72979  10.159  15.613   1.502
 8047SOL    HW172980  10.238  15.569   1.544
 8047SOL    HW272981  10.118  15.552   1.434
 8048SOL     OW72982   0.972   4.377   8.284
 8048SOL    HW172983   0.973   4.420   8.194
 8048SOL    HW272984   0.877   4.371   8.316
 8049SOL     OW72985   2.996  15.695   1.393
 8049SOL    HW172986   2.938  15.758   1.342
 8049SOL    HW272987   2.987  15.603   1.355
 8050SOL     OW72988  16.915   0.408   8.201
 8050SOL    HW172989  16.862   0.486   8.234
 8050SOL    HW272990   0.028   0.434   8.192
 8051SOL     OW72991   9.841   9.971   1.362
 8051SOL    HW172992   9.937   9.978   1.389
 8051SOL    HW272993   9.815  10.053   1.312
 8052SOL     OW72994   9.245  13.148   7.108
 8052SOL    HW172995   9.295  13.073   7.151
 8052SOL    HW272996   9.164  13.169   7.162
 8053SOL     OW72997   2.005   0.640   1.517
 8053SOL    HW172998   1.907   0.655   1.524
 8053SOL    HW272999   2.035   0.581   1.592
 8054SOL     OW73000  12.845   1.826   7.719
 8054SOL    HW173001  12.944   1.810   7.721
 8054SOL    HW273002  12.825   1.912   7.766
 8055SOL     OW73003   5.131   5.447   8.297
 8055SOL    HW173004   5.093   5.366   8.342
 8055SOL    HW273005   5.135   5.431   8.199
 8056SOL     OW73006  16.417   9.642   8.230
 8056SOL    HW173007  16.497   9.631   8.172
 8056SOL    HW273008  16.433   9.715   8.297
 8057SOL     OW73009  13.209   2.208   8.225
 8057SOL    HW173010  13.170   2.281   8.280
 8057SOL    HW273011  13.265   2.148   8.283
 8058SOL     OW73012  14.703  12.855   1.783
 8058SOL    HW173013  14.800  12.839   1.766
 8058SOL    HW273014  14.680  12.821   1.875
 8059SOL     OW73015   3.803   4.294   7.666
 8059SOL    HW173016   3.764   4.320   7.754
 8059SOL    HW273017   3.730   4.258   7.607
 8060SOL     OW73018   3.500   7.497   8.433
 8060SOL    HW173019   3.409   7.492   0.021
 8060SOL    HW273020   3.526   7.593   8.422
 8061SOL     OW73021  11.160   1.149   0.925
 8061SOL    HW173022  11.206   1.174   1.010
 8061SOL    HW273023  11.083   1.089   0.945
 8062SOL     OW73024   5.064  11.015   1.148
 8062SOL    HW173025   4.966  11.009   1.167
 8062SOL    HW273026   5.078  11.032   1.050
 8063SOL     OW73027   1.374   2.228   7.334
 8063SOL    HW173028   1.333   2.291   7.400
 8063SOL    HW273029   1.353   2.260   7.241
 8064SOL     OW73030  14.929  13.119   7.486
 8064SOL    HW173031  14.951  13.216   7.499
 8064SOL    HW273032  14.936  13.096   7.389
 8065SOL     OW73033   2.755   8.395   7.406
 8065SOL    HW173034   2.771   8.439   7.317
 8065SOL    HW273035   2.666   8.351   7.405
 8066SOL     OW73036  12.136   8.702   0.210
 8066SOL    HW173037  12.202   8.760   0.256
 8066SOL    HW273038  12.071   8.759   0.159
 8067SOL     OW73039  13.031  11.012   0.261
 8067SOL    HW173040  13.121  11.053   0.244
 8067SOL    HW273041  12.963  11.056   0.203
 8068SOL     OW73042   3.422   1.002   7.037
 8068SOL    HW173043   3.341   0.989   6.980
 8068SOL    HW273044   3.491   1.052   6.986
 8069SOL     OW73045   1.602   6.272   6.851
 8069SOL    HW173046   1.563   6.248   6.939
 8069SOL    HW273047   1.700   6.290   6.860
 8070SOL     OW73048  11.993   4.196   0.541
 8070SOL    HW173049  12.014   4.192   0.443
 8070SOL    HW273050  11.894   4.191   0.555
 8071SOL     OW73051   6.745  10.805   7.114
 8071SOL    HW173052   6.804  10.851   7.048
 8071SOL    HW273053   6.738  10.860   7.197
 8072SOL     OW73054   2.130  11.015   0.721
 8072SOL    HW173055   2.154  10.948   0.791
 8072SOL    HW273056   2.213  11.051   0.679
 8073SOL     OW73057  12.858   3.509   8.246
 8073SOL    HW173058  12.830   3.455   8.168
 8073SOL    HW273059  12.930   3.461   8.297
 8074SOL     OW73060  11.973   9.592   6.865
 8074SOL    HW173061  11.961   9.641   6.951
 8074SOL    HW273062  11.884   9.559   6.832
 8075SOL     OW73063   0.731  14.060   7.662
 8075SOL    HW173064   0.649  14.087   7.613
 8075SOL    HW273065   0.715  14.067   7.761
 8076SOL     OW73066  14.553   1.521   6.153
 8076SOL    HW173067  14.597   1.432   6.142
 8076SOL    HW273068  14.612   1.592   6.114
 8077SOL     OW73069   6.359  10.381   0.247
 8077SOL    HW173070   6.379  10.431   0.330
 8077SOL    HW273071   6.301  10.302   0.269
 8078SOL     OW73072  14.151   5.484   7.017
 8078SOL    HW173073  14.167   5.464   7.114
 8078SOL    HW273074  14.232   5.527   6.977
 8079SOL     OW73075   1.933   7.839   1.059
 8079SOL    HW173076   1.913   7.938   1.056
 8079SOL    HW273077   1.943   7.810   1.154
 8080SOL     OW73078  14.068   2.241   7.954
 8080SOL    HW173079  14.066   2.210   7.859
 8080SOL    HW273080  14.137   2.189   8.004
 8081SOL     OW73081   5.277   5.295   0.259
 8081SOL    HW173082   5.187   5.313   0.220
 8081SOL    HW273083   5.320   5.219   0.211
 8082SOL     OW73084   2.206  10.859   0.933
 8082SOL    HW173085   2.198  10.760   0.931
 8082SOL    HW273086   2.291  10.885   0.978
 8083SOL     OW73087   5.604  12.973   7.396
 8083SOL    HW173088   5.532  12.904   7.404
 8083SOL    HW273089   5.576  13.056   7.445
 8084SOL     OW73090  12.745  16.749   6.634
 8084SOL    HW173091  12.800  16.672   6.600
 8084SOL    HW273092  12.772  16.769   6.728
 8085SOL     OW73093   9.637   0.369   7.709
 8085SOL    HW173094   9.683   0.373   7.798
 8085SOL    HW273095   9.554   0.424   7.712
 8086SOL     OW73096  13.603  10.195   0.741
 8086SOL    HW173097  13.623  10.232   0.650
 8086SOL    HW273098  13.611  10.267   0.809
 8087SOL     OW73099   5.107  12.492   1.317
 8087SOL    HW173100   5.203  12.514   1.333
 8087SOL    HW273101   5.081  12.415   1.375
 8088SOL     OW73102  13.024   6.890   1.523
 8088SOL    HW173103  12.926   6.870   1.528
 8088SOL    HW273104  13.059   6.859   1.434
 8089SOL     OW73105   0.474   3.313   7.357
 8089SOL    HW173106   0.538   3.322   7.432
 8089SOL    HW273107   0.468   3.400   7.307
 8090SOL     OW73108   9.646   9.025   7.082
 8090SOL    HW173109   9.594   9.067   7.008
 8090SOL    HW273110   9.699   8.948   7.045
 8091SOL     OW73111   6.786   5.538   7.499
 8091SOL    HW173112   6.880   5.561   7.472
 8091SOL    HW273113   6.725   5.553   7.421
 8092SOL     OW73114  13.190  13.063   8.399
 8092SOL    HW173115  13.202  13.026   0.037
 8092SOL    HW273116  13.277  13.058   8.349
 8093SOL     OW73117  16.981  13.287   1.548
 8093SOL    HW173118  16.903  13.233   1.518
 8093SOL    HW273119   0.048  13.321   1.468
 8094SOL     OW73120   0.864  16.761   1.875
 8094SOL    HW173121   0.893  16.850   1.911
 8094SOL    HW273122   0.774  16.771   1.831
 8095SOL     OW73123   4.810   8.531   1.124
 8095SOL    HW173124   4.844   8.564   1.036
 8095SOL    HW273125   4.818   8.603   1.193
 8096SOL     OW73126  13.547   2.745   5.256
 8096SOL    HW173127  13.459   2.698   5.248
 8096SOL    HW273128  13.538   2.822   5.320
 8097SOL     OW73129   3.872   0.726   0.610
 8097SOL    HW173130   3.778   0.759   0.621
 8097SOL    HW273131   3.892   0.657   0.679
 8098SOL     OW73132   3.751  16.861   0.833
 8098SOL    HW173133   3.711  16.881   0.922
 8098SOL    HW273134   3.717  16.928   0.766
 8099SOL     OW73135  13.869   9.610   6.824
 8099SOL    HW173136  13.816   9.532   6.857
 8099SOL    HW273137  13.822   9.695   6.845
 8100SOL     OW73138   9.013   4.846   0.616
 8100SOL    HW173139   9.016   4.882   0.709
 8100SOL    HW273140   9.104   4.818   0.588
 8101SOL     OW73141   7.209  16.898   7.012
 8101SOL    HW173142   7.201  16.864   7.106
 8101SOL    HW273143   7.306  16.897   6.985
 8102SOL     OW73144  16.532   6.699   8.200
 8102SOL    HW173145  16.564   6.788   8.231
 8102SOL    HW273146  16.442   6.680   8.239
 8103SOL     OW73147  14.287   0.346   0.972
 8103SOL    HW173148  14.369   0.355   0.916
 8103SOL    HW273149  14.297   0.400   1.056
 8104SOL     OW73150   1.454  15.119   8.417
 8104SOL    HW173151   1.424  15.049   8.351
 8104SOL    HW273152   1.377  15.177   8.440
 8105SOL     OW73153  13.918  10.267   0.579
 8105SOL    HW173154  13.957  10.328   0.648
 8105SOL    HW273155  13.991  10.211   0.538
 8106SOL     OW73156   1.342   1.834   0.752
 8106SOL    HW173157   1.417   1.793   0.804
 8106SOL    HW273158   1.372   1.920   0.712
 8107SOL     OW73159  13.371  13.984   1.862
 8107SOL    HW173160  13.370  14.077   1.824
 8107SOL    HW273161  13.453  13.973   1.918
 8108SOL     OW73162   5.953  11.341   8.087
 8108SOL    HW173163   5.964  11.428   8.038
 8108SOL    HW273164   5.858  11.311   8.081
 8109SOL     OW73165  16.758  12.731   1.282
 8109SOL    HW173166  16.738  12.639   1.248
 8109SOL    HW273167  16.737  12.798   1.212
 8110SOL     OW73168   5.929   6.358   6.264
 8110SOL    HW173169   5.954   6.454   6.278
 8110SOL    HW273170   5.850   6.352   6.203
 8111SOL     OW73171  14.521   1.263   7.390
 8111SOL    HW173172  14.464   1.185   7.365
 8111SOL    HW273173  14.543   1.259   7.488
 8112SOL     OW73174  12.575  10.986   7.119
 8112SOL    HW173175  12.508  11.060   7.121
 8112SOL    HW273176  12.571  10.935   7.205
 8113SOL     OW73177  13.216   9.589   7.368
 8113SOL    HW173178  13.251   9.619   7.279
 8113SOL    HW273179  13.130   9.540   7.356
 8114SOL     OW73180   7.753  15.172   1.116
 8114SOL    HW173181   7.841  15.162   1.161
 8114SOL    HW273182   7.715  15.262   1.135
 8115SOL     OW73183  13.302  11.382   2.013
 8115SOL    HW173184  13.258  11.455   2.064
 8115SOL    HW273185  13.375  11.419   1.956
 8116SOL     OW73186  10.380  16.835   1.572
 8116SOL    HW173187  10.371  16.886   1.657
 8116SOL    HW273188  10.341  16.889   1.497
 8117SOL     OW73189   2.203  13.868   1.059
 8117SOL    HW173190   2.193  13.893   0.963
 8117SOL    HW273191   2.256  13.783   1.066
 8118SOL     OW73192   7.154   2.319   0.907
 8118SOL    HW173193   7.137   2.383   0.833
 8118SOL    HW273194   7.252   2.315   0.927
 8119SOL     OW73195   4.836  11.841   7.687
 8119SOL    HW173196   4.862  11.877   7.598
 8119SOL    HW273197   4.796  11.915   7.742
 8120SOL     OW73198  13.702  13.192   2.270
 8120SOL    HW173199  13.611  13.185   2.312
 8120SOL    HW273200  13.751  13.106   2.281
 8121SOL     OW73201   9.960   1.276   6.218
 8121SOL    HW173202   9.905   1.328   6.284
 8121SOL    HW273203  10.054   1.268   6.251
 8122SOL     OW73204   2.415   1.450   1.408
 8122SOL    HW173205   2.324   1.414   1.390
 8122SOL    HW273206   2.483   1.379   1.389
 8123SOL     OW73207  10.793   2.791   0.563
 8123SOL    HW173208  10.764   2.697   0.582
 8123SOL    HW273209  10.851   2.823   0.638
 8124SOL     OW73210   6.110   6.421   8.329
 8124SOL    HW173211   6.139   6.327   8.315
 8124SOL    HW273212   6.063   6.454   8.246
 8125SOL     OW73213   3.086   6.838   6.245
 8125SOL    HW173214   2.994   6.863   6.214
 8125SOL    HW273215   3.152   6.856   6.172
 8126SOL     OW73216   2.914  12.606   1.129
 8126SOL    HW173217   2.983  12.673   1.102
 8126SOL    HW273218   2.916  12.528   1.067
 8127SOL     OW73219  13.811   2.834   0.581
 8127SOL    HW173220  13.716   2.821   0.611
 8127SOL    HW273221  13.812   2.858   0.484
 8128SOL     OW73222  14.764   9.140   7.585
 8128SOL    HW173223  14.746   9.110   7.679
 8128SOL    HW273224  14.729   9.233   7.573
 8129SOL     OW73225  15.686   2.154   0.175
 8129SOL    HW173226  15.716   2.212   0.099
 8129SOL    HW273227  15.756   2.152   0.245
 8130SOL     OW73228   5.054   2.870   7.451
 8130SOL    HW173229   5.140   2.850   7.404
 8130SOL    HW273230   4.985   2.803   7.425
 8131SOL     OW73231  16.145   7.582   7.373
 8131SOL    HW173232  16.088   7.500   7.376
 8131SOL    HW273233  16.095   7.655   7.327
 8132SOL     OW73234  16.243  13.111   6.466
 8132SOL    HW173235  16.191  13.192   6.439
 8132SOL    HW273236  16.341  13.130   6.454
 8133SOL     OW73237  13.715  10.779   1.780
 8133SOL    HW173238  13.774  10.819   1.850
 8133SOL    HW273239  13.735  10.821   1.692
 8134SOL     OW73240   2.939   2.072   7.686
 8134SOL    HW173241   2.890   2.026   7.612
 8134SOL    HW273242   3.017   2.122   7.648
 8135SOL     OW73243   9.890   1.511   8.048
 8135SOL    HW173244   9.943   1.567   8.111
 8135SOL    HW273245   9.827   1.454   8.100
 8136SOL     OW73246  10.112  16.491   1.523
 8136SOL    HW173247  10.063  16.407   1.546
 8136SOL    HW273248  10.051  16.570   1.535
 8137SOL     OW73249  11.629   5.933   8.369
 8137SOL    HW173250  11.594   5.919   8.277
 8137SOL    HW273251  11.624   6.031   8.392
 8138SOL     OW73252   8.873   0.193   1.597
 8138SOL    HW173253   8.874   0.094   1.587
 8138SOL    HW273254   8.868   0.217   1.694
 8139SOL     OW73255  15.206   2.645   6.708
 8139SOL    HW173256  15.283   2.709   6.702
 8139SOL    HW273257  15.210   2.581   6.631
 8140SOL     OW73258   5.799  15.751   7.908
 8140SOL    HW173259   5.837  15.742   8.000
 8140SOL    HW273260   5.838  15.680   7.849
 8141SOL     OW73261   2.951   1.731   1.203
 8141SOL    HW173262   2.920   1.780   1.122
 8141SOL    HW273263   2.960   1.634   1.182
 8142SOL     OW73264  14.733   7.182   1.705
 8142SOL    HW173265  14.679   7.098   1.696
 8142SOL    HW273266  14.770   7.187   1.797
 8143SOL     OW73267  12.522  11.195   1.447
 8143SOL    HW173268  12.615  11.162   1.464
 8143SOL    HW273269  12.506  11.278   1.499
 8144SOL     OW73270   9.111   6.804   8.388
 8144SOL    HW173271   9.095   6.823   0.031
 8144SOL    HW273272   9.194   6.851   8.358
 8145SOL     OW73273   5.754  12.940   6.339
 8145SOL    HW173274   5.801  12.918   6.254
 8145SOL    HW273275   5.682  12.872   6.355
 8146SOL     OW73276   5.671   7.625   8.293
 8146SOL    HW173277   5.714   7.660   8.210
 8146SOL    HW273278   5.742   7.591   8.356
 8147SOL     OW73279   2.800   7.706   0.853
 8147SOL    HW173280   2.873   7.772   0.838
 8147SOL    HW273281   2.823   7.649   0.932
 8148SOL     OW73282  13.152   2.817   0.810
 8148SOL    HW173283  13.199   2.857   0.889
 8148SOL    HW273284  13.170   2.873   0.729
 8149SOL     OW73285  15.406  12.908   6.381
 8149SOL    HW173286  15.369  12.836   6.440
 8149SOL    HW273287  15.481  12.871   6.326
 8150SOL     OW73288   9.655   1.198   7.447
 8150SOL    HW173289   9.741   1.208   7.398
 8150SOL    HW273290   9.594   1.275   7.424
 8151SOL     OW73291   4.180   0.996   2.894
 8151SOL    HW173292   4.105   1.060   2.881
 8151SOL    HW273293   4.143   0.904   2.908
 8152SOL     OW73294   5.813  10.223   7.567
 8152SOL    HW173295   5.845  10.300   7.512
 8152SOL    HW273296   5.815  10.249   7.664
 8153SOL     OW73297  13.042   3.509   5.965
 8153SOL    HW173298  13.097   3.485   5.885
 8153SOL    HW273299  13.101   3.543   6.037
 8154SOL     OW73300  13.262   0.903   6.464
 8154SOL    HW173301  13.260   0.881   6.367
 8154SOL    HW273302  13.344   0.957   6.485
 8155SOL     OW73303  14.891  10.466   7.965
 8155SOL    HW173304  14.797  10.438   7.983
 8155SOL    HW273305  14.954  10.406   8.013
 8156SOL     OW73306   4.415   6.054   1.073
 8156SOL    HW173307   4.328   6.006   1.081
 8156SOL    HW273308   4.398   6.150   1.052
 8157SOL     OW73309   7.899   2.982   8.089
 8157SOL    HW173310   7.869   2.992   7.995
 8157SOL    HW273311   7.879   3.066   8.140
 8158SOL     OW73312   9.183   0.397   0.897
 8158SOL    HW173313   9.101   0.422   0.845
 8158SOL    HW273314   9.158   0.331   0.968
 8159SOL     OW73315   6.572   9.878   0.026
 8159SOL    HW173316   6.650   9.820   0.004
 8159SOL    HW273317   6.509   9.829   0.085
 8160SOL     OW73318  12.047  16.907   0.951
 8160SOL    HW173319  12.141  16.887   0.923
 8160SOL    HW273320  11.985  16.884   0.875
 8161SOL     OW73321   3.950   9.518   7.030
 8161SOL    HW173322   3.886   9.594   7.040
 8161SOL    HW273323   3.933   9.452   7.104
 8162SOL     OW73324  14.057  10.194   6.822
 8162SOL    HW173325  14.017  10.158   6.738
 8162SOL    HW273326  14.109  10.277   6.802
 8163SOL     OW73327  14.719   3.155   8.074
 8163SOL    HW173328  14.700   3.058   8.090
 8163SOL    HW273329  14.633   3.205   8.070
 8164SOL     OW73330   1.684  16.227   1.304
 8164SOL    HW173331   1.682  16.160   1.229
 8164SOL    HW273332   1.772  16.223   1.350
 8165SOL     OW73333  11.075  11.126   7.666
 8165SOL    HW173334  11.125  11.117   7.579
 8165SOL    HW273335  11.047  11.036   7.698
 8166SOL     OW73336  10.546  13.516   7.868
 8166SOL    HW173337  10.505  13.582   7.806
 8166SOL    HW273338  10.494  13.514   7.953
 8167SOL     OW73339   5.862   5.832   6.989
 8167SOL    HW173340   5.765   5.851   7.009
 8167SOL    HW273341   5.896   5.899   6.923
 8168SOL     OW73342   7.471   8.982   0.063
 8168SOL    HW173343   7.551   9.042   0.070
 8168SOL    HW273344   7.461   8.952   8.422
 8169SOL     OW73345  10.144  14.132   0.305
 8169SOL    HW173346  10.072  14.063   0.309
 8169SOL    HW273347  10.229  14.094   0.342
 8170SOL     OW73348   4.550  15.019   1.715
 8170SOL    HW173349   4.547  15.118   1.729
 8170SOL    HW273350   4.644  14.987   1.730
 8171SOL     OW73351  15.638   9.020   7.358
 8171SOL    HW173352  15.667   8.934   7.317
 8171SOL    HW273353  15.594   9.077   7.289
 8172SOL     OW73354   4.978  11.271   0.310
 8172SOL    HW173355   5.033  11.345   0.348
 8172SOL    HW273356   4.926  11.226   0.384
 8173SOL     OW73357  16.366  13.538   2.451
 8173SOL    HW173358  16.285  13.486   2.478
 8173SOL    HW273359  16.356  13.633   2.479
 8174SOL     OW73360   1.856  14.794   7.404
 8174SOL    HW173361   1.842  14.869   7.468
 8174SOL    HW273362   1.787  14.797   7.332
 8175SOL     OW73363   6.377  13.822   7.455
 8175SOL    HW173364   6.296  13.824   7.397
 8175SOL    HW273365   6.434  13.902   7.436
 8176SOL     OW73366   2.639   9.591   8.352
 8176SOL    HW173367   2.697   9.614   8.429
 8176SOL    HW273368   2.544   9.608   8.375
 8177SOL     OW73369  16.381   9.011   7.794
 8177SOL    HW173370  16.282   9.016   7.802
 8177SOL    HW273371  16.414   9.089   7.740
 8178SOL     OW73372   1.670  11.897   7.350
 8178SOL    HW173373   1.711  11.987   7.335
 8178SOL    HW273374   1.632  11.892   7.442
 8179SOL     OW73375   5.966   9.388   7.949
 8179SOL    HW173376   5.992   9.313   7.889
 8179SOL    HW273377   6.015   9.379   8.036
 8180SOL     OW73378  10.819   5.258   1.641
 8180SOL    HW173379  10.780   5.328   1.700
 8180SOL    HW273380  10.807   5.168   1.683
 8181SOL     OW73381  11.502   2.342   8.329
 8181SOL    HW173382  11.591   2.310   8.295
 8181SOL    HW273383  11.487   2.436   8.301
 8182SOL     OW73384   1.161  16.702   7.739
 8182SOL    HW173385   1.123  16.723   7.649
 8182SOL    HW273386   1.098  16.644   7.789
 8183SOL     OW73387   7.657   1.640   1.716
 8183SOL    HW173388   7.687   1.545   1.705
 8183SOL    HW273389   7.661   1.666   1.812
 8184SOL     OW73390   1.663   2.477   0.475
 8184SOL    HW173391   1.630   2.444   0.386
 8184SOL    HW273392   1.734   2.415   0.509
 8185SOL     OW73393  13.722   9.840   6.882
 8185SOL    HW173394  13.638   9.874   6.839
 8185SOL    HW273395  13.731   9.879   6.973
 8186SOL     OW73396   1.961   0.310   0.726
 8186SOL    HW173397   1.886   0.355   0.774
 8186SOL    HW273398   2.046   0.326   0.776
 8187SOL     OW73399  14.900  15.550   7.141
 8187SOL    HW173400  14.955  15.575   7.062
 8187SOL    HW273401  14.830  15.620   7.157
 8188SOL     OW73402  12.070   2.201   1.256
 8188SOL    HW173403  11.989   2.241   1.299
 8188SOL    HW273404  12.070   2.102   1.269
 8189SOL     OW73405   9.044   3.951   1.277
 8189SOL    HW173406   8.988   3.927   1.198
 8189SOL    HW273407   9.125   4.001   1.248
 8190SOL     OW73408   5.530  16.368   1.774
 8190SOL    HW173409   5.565  16.461   1.773
 8190SOL    HW273410   5.594  16.308   1.823
 8191SOL     OW73411  16.965  15.500   0.992
 8191SOL    HW173412  16.967  15.485   0.893
 8191SOL    HW273413  16.952  15.597   1.011
 8192SOL     OW73414   9.402  10.793   6.183
 8192SOL    HW173415   9.458  10.797   6.266
 8192SOL    HW273416   9.421  10.873   6.127
 8193SOL     OW73417   0.262   7.254   8.073
 8193SOL    HW173418   0.245   7.241   8.171
 8193SOL    HW273419   0.189   7.208   8.021
 8194SOL     OW73420   7.628  10.382   8.343
 8194SOL    HW173421   7.674  10.428   8.267
 8194SOL    HW273422   7.548  10.435   8.371
 8195SOL     OW73423  12.208  13.755   0.651
 8195SOL    HW173424  12.242  13.666   0.621
 8195SOL    HW273425  12.109  13.759   0.640
 8196SOL     OW73426  10.858   1.046   7.928
 8196SOL    HW173427  10.793   0.972   7.947
 8196SOL    HW273428  10.810   1.133   7.926
 8197SOL     OW73429   0.339   0.996   1.276
 8197SOL    HW173430   0.301   0.911   1.312
 8197SOL    HW273431   0.314   1.072   1.336
 8198SOL     OW73432   3.558  16.078   8.435
 8198SOL    HW173433   3.492  16.144   8.399
 8198SOL    HW273434   3.635  16.127   0.023
 8199SOL     OW73435   4.571   7.079   0.537
 8199SOL    HW173436   4.473   7.087   0.553
 8199SOL    HW273437   4.587   7.038   0.447
 8200SOL     OW73438   4.041  15.851   8.406
 8200SOL    HW173439   4.078  15.932   8.361
 8200SOL    HW273440   4.054  15.859   0.051
 8201SOL     OW73441  16.747   0.828   1.655
 8201SOL    HW173442  16.824   0.830   1.719
 8201SOL    HW273443  16.661   0.825   1.705
 8202SOL     OW73444   1.142   6.147   6.213
 8202SOL    HW173445   1.236   6.115   6.200
 8202SOL    HW273446   1.100   6.163   6.124
 8203SOL     OW73447  11.069   3.504   0.982
 8203SOL    HW173448  11.158   3.458   0.991
 8203SOL    HW273449  11.039   3.498   0.887
 8204SOL     OW73450   4.068   9.112   6.378
 8204SOL    HW173451   4.105   9.046   6.312
 8204SOL    HW273452   4.090   9.205   6.349
 8205SOL     OW73453   4.945  13.951   0.750
 8205SOL    HW173454   5.002  14.023   0.790
 8205SOL    HW273455   4.938  13.966   0.651
 8206SOL     OW73456  14.761   4.233   0.787
 8206SOL    HW173457  14.710   4.171   0.847
 8206SOL    HW273458  14.856   4.202   0.780
 8207SOL     OW73459   2.281  14.957   0.063
 8207SOL    HW173460   2.254  15.014   0.141
 8207SOL    HW273461   2.267  14.861   0.086
 8208SOL     OW73462   8.826  13.383   0.959
 8208SOL    HW173463   8.799  13.479   0.970
 8208SOL    HW273464   8.911  13.377   0.907
 8209SOL     OW73465  12.777   2.965   8.430
 8209SOL    HW173466  12.839   2.897   8.392
 8209SOL    HW273467  12.761   3.037   8.362
 8210SOL     OW73468  12.425   2.541   6.137
 8210SOL    HW173469  12.329   2.516   6.127
 8210SOL    HW273470  12.456   2.590   6.055
 8211SOL     OW73471  12.024  13.774   1.617
 8211SOL    HW173472  11.981  13.804   1.702
 8211SOL    HW273473  11.953  13.756   1.549
 8212SOL     OW73474  10.939   6.642   7.812
 8212SOL    HW173475  10.864   6.620   7.875
 8212SOL    HW273476  11.003   6.704   7.857
 8213SOL     OW73477   0.956  13.525   1.863
 8213SOL    HW173478   0.906  13.604   1.898
 8213SOL    HW273479   0.968  13.535   1.765
 8214SOL     OW73480   0.695   7.832   7.158
 8214SOL    HW173481   0.607   7.846   7.204
 8214SOL    HW273482   0.740   7.920   7.144
 8215SOL     OW73483   1.340   5.129   0.869
 8215SOL    HW173484   1.275   5.135   0.945
 8215SOL    HW273485   1.433   5.137   0.905
 8216SOL     OW73486  15.834  14.401   7.141
 8216SOL    HW173487  15.836  14.349   7.227
 8216SOL    HW273488  15.918  14.383   7.089
 8217SOL     OW73489   1.335   5.381   1.453
 8217SOL    HW173490   1.287   5.309   1.403
 8217SOL    HW273491   1.269   5.439   1.500
 8218SOL     OW73492  15.296  13.547   7.243
 8218SOL    HW173493  15.228  13.620   7.244
 8218SOL    HW273494  15.297  13.504   7.152
 8219SOL     OW73495  11.421  12.446   1.312
 8219SOL    HW173496  11.343  12.444   1.250
 8219SOL    HW273497  11.461  12.354   1.319
 8220SOL     OW73498  16.612   7.296   1.315
 8220SOL    HW173499  16.567   7.290   1.404
 8220SOL    HW273500  16.710   7.278   1.326
 8221SOL     OW73501  11.754   2.177   6.145
 8221SOL    HW173502  11.807   2.182   6.060
 8221SOL    HW273503  11.661   2.211   6.128
 8222SOL     OW73504  10.995  16.516   0.936
 8222SOL    HW173505  11.010  16.549   0.842
 8222SOL    HW273506  11.014  16.418   0.939
 8223SOL     OW73507   2.292  12.935   2.694
 8223SOL    HW173508   2.194  12.927   2.715
 8223SOL    HW273509   2.338  12.983   2.768
 8224SOL     OW73510   8.822   3.300   6.516
 8224SOL    HW173511   8.786   3.391   6.497
 8224SOL    HW273512   8.896   3.279   6.452
 8225SOL     OW73513   4.127  15.379   0.407
 8225SOL    HW173514   4.046  15.330   0.376
 8225SOL    HW273515   4.111  15.478   0.399
 8226SOL     OW73516  15.252   1.700   0.141
 8226SOL    HW173517  15.156   1.679   0.122
 8226SOL    HW273518  15.267   1.705   0.239
 8227SOL     OW73519  14.256   9.513   8.095
 8227SOL    HW173520  14.318   9.436   8.085
 8227SOL    HW273521  14.244   9.535   8.192
 8228SOL     OW73522  10.387   8.377   0.868
 8228SOL    HW173523  10.315   8.438   0.899
 8228SOL    HW273524  10.474   8.403   0.910
 8229SOL     OW73525   1.117   3.396   7.399
 8229SOL    HW173526   1.128   3.393   7.300
 8229SOL    HW273527   1.068   3.314   7.430
 8230SOL     OW73528   3.301   0.015   0.444
 8230SOL    HW173529   3.397   0.042   0.432
 8230SOL    HW273530   3.287  16.907   0.405
 8231SOL     OW73531   0.382  15.982   0.206
 8231SOL    HW173532   0.409  16.074   0.178
 8231SOL    HW273533   0.368  15.980   0.305
 8232SOL     OW73534   0.200  10.071   8.086
 8232SOL    HW173535   0.263  10.069   8.163
 8232SOL    HW273536   0.146   9.987   8.084
 8233SOL     OW73537   3.404   5.053   0.256
 8233SOL    HW173538   3.475   5.120   0.277
 8233SOL    HW273539   3.425   4.967   0.302
 8234SOL     OW73540   1.644   1.487   7.822
 8234SOL    HW173541   1.570   1.424   7.841
 8234SOL    HW273542   1.645   1.509   7.724
 8235SOL     OW73543   6.709  13.704   0.865
 8235SOL    HW173544   6.682  13.642   0.792
 8235SOL    HW273545   6.631  13.721   0.925
 8236SOL     OW73546  15.914  13.549   2.492
 8236SOL    HW173547  15.828  13.502   2.474
 8236SOL    HW273548  15.897  13.646   2.511
 8237SOL     OW73549  12.248   0.409   6.307
 8237SOL    HW173550  12.156   0.447   6.301
 8237SOL    HW273551  12.245   0.312   6.282
 8238SOL     OW73552   2.600   9.118   0.121
 8238SOL    HW173553   2.695   9.141   0.140
 8238SOL    HW273554   2.565   9.058   0.194
 8239SOL     OW73555  10.692  14.061   2.009
 8239SOL    HW173556  10.777  14.051   1.957
 8239SOL    HW273557  10.702  14.136   2.073
 8240SOL     OW73558   9.842  14.586   6.469
 8240SOL    HW173559   9.844  14.592   6.369
 8240SOL    HW273560   9.751  14.612   6.502
 8241SOL     OW73561   6.350   4.678   7.104
 8241SOL    HW173562   6.441   4.713   7.124
 8241SOL    HW273563   6.349   4.579   7.119
 8242SOL     OW73564   3.451   8.487   7.139
 8242SOL    HW173565   3.390   8.534   7.203
 8242SOL    HW273566   3.400   8.460   7.058
 8243SOL     OW73567   5.515  16.332   7.931
 8243SOL    HW173568   5.543  16.288   7.846
 8243SOL    HW273569   5.565  16.292   8.008
 8244SOL     OW73570  16.057   9.341   1.834
 8244SOL    HW173571  15.980   9.282   1.858
 8244SOL    HW273572  16.027   9.410   1.768
 8245SOL     OW73573   5.381  10.084   1.152
 8245SOL    HW173574   5.295  10.132   1.139
 8245SOL    HW273575   5.364  10.000   1.205
 8246SOL     OW73576   0.751  15.655   6.744
 8246SOL    HW173577   0.815  15.611   6.680
 8246SOL    HW273578   0.676  15.696   6.692
 8247SOL     OW73579  16.660   1.697   0.724
 8247SOL    HW173580  16.623   1.606   0.740
 8247SOL    HW273581  16.613   1.763   0.783
 8248SOL     OW73582   4.844  15.575   7.329
 8248SOL    HW173583   4.814  15.519   7.406
 8248SOL    HW273584   4.808  15.536   7.244
 8249SOL     OW73585  10.629  13.851   7.884
 8249SOL    HW173586  10.551  13.820   7.829
 8249SOL    HW273587  10.609  13.838   7.981
 8250SOL     OW73588  15.107   8.114   7.204
 8250SOL    HW173589  15.153   8.164   7.130
 8250SOL    HW273590  15.079   8.179   7.275
 8251SOL     OW73591   6.207   2.370   1.447
 8251SOL    HW173592   6.188   2.358   1.545
 8251SOL    HW273593   6.303   2.390   1.433
 8252SOL     OW73594  13.708   5.955   7.099
 8252SOL    HW173595  13.726   5.989   7.191
 8252SOL    HW273596  13.609   5.948   7.085
 8253SOL     OW73597   4.657   4.713   6.768
 8253SOL    HW173598   4.618   4.651   6.837
 8253SOL    HW273599   4.715   4.661   6.706
 8254SOL     OW73600  11.788   6.074   1.333
 8254SOL    HW173601  11.722   6.122   1.390
 8254SOL    HW273602  11.872   6.128   1.326
 8255SOL     OW73603  15.785   0.501   0.058
 8255SOL    HW173604  15.868   0.524   0.108
 8255SOL    HW273605  15.749   0.583   0.013
 8256SOL     OW73606   4.601   1.893   0.341
 8256SOL    HW173607   4.642   1.818   0.393
 8256SOL    HW273608   4.510   1.865   0.309
 8257SOL     OW73609  13.563  14.848   8.416
 8257SOL    HW173610  13.643  14.869   0.018
 8257SOL    HW273611  13.504  14.929   8.410
 8258SOL     OW73612   4.060  13.384   7.591
 8258SOL    HW173613   4.030  13.294   7.621
 8258SOL    HW273614   4.146  13.375   7.540
 8259SOL     OW73615  10.950  11.890   1.117
 8259SOL    HW173616  10.890  11.964   1.147
 8259SOL    HW273617  11.027  11.882   1.180
 8260SOL     OW73618  15.314   4.941   2.146
 8260SOL    HW173619  15.216   4.946   2.170
 8260SOL    HW273620  15.358   4.873   2.204
 8261SOL     OW73621   3.038  13.576   6.689
 8261SOL    HW173622   3.046  13.476   6.687
 8261SOL    HW273623   3.116  13.616   6.641
 8262SOL     OW73624  10.452   3.687   8.186
 8262SOL    HW173625  10.459   3.690   8.286
 8262SOL    HW273626  10.356   3.687   8.159
 8263SOL     OW73627   2.660   3.242   1.242
 8263SOL    HW173628   2.723   3.312   1.208
 8263SOL    HW273629   2.574   3.248   1.191
 8264SOL     OW73630   7.393   7.260   0.227
 8264SOL    HW173631   7.405   7.183   0.290
 8264SOL    HW273632   7.414   7.230   0.134
 8265SOL     OW73633   3.378  10.615   1.395
 8265SOL    HW173634   3.466  10.568   1.403
 8265SOL    HW273635   3.338  10.627   1.486
 8266SOL     OW73636  14.322  12.480   0.869
 8266SOL    HW173637  14.371  12.430   0.798
 8266SOL    HW273638  14.225  12.488   0.844
 8267SOL     OW73639   5.324  11.019   0.739
 8267SOL    HW173640   5.285  11.005   0.648
 8267SOL    HW273641   5.385  11.098   0.737
 8268SOL     OW73642   8.782   9.716   7.044
 8268SOL    HW173643   8.858   9.735   7.106
 8268SOL    HW273644   8.814   9.659   6.968
 8269SOL     OW73645   5.889  10.756   5.809
 8269SOL    HW173646   5.937  10.843   5.795
 8269SOL    HW273647   5.791  10.771   5.798
 8270SOL     OW73648  14.681  14.189   1.423
 8270SOL    HW173649  14.649  14.101   1.459
 8270SOL    HW273650  14.755  14.173   1.358
 8271SOL     OW73651  10.321  12.784   1.408
 8271SOL    HW173652  10.320  12.804   1.506
 8271SOL    HW273653  10.319  12.685   1.394
 8272SOL     OW73654  11.218  14.056   6.509
 8272SOL    HW173655  11.236  14.054   6.410
 8272SOL    HW273656  11.259  14.137   6.549
 8273SOL     OW73657   1.476  12.275   7.188
 8273SOL    HW173658   1.518  12.263   7.278
 8273SOL    HW273659   1.547  12.274   7.118
 8274SOL     OW73660  16.298  14.680   7.654
 8274SOL    HW173661  16.257  14.618   7.720
 8274SOL    HW273662  16.366  14.631   7.599
 8275SOL     OW73663   6.548   6.339   8.096
 8275SOL    HW173664   6.508   6.269   8.156
 8275SOL    HW273665   6.560   6.424   8.148
 8276SOL     OW73666   2.063   5.290   7.753
 8276SOL    HW173667   2.086   5.380   7.790
 8276SOL    HW273668   2.065   5.294   7.653
 8277SOL     OW73669   5.620   0.900   1.920
 8277SOL    HW173670   5.568   0.918   2.004
 8277SOL    HW273671   5.673   0.816   1.930
 8278SOL     OW73672  11.255   6.046   7.008
 8278SOL    HW173673  11.330   6.073   6.948
 8278SOL    HW273674  11.171   6.093   6.980
 8279SOL     OW73675   5.007   0.128   1.765
 8279SOL    HW173676   5.092   0.131   1.817
 8279SOL    HW273677   4.944   0.062   1.807
 8280SOL     OW73678   3.771  16.344   1.781
 8280SOL    HW173679   3.856  16.340   1.728
 8280SOL    HW273680   3.772  16.426   1.838
 8281SOL     OW73681   2.017   6.027   6.725
 8281SOL    HW173682   2.017   6.112   6.671
 8281SOL    HW273683   2.049   6.048   6.818
 8282SOL     OW73684  13.946  12.087   1.675
 8282SOL    HW173685  13.948  12.142   1.759
 8282SOL    HW273686  13.909  11.997   1.696
 8283SOL     OW73687  12.562   7.086   0.882
 8283SOL    HW173688  12.494   7.012   0.876
 8283SOL    HW273689  12.599   7.089   0.975
 8284SOL     OW73690  13.324   2.445   5.985
 8284SOL    HW173691  13.312   2.358   5.937
 8284SOL    HW273692  13.419   2.453   6.016
 8285SOL     OW73693  14.131  11.056   7.028
 8285SOL    HW173694  14.093  11.000   6.954
 8285SOL    HW273695  14.058  11.088   7.087
 8286SOL     OW73696  13.722   7.438   7.156
 8286SOL    HW173697  13.773   7.508   7.205
 8286SOL    HW273698  13.690   7.474   7.068
 8287SOL     OW73699   3.680   0.416   1.603
 8287SOL    HW173700   3.689   0.440   1.507
 8287SOL    HW273701   3.617   0.479   1.648
 8288SOL     OW73702   9.783   9.189   0.154
 8288SOL    HW173703   9.723   9.109   0.156
 8288SOL    HW273704   9.740   9.264   0.204
 8289SOL     OW73705   8.102  15.804   1.087
 8289SOL    HW173706   8.202  15.802   1.084
 8289SOL    HW273707   8.065  15.778   0.998
 8290SOL     OW73708   3.386  16.838   7.647
 8290SOL    HW173709   3.452  16.821   7.574
 8290SOL    HW273710   3.411  16.921   7.696
 8291SOL     OW73711  14.306   5.735   5.818
 8291SOL    HW173712  14.275   5.802   5.750
 8291SOL    HW273713  14.360   5.665   5.773
 8292SOL     OW73714   4.860   8.968   0.671
 8292SOL    HW173715   4.877   8.939   0.577
 8292SOL    HW273716   4.947   8.970   0.722
 8293SOL     OW73717   6.447   2.226   8.359
 8293SOL    HW173718   6.506   2.214   8.438
 8293SOL    HW273719   6.421   2.136   8.323
 8294SOL     OW73720  12.614   8.248   0.740
 8294SOL    HW173721  12.698   8.195   0.728
 8294SOL    HW273722  12.540   8.188   0.769
 8295SOL     OW73723  10.198  10.570   1.556
 8295SOL    HW173724  10.118  10.613   1.514
 8295SOL    HW273725  10.274  10.570   1.492
 8296SOL     OW73726   9.385   7.489   6.651
 8296SOL    HW173727   9.388   7.395   6.684
 8296SOL    HW273728   9.335   7.546   6.716
 8297SOL     OW73729   4.815  13.477   2.397
 8297SOL    HW173730   4.877  13.539   2.350
 8297SOL    HW273731   4.867  13.408   2.448
 8298SOL     OW73732   3.346   1.279   7.499
 8298SOL    HW173733   3.261   1.229   7.481
 8298SOL    HW273734   3.414   1.216   7.536
 8299SOL     OW73735   0.647   9.825   0.514
 8299SOL    HW173736   0.579   9.794   0.581
 8299SOL    HW273737   0.617   9.800   0.422
 8300SOL     OW73738   4.436   9.186   6.793
 8300SOL    HW173739   4.432   9.253   6.719
 8300SOL    HW273740   4.361   9.121   6.784
 8301SOL     OW73741   1.510  12.477   8.314
 8301SOL    HW173742   1.571  12.439   8.244
 8301SOL    HW273743   1.428  12.421   8.321
 8302SOL     OW73744   9.736   0.738   5.843
 8302SOL    HW173745   9.743   0.638   5.840
 8302SOL    HW273746   9.669   0.768   5.774
 8303SOL     OW73747   6.309   8.835   0.213
 8303SOL    HW173748   6.338   8.930   0.212
 8303SOL    HW273749   6.282   8.807   0.121
 8304SOL     OW73750   8.612   7.082   0.146
 8304SOL    HW173751   8.605   6.992   0.102
 8304SOL    HW273752   8.566   7.079   0.234
 8305SOL     OW73753   0.418   2.753   8.128
 8305SOL    HW173754   0.469   2.671   8.155
 8305SOL    HW273755   0.397   2.749   8.030
 8306SOL     OW73756  16.846  12.862   7.846
 8306SOL    HW173757  16.753  12.840   7.875
 8306SOL    HW273758  16.888  12.923   7.912
 8307SOL     OW73759  10.263   0.538   1.787
 8307SOL    HW173760  10.317   0.567   1.866
 8307SOL    HW273761  10.245   0.439   1.793
 8308SOL     OW73762  13.892   0.437   6.930
 8308SOL    HW173763  13.869   0.350   6.887
 8308SOL    HW273764  13.809   0.479   6.967
 8309SOL     OW73765   8.137  14.457   0.891
 8309SOL    HW173766   8.059  14.445   0.829
 8309SOL    HW273767   8.174  14.368   0.915
 8310SOL     OW73768   8.928   4.144   8.203
 8310SOL    HW173769   8.834   4.175   8.217
 8310SOL    HW273770   8.955   4.084   8.278
 8311SOL     OW73771   2.878   4.611   1.933
 8311SOL    HW173772   2.958   4.595   1.991
 8311SOL    HW273773   2.831   4.694   1.963
 8312SOL     OW73774   4.408   6.186   6.680
 8312SOL    HW173775   4.399   6.092   6.711
 8312SOL    HW273776   4.407   6.189   6.580
 8313SOL     OW73777   8.681   9.692   7.680
 8313SOL    HW173778   8.750   9.642   7.731
 8313SOL    HW273779   8.708   9.788   7.672
 8314SOL     OW73780   2.930  15.795   7.133
 8314SOL    HW173781   2.917  15.703   7.171
 8314SOL    HW273782   2.889  15.799   7.042
 8315SOL     OW73783   2.331  11.701   7.721
 8315SOL    HW173784   2.327  11.750   7.808
 8315SOL    HW273785   2.382  11.616   7.734
 8316SOL     OW73786  16.167  14.065   8.241
 8316SOL    HW173787  16.195  14.151   8.198
 8316SOL    HW273788  16.071  14.046   8.219
 8317SOL     OW73789  10.693   1.115   6.930
 8317SOL    HW173790  10.685   1.188   6.862
 8317SOL    HW273791  10.773   1.060   6.910
 8318SOL     OW73792   8.801  16.558   8.445
 8318SOL    HW173793   8.818  16.559   0.089
 8318SOL    HW273794   8.708  16.590   8.427
 8319SOL     OW73795  12.546   8.776   7.183
 8319SOL    HW173796  12.463   8.815   7.143
 8319SOL    HW273797  12.528   8.751   7.278
 8320SOL     OW73798   6.350  11.697   7.525
 8320SOL    HW173799   6.279  11.768   7.528
 8320SOL    HW273800   6.438  11.736   7.554
 8321SOL     OW73801   6.775   5.320   7.980
 8321SOL    HW173802   6.805   5.350   7.890
 8321SOL    HW273803   6.843   5.347   8.049
 8322SOL     OW73804   7.970   9.455   0.230
 8322SOL    HW173805   8.038   9.386   0.205
 8322SOL    HW273806   7.885   9.409   0.257
 8323SOL     OW73807   7.725   8.121   0.415
 8323SOL    HW173808   7.822   8.135   0.433
 8323SOL    HW273809   7.675   8.204   0.438
 8324SOL     OW73810  16.981   9.636   7.164
 8324SOL    HW173811   0.048   9.619   7.079
 8324SOL    HW273812   0.051   9.697   7.223
 8325SOL     OW73813  16.570   6.428   7.756
 8325SOL    HW173814  16.588   6.493   7.830
 8325SOL    HW273815  16.554   6.478   7.671
 8326SOL     OW73816   3.689   6.111   6.666
 8326SOL    HW173817   3.745   6.193   6.676
 8326SOL    HW273818   3.684   6.087   6.569
 8327SOL     OW73819  11.379   8.737   1.657
 8327SOL    HW173820  11.423   8.660   1.702
 8327SOL    HW273821  11.420   8.752   1.567
 8328SOL     OW73822   1.641  12.119   0.365
 8328SOL    HW173823   1.667  12.164   0.280
 8328SOL    HW273824   1.595  12.185   0.425
 8329SOL     OW73825   1.694   6.750   0.262
 8329SOL    HW173826   1.716   6.686   0.336
 8329SOL    HW273827   1.726   6.841   0.287
 8330SOL     OW73828   8.788  14.171   0.141
 8330SOL    HW173829   8.870  14.123   0.110
 8330SOL    HW273830   8.814  14.244   0.205
 8331SOL     OW73831  14.660  14.126   0.162
 8331SOL    HW173832  14.595  14.060   0.198
 8331SOL    HW273833  14.734  14.077   0.114
 8332SOL     OW73834   0.591  12.079   6.839
 8332SOL    HW173835   0.640  12.143   6.780
 8332SOL    HW273836   0.514  12.126   6.883
 8333SOL     OW73837  11.423   1.210   0.821
 8333SOL    HW173838  11.476   1.249   0.897
 8333SOL    HW273839  11.332   1.185   0.854
 8334SOL     OW73840   9.159  11.718   7.878
 8334SOL    HW173841   9.103  11.797   7.852
 8334SOL    HW273842   9.100  11.648   7.919
 8335SOL     OW73843   1.559  12.971   0.304
 8335SOL    HW173844   1.612  12.924   0.374
 8335SOL    HW273845   1.620  13.006   0.233
 8336SOL     OW73846  11.679   2.764   6.075
 8336SOL    HW173847  11.756   2.703   6.094
 8336SOL    HW273848  11.645   2.803   6.161
 8337SOL     OW73849  13.696   4.224   6.539
 8337SOL    HW173850  13.675   4.305   6.593
 8337SOL    HW273851  13.610   4.181   6.510
 8338SOL     OW73852   1.726  15.692   6.893
 8338SOL    HW173853   1.727  15.767   6.958
 8338SOL    HW273854   1.820  15.658   6.880
 8339SOL     OW73855  15.260  11.297   8.363
 8339SOL    HW173856  15.209  11.226   8.314
 8339SOL    HW273857  15.351  11.262   8.386
 8340SOL     OW73858  10.226  15.752   0.311
 8340SOL    HW173859  10.214  15.733   0.408
 8340SOL    HW273860  10.165  15.693   0.258
 8341SOL     OW73861  13.698  12.102   0.291
 8341SOL    HW173862  13.771  12.160   0.253
 8341SOL    HW273863  13.611  12.151   0.286
 8342SOL     OW73864  16.389  12.941   6.796
 8342SOL    HW173865  16.477  12.946   6.750
 8342SOL    HW273866  16.319  12.913   6.730
 8343SOL     OW73867  11.675  12.026   1.369
 8343SOL    HW173868  11.609  12.082   1.319
 8343SOL    HW273869  11.700  12.072   1.455
 8344SOL     OW73870   7.490  16.940   6.990
 8344SOL    HW173871   7.533   0.037   6.949
 8344SOL    HW273872   7.557  16.866   6.999
 8345SOL     OW73873   4.051   8.095   1.383
 8345SOL    HW173874   4.011   8.073   1.294
 8345SOL    HW273875   4.009   8.178   1.418
 8346SOL     OW73876  12.026  10.856   8.306
 8346SOL    HW173877  12.103  10.918   8.291
 8346SOL    HW273878  11.968  10.855   8.224
 8347SOL     OW73879  11.571  11.658   1.588
 8347SOL    HW173880  11.479  11.654   1.626
 8347SOL    HW273881  11.619  11.572   1.607
 8348SOL     OW73882   4.781   0.235   0.206
 8348SOL    HW173883   4.823   0.307   0.262
 8348SOL    HW273884   4.786   0.148   0.254
 8349SOL     OW73885  12.558  15.825   1.313
 8349SOL    HW173886  12.643  15.773   1.307
 8349SOL    HW273887  12.576  15.915   1.354
 8350SOL     OW73888  12.507  12.954   7.897
 8350SOL    HW173889  12.420  13.001   7.912
 8350SOL    HW273890  12.490  12.864   7.856
 8351SOL     OW73891  10.316   1.544   7.845
 8351SOL    HW173892  10.368   1.465   7.880
 8351SOL    HW273893  10.220   1.518   7.832
 8352SOL     OW73894  16.633   5.044   6.409
 8352SOL    HW173895  16.540   5.019   6.381
 8352SOL    HW273896  16.688   4.961   6.421
 8353SOL     OW73897   2.265   5.733   7.761
 8353SOL    HW173898   2.354   5.779   7.763
 8353SOL    HW273899   2.220   5.753   7.674
 8354SOL     OW73900  16.239   1.121   0.339
 8354SOL    HW173901  16.260   1.054   0.411
 8354SOL    HW273902  16.198   1.074   0.261
 8355SOL     OW73903  10.048  14.275   1.971
 8355SOL    HW173904  10.100  14.361   1.977
 8355SOL    HW273905  10.075  14.226   1.888
 8356SOL     OW73906   8.700   7.347   0.918
 8356SOL    HW173907   8.716   7.362   0.821
 8356SOL    HW273908   8.720   7.252   0.942
 8357SOL     OW73909  10.649   9.278   7.227
 8357SOL    HW173910  10.708   9.351   7.192
 8357SOL    HW273911  10.705   9.207   7.269
 8358SOL     OW73912  10.982  16.850   7.795
 8358SOL    HW173913  11.037  16.848   7.711
 8358SOL    HW273914  10.982  16.759   7.837
 8359SOL     OW73915  15.681  11.519   1.723
 8359SOL    HW173916  15.686  11.502   1.625
 8359SOL    HW273917  15.769  11.552   1.756
 8360SOL     OW73918   3.022   5.864   7.361
 8360SOL    HW173919   3.059   5.938   7.304
 8360SOL    HW273920   3.033   5.888   7.457
 8361SOL     OW73921  13.756   5.816   7.993
 8361SOL    HW173922  13.775   5.833   7.896
 8361SOL    HW273923  13.819   5.746   8.028
 8362SOL     OW73924   2.228  10.271   0.071
 8362SOL    HW173925   2.309  10.301   0.023
 8362SOL    HW273926   2.218  10.322   0.157
 8363SOL     OW73927   9.344  15.480   1.294
 8363SOL    HW173928   9.418  15.527   1.246
 8363SOL    HW273929   9.322  15.529   1.378
 8364SOL     OW73930   1.702  13.237   1.065
 8364SOL    HW173931   1.679  13.217   1.160
 8364SOL    HW273932   1.801  13.237   1.054
 8365SOL     OW73933   0.733  14.652   1.586
 8365SOL    HW173934   0.730  14.751   1.598
 8365SOL    HW273935   0.713  14.607   1.673
 8366SOL     OW73936   9.960   1.760   6.234
 8366SOL    HW173937  10.033   1.710   6.188
 8366SOL    HW273938   9.872   1.719   6.209
 8367SOL     OW73939   1.942   6.508   8.139
 8367SOL    HW173940   1.859   6.511   8.084
 8367SOL    HW273941   1.961   6.598   8.177
 8368SOL     OW73942   7.263   1.529   0.367
 8368SOL    HW173943   7.237   1.499   0.275
 8368SOL    HW273944   7.328   1.605   0.360
 8369SOL     OW73945   4.483  16.798   8.283
 8369SOL    HW173946   4.564  16.830   8.234
 8369SOL    HW273947   4.407  16.862   8.267
 8370SOL     OW73948   5.054   3.710   7.088
 8370SOL    HW173949   5.142   3.755   7.081
 8370SOL    HW273950   5.065   3.621   7.133
 8371SOL     OW73951  10.760   0.269   7.946
 8371SOL    HW173952  10.672   0.302   7.912
 8371SOL    HW273953  10.802   0.340   8.002
 8372SOL     OW73954  13.044   3.369   7.927
 8372SOL    HW173955  13.091   3.348   7.842
 8372SOL    HW273956  13.077   3.456   7.963
 8373SOL     OW73957   6.416   7.904   6.762
 8373SOL    HW173958   6.363   7.949   6.689
 8373SOL    HW273959   6.407   7.805   6.754
 8374SOL     OW73960   0.614   7.633   0.895
 8374SOL    HW173961   0.653   7.559   0.950
 8374SOL    HW273962   0.670   7.715   0.905
 8375SOL     OW73963  15.665  11.756   5.890
 8375SOL    HW173964  15.649  11.659   5.875
 8375SOL    HW273965  15.580  11.807   5.873
 8376SOL     OW73966  15.070   6.886   5.974
 8376SOL    HW173967  14.985   6.936   5.958
 8376SOL    HW273968  15.130   6.895   5.895
 8377SOL     OW73969  11.929  16.400   1.245
 8377SOL    HW173970  11.874  16.476   1.280
 8377SOL    HW273971  11.928  16.325   1.311
 8378SOL     OW73972  11.235  12.978   0.673
 8378SOL    HW173973  11.280  12.999   0.586
 8378SOL    HW273974  11.293  13.007   0.749
 8379SOL     OW73975   7.373   7.486   7.353
 8379SOL    HW173976   7.281   7.525   7.351
 8379SOL    HW273977   7.423   7.515   7.270
 8380SOL     OW73978   7.116   1.251   7.811
 8380SOL    HW173979   7.141   1.157   7.834
 8380SOL    HW273980   7.195   1.311   7.825
 8381SOL     OW73981  15.987   7.206   6.570
 8381SOL    HW173982  16.075   7.227   6.614
 8381SOL    HW273983  15.971   7.271   6.496
 8382SOL     OW73984   6.508  15.968   1.112
 8382SOL    HW173985   6.549  16.011   1.192
 8382SOL    HW273986   6.480  15.874   1.134
 8383SOL     OW73987   4.332   3.492   1.166
 8383SOL    HW173988   4.369   3.408   1.126
 8383SOL    HW273989   4.405   3.561   1.173
 8384SOL     OW73990  15.214   2.684   0.458
 8384SOL    HW173991  15.270   2.712   0.536
 8384SOL    HW273992  15.241   2.593   0.428
 8385SOL     OW73993   8.589  16.675   7.171
 8385SOL    HW173994   8.628  16.738   7.104
 8385SOL    HW273995   8.645  16.592   7.175
 8386SOL     OW73996   7.339   7.259   7.515
 8386SOL    HW173997   7.352   7.323   7.440
 8386SOL    HW273998   7.314   7.309   7.598
 8387SOL     OW73999   4.536   3.383   2.200
 8387SOL    HW174000   4.483   3.467   2.205
 8387SOL    HW274001   4.555   3.350   2.293
 8388SOL     OW74002  10.205  14.915   1.970
 8388SOL    HW174003  10.301  14.933   1.991
 8388SOL    HW274004  10.155  14.895   2.055
 8389SOL     OW74005  15.401  15.397   0.379
 8389SOL    HW174006  15.497  15.418   0.359
 8389SOL    HW274007  15.373  15.315   0.330
 8390SOL     OW74008   6.851   4.021   6.665
 8390SOL    HW174009   6.945   4.051   6.650
 8390SOL    HW274010   6.793   4.052   6.589
 8391SOL     OW74011   4.217   8.465   1.646
 8391SOL    HW174012   4.286   8.418   1.700
 8391SOL    HW274013   4.155   8.397   1.605
 8392SOL     OW74014  10.131  14.165   8.310
 8392SOL    HW174015  10.171  14.090   8.362
 8392SOL    HW274016  10.198  14.198   8.243
 8393SOL     OW74017   9.053  10.396   8.333
 8393SOL    HW174018   8.981  10.422   8.397
 8393SOL    HW274019   9.081  10.302   8.351
 8394SOL     OW74020  11.403  13.999   7.528
 8394SOL    HW174021  11.338  14.034   7.459
 8394SOL    HW274022  11.412  14.066   7.601
 8395SOL     OW74023   3.550  10.886   1.804
 8395SOL    HW174024   3.527  10.936   1.721
 8395SOL    HW274025   3.470  10.881   1.863
 8396SOL     OW74026  12.660   9.225   7.452
 8396SOL    HW174027  12.661   9.310   7.400
 8396SOL    HW274028  12.584   9.168   7.420
 8397SOL     OW74029  16.805   6.148   7.465
 8397SOL    HW174030  16.890   6.096   7.475
 8397SOL    HW274031  16.822   6.230   7.410
 8398SOL     OW74032  10.216  16.041   1.002
 8398SOL    HW174033  10.282  16.115   1.016
 8398SOL    HW274034  10.142  16.049   1.068
 8399SOL     OW74035  13.870   5.294   1.781
 8399SOL    HW174036  13.879   5.256   1.873
 8399SOL    HW274037  13.946   5.356   1.763
 8400SOL     OW74038  13.435   7.600   1.747
 8400SOL    HW174039  13.352   7.548   1.725
 8400SOL    HW274040  13.430   7.635   1.840
 8401SOL     OW74041   8.345   7.067   7.273
 8401SOL    HW174042   8.267   7.006   7.258
 8401SOL    HW274043   8.410   7.056   7.198
 8402SOL     OW74044   9.441   9.802   7.329
 8402SOL    HW174045   9.344   9.797   7.309
 8402SOL    HW274046   9.465   9.895   7.357
 8403SOL     OW74047  16.103   6.234   5.228
 8403SOL    HW174048  16.029   6.176   5.195
 8403SOL    HW274049  16.168   6.252   5.154
 8404SOL     OW74050   6.585  10.040   6.273
 8404SOL    HW174051   6.526   9.959   6.275
 8404SOL    HW274052   6.538  10.115   6.227
 8405SOL     OW74053  15.415   7.510   6.867
 8405SOL    HW174054  15.418   7.411   6.856
 8405SOL    HW274055  15.372   7.532   6.955
 8406SOL     OW74056   6.729   3.048   6.677
 8406SOL    HW174057   6.666   3.018   6.749
 8406SOL    HW274058   6.721   3.146   6.663
 8407SOL     OW74059   0.710   0.308   8.451
 8407SOL    HW174060   0.766   0.356   0.064
 8407SOL    HW274061   0.759   0.305   8.364
 8408SOL     OW74062   4.898   3.696   7.488
 8408SOL    HW174063   4.820   3.702   7.549
 8408SOL    HW274064   4.869   3.717   7.394
 8409SOL     OW74065  12.358   1.613   6.284
 8409SOL    HW174066  12.318   1.697   6.321
 8409SOL    HW274067  12.362   1.620   6.184
 8410SOL     OW74068  14.467  12.555   1.310
 8410SOL    HW174069  14.471  12.643   1.261
 8410SOL    HW274070  14.413  12.566   1.393
 8411SOL     OW74071  12.654   8.159   0.248
 8411SOL    HW174072  12.707   8.223   0.303
 8411SOL    HW274073  12.715   8.085   0.217
 8412SOL     OW74074   7.835   0.391   0.824
 8412SOL    HW174075   7.741   0.405   0.855
 8412SOL    HW274076   7.849   0.438   0.737
 8413SOL     OW74077  12.998   0.146   0.742
 8413SOL    HW174078  12.912   0.150   0.691
 8413SOL    HW274079  12.980   0.138   0.839
 8414SOL     OW74080  11.395   5.612   7.363
 8414SOL    HW174081  11.343   5.527   7.351
 8414SOL    HW274082  11.466   5.599   7.432
 8415SOL     OW74083  13.200   9.649   0.948
 8415SOL    HW174084  13.279   9.595   0.921
 8415SOL    HW274085  13.227   9.745   0.960
 8416SOL     OW74086   0.150   1.115   7.108
 8416SOL    HW174087   0.126   1.204   7.068
 8416SOL    HW274088   0.160   1.126   7.207
 8417SOL     OW74089   3.045   1.668   1.856
 8417SOL    HW174090   3.063   1.722   1.939
 8417SOL    HW274091   3.131   1.631   1.822
 8418SOL     OW74092   3.082  16.197   6.321
 8418SOL    HW174093   3.135  16.131   6.267
 8418SOL    HW274094   3.133  16.283   6.329
 8419SOL     OW74095   7.773  16.484   1.523
 8419SOL    HW174096   7.807  16.449   1.435
 8419SOL    HW274097   7.703  16.422   1.558
 8420SOL     OW74098   8.531  13.452   1.330
 8420SOL    HW174099   8.603  13.448   1.400
 8420SOL    HW274100   8.444  13.424   1.372
 8421SOL     OW74101   1.660   6.069   8.077
 8421SOL    HW174102   1.656   6.084   8.176
 8421SOL    HW274103   1.580   6.111   8.034
 8422SOL     OW74104   6.743  10.606   8.284
 8422SOL    HW174105   6.761  10.532   8.348
 8422SOL    HW274106   6.828  10.640   8.245
 8423SOL     OW74107   4.929  11.768   1.089
 8423SOL    HW174108   4.896  11.680   1.123
 8423SOL    HW274109   4.853  11.819   1.049
 8424SOL     OW74110   9.342  15.656   6.251
 8424SOL    HW174111   9.299  15.729   6.198
 8424SOL    HW274112   9.390  15.695   6.329
 8425SOL     OW74113   8.611   4.086   0.855
 8425SOL    HW174114   8.584   4.120   0.946
 8425SOL    HW274115   8.709   4.068   0.854
 8426SOL     OW74116  14.505  16.565   7.558
 8426SOL    HW174117  14.543  16.556   7.651
 8426SOL    HW274118  14.484  16.474   7.522
 8427SOL     OW74119  12.194  15.050   1.537
 8427SOL    HW174120  12.138  15.103   1.602
 8427SOL    HW274121  12.186  14.953   1.558
 8428SOL     OW74122   7.170   7.024   0.401
 8428SOL    HW174123   7.122   7.105   0.434
 8428SOL    HW274124   7.106   6.965   0.352
 8429SOL     OW74125   6.688   9.092   0.634
 8429SOL    HW174126   6.718   8.997   0.623
 8429SOL    HW274127   6.589   9.095   0.644
 8430SOL     OW74128   5.462   6.226   1.518
 8430SOL    HW174129   5.561   6.215   1.515
 8430SOL    HW274130   5.418   6.143   1.482
 8431SOL     OW74131   3.684  14.555   7.525
 8431SOL    HW174132   3.767  14.595   7.484
 8431SOL    HW274133   3.647  14.619   7.593
 8432SOL     OW74134   3.603   3.985   7.813
 8432SOL    HW174135   3.688   4.028   7.844
 8432SOL    HW274136   3.526   4.024   7.864
 8433SOL     OW74137   9.701  15.174   0.776
 8433SOL    HW174138   9.618  15.230   0.781
 8433SOL    HW274139   9.675  15.078   0.767
 8434SOL     OW74140   4.022   5.869   1.291
 8434SOL    HW174141   3.955   5.795   1.287
 8434SOL    HW274142   3.975   5.957   1.279
 8435SOL     OW74143   4.813  11.729   7.053
 8435SOL    HW174144   4.878  11.680   7.111
 8435SOL    HW274145   4.863  11.780   6.982
 8436SOL     OW74146  13.381   0.286   1.565
 8436SOL    HW174147  13.295   0.305   1.613
 8436SOL    HW274148  13.434   0.219   1.617
 8437SOL     OW74149  15.132   4.120   0.334
 8437SOL    HW174150  15.206   4.187   0.336
 8437SOL    HW274151  15.055   4.153   0.389
 8438SOL     OW74152  14.796  16.714   6.693
 8438SOL    HW174153  14.788  16.672   6.783
 8438SOL    HW274154  14.891  16.706   6.661
 8439SOL     OW74155   4.512   9.439   1.812
 8439SOL    HW174156   4.526   9.345   1.781
 8439SOL    HW274157   4.602   9.482   1.827
 8440SOL     OW74158   4.884   3.897   8.199
 8440SOL    HW174159   4.932   3.984   8.213
 8440SOL    HW274160   4.926   3.848   8.123
 8441SOL     OW74161  11.443   4.165   1.698
 8441SOL    HW174162  11.540   4.157   1.720
 8441SOL    HW274163  11.402   4.074   1.694
 8442SOL     OW74164  13.675  11.587   7.969
 8442SOL    HW174165  13.698  11.552   8.060
 8442SOL    HW274166  13.600  11.534   7.930
 8443SOL     OW74167  11.319   3.924   8.428
 8443SOL    HW174168  11.290   3.828   8.428
 8443SOL    HW274169  11.328   3.956   0.068
 8444SOL     OW74170   2.205  14.050   7.089
 8444SOL    HW174171   2.202  14.074   6.992
 8444SOL    HW274172   2.128  14.093   7.136
 8445SOL     OW74173   6.418   1.869   0.952
 8445SOL    HW174174   6.410   1.968   0.942
 8445SOL    HW274175   6.328   1.826   0.938
 8446SOL     OW74176   8.456   2.258   0.046
 8446SOL    HW174177   8.421   2.307   0.126
 8446SOL    HW274178   8.423   2.303   8.417
 8447SOL     OW74179   9.504  11.186   8.308
 8447SOL    HW174180   9.544  11.271   8.343
 8447SOL    HW274181   9.405  11.186   8.324
 8448SOL     OW74182  14.577   8.409   0.751
 8448SOL    HW174183  14.612   8.503   0.750
 8448SOL    HW274184  14.553   8.382   0.658
 8449SOL     OW74185   4.306   5.437   7.370
 8449SOL    HW174186   4.211   5.443   7.399
 8449SOL    HW274187   4.359   5.511   7.412
 8450SOL     OW74188   7.947   0.148   8.445
 8450SOL    HW174189   7.938   0.062   8.395
 8450SOL    HW274190   7.889   0.218   8.402
 8451SOL     OW74191   3.751   1.995   7.546
 8451SOL    HW174192   3.661   2.012   7.586
 8451SOL    HW274193   3.743   1.925   7.474
 8452SOL     OW74194   7.317   8.807   1.582
 8452SOL    HW174195   7.314   8.890   1.638
 8452SOL    HW274196   7.267   8.734   1.629
 8453SOL     OW74197   2.604   7.644   8.072
 8453SOL    HW174198   2.593   7.574   8.142
 8453SOL    HW274199   2.603   7.735   8.115
 8454SOL     OW74200   8.840   5.954   1.114
 8454SOL    HW174201   8.919   5.892   1.114
 8454SOL    HW274202   8.805   5.964   1.021
 8455SOL     OW74203   4.358   0.485   1.784
 8455SOL    HW174204   4.457   0.486   1.792
 8455SOL    HW274205   4.330   0.547   1.710
 8456SOL     OW74206   9.239   4.200   7.111
 8456SOL    HW174207   9.280   4.181   7.200
 8456SOL    HW274208   9.250   4.297   7.090
 8457SOL     OW74209  12.044   0.790   6.781
 8457SOL    HW174210  12.141   0.768   6.772
 8457SOL    HW274211  12.027   0.881   6.742
 8458SOL     OW74212  16.846  15.566   7.406
 8458SOL    HW174213  16.918  15.627   7.437
 8458SOL    HW274214  16.763  15.619   7.385
 8459SOL     OW74215   8.482   1.141   6.599
 8459SOL    HW174216   8.539   1.074   6.647
 8459SOL    HW274217   8.515   1.153   6.506
 8460SOL     OW74218  15.289  14.202   0.584
 8460SOL    HW174219  15.294  14.299   0.561
 8460SOL    HW274220  15.357  14.180   0.653
 8461SOL     OW74221   0.977  10.466   0.391
 8461SOL    HW174222   1.016  10.492   0.302
 8461SOL    HW274223   0.906  10.531   0.417
 8462SOL     OW74224  10.515   3.374   7.500
 8462SOL    HW174225  10.603   3.358   7.455
 8462SOL    HW274226  10.463   3.441   7.447
 8463SOL     OW74227  14.429   0.822   7.489
 8463SOL    HW174228  14.391   0.738   7.452
 8463SOL    HW274229  14.529   0.816   7.491
 8464SOL     OW74230   6.805   6.080   6.944
 8464SOL    HW174231   6.808   6.179   6.945
 8464SOL    HW274232   6.898   6.044   6.951
 8465SOL     OW74233   6.077   3.135   1.067
 8465SOL    HW174234   6.137   3.072   1.117
 8465SOL    HW274235   6.128   3.218   1.045
 8466SOL     OW74236   0.374  12.965   8.027
 8466SOL    HW174237   0.438  12.976   8.103
 8466SOL    HW274238   0.292  12.917   8.059
 8467SOL     OW74239   2.828  16.681   1.349
 8467SOL    HW174240   2.842  16.606   1.413
 8467SOL    HW274241   2.802  16.645   1.260
 8468SOL     OW74242  16.697   8.640   1.192
 8468SOL    HW174243  16.732   8.587   1.115
 8468SOL    HW274244  16.608   8.680   1.167
 8469SOL     OW74245  13.693   5.208   1.592
 8469SOL    HW174246  13.751   5.222   1.672
 8469SOL    HW274247  13.728   5.261   1.515
 8470SOL     OW74248  12.923   9.860   7.686
 8470SOL    HW174249  12.921   9.956   7.659
 8470SOL    HW274250  13.004   9.815   7.648
 8471SOL     OW74251  13.051  10.538   6.788
 8471SOL    HW174252  13.043  10.564   6.692
 8471SOL    HW274253  13.063  10.439   6.795
 8472SOL     OW74254   6.218   8.026   0.567
 8472SOL    HW174255   6.240   8.091   0.494
 8472SOL    HW274256   6.162   7.952   0.529
 8473SOL     OW74257  10.690   1.062   0.844
 8473SOL    HW174258  10.711   1.093   0.752
 8473SOL    HW274259  10.605   1.008   0.843
 8474SOL     OW74260   6.923  11.186   1.060
 8474SOL    HW174261   6.961  11.103   1.019
 8474SOL    HW274262   6.960  11.196   1.153
 8475SOL     OW74263   6.609   2.029   0.332
 8475SOL    HW174264   6.630   2.019   0.429
 8475SOL    HW274265   6.512   2.010   0.316
 8476SOL     OW74266   8.018  11.337   6.776
 8476SOL    HW174267   7.939  11.328   6.837
 8476SOL    HW274268   8.027  11.255   6.721
 8477SOL     OW74269  15.729  14.570   1.349
 8477SOL    HW174270  15.714  14.522   1.435
 8477SOL    HW274271  15.687  14.519   1.274
 8478SOL     OW74272   3.078  15.726   0.395
 8478SOL    HW174273   2.981  15.722   0.374
 8478SOL    HW274274   3.102  15.652   0.458
 8479SOL     OW74275   5.993  13.732   6.421
 8479SOL    HW174276   6.045  13.746   6.505
 8479SOL    HW274277   6.056  13.726   6.343
 8480SOL     OW74278  16.221  13.853   7.300
 8480SOL    HW174279  16.132  13.860   7.254
 8480SOL    HW274280  16.287  13.914   7.255
 8481SOL     OW74281   1.802   7.917   7.785
 8481SOL    HW174282   1.855   8.000   7.769
 8481SOL    HW274283   1.850   7.838   7.745
 8482SOL     OW74284   6.346   3.778   1.365
 8482SOL    HW174285   6.375   3.788   1.460
 8482SOL    HW274286   6.268   3.715   1.360
 8483SOL     OW74287   5.411   1.291   7.681
 8483SOL    HW174288   5.489   1.267   7.623
 8483SOL    HW274289   5.373   1.208   7.723
 8484SOL     OW74290  15.519   3.722   8.293
 8484SOL    HW174291  15.452   3.664   8.339
 8484SOL    HW274292  15.473   3.780   8.226
 8485SOL     OW74293   9.529  16.512   7.548
 8485SOL    HW174294   9.575  16.439   7.598
 8485SOL    HW274295   9.551  16.504   7.451
 8486SOL     OW74296  16.773   7.777   7.231
 8486SOL    HW174297  16.811   7.692   7.266
 8486SOL    HW274298  16.821   7.803   7.147
 8487SOL     OW74299   6.327   6.948   7.508
 8487SOL    HW174300   6.421   6.953   7.542
 8487SOL    HW274301   6.263   6.940   7.584
 8488SOL     OW74302   5.715   6.591   0.500
 8488SOL    HW174303   5.746   6.557   0.411
 8488SOL    HW274304   5.642   6.658   0.487
 8489SOL     OW74305   6.564  10.906   1.405
 8489SOL    HW174306   6.661  10.880   1.398
 8489SOL    HW274307   6.557  11.002   1.430
 8490SOL     OW74308  16.341  16.392   7.295
 8490SOL    HW174309  16.423  16.429   7.339
 8490SOL    HW274310  16.298  16.463   7.240
 8491SOL     OW74311  10.575   6.523   1.453
 8491SOL    HW174312  10.550   6.605   1.505
 8491SOL    HW274313  10.610   6.453   1.515
 8492SOL     OW74314  16.265   6.807   6.429
 8492SOL    HW174315  16.217   6.894   6.426
 8492SOL    HW274316  16.199   6.733   6.443
 8493SOL     OW74317  16.179   5.656   0.204
 8493SOL    HW174318  16.179   5.741   0.256
 8493SOL    HW274319  16.109   5.595   0.240
 8494SOL     OW74320   2.380  16.658   1.419
 8494SOL    HW174321   2.361  16.563   1.443
 8494SOL    HW274322   2.306  16.717   1.451
 8495SOL     OW74323   4.700  10.270   0.235
 8495SOL    HW174324   4.757  10.338   0.190
 8495SOL    HW274325   4.616  10.314   0.268
 8496SOL     OW74326   4.038   7.831   1.448
 8496SOL    HW174327   3.948   7.796   1.423
 8496SOL    HW274328   4.040   7.930   1.435
 8497SOL     OW74329   3.822   8.835   2.224
 8497SOL    HW174330   3.904   8.891   2.217
 8497SOL    HW274331   3.841   8.755   2.282
 8498SOL     OW74332  13.938   4.338   0.676
 8498SOL    HW174333  13.849   4.293   0.669
 8498SOL    HW274334  13.934   4.427   0.631
 8499SOL     OW74335  15.349   4.674   7.683
 8499SOL    HW174336  15.429   4.730   7.662
 8499SOL    HW274337  15.378   4.579   7.695
 8500SOL     OW74338   4.279  12.143   6.094
 8500SOL    HW174339   4.226  12.218   6.053
 8500SOL    HW274340   4.376  12.157   6.075
 8501SOL     OW74341   4.977  11.060   7.688
 8501SOL    HW174342   5.039  11.040   7.764
 8501SOL    HW274343   5.022  11.123   7.624
 8502SOL     OW74344  11.323   5.413   6.207
 8502SOL    HW174345  11.300   5.502   6.246
 8502SOL    HW274346  11.400   5.373   6.258
 8503SOL     OW74347   6.024   1.511   7.290
 8503SOL    HW174348   5.991   1.602   7.317
 8503SOL    HW274349   5.952   1.464   7.238
 8504SOL     OW74350  13.897  14.181   7.073
 8504SOL    HW174351  13.889  14.082   7.079
 8504SOL    HW274352  13.931  14.207   6.982
 8505SOL     OW74353   0.339  12.625   7.816
 8505SOL    HW174354   0.347  12.542   7.761
 8505SOL    HW274355   0.249  12.667   7.800
 8506SOL     OW74356  13.909  13.890   0.287
 8506SOL    HW174357  13.822  13.851   0.318
 8506SOL    HW274358  13.912  13.890   0.187
 8507SOL     OW74359   9.018   8.332   6.640
 8507SOL    HW174360   8.934   8.376   6.672
 8507SOL    HW274361   9.025   8.343   6.541
 8508SOL     OW74362  12.294  11.368   1.111
 8508SOL    HW174363  12.386  11.404   1.122
 8508SOL    HW274364  12.297  11.285   1.054
 8509SOL     OW74365   3.500   0.866   1.176
 8509SOL    HW174366   3.467   0.813   1.098
 8509SOL    HW274367   3.583   0.916   1.150
 8510SOL     OW74368  14.088   3.997   5.509
 8510SOL    HW174369  14.084   4.096   5.497
 8510SOL    HW274370  14.012   3.954   5.459
 8511SOL     OW74371   2.278  13.054   7.636
 8511SOL    HW174372   2.181  13.061   7.612
 8511SOL    HW274373   2.318  13.146   7.637
 8512SOL     OW74374   9.642  12.087   0.105
 8512SOL    HW174375   9.590  12.081   0.019
 8512SOL    HW274376   9.698  12.005   0.116
 8513SOL     OW74377  10.238  12.699   0.696
 8513SOL    HW174378  10.151  12.725   0.654
 8513SOL    HW274379  10.297  12.657   0.627
 8514SOL     OW74380  11.600   0.356   7.444
 8514SOL    HW174381  11.661   0.375   7.367
 8514SOL    HW274382  11.653   0.352   7.528
 8515SOL     OW74383   3.354  13.010   8.227
 8515SOL    HW174384   3.384  13.061   8.308
 8515SOL    HW274385   3.365  12.912   8.244
 8516SOL     OW74386  16.796  15.731   7.762
 8516SOL    HW174387  16.725  15.795   7.731
 8516SOL    HW274388  16.880  15.782   7.780
 8517SOL     OW74389   6.197  16.302   7.277
 8517SOL    HW174390   6.186  16.219   7.223
 8517SOL    HW274391   6.115  16.319   7.331
 8518SOL     OW74392   9.262   5.223   6.230
 8518SOL    HW174393   9.173   5.246   6.190
 8518SOL    HW274394   9.331   5.220   6.158
 8519SOL     OW74395   9.572  11.192   7.760
 8519SOL    HW174396   9.550  11.161   7.853
 8519SOL    HW274397   9.508  11.264   7.733
 8520SOL     OW74398  12.440   9.862   6.084
 8520SOL    HW174399  12.376   9.810   6.029
 8520SOL    HW274400  12.403   9.953   6.103
 8521SOL     OW74401   4.438  14.559   6.688
 8521SOL    HW174402   4.525  14.577   6.641
 8521SOL    HW274403   4.416  14.462   6.680
 8522SOL     OW74404  15.902   6.196   8.216
 8522SOL    HW174405  15.836   6.259   8.174
 8522SOL    HW274406  15.940   6.136   8.145
 8523SOL     OW74407  14.114   2.155   8.352
 8523SOL    HW174408  14.134   2.057   8.343
 8523SOL    HW274409  14.199   2.207   8.346
 8524SOL     OW74410   5.797  13.865   0.300
 8524SOL    HW174411   5.850  13.926   0.359
 8524SOL    HW274412   5.701  13.867   0.328
 8525SOL     OW74413  14.331   0.940   1.546
 8525SOL    HW174414  14.410   0.984   1.505
 8525SOL    HW274415  14.343   0.935   1.645
 8526SOL     OW74416  15.855   4.643   7.173
 8526SOL    HW174417  15.762   4.667   7.146
 8526SOL    HW274418  15.868   4.544   7.162
 8527SOL     OW74419  16.696   2.074   1.946
 8527SOL    HW174420  16.605   2.037   1.964
 8527SOL    HW274421  16.759   2.045   2.017
 8528SOL     OW74422   0.243   0.422   0.589
 8528SOL    HW174423   0.265   0.376   0.675
 8528SOL    HW274424   0.247   0.521   0.603
 8529SOL     OW74425   7.907   7.323   7.557
 8529SOL    HW174426   7.997   7.358   7.535
 8529SOL    HW274427   7.852   7.395   7.600
 8530SOL     OW74428  10.388   6.256   8.214
 8530SOL    HW174429  10.357   6.227   8.123
 8530SOL    HW274430  10.466   6.318   8.204
 8531SOL     OW74431   7.542   7.206   7.185
 8531SOL    HW174432   7.634   7.211   7.225
 8531SOL    HW274433   7.548   7.190   7.087
 8532SOL     OW74434   6.073   2.631   0.690
 8532SOL    HW174435   6.039   2.719   0.656
 8532SOL    HW274436   6.041   2.617   0.784
 8533SOL     OW74437  12.280   7.557   0.449
 8533SOL    HW174438  12.341   7.554   0.528
 8533SOL    HW274439  12.251   7.651   0.432
 8534SOL     OW74440   9.169   7.037   7.406
 8534SOL    HW174441   9.204   7.066   7.316
 8534SOL    HW274442   9.201   6.944   7.425
 8535SOL     OW74443  16.979   0.158   0.448
 8535SOL    HW174444   0.058   0.220   0.400
 8535SOL    HW274445   0.044   0.114   0.524
 8536SOL     OW74446   0.124   2.708   7.018
 8536SOL    HW174447   0.191   2.641   7.051
 8536SOL    HW274448   0.154   2.800   7.041
 8537SOL     OW74449   5.809  14.724   7.481
 8537SOL    HW174450   5.817  14.633   7.440
 8537SOL    HW274451   5.790  14.791   7.409
 8538SOL     OW74452   0.693  11.786   1.365
 8538SOL    HW174453   0.744  11.872   1.361
 8538SOL    HW274454   0.686  11.756   1.460
 8539SOL     OW74455   8.834  10.021   1.756
 8539SOL    HW174456   8.777   9.950   1.797
 8539SOL    HW274457   8.862  10.086   1.826
 8540SOL     OW74458   4.338   5.753   1.851
 8540SOL    HW174459   4.316   5.656   1.843
 8540SOL    HW274460   4.265   5.800   1.901
 8541SOL     OW74461   1.426   9.485   7.616
 8541SOL    HW174462   1.491   9.530   7.677
 8541SOL    HW274463   1.338   9.532   7.621
 8542SOL     OW74464   0.647   7.351   6.681
 8542SOL    HW174465   0.588   7.428   6.655
 8542SOL    HW274466   0.736   7.360   6.636
 8543SOL     OW74467   7.387   1.480   8.198
 8543SOL    HW174468   7.374   1.381   8.189
 8543SOL    HW274469   7.298   1.524   8.212
 8544SOL     OW74470   9.545   3.866   0.952
 8544SOL    HW174471   9.569   3.792   1.014
 8544SOL    HW274472   9.544   3.832   0.858
 8545SOL     OW74473  14.345  13.005   7.329
 8545SOL    HW174474  14.313  13.031   7.420
 8545SOL    HW274475  14.372  12.908   7.330
 8546SOL     OW74476   9.129  14.166   5.949
 8546SOL    HW174477   9.093  14.188   6.040
 8546SOL    HW274478   9.154  14.069   5.945
 8547SOL     OW74479   6.270   0.189   7.211
 8547SOL    HW174480   6.170   0.181   7.205
 8547SOL    HW274481   6.313   0.105   7.178
 8548SOL     OW74482   6.525   4.602   1.238
 8548SOL    HW174483   6.439   4.576   1.281
 8548SOL    HW274484   6.574   4.666   1.298
 8549SOL     OW74485   8.733   3.419   6.985
 8549SOL    HW174486   8.643   3.458   7.008
 8549SOL    HW274487   8.801   3.492   6.983
 8550SOL     OW74488  14.734   5.837   7.262
 8550SOL    HW174489  14.793   5.759   7.284
 8550SOL    HW274490  14.791   5.918   7.249
 8551SOL     OW74491   3.147   3.260   1.694
 8551SOL    HW174492   3.095   3.275   1.610
 8551SOL    HW274493   3.243   3.246   1.671
 8552SOL     OW74494   2.704  11.046   0.312
 8552SOL    HW174495   2.686  11.073   0.217
 8552SOL    HW274496   2.680  11.120   0.373
 8553SOL     OW74497  14.011  15.853   0.608
 8553SOL    HW174498  14.010  15.769   0.554
 8553SOL    HW274499  13.987  15.931   0.549
 8554SOL     OW74500  15.548   6.528   5.818
 8554SOL    HW174501  15.545   6.442   5.768
 8554SOL    HW274502  15.612   6.591   5.772
 8555SOL     OW74503  10.816   2.589   0.142
 8555SOL    HW174504  10.813   2.680   0.183
 8555SOL    HW274505  10.750   2.530   0.187
 8556SOL     OW74506  15.866  16.942   0.125
 8556SOL    HW174507  15.956  16.940   0.169
 8556SOL    HW274508  15.835   0.054   0.118
 8557SOL     OW74509   6.344   3.896   0.020
 8557SOL    HW174510   6.352   3.961   0.095
 8557SOL    HW274511   6.422   3.834   0.021
 8558SOL     OW74512   7.813   1.244   0.531
 8558SOL    HW174513   7.740   1.227   0.598
 8558SOL    HW274514   7.864   1.159   0.516
 8559SOL     OW74515   1.979  13.866   1.235
 8559SOL    HW174516   1.948  13.771   1.242
 8559SOL    HW274517   2.063  13.870   1.181
 8560SOL     OW74518  15.494   9.190   1.047
 8560SOL    HW174519  15.412   9.191   1.105
 8560SOL    HW274520  15.497   9.104   0.995
 8561SOL     OW74521   5.125  14.798   7.838
 8561SOL    HW174522   5.131  14.702   7.868
 8561SOL    HW274523   5.109  14.802   7.740
 8562SOL     OW74524  13.088   7.096   7.029
 8562SOL    HW174525  13.034   7.177   7.005
 8562SOL    HW274526  13.055   7.017   6.979
 8563SOL     OW74527   5.655   4.574   0.662
 8563SOL    HW174528   5.747   4.602   0.636
 8563SOL    HW274529   5.657   4.481   0.697
 8564SOL     OW74530   5.094  11.782   7.787
 8564SOL    HW174531   5.129  11.691   7.765
 8564SOL    HW274532   5.000  11.791   7.753
 8565SOL     OW74533   9.611  10.113   7.179
 8565SOL    HW174534   9.579  10.098   7.273
 8565SOL    HW274535   9.699  10.068   7.166
 8566SOL     OW74536  12.547   6.982   8.393
 8566SOL    HW174537  12.618   7.003   8.326
 8566SOL    HW274538  12.484   6.915   8.355
 8567SOL     OW74539  15.213   9.664   0.006
 8567SOL    HW174540  15.262   9.585   0.045
 8567SOL    HW274541  15.268   9.704   8.387
 8568SOL     OW74542   1.216   4.222   7.742
 8568SOL    HW174543   1.153   4.179   7.678
 8568SOL    HW274544   1.231   4.317   7.716
 8569SOL     OW74545   8.151   6.837   7.522
 8569SOL    HW174546   8.215   6.879   7.586
 8569SOL    HW274547   8.198   6.764   7.471
 8570SOL     OW74548  14.952   8.700   7.811
 8570SOL    HW174549  14.954   8.777   7.874
 8570SOL    HW274550  14.966   8.733   7.717
 8571SOL     OW74551  13.474  10.181   7.800
 8571SOL    HW174552  13.565  10.148   7.774
 8571SOL    HW274553  13.411  10.103   7.805
 8572SOL     OW74554   3.355   2.145   7.970
 8572SOL    HW174555   3.399   2.181   8.052
 8572SOL    HW274556   3.360   2.213   7.897
 8573SOL     OW74557   7.829   8.869   6.848
 8573SOL    HW174558   7.783   8.780   6.842
 8573SOL    HW274559   7.814   8.920   6.764
 8574SOL     OW74560  10.884   2.144   6.669
 8574SOL    HW174561  10.945   2.103   6.737
 8574SOL    HW274562  10.792   2.106   6.680
 8575SOL     OW74563  14.748   6.817   1.266
 8575SOL    HW174564  14.774   6.809   1.170
 8575SOL    HW274565  14.815   6.874   1.314
 8576SOL     OW74566   5.909  10.419   1.735
 8576SOL    HW174567   5.843  10.366   1.681
 8576SOL    HW274568   5.951  10.488   1.677
 8577SOL     OW74569  16.085   4.310   0.055
 8577SOL    HW174570  16.162   4.246   0.054
 8577SOL    HW274571  16.003   4.263   0.087
 8578SOL     OW74572   2.986   8.634   0.417
 8578SOL    HW174573   3.003   8.537   0.405
 8578SOL    HW274574   2.958   8.675   0.330
 8579SOL     OW74575  12.722   0.006   6.504
 8579SOL    HW174576  12.723  16.896   6.539
 8579SOL    HW274577  12.812   0.048   6.520
 8580SOL     OW74578   6.228   4.195   8.115
 8580SOL    HW174579   6.142   4.246   8.123
 8580SOL    HW274580   6.214   4.115   8.057
 8581SOL     OW74581   4.975  13.424   8.019
 8581SOL    HW174582   4.971  13.422   8.118
 8581SOL    HW274583   4.884  13.441   7.982
 8582SOL     OW74584  13.938  16.136   7.182
 8582SOL    HW174585  13.939  16.122   7.082
 8582SOL    HW274586  13.981  16.223   7.203
 8583SOL     OW74587   3.556   3.889   7.233
 8583SOL    HW174588   3.635   3.947   7.251
 8583SOL    HW274589   3.523   3.849   7.318
 8584SOL     OW74590  13.122   7.946   7.869
 8584SOL    HW174591  13.069   7.893   7.935
 8584SOL    HW274592  13.110   7.907   7.778
 8585SOL     OW74593   4.160   6.186   7.134
 8585SOL    HW174594   4.093   6.111   7.135
 8585SOL    HW274595   4.225   6.175   7.208
 8586SOL     OW74596  14.208   7.343   0.477
 8586SOL    HW174597  14.161   7.299   0.401
 8586SOL    HW274598  14.295   7.297   0.494
 8587SOL     OW74599   8.688   3.697   1.106
 8587SOL    HW174600   8.598   3.728   1.074
 8587SOL    HW274601   8.757   3.767   1.084
 8588SOL     OW74602   8.950  14.855   1.123
 8588SOL    HW174603   9.005  14.911   1.185
 8588SOL    HW274604   8.893  14.793   1.177
 8589SOL     OW74605   3.915   7.208   8.009
 8589SOL    HW174606   3.855   7.145   8.059
 8589SOL    HW274607   3.933   7.289   8.065
 8590SOL     OW74608   7.994   4.803   8.343
 8590SOL    HW174609   7.898   4.832   8.352
 8590SOL    HW274610   8.030   4.835   8.256
 8591SOL     OW74611   2.459   4.897   0.383
 8591SOL    HW174612   2.534   4.892   0.449
 8591SOL    HW274613   2.495   4.925   0.294
 8592SOL     OW74614   2.407   3.176   7.905
 8592SOL    HW174615   2.449   3.156   7.994
 8592SOL    HW274616   2.458   3.251   7.861
 8593SOL     OW74617  12.802   5.710   7.680
 8593SOL    HW174618  12.864   5.690   7.755
 8593SOL    HW274619  12.845   5.685   7.593
 8594SOL     OW74620   7.399  13.504   0.695
 8594SOL    HW174621   7.458  13.437   0.739
 8594SOL    HW274622   7.395  13.587   0.751
 8595SOL     OW74623   7.630   7.665   8.311
 8595SOL    HW174624   7.708   7.602   8.308
 8595SOL    HW274625   7.629   7.713   8.399
 8596SOL     OW74626   9.079   4.608   7.820
 8596SOL    HW174627   9.070   4.527   7.876
 8596SOL    HW274628   9.140   4.589   7.743
 8597SOL     OW74629   9.944   2.396   0.531
 8597SOL    HW174630   9.925   2.322   0.467
 8597SOL    HW274631   9.889   2.384   0.613
 8598SOL     OW74632  10.352   5.585   6.063
 8598SOL    HW174633  10.252   5.580   6.057
 8598SOL    HW274634  10.392   5.522   5.996
 8599SOL     OW74635   0.924  13.153   1.393
 8599SOL    HW174636   1.009  13.205   1.387
 8599SOL    HW274637   0.861  13.198   1.456
 8600SOL     OW74638   7.761   1.599   0.752
 8600SOL    HW174639   7.823   1.587   0.674
 8600SOL    HW274640   7.790   1.539   0.827
 8601SOL     OW74641  12.527   6.817   0.176
 8601SOL    HW174642  12.533   6.879   0.097
 8601SOL    HW274643  12.481   6.864   0.251
 8602SOL     OW74644   8.868   9.615   0.915
 8602SOL    HW174645   8.897   9.563   0.835
 8602SOL    HW274646   8.919   9.585   0.995
 8603SOL     OW74647   1.517   1.056   0.412
 8603SOL    HW174648   1.520   0.981   0.478
 8603SOL    HW274649   1.520   1.020   0.319
 8604SOL     OW74650  12.757  15.784   1.592
 8604SOL    HW174651  12.768  15.881   1.615
 8604SOL    HW274652  12.782  15.770   1.496
 8605SOL     OW74653   9.797   2.850   0.282
 8605SOL    HW174654   9.786   2.920   0.352
 8605SOL    HW274655   9.846   2.771   0.320
 8606SOL     OW74656   1.216   9.555   1.058
 8606SOL    HW174657   1.236   9.509   1.145
 8606SOL    HW274658   1.224   9.654   1.071
 8607SOL     OW74659   6.647   6.769   0.616
 8607SOL    HW174660   6.556   6.742   0.647
 8607SOL    HW274661   6.675   6.853   0.661
 8608SOL     OW74662   3.364  16.583   7.402
 8608SOL    HW174663   3.434  16.653   7.421
 8608SOL    HW274664   3.289  16.594   7.467
 8609SOL     OW74665   4.379  12.053   1.091
 8609SOL    HW174666   4.399  12.054   0.993
 8609SOL    HW274667   4.465  12.049   1.142
 8610SOL     OW74668   5.926  13.936   0.058
 8610SOL    HW174669   5.867  13.915   0.136
 8610SOL    HW274670   6.005  13.989   0.089
 8611SOL     OW74671   5.095   8.326   7.406
 8611SOL    HW174672   5.018   8.263   7.407
 8611SOL    HW274673   5.150   8.312   7.489
 8612SOL     OW74674   8.340   5.939   6.732
 8612SOL    HW174675   8.284   6.000   6.675
 8612SOL    HW274676   8.281   5.887   6.794
 8613SOL     OW74677   6.517  14.756   7.622
 8613SOL    HW174678   6.478  14.787   7.708
 8613SOL    HW274679   6.601  14.808   7.602
 8614SOL     OW74680   4.183   4.451   0.068
 8614SOL    HW174681   4.281   4.429   0.075
 8614SOL    HW274682   4.156   4.455   8.426
 8615SOL     OW74683  15.933  11.665   0.571
 8615SOL    HW174684  15.866  11.703   0.634
 8615SOL    HW274685  15.977  11.740   0.520
 8616SOL     OW74686  13.389   1.810   0.125
 8616SOL    HW174687  13.468   1.750   0.112
 8616SOL    HW274688  13.305   1.760   0.105
 8617SOL     OW74689  13.956   8.400   0.179
 8617SOL    HW174690  13.964   8.367   0.273
 8617SOL    HW274691  13.980   8.497   0.175
 8618SOL     OW74692   0.571   2.022   8.247
 8618SOL    HW174693   0.641   2.054   8.184
 8618SOL    HW274694   0.549   2.095   8.312
 8619SOL     OW74695   5.706   2.882   7.895
 8619SOL    HW174696   5.782   2.878   7.831
 8619SOL    HW274697   5.626   2.838   7.855
 8620SOL     OW74698   0.653   1.501   7.495
 8620SOL    HW174699   0.745   1.518   7.460
 8620SOL    HW274700   0.611   1.426   7.443
 8621SOL     OW74701   4.916   9.396   7.474
 8621SOL    HW174702   4.990   9.358   7.529
 8621SOL    HW274703   4.925   9.495   7.469
 8622SOL     OW74704   9.569   1.972   7.289
 8622SOL    HW174705   9.560   1.953   7.387
 8622SOL    HW274706   9.514   1.907   7.237
 8623SOL     OW74707   1.744  13.132   7.804
 8623SOL    HW174708   1.842  13.123   7.823
 8623SOL    HW274709   1.728  13.210   7.745
 8624SOL     OW74710   0.869   7.342   8.383
 8624SOL    HW174711   0.949   7.397   8.362
 8624SOL    HW274712   0.825   7.313   8.297
 8625SOL     OW74713  16.179   1.440   7.114
 8625SOL    HW174714  16.159   1.516   7.052
 8625SOL    HW274715  16.140   1.356   7.077
 8626SOL     OW74716   0.516   1.224   8.225
 8626SOL    HW174717   0.524   1.145   8.285
 8626SOL    HW274718   0.460   1.294   8.270
 8627SOL     OW74719   0.927   3.444   8.240
 8627SOL    HW174720   1.016   3.486   8.259
 8627SOL    HW274721   0.930   3.401   8.149
 8628SOL     OW74722  16.281   3.288   8.068
 8628SOL    HW174723  16.306   3.349   7.993
 8628SOL    HW274724  16.232   3.341   8.138
 8629SOL     OW74725  10.814   1.845   5.640
 8629SOL    HW174726  10.818   1.945   5.647
 8629SOL    HW274727  10.760   1.819   5.561
 8630SOL     OW74728   2.561   7.913   8.187
 8630SOL    HW174729   2.581   8.005   8.154
 8630SOL    HW274730   2.467   7.888   8.165
 8631SOL     OW74731  10.143   4.307   6.320
 8631SOL    HW174732  10.091   4.386   6.353
 8631SOL    HW274733  10.155   4.315   6.221
 8632SOL     OW74734   0.553  12.960   8.241
 8632SOL    HW174735   0.622  13.013   8.193
 8632SOL    HW274736   0.595  12.878   8.280
 8633SOL     OW74737   6.035  11.155   0.272
 8633SOL    HW174738   5.956  11.119   0.223
 8633SOL    HW274739   6.022  11.142   0.371
 8634SOL     OW74740   3.319   4.279   8.194
 8634SOL    HW174741   3.361   4.311   8.279
 8634SOL    HW274742   3.360   4.326   8.117
 8635SOL     OW74743  11.227   0.719   1.527
 8635SOL    HW174744  11.311   0.746   1.575
 8635SOL    HW274745  11.168   0.799   1.515
 8636SOL     OW74746  14.388  15.434   1.660
 8636SOL    HW174747  14.342  15.354   1.621
 8636SOL    HW274748  14.453  15.471   1.593
 8637SOL     OW74749  16.945   7.134   0.642
 8637SOL    HW174750  16.851   7.120   0.610
 8637SOL    HW274751  16.948   7.124   0.742
 8638SOL     OW74752   6.635  14.050   0.535
 8638SOL    HW174753   6.626  13.984   0.461
 8638SOL    HW274754   6.717  14.029   0.589
 8639SOL     OW74755  15.934   9.947   1.486
 8639SOL    HW174756  15.982   9.862   1.466
 8639SOL    HW274757  15.896   9.985   1.401
 8640SOL     OW74758   1.425  15.278   2.067
 8640SOL    HW174759   1.396  15.197   2.118
 8640SOL    HW274760   1.390  15.360   2.112
 8641SOL     OW74761  11.282  12.499   8.091
 8641SOL    HW174762  11.303  12.402   8.086
 8641SOL    HW274763  11.216  12.516   8.164
 8642SOL     OW74764  11.214   3.251   7.068
 8642SOL    HW174765  11.251   3.278   7.157
 8642SOL    HW274766  11.120   3.217   7.080
 8643SOL     OW74767  15.214   9.642   1.672
 8643SOL    HW174768  15.248   9.548   1.674
 8643SOL    HW274769  15.176   9.666   1.761
 8644SOL     OW74770   3.927   2.020   1.671
 8644SOL    HW174771   3.928   2.117   1.695
 8644SOL    HW274772   3.849   1.976   1.714
 8645SOL     OW74773  13.496  12.936   1.690
 8645SOL    HW174774  13.435  12.945   1.768
 8645SOL    HW274775  13.470  13.002   1.619
 8646SOL     OW74776  10.771  14.220   1.664
 8646SOL    HW174777  10.704  14.291   1.687
 8646SOL    HW274778  10.824  14.197   1.746
 8647SOL     OW74779   0.187  12.977   2.349
 8647SOL    HW174780   0.166  12.928   2.434
 8647SOL    HW274781   0.122  13.052   2.337
 8648SOL     OW74782   1.313  14.439   7.565
 8648SOL    HW174783   1.227  14.394   7.539
 8648SOL    HW274784   1.358  14.385   7.636
 8649SOL     OW74785  12.382   1.367   6.723
 8649SOL    HW174786  12.376   1.461   6.687
 8649SOL    HW274787  12.454   1.363   6.792
 8650SOL     OW74788  10.958   4.101   0.470
 8650SOL    HW174789  11.050   4.065   0.456
 8650SOL    HW274790  10.948   4.134   0.563
 8651SOL     OW74791   0.672   6.750   5.952
 8651SOL    HW174792   0.752   6.697   5.922
 8651SOL    HW274793   0.606   6.688   5.994
 8652SOL     OW74794  12.323   8.358   2.280
 8652SOL    HW174795  12.281   8.278   2.322
 8652SOL    HW274796  12.289   8.441   2.325
 8653SOL     OW74797  12.434   3.408   8.419
 8653SOL    HW174798  12.372   3.348   8.369
 8653SOL    HW274799  12.515   3.356   8.448
 8654SOL     OW74800   2.588   0.404   0.968
 8654SOL    HW174801   2.682   0.383   0.997
 8654SOL    HW274802   2.583   0.406   0.868
 8655SOL     OW74803   9.341   2.367   0.465
 8655SOL    HW174804   9.266   2.410   0.416
 8655SOL    HW274805   9.306   2.319   0.546
 8656SOL     OW74806  13.302   1.861   7.937
 8656SOL    HW174807  13.369   1.936   7.936
 8656SOL    HW274808  13.345   1.777   7.903
 8657SOL     OW74809   6.605   2.218   0.128
 8657SOL    HW174810   6.614   2.153   0.204
 8657SOL    HW274811   6.695   2.238   0.090
 8658SOL     OW74812   2.603   6.398   0.353
 8658SOL    HW174813   2.587   6.299   0.358
 8658SOL    HW274814   2.665   6.424   0.427
 8659SOL     OW74815  13.102  14.606   6.999
 8659SOL    HW174816  13.058  14.612   6.910
 8659SOL    HW274817  13.049  14.660   7.066
 8660SOL     OW74818  16.093   2.436   7.112
 8660SOL    HW174819  16.134   2.446   7.021
 8660SOL    HW274820  16.135   2.358   7.159
 8661SOL     OW74821   2.664  11.260   0.491
 8661SOL    HW174822   2.716  11.346   0.500
 8661SOL    HW274823   2.685  11.200   0.568
 8662SOL     OW74824  14.237   4.674   6.681
 8662SOL    HW174825  14.332   4.706   6.687
 8662SOL    HW274826  14.190   4.725   6.609
 8663SOL     OW74827   5.869  16.598   6.898
 8663SOL    HW174828   5.813  16.642   6.828
 8663SOL    HW274829   5.811  16.539   6.955
 8664SOL     OW74830   6.727  11.907   1.154
 8664SOL    HW174831   6.738  11.899   1.253
 8664SOL    HW274832   6.659  11.977   1.133
 8665SOL     OW74833   4.794   1.613   1.129
 8665SOL    HW174834   4.860   1.688   1.137
 8665SOL    HW274835   4.788   1.564   1.216
 8666SOL     OW74836   2.886   8.661   0.694
 8666SOL    HW174837   2.930   8.655   0.605
 8666SOL    HW274838   2.920   8.741   0.744
 8667SOL     OW74839  11.650   7.338   7.404
 8667SOL    HW174840  11.717   7.311   7.334
 8667SOL    HW274841  11.589   7.408   7.366
 8668SOL     OW74842   8.947   6.184   0.884
 8668SOL    HW174843   8.863   6.130   0.878
 8668SOL    HW274844   9.025   6.126   0.859
 8669SOL     OW74845   0.559   1.295   7.338
 8669SOL    HW174846   0.489   1.351   7.294
 8669SOL    HW274847   0.521   1.205   7.358
 8670SOL     OW74848   5.867  15.099   0.025
 8670SOL    HW174849   5.826  15.063   8.396
 8670SOL    HW274850   5.925  15.029   0.067
 8671SOL     OW74851  15.964  10.577   0.241
 8671SOL    HW174852  16.039  10.534   0.290
 8671SOL    HW274853  15.891  10.601   0.305
 8672SOL     OW74854   9.011   7.421   0.888
 8672SOL    HW174855   8.941   7.479   0.928
 8672SOL    HW274856   9.085   7.477   0.852
 8673SOL     OW74857   5.633   7.130   6.543
 8673SOL    HW174858   5.563   7.201   6.547
 8673SOL    HW274859   5.613   7.068   6.467
 8674SOL     OW74860  11.333  12.144   0.563
 8674SOL    HW174861  11.323  12.066   0.501
 8674SOL    HW274862  11.262  12.211   0.543
 8675SOL     OW74863   4.733   9.466   0.698
 8675SOL    HW174864   4.660   9.524   0.733
 8675SOL    HW274865   4.719   9.372   0.729
 8676SOL     OW74866   9.818   3.371   7.296
 8676SOL    HW174867   9.829   3.272   7.299
 8676SOL    HW274868   9.735   3.394   7.245
 8677SOL     OW74869   7.344   5.766   1.707
 8677SOL    HW174870   7.380   5.848   1.663
 8677SOL    HW274871   7.255   5.743   1.666
 8678SOL     OW74872  10.564  15.529   0.724
 8678SOL    HW174873  10.516  15.470   0.660
 8678SOL    HW274874  10.520  15.525   0.814
 8679SOL     OW74875   0.662  13.510   0.529
 8679SOL    HW174876   0.615  13.522   0.616
 8679SOL    HW274877   0.637  13.585   0.467
 8680SOL     OW74878   7.561  15.030   6.663
 8680SOL    HW174879   7.634  15.035   6.594
 8680SOL    HW274880   7.475  15.059   6.621
 8681SOL     OW74881  10.102   8.099   8.294
 8681SOL    HW174882  10.021   8.155   8.281
 8681SOL    HW274883  10.081   8.004   8.274
 8682SOL     OW74884   1.369  13.699   0.545
 8682SOL    HW174885   1.422  13.668   0.466
 8682SOL    HW274886   1.286  13.643   0.553
 8683SOL     OW74887   5.993   3.564   1.617
 8683SOL    HW174888   6.074   3.610   1.654
 8683SOL    HW274889   5.917   3.574   1.682
 8684SOL     OW74890  14.001   6.141   7.241
 8684SOL    HW174891  13.918   6.092   7.269
 8684SOL    HW274892  14.044   6.093   7.165
 8685SOL     OW74893  10.169  15.754   1.744
 8685SOL    HW174894  10.197  15.683   1.809
 8685SOL    HW274895  10.163  15.715   1.652
 8686SOL     OW74896   2.221  13.173   8.130
 8686SOL    HW174897   2.142  13.222   8.167
 8686SOL    HW274898   2.190  13.087   8.089
 8687SOL     OW74899  11.930  16.427   1.577
 8687SOL    HW174900  11.858  16.363   1.551
 8687SOL    HW274901  11.889  16.515   1.602
 8688SOL     OW74902   3.736   3.842   0.626
 8688SOL    HW174903   3.692   3.929   0.650
 8688SOL    HW274904   3.829   3.860   0.594
 8689SOL     OW74905   9.283   1.146   6.711
 8689SOL    HW174906   9.369   1.182   6.746
 8689SOL    HW274907   9.211   1.155   6.780
 8690SOL     OW74908  10.908  12.603   7.960
 8690SOL    HW174909  10.815  12.615   7.926
 8690SOL    HW274910  10.917  12.513   8.003
 8691SOL     OW74911   4.638  13.167   8.080
 8691SOL    HW174912   4.711  13.109   8.041
 8691SOL    HW274913   4.603  13.124   8.163
 8692SOL     OW74914  11.144  14.620   7.051
 8692SOL    HW174915  11.155  14.522   7.063
 8692SOL    HW274916  11.147  14.642   6.953
 8693SOL     OW74917  16.511   7.382   0.662
 8693SOL    HW174918  16.533   7.392   0.565
 8693SOL    HW274919  16.554   7.455   0.714
 8694SOL     OW74920  16.940  12.437   1.610
 8694SOL    HW174921  16.942  12.446   1.709
 8694SOL    HW274922   0.025  12.496   1.569
 8695SOL     OW74923  15.624  14.584   2.001
 8695SOL    HW174924  15.564  14.642   1.946
 8695SOL    HW274925  15.668  14.639   2.072
 8696SOL     OW74926   6.390  15.839   7.566
 8696SOL    HW174927   6.313  15.866   7.624
 8696SOL    HW274928   6.370  15.864   7.471
 8697SOL     OW74929  11.603  12.150   1.821
 8697SOL    HW174930  11.569  12.147   1.916
 8697SOL    HW274931  11.534  12.192   1.762
 8698SOL     OW74932  15.340  13.935   2.378
 8698SOL    HW174933  15.309  13.840   2.378
 8698SOL    HW274934  15.436  13.939   2.352
 8699SOL     OW74935  13.995  16.727   1.858
 8699SOL    HW174936  14.056  16.804   1.875
 8699SOL    HW274937  13.938  16.711   1.939
 8700SOL     OW74938   8.946   8.382   7.575
 8700SOL    HW174939   8.893   8.310   7.530
 8700SOL    HW274940   8.896   8.416   7.655
 8701SOL     OW74941   6.328   3.599   7.405
 8701SOL    HW174942   6.302   3.653   7.485
 8701SOL    HW274943   6.322   3.656   7.323
 8702SOL     OW74944   9.188   7.757   0.475
 8702SOL    HW174945   9.118   7.691   0.449
 8702SOL    HW274946   9.222   7.803   0.393
 8703SOL     OW74947  10.516   8.303   7.917
 8703SOL    HW174948  10.509   8.253   8.003
 8703SOL    HW274949  10.611   8.308   7.888
 8704SOL     OW74950   1.042   9.089   1.005
 8704SOL    HW174951   1.070   9.144   0.927
 8704SOL    HW274952   0.956   9.124   1.042
 8705SOL     OW74953   1.738   9.117   7.711
 8705SOL    HW174954   1.707   9.194   7.656
 8705SOL    HW274955   1.725   9.032   7.659
 8706SOL     OW74956   4.182   5.777   1.491
 8706SOL    HW174957   4.123   5.814   1.419
 8706SOL    HW274958   4.133   5.706   1.542
 8707SOL     OW74959   7.159  13.224   7.137
 8707SOL    HW174960   7.252  13.235   7.172
 8707SOL    HW274961   7.097  13.283   7.188
 8708SOL     OW74962  14.439   6.485   6.284
 8708SOL    HW174963  14.538   6.472   6.298
 8708SOL    HW274964  14.425   6.552   6.210
 8709SOL     OW74965   9.489   6.959   7.060
 8709SOL    HW174966   9.549   7.038   7.073
 8709SOL    HW274967   9.489   6.903   7.143
 8710SOL     OW74968   2.558   6.023   1.418
 8710SOL    HW174969   2.476   6.066   1.380
 8710SOL    HW274970   2.556   6.028   1.518
 8711SOL     OW74971   6.813   3.974   0.948
 8711SOL    HW174972   6.763   3.979   1.034
 8711SOL    HW274973   6.798   3.885   0.905
 8712SOL     OW74974  12.947   7.841   0.945
 8712SOL    HW174975  12.994   7.766   0.990
 8712SOL    HW274976  13.011   7.916   0.929
 8713SOL     OW74977   7.440  11.198   7.851
 8713SOL    HW174978   7.445  11.182   7.950
 8713SOL    HW274979   7.527  11.172   7.808
 8714SOL     OW74980   3.895   7.197   1.905
 8714SOL    HW174981   3.939   7.200   1.994
 8714SOL    HW274982   3.844   7.282   1.890
 8715SOL     OW74983  13.342   5.834   0.918
 8715SOL    HW174984  13.253   5.789   0.924
 8715SOL    HW274985  13.408   5.785   0.976
 8716SOL     OW74986  16.440   8.711   7.367
 8716SOL    HW174987  16.390   8.635   7.407
 8716SOL    HW274988  16.500   8.752   7.435
 8717SOL     OW74989   8.288   7.426   7.732
 8717SOL    HW174990   8.277   7.333   7.765
 8717SOL    HW274991   8.235   7.439   7.648
 8718SOL     OW74992  10.715   3.479   7.867
 8718SOL    HW174993  10.639   3.538   7.840
 8718SOL    HW274994  10.739   3.419   7.791
 8719SOL     OW74995   6.922   9.784   1.080
 8719SOL    HW174996   6.992   9.720   1.111
 8719SOL    HW274997   6.965   9.869   1.052
 8720SOL     OW74998   5.063   1.113   7.913
 8720SOL    HW174999   5.027   1.023   7.937
 8720SOL    HW275000   4.989   1.170   7.875
 8721SOL     OW75001   9.139   0.802   0.546
 8721SOL    HW175002   9.205   0.862   0.501
 8721SOL    HW275003   9.175   0.774   0.635
 8722SOL     OW75004  15.790   4.547   2.039
 8722SOL    HW175005  15.826   4.591   1.957
 8722SOL    HW275006  15.748   4.616   2.098
 8723SOL     OW75007  13.442  12.406   7.569
 8723SOL    HW175008  13.540  12.402   7.584
 8723SOL    HW275009  13.395  12.421   7.656
 8724SOL     OW75010  14.267  14.367   1.954
 8724SOL    HW175011  14.357  14.355   1.997
 8724SOL    HW275012  14.270  14.330   1.861
 8725SOL     OW75013  16.786  13.159   2.534
 8725SOL    HW175014  16.766  13.249   2.572
 8725SOL    HW275015  16.729  13.090   2.580
 8726SOL     OW75016  10.785   2.095   7.810
 8726SOL    HW175017  10.724   2.170   7.835
 8726SOL    HW275018  10.877   2.130   7.795
 8727SOL     OW75019   1.969   7.616   8.190
 8727SOL    HW175020   2.006   7.687   8.130
 8727SOL    HW275021   1.923   7.658   8.268
 8728SOL     OW75022   8.443   8.374   1.167
 8728SOL    HW175023   8.464   8.320   1.248
 8728SOL    HW275024   8.350   8.353   1.136
 8729SOL     OW75025   5.775   2.828   0.868
 8729SOL    HW175026   5.685   2.804   0.831
 8729SOL    HW275027   5.831   2.746   0.876
 8730SOL     OW75028   0.789  14.298   1.794
 8730SOL    HW175029   0.851  14.299   1.715
 8730SOL    HW275030   0.705  14.249   1.770
 8731SOL     OW75031   8.350   1.068   7.576
 8731SOL    HW175032   8.399   1.059   7.489
 8731SOL    HW275033   8.253   1.047   7.562
 8732SOL     OW75034  10.492  16.782   0.416
 8732SOL    HW175035  10.484  16.684   0.398
 8732SOL    HW275036  10.574  16.800   0.470
 8733SOL     OW75037  11.408  14.198   7.112
 8733SOL    HW175038  11.379  14.102   7.112
 8733SOL    HW275039  11.473  14.213   7.038
 8734SOL     OW75040   6.349   4.403   8.245
 8734SOL    HW175041   6.428   4.369   8.296
 8734SOL    HW275042   6.310   4.329   8.190
 8735SOL     OW75043  10.382   4.411   1.598
 8735SOL    HW175044  10.411   4.493   1.550
 8735SOL    HW275045  10.457   4.344   1.599
 8736SOL     OW75046  16.980   8.355   0.309
 8736SOL    HW175047  16.964   8.454   0.312
 8736SOL    HW275048  16.972   8.318   0.402
 8737SOL     OW75049  14.486   5.905   1.330
 8737SOL    HW175050  14.560   5.845   1.300
 8737SOL    HW275051  14.398   5.867   1.301
 8738SOL     OW75052   9.588  12.451   8.396
 8738SOL    HW175053   9.678  12.408   8.385
 8738SOL    HW275054   9.600  12.549   8.412
 8739SOL     OW75055  10.494   1.532   5.739
 8739SOL    HW175056  10.592   1.550   5.738
 8739SOL    HW275057  10.467   1.492   5.651
 8740SOL     OW75058  16.615  16.391   0.031
 8740SOL    HW175059  16.695  16.417   0.084
 8740SOL    HW275060  16.538  16.449   0.057
 8741SOL     OW75061   1.883   0.111   1.219
 8741SOL    HW175062   1.920   0.198   1.253
 8741SOL    HW275063   1.945   0.037   1.246
 8742SOL     OW75064  11.968   8.663   1.534
 8742SOL    HW175065  11.873   8.634   1.539
 8742SOL    HW275066  11.989   8.723   1.610
 8743SOL     OW75067  10.530  15.383   1.412
 8743SOL    HW175068  10.557  15.436   1.331
 8743SOL    HW275069  10.606  15.381   1.477
 8744SOL     OW75070  15.738   0.791   6.666
 8744SOL    HW175071  15.796   0.824   6.592
 8744SOL    HW275072  15.763   0.697   6.690
 8745SOL     OW75073   7.817  16.076   8.217
 8745SOL    HW175074   7.776  16.091   8.127
 8745SOL    HW275075   7.850  15.981   8.223
 8746SOL     OW75076   3.954   1.140   2.844
 8746SOL    HW175077   3.888   1.119   2.916
 8746SOL    HW275078   3.945   1.236   2.817
 8747SOL     OW75079   6.407   7.473   1.177
 8747SOL    HW175080   6.469   7.524   1.236
 8747SOL    HW275081   6.453   7.449   1.092
 8748SOL     OW75082   2.515  15.788   7.291
 8748SOL    HW175083   2.550  15.715   7.234
 8748SOL    HW275084   2.586  15.820   7.354
 8749SOL     OW75085   2.234   5.104   6.259
 8749SOL    HW175086   2.318   5.049   6.254
 8749SOL    HW275087   2.240   5.179   6.193
 8750SOL     OW75088   4.390  10.169   7.514
 8750SOL    HW175089   4.376  10.153   7.611
 8750SOL    HW275090   4.302  10.178   7.468
 8751SOL     OW75091  10.259  11.964   0.176
 8751SOL    HW175092  10.217  11.910   0.250
 8751SOL    HW275093  10.357  11.947   0.174
 8752SOL     OW75094   7.561   6.801   0.275
 8752SOL    HW175095   7.502   6.877   0.303
 8752SOL    HW275096   7.642   6.837   0.229
 8753SOL     OW75097  14.905   0.654   0.806
 8753SOL    HW175098  14.883   0.577   0.746
 8753SOL    HW275099  14.832   0.722   0.801
 8754SOL     OW75100   7.785   2.742   1.687
 8754SOL    HW175101   7.842   2.660   1.687
 8754SOL    HW275102   7.700   2.724   1.736
 8755SOL     OW75103   5.469  16.396   7.498
 8755SOL    HW175104   5.465  16.394   7.398
 8755SOL    HW275105   5.392  16.450   7.533
 8756SOL     OW75106   4.415   9.193   8.274
 8756SOL    HW175107   4.390   9.281   8.234
 8756SOL    HW275108   4.489   9.206   8.340
 8757SOL     OW75109  15.990  15.960   1.921
 8757SOL    HW175110  16.088  15.982   1.924
 8757SOL    HW275111  15.947  15.985   2.007
 8758SOL     OW75112   9.287   6.339   0.021
 8758SOL    HW175113   9.198   6.385   0.019
 8758SOL    HW275114   9.282   6.258   0.079
 8759SOL     OW75115   0.730   4.587   1.184
 8759SOL    HW175116   0.798   4.658   1.166
 8759SOL    HW275117   0.755   4.538   1.268
 8760SOL     OW75118   0.417  12.152   2.189
 8760SOL    HW175119   0.355  12.089   2.142
 8760SOL    HW275120   0.413  12.136   2.288
 8761SOL     OW75121   9.587   7.912   0.753
 8761SOL    HW175122   9.635   7.984   0.703
 8761SOL    HW275123   9.532   7.859   0.689
 8762SOL     OW75124   7.829   2.031   0.295
 8762SOL    HW175125   7.799   1.950   0.345
 8762SOL    HW275126   7.795   2.113   0.341
 8763SOL     OW75127   8.914   7.010   6.409
 8763SOL    HW175128   8.947   6.994   6.316
 8763SOL    HW275129   8.852   6.937   6.435
 8764SOL     OW75130   4.855   2.913   2.059
 8764SOL    HW175131   4.952   2.933   2.056
 8764SOL    HW275132   4.823   2.917   2.153
 8765SOL     OW75133  12.683  11.563   8.158
 8765SOL    HW175134  12.637  11.603   8.237
 8765SOL    HW275135  12.696  11.465   8.172
 8766SOL     OW75136   9.970  13.282   8.444
 8766SOL    HW175137   9.962  13.322   0.081
 8766SOL    HW275138   9.885  13.296   8.393
 8767SOL     OW75139   9.370  13.915   1.121
 8767SOL    HW175140   9.417  13.828   1.132
 8767SOL    HW275141   9.428  13.989   1.154
 8768SOL     OW75142   3.700   9.342   0.787
 8768SOL    HW175143   3.753   9.271   0.741
 8768SOL    HW275144   3.650   9.396   0.718
 8769SOL     OW75145   4.414   8.358   1.814
 8769SOL    HW175146   4.404   8.432   1.880
 8769SOL    HW275147   4.398   8.270   1.860
 8770SOL     OW75148  14.198   5.241   1.068
 8770SOL    HW175149  14.270   5.307   1.089
 8770SOL    HW275150  14.206   5.212   0.973
 8771SOL     OW75151   6.715   2.965   1.435
 8771SOL    HW175152   6.744   3.001   1.524
 8771SOL    HW275153   6.796   2.940   1.382
 8772SOL     OW75154   1.511  15.455   8.128
 8772SOL    HW175155   1.565  15.410   8.199
 8772SOL    HW275156   1.564  15.530   8.089
 8773SOL     OW75157   0.745  12.889   7.661
 8773SOL    HW175158   0.735  12.975   7.610
 8773SOL    HW275159   0.670  12.880   7.726
 8774SOL     OW75160   9.008   7.641   7.100
 8774SOL    HW175161   8.919   7.646   7.145
 8774SOL    HW275162   9.000   7.590   7.014
 8775SOL     OW75163  16.745  16.637   6.735
 8775SOL    HW175164  16.829  16.642   6.681
 8775SOL    HW275165  16.669  16.675   6.683
 8776SOL     OW75166  16.743  12.578   1.989
 8776SOL    HW175167  16.720  12.631   2.071
 8776SOL    HW275168  16.696  12.618   1.910
 8777SOL     OW75169   6.862   8.220   8.131
 8777SOL    HW175170   6.956   8.200   8.158
 8777SOL    HW275171   6.814   8.265   8.206
 8778SOL     OW75172   9.143  11.156   1.556
 8778SOL    HW175173   9.212  11.088   1.582
 8778SOL    HW275174   9.091  11.123   1.478
 8779SOL     OW75175   4.379  14.945   8.252
 8779SOL    HW175176   4.477  14.943   8.272
 8779SOL    HW275177   4.354  14.860   8.204
 8780SOL     OW75178   3.323   3.714   0.183
 8780SOL    HW175179   3.354   3.619   0.173
 8780SOL    HW275180   3.268   3.739   0.104
 8781SOL     OW75181  10.866   9.965   6.268
 8781SOL    HW175182  10.823   9.936   6.182
 8781SOL    HW275183  10.796  10.002   6.329
 8782SOL     OW75184   1.313  11.971   7.646
 8782SOL    HW175185   1.301  11.984   7.547
 8782SOL    HW275186   1.240  11.913   7.681
 8783SOL     OW75187   5.158   4.879   0.237
 8783SOL    HW175188   5.166   4.887   0.337
 8783SOL    HW275189   5.194   4.791   0.208
 8784SOL     OW75190   1.410   7.271   1.225
 8784SOL    HW175191   1.411   7.347   1.160
 8784SOL    HW275192   1.316   7.240   1.240
 8785SOL     OW75193   5.924   1.459   1.775
 8785SOL    HW175194   5.998   1.521   1.802
 8785SOL    HW275195   5.836   1.501   1.798
 8786SOL     OW75196   6.752   1.858   1.646
 8786SOL    HW175197   6.695   1.886   1.723
 8786SOL    HW275198   6.848   1.876   1.667
 8787SOL     OW75199  16.298   7.943   1.181
 8787SOL    HW175200  16.372   7.966   1.245
 8787SOL    HW275201  16.323   7.974   1.090
 8788SOL     OW75202   9.948   9.275   8.182
 8788SOL    HW175203   9.859   9.295   8.142
 8788SOL    HW275204   9.936   9.214   8.261
 8789SOL     OW75205  12.747  15.632   8.077
 8789SOL    HW175206  12.807  15.599   8.004
 8789SOL    HW275207  12.687  15.704   8.041
 8790SOL     OW75208   6.450   1.802   6.538
 8790SOL    HW175209   6.518   1.777   6.468
 8790SOL    HW275210   6.403   1.885   6.510
 8791SOL     OW75211   4.326   4.215   0.500
 8791SOL    HW175212   4.232   4.191   0.474
 8791SOL    HW275213   4.338   4.197   0.598
 8792SOL     OW75214  15.268  12.071   6.851
 8792SOL    HW175215  15.270  12.148   6.787
 8792SOL    HW275216  15.173  12.054   6.879
 8793SOL     OW75217   8.013  13.577   0.678
 8793SOL    HW175218   8.070  13.658   0.694
 8793SOL    HW275219   8.068  13.505   0.635
 8794SOL     OW75220   9.982   2.438   6.471
 8794SOL    HW175221   9.954   2.384   6.550
 8794SOL    HW275222  10.053   2.502   6.498
 8795SOL     OW75223   5.158  10.179   2.545
 8795SOL    HW175224   5.231  10.221   2.492
 8795SOL    HW275225   5.195  10.106   2.602
 8796SOL     OW75226   9.209  14.449   7.534
 8796SOL    HW175227   9.261  14.524   7.492
 8796SOL    HW275228   9.120  14.483   7.562
 8797SOL     OW75229   3.424   2.883   1.242
 8797SOL    HW175230   3.348   2.871   1.178
 8797SOL    HW275231   3.463   2.794   1.265
 8798SOL     OW75232   0.413  14.608   1.755
 8798SOL    HW175233   0.421  14.697   1.709
 8798SOL    HW275234   0.504  14.578   1.785
 8799SOL     OW75235   0.930   2.506   1.034
 8799SOL    HW175236   0.861   2.542   0.971
 8799SOL    HW275237   0.981   2.581   1.075
 8800SOL     OW75238   2.864  15.393   1.619
 8800SOL    HW175239   2.779  15.391   1.672
 8800SOL    HW275240   2.935  15.441   1.671
 8801SOL     OW75241   4.057  16.780   0.433
 8801SOL    HW175242   4.064  16.840   0.353
 8801SOL    HW275243   3.965  16.787   0.472
 8802SOL     OW75244   3.288  16.530   1.208
 8802SOL    HW175245   3.254  16.561   1.296
 8802SOL    HW275246   3.212  16.498   1.152
 8803SOL     OW75247  15.799  16.703   1.271
 8803SOL    HW175248  15.828  16.654   1.353
 8803SOL    HW275249  15.699  16.704   1.267
 8804SOL     OW75250   1.133  16.906   7.395
 8804SOL    HW175251   1.046  16.922   7.348
 8804SOL    HW275252   1.135  16.961   7.479
 8805SOL     OW75253  13.105   6.629   0.661
 8805SOL    HW175254  13.074   6.625   0.566
 8805SOL    HW275255  13.026   6.623   0.723
 8806SOL     OW75256  10.303   1.191   0.032
 8806SOL    HW175257  10.337   1.121   8.422
 8806SOL    HW275258  10.379   1.227   0.086
 8807SOL     OW75259  15.255  12.271   6.663
 8807SOL    HW175260  15.187  12.344   6.653
 8807SOL    HW275261  15.255  12.214   6.581
 8808SOL     OW75262   2.256   1.833   2.073
 8808SOL    HW175263   2.204   1.914   2.100
 8808SOL    HW275264   2.273   1.776   2.154
 8809SOL     OW75265  16.279  15.465   1.070
 8809SOL    HW175266  16.350  15.520   1.113
 8809SOL    HW275267  16.228  15.521   1.004
 8810SOL     OW75268   3.066   2.318   2.006
 8810SOL    HW175269   3.018   2.333   2.092
 8810SOL    HW275270   3.159   2.352   2.013
 8811SOL     OW75271  12.224  16.672   0.302
 8811SOL    HW175272  12.220  16.755   0.359
 8811SOL    HW275273  12.218  16.698   0.205
 8812SOL     OW75274   2.966   5.697   7.132
 8812SOL    HW175275   3.003   5.744   7.212
 8812SOL    HW275276   2.965   5.598   7.149
 8813SOL     OW75277   9.930   6.686   6.436
 8813SOL    HW175278   9.959   6.605   6.488
 8813SOL    HW275279   9.983   6.692   6.351
 8814SOL     OW75280   9.799  10.123   0.804
 8814SOL    HW175281   9.841  10.133   0.713
 8814SOL    HW275282   9.866  10.147   0.874
 8815SOL     OW75283   7.962   8.046   7.987
 8815SOL    HW175284   7.969   7.951   7.955
 8815SOL    HW275285   7.877   8.086   7.953
 8816SOL     OW75286  13.970   3.225   0.748
 8816SOL    HW175287  14.012   3.257   0.832
 8816SOL    HW275288  13.928   3.136   0.763
 8817SOL     OW75289   2.523  16.936   1.857
 8817SOL    HW175290   2.508  16.923   1.955
 8817SOL    HW275291   2.576   0.037   1.842
 8818SOL     OW75292  11.125   2.171   0.618
 8818SOL    HW175293  11.043   2.129   0.579
 8818SOL    HW275294  11.206   2.124   0.583
 8819SOL     OW75295  14.897  12.361   7.261
 8819SOL    HW175296  14.851  12.428   7.319
 8819SOL    HW275297  14.970  12.406   7.210
 8820SOL     OW75298   4.612   0.362   1.548
 8820SOL    HW175299   4.612   0.400   1.641
 8820SOL    HW275300   4.675   0.414   1.491
 8821SOL     OW75301  13.462   9.983   1.400
 8821SOL    HW175302  13.533  10.019   1.461
 8821SOL    HW275303  13.478  10.014   1.307
 8822SOL     OW75304   0.688  15.893   8.222
 8822SOL    HW175305   0.781  15.859   8.203
 8822SOL    HW275306   0.624  15.816   8.216
 8823SOL     OW75307   5.644  16.414   1.366
 8823SOL    HW175308   5.717  16.347   1.356
 8823SOL    HW275309   5.658  16.490   1.302
 8824SOL     OW75310   9.114   3.650   0.545
 8824SOL    HW175311   9.046   3.714   0.582
 8824SOL    HW275312   9.202   3.696   0.539
 8825SOL     OW75313  15.569   9.175   1.902
 8825SOL    HW175314  15.490   9.115   1.918
 8825SOL    HW275315  15.539   9.271   1.906
 8826SOL     OW75316   0.234  14.151   7.606
 8826SOL    HW175317   0.209  14.145   7.702
 8826SOL    HW275318   0.174  14.092   7.551
 8827SOL     OW75319  16.098  10.687   7.537
 8827SOL    HW175320  16.188  10.709   7.499
 8827SOL    HW275321  16.102  10.601   7.587
 8828SOL     OW75322  13.553  12.039   7.346
 8828SOL    HW175323  13.497  11.989   7.412
 8828SOL    HW275324  13.509  12.126   7.324
 8829SOL     OW75325   8.027   6.094   6.832
 8829SOL    HW175326   8.071   6.182   6.847
 8829SOL    HW275327   8.021   6.045   6.919
 8830SOL     OW75328  16.337  12.286   1.891
 8830SOL    HW175329  16.296  12.199   1.919
 8830SOL    HW275330  16.407  12.313   1.957
 8831SOL     OW75331  16.877   9.621   7.884
 8831SOL    HW175332  16.904   9.717   7.899
 8831SOL    HW275333  16.875   9.602   7.786
 8832SOL     OW75334   5.124   6.231   1.718
 8832SOL    HW175335   5.217   6.202   1.742
 8832SOL    HW275336   5.073   6.251   1.801
 8833SOL     OW75337  11.902  10.899   7.235
 8833SOL    HW175338  11.840  10.824   7.260
 8833SOL    HW275339  11.987  10.860   7.198
 8834SOL     OW75340   9.156  15.562   7.359
 8834SOL    HW175341   9.195  15.523   7.442
 8834SOL    HW275342   9.174  15.502   7.281
 8835SOL     OW75343   2.057  12.052   8.204
 8835SOL    HW175344   2.059  12.147   8.236
 8835SOL    HW275345   2.148  12.012   8.212
 8836SOL     OW75346   9.736   3.805   0.551
 8836SOL    HW175347   9.774   3.896   0.538
 8836SOL    HW275348   9.808   3.742   0.580
 8837SOL     OW75349  14.293   4.150   7.412
 8837SOL    HW175350  14.288   4.163   7.511
 8837SOL    HW275351  14.244   4.224   7.366
 8838SOL     OW75352  10.088   5.128   6.065
 8838SOL    HW175353  10.049   5.205   6.013
 8838SOL    HW275354  10.015   5.082   6.116
 8839SOL     OW75355   9.809   7.579   7.999
 8839SOL    HW175356   9.817   7.522   8.081
 8839SOL    HW275357   9.899   7.586   7.955
 8840SOL     OW75358   9.585  10.326   0.345
 8840SOL    HW175359   9.638  10.243   0.362
 8840SOL    HW275360   9.574  10.377   0.430
 8841SOL     OW75361   0.593   4.529   1.549
 8841SOL    HW175362   0.540   4.445   1.557
 8841SOL    HW275363   0.533   4.608   1.562
 8842SOL     OW75364   3.075  11.872   8.222
 8842SOL    HW175365   3.046  11.780   8.246
 8842SOL    HW275366   3.117  11.871   8.131
 8843SOL     OW75367   3.782   1.002   7.001
 8843SOL    HW175368   3.870   1.038   6.969
 8843SOL    HW275369   3.708   1.041   6.947
 8844SOL     OW75370   8.366   3.509   1.007
 8844SOL    HW175371   8.412   3.464   0.930
 8844SOL    HW275372   8.395   3.604   1.012
 8845SOL     OW75373  16.399   6.397   8.318
 8845SOL    HW175374  16.345   6.479   8.298
 8845SOL    HW275375  16.376   6.326   8.252
 8846SOL     OW75376  10.213  12.524   8.189
 8846SOL    HW175377  10.271  12.591   8.236
 8846SOL    HW275378  10.210  12.440   8.243
 8847SOL     OW75379   5.847  15.822   1.780
 8847SOL    HW175380   5.831  15.736   1.731
 8847SOL    HW275381   5.927  15.811   1.839
 8848SOL     OW75382   9.438   5.362   7.044
 8848SOL    HW175383   9.403   5.425   6.975
 8848SOL    HW275384   9.418   5.398   7.135
 8849SOL     OW75385   7.041   8.863   7.415
 8849SOL    HW175386   7.100   8.935   7.378
 8849SOL    HW275387   6.958   8.857   7.360
 8850SOL     OW75388   6.311   4.687   2.368
 8850SOL    HW175389   6.296   4.618   2.439
 8850SOL    HW275390   6.247   4.672   2.293
 8851SOL     OW75391   6.618  12.261   6.413
 8851SOL    HW175392   6.557  12.200   6.462
 8851SOL    HW275393   6.645  12.219   6.326
 8852SOL     OW75394   9.280  12.287   0.896
 8852SOL    HW175395   9.194  12.270   0.847
 8852SOL    HW275396   9.355  12.297   0.831
 8853SOL     OW75397   2.217  12.372   8.346
 8853SOL    HW175398   2.219  12.285   8.395
 8853SOL    HW275399   2.135  12.423   8.374
 8854SOL     OW75400   9.517  14.615   1.142
 8854SOL    HW175401   9.463  14.616   1.226
 8854SOL    HW275402   9.521  14.521   1.106
 8855SOL     OW75403   8.938   6.366   1.897
 8855SOL    HW175404   8.891   6.289   1.939
 8855SOL    HW275405   9.030   6.338   1.868
 8856SOL     OW75406  15.710  13.790   0.601
 8856SOL    HW175407  15.804  13.799   0.633
 8856SOL    HW275408  15.684  13.694   0.600
 8857SOL     OW75409  13.654   3.011   0.043
 8857SOL    HW175410  13.605   2.954   0.109
 8857SOL    HW275411  13.594   3.033   8.420
 8858SOL     OW75412   4.407   0.665   8.390
 8858SOL    HW175413   4.358   0.588   8.347
 8858SOL    HW275414   4.426   0.644   0.031
 8859SOL     OW75415   5.084  14.125   1.870
 8859SOL    HW175416   5.150  14.199   1.886
 8859SOL    HW275417   5.029  14.111   1.952
 8860SOL     OW75418   3.848   0.871   7.427
 8860SOL    HW175419   3.846   0.840   7.332
 8860SOL    HW275420   3.907   0.951   7.434
 8861SOL     OW75421   3.590   1.376   2.592
 8861SOL    HW175422   3.575   1.402   2.688
 8861SOL    HW275423   3.508   1.331   2.557
 8862SOL     OW75424   8.778  13.116   1.467
 8862SOL    HW175425   8.875  13.137   1.483
 8862SOL    HW275426   8.767  13.017   1.456
 8863SOL     OW75427  13.007  16.787   7.593
 8863SOL    HW175428  12.948  16.833   7.526
 8863SOL    HW275429  12.959  16.782   7.681
 8864SOL     OW75430   9.071  16.686   0.109
 8864SOL    HW175431   9.166  16.672   0.136
 8864SOL    HW275432   9.061  16.666   0.011
 8865SOL     OW75433   5.907   0.662   1.731
 8865SOL    HW175434   5.862   0.694   1.648
 8865SOL    HW275435   6.000   0.631   1.709
 8866SOL     OW75436   9.283   1.164   1.339
 8866SOL    HW175437   9.325   1.130   1.255
 8866SOL    HW275438   9.296   1.263   1.346
 8867SOL     OW75439   6.466   6.521   1.656
 8867SOL    HW175440   6.482   6.545   1.560
 8867SOL    HW275441   6.546   6.547   1.710
 8868SOL     OW75442  13.917  10.577   7.352
 8868SOL    HW175443  13.983  10.627   7.409
 8868SOL    HW275444  13.957  10.558   7.263
 8869SOL     OW75445   0.606  11.603   7.094
 8869SOL    HW175446   0.632  11.533   7.028
 8869SOL    HW275447   0.539  11.665   7.053
 8870SOL     OW75448   3.837   7.515   0.785
 8870SOL    HW175449   3.916   7.506   0.724
 8870SOL    HW275450   3.859   7.579   0.858
 8871SOL     OW75451  16.156  15.851   6.248
 8871SOL    HW175452  16.156  15.785   6.323
 8871SOL    HW275453  16.062  15.868   6.218
 8872SOL     OW75454   8.295  14.157   0.680
 8872SOL    HW175455   8.280  14.075   0.624
 8872SOL    HW275456   8.267  14.238   0.628
 8873SOL     OW75457  13.652   5.795   1.340
 8873SOL    HW175458  13.610   5.763   1.255
 8873SOL    HW275459  13.580   5.816   1.406
 8874SOL     OW75460  14.817  15.071   7.973
 8874SOL    HW175461  14.912  15.038   7.980
 8874SOL    HW275462  14.755  15.005   8.015
 8875SOL     OW75463  15.073   6.947   1.117
 8875SOL    HW175464  15.027   6.969   1.204
 8875SOL    HW275465  15.165   6.914   1.136
 8876SOL     OW75466  11.144  16.772   0.489
 8876SOL    HW175467  11.170  16.791   0.395
 8876SOL    HW275468  11.080  16.842   0.521
 8877SOL     OW75469  15.826  14.803   0.738
 8877SOL    HW175470  15.817  14.891   0.691
 8877SOL    HW275471  15.782  14.808   0.827
 8878SOL     OW75472   9.233   8.619   0.292
 8878SOL    HW175473   9.173   8.540   0.285
 8878SOL    HW275474   9.275   8.622   0.383
 8879SOL     OW75475  11.709   0.473   1.217
 8879SOL    HW175476  11.770   0.393   1.212
 8879SOL    HW275477  11.741   0.534   1.290
 8880SOL     OW75478   1.057  13.090   7.473
 8880SOL    HW175479   1.012  13.178   7.463
 8880SOL    HW275480   1.009  13.021   7.419
 8881SOL     OW75481   3.701  10.891   7.912
 8881SOL    HW175482   3.681  10.939   7.827
 8881SOL    HW275483   3.684  10.794   7.900
 8882SOL     OW75484  15.639   8.870   1.721
 8882SOL    HW175485  15.654   8.819   1.806
 8882SOL    HW275486  15.692   8.827   1.647
 8883SOL     OW75487   3.389  12.427   6.873
 8883SOL    HW175488   3.406  12.381   6.960
 8883SOL    HW275489   3.290  12.436   6.859
 8884SOL     OW75490   5.934   0.978   1.460
 8884SOL    HW175491   6.013   0.982   1.399
 8884SOL    HW275492   5.876   1.058   1.445
 8885SOL     OW75493  13.740   5.120   6.705
 8885SOL    HW175494  13.778   5.085   6.790
 8885SOL    HW275495  13.647   5.086   6.693
 8886SOL     OW75496   7.449   5.996   1.600
 8886SOL    HW175497   7.544   5.963   1.602
 8886SOL    HW275498   7.429   6.034   1.510
 8887SOL     OW75499   8.768   4.095   1.219
 8887SOL    HW175500   8.681   4.125   1.179
 8887SOL    HW275501   8.798   4.012   1.174
 8888SOL     OW75502  15.396   7.476   7.937
 8888SOL    HW175503  15.359   7.474   7.844
 8888SOL    HW275504  15.322   7.490   8.003
 8889SOL     OW75505   6.849  16.072   6.747
 8889SOL    HW175506   6.784  16.146   6.729
 8889SOL    HW275507   6.813  15.986   6.709
 8890SOL     OW75508   2.183  10.033   1.642
 8890SOL    HW175509   2.114  10.063   1.576
 8890SOL    HW275510   2.183  10.095   1.721
 8891SOL     OW75511   1.602   7.379   0.887
 8891SOL    HW175512   1.690   7.372   0.933
 8891SOL    HW275513   1.530   7.396   0.954
 8892SOL     OW75514   7.354   9.982   0.945
 8892SOL    HW175515   7.369  10.037   0.862
 8892SOL    HW275516   7.426   9.912   0.952
 8893SOL     OW75517   9.504   8.260   7.170
 8893SOL    HW175518   9.434   8.243   7.239
 8893SOL    HW275519   9.549   8.347   7.188
 8894SOL     OW75520  16.552   7.101   8.078
 8894SOL    HW175521  16.573   7.058   8.165
 8894SOL    HW275522  16.517   7.032   8.014
 8895SOL     OW75523  14.497   5.460   0.847
 8895SOL    HW175524  14.509   5.557   0.830
 8895SOL    HW275525  14.465   5.415   0.764
 8896SOL     OW75526  11.969  14.275   8.443
 8896SOL    HW175527  11.873  14.260   8.421
 8896SOL    HW275528  11.978  14.296   0.086
 8897SOL     OW75529  16.685  16.746   1.661
 8897SOL    HW175530  16.712  16.835   1.697
 8897SOL    HW275531  16.743  16.674   1.700
 8898SOL     OW75532   9.653   8.494   7.201
 8898SOL    HW175533   9.665   8.518   7.104
 8898SOL    HW275534   9.736   8.451   7.235
 8899SOL     OW75535  11.129  14.175   1.504
 8899SOL    HW175536  11.128  14.084   1.463
 8899SOL    HW275537  11.131  14.166   1.604
 8900SOL     OW75538   4.195  14.206   7.129
 8900SOL    HW175539   4.195  14.289   7.184
 8900SOL    HW275540   4.104  14.165   7.131
 8901SOL     OW75541   2.721   6.885   7.177
 8901SOL    HW175542   2.639   6.835   7.148
 8901SOL    HW275543   2.775   6.910   7.096
 8902SOL     OW75544  15.590   2.407   7.303
 8902SOL    HW175545  15.557   2.339   7.238
 8902SOL    HW275546  15.688   2.422   7.289
 8903SOL     OW75547   3.114  14.638   7.950
 8903SOL    HW175548   3.142  14.617   7.856
 8903SOL    HW275549   3.162  14.719   7.982
 8904SOL     OW75550  11.155  14.485   6.253
 8904SOL    HW175551  11.131  14.565   6.199
 8904SOL    HW275552  11.076  14.423   6.258
 8905SOL     OW75553   7.804   2.283   7.474
 8905SOL    HW175554   7.816   2.243   7.384
 8905SOL    HW275555   7.878   2.347   7.493
 8906SOL     OW75556   1.602   4.472   7.850
 8906SOL    HW175557   1.545   4.553   7.839
 8906SOL    HW275558   1.671   4.469   7.778
 8907SOL     OW75559  13.269  14.398   1.962
 8907SOL    HW175560  13.251  14.351   2.049
 8907SOL    HW275561  13.271  14.497   1.977
 8908SOL     OW75562  13.087   9.145   0.751
 8908SOL    HW175563  13.089   9.071   0.684
 8908SOL    HW275564  13.175   9.150   0.798
 8909SOL     OW75565   8.534   0.474   6.373
 8909SOL    HW175566   8.627   0.485   6.408
 8909SOL    HW275567   8.537   0.442   6.279
 8910SOL     OW75568  14.388   3.309   7.764
 8910SOL    HW175569  14.436   3.370   7.701
 8910SOL    HW275570  14.437   3.304   7.851
 8911SOL     OW75571  15.821   3.757   0.739
 8911SOL    HW175572  15.886   3.776   0.812
 8911SOL    HW275573  15.834   3.662   0.708
 8912SOL     OW75574  15.598  14.737   7.527
 8912SOL    HW175575  15.499  14.750   7.530
 8912SOL    HW275576  15.628  14.726   7.432
 8913SOL     OW75577   3.867   8.628   2.397
 8913SOL    HW175578   3.786   8.622   2.454
 8913SOL    HW275579   3.940   8.674   2.448
 8914SOL     OW75580   9.512   3.771   0.700
 8914SOL    HW175581   9.437   3.786   0.636
 8914SOL    HW275582   9.599   3.784   0.652
 8915SOL     OW75583  12.582   3.844   0.038
 8915SOL    HW175584  12.604   3.766   8.433
 8915SOL    HW275585  12.645   3.846   0.115
 8916SOL     OW75586  14.327  15.699   2.257
 8916SOL    HW175587  14.269  15.685   2.337
 8916SOL    HW275588  14.413  15.741   2.286
 8917SOL     OW75589   2.361  11.110   0.621
 8917SOL    HW175590   2.418  11.069   0.692
 8917SOL    HW275591   2.380  11.208   0.615
 8918SOL     OW75592   3.111  15.951   2.271
 8918SOL    HW175593   3.141  16.028   2.215
 8918SOL    HW275594   3.168  15.944   2.353
 8919SOL     OW75595   8.161   5.402   1.152
 8919SOL    HW175596   8.102   5.476   1.121
 8919SOL    HW275597   8.145   5.320   1.096
 8920SOL     OW75598  11.324   1.987   2.026
 8920SOL    HW175599  11.240   1.953   2.069
 8920SOL    HW275600  11.390   1.911   2.019
 8921SOL     OW75601  12.033  12.196   8.309
 8921SOL    HW175602  12.041  12.185   8.210
 8921SOL    HW275603  11.941  12.228   8.332
 8922SOL     OW75604   3.260   8.233   7.098
 8922SOL    HW175605   3.341   8.180   7.074
 8922SOL    HW275606   3.248   8.307   7.032
 8923SOL     OW75607   8.978  14.577   7.645
 8923SOL    HW175608   8.900  14.627   7.608
 8923SOL    HW275609   9.053  14.641   7.662
 8924SOL     OW75610  16.582  15.894   7.702
 8924SOL    HW175611  16.567  15.965   7.770
 8924SOL    HW275612  16.521  15.817   7.720
 8925SOL     OW75613   3.884  12.715   1.072
 8925SOL    HW175614   3.952  12.647   1.041
 8925SOL    HW275615   3.897  12.732   1.170
 8926SOL     OW75616  15.614   6.749   7.612
 8926SOL    HW175617  15.627   6.845   7.636
 8926SOL    HW275618  15.696   6.714   7.567
 8927SOL     OW75619   5.282   4.698   7.280
 8927SOL    HW175620   5.188   4.696   7.312
 8927SOL    HW275621   5.307   4.791   7.254
 8928SOL     OW75622   7.477   8.254   0.830
 8928SOL    HW175623   7.421   8.171   0.839
 8928SOL    HW275624   7.446   8.307   0.751
 8929SOL     OW75625  14.340   1.927   7.628
 8929SOL    HW175626  14.296   1.842   7.655
 8929SOL    HW275627  14.285   2.005   7.659
 8930SOL     OW75628   5.437   2.305   6.605
 8930SOL    HW175629   5.415   2.231   6.541
 8930SOL    HW275630   5.523   2.348   6.578
 8931SOL     OW75631   1.750   0.536   8.436
 8931SOL    HW175632   1.796   0.527   8.348
 8931SOL    HW275633   1.818   0.528   0.056
 8932SOL     OW75634  16.487   3.179   7.728
 8932SOL    HW175635  16.527   3.238   7.659
 8932SOL    HW275636  16.461   3.091   7.687
 8933SOL     OW75637   4.304  13.636   7.129
 8933SOL    HW175638   4.218  13.613   7.083
 8933SOL    HW275639   4.338  13.556   7.178
 8934SOL     OW75640   5.857  10.307   0.162
 8934SOL    HW175641   5.811  10.226   0.125
 8934SOL    HW275642   5.802  10.388   0.141
 8935SOL     OW75643  11.986   8.460   6.623
 8935SOL    HW175644  12.073   8.454   6.574
 8935SOL    HW275645  11.926   8.525   6.576
 8936SOL     OW75646   8.700   3.824   6.476
 8936SOL    HW175647   8.731   3.882   6.401
 8936SOL    HW275648   8.732   3.861   6.563
 8937SOL     OW75649   6.014  10.906   7.423
 8937SOL    HW175650   5.987  10.960   7.344
 8937SOL    HW275651   5.944  10.838   7.442
 8938SOL     OW75652   8.185  13.867   1.794
 8938SOL    HW175653   8.246  13.901   1.723
 8938SOL    HW275654   8.106  13.822   1.753
 8939SOL     OW75655  10.629   3.770   1.981
 8939SOL    HW175656  10.610   3.712   2.059
 8939SOL    HW275657  10.612   3.866   2.006
 8940SOL     OW75658  13.776  13.640   1.334
 8940SOL    HW175659  13.822  13.678   1.414
 8940SOL    HW275660  13.708  13.706   1.301
 8941SOL     OW75661   4.175  15.409   2.017
 8941SOL    HW175662   4.250  15.473   2.032
 8941SOL    HW275663   4.193  15.323   2.066
 8942SOL     OW75664  15.161   2.283   6.084
 8942SOL    HW175665  15.065   2.293   6.110
 8942SOL    HW275666  15.216   2.266   6.166
 8943SOL     OW75667   2.071  14.868   7.812
 8943SOL    HW175668   1.985  14.915   7.829
 8943SOL    HW275669   2.053  14.773   7.786
 8944SOL     OW75670   7.611   3.407   7.407
 8944SOL    HW175671   7.618   3.464   7.325
 8944SOL    HW275672   7.599   3.465   7.487
 8945SOL     OW75673   4.091   0.389   6.856
 8945SOL    HW175674   4.166   0.326   6.875
 8945SOL    HW275675   4.004   0.345   6.877
 8946SOL     OW75676  13.138   6.811   1.287
 8946SOL    HW175677  13.233   6.819   1.257
 8946SOL    HW275678  13.082   6.780   1.210
 8947SOL     OW75679  15.200  13.757   7.024
 8947SOL    HW175680  15.130  13.697   6.986
 8947SOL    HW275681  15.291  13.727   6.993
 8948SOL     OW75682   8.824  11.912   2.001
 8948SOL    HW175683   8.878  11.996   2.006
 8948SOL    HW275684   8.746  11.919   2.064
 8949SOL     OW75685   0.645   5.727   7.533
 8949SOL    HW175686   0.634   5.656   7.464
 8949SOL    HW275687   0.603   5.812   7.500
 8950SOL     OW75688   6.319  10.508   1.603
 8950SOL    HW175689   6.263  10.527   1.684
 8950SOL    HW275690   6.332  10.593   1.551
 8951SOL     OW75691   0.424  11.561   8.059
 8951SOL    HW175692   0.347  11.615   8.023
 8951SOL    HW275693   0.485  11.621   8.112
 8952SOL     OW75694  14.338   6.745   7.771
 8952SOL    HW175695  14.408   6.676   7.786
 8952SOL    HW275696  14.378   6.824   7.724
 8953SOL     OW75697  16.711   9.724   7.505
 8953SOL    HW175698  16.622   9.714   7.549
 8953SOL    HW275699  16.707   9.681   7.414
 8954SOL     OW75700   8.023   7.126   6.903
 8954SOL    HW175701   8.111   7.149   6.863
 8954SOL    HW275702   8.021   7.029   6.929
 8955SOL     OW75703  13.226   0.077   6.634
 8955SOL    HW175704  13.268   0.007   6.692
 8955SOL    HW275705  13.239   0.167   6.676
 8956SOL     OW75706  10.132   9.939   0.661
 8956SOL    HW175707  10.083   9.904   0.741
 8956SOL    HW275708  10.137   9.867   0.591
 8957SOL     OW75709   5.904   0.410   8.309
 8957SOL    HW175710   5.920   0.456   8.396
 8957SOL    HW275711   5.883   0.478   8.239
 8958SOL     OW75712  12.818  14.060   2.044
 8958SOL    HW175713  12.909  14.047   2.084
 8958SOL    HW275714  12.759  14.109   2.108
 8959SOL     OW75715   2.451   3.648   1.082
 8959SOL    HW175716   2.437   3.576   1.014
 8959SOL    HW275717   2.549   3.660   1.098
 8960SOL     OW75718   3.967   5.059   0.758
 8960SOL    HW175719   3.897   4.989   0.747
 8960SOL    HW275720   3.929   5.135   0.811
 8961SOL     OW75721   0.798   4.454   7.656
 8961SOL    HW175722   0.756   4.376   7.703
 8961SOL    HW275723   0.835   4.518   7.724
 8962SOL     OW75724  13.415  12.945   0.097
 8962SOL    HW175725  13.454  12.855   0.117
 8962SOL    HW275726  13.440  12.973   0.004
 8963SOL     OW75727   7.404   7.727   0.281
 8963SOL    HW175728   7.414   7.632   0.312
 8963SOL    HW275729   7.349   7.777   0.347
 8964SOL     OW75730   8.444  13.012   6.483
 8964SOL    HW175731   8.484  13.003   6.574
 8964SOL    HW275732   8.418  12.922   6.449
 8965SOL     OW75733  12.083   5.330   7.891
 8965SOL    HW175734  12.062   5.234   7.872
 8965SOL    HW275735  12.117   5.338   7.985
 8966SOL     OW75736   0.805  14.629   2.043
 8966SOL    HW175737   0.902  14.648   2.030
 8966SOL    HW275738   0.783  14.630   2.140
 8967SOL     OW75739  16.563  12.074   1.029
 8967SOL    HW175740  16.496  12.137   0.989
 8967SOL    HW275741  16.628  12.126   1.085
 8968SOL     OW75742   5.127   2.486   8.160
 8968SOL    HW175743   5.175   2.524   8.238
 8968SOL    HW275744   5.120   2.387   8.170
 8969SOL     OW75745   5.788  11.570   7.281
 8969SOL    HW175746   5.711  11.593   7.340
 8969SOL    HW275747   5.771  11.606   7.189
 8970SOL     OW75748   3.870  16.659   2.307
 8970SOL    HW175749   3.964  16.684   2.284
 8970SOL    HW275750   3.863  16.647   2.406
 8971SOL     OW75751   7.468   1.822   7.067
 8971SOL    HW175752   7.451   1.744   7.127
 8971SOL    HW275753   7.500   1.789   6.978
 8972SOL     OW75754   6.892  13.315   1.587
 8972SOL    HW175755   6.954  13.392   1.574
 8972SOL    HW275756   6.847  13.322   1.676
 8973SOL     OW75757  16.705   1.821   7.657
 8973SOL    HW175758  16.672   1.897   7.713
 8973SOL    HW275759  16.747   1.857   7.573
 8974SOL     OW75760  15.417   6.235   6.621
 8974SOL    HW175761  15.453   6.226   6.714
 8974SOL    HW275762  15.408   6.144   6.580
 8975SOL     OW75763   6.427  16.229   6.567
 8975SOL    HW175764   6.418  16.313   6.514
 8975SOL    HW275765   6.373  16.156   6.523
 8976SOL     OW75766   1.106  13.280   8.085
 8976SOL    HW175767   1.132  13.231   8.001
 8976SOL    HW275768   1.153  13.238   8.163
 8977SOL     OW75769   0.588  13.084   0.388
 8977SOL    HW175770   0.633  13.049   0.470
 8977SOL    HW275771   0.543  13.171   0.409
 8978SOL     OW75772   2.468   6.444   1.451
 8978SOL    HW175773   2.529   6.378   1.495
 8978SOL    HW275774   2.438   6.408   1.363
 8979SOL     OW75775  12.173  10.364   8.044
 8979SOL    HW175776  12.073  10.369   8.041
 8979SOL    HW275777  12.204  10.280   8.001
 8980SOL     OW75778   9.810  13.310   0.494
 8980SOL    HW175779   9.895  13.357   0.518
 8980SOL    HW275780   9.761  13.362   0.425
 8981SOL     OW75781   7.113   2.268   6.539
 8981SOL    HW175782   7.064   2.207   6.477
 8981SOL    HW275783   7.085   2.250   6.633
 8982SOL     OW75784   3.946   5.854   6.871
 8982SOL    HW175785   3.953   5.900   6.959
 8982SOL    HW275786   4.014   5.781   6.865
 8983SOL     OW75787   1.633   6.817   1.716
 8983SOL    HW175788   1.583   6.862   1.789
 8983SOL    HW275789   1.684   6.739   1.753
 8984SOL     OW75790  13.344  11.145   6.597
 8984SOL    HW175791  13.382  11.114   6.510
 8984SOL    HW275792  13.321  11.242   6.591
 8985SOL     OW75793   3.276  11.163   7.115
 8985SOL    HW175794   3.254  11.231   7.045
 8985SOL    HW275795   3.371  11.132   7.103
 8986SOL     OW75796  14.246  16.503   1.464
 8986SOL    HW175797  14.307  16.567   1.511
 8986SOL    HW275798  14.157  16.545   1.450
 8987SOL     OW75799   8.912   9.693   7.365
 8987SOL    HW175800   8.885   9.789   7.366
 8987SOL    HW275801   8.830   9.635   7.370
 8988SOL     OW75802   8.154   1.271   1.446
 8988SOL    HW175803   8.085   1.201   1.466
 8988SOL    HW275804   8.113   1.362   1.453
 8989SOL     OW75805  14.766   7.045   7.607
 8989SOL    HW175806  14.674   7.006   7.611
 8989SOL    HW275807  14.819   7.014   7.686
 8990SOL     OW75808  13.338  10.397   6.315
 8990SOL    HW175809  13.280  10.340   6.256
 8990SOL    HW275810  13.429  10.404   6.275
 8991SOL     OW75811   9.803  14.396   8.101
 8991SOL    HW175812   9.740  14.340   8.047
 8991SOL    HW275813   9.754  14.472   8.142
 8992SOL     OW75814   8.061   0.583   7.440
 8992SOL    HW175815   8.083   0.487   7.459
 8992SOL    HW275816   8.123   0.642   7.493
 8993SOL     OW75817   3.493   6.299   8.401
 8993SOL    HW175818   3.453   6.335   8.317
 8993SOL    HW275819   3.497   6.199   8.396
 8994SOL     OW75820   5.216   8.886   2.146
 8994SOL    HW175821   5.239   8.896   2.050
 8994SOL    HW275822   5.209   8.977   2.188
 8995SOL     OW75823  14.883   1.157   0.285
 8995SOL    HW175824  14.906   1.076   0.232
 8995SOL    HW275825  14.840   1.225   0.226
 8996SOL     OW75826   8.048  15.617   1.559
 8996SOL    HW175827   8.014  15.525   1.540
 8996SOL    HW275828   7.996  15.684   1.506
 8997SOL     OW75829   9.139  12.121   0.544
 8997SOL    HW175830   9.086  12.167   0.616
 8997SOL    HW275831   9.193  12.189   0.495
 8998SOL     OW75832   8.165  12.170   1.289
 8998SOL    HW175833   8.189  12.263   1.262
 8998SOL    HW275834   8.217  12.104   1.235
 8999SOL     OW75835   4.094   3.523   0.077
 8999SOL    HW175836   4.073   3.427   0.063
 8999SOL    HW275837   4.055   3.578   0.003
 9000SOL     OW75838   3.817   9.940   0.379
 9000SOL    HW175839   3.774   9.960   0.291
 9000SOL    HW275840   3.816  10.022   0.436
 9001SOL     OW75841  11.274  12.837   7.978
 9001SOL    HW175842  11.241  12.755   7.931
 9001SOL    HW275843  11.364  12.861   7.943
 9002SOL     OW75844   7.420   9.437   0.233
 9002SOL    HW175845   7.361   9.470   0.306
 9002SOL    HW275846   7.364   9.389   0.164
 9003SOL     OW75847   5.945   5.136   6.402
 9003SOL    HW175848   5.891   5.152   6.319
 9003SOL    HW275849   5.999   5.218   6.422
 9004SOL     OW75850  11.865   2.473   5.868
 9004SOL    HW175851  11.899   2.540   5.802
 9004SOL    HW275852  11.789   2.422   5.827
 9005SOL     OW75853  14.717  15.743   0.422
 9005SOL    HW175854  14.696  15.718   0.327
 9005SOL    HW275855  14.804  15.793   0.425
 9006SOL     OW75856   0.056   5.464   7.449
 9006SOL    HW175857  16.963   5.474   7.513
 9006SOL    HW275858   0.135   5.514   7.484
 9007SOL     OW75859  13.143   3.597   8.042
 9007SOL    HW175860  13.143   3.635   8.134
 9007SOL    HW275861  13.134   3.672   7.976
 9008SOL     OW75862   2.470   6.123   0.977
 9008SOL    HW175863   2.486   6.186   0.901
 9008SOL    HW275864   2.376   6.088   0.972
 9009SOL     OW75865   3.384   3.617   8.285
 9009SOL    HW175866   3.318   3.666   8.341
 9009SOL    HW275867   3.436   3.682   8.230
 9010SOL     OW75868  13.489   2.068   7.919
 9010SOL    HW175869  13.571   2.088   7.973
 9010SOL    HW275870  13.512   2.071   7.822
 9011SOL     OW75871   4.264  11.213   7.689
 9011SOL    HW175872   4.289  11.166   7.774
 9011SOL    HW275873   4.327  11.188   7.617
 9012SOL     OW75874   2.859   3.619   2.167
 9012SOL    HW175875   2.861   3.710   2.126
 9012SOL    HW275876   2.815   3.624   2.257
 9013SOL     OW75877   9.951   0.357   0.733
 9013SOL    HW175878   9.892   0.416   0.678
 9013SOL    HW275879   9.926   0.366   0.830
 9014SOL     OW75880   0.817  16.151   0.512
 9014SOL    HW175881   0.761  16.166   0.431
 9014SOL    HW275882   0.900  16.101   0.487
 9015SOL     OW75883  11.344   1.984   5.740
 9015SOL    HW175884  11.288   1.966   5.659
 9015SOL    HW275885  11.368   1.898   5.784
 9016SOL     OW75886   8.482   3.879   0.726
 9016SOL    HW175887   8.383   3.891   0.735
 9016SOL    HW275888   8.529   3.959   0.764
 9017SOL     OW75889  13.727   7.503   8.451
 9017SOL    HW175890  13.826   7.505   8.435
 9017SOL    HW275891  13.706   7.555   0.080
 9018SOL     OW75892   5.710   4.658   6.716
 9018SOL    HW175893   5.729   4.563   6.689
 9018SOL    HW275894   5.767   4.682   6.794
 9019SOL     OW75895   3.177  11.721   7.760
 9019SOL    HW175896   3.185  11.778   7.842
 9019SOL    HW275897   3.263  11.671   7.746
 9020SOL     OW75898  15.008   8.677   0.026
 9020SOL    HW175899  15.092   8.731   0.035
 9020SOL    HW275900  15.020   8.588   0.069
 9021SOL     OW75901  15.329   1.914   8.449
 9021SOL    HW175902  15.374   1.888   8.363
 9021SOL    HW275903  15.305   1.832   0.046
 9022SOL     OW75904  11.777   5.099   6.939
 9022SOL    HW175905  11.825   5.183   6.967
 9022SOL    HW275906  11.793   5.083   6.842
 9023SOL     OW75907   1.982   8.016   6.841
 9023SOL    HW175908   2.001   8.049   6.748
 9023SOL    HW275909   1.944   8.091   6.895
 9024SOL     OW75910  12.507  10.908   0.035
 9024SOL    HW175911  12.432  10.851   0.068
 9024SOL    HW275912  12.519  10.986   0.097
 9025SOL     OW75913   6.730  16.610   7.763
 9025SOL    HW175914   6.664  16.685   7.753
 9025SOL    HW275915   6.683  16.523   7.747
 9026SOL     OW75916   9.953  13.921   0.296
 9026SOL    HW175917  10.002  13.869   0.227
 9026SOL    HW275918   9.856  13.925   0.274
 9027SOL     OW75919  12.025   0.879   7.631
 9027SOL    HW175920  11.993   0.964   7.670
 9027SOL    HW275921  11.948   0.817   7.617
 9028SOL     OW75922   5.035   8.423   0.524
 9028SOL    HW175923   5.076   8.344   0.479
 9028SOL    HW275924   4.980   8.474   0.458
 9029SOL     OW75925   7.224   4.857   0.426
 9029SOL    HW175926   7.226   4.799   0.344
 9029SOL    HW275927   7.248   4.951   0.401
 9030SOL     OW75928  15.300  12.278   7.691
 9030SOL    HW175929  15.386  12.330   7.696
 9030SOL    HW275930  15.318  12.189   7.650
 9031SOL     OW75931   1.303   9.250   7.557
 9031SOL    HW175932   1.356   9.334   7.569
 9031SOL    HW275933   1.284   9.209   7.646
 9032SOL     OW75934   9.288  13.137   1.425
 9032SOL    HW175935   9.369  13.107   1.374
 9032SOL    HW275936   9.315  13.160   1.518
 9033SOL     OW75937  10.408   7.429   8.425
 9033SOL    HW175938  10.392   7.377   8.341
 9033SOL    HW275939  10.501   7.411   0.004
 9034SOL     OW75940  14.926  11.631   0.536
 9034SOL    HW175941  14.879  11.647   0.450
 9034SOL    HW275942  15.022  11.658   0.528
 9035SOL     OW75943  11.503   5.675   7.121
 9035SOL    HW175944  11.454   5.650   7.205
 9035SOL    HW275945  11.589   5.720   7.144
 9036SOL     OW75946  16.722   8.333   7.623
 9036SOL    HW175947  16.623   8.319   7.623
 9036SOL    HW275948  16.766   8.252   7.661
 9037SOL     OW75949  13.410   7.584   7.996
 9037SOL    HW175950  13.374   7.635   7.919
 9037SOL    HW275951  13.508   7.568   7.983
 9038SOL     OW75952   9.159   2.532   6.918
 9038SOL    HW175953   9.213   2.593   6.976
 9038SOL    HW275954   9.191   2.539   6.823
 9039SOL     OW75955   8.560   6.420   6.399
 9039SOL    HW175956   8.621   6.496   6.377
 9039SOL    HW275957   8.472   6.434   6.352
 9040SOL     OW75958   2.067   0.370   0.479
 9040SOL    HW175959   2.019   0.344   0.563
 9040SOL    HW275960   2.058   0.468   0.464
 9041SOL     OW75961   1.419   3.866   2.022
 9041SOL    HW175962   1.446   3.770   2.012
 9041SOL    HW275963   1.497   3.920   2.054
 9042SOL     OW75964   6.699   2.663   0.771
 9042SOL    HW175965   6.788   2.621   0.754
 9042SOL    HW275966   6.669   2.711   0.689
 9043SOL     OW75967  14.518  13.428   8.100
 9043SOL    HW175968  14.515  13.387   8.192
 9043SOL    HW275969  14.612  13.453   8.078
 9044SOL     OW75970  10.989   1.441   0.179
 9044SOL    HW175971  10.980   1.378   0.256
 9044SOL    HW275972  11.057   1.406   0.115
 9045SOL     OW75973   4.603   8.127   1.139
 9045SOL    HW175974   4.659   8.161   1.064
 9045SOL    HW275975   4.555   8.044   1.109
 9046SOL     OW75976   8.917   8.106   6.980
 9046SOL    HW175977   8.895   8.030   6.918
 9046SOL    HW275978   9.005   8.146   6.952
 9047SOL     OW75979   2.908  15.251   8.405
 9047SOL    HW175980   2.898  15.159   8.368
 9047SOL    HW275981   2.884  15.251   0.048
 9048SOL     OW75982  16.083   6.744   0.354
 9048SOL    HW175983  16.174   6.703   0.358
 9048SOL    HW275984  16.088   6.840   0.380
 9049SOL     OW75985   6.500   4.343   7.657
 9049SOL    HW175986   6.541   4.415   7.713
 9049SOL    HW275987   6.564   4.267   7.648
 9050SOL     OW75988   9.695  16.451   1.639
 9050SOL    HW175989   9.754  16.399   1.701
 9050SOL    HW275990   9.684  16.544   1.674
 9051SOL     OW75991  13.389  14.605   1.051
 9051SOL    HW175992  13.372  14.701   1.072
 9051SOL    HW275993  13.477  14.595   1.006
 9052SOL     OW75994   9.294   7.120   0.341
 9052SOL    HW175995   9.294   7.021   0.346
 9052SOL    HW275996   9.379   7.156   0.380
 9053SOL     OW75997  15.510   7.912   6.689
 9053SOL    HW175998  15.607   7.909   6.663
 9053SOL    HW275999  15.469   7.822   6.676
 9054SOL     OW76000   7.521   7.651   0.819
 9054SOL    HW176001   7.431   7.617   0.845
 9054SOL    HW276002   7.512   7.733   0.763
 9055SOL     OW76003   0.845   8.742   0.514
 9055SOL    HW176004   0.758   8.779   0.546
 9055SOL    HW276005   0.916   8.762   0.582
 9056SOL     OW76006   7.568   4.797   7.334
 9056SOL    HW176007   7.665   4.785   7.354
 9056SOL    HW276008   7.517   4.801   7.420
 9057SOL     OW76009  13.613   6.851   6.445
 9057SOL    HW176010  13.614   6.927   6.380
 9057SOL    HW276011  13.696   6.796   6.434
 9058SOL     OW76012   8.285   2.228   7.222
 9058SOL    HW176013   8.237   2.214   7.309
 9058SOL    HW276014   8.352   2.301   7.232
 9059SOL     OW76015  12.396  10.167   6.604
 9059SOL    HW176016  12.373  10.141   6.698
 9059SOL    HW276017  12.430  10.261   6.603
 9060SOL     OW76018  10.687   6.531   6.461
 9060SOL    HW176019  10.648   6.622   6.448
 9060SOL    HW276020  10.763   6.518   6.397
 9061SOL     OW76021  11.729  16.084   8.411
 9061SOL    HW176022  11.701  16.099   0.051
 9061SOL    HW276023  11.749  15.987   8.396
 9062SOL     OW76024  14.624   5.957   1.561
 9062SOL    HW176025  14.577   5.941   1.474
 9062SOL    HW276026  14.581   5.903   1.633
 9063SOL     OW76027   6.008  10.084   0.760
 9063SOL    HW176028   6.017  10.076   0.660
 9063SOL    HW276029   5.974  10.175   0.783
 9064SOL     OW76030  12.370   8.816   0.348
 9064SOL    HW176031  12.435   8.761   0.400
 9064SOL    HW276032  12.378   8.912   0.375
 9065SOL     OW76033   7.798  15.470   1.338
 9065SOL    HW176034   7.879  15.498   1.287
 9065SOL    HW276035   7.725  15.537   1.326
 9066SOL     OW76036   8.526   1.816   7.095
 9066SOL    HW176037   8.449   1.866   7.134
 9066SOL    HW276038   8.606   1.876   7.089
 9067SOL     OW76039   0.201   1.651   1.971
 9067SOL    HW176040   0.114   1.699   1.966
 9067SOL    HW276041   0.187   1.557   2.004
 9068SOL     OW76042  13.453  14.570   7.834
 9068SOL    HW176043  13.357  14.545   7.831
 9068SOL    HW276044  13.463  14.666   7.806
 9069SOL     OW76045   4.667   3.184   7.039
 9069SOL    HW176046   4.632   3.098   7.078
 9069SOL    HW276047   4.644   3.188   6.941
 9070SOL     OW76048   4.932  15.063   0.490
 9070SOL    HW176049   4.953  15.155   0.522
 9070SOL    HW276050   4.903  15.066   0.394
 9071SOL     OW76051  10.748  15.801   8.128
 9071SOL    HW176052  10.761  15.877   8.192
 9071SOL    HW276053  10.817  15.806   8.056
 9072SOL     OW76054  16.707   5.599   0.938
 9072SOL    HW176055  16.785   5.562   0.988
 9072SOL    HW276056  16.717   5.580   0.841
 9073SOL     OW76057   3.394  12.574   7.161
 9073SOL    HW176058   3.307  12.549   7.204
 9073SOL    HW276059   3.442  12.492   7.132
 9074SOL     OW76060   0.427   0.094   0.664
 9074SOL    HW176061   0.505   0.065   0.720
 9074SOL    HW276062   0.445   0.074   0.568
 9075SOL     OW76063   0.589   1.764   1.237
 9075SOL    HW176064   0.502   1.809   1.257
 9075SOL    HW276065   0.576   1.695   1.167
 9076SOL     OW76066   0.352   2.937   6.813
 9076SOL    HW176067   0.290   2.931   6.890
 9076SOL    HW276068   0.375   2.845   6.781
 9077SOL     OW76069  14.547   5.836   6.394
 9077SOL    HW176070  14.569   5.741   6.370
 9077SOL    HW276071  14.630   5.891   6.389
 9078SOL     OW76072   5.533   8.018   7.575
 9078SOL    HW176073   5.566   7.927   7.551
 9078SOL    HW276074   5.503   8.019   7.670
 9079SOL     OW76075   3.184   0.027   1.414
 9079SOL    HW176076   3.113   0.096   1.422
 9079SOL    HW276077   3.148  16.931   1.365
 9080SOL     OW76078  14.979   1.577   1.146
 9080SOL    HW176079  14.991   1.669   1.183
 9080SOL    HW276080  14.882   1.559   1.131
 9081SOL     OW76081   0.916  10.817   7.153
 9081SOL    HW176082   0.827  10.774   7.140
 9081SOL    HW276083   0.910  10.914   7.130
 9082SOL     OW76084  10.424  15.373   0.544
 9082SOL    HW176085  10.358  15.425   0.490
 9082SOL    HW276086  10.380  15.291   0.579
 9083SOL     OW76087   6.096   2.550   7.860
 9083SOL    HW176088   6.116   2.452   7.866
 9083SOL    HW276089   6.027   2.566   7.789
 9084SOL     OW76090   2.239  16.831   7.431
 9084SOL    HW176091   2.283  16.795   7.514
 9084SOL    HW276092   2.281  16.791   7.350
 9085SOL     OW76093   7.275  13.528   1.424
 9085SOL    HW176094   7.311  13.460   1.488
 9085SOL    HW276095   7.185  13.558   1.454
 9086SOL     OW76096  13.322   1.004   1.798
 9086SOL    HW176097  13.402   0.989   1.855
 9086SOL    HW276098  13.240   1.003   1.855
 9087SOL     OW76099  14.605  13.029   0.802
 9087SOL    HW176100  14.618  12.934   0.772
 9087SOL    HW276101  14.653  13.044   0.888
 9088SOL     OW76102  13.497   3.035   0.556
 9088SOL    HW176103  13.526   2.954   0.608
 9088SOL    HW276104  13.577   3.075   0.512
 9089SOL     OW76105  15.351   3.050   6.521
 9089SOL    HW176106  15.318   3.108   6.596
 9089SOL    HW276107  15.438   3.086   6.487
 9090SOL     OW76108  11.136  10.831   7.632
 9090SOL    HW176109  11.177  10.895   7.567
 9090SOL    HW276110  11.208  10.777   7.675
 9091SOL     OW76111  12.261   8.916   7.800
 9091SOL    HW176112  12.336   8.889   7.861
 9091SOL    HW276113  12.284   9.002   7.755
 9092SOL     OW76114   8.889   5.242   6.969
 9092SOL    HW176115   8.874   5.218   6.873
 9092SOL    HW276116   8.819   5.307   6.999
 9093SOL     OW76117   4.357  10.966   7.121
 9093SOL    HW176118   4.416  10.947   7.200
 9093SOL    HW276119   4.262  10.968   7.150
 9094SOL     OW76120   3.102  13.119   7.068
 9094SOL    HW176121   3.140  13.211   7.059
 9094SOL    HW276122   3.120  13.066   6.985
 9095SOL     OW76123  14.846   6.202   8.425
 9095SOL    HW176124  14.831   6.107   8.453
 9095SOL    HW276125  14.758   6.244   8.403
 9096SOL     OW76126  13.306   9.966   7.870
 9096SOL    HW176127  13.273  10.031   7.937
 9096SOL    HW276128  13.302   9.874   7.908
 9097SOL     OW76129  14.715  15.647   1.627
 9097SOL    HW176130  14.684  15.680   1.716
 9097SOL    HW276131  14.636  15.634   1.567
 9098SOL     OW76132   0.393   5.682   0.680
 9098SOL    HW176133   0.406   5.583   0.679
 9098SOL    HW276134   0.296   5.703   0.664
 9099SOL     OW76135  12.986  13.677   2.264
 9099SOL    HW176136  12.981  13.684   2.165
 9099SOL    HW276137  13.080  13.653   2.291
 9100SOL     OW76138   3.151   4.559   0.725
 9100SOL    HW176139   3.134   4.623   0.649
 9100SOL    HW276140   3.196   4.477   0.689
 9101SOL     OW76141   5.205   0.850   0.174
 9101SOL    HW176142   5.235   0.820   0.265
 9101SOL    HW276143   5.135   0.921   0.183
 9102SOL     OW76144   2.867  13.965   7.147
 9102SOL    HW176145   2.922  13.933   7.224
 9102SOL    HW276146   2.915  14.038   7.099
 9103SOL     OW76147  10.222   9.015   7.847
 9103SOL    HW176148  10.222   9.088   7.779
 9103SOL    HW276149  10.191   9.051   7.935
 9104SOL     OW76150   6.846   2.261   8.173
 9104SOL    HW176151   6.754   2.231   8.148
 9104SOL    HW276152   6.880   2.324   8.105
 9105SOL     OW76153  16.782   1.015   7.796
 9105SOL    HW176154  16.807   0.956   7.872
 9105SOL    HW276155  16.854   1.082   7.780
 9106SOL     OW76156   9.406   1.639   6.241
 9106SOL    HW176157   9.374   1.727   6.275
 9106SOL    HW276158   9.356   1.614   6.158
 9107SOL     OW76159  16.165  15.670   8.104
 9107SOL    HW176160  16.087  15.646   8.160
 9107SOL    HW276161  16.244  15.615   8.130
 9108SOL     OW76162   8.161   8.178   7.842
 9108SOL    HW176163   8.218   8.235   7.901
 9108SOL    HW276164   8.100   8.123   7.898
 9109SOL     OW76165   1.444   4.570   6.671
 9109SOL    HW176166   1.457   4.669   6.662
 9109SOL    HW276167   1.457   4.526   6.582
 9110SOL     OW76168   8.302  12.533   1.470
 9110SOL    HW176169   8.339  12.458   1.524
 9110SOL    HW276170   8.375  12.598   1.448
 9111SOL     OW76171  14.489   2.962   0.355
 9111SOL    HW176172  14.497   3.053   0.397
 9111SOL    HW276173  14.580   2.922   0.346
 9112SOL     OW76174  10.318  11.647   6.722
 9112SOL    HW176175  10.253  11.715   6.755
 9112SOL    HW276176  10.364  11.681   6.640
 9113SOL     OW76177   3.085  10.143   6.209
 9113SOL    HW176178   3.083  10.044   6.197
 9113SOL    HW276179   2.992  10.180   6.198
 9114SOL     OW76180   6.028   7.908   0.045
 9114SOL    HW176181   6.070   7.931   8.411
 9114SOL    HW276182   6.098   7.909   0.116
 9115SOL     OW76183   9.003   5.849   8.169
 9115SOL    HW176184   8.975   5.924   8.229
 9115SOL    HW276185   8.921   5.804   8.132
 9116SOL     OW76186   5.140   0.077   0.250
 9116SOL    HW176187   5.093   0.024   0.321
 9116SOL    HW276188   5.190   0.015   0.190
 9117SOL     OW76189  13.551   5.049   6.951
 9117SOL    HW176190  13.649   5.038   6.962
 9117SOL    HW276191  13.528   5.146   6.960
 9118SOL     OW76192   4.062   2.950   8.275
 9118SOL    HW176193   4.039   2.917   8.184
 9118SOL    HW276194   4.121   3.030   8.268
 9119SOL     OW76195   8.886  11.093   1.983
 9119SOL    HW176196   8.919  11.144   2.062
 9119SOL    HW276197   8.926  11.002   1.982
 9120SOL     OW76198  14.723  15.239   8.171
 9120SOL    HW176199  14.623  15.231   8.171
 9120SOL    HW276200  14.760  15.193   8.090
 9121SOL     OW76201  15.113  10.263   2.333
 9121SOL    HW176202  15.097  10.360   2.318
 9121SOL    HW276203  15.052  10.229   2.404
 9122SOL     OW76204   5.218   3.648   1.501
 9122SOL    HW176205   5.311   3.625   1.532
 9122SOL    HW276206   5.210   3.626   1.403
 9123SOL     OW76207   6.062   2.420   0.500
 9123SOL    HW176208   5.962   2.421   0.498
 9123SOL    HW276209   6.095   2.482   0.572
 9124SOL     OW76210   9.766   2.356   0.742
 9124SOL    HW176211   9.698   2.402   0.684
 9124SOL    HW276212   9.729   2.269   0.773
 9125SOL     OW76213   1.071   4.639   6.901
 9125SOL    HW176214   1.036   4.615   6.991
 9125SOL    HW276215   1.081   4.557   6.846
 9126SOL     OW76216  12.524   8.119   1.854
 9126SOL    HW176217  12.616   8.081   1.864
 9126SOL    HW276218  12.527   8.218   1.868
 9127SOL     OW76219   3.455  11.392   1.802
 9127SOL    HW176220   3.474  11.307   1.852
 9127SOL    HW276221   3.451  11.468   1.866
 9128SOL     OW76222   7.773   6.984   7.621
 9128SOL    HW176223   7.809   7.052   7.685
 9128SOL    HW276224   7.682   7.012   7.591
 9129SOL     OW76225   2.783   9.292   6.755
 9129SOL    HW176226   2.863   9.348   6.774
 9129SOL    HW276227   2.810   9.196   6.745
 9130SOL     OW76228  16.350   8.577   0.530
 9130SOL    HW176229  16.413   8.649   0.501
 9130SOL    HW276230  16.311   8.602   0.619
 9131SOL     OW76231  15.820   3.944   7.016
 9131SOL    HW176232  15.729   3.902   7.007
 9131SOL    HW276233  15.871   3.932   6.931
 9132SOL     OW76234  14.648   2.556   6.934
 9132SOL    HW176235  14.665   2.462   6.962
 9132SOL    HW276236  14.734   2.608   6.937
 9133SOL     OW76237   5.677  15.251   0.153
 9133SOL    HW176238   5.750  15.200   0.109
 9133SOL    HW276239   5.630  15.192   0.220
 9134SOL     OW76240   5.308   2.072   7.620
 9134SOL    HW176241   5.210   2.062   7.634
 9134SOL    HW276242   5.343   2.145   7.678
 9135SOL     OW76243   9.017   7.128   8.136
 9135SOL    HW176244   9.045   7.189   8.211
 9135SOL    HW276245   8.976   7.046   8.174
 9136SOL     OW76246   7.808  12.126   0.037
 9136SOL    HW176247   7.902  12.119   0.070
 9136SOL    HW276248   7.766  12.209   0.074
 9137SOL     OW76249   8.143   9.664   0.066
 9137SOL    HW176250   8.131   9.664   0.165
 9137SOL    HW276251   8.098   9.744   0.026
 9138SOL     OW76252   3.294   6.251   0.906
 9138SOL    HW176253   3.347   6.245   0.822
 9138SOL    HW276254   3.345   6.302   0.974
 9139SOL     OW76255   0.209   8.676   7.323
 9139SOL    HW176256   0.138   8.620   7.279
 9139SOL    HW276257   0.254   8.622   7.394
 9140SOL     OW76258  12.983   1.480   6.259
 9140SOL    HW176259  13.039   1.432   6.191
 9140SOL    HW276260  13.038   1.550   6.304
 9141SOL     OW76261  13.670  10.730   0.469
 9141SOL    HW176262  13.576  10.765   0.471
 9141SOL    HW276263  13.684  10.679   0.385
 9142SOL     OW76264  10.565   5.862   7.353
 9142SOL    HW176265  10.514   5.819   7.279
 9142SOL    HW276266  10.572   5.960   7.337
 9143SOL     OW76267  12.448  16.848   0.609
 9143SOL    HW176268  12.491  16.758   0.610
 9143SOL    HW276269  12.503  16.910   0.552
 9144SOL     OW76270   9.005   4.264   6.822
 9144SOL    HW176271   8.940   4.199   6.863
 9144SOL    HW276272   8.955   4.344   6.790
 9145SOL     OW76273  10.461   5.689   0.107
 9145SOL    HW176274  10.418   5.694   0.197
 9145SOL    HW276275  10.453   5.596   0.071
 9146SOL     OW76276  10.217   2.272   1.628
 9146SOL    HW176277  10.242   2.356   1.581
 9146SOL    HW276278  10.298   2.232   1.671
 9147SOL     OW76279   2.292  14.976   7.677
 9147SOL    HW176280   2.266  14.960   7.582
 9147SOL    HW276281   2.221  14.940   7.738
 9148SOL     OW76282  14.414  11.548   2.395
 9148SOL    HW176283  14.423  11.589   2.486
 9148SOL    HW276284  14.424  11.619   2.325
 9149SOL     OW76285   6.073  13.606   7.660
 9149SOL    HW176286   6.022  13.645   7.583
 9149SOL    HW276287   6.011  13.557   7.720
 9150SOL     OW76288   0.927  10.071   2.134
 9150SOL    HW176289   0.829  10.056   2.140
 9150SOL    HW276290   0.974  10.017   2.204
 9151SOL     OW76291  15.018  14.046   1.948
 9151SOL    HW176292  15.115  14.063   1.961
 9151SOL    HW276293  14.975  14.026   2.037
 9152SOL     OW76294  13.570   2.934   6.620
 9152SOL    HW176295  13.617   2.952   6.534
 9152SOL    HW276296  13.629   2.960   6.696
 9153SOL     OW76297  11.179  13.662   6.440
 9153SOL    HW176298  11.110  13.723   6.402
 9153SOL    HW276299  11.226  13.613   6.365
 9154SOL     OW76300  13.841   1.251   6.475
 9154SOL    HW176301  13.818   1.211   6.386
 9154SOL    HW276302  13.783   1.209   6.545
 9155SOL     OW76303   8.291   7.323   0.677
 9155SOL    HW176304   8.301   7.312   0.578
 9155SOL    HW276305   8.362   7.270   0.723
 9156SOL     OW76306   0.669  11.063   6.772
 9156SOL    HW176307   0.636  11.156   6.760
 9156SOL    HW276308   0.622  11.021   6.850
 9157SOL     OW76309  15.730  10.113   8.183
 9157SOL    HW176310  15.824  10.138   8.205
 9157SOL    HW276311  15.677  10.107   8.268
 9158SOL     OW76312  15.975   3.885   6.791
 9158SOL    HW176313  15.936   3.794   6.807
 9158SOL    HW276314  16.029   3.884   6.707
 9159SOL     OW76315  12.155   4.351   0.699
 9159SOL    HW176316  12.094   4.294   0.643
 9159SOL    HW276317  12.142   4.447   0.674
 9160SOL     OW76318   9.165   8.769   1.756
 9160SOL    HW176319   9.155   8.781   1.855
 9160SOL    HW276320   9.104   8.696   1.725
 9161SOL     OW76321  10.040   7.355   7.095
 9161SOL    HW176322  10.096   7.415   7.039
 9161SOL    HW276323  10.093   7.324   7.174
 9162SOL     OW76324   9.124   8.831   0.536
 9162SOL    HW176325   9.133   8.922   0.496
 9162SOL    HW276326   9.210   8.782   0.527
 9163SOL     OW76327   6.786   9.433   1.830
 9163SOL    HW176328   6.788   9.401   1.925
 9163SOL    HW276329   6.703   9.400   1.786
 9164SOL     OW76330   6.200  10.602   1.837
 9164SOL    HW176331   6.253  10.686   1.842
 9164SOL    HW276332   6.242  10.532   1.895
 9165SOL     OW76333   8.963   2.714   8.228
 9165SOL    HW176334   9.029   2.781   8.262
 9165SOL    HW276335   8.878   2.761   8.202
 9166SOL     OW76336   0.783  16.651   8.229
 9166SOL    HW176337   0.807  16.562   8.269
 9166SOL    HW276338   0.735  16.636   8.142
 9167SOL     OW76339   5.976   8.727   6.856
 9167SOL    HW176340   6.060   8.758   6.901
 9167SOL    HW276341   5.926   8.666   6.917
 9168SOL     OW76342  15.194   2.050   5.439
 9168SOL    HW176343  15.193   2.146   5.467
 9168SOL    HW276344  15.235   2.041   5.349
 9169SOL     OW76345   8.446   7.247   8.083
 9169SOL    HW176346   8.543   7.258   8.102
 9169SOL    HW276347   8.413   7.163   8.128
 9170SOL     OW76348   8.197   8.112   1.312
 9170SOL    HW176349   8.263   8.095   1.239
 9170SOL    HW276350   8.210   8.205   1.347
 9171SOL     OW76351   2.884   0.371   0.147
 9171SOL    HW176352   2.876   0.465   0.181
 9171SOL    HW276353   2.883   0.307   0.224
 9172SOL     OW76354   0.883   2.048   7.428
 9172SOL    HW176355   0.939   2.047   7.510
 9172SOL    HW276356   0.937   2.083   7.351
 9173SOL     OW76357  14.622   4.624   7.858
 9173SOL    HW176358  14.600   4.589   7.949
 9173SOL    HW276359  14.619   4.549   7.792
 9174SOL     OW76360   2.610   2.850   1.554
 9174SOL    HW176361   2.614   2.896   1.466
 9174SOL    HW276362   2.645   2.911   1.625
 9175SOL     OW76363  16.714   1.036   1.908
 9175SOL    HW176364  16.668   1.102   1.966
 9175SOL    HW276365  16.746   0.959   1.963
 9176SOL     OW76366  14.544  14.235   6.791
 9176SOL    HW176367  14.622  14.255   6.851
 9176SOL    HW276368  14.490  14.318   6.776
 9177SOL     OW76369   4.154  13.199   1.433
 9177SOL    HW176370   4.207  13.218   1.516
 9177SOL    HW276371   4.158  13.277   1.372
 9178SOL     OW76372   6.075   8.410   1.005
 9178SOL    HW176373   6.162   8.439   0.964
 9178SOL    HW276374   6.093   8.367   1.094
 9179SOL     OW76375  13.709   1.139   6.695
 9179SOL    HW176376  13.723   1.223   6.747
 9179SOL    HW276377  13.725   1.060   6.753
 9180SOL     OW76378   0.113   8.150   7.732
 9180SOL    HW176379   0.016   8.124   7.723
 9180SOL    HW276380   0.137   8.157   7.829
 9181SOL     OW76381   3.136   6.066   7.211
 9181SOL    HW176382   3.218   6.018   7.179
 9181SOL    HW276383   3.158   6.161   7.231
 9182SOL     OW76384  16.913   9.736   6.838
 9182SOL    HW176385  16.888   9.746   6.742
 9182SOL    HW276386   0.003   9.669   6.847
 9183SOL     OW76387   2.263  12.347   1.504
 9183SOL    HW176388   2.257  12.429   1.448
 9183SOL    HW276389   2.333  12.286   1.466
 9184SOL     OW76390  16.789   1.322   0.634
 9184SOL    HW176391  16.716   1.368   0.685
 9184SOL    HW276392  16.800   1.366   0.545
 9185SOL     OW76393   8.488  10.493   0.723
 9185SOL    HW176394   8.511  10.419   0.786
 9185SOL    HW276395   8.514  10.581   0.764
 9186SOL     OW76396   5.735  11.646   7.019
 9186SOL    HW176397   5.797  11.628   6.942
 9186SOL    HW276398   5.658  11.700   6.986
 9187SOL     OW76399   7.879  12.368   6.555
 9187SOL    HW176400   7.965  12.316   6.552
 9187SOL    HW276401   7.883  12.444   6.490
 9188SOL     OW76402  16.732   9.689   1.557
 9188SOL    HW176403  16.721   9.788   1.564
 9188SOL    HW276404  16.643   9.644   1.567
 9189SOL     OW76405  12.831  10.980   7.344
 9189SOL    HW176406  12.850  10.966   7.247
 9189SOL    HW276407  12.901  11.040   7.383
 9190SOL     OW76408   5.480  15.758   6.634
 9190SOL    HW176409   5.442  15.837   6.586
 9190SOL    HW276410   5.491  15.682   6.570
 9191SOL     OW76411  14.800  10.539   6.358
 9191SOL    HW176412  14.859  10.507   6.284
 9191SOL    HW276413  14.728  10.597   6.321
 9192SOL     OW76414   3.280  10.431   7.739
 9192SOL    HW176415   3.259  10.524   7.771
 9192SOL    HW276416   3.335  10.384   7.808
 9193SOL     OW76417  15.844   8.636   7.036
 9193SOL    HW176418  15.787   8.694   6.977
 9193SOL    HW276419  15.897   8.573   6.980
 9194SOL     OW76420   5.166   3.178   0.440
 9194SOL    HW176421   5.214   3.233   0.507
 9194SOL    HW276422   5.118   3.238   0.376
 9195SOL     OW76423   4.553  16.245   0.330
 9195SOL    HW176424   4.511  16.316   0.386
 9195SOL    HW276425   4.513  16.156   0.353
 9196SOL     OW76426  11.681   3.831   6.577
 9196SOL    HW176427  11.692   3.914   6.631
 9196SOL    HW276428  11.770   3.806   6.537
 9197SOL     OW76429   4.735   9.214   0.820
 9197SOL    HW176430   4.663   9.185   0.884
 9197SOL    HW276431   4.764   9.135   0.766
 9198SOL     OW76432   2.083   8.051   0.190
 9198SOL    HW176433   2.087   7.991   0.110
 9198SOL    HW276434   1.991   8.050   0.229
 9199SOL     OW76435   1.837  14.292   2.763
 9199SOL    HW176436   1.836  14.392   2.776
 9199SOL    HW276437   1.745  14.256   2.778
 9200SOL     OW76438   6.778   7.687   7.591
 9200SOL    HW176439   6.826   7.651   7.510
 9200SOL    HW276440   6.740   7.777   7.570
 9201SOL     OW76441   3.077  11.513   0.531
 9201SOL    HW176442   3.152  11.488   0.591
 9201SOL    HW276443   3.083  11.459   0.447
 9202SOL     OW76444   3.076   0.917   1.333
 9202SOL    HW176445   2.994   0.861   1.321
 9202SOL    HW276446   3.155   0.857   1.346
 9203SOL     OW76447  14.736   3.842   1.550
 9203SOL    HW176448  14.827   3.884   1.558
 9203SOL    HW276449  14.667   3.914   1.540
 9204SOL     OW76450   6.127   6.964   6.843
 9204SOL    HW176451   6.200   6.987   6.906
 9204SOL    HW276452   6.042   7.009   6.872
 9205SOL     OW76453   8.751   6.795   6.470
 9205SOL    HW176454   8.715   6.742   6.393
 9205SOL    HW276455   8.711   6.760   6.555
 9206SOL     OW76456  13.694   0.658   8.030
 9206SOL    HW176457  13.727   0.667   8.124
 9206SOL    HW276458  13.646   0.741   8.003
 9207SOL     OW76459  11.148   6.893   8.260
 9207SOL    HW176460  11.178   6.807   8.219
 9207SOL    HW276461  11.144   6.883   8.360
 9208SOL     OW76462  13.088   3.909   1.470
 9208SOL    HW176463  13.049   3.999   1.492
 9208SOL    HW276464  13.143   3.877   1.546
 9209SOL     OW76465   8.994  14.622   0.331
 9209SOL    HW176466   9.060  14.663   0.269
 9209SOL    HW276467   8.910  14.677   0.332
 9210SOL     OW76468  15.747   4.917   0.516
 9210SOL    HW176469  15.803   4.885   0.593
 9210SOL    HW276470  15.794   4.991   0.469
 9211SOL     OW76471  10.789   0.695   7.567
 9211SOL    HW176472  10.713   0.661   7.511
 9211SOL    HW276473  10.787   0.795   7.569
 9212SOL     OW76474   9.050   3.960   8.381
 9212SOL    HW176475   9.111   3.947   8.302
 9212SOL    HW276476   8.992   3.879   8.391
 9213SOL     OW76477  16.467   8.455   0.086
 9213SOL    HW176478  16.376   8.496   0.072
 9213SOL    HW276479  16.535   8.510   0.038
 9214SOL     OW76480  12.108  15.293   0.690
 9214SOL    HW176481  12.098  15.250   0.780
 9214SOL    HW276482  12.131  15.390   0.702
 9215SOL     OW76483  15.868   2.510   7.647
 9215SOL    HW176484  15.841   2.441   7.714
 9215SOL    HW276485  15.950   2.479   7.599
 9216SOL     OW76486   6.689  15.495   7.881
 9216SOL    HW176487   6.603  15.458   7.845
 9216SOL    HW276488   6.762  15.482   7.814
 9217SOL     OW76489  13.467  14.518   1.305
 9217SOL    HW176490  13.390  14.526   1.369
 9217SOL    HW276491  13.438  14.549   1.214
 9218SOL     OW76492   3.266   0.110   1.659
 9218SOL    HW176493   3.234   0.081   1.569
 9218SOL    HW276494   3.272   0.030   1.719
 9219SOL     OW76495   8.014  13.858   6.524
 9219SOL    HW176496   7.983  13.943   6.484
 9219SOL    HW276497   7.986  13.781   6.466
 9220SOL     OW76498  13.280  11.103   0.161
 9220SOL    HW176499  13.359  11.049   0.190
 9220SOL    HW276500  13.266  11.091   0.062
 9221SOL     OW76501   2.866  10.330   6.438
 9221SOL    HW176502   2.776  10.374   6.443
 9221SOL    HW276503   2.877  10.286   6.349
 9222SOL     OW76504   7.979  11.917   0.275
 9222SOL    HW176505   8.008  11.931   0.180
 9222SOL    HW276506   7.902  11.853   0.277
 9223SOL     OW76507  11.253  13.320   1.312
 9223SOL    HW176508  11.278  13.274   1.397
 9223SOL    HW276509  11.327  13.382   1.284
 9224SOL     OW76510   3.994   9.620   0.550
 9224SOL    HW176511   3.975   9.552   0.620
 9224SOL    HW276512   3.949   9.593   0.464
 9225SOL     OW76513  14.712   0.381   0.995
 9225SOL    HW176514  14.754   0.467   1.024
 9225SOL    HW276515  14.781   0.324   0.951
 9226SOL     OW76516  11.087   3.363   1.414
 9226SOL    HW176517  11.108   3.305   1.336
 9226SOL    HW276518  11.011   3.324   1.466
 9227SOL     OW76519   0.328  11.475   0.359
 9227SOL    HW176520   0.349  11.487   0.262
 9227SOL    HW276521   0.390  11.408   0.399
 9228SOL     OW76522  11.504  10.920   0.730
 9228SOL    HW176523  11.504  10.830   0.685
 9228SOL    HW276524  11.520  10.991   0.661
 9229SOL     OW76525   7.298  16.768   6.659
 9229SOL    HW176526   7.323  16.864   6.659
 9229SOL    HW276527   7.302  16.732   6.565
 9230SOL     OW76528   4.779   1.985   2.196
 9230SOL    HW176529   4.854   1.978   2.261
 9230SOL    HW276530   4.692   1.981   2.245
 9231SOL     OW76531   7.588   4.386   8.023
 9231SOL    HW176532   7.654   4.400   8.097
 9231SOL    HW276533   7.635   4.392   7.935
 9232SOL     OW76534   1.196   5.630   7.392
 9232SOL    HW176535   1.169   5.716   7.350
 9232SOL    HW276536   1.124   5.562   7.378
 9233SOL     OW76537  15.460   8.865   6.295
 9233SOL    HW176538  15.504   8.777   6.312
 9233SOL    HW276539  15.425   8.867   6.201
 9234SOL     OW76540  12.982   6.534   7.044
 9234SOL    HW176541  13.056   6.599   7.033
 9234SOL    HW276542  12.936   6.549   7.132
 9235SOL     OW76543  16.132  11.961   0.179
 9235SOL    HW176544  16.147  11.901   0.100
 9235SOL    HW276545  16.173  12.050   0.161
 9236SOL     OW76546   5.117  14.478   0.907
 9236SOL    HW176547   5.186  14.527   0.855
 9236SOL    HW276548   5.146  14.469   1.003
 9237SOL     OW76549   1.777   3.482   0.575
 9237SOL    HW176550   1.839   3.547   0.531
 9237SOL    HW276551   1.688   3.484   0.529
 9238SOL     OW76552  13.098  11.128   6.718
 9238SOL    HW176553  13.043  11.137   6.635
 9238SOL    HW276554  13.195  11.122   6.693
 9239SOL     OW76555  10.981   4.918   1.820
 9239SOL    HW176556  11.028   4.866   1.892
 9239SOL    HW276557  10.908   4.973   1.862
 9240SOL     OW76558  13.776   7.271   8.298
 9240SOL    HW176559  13.748   7.357   8.340
 9240SOL    HW276560  13.842   7.224   8.357
 9241SOL     OW76561   8.091  10.793   1.710
 9241SOL    HW176562   8.135  10.883   1.703
 9241SOL    HW276563   8.133  10.741   1.784
 9242SOL     OW76564  11.889   9.047   7.684
 9242SOL    HW176565  11.868   8.971   7.746
 9242SOL    HW276566  11.966   9.099   7.720
 9243SOL     OW76567  16.037   4.836   5.710
 9243SOL    HW176568  16.029   4.903   5.636
 9243SOL    HW276569  15.980   4.756   5.689
 9244SOL     OW76570   1.874   7.379   1.030
 9244SOL    HW176571   1.869   7.323   1.113
 9244SOL    HW276572   1.966   7.370   0.990
 9245SOL     OW76573  13.660   7.822   0.949
 9245SOL    HW176574  13.659   7.895   0.881
 9245SOL    HW276575  13.571   7.777   0.951
 9246SOL     OW76576  14.645  15.930   8.377
 9246SOL    HW176577  14.718  15.930   8.445
 9246SOL    HW276578  14.683  15.955   8.288
 9247SOL     OW76579  14.795   9.851   8.042
 9247SOL    HW176580  14.789   9.753   8.023
 9247SOL    HW276581  14.738   9.902   7.977
 9248SOL     OW76582  13.603  11.043   0.944
 9248SOL    HW176583  13.662  11.118   0.972
 9248SOL    HW276584  13.522  11.040   1.003
 9249SOL     OW76585   4.658  13.715   0.093
 9249SOL    HW176586   4.659  13.772   0.175
 9249SOL    HW276587   4.671  13.773   0.012
 9250SOL     OW76588   5.107   9.544   1.130
 9250SOL    HW176589   5.034   9.505   1.074
 9250SOL    HW276590   5.168   9.471   1.161
 9251SOL     OW76591  15.271   6.340   6.089
 9251SOL    HW176592  15.281   6.407   6.016
 9251SOL    HW276593  15.324   6.369   6.169
 9252SOL     OW76594  12.615   0.947   6.386
 9252SOL    HW176595  12.587   0.877   6.320
 9252SOL    HW276596  12.710   0.972   6.370
 9253SOL     OW76597  11.921  10.830   7.699
 9253SOL    HW176598  11.907  10.762   7.770
 9253SOL    HW276599  11.998  10.889   7.722
 9254SOL     OW76600   0.370   7.496   0.675
 9254SOL    HW176601   0.386   7.555   0.596
 9254SOL    HW276602   0.363   7.552   0.758
 9255SOL     OW76603   5.294   7.955   1.799
 9255SOL    HW176604   5.308   7.945   1.898
 9255SOL    HW276605   5.236   8.034   1.782
 9256SOL     OW76606   1.618  14.577   1.634
 9256SOL    HW176607   1.670  14.567   1.719
 9256SOL    HW276608   1.666  14.531   1.560
 9257SOL     OW76609  13.968   5.288   8.227
 9257SOL    HW176610  13.926   5.264   8.139
 9257SOL    HW276611  13.927   5.373   8.261
 9258SOL     OW76612   4.547  15.249   8.251
 9258SOL    HW176613   4.558  15.226   8.154
 9258SOL    HW276614   4.467  15.307   8.263
 9259SOL     OW76615  14.058  10.516   7.112
 9259SOL    HW176616  14.137  10.575   7.127
 9259SOL    HW276617  14.087  10.420   7.115
 9260SOL     OW76618   2.640  14.376   0.798
 9260SOL    HW176619   2.727  14.406   0.759
 9260SOL    HW276620   2.601  14.304   0.740
 9261SOL     OW76621  10.141   6.644   1.276
 9261SOL    HW176622  10.132   6.715   1.346
 9261SOL    HW276623  10.157   6.556   1.320
 9262SOL     OW76624   3.589   9.595   7.859
 9262SOL    HW176625   3.493   9.580   7.833
 9262SOL    HW276626   3.595   9.604   7.958
 9263SOL     OW76627   8.467   2.023   0.356
 9263SOL    HW176628   8.512   1.977   0.281
 9263SOL    HW276629   8.374   1.987   0.367
 9264SOL     OW76630   1.747   6.789   6.438
 9264SOL    HW176631   1.713   6.752   6.525
 9264SOL    HW276632   1.814   6.726   6.398
 9265SOL     OW76633   4.128  13.759   7.380
 9265SOL    HW176634   4.220  13.748   7.418
 9265SOL    HW276635   4.134  13.765   7.280
 9266SOL     OW76636   7.319   3.007   2.158
 9266SOL    HW176637   7.284   2.922   2.197
 9266SOL    HW276638   7.345   3.070   2.231
 9267SOL     OW76639   3.066   9.202   7.381
 9267SOL    HW176640   3.079   9.241   7.472
 9267SOL    HW276641   3.155   9.182   7.340
 9268SOL     OW76642   6.764   6.729   1.391
 9268SOL    HW176643   6.793   6.762   1.481
 9268SOL    HW276644   6.827   6.658   1.360
 9269SOL     OW76645  16.137   7.889   0.593
 9269SOL    HW176646  16.081   7.834   0.654
 9269SOL    HW276647  16.086   7.971   0.565
 9270SOL     OW76648  10.712   9.404   1.184
 9270SOL    HW176649  10.689   9.383   1.089
 9270SOL    HW276650  10.628   9.418   1.237
 9271SOL     OW76651  12.712   3.156   8.239
 9271SOL    HW176652  12.677   3.079   8.186
 9271SOL    HW276653  12.747   3.226   8.177
 9272SOL     OW76654  12.910   8.071   6.583
 9272SOL    HW176655  12.946   8.000   6.644
 9272SOL    HW276656  12.974   8.148   6.580
 9273SOL     OW76657   3.758   1.203   7.475
 9273SOL    HW176658   3.851   1.170   7.493
 9273SOL    HW276659   3.734   1.183   7.380
 9274SOL     OW76660  16.621  10.500   7.096
 9274SOL    HW176661  16.603  10.416   7.147
 9274SOL    HW276662  16.671  10.477   7.012
 9275SOL     OW76663   9.787   8.512   1.862
 9275SOL    HW176664   9.812   8.604   1.832
 9275SOL    HW276665   9.722   8.519   1.938
 9276SOL     OW76666   9.497  12.911   2.050
 9276SOL    HW176667   9.573  12.913   2.114
 9276SOL    HW276668   9.440  12.831   2.068
 9277SOL     OW76669  12.363   3.929   8.343
 9277SOL    HW176670  12.436   3.897   8.404
 9277SOL    HW276671  12.284   3.869   8.351
 9278SOL     OW76672  12.740   7.716   7.922
 9278SOL    HW176673  12.763   7.671   7.836
 9278SOL    HW276674  12.706   7.648   7.987
 9279SOL     OW76675   0.349  15.465   1.843
 9279SOL    HW176676   0.334  15.564   1.833
 9279SOL    HW276677   0.448  15.447   1.845
 9280SOL     OW76678   4.735   2.398   1.491
 9280SOL    HW176679   4.784   2.332   1.434
 9280SOL    HW276680   4.780   2.405   1.580
 9281SOL     OW76681   9.591   1.244   1.912
 9281SOL    HW176682   9.532   1.295   1.850
 9281SOL    HW276683   9.670   1.300   1.936
 9282SOL     OW76684   1.534  14.003   7.917
 9282SOL    HW176685   1.467  14.006   7.843
 9282SOL    HW276686   1.606  14.070   7.899
 9283SOL     OW76687  15.993   8.930   0.127
 9283SOL    HW176688  16.045   8.888   0.201
 9283SOL    HW276689  16.047   9.004   0.087
 9284SOL     OW76690  11.366   2.503   6.187
 9284SOL    HW176691  11.275   2.508   6.146
 9284SOL    HW276692  11.360   2.518   6.285
 9285SOL     OW76693  15.936   3.462   0.227
 9285SOL    HW176694  15.932   3.363   0.209
 9285SOL    HW276695  15.851   3.505   0.197
 9286SOL     OW76696  14.997   2.797   8.125
 9286SOL    HW176697  15.026   2.893   8.124
 9286SOL    HW276698  15.056   2.744   8.064
 9287SOL     OW76699   0.343   2.203   7.918
 9287SOL    HW176700   0.353   2.113   7.876
 9287SOL    HW276701   0.285   2.261   7.861
 9288SOL     OW76702   9.526   2.874   8.325
 9288SOL    HW176703   9.481   2.920   8.248
 9288SOL    HW276704   9.550   2.942   8.394
 9289SOL     OW76705  13.122  12.366   0.702
 9289SOL    HW176706  13.140  12.459   0.733
 9289SOL    HW276707  13.119  12.305   0.782
 9290SOL     OW76708   0.148   2.033   0.792
 9290SOL    HW176709   0.171   2.109   0.853
 9290SOL    HW276710   0.118   1.955   0.846
 9291SOL     OW76711   5.375  13.325   0.701
 9291SOL    HW176712   5.280  13.313   0.728
 9291SOL    HW276713   5.390  13.281   0.612
 9292SOL     OW76714  12.483  13.654   2.534
 9292SOL    HW176715  12.526  13.564   2.543
 9292SOL    HW276716  12.553  13.725   2.537
 9293SOL     OW76717   7.519   0.412   6.618
 9293SOL    HW176718   7.495   0.478   6.546
 9293SOL    HW276719   7.603   0.364   6.593
 9294SOL     OW76720   7.582   2.462   1.127
 9294SOL    HW176721   7.602   2.538   1.188
 9294SOL    HW276722   7.663   2.438   1.075
 9295SOL     OW76723   1.724  14.189   1.371
 9295SOL    HW176724   1.745  14.160   1.277
 9295SOL    HW276725   1.760  14.122   1.435
 9296SOL     OW76726  14.493  12.084   2.505
 9296SOL    HW176727  14.482  12.143   2.426
 9296SOL    HW276728  14.547  12.131   2.575
 9297SOL     OW76729   8.830   4.071   6.930
 9297SOL    HW176730   8.814   4.027   6.841
 9297SOL    HW276731   8.800   4.011   7.003
 9298SOL     OW76732   4.347   2.552   1.251
 9298SOL    HW176733   4.396   2.485   1.307
 9298SOL    HW276734   4.342   2.639   1.299
 9299SOL     OW76735  14.450   8.776   1.890
 9299SOL    HW176736  14.381   8.843   1.918
 9299SOL    HW276737  14.539   8.821   1.885
 9300SOL     OW76738   7.195  12.342   7.602
 9300SOL    HW176739   7.221  12.252   7.568
 9300SOL    HW276740   7.245  12.361   7.687
 9301SOL     OW76741  10.272  10.029   8.312
 9301SOL    HW176742  10.201  10.094   8.285
 9301SOL    HW276743  10.245   9.937   8.282
 9302SOL     OW76744   1.903  11.821   0.388
 9302SOL    HW176745   1.959  11.835   0.306
 9302SOL    HW276746   1.806  11.826   0.364
 9303SOL     OW76747   0.567  10.272   7.434
 9303SOL    HW176748   0.604  10.364   7.446
 9303SOL    HW276749   0.639  10.205   7.456
 9304SOL     OW76750   5.923   6.919   0.560
 9304SOL    HW176751   5.936   7.006   0.607
 9304SOL    HW276752   5.953   6.927   0.465
 9305SOL     OW76753   1.554   6.145   7.495
 9305SOL    HW176754   1.575   6.055   7.457
 9305SOL    HW276755   1.505   6.134   7.581
 9306SOL     OW76756   5.062   1.162   1.654
 9306SOL    HW176757   5.111   1.249   1.642
 9306SOL    HW276758   5.015   1.163   1.742
 9307SOL     OW76759   1.860  13.375   6.743
 9307SOL    HW176760   1.926  13.308   6.711
 9307SOL    HW276761   1.770  13.332   6.750
 9308SOL     OW76762  12.333   7.366   6.902
 9308SOL    HW176763  12.321   7.366   7.002
 9308SOL    HW276764  12.422   7.327   6.879
 9309SOL     OW76765   2.138   8.310   1.526
 9309SOL    HW176766   2.201   8.241   1.491
 9309SOL    HW276767   2.189   8.394   1.546
 9310SOL     OW76768   2.123   5.992   7.327
 9310SOL    HW176769   2.200   6.047   7.294
 9310SOL    HW276770   2.049   6.052   7.356
 9311SOL     OW76771  15.241  12.320   1.347
 9311SOL    HW176772  15.235  12.269   1.261
 9311SOL    HW276773  15.225  12.259   1.424
 9312SOL     OW76774   9.111   0.304   6.659
 9312SOL    HW176775   9.191   0.272   6.608
 9312SOL    HW276776   9.133   0.391   6.703
 9313SOL     OW76777  15.242   7.184   1.597
 9313SOL    HW176778  15.218   7.087   1.586
 9313SOL    HW276779  15.232   7.231   1.509
 9314SOL     OW76780  14.864  12.089   0.307
 9314SOL    HW176781  14.902  12.035   0.232
 9314SOL    HW276782  14.872  12.186   0.285
 9315SOL     OW76783   8.524  16.023   0.012
 9315SOL    HW176784   8.513  16.047   8.369
 9315SOL    HW276785   8.483  15.933   0.028
 9316SOL     OW76786   8.266   9.891   8.318
 9316SOL    HW176787   8.264   9.967   8.253
 9316SOL    HW276788   8.175   9.879   8.357
 9317SOL     OW76789   7.263  11.006   7.112
 9317SOL    HW176790   7.360  11.028   7.101
 9317SOL    HW276791   7.238  11.013   7.208
 9318SOL     OW76792   0.496   4.638   6.126
 9318SOL    HW176793   0.587   4.655   6.087
 9318SOL    HW276794   0.426   4.662   6.059
 9319SOL     OW76795   1.290   1.127   6.979
 9319SOL    HW176796   1.383   1.119   6.944
 9319SOL    HW276797   1.226   1.086   6.914
 9320SOL     OW76798   9.148  10.141   8.386
 9320SOL    HW176799   9.173  10.049   8.358
 9320SOL    HW276800   9.125  10.141   0.029
 9321SOL     OW76801   8.602  10.127   7.339
 9321SOL    HW176802   8.512  10.102   7.303
 9321SOL    HW276803   8.645  10.194   7.279
 9322SOL     OW76804  10.291  11.972   7.346
 9322SOL    HW176805  10.306  11.981   7.247
 9322SOL    HW276806  10.219  11.905   7.362
 9323SOL     OW76807   1.437   1.968   7.342
 9323SOL    HW176808   1.432   1.928   7.434
 9323SOL    HW276809   1.419   2.067   7.348
 9324SOL     OW76810  12.506  13.293   1.666
 9324SOL    HW176811  12.431  13.346   1.705
 9324SOL    HW276812  12.480  13.196   1.665
 9325SOL     OW76813  10.364   6.858   8.143
 9325SOL    HW176814  10.405   6.858   8.053
 9325SOL    HW276815  10.349   6.763   8.173
 9326SOL     OW76816  15.330   0.441   7.523
 9326SOL    HW176817  15.294   0.503   7.453
 9326SOL    HW276818  15.354   0.494   7.604
 9327SOL     OW76819  15.703   9.843   0.022
 9327SOL    HW176820  15.738   9.774   8.413
 9327SOL    HW276821  15.652   9.912   8.425
 9328SOL     OW76822  16.420  11.605   1.545
 9328SOL    HW176823  16.478  11.537   1.501
 9328SOL    HW276824  16.476  11.676   1.586
 9329SOL     OW76825   3.987   6.525   6.578
 9329SOL    HW176826   3.919   6.512   6.506
 9329SOL    HW276827   4.076   6.495   6.545
 9330SOL     OW76828   0.728   3.493   5.999
 9330SOL    HW176829   0.756   3.398   5.985
 9330SOL    HW276830   0.748   3.520   6.093
 9331SOL     OW76831   1.492   2.559   7.445
 9331SOL    HW176832   1.408   2.506   7.437
 9331SOL    HW276833   1.479   2.634   7.510
 9332SOL     OW76834   6.581   7.695   0.024
 9332SOL    HW176835   6.509   7.671   8.412
 9332SOL    HW276836   6.570   7.791   0.051
 9333SOL     OW76837   1.974   3.392   8.245
 9333SOL    HW176838   2.048   3.459   8.254
 9333SOL    HW276839   2.012   3.303   8.219
 9334SOL     OW76840   8.495  16.218   2.102
 9334SOL    HW176841   8.571  16.234   2.166
 9334SOL    HW276842   8.412  16.260   2.137
 9335SOL     OW76843   7.286  14.283   8.332
 9335SOL    HW176844   7.204  14.282   8.390
 9335SOL    HW276845   7.356  14.225   8.372
 9336SOL     OW76846   8.128   4.554   8.080
 9336SOL    HW176847   8.198   4.528   8.147
 9336SOL    HW276848   8.160   4.634   8.029
 9337SOL     OW76849   1.326  16.961   7.210
 9337SOL    HW176850   1.409  16.977   7.264
 9337SOL    HW276851   1.249  16.942   7.271
 9338SOL     OW76852  16.447   6.905   7.903
 9338SOL    HW176853  16.352   6.926   7.882
 9338SOL    HW276854  16.457   6.808   7.923
 9339SOL     OW76855   3.893  15.868   0.997
 9339SOL    HW176856   3.813  15.898   0.946
 9339SOL    HW276857   3.969  15.930   0.980
 9340SOL     OW76858   2.571  16.307   8.253
 9340SOL    HW176859   2.607  16.215   8.264
 9340SOL    HW276860   2.633  16.361   8.196
 9341SOL     OW76861   9.287   1.681   7.975
 9341SOL    HW176862   9.293   1.757   8.040
 9341SOL    HW276863   9.299   1.716   7.882
 9342SOL     OW76864  15.446   2.170   0.007
 9342SOL    HW176865  15.528   2.156   0.063
 9342SOL    HW276866  15.396   2.084   8.454
 9343SOL     OW76867  15.662   1.440   1.397
 9343SOL    HW176868  15.732   1.473   1.459
 9343SOL    HW276869  15.693   1.356   1.353
 9344SOL     OW76870   2.214  14.195   2.541
 9344SOL    HW176871   2.260  14.282   2.559
 9344SOL    HW276872   2.214  14.139   2.623
 9345SOL     OW76873   9.236  14.332   0.497
 9345SOL    HW176874   9.224  14.233   0.508
 9345SOL    HW276875   9.163  14.379   0.547
 9346SOL     OW76876   5.491  13.240   0.450
 9346SOL    HW176877   5.512  13.301   0.373
 9346SOL    HW276878   5.575  13.203   0.488
 9347SOL     OW76879   4.022  13.167   8.373
 9347SOL    HW176880   4.042  13.229   8.449
 9347SOL    HW276881   3.930  13.130   8.384
 9348SOL     OW76882  14.024  14.811   7.339
 9348SOL    HW176883  13.995  14.854   7.425
 9348SOL    HW276884  14.037  14.881   7.269
 9349SOL     OW76885  15.975  11.355   1.916
 9349SOL    HW176886  15.927  11.366   2.003
 9349SOL    HW276887  16.064  11.313   1.933
 9350SOL     OW76888   6.143  11.165   0.941
 9350SOL    HW176889   6.050  11.200   0.943
 9350SOL    HW276890   6.143  11.069   0.971
 9351SOL     OW76891   0.203  14.945   6.400
 9351SOL    HW176892   0.259  14.978   6.323
 9351SOL    HW276893   0.124  14.896   6.364
 9352SOL     OW76894   6.696  13.104   1.595
 9352SOL    HW176895   6.725  13.065   1.682
 9352SOL    HW276896   6.759  13.178   1.569
 9353SOL     OW76897   5.294  15.462   7.766
 9353SOL    HW176898   5.386  15.472   7.804
 9353SOL    HW276899   5.235  15.534   7.802
 9354SOL     OW76900   1.329   2.949   7.723
 9354SOL    HW176901   1.315   2.949   7.822
 9354SOL    HW276902   1.364   2.860   7.694
 9355SOL     OW76903   4.877  11.965   1.890
 9355SOL    HW176904   4.878  12.063   1.909
 9355SOL    HW276905   4.862  11.950   1.792
 9356SOL     OW76906  13.708   6.281   1.827
 9356SOL    HW176907  13.671   6.347   1.761
 9356SOL    HW276908  13.779   6.324   1.882
 9357SOL     OW76909  10.415   7.062   0.651
 9357SOL    HW176910  10.464   7.110   0.724
 9357SOL    HW276911  10.372   7.128   0.590
 9358SOL     OW76912   4.546   2.093   7.232
 9358SOL    HW176913   4.465   2.068   7.284
 9358SOL    HW276914   4.565   2.022   7.164
 9359SOL     OW76915   0.672  11.388   6.927
 9359SOL    HW176916   0.766  11.355   6.928
 9359SOL    HW276917   0.631  11.369   6.838
 9360SOL     OW76918   6.998   8.460   7.866
 9360SOL    HW176919   6.987   8.552   7.904
 9360SOL    HW276920   7.067   8.411   7.918
 9361SOL     OW76921  12.442  10.632   8.115
 9361SOL    HW176922  12.393  10.623   8.028
 9361SOL    HW276923  12.392  10.583   8.186
 9362SOL     OW76924   0.209   3.207   8.002
 9362SOL    HW176925   0.230   3.117   7.964
 9362SOL    HW276926   0.197   3.199   8.101
 9363SOL     OW76927  13.940  12.073   0.002
 9363SOL    HW176928  13.847  12.047   8.429
 9363SOL    HW276929  13.937  12.146   0.069
 9364SOL     OW76930  15.673   0.299   1.304
 9364SOL    HW176931  15.752   0.275   1.247
 9364SOL    HW276932  15.598   0.331   1.246
 9365SOL     OW76933   8.771  12.428   1.846
 9365SOL    HW176934   8.718  12.412   1.929
 9365SOL    HW276935   8.736  12.370   1.772
 9366SOL     OW76936  13.996  14.403   7.497
 9366SOL    HW176937  13.927  14.474   7.486
 9366SOL    HW276938  14.028  14.372   7.407
 9367SOL     OW76939   6.750   3.654   7.491
 9367SOL    HW176940   6.778   3.744   7.457
 9367SOL    HW276941   6.772   3.647   7.589
 9368SOL     OW76942  14.373   6.849   1.513
 9368SOL    HW176943  14.406   6.865   1.420
 9368SOL    HW276944  14.372   6.750   1.531
 9369SOL     OW76945  14.211   6.797   8.126
 9369SOL    HW176946  14.171   6.754   8.207
 9369SOL    HW276947  14.155   6.777   8.046
 9370SOL     OW76948   4.554  14.548   1.713
 9370SOL    HW176949   4.555  14.564   1.812
 9370SOL    HW276950   4.603  14.463   1.693
 9371SOL     OW76951   3.908  15.241   0.302
 9371SOL    HW176952   3.948  15.149   0.308
 9371SOL    HW276953   3.834  15.241   0.235
 9372SOL     OW76954  16.587   4.387   0.274
 9372SOL    HW176955  16.686   4.404   0.269
 9372SOL    HW276956  16.569   4.313   0.339
 9373SOL     OW76957   9.462  11.670   6.740
 9373SOL    HW176958   9.469  11.586   6.687
 9373SOL    HW276959   9.506  11.745   6.691
 9374SOL     OW76960  10.916   7.612   1.930
 9374SOL    HW176961  10.842   7.618   1.863
 9374SOL    HW276962  10.942   7.704   1.959
 9375SOL     OW76963   7.589  15.637   1.290
 9375SOL    HW176964   7.544  15.652   1.377
 9375SOL    HW276965   7.614  15.725   1.249
 9376SOL     OW76966  14.501  10.238   8.352
 9376SOL    HW176967  14.557  10.318   8.329
 9376SOL    HW276968  14.484  10.236   8.450
 9377SOL     OW76969  14.527   6.755   6.489
 9377SOL    HW176970  14.430   6.757   6.464
 9377SOL    HW276971  14.583   6.764   6.406
 9378SOL     OW76972   9.778  11.411   7.702
 9378SOL    HW176973   9.726  11.375   7.779
 9378SOL    HW276974   9.729  11.390   7.617
 9379SOL     OW76975  10.157   3.323   1.341
 9379SOL    HW176976  10.105   3.238   1.332
 9379SOL    HW276977  10.095   3.398   1.360
 9380SOL     OW76978   0.659  11.803   7.828
 9380SOL    HW176979   0.705  11.717   7.803
 9380SOL    HW276980   0.568  11.805   7.786
 9381SOL     OW76981  15.631   5.281   8.432
 9381SOL    HW176982  15.670   5.334   0.054
 9381SOL    HW276983  15.538   5.252   0.003
 9382SOL     OW76984  11.980  10.034   1.117
 9382SOL    HW176985  12.017   9.944   1.140
 9382SOL    HW276986  11.973  10.090   1.200
 9383SOL     OW76987  15.560  15.204   0.664
 9383SOL    HW176988  15.497  15.178   0.736
 9383SOL    HW276989  15.568  15.304   0.661
 9384SOL     OW76990  12.341  14.022   1.271
 9384SOL    HW176991  12.295  13.967   1.340
 9384SOL    HW276992  12.439  14.002   1.272
 9385SOL     OW76993   7.020   6.290   0.871
 9385SOL    HW176994   7.117   6.282   0.895
 9385SOL    HW276995   6.986   6.200   0.842
 9386SOL     OW76996  13.683   4.213   0.651
 9386SOL    HW176997  13.645   4.291   0.602
 9386SOL    HW276998  13.684   4.133   0.591
 9387SOL     OW76999   3.392  12.199   0.108
 9387SOL    HW177000   3.309  12.245   0.079
 9387SOL    HW277001   3.411  12.121   0.049
 9388SOL     OW77002   8.871  16.571   0.260
 9388SOL    HW177003   8.849  16.614   0.347
 9388SOL    HW277004   8.950  16.616   0.219
 9389SOL     OW77005  13.638   8.278   6.649
 9389SOL    HW177006  13.644   8.231   6.561
 9389SOL    HW277007  13.706   8.351   6.653
 9390SOL     OW77008   4.347  14.983   7.055
 9390SOL    HW177009   4.294  14.900   7.038
 9390SOL    HW277010   4.398  15.007   6.972
 9391SOL     OW77011   6.359   5.981   1.452
 9391SOL    HW177012   6.416   6.051   1.410
 9391SOL    HW277013   6.414   5.927   1.516
 9392SOL     OW77014   8.709   2.513   7.560
 9392SOL    HW177015   8.709   2.517   7.660
 9392SOL    HW277016   8.660   2.431   7.530
 9393SOL     OW77017  12.127   8.827   6.007
 9393SOL    HW177018  12.123   8.737   6.050
 9393SOL    HW277019  12.208   8.832   5.948
 9394SOL     OW77020   6.966   2.514   7.168
 9394SOL    HW177021   6.914   2.560   7.240
 9394SOL    HW277022   6.938   2.549   7.079
 9395SOL     OW77023  10.785   0.972   7.546
 9395SOL    HW177024  10.849   0.982   7.470
 9395SOL    HW277025  10.776   1.060   7.593
 9396SOL     OW77026  16.942   4.459   0.020
 9396SOL    HW177027  16.917   4.445   0.116
 9396SOL    HW277028  16.859   4.472   8.420
 9397SOL     OW77029  10.058   0.973   7.982
 9397SOL    HW177030  10.063   0.916   7.900
 9397SOL    HW277031   9.969   1.019   7.985
 9398SOL     OW77032   0.548   5.373   6.079
 9398SOL    HW177033   0.514   5.352   5.987
 9398SOL    HW277034   0.635   5.422   6.072
 9399SOL     OW77035   7.869  16.357   1.301
 9399SOL    HW177036   7.900  16.408   1.221
 9399SOL    HW277037   7.942  16.295   1.331
 9400SOL     OW77038   4.999  14.540   0.154
 9400SOL    HW177039   4.903  14.565   0.147
 9400SOL    HW277040   5.008  14.458   0.211
 9401SOL     OW77041   9.869   3.104   7.284
 9401SOL    HW177042   9.958   3.122   7.326
 9401SOL    HW277043   9.882   3.073   7.190
 9402SOL     OW77044   4.247   9.057   8.452
 9402SOL    HW177045   4.309   9.009   0.060
 9402SOL    HW277046   4.300   9.099   8.378
 9403SOL     OW77047   8.714  14.391   7.154
 9403SOL    HW177048   8.728  14.434   7.243
 9403SOL    HW277049   8.644  14.440   7.104
 9404SOL     OW77050  16.178  15.559   7.831
 9404SOL    HW177051  16.152  15.598   7.919
 9404SOL    HW277052  16.104  15.574   7.765
 9405SOL     OW77053   5.548  12.921   6.712
 9405SOL    HW177054   5.566  12.826   6.688
 9405SOL    HW277055   5.450  12.934   6.727
 9406SOL     OW77056   3.732   5.856   2.222
 9406SOL    HW177057   3.831   5.844   2.222
 9406SOL    HW277058   3.695   5.831   2.133
 9407SOL     OW77059   7.535  10.845   8.015
 9407SOL    HW177060   7.546  10.818   7.919
 9407SOL    HW277061   7.601  10.917   8.037
 9408SOL     OW77062  16.823   1.276   1.133
 9408SOL    HW177063  16.920   1.293   1.114
 9408SOL    HW277064  16.771   1.361   1.120
 9409SOL     OW77065   7.015   1.872   7.972
 9409SOL    HW177066   7.070   1.796   7.938
 9409SOL    HW277067   7.015   1.872   8.072
 9410SOL     OW77068   1.396  13.495   2.293
 9410SOL    HW177069   1.420  13.499   2.196
 9410SOL    HW277070   1.456  13.429   2.339
 9411SOL     OW77071  16.637  10.772   0.337
 9411SOL    HW177072  16.586  10.829   0.273
 9411SOL    HW277073  16.587  10.766   0.424
 9412SOL     OW77074  11.749  12.159   1.595
 9412SOL    HW177075  11.738  12.254   1.567
 9412SOL    HW277076  11.701  12.144   1.681
 9413SOL     OW77077   7.809   0.942   1.011
 9413SOL    HW177078   7.803   0.925   1.109
 9413SOL    HW277079   7.793   0.856   0.961
 9414SOL     OW77080  13.255   3.133   0.629
 9414SOL    HW177081  13.188   3.123   0.556
 9414SOL    HW277082  13.341   3.089   0.601
 9415SOL     OW77083  15.173   4.591   8.402
 9415SOL    HW177084  15.083   4.571   8.439
 9415SOL    HW277085  15.170   4.678   8.352
 9416SOL     OW77086  12.875   3.426   0.119
 9416SOL    HW177087  12.788   3.379   0.103
 9416SOL    HW277088  12.940   3.402   0.047
 9417SOL     OW77089   6.253   9.622   7.665
 9417SOL    HW177090   6.160   9.617   7.702
 9417SOL    HW277091   6.319   9.602   7.738
 9418SOL     OW77092  14.677  16.234   0.153
 9418SOL    HW177093  14.596  16.195   0.108
 9418SOL    HW277094  14.648  16.307   0.215
 9419SOL     OW77095   6.372   6.580   6.731
 9419SOL    HW177096   6.416   6.606   6.645
 9419SOL    HW277097   6.387   6.651   6.799
 9420SOL     OW77098  15.334  16.610   0.148
 9420SOL    HW177099  15.374  16.646   0.232
 9420SOL    HW277100  15.277  16.530   0.170
 9421SOL     OW77101  12.131   8.064   0.386
 9421SOL    HW177102  12.107   8.108   0.473
 9421SOL    HW277103  12.221   8.096   0.356
 9422SOL     OW77104   0.231   2.312   1.387
 9422SOL    HW177105   0.217   2.340   1.482
 9422SOL    HW277106   0.145   2.318   1.337
 9423SOL     OW77107   0.123   3.537   0.149
 9423SOL    HW177108   0.123   3.514   0.246
 9423SOL    HW277109   0.081   3.627   0.137
 9424SOL     OW77110   4.925   1.461   8.044
 9424SOL    HW177111   5.012   1.412   8.050
 9424SOL    HW277112   4.942   1.559   8.036
 9425SOL     OW77113  10.259  15.774   6.784
 9425SOL    HW177114  10.287  15.725   6.866
 9425SOL    HW277115  10.322  15.752   6.709
 9426SOL     OW77116  14.533  13.511   6.777
 9426SOL    HW177117  14.521  13.529   6.679
 9426SOL    HW277118  14.617  13.556   6.808
 9427SOL     OW77119   9.464  11.146   7.078
 9427SOL    HW177120   9.495  11.062   7.034
 9427SOL    HW277121   9.478  11.223   7.016
 9428SOL     OW77122   1.367  12.995   1.686
 9428SOL    HW177123   1.338  12.899   1.688
 9428SOL    HW277124   1.378  13.024   1.591
 9429SOL     OW77125  13.796   0.300   0.144
 9429SOL    HW177126  13.780   0.302   0.243
 9429SOL    HW277127  13.837   0.386   0.115
 9430SOL     OW77128  12.572   6.864   6.629
 9430SOL    HW177129  12.603   6.769   6.635
 9430SOL    HW277130  12.555   6.889   6.534
 9431SOL     OW77131  15.739  11.530   0.102
 9431SOL    HW177132  15.771  11.618   0.140
 9431SOL    HW277133  15.760  11.457   0.166
 9432SOL     OW77134   8.290   3.290   1.651
 9432SOL    HW177135   8.357   3.251   1.715
 9432SOL    HW277136   8.257   3.378   1.686
 9433SOL     OW77137   4.675   9.083   1.939
 9433SOL    HW177138   4.688   9.065   2.036
 9433SOL    HW277139   4.758   9.124   1.901
 9434SOL     OW77140  13.088   2.979   6.500
 9434SOL    HW177141  13.082   2.995   6.402
 9434SOL    HW277142  13.079   3.067   6.548
 9435SOL     OW77143  15.758   8.782   7.529
 9435SOL    HW177144  15.833   8.847   7.534
 9435SOL    HW277145  15.734   8.764   7.433
 9436SOL     OW77146  16.600  11.177   1.542
 9436SOL    HW177147  16.528  11.176   1.612
 9436SOL    HW277148  16.689  11.168   1.587
 9437SOL     OW77149  12.911   4.494   0.335
 9437SOL    HW177150  12.912   4.534   0.244
 9437SOL    HW277151  12.838   4.426   0.341
 9438SOL     OW77152  16.021  10.083   2.192
 9438SOL    HW177153  16.001  10.002   2.247
 9438SOL    HW277154  16.072  10.056   2.111
 9439SOL     OW77155   6.458   5.548   1.487
 9439SOL    HW177156   6.414   5.533   1.399
 9439SOL    HW277157   6.486   5.460   1.526
 9440SOL     OW77158   3.966   2.721   6.747
 9440SOL    HW177159   3.993   2.717   6.651
 9440SOL    HW277160   3.941   2.815   6.770
 9441SOL     OW77161  11.224   1.559   1.055
 9441SOL    HW177162  11.165   1.512   0.990
 9441SOL    HW277163  11.315   1.517   1.054
 9442SOL     OW77164   0.382  11.747   7.725
 9442SOL    HW177165   0.422  11.658   7.701
 9442SOL    HW277166   0.287  11.750   7.693
 9443SOL     OW77167   2.188  12.150   0.055
 9443SOL    HW177168   2.089  12.134   0.058
 9443SOL    HW277169   2.236  12.069   0.089
 9444SOL     OW77170   7.517   3.643   8.297
 9444SOL    HW177171   7.418   3.636   8.281
 9444SOL    HW277172   7.533   3.686   8.386
 9445SOL     OW77173   5.361   3.901   6.815
 9445SOL    HW177174   5.438   3.856   6.770
 9445SOL    HW277175   5.293   3.928   6.747
 9446SOL     OW77176   4.465  14.920   7.290
 9446SOL    HW177177   4.553  14.965   7.300
 9446SOL    HW277178   4.423  14.949   7.204
 9447SOL     OW77179   4.933  11.810   0.328
 9447SOL    HW177180   4.922  11.748   0.250
 9447SOL    HW277181   4.882  11.774   0.406
 9448SOL     OW77182  16.938   5.512   1.047
 9448SOL    HW177183   0.014   5.590   1.026
 9448SOL    HW277184   0.011   5.434   1.075
 9449SOL     OW77185   0.945   3.323   6.178
 9449SOL    HW177186   0.889   3.265   6.118
 9449SOL    HW277187   0.888   3.393   6.220
 9450SOL     OW77188   7.672  12.670   1.266
 9450SOL    HW177189   7.711  12.761   1.281
 9450SOL    HW277190   7.746  12.604   1.250
 9451SOL     OW77191   9.242   1.155   1.874
 9451SOL    HW177192   9.230   1.129   1.970
 9451SOL    HW277193   9.325   1.112   1.838
 9452SOL     OW77194  13.234   0.965   1.334
 9452SOL    HW177195  13.138   0.944   1.352
 9452SOL    HW277196  13.272   1.018   1.409
 9453SOL     OW77197  10.128   7.339   1.111
 9453SOL    HW177198  10.077   7.401   1.052
 9453SOL    HW277199  10.069   7.309   1.187
 9454SOL     OW77200   0.489  12.776   1.171
 9454SOL    HW177201   0.533  12.817   1.091
 9454SOL    HW277202   0.396  12.749   1.148
 9455SOL     OW77203   6.284   8.976   1.707
 9455SOL    HW177204   6.254   8.884   1.681
 9455SOL    HW277205   6.222   9.013   1.776
 9456SOL     OW77206   5.587   6.770   1.804
 9456SOL    HW177207   5.539   6.689   1.839
 9456SOL    HW277208   5.558   6.786   1.709
 9457SOL     OW77209   8.333  10.506   1.536
 9457SOL    HW177210   8.243  10.515   1.495
 9457SOL    HW277211   8.345  10.413   1.572
 9458SOL     OW77212   7.141  14.035   0.199
 9458SOL    HW177213   7.130  13.950   0.147
 9458SOL    HW277214   7.203  14.019   0.276
 9459SOL     OW77215   8.291   8.308   8.063
 9459SOL    HW177216   8.205   8.284   8.107
 9459SOL    HW277217   8.362   8.242   8.090
 9460SOL     OW77218  16.796  15.724   0.731
 9460SOL    HW177219  16.859  15.648   0.715
 9460SOL    HW277220  16.703  15.689   0.736
 9461SOL     OW77221   8.513  14.039   1.306
 9461SOL    HW177222   8.487  13.942   1.311
 9461SOL    HW277223   8.501  14.072   1.212
 9462SOL     OW77224   6.060  14.718   7.576
 9462SOL    HW177225   5.965  14.733   7.549
 9462SOL    HW277226   6.074  14.621   7.598
 9463SOL     OW77227  15.121  10.743   0.335
 9463SOL    HW177228  15.159  10.738   0.243
 9463SOL    HW277229  15.191  10.714   0.401
 9464SOL     OW77230  14.701   7.238   1.260
 9464SOL    HW177231  14.763   7.223   1.338
 9464SOL    HW277232  14.693   7.337   1.243
 9465SOL     OW77233   1.705  10.174   8.337
 9465SOL    HW177234   1.680  10.188   8.241
 9465SOL    HW277235   1.735  10.080   8.351
 9466SOL     OW77236   0.982   9.511   0.916
 9466SOL    HW177237   1.066   9.530   0.967
 9466SOL    HW277238   0.905   9.559   0.960
 9467SOL     OW77239   9.531  16.143   1.846
 9467SOL    HW177240   9.561  16.225   1.894
 9467SOL    HW277241   9.576  16.063   1.886
 9468SOL     OW77242   5.285  15.005   0.541
 9468SOL    HW177243   5.255  14.909   0.541
 9468SOL    HW277244   5.382  15.010   0.564
 9469SOL     OW77245  15.320   5.518   6.309
 9469SOL    HW177246  15.329   5.492   6.213
 9469SOL    HW277247  15.334   5.438   6.367
 9470SOL     OW77248  15.015   0.660   8.366
 9470SOL    HW177249  14.922   0.643   8.333
 9470SOL    HW277250  15.021   0.637   0.009
 9471SOL     OW77251   3.456   4.700   6.276
 9471SOL    HW177252   3.474   4.602   6.270
 9471SOL    HW277253   3.458   4.741   6.185
 9472SOL     OW77254  14.081   9.644   1.153
 9472SOL    HW177255  14.049   9.586   1.227
 9472SOL    HW277256  14.132   9.722   1.190
 9473SOL     OW77257   6.251   1.996   1.603
 9473SOL    HW177258   6.195   1.962   1.679
 9473SOL    HW277259   6.214   1.961   1.517
 9474SOL     OW77260   6.708   0.892   8.328
 9474SOL    HW177261   6.675   0.984   8.308
 9474SOL    HW277262   6.743   0.889   8.422
 9475SOL     OW77263  13.025   9.297   0.989
 9475SOL    HW177264  13.052   9.239   0.911
 9475SOL    HW277265  12.995   9.386   0.955
 9476SOL     OW77266   8.289  12.139   0.231
 9476SOL    HW177267   8.201  12.185   0.229
 9476SOL    HW277268   8.279  12.049   0.274
 9477SOL     OW77269  15.945   6.912   7.756
 9477SOL    HW177270  15.848   6.934   7.745
 9477SOL    HW277271  15.978   6.864   7.675
 9478SOL     OW77272  16.096   2.604   5.682
 9478SOL    HW177273  16.148   2.641   5.605
 9478SOL    HW277274  16.061   2.514   5.658
 9479SOL     OW77275   4.536  10.431   0.581
 9479SOL    HW177276   4.531  10.434   0.481
 9479SOL    HW277277   4.532  10.336   0.612
 9480SOL     OW77278  11.991   6.509   8.044
 9480SOL    HW177279  11.992   6.550   8.135
 9480SOL    HW277280  11.926   6.433   8.042
 9481SOL     OW77281  15.283  11.927   7.328
 9481SOL    HW177282  15.335  11.941   7.243
 9481SOL    HW277283  15.187  11.946   7.311
 9482SOL     OW77284   7.945   6.328   7.403
 9482SOL    HW177285   7.999   6.296   7.324
 9482SOL    HW277286   8.006   6.366   7.472
 9483SOL     OW77287   8.523   7.724   8.374
 9483SOL    HW177288   8.548   7.808   8.421
 9483SOL    HW277289   8.452   7.743   8.307
 9484SOL     OW77290   1.985  12.545   8.398
 9484SOL    HW177291   1.967  12.609   8.323
 9484SOL    HW277292   2.043  12.590   0.012
 9485SOL     OW77293  15.245  13.293   0.142
 9485SOL    HW177294  15.236  13.378   0.091
 9485SOL    HW277295  15.334  13.252   0.124
 9486SOL     OW77296   0.710  12.616   7.627
 9486SOL    HW177297   0.734  12.713   7.619
 9486SOL    HW277298   0.744  12.581   7.714
 9487SOL     OW77299  16.824   7.640   1.450
 9487SOL    HW177300  16.864   7.602   1.367
 9487SOL    HW277301  16.894   7.650   1.519
 9488SOL     OW77302   8.098   4.281   1.168
 9488SOL    HW177303   8.001   4.307   1.165
 9488SOL    HW277304   8.130   4.283   1.263
 9489SOL     OW77305   2.725  10.716   1.003
 9489SOL    HW177306   2.637  10.690   0.964
 9489SOL    HW277307   2.712  10.784   1.074
 9490SOL     OW77308   0.941  16.238   1.190
 9490SOL    HW177309   0.963  16.263   1.284
 9490SOL    HW277310   0.842  16.232   1.178
 9491SOL     OW77311  12.620   4.012   7.677
 9491SOL    HW177312  12.644   3.918   7.653
 9491SOL    HW277313  12.528   4.032   7.644
 9492SOL     OW77314   6.295   6.651   0.158
 9492SOL    HW177315   6.207   6.605   0.159
 9492SOL    HW277316   6.361   6.599   0.211
 9493SOL     OW77317   1.255   0.487   0.655
 9493SOL    HW177318   1.275   0.408   0.598
 9493SOL    HW277319   1.311   0.485   0.737
 9494SOL     OW77320  10.123  12.355   1.272
 9494SOL    HW177321  10.158  12.335   1.181
 9494SOL    HW277322  10.084  12.272   1.311
 9495SOL     OW77323  14.121   8.228   7.682
 9495SOL    HW177324  14.221   8.235   7.674
 9495SOL    HW277325  14.094   8.133   7.665
 9496SOL     OW77326   2.873   5.996   0.836
 9496SOL    HW177327   2.800   5.957   0.892
 9496SOL    HW277328   2.939   6.042   0.896
 9497SOL     OW77329  15.660  15.464   0.315
 9497SOL    HW177330  15.676  15.523   0.236
 9497SOL    HW277331  15.714  15.498   0.393
 9498SOL     OW77332   8.893  12.485   1.544
 9498SOL    HW177333   8.883  12.500   1.445
 9498SOL    HW277334   8.980  12.523   1.575
 9499SOL     OW77335   5.525  10.627   0.280
 9499SOL    HW177336   5.567  10.683   0.351
 9499SOL    HW277337   5.444  10.581   0.317
 9500SOL     OW77338  14.394   6.196   7.762
 9500SOL    HW177339  14.473   6.135   7.766
 9500SOL    HW277340  14.405   6.260   7.685
 9501SOL     OW77341   3.196  16.642   2.290
 9501SOL    HW177342   3.154  16.560   2.252
 9501SOL    HW277343   3.286  16.619   2.328
 9502SOL     OW77344   4.041   5.835   0.841
 9502SOL    HW177345   3.973   5.817   0.769
 9502SOL    HW277346   4.119   5.882   0.801
 9503SOL     OW77347   9.257   9.684   1.739
 9503SOL    HW177348   9.209   9.770   1.722
 9503SOL    HW277349   9.233   9.651   1.831
 9504SOL     OW77350  16.308  12.644   2.146
 9504SOL    HW177351  16.394  12.608   2.182
 9504SOL    HW277352  16.318  12.742   2.129
 9505SOL     OW77353  15.608  16.755   7.515
 9505SOL    HW177354  15.592  16.657   7.518
 9505SOL    HW277355  15.641  16.786   7.604
 9506SOL     OW77356  11.764   2.810   0.670
 9506SOL    HW177357  11.752   2.909   0.660
 9506SOL    HW277358  11.750   2.784   0.765
 9507SOL     OW77359   5.171   7.718   1.725
 9507SOL    HW177360   5.213   7.804   1.752
 9507SOL    HW277361   5.240   7.645   1.727
 9508SOL     OW77362  12.882   8.525   0.069
 9508SOL    HW177363  12.822   8.478   0.005
 9508SOL    HW277364  12.936   8.458   0.119
 9509SOL     OW77365   8.074  10.946   7.685
 9509SOL    HW177366   8.118  10.937   7.774
 9509SOL    HW277367   8.119  10.886   7.619
 9510SOL     OW77368   8.332  13.694   7.867
 9510SOL    HW177369   8.256  13.721   7.808
 9510SOL    HW277370   8.338  13.757   7.945
 9511SOL     OW77371   2.423  15.242   6.971
 9511SOL    HW177372   2.327  15.253   6.995
 9511SOL    HW277373   2.448  15.306   6.898
 9512SOL     OW77374   6.530   9.323   7.202
 9512SOL    HW177375   6.573   9.365   7.122
 9512SOL    HW277376   6.511   9.227   7.183
 9513SOL     OW77377  10.632   9.675   7.276
 9513SOL    HW177378  10.677   9.709   7.359
 9513SOL    HW277379  10.565   9.605   7.301
 9514SOL     OW77380   7.791   5.247   1.528
 9514SOL    HW177381   7.865   5.229   1.593
 9514SOL    HW277382   7.735   5.166   1.517
 9515SOL     OW77383   1.502  10.084   0.059
 9515SOL    HW177384   1.429  10.043   0.003
 9515SOL    HW277385   1.562  10.138   0.000
 9516SOL     OW77386   0.714  15.287   0.685
 9516SOL    HW177387   0.810  15.309   0.702
 9516SOL    HW277388   0.656  15.342   0.745
 9517SOL     OW77389  14.097  15.294   1.081
 9517SOL    HW177390  14.102  15.314   0.983
 9517SOL    HW277391  14.111  15.197   1.096
 9518SOL     OW77392  11.873  14.050   1.421
 9518SOL    HW177393  11.931  14.066   1.501
 9518SOL    HW277394  11.916  14.090   1.340
 9519SOL     OW77395  11.841  16.894   8.379
 9519SOL    HW177396  11.915  16.833   8.350
 9519SOL    HW277397  11.781  16.913   8.301
 9520SOL     OW77398   5.663  12.835   0.043
 9520SOL    HW177399   5.604  12.758   0.020
 9520SOL    HW277400   5.631  12.879   0.126
 9521SOL     OW77401   5.572   4.352   1.501
 9521SOL    HW177402   5.474   4.330   1.500
 9521SOL    HW277403   5.624   4.273   1.469
 9522SOL     OW77404   0.851  15.541   7.907
 9522SOL    HW177405   0.767  15.585   7.938
 9522SOL    HW277406   0.829  15.455   7.861
 9523SOL     OW77407   0.049   1.090   0.105
 9523SOL    HW177408   0.061   1.035   0.188
 9523SOL    HW277409   0.131   1.084   0.049
 9524SOL     OW77410   0.270   7.399   7.830
 9524SOL    HW177411   0.239   7.491   7.851
 9524SOL    HW277412   0.285   7.348   7.915
 9525SOL     OW77413  16.861  15.564   8.259
 9525SOL    HW177414  16.856  15.581   8.160
 9525SOL    HW277415  16.956  15.550   8.285
 9526SOL     OW77416   4.311   4.720   2.001
 9526SOL    HW177417   4.330   4.730   2.099
 9526SOL    HW277418   4.212   4.721   1.986
 9527SOL     OW77419   7.242  11.715   0.777
 9527SOL    HW177420   7.203  11.624   0.770
 9527SOL    HW277421   7.283  11.741   0.690
 9528SOL     OW77422   6.702  12.585   7.768
 9528SOL    HW177423   6.729  12.568   7.673
 9528SOL    HW277424   6.772  12.548   7.829
 9529SOL     OW77425  10.045   0.618   0.504
 9529SOL    HW177426  10.067   0.529   0.466
 9529SOL    HW277427  10.091   0.690   0.452
 9530SOL     OW77428  10.220   3.321   5.782
 9530SOL    HW177429  10.287   3.270   5.729
 9530SOL    HW277430  10.205   3.410   5.740
 9531SOL     OW77431  13.405   2.906   6.293
 9531SOL    HW177432  13.457   2.822   6.308
 9531SOL    HW277433  13.322   2.885   6.243
 9532SOL     OW77434  13.885   7.887   0.433
 9532SOL    HW177435  13.822   7.844   0.497
 9532SOL    HW277436  13.974   7.902   0.478
 9533SOL     OW77437  12.730   2.678   7.574
 9533SOL    HW177438  12.794   2.709   7.504
 9533SOL    HW277439  12.776   2.616   7.637
 9534SOL     OW77440  13.091  16.982   0.304
 9534SOL    HW177441  13.050   0.084   0.272
 9534SOL    HW277442  13.173  16.963   0.249
 9535SOL     OW77443  16.234  12.386   1.657
 9535SOL    HW177444  16.264  12.347   1.744
 9535SOL    HW277445  16.136  12.371   1.646
 9536SOL     OW77446   6.499  15.594   7.477
 9536SOL    HW177447   6.476  15.689   7.499
 9536SOL    HW277448   6.471  15.574   7.383
 9537SOL     OW77449   9.180   1.240   7.868
 9537SOL    HW177450   9.226   1.167   7.918
 9537SOL    HW277451   9.163   1.317   7.930
 9538SOL     OW77452  10.472   4.862   8.382
 9538SOL    HW177453  10.487   4.840   8.285
 9538SOL    HW277454  10.417   4.946   8.388
 9539SOL     OW77455   4.365   9.619   1.681
 9539SOL    HW177456   4.417   9.553   1.736
 9539SOL    HW277457   4.326   9.689   1.742
 9540SOL     OW77458  11.610   2.299   7.239
 9540SOL    HW177459  11.581   2.209   7.271
 9540SOL    HW277460  11.667   2.342   7.308
 9541SOL     OW77461  11.058  11.479   1.052
 9541SOL    HW177462  10.980  11.540   1.053
 9541SOL    HW277463  11.080  11.451   1.146
 9542SOL     OW77464   2.495   6.767   7.079
 9542SOL    HW177465   2.425   6.789   7.147
 9542SOL    HW277466   2.479   6.822   6.996
 9543SOL     OW77467   0.105   0.875   0.772
 9543SOL    HW177468   0.160   0.958   0.776
 9543SOL    HW277469   0.034   0.879   0.842
 9544SOL     OW77470  11.982   1.911   6.877
 9544SOL    HW177471  11.891   1.900   6.835
 9544SOL    HW277472  11.983   1.866   6.966
 9545SOL     OW77473  15.900  11.787   8.383
 9545SOL    HW177474  15.996  11.818   8.379
 9545SOL    HW277475  15.865  11.800   0.022
 9546SOL     OW77476  16.701   6.644   6.535
 9546SOL    HW177477  16.670   6.591   6.613
 9546SOL    HW277478  16.647   6.621   6.454
 9547SOL     OW77479   9.756  16.860   7.745
 9547SOL    HW177480   9.739  16.948   7.701
 9547SOL    HW277481   9.673  16.804   7.741
 9548SOL     OW77482  15.619  12.340   8.153
 9548SOL    HW177483  15.633  12.266   8.087
 9548SOL    HW277484  15.535  12.323   8.205
 9549SOL     OW77485   8.555   6.668   0.426
 9549SOL    HW177486   8.652   6.647   0.442
 9549SOL    HW277487   8.504   6.651   0.510
 9550SOL     OW77488   3.179  16.297   8.101
 9550SOL    HW177489   3.174  16.397   8.103
 9550SOL    HW277490   3.244  16.265   8.170
 9551SOL     OW77491   2.725  13.847   1.140
 9551SOL    HW177492   2.716  13.775   1.208
 9551SOL    HW277493   2.816  13.845   1.100
 9552SOL     OW77494   6.382  10.474   0.518
 9552SOL    HW177495   6.381  10.409   0.593
 9552SOL    HW277496   6.288  10.497   0.492
 9553SOL     OW77497  16.880   7.664   0.917
 9553SOL    HW177498  16.853   7.742   0.975
 9553SOL    HW277499  16.953   7.693   0.854
 9554SOL     OW77500  13.321   0.768   1.662
 9554SOL    HW177501  13.319   0.856   1.709
 9554SOL    HW277502  13.230   0.726   1.666
 9555SOL     OW77503   4.981   2.629   1.730
 9555SOL    HW177504   4.953   2.535   1.711
 9555SOL    HW277505   5.059   2.652   1.673
 9556SOL     OW77506  14.197  10.251   6.501
 9556SOL    HW177507  14.190  10.315   6.577
 9556SOL    HW277508  14.206  10.303   6.415
 9557SOL     OW77509   8.481   5.362   1.631
 9557SOL    HW177510   8.387   5.333   1.645
 9557SOL    HW277511   8.530   5.291   1.580
 9558SOL     OW77512  11.265   4.282   6.372
 9558SOL    HW177513  11.242   4.357   6.433
 9558SOL    HW277514  11.185   4.258   6.317
 9559SOL     OW77515  10.888   8.127   0.508
 9559SOL    HW177516  10.816   8.186   0.545
 9559SOL    HW277517  10.894   8.138   0.409
 9560SOL     OW77518   9.581   0.600   6.242
 9560SOL    HW177519   9.573   0.696   6.214
 9560SOL    HW277520   9.678   0.573   6.241
 9561SOL     OW77521  10.311   0.231   0.470
 9561SOL    HW177522  10.308   0.133   0.492
 9561SOL    HW277523  10.387   0.249   0.408
 9562SOL     OW77524   0.069  13.539   7.133
 9562SOL    HW177525   0.102  13.512   7.042
 9562SOL    HW277526   0.079  13.462   7.196
 9563SOL     OW77527   2.830   4.415   7.524
 9563SOL    HW177528   2.916   4.459   7.498
 9563SOL    HW277529   2.848   4.345   7.594
 9564SOL     OW77530  13.112   6.748   2.173
 9564SOL    HW177531  13.014   6.764   2.173
 9564SOL    HW277532  13.155   6.810   2.108
 9565SOL     OW77533   6.775  15.436   8.133
 9565SOL    HW177534   6.699  15.381   8.169
 9565SOL    HW277535   6.754  15.464   8.039
 9566SOL     OW77536  16.105  10.261   8.009
 9566SOL    HW177537  16.194  10.227   8.041
 9566SOL    HW277538  16.117  10.352   7.970
 9567SOL     OW77539   7.471  12.169   1.488
 9567SOL    HW177540   7.381  12.141   1.521
 9567SOL    HW277541   7.476  12.155   1.389
 9568SOL     OW77542  14.959   3.070   6.684
 9568SOL    HW177543  14.993   3.140   6.747
 9568SOL    HW277544  14.968   2.980   6.727
 9569SOL     OW77545  14.555  10.862   7.019
 9569SOL    HW177546  14.477  10.898   7.068
 9569SOL    HW277547  14.563  10.764   7.036
 9570SOL     OW77548   8.497  15.580   0.427
 9570SOL    HW177549   8.413  15.623   0.393
 9570SOL    HW277550   8.564  15.573   0.353
 9571SOL     OW77551   1.579   2.458   7.196
 9571SOL    HW177552   1.501   2.412   7.155
 9571SOL    HW277553   1.552   2.501   7.282
 9572SOL     OW77554  15.657   9.649   1.803
 9572SOL    HW177555  15.580   9.697   1.760
 9572SOL    HW277556  15.638   9.635   1.900
 9573SOL     OW77557   9.948   5.943   1.117
 9573SOL    HW177558   9.984   6.008   1.050
 9573SOL    HW277559   9.896   5.992   1.187
 9574SOL     OW77560  12.792  15.025   8.401
 9574SOL    HW177561  12.775  15.123   8.397
 9574SOL    HW277562  12.705  14.977   8.409
 9575SOL     OW77563   0.174   3.212   8.278
 9575SOL    HW177564   0.215   3.295   8.316
 9575SOL    HW277565   0.193   3.135   8.338
 9576SOL     OW77566   0.881  16.565   1.387
 9576SOL    HW177567   0.926  16.479   1.412
 9576SOL    HW277568   0.809  16.546   1.321
 9577SOL     OW77569   9.942   6.409   6.521
 9577SOL    HW177570   9.985   6.403   6.431
 9577SOL    HW277571   9.842   6.403   6.512
 9578SOL     OW77572  11.143   8.969   0.026
 9578SOL    HW177573  11.163   8.938   8.387
 9578SOL    HW277574  11.052   8.937   0.053
 9579SOL     OW77575  16.531   3.401   0.683
 9579SOL    HW177576  16.460   3.456   0.727
 9579SOL    HW277577  16.554   3.323   0.741
 9580SOL     OW77578  14.857  14.792   7.369
 9580SOL    HW177579  14.790  14.864   7.385
 9580SOL    HW277580  14.921  14.822   7.298
 9581SOL     OW77581   7.187   5.136   0.689
 9581SOL    HW177582   7.154   5.166   0.599
 9581SOL    HW277583   7.280   5.100   0.680
 9582SOL     OW77584   5.631  15.215   2.074
 9582SOL    HW177585   5.591  15.243   2.161
 9582SOL    HW277586   5.674  15.293   2.030
 9583SOL     OW77587  13.894   2.187   1.422
 9583SOL    HW177588  13.903   2.087   1.417
 9583SOL    HW277589  13.956   2.223   1.491
 9584SOL     OW77590   7.155  16.892   2.013
 9584SOL    HW177591   7.072  16.840   2.033
 9584SOL    HW277592   7.155  16.976   2.067
 9585SOL     OW77593   2.722  11.087   1.788
 9585SOL    HW177594   2.665  11.094   1.869
 9585SOL    HW277595   2.672  11.121   1.708
 9586SOL     OW77596  13.478   0.589   7.338
 9586SOL    HW177597  13.453   0.633   7.424
 9586SOL    HW277598  13.561   0.535   7.350
 9587SOL     OW77599  11.086   2.864   6.977
 9587SOL    HW177600  11.063   2.957   7.006
 9587SOL    HW277601  11.034   2.841   6.894
 9588SOL     OW77602   7.368   9.066   1.026
 9588SOL    HW177603   7.462   9.059   1.058
 9588SOL    HW277604   7.307   9.020   1.092
 9589SOL     OW77605   5.688  10.515   0.092
 9589SOL    HW177606   5.685  10.587   0.022
 9589SOL    HW277607   5.633  10.542   0.170
 9590SOL     OW77608   2.063   3.145   8.168
 9590SOL    HW177609   2.007   3.068   8.139
 9590SOL    HW277610   2.101   3.127   8.259
 9591SOL     OW77611   6.398   1.551   1.228
 9591SOL    HW177612   6.480   1.533   1.174
 9591SOL    HW277613   6.388   1.649   1.243
 9592SOL     OW77614  13.581   1.823   6.039
 9592SOL    HW177615  13.599   1.916   6.009
 9592SOL    HW277616  13.590   1.760   5.962
 9593SOL     OW77617   8.201   6.420   2.213
 9593SOL    HW177618   8.186   6.337   2.159
 9593SOL    HW277619   8.298   6.440   2.219
 9594SOL     OW77620  14.170   9.521   2.804
 9594SOL    HW177621  14.132   9.537   2.713
 9594SOL    HW277622  14.113   9.568   2.872
 9595SOL     OW77623   6.279   1.054   0.628
 9595SOL    HW177624   6.199   1.099   0.668
 9595SOL    HW277625   6.325   1.118   0.566
 9596SOL     OW77626   5.116   9.754   7.788
 9596SOL    HW177627   5.057   9.674   7.800
 9596SOL    HW277628   5.140   9.792   7.877
 9597SOL     OW77629  14.795   3.603   6.292
 9597SOL    HW177630  14.880   3.656   6.285
 9597SOL    HW277631  14.733   3.629   6.218
 9598SOL     OW77632  16.382   9.116   8.434
 9598SOL    HW177633  16.288   9.148   8.444
 9598SOL    HW277634  16.384   9.036   8.374
 9599SOL     OW77635  12.731  13.030   0.765
 9599SOL    HW177636  12.741  13.117   0.716
 9599SOL    HW277637  12.638  12.995   0.750
 9600SOL     OW77638  10.631   0.716   1.479
 9600SOL    HW177639  10.681   0.773   1.545
 9600SOL    HW277640  10.679   0.629   1.467
 9601SOL     OW77641  10.493   2.634   1.186
 9601SOL    HW177642  10.516   2.694   1.109
 9601SOL    HW277643  10.463   2.689   1.263
 9602SOL     OW77644  14.500   9.160   1.834
 9602SOL    HW177645  14.491   9.255   1.806
 9602SOL    HW277646  14.498   9.154   1.934
 9603SOL     OW77647  14.790   1.659   7.468
 9603SOL    HW177648  14.744   1.609   7.395
 9603SOL    HW277649  14.788   1.757   7.448
 9604SOL     OW77650   6.734   7.629   2.075
 9604SOL    HW177651   6.722   7.707   2.137
 9604SOL    HW277652   6.826   7.593   2.085
 9605SOL     OW77653   2.749   0.787   0.793
 9605SOL    HW177654   2.698   0.739   0.865
 9605SOL    HW277655   2.751   0.730   0.710
 9606SOL     OW77656   6.800   9.288   7.300
 9606SOL    HW177657   6.823   9.212   7.241
 9606SOL    HW277658   6.701   9.301   7.302
 9607SOL     OW77659   5.368   5.050   0.158
 9607SOL    HW177660   5.436   5.021   0.225
 9607SOL    HW277661   5.289   4.990   0.163
 9608SOL     OW77662   5.271  12.573   2.503
 9608SOL    HW177663   5.313  12.497   2.553
 9608SOL    HW277664   5.332  12.652   2.507
 9609SOL     OW77665  15.795  11.078   6.376
 9609SOL    HW177666  15.801  10.986   6.337
 9609SOL    HW277667  15.876  11.130   6.351
 9610SOL     OW77668  14.812   9.280   1.759
 9610SOL    HW177669  14.804   9.365   1.810
 9610SOL    HW277670  14.745   9.213   1.793
 9611SOL     OW77671  10.751   7.454   1.024
 9611SOL    HW177672  10.658   7.418   1.030
 9611SOL    HW277673  10.816   7.387   1.060
 9612SOL     OW77674   5.799   8.921   1.363
 9612SOL    HW177675   5.795   8.923   1.463
 9612SOL    HW277676   5.820   8.829   1.332
 9613SOL     OW77677  12.395   3.631   6.692
 9613SOL    HW177678  12.387   3.603   6.596
 9613SOL    HW277679  12.376   3.728   6.699
 9614SOL     OW77680   0.659   4.863   7.660
 9614SOL    HW177681   0.603   4.783   7.641
 9614SOL    HW277682   0.695   4.857   7.753
 9615SOL     OW77683  12.774  13.371   6.771
 9615SOL    HW177684  12.830  13.410   6.844
 9615SOL    HW277685  12.825  13.374   6.685
 9616SOL     OW77686  12.506   6.264   1.808
 9616SOL    HW177687  12.459   6.313   1.882
 9616SOL    HW277688  12.498   6.166   1.824
 9617SOL     OW77689   7.773   9.216   0.668
 9617SOL    HW177690   7.718   9.180   0.593
 9617SOL    HW277691   7.850   9.268   0.631
 9618SOL     OW77692  12.439   3.511   7.374
 9618SOL    HW177693  12.404   3.572   7.303
 9618SOL    HW277694  12.364   3.457   7.413
 9619SOL     OW77695   8.729   3.850   7.889
 9619SOL    HW177696   8.693   3.928   7.941
 9619SOL    HW277697   8.673   3.770   7.907
 9620SOL     OW77698  15.062   1.656   7.486
 9620SOL    HW177699  15.089   1.606   7.404
 9620SOL    HW277700  14.962   1.664   7.489
 9621SOL     OW77701  13.704  13.981   7.378
 9621SOL    HW177702  13.640  14.057   7.382
 9621SOL    HW277703  13.657  13.895   7.399
 9622SOL     OW77704   8.821   6.236   7.511
 9622SOL    HW177705   8.907   6.277   7.543
 9622SOL    HW277706   8.779   6.294   7.442
 9623SOL     OW77707   0.469   0.474   7.728
 9623SOL    HW177708   0.440   0.392   7.679
 9623SOL    HW277709   0.457   0.554   7.670
 9624SOL     OW77710  11.961  16.431   7.089
 9624SOL    HW177711  12.018  16.361   7.047
 9624SOL    HW277712  11.866  16.419   7.059
 9625SOL     OW77713   7.405  16.005   8.095
 9625SOL    HW177714   7.361  16.093   8.078
 9625SOL    HW277715   7.451  15.973   8.012
 9626SOL     OW77716   4.927  12.861   1.077
 9626SOL    HW177717   4.962  12.951   1.102
 9626SOL    HW277718   4.931  12.800   1.156
 9627SOL     OW77719  16.713  13.995   1.288
 9627SOL    HW177720  16.621  13.967   1.261
 9627SOL    HW277721  16.710  14.037   1.379
 9628SOL     OW77722  10.704  10.688   1.562
 9628SOL    HW177723  10.656  10.644   1.637
 9628SOL    HW277724  10.759  10.764   1.597
 9629SOL     OW77725   7.351   7.410   1.179
 9629SOL    HW177726   7.382   7.325   1.136
 9629SOL    HW277727   7.417   7.483   1.160
 9630SOL     OW77728  15.581   6.332   0.503
 9630SOL    HW177729  15.626   6.325   0.592
 9630SOL    HW277730  15.489   6.369   0.515
 9631SOL     OW77731  10.045  16.937   1.504
 9631SOL    HW177732  10.128  16.937   1.449
 9631SOL    HW277733  10.008   0.046   1.509
 9632SOL     OW77734  13.526  11.265   0.767
 9632SOL    HW177735  13.447  11.262   0.705
 9632SOL    HW277736  13.547  11.173   0.798
 9633SOL     OW77737  10.663   1.421   6.614
 9633SOL    HW177738  10.594   1.440   6.684
 9633SOL    HW277739  10.618   1.408   6.525
 9634SOL     OW77740   3.429   9.181   2.685
 9634SOL    HW177741   3.485   9.246   2.735
 9634SOL    HW277742   3.350   9.228   2.645
 9635SOL     OW77743  12.244   0.372   7.728
 9635SOL    HW177744  12.234   0.382   7.827
 9635SOL    HW277745  12.298   0.448   7.692
 9636SOL     OW77746   1.718   7.847   0.477
 9636SOL    HW177747   1.787   7.833   0.548
 9636SOL    HW277748   1.663   7.764   0.468
 9637SOL     OW77749  11.008  14.234   7.607
 9637SOL    HW177750  10.912  14.245   7.583
 9637SOL    HW277751  11.015  14.211   7.704
 9638SOL     OW77752   9.730  14.060   6.958
 9638SOL    HW177753   9.664  14.033   6.888
 9638SOL    HW277754   9.821  14.067   6.918
 9639SOL     OW77755   3.230  14.545   0.935
 9639SOL    HW177756   3.274  14.579   1.019
 9639SOL    HW277757   3.267  14.594   0.856
 9640SOL     OW77758   3.349   4.827   1.027
 9640SOL    HW177759   3.274   4.882   1.065
 9640SOL    HW277760   3.314   4.737   1.000
 9641SOL     OW77761  15.130   8.914   0.868
 9641SOL    HW177762  15.193   8.940   0.940
 9641SOL    HW277763  15.042   8.889   0.908
 9642SOL     OW77764  13.383   6.989   7.204
 9642SOL    HW177765  13.347   7.064   7.258
 9642SOL    HW277766  13.366   7.006   7.107
 9643SOL     OW77767  13.674  13.546   7.750
 9643SOL    HW177768  13.635  13.525   7.839
 9643SOL    HW277769  13.679  13.646   7.739
 9644SOL     OW77770  12.775  14.744   2.164
 9644SOL    HW177771  12.831  14.824   2.183
 9644SOL    HW277772  12.754  14.697   2.250
 9645SOL     OW77773  13.091   8.278   6.619
 9645SOL    HW177774  13.147   8.264   6.537
 9645SOL    HW277775  13.108   8.370   6.655
 9646SOL     OW77776  14.356   3.703   0.047
 9646SOL    HW177777  14.399   3.782   0.090
 9646SOL    HW277778  14.425   3.631   0.035
 9647SOL     OW77779  14.703   5.177   7.355
 9647SOL    HW177780  14.702   5.078   7.368
 9647SOL    HW277781  14.721   5.198   7.259
 9648SOL     OW77782   1.786  11.262   7.873
 9648SOL    HW177783   1.702  11.236   7.921
 9648SOL    HW277784   1.810  11.191   7.807
 9649SOL     OW77785   0.629  11.838   2.140
 9649SOL    HW177786   0.602  11.819   2.234
 9649SOL    HW277787   0.551  11.821   2.079
 9650SOL     OW77788  16.239  16.641   7.204
 9650SOL    HW177789  16.159  16.693   7.175
 9650SOL    HW277790  16.259  16.662   7.300
 9651SOL     OW77791  15.325   4.352   7.088
 9651SOL    HW177792  15.264   4.410   7.142
 9651SOL    HW277793  15.401   4.407   7.053
 9652SOL     OW77794  14.316  16.281   7.730
 9652SOL    HW177795  14.335  16.359   7.790
 9652SOL    HW277796  14.236  16.232   7.764
 9653SOL     OW77797   6.171  15.519   1.984
 9653SOL    HW177798   6.125  15.605   1.963
 9653SOL    HW277799   6.113  15.465   2.047
 9654SOL     OW77800  16.821   3.088   7.335
 9654SOL    HW177801  16.835   3.121   7.428
 9654SOL    HW277802  16.828   2.989   7.333
 9655SOL     OW77803  16.047  15.523   7.115
 9655SOL    HW177804  16.050  15.619   7.143
 9655SOL    HW277805  16.132  15.499   7.069
 9656SOL     OW77806   8.523   8.533   0.647
 9656SOL    HW177807   8.489   8.442   0.670
 9656SOL    HW277808   8.548   8.536   0.550
 9657SOL     OW77809   8.195  11.052   1.678
 9657SOL    HW177810   8.155  11.117   1.743
 9657SOL    HW277811   8.288  11.080   1.656
 9658SOL     OW77812   1.991  10.175   7.060
 9658SOL    HW177813   1.895  10.148   7.073
 9658SOL    HW277814   2.000  10.228   6.976
 9659SOL     OW77815   2.908   5.407   0.311
 9659SOL    HW177816   2.927   5.369   0.402
 9659SOL    HW277817   2.968   5.486   0.295
 9660SOL     OW77818   7.639  10.294   0.704
 9660SOL    HW177819   7.726  10.344   0.706
 9660SOL    HW277820   7.611  10.281   0.609
 9661SOL     OW77821  14.602  16.882   6.596
 9661SOL    HW177822  14.682  16.829   6.626
 9661SOL    HW277823  14.582  16.953   6.664
 9662SOL     OW77824  16.236  12.944   1.830
 9662SOL    HW177825  16.305  12.901   1.771
 9662SOL    HW277826  16.197  13.023   1.783
 9663SOL     OW77827   2.554  12.115   1.885
 9663SOL    HW177828   2.568  12.211   1.909
 9663SOL    HW277829   2.488  12.108   1.810
 9664SOL     OW77830   3.722   2.031   0.095
 9664SOL    HW177831   3.817   2.028   0.124
 9664SOL    HW277832   3.679   1.942   0.111
 9665SOL     OW77833   5.179   9.978   2.170
 9665SOL    HW177834   5.176   9.954   2.267
 9665SOL    HW277835   5.266   9.947   2.131
 9666SOL     OW77836   9.553   2.078   6.788
 9666SOL    HW177837   9.594   1.990   6.762
 9666SOL    HW277838   9.476   2.098   6.726
 9667SOL     OW77839   0.932   0.146   1.267
 9667SOL    HW177840   0.864   0.177   1.333
 9667SOL    HW277841   0.907   0.054   1.234
 9668SOL     OW77842   2.667   2.532   8.277
 9668SOL    HW177843   2.609   2.453   8.292
 9668SOL    HW277844   2.755   2.503   8.240
 9669SOL     OW77845  13.752   0.347   0.442
 9669SOL    HW177846  13.772   0.445   0.435
 9669SOL    HW277847  13.693   0.330   0.521
 9670SOL     OW77848   6.389   2.403   0.973
 9670SOL    HW177849   6.422   2.498   0.971
 9670SOL    HW277850   6.335   2.389   1.055
 9671SOL     OW77851   7.467  11.716   1.976
 9671SOL    HW177852   7.439  11.695   1.882
 9671SOL    HW277853   7.426  11.650   2.039
 9672SOL     OW77854   9.423   9.319   7.836
 9672SOL    HW177855   9.462   9.259   7.906
 9672SOL    HW277856   9.486   9.394   7.818
 9673SOL     OW77857  14.129   7.950   0.558
 9673SOL    HW177858  14.206   7.901   0.598
 9673SOL    HW277859  14.163   8.021   0.497
 9674SOL     OW77860   4.377   2.308   7.943
 9674SOL    HW177861   4.355   2.275   8.035
 9674SOL    HW277862   4.348   2.403   7.933
 9675SOL     OW77863   5.877  15.442   6.411
 9675SOL    HW177864   5.937  15.370   6.379
 9675SOL    HW277865   5.932  15.520   6.443
 9676SOL     OW77866   1.470   6.778   1.255
 9676SOL    HW177867   1.540   6.766   1.326
 9676SOL    HW277868   1.475   6.871   1.219
 9677SOL     OW77869  12.806   2.932   7.862
 9677SOL    HW177870  12.897   2.973   7.865
 9677SOL    HW277871  12.813   2.834   7.881
 9678SOL     OW77872  12.913   4.437   8.330
 9678SOL    HW177873  12.908   4.337   8.336
 9678SOL    HW277874  12.831   4.472   8.285
 9679SOL     OW77875  12.162   4.630   0.347
 9679SOL    HW177876  12.208   4.658   0.432
 9679SOL    HW277877  12.221   4.565   0.298
 9680SOL     OW77878   4.656   5.010   1.245
 9680SOL    HW177879   4.648   5.034   1.149
 9680SOL    HW277880   4.633   5.090   1.301
 9681SOL     OW77881  12.880   3.346   6.756
 9681SOL    HW177882  12.799   3.405   6.759
 9681SOL    HW277883  12.853   3.255   6.726
 9682SOL     OW77884   0.781  13.833   7.497
 9682SOL    HW177885   0.844  13.767   7.537
 9682SOL    HW277886   0.764  13.908   7.561
 9683SOL     OW77887   4.547  10.948   0.046
 9683SOL    HW177888   4.506  11.018   8.442
 9683SOL    HW277889   4.633  10.917   0.004
 9684SOL     OW77890   1.005   9.797   1.622
 9684SOL    HW177891   0.923   9.854   1.624
 9684SOL    HW277892   0.997   9.726   1.692
 9685SOL     OW77893   1.105   5.142   7.264
 9685SOL    HW177894   1.193   5.189   7.255
 9685SOL    HW277895   1.082   5.133   7.361
 9686SOL     OW77896  10.819   0.107   6.782
 9686SOL    HW177897  10.759   0.053   6.723
 9686SOL    HW277898  10.914   0.087   6.759
 9687SOL     OW77899   3.814  10.465   6.951
 9687SOL    HW177900   3.884  10.436   6.887
 9687SOL    HW277901   3.833  10.425   7.041
 9688SOL     OW77902  12.586   5.760   7.508
 9688SOL    HW177903  12.660   5.737   7.571
 9688SOL    HW277904  12.529   5.680   7.493
 9689SOL     OW77905   4.750   7.382   2.228
 9689SOL    HW177906   4.726   7.479   2.242
 9689SOL    HW277907   4.702   7.326   2.296
 9690SOL     OW77908   0.449   5.957   0.659
 9690SOL    HW177909   0.423   5.861   0.658
 9690SOL    HW277910   0.540   5.967   0.619
 9691SOL     OW77911   4.053   8.744   8.014
 9691SOL    HW177912   4.002   8.679   8.070
 9691SOL    HW277913   4.151   8.736   8.033
 9692SOL     OW77914  13.346   8.700   1.888
 9692SOL    HW177915  13.261   8.664   1.928
 9692SOL    HW277916  13.423   8.643   1.916
 9693SOL     OW77917  16.451   6.817   0.039
 9693SOL    HW177918  16.364   6.846   8.453
 9693SOL    HW277919  16.446   6.719   0.062
 9694SOL     OW77920   4.463   2.524   0.994
 9694SOL    HW177921   4.526   2.446   0.991
 9694SOL    HW277922   4.424   2.532   1.085
 9695SOL     OW77923   9.259   4.755   0.541
 9695SOL    HW177924   9.300   4.718   0.458
 9695SOL    HW277925   9.269   4.689   0.615
 9696SOL     OW77926   7.522  11.843   6.777
 9696SOL    HW177927   7.603  11.892   6.745
 9696SOL    HW277928   7.460  11.826   6.701
 9697SOL     OW77929   2.041   3.559   0.203
 9697SOL    HW177930   2.060   3.461   0.209
 9697SOL    HW277931   2.011   3.593   0.292
 9698SOL     OW77932   6.402  14.374   8.400
 9698SOL    HW177933   6.428  14.279   8.420
 9698SOL    HW277934   6.371  14.418   0.031
 9699SOL     OW77935   2.173  11.386   1.987
 9699SOL    HW177936   2.201  11.440   1.908
 9699SOL    HW277937   2.178  11.442   2.070
 9700SOL     OW77938  10.450  12.245   0.298
 9700SOL    HW177939  10.351  12.233   0.295
 9700SOL    HW277940  10.488  12.234   0.206
 9701SOL     OW77941  13.613   1.723   8.139
 9701SOL    HW177942  13.687   1.756   8.080
 9701SOL    HW277943  13.613   1.623   8.139
 9702SOL     OW77944   1.913  15.412   7.308
 9702SOL    HW177945   1.880  15.500   7.276
 9702SOL    HW277946   2.012  15.417   7.323
 9703SOL     OW77947  10.444   7.983   7.666
 9703SOL    HW177948  10.520   8.035   7.626
 9703SOL    HW277949  10.397   8.039   7.734
 9704SOL     OW77950  16.927   6.370   7.312
 9704SOL    HW177951  16.875   6.413   7.237
 9704SOL    HW277952   0.040   6.394   7.303
 9705SOL     OW77953   7.419   1.702   1.592
 9705SOL    HW177954   7.350   1.696   1.664
 9705SOL    HW277955   7.508   1.678   1.630
 9706SOL     OW77956  13.931   1.231   8.141
 9706SOL    HW177957  13.980   1.220   8.055
 9706SOL    HW277958  13.855   1.166   8.146
 9707SOL     OW77959  11.749  12.268   8.345
 9707SOL    HW177960  11.741  12.244   8.441
 9707SOL    HW277961  11.668  12.320   8.317
 9708SOL     OW77962  14.347   3.275   0.033
 9708SOL    HW177963  14.374   3.188   8.447
 9708SOL    HW277964  14.280   3.259   0.106
 9709SOL     OW77965   7.395   4.179   8.019
 9709SOL    HW177966   7.316   4.226   7.979
 9709SOL    HW277967   7.473   4.240   8.021
 9710SOL     OW77968  12.455   8.577   8.276
 9710SOL    HW177969  12.407   8.572   8.363
 9710SOL    HW277970  12.477   8.673   8.255
 9711SOL     OW77971  11.531   4.519   5.760
 9711SOL    HW177972  11.592   4.441   5.743
 9711SOL    HW277973  11.508   4.563   5.673
 9712SOL     OW77974   0.618  10.187   8.222
 9712SOL    HW177975   0.680  10.237   8.161
 9712SOL    HW277976   0.581  10.250   8.290
 9713SOL     OW77977   9.343   9.454   1.085
 9713SOL    HW177978   9.261   9.403   1.061
 9713SOL    HW277979   9.321   9.521   1.156
 9714SOL     OW77980   6.510   2.649   0.972
 9714SOL    HW177981   6.458   2.733   0.959
 9714SOL    HW277982   6.579   2.641   0.899
 9715SOL     OW77983  12.290   5.707   7.737
 9715SOL    HW177984  12.387   5.723   7.753
 9715SOL    HW277985  12.236   5.778   7.782
 9716SOL     OW77986   3.775   2.324   8.093
 9716SOL    HW177987   3.758   2.277   8.180
 9716SOL    HW277988   3.868   2.362   8.093
 9717SOL     OW77989  16.288   6.309   0.178
 9717SOL    HW177990  16.193   6.320   0.205
 9717SOL    HW277991  16.331   6.399   0.169
 9718SOL     OW77992   6.722   1.604   7.803
 9718SOL    HW177993   6.799   1.548   7.770
 9718SOL    HW277994   6.640   1.547   7.809
 9719SOL     OW77995   8.340  13.857   0.046
 9719SOL    HW177996   8.355  13.937   8.442
 9719SOL    HW277997   8.396  13.781   0.012
 9720SOL     OW77998  13.570  15.290   0.827
 9720SOL    HW177999  13.560  15.247   0.917
 9720SOL    HW278000  13.557  15.221   0.756
 9721SOL     OW78001  12.468   0.496   0.400
 9721SOL    HW178002  12.394   0.444   0.443
 9721SOL    HW278003  12.429   0.565   0.339
 9722SOL     OW78004   8.000   3.595   6.508
 9722SOL    HW178005   7.983   3.538   6.588
 9722SOL    HW278006   7.990   3.540   6.425
 9723SOL     OW78007  14.289   0.546   6.445
 9723SOL    HW178008  14.240   0.512   6.365
 9723SOL    HW278009  14.232   0.533   6.527
 9724SOL     OW78010   2.964   0.473   1.507
 9724SOL    HW178011   3.000   0.518   1.425
 9724SOL    HW278012   2.867   0.497   1.517
 9725SOL     OW78013  12.420   9.264   0.227
 9725SOL    HW178014  12.458   9.226   0.143
 9725SOL    HW278015  12.336   9.314   0.206
 9726SOL     OW78016   9.508  11.615   1.032
 9726SOL    HW178017   9.410  11.626   1.048
 9726SOL    HW278018   9.557  11.692   1.072
 9727SOL     OW78019  16.517  12.943   0.392
 9727SOL    HW178020  16.610  12.907   0.399
 9727SOL    HW278021  16.520  13.042   0.375
 9728SOL     OW78022   1.059  10.264   7.410
 9728SOL    HW178023   1.129  10.321   7.368
 9728SOL    HW278024   0.991  10.238   7.341
 9729SOL     OW78025  16.779  16.350   2.285
 9729SOL    HW178026  16.854  16.398   2.329
 9729SOL    HW278027  16.736  16.410   2.217
 9730SOL     OW78028   7.882   1.663   0.274
 9730SOL    HW178029   7.847   1.570   0.289
 9730SOL    HW278030   7.839   1.726   0.339
 9731SOL     OW78031   1.917   5.409   1.680
 9731SOL    HW178032   1.941   5.497   1.638
 9731SOL    HW278033   1.891   5.423   1.775
 9732SOL     OW78034   2.203   2.418   1.814
 9732SOL    HW178035   2.155   2.435   1.901
 9732SOL    HW278036   2.276   2.485   1.803
 9733SOL     OW78037   0.779   7.364   7.887
 9733SOL    HW178038   0.857   7.304   7.902
 9733SOL    HW278039   0.723   7.327   7.813
 9734SOL     OW78040  13.216   8.442   1.122
 9734SOL    HW178041  13.139   8.422   1.062
 9734SOL    HW278042  13.182   8.483   1.207
 9735SOL     OW78043  15.860   1.544   1.577
 9735SOL    HW178044  15.839   1.530   1.673
 9735SOL    HW278045  15.893   1.637   1.562
 9736SOL     OW78046   9.157  10.387   0.250
 9736SOL    HW178047   9.127  10.476   0.218
 9736SOL    HW278048   9.193  10.395   0.343
 9737SOL     OW78049   9.807   2.714   7.949
 9737SOL    HW178050   9.737   2.709   7.878
 9737SOL    HW278051   9.766   2.696   8.038
 9738SOL     OW78052  12.221  12.180   7.528
 9738SOL    HW178053  12.296  12.247   7.531
 9738SOL    HW278054  12.163  12.199   7.448
 9739SOL     OW78055   8.526   7.422   7.412
 9739SOL    HW178056   8.580   7.372   7.480
 9739SOL    HW278057   8.573   7.418   7.323
 9740SOL     OW78058   3.007   0.472   7.377
 9740SOL    HW178059   2.913   0.489   7.348
 9740SOL    HW278060   3.058   0.557   7.376
 9741SOL     OW78061   7.023  15.784   6.377
 9741SOL    HW178062   6.982  15.714   6.435
 9741SOL    HW278063   7.065  15.741   6.297
 9742SOL     OW78064   1.105   8.997   7.048
 9742SOL    HW178065   1.116   8.947   6.962
 9742SOL    HW278066   1.040   8.948   7.106
 9743SOL     OW78067   9.146  12.853   6.739
 9743SOL    HW178068   9.126  12.936   6.791
 9743SOL    HW278069   9.084  12.847   6.660
 9744SOL     OW78070   6.692   2.288   2.526
 9744SOL    HW178071   6.675   2.385   2.544
 9744SOL    HW278072   6.732   2.245   2.608
 9745SOL     OW78073  16.508  15.681   7.125
 9745SOL    HW178074  16.428  15.740   7.134
 9745SOL    HW278075  16.557  15.678   7.212
 9746SOL     OW78076  10.728  16.527   1.002
 9746SOL    HW178077  10.676  16.528   0.917
 9746SOL    HW278078  10.826  16.528   0.981
 9747SOL     OW78079   6.926  14.382   0.987
 9747SOL    HW178080   7.000  14.320   1.013
 9747SOL    HW278081   6.842  14.356   1.035
 9748SOL     OW78082  10.609   3.808   6.851
 9748SOL    HW178083  10.685   3.802   6.916
 9748SOL    HW278084  10.629   3.879   6.784
 9749SOL     OW78085   6.166  14.214   0.339
 9749SOL    HW178086   6.166  14.174   0.247
 9749SOL    HW278087   6.259  14.242   0.364
 9750SOL     OW78088   7.464   9.037   7.013
 9750SOL    HW178089   7.562   9.054   7.011
 9750SOL    HW278090   7.440   8.991   7.099
 9751SOL     OW78091  11.367  10.248   0.318
 9751SOL    HW178092  11.459  10.276   0.289
 9751SOL    HW278093  11.311  10.329   0.333
 9752SOL     OW78094   7.038  13.560   1.578
 9752SOL    HW178095   7.087  13.572   1.665
 9752SOL    HW278096   6.964  13.627   1.573
 9753SOL     OW78097   2.405   7.787   7.809
 9753SOL    HW178098   2.474   7.856   7.831
 9753SOL    HW278099   2.447   7.697   7.809
 9754SOL     OW78100  11.887   2.680   5.679
 9754SOL    HW178101  11.955   2.753   5.685
 9754SOL    HW278102  11.886   2.643   5.585
 9755SOL     OW78103   3.264   6.669   7.111
 9755SOL    HW178104   3.198   6.612   7.062
 9755SOL    HW278105   3.352   6.622   7.116
 9756SOL     OW78106  10.768   4.404   1.916
 9756SOL    HW178107  10.856   4.451   1.912
 9756SOL    HW278108  10.774   4.317   1.867
 9757SOL     OW78109  14.003   9.202   8.050
 9757SOL    HW178110  13.976   9.219   8.145
 9757SOL    HW278111  14.013   9.104   8.035
 9758SOL     OW78112   9.137   4.736   2.165
 9758SOL    HW178113   9.173   4.826   2.190
 9758SOL    HW278114   9.081   4.701   2.240
 9759SOL     OW78115  16.724  12.911   1.080
 9759SOL    HW178116  16.724  12.850   1.001
 9759SOL    HW278117  16.659  12.986   1.064
 9760SOL     OW78118   2.483   9.048   7.772
 9760SOL    HW178119   2.454   9.095   7.689
 9760SOL    HW278120   2.580   9.024   7.764
 9761SOL     OW78121  11.989  10.662   7.494
 9761SOL    HW178122  11.939  10.678   7.409
 9761SOL    HW278123  11.970  10.735   7.559
 9762SOL     OW78124   2.893   4.304   0.261
 9762SOL    HW178125   2.967   4.317   0.326
 9762SOL    HW278126   2.816   4.260   0.307
 9763SOL     OW78127  12.480  14.761   8.195
 9763SOL    HW178128  12.517  14.670   8.211
 9763SOL    HW278129  12.538  14.810   8.130
 9764SOL     OW78130   9.933   4.645   0.666
 9764SOL    HW178131   9.872   4.718   0.637
 9764SOL    HW278132  10.012   4.684   0.713
 9765SOL     OW78133   0.499   3.902   6.417
 9765SOL    HW178134   0.459   3.831   6.475
 9765SOL    HW278135   0.595   3.915   6.439
 9766SOL     OW78136  15.356  15.849   6.218
 9766SOL    HW178137  15.270  15.802   6.235
 9766SOL    HW278138  15.386  15.896   6.301
 9767SOL     OW78139  15.310   5.957   7.227
 9767SOL    HW178140  15.337   5.965   7.323
 9767SOL    HW278141  15.388   5.979   7.169
 9768SOL     OW78142  15.771   4.934   7.762
 9768SOL    HW178143  15.803   4.975   7.676
 9768SOL    HW278144  15.697   4.990   7.800
 9769SOL     OW78145   4.391   4.322   6.892
 9769SOL    HW178146   4.334   4.403   6.883
 9769SOL    HW278147   4.423   4.293   6.802
 9770SOL     OW78148   2.222   7.121   0.560
 9770SOL    HW178149   2.268   7.086   0.478
 9770SOL    HW278150   2.149   7.184   0.534
 9771SOL     OW78151   3.137   9.306   1.114
 9771SOL    HW178152   3.229   9.342   1.131
 9771SOL    HW278153   3.096   9.276   1.200
 9772SOL     OW78154  13.794   4.767   0.769
 9772SOL    HW178155  13.738   4.715   0.834
 9772SOL    HW278156  13.868   4.814   0.819
 9773SOL     OW78157   3.548   6.495   2.091
 9773SOL    HW178158   3.452   6.471   2.105
 9773SOL    HW278159   3.598   6.482   2.176
 9774SOL     OW78160  11.344   3.839   1.286
 9774SOL    HW178161  11.333   3.743   1.313
 9774SOL    HW278162  11.307   3.898   1.357
 9775SOL     OW78163   4.656   9.340   7.540
 9775SOL    HW178164   4.748   9.357   7.507
 9775SOL    HW278165   4.597   9.314   7.464
 9776SOL     OW78166   5.851   1.334   7.150
 9776SOL    HW178167   5.801   1.317   7.065
 9776SOL    HW278168   5.919   1.262   7.163
 9777SOL     OW78169  16.085   2.061   7.479
 9777SOL    HW178170  16.068   1.963   7.491
 9777SOL    HW278171  16.154   2.091   7.545
 9778SOL     OW78172  12.574  12.797   7.525
 9778SOL    HW178173  12.670  12.821   7.534
 9778SOL    HW278174  12.536  12.776   7.615
 9779SOL     OW78175   9.634   5.062   6.205
 9779SOL    HW178176   9.592   4.973   6.191
 9779SOL    HW278177   9.607   5.098   6.294
 9780SOL     OW78178  13.068   6.714   8.431
 9780SOL    HW178179  13.101   6.704   0.071
 9780SOL    HW278180  12.968   6.720   8.431
 9781SOL     OW78181  12.085   1.815   5.926
 9781SOL    HW178182  12.001   1.829   5.873
 9781SOL    HW278183  12.064   1.822   6.023
 9782SOL     OW78184  10.808  14.121   0.227
 9782SOL    HW178185  10.884  14.169   0.185
 9782SOL    HW278186  10.827  14.023   0.229
 9783SOL     OW78187  12.658   8.415   1.560
 9783SOL    HW178188  12.649   8.494   1.622
 9783SOL    HW278189  12.724   8.350   1.599
 9784SOL     OW78190   7.836  12.656   8.290
 9784SOL    HW178191   7.807  12.743   8.250
 9784SOL    HW278192   7.935  12.656   8.303
 9785SOL     OW78193   5.864  11.586   6.783
 9785SOL    HW178194   5.796  11.531   6.735
 9785SOL    HW278195   5.956  11.560   6.751
 9786SOL     OW78196   2.817   3.386   7.309
 9786SOL    HW178197   2.806   3.484   7.293
 9786SOL    HW278198   2.914   3.362   7.299
 9787SOL     OW78199  16.538   0.308   6.794
 9787SOL    HW178200  16.497   0.398   6.774
 9787SOL    HW278201  16.512   0.280   6.887
 9788SOL     OW78202  11.586   4.853   6.122
 9788SOL    HW178203  11.541   4.794   6.055
 9788SOL    HW278204  11.556   4.948   6.109
 9789SOL     OW78205  15.448  12.097   2.275
 9789SOL    HW178206  15.474  12.189   2.305
 9789SOL    HW278207  15.530  12.044   2.253
 9790SOL     OW78208  16.888   1.930   1.190
 9790SOL    HW178209  16.813   1.980   1.146
 9790SOL    HW278210  16.877   1.832   1.172
 9791SOL     OW78211  15.695   6.579   0.437
 9791SOL    HW178212  15.791   6.557   0.423
 9791SOL    HW278213  15.643   6.495   0.450
 9792SOL     OW78214   0.942   9.604   7.110
 9792SOL    HW178215   1.030   9.649   7.128
 9792SOL    HW278216   0.917   9.616   7.014
 9793SOL     OW78217   5.301  13.741   0.634
 9793SOL    HW178218   5.326  13.833   0.601
 9793SOL    HW278219   5.244  13.749   0.716
 9794SOL     OW78220  12.003  15.727   1.788
 9794SOL    HW178221  12.017  15.789   1.711
 9794SOL    HW278222  12.048  15.764   1.869
 9795SOL     OW78223   4.115   9.981   7.016
 9795SOL    HW178224   4.126   9.921   7.095
 9795SOL    HW278225   4.138   9.932   6.932
 9796SOL     OW78226  14.466  15.932   1.802
 9796SOL    HW178227  14.434  15.957   1.894
 9796SOL    HW278228  14.391  15.890   1.751
 9797SOL     OW78229   7.149  15.797   1.307
 9797SOL    HW178230   7.126  15.705   1.341
 9797SOL    HW278231   7.230  15.831   1.356
 9798SOL     OW78232   2.186   0.180   1.061
 9798SOL    HW178233   2.192   0.080   1.066
 9798SOL    HW278234   2.207   0.219   1.150
 9799SOL     OW78235  10.323  16.639   6.767
 9799SOL    HW178236  10.264  16.709   6.808
 9799SOL    HW278237  10.416  16.674   6.761
 9800SOL     OW78238  10.626   3.029   0.763
 9800SOL    HW178239  10.687   2.957   0.795
 9800SOL    HW278240  10.562   3.052   0.836
 9801SOL     OW78241   0.106   4.017   0.738
 9801SOL    HW178242   0.086   4.001   0.835
 9801SOL    HW278243   0.030   4.068   0.697
 9802SOL     OW78244   9.471  13.905   7.085
 9802SOL    HW178245   9.501  13.973   7.019
 9802SOL    HW278246   9.467  13.815   7.042
 9803SOL     OW78247  14.793   8.649   0.539
 9803SOL    HW178248  14.776   8.738   0.498
 9803SOL    HW278249  14.758   8.648   0.633
 9804SOL     OW78250  10.969  15.101   7.870
 9804SOL    HW178251  10.934  15.171   7.807
 9804SOL    HW278252  10.927  15.114   7.960
 9805SOL     OW78253   5.032   3.346   0.272
 9805SOL    HW178254   4.943   3.304   0.253
 9805SOL    HW278255   5.038   3.434   0.224
 9806SOL     OW78256  11.827   6.322   7.100
 9806SOL    HW178257  11.862   6.252   7.162
 9806SOL    HW278258  11.893   6.397   7.093
 9807SOL     OW78259   6.179   0.331   8.271
 9807SOL    HW178260   6.204   0.245   8.225
 9807SOL    HW278261   6.080   0.342   8.267
 9808SOL     OW78262   1.139   5.125   1.054
 9808SOL    HW178263   1.093   5.209   1.023
 9808SOL    HW278264   1.092   5.046   1.016
 9809SOL     OW78265   3.000  14.171   7.039
 9809SOL    HW178266   3.006  14.234   7.116
 9809SOL    HW278267   2.990  14.222   6.954
 9810SOL     OW78268   9.951  14.541   1.198
 9810SOL    HW178269   9.907  14.532   1.109
 9810SOL    HW278270  10.037  14.489   1.199
 9811SOL     OW78271  12.352   4.054   7.577
 9811SOL    HW178272  12.281   4.056   7.647
 9811SOL    HW278273  12.323   3.995   7.502
 9812SOL     OW78274   3.653   0.263   8.095
 9812SOL    HW178275   3.661   0.352   8.139
 9812SOL    HW278276   3.701   0.265   8.007
 9813SOL     OW78277  15.100   2.102   7.048
 9813SOL    HW178278  15.084   2.201   7.048
 9813SOL    HW278279  15.083   2.065   6.957
 9814SOL     OW78280   0.814  16.010   7.277
 9814SOL    HW178281   0.862  15.969   7.199
 9814SOL    HW278282   0.722  15.973   7.283
 9815SOL     OW78283  15.850  13.249   1.239
 9815SOL    HW178284  15.829  13.267   1.143
 9815SOL    HW278285  15.768  13.216   1.286
 9816SOL     OW78286   7.705  16.565   7.571
 9816SOL    HW178287   7.641  16.560   7.495
 9816SOL    HW278288   7.653  16.569   7.657
 9817SOL     OW78289   6.296   3.193   2.012
 9817SOL    HW178290   6.358   3.269   1.993
 9817SOL    HW278291   6.308   3.163   2.107
 9818SOL     OW78292  12.339   0.714   5.719
 9818SOL    HW178293  12.330   0.617   5.698
 9818SOL    HW278294  12.254   0.761   5.696
 9819SOL     OW78295   4.718   5.506   7.222
 9819SOL    HW178296   4.643   5.548   7.170
 9819SOL    HW278297   4.680   5.456   7.300
 9820SOL     OW78298  15.446  11.966   7.023
 9820SOL    HW178299  15.387  12.009   6.955
 9820SOL    HW278300  15.538  11.956   6.984
 9821SOL     OW78301   1.044  10.487   2.034
 9821SOL    HW178302   1.091  10.534   2.108
 9821SOL    HW278303   1.070  10.390   2.034
 9822SOL     OW78304   5.708  10.545   1.510
 9822SOL    HW178305   5.632  10.481   1.516
 9822SOL    HW278306   5.781  10.506   1.454
 9823SOL     OW78307   8.357  12.095   0.591
 9823SOL    HW178308   8.272  12.076   0.543
 9823SOL    HW278309   8.403  12.173   0.548
 9824SOL     OW78310  10.907  15.730   6.565
 9824SOL    HW178311  10.933  15.821   6.596
 9824SOL    HW278312  10.846  15.737   6.485
 9825SOL     OW78313  12.402   8.087   0.803
 9825SOL    HW178314  12.427   8.067   0.898
 9825SOL    HW278315  12.362   8.006   0.761
 9826SOL     OW78316   9.760   4.843   0.586
 9826SOL    HW178317   9.717   4.933   0.579
 9826SOL    HW278318   9.787   4.812   0.494
 9827SOL     OW78319   7.008  16.227   8.268
 9827SOL    HW178320   7.023  16.262   8.361
 9827SOL    HW278321   7.064  16.279   8.204
 9828SOL     OW78322   7.285   5.675   6.918
 9828SOL    HW178323   7.200   5.708   6.960
 9828SOL    HW278324   7.319   5.597   6.970
 9829SOL     OW78325   3.738   3.086   7.426
 9829SOL    HW178326   3.800   3.060   7.353
 9829SOL    HW278327   3.765   3.041   7.511
 9830SOL     OW78328  16.007   7.793   7.934
 9830SOL    HW178329  16.075   7.865   7.923
 9830SOL    HW278330  15.956   7.807   8.019
 9831SOL     OW78331  14.223   6.484   0.556
 9831SOL    HW178332  14.267   6.395   0.563
 9831SOL    HW278333  14.166   6.499   0.637
 9832SOL     OW78334   3.839   7.850   8.343
 9832SOL    HW178335   3.928   7.864   8.299
 9832SOL    HW278336   3.849   7.856   8.442
 9833SOL     OW78337   9.633  12.516   7.758
 9833SOL    HW178338   9.698  12.500   7.831
 9833SOL    HW278339   9.651  12.454   7.682
 9834SOL     OW78340   7.968   4.361   2.285
 9834SOL    HW178341   8.042   4.294   2.292
 9834SOL    HW278342   7.981   4.433   2.354
 9835SOL     OW78343  13.111   9.477   0.408
 9835SOL    HW178344  13.069   9.433   0.487
 9835SOL    HW278345  13.100   9.576   0.415
 9836SOL     OW78346   9.898  15.807   0.816
 9836SOL    HW178347   9.890  15.863   0.733
 9836SOL    HW278348   9.813  15.815   0.869
 9837SOL     OW78349  13.347   3.291   0.854
 9837SOL    HW178350  13.310   3.232   0.782
 9837SOL    HW278351  13.387   3.235   0.927
 9838SOL     OW78352  14.179  13.401   0.798
 9838SOL    HW178353  14.163  13.499   0.805
 9838SOL    HW278354  14.235  13.370   0.874
 9839SOL     OW78355   5.116  14.136   0.861
 9839SOL    HW178356   5.095  14.147   0.958
 9839SOL    HW278357   5.212  14.160   0.844
 9840SOL     OW78358   6.263  14.170   7.777
 9840SOL    HW178359   6.340  14.155   7.840
 9840SOL    HW278360   6.190  14.105   7.798
 9841SOL     OW78361   5.854  12.064   1.621
 9841SOL    HW178362   5.890  12.057   1.714
 9841SOL    HW278363   5.845  11.972   1.582
 9842SOL     OW78364   5.186   9.309   1.474
 9842SOL    HW178365   5.264   9.254   1.503
 9842SOL    HW278366   5.179   9.391   1.531
 9843SOL     OW78367  13.756   0.565   2.128
 9843SOL    HW178368  13.848   0.603   2.122
 9843SOL    HW278369  13.760   0.472   2.164
 9844SOL     OW78370   1.215  12.232   2.131
 9844SOL    HW178371   1.142  12.279   2.082
 9844SOL    HW278372   1.268  12.298   2.184
 9845SOL     OW78373   0.825   1.269   0.132
 9845SOL    HW178374   0.735   1.290   0.170
 9845SOL    HW278375   0.834   1.314   0.043
 9846SOL     OW78376  13.411  14.043   1.261
 9846SOL    HW178377  13.331  14.087   1.304
 9846SOL    HW278378  13.486  14.109   1.256
 9847SOL     OW78379   6.017  16.981   8.033
 9847SOL    HW178380   5.973  16.950   8.118
 9847SOL    HW278381   5.982   0.088   8.009
 9848SOL     OW78382   3.072  12.207   1.024
 9848SOL    HW178383   3.024  12.281   0.977
 9848SOL    HW278384   3.017  12.177   1.102
 9849SOL     OW78385   3.711   9.648   0.121
 9849SOL    HW178386   3.664   9.723   0.074
 9849SOL    HW278387   3.647   9.573   0.136
 9850SOL     OW78388   8.768   7.633   7.238
 9850SOL    HW178389   8.720   7.552   7.206
 9850SOL    HW278390   8.786   7.625   7.336
 9851SOL     OW78391   0.979   1.100   0.698
 9851SOL    HW178392   0.887   1.135   0.681
 9851SOL    HW278393   0.973   1.009   0.740
 9852SOL     OW78394  15.429  15.517   8.234
 9852SOL    HW178395  15.435  15.432   8.286
 9852SOL    HW278396  15.373  15.501   8.152
 9853SOL     OW78397  10.211   8.402   1.486
 9853SOL    HW178398  10.225   8.430   1.581
 9853SOL    HW278399  10.295   8.416   1.434
 9854SOL     OW78400  16.321   2.881   6.006
 9854SOL    HW178401  16.271   2.955   6.052
 9854SOL    HW278402  16.387   2.921   5.942
 9855SOL     OW78403   2.806  11.479   0.586
 9855SOL    HW178404   2.797  11.482   0.686
 9855SOL    HW278405   2.902  11.489   0.561
 9856SOL     OW78406   7.961   5.526   7.583
 9856SOL    HW178407   7.985   5.431   7.567
 9856SOL    HW278408   7.923   5.566   7.500
 9857SOL     OW78409   0.707  16.142   6.870
 9857SOL    HW178410   0.796  16.179   6.841
 9857SOL    HW278411   0.713  16.043   6.876
 9858SOL     OW78412   8.497   9.133   2.353
 9858SOL    HW178413   8.549   9.150   2.437
 9858SOL    HW278414   8.490   9.035   2.337
 9859SOL     OW78415   2.466  10.277   1.797
 9859SOL    HW178416   2.486  10.272   1.894
 9859SOL    HW278417   2.531  10.337   1.752
 9860SOL     OW78418  13.746  15.061   1.217
 9860SOL    HW178419  13.785  15.153   1.213
 9860SOL    HW278420  13.821  14.994   1.220
 9861SOL     OW78421   5.691   8.130   8.007
 9861SOL    HW178422   5.735   8.132   8.097
 9861SOL    HW278423   5.731   8.200   7.949
 9862SOL     OW78424   3.454   6.738   0.921
 9862SOL    HW178425   3.446   6.725   0.822
 9862SOL    HW278426   3.366   6.766   0.958
 9863SOL     OW78427   3.535   9.204   2.248
 9863SOL    HW178428   3.606   9.265   2.284
 9863SOL    HW278429   3.502   9.144   2.320
 9864SOL     OW78430   4.011  13.551   7.799
 9864SOL    HW178431   4.018  13.501   7.713
 9864SOL    HW278432   3.989  13.487   7.873
 9865SOL     OW78433   0.252  10.604   8.128
 9865SOL    HW178434   0.336  10.617   8.074
 9865SOL    HW278435   0.178  10.575   8.067
 9866SOL     OW78436  10.383   3.965   0.420
 9866SOL    HW178437  10.354   3.948   0.514
 9866SOL    HW278438  10.311   4.012   0.370
 9867SOL     OW78439   3.898  15.780   1.815
 9867SOL    HW178440   3.870  15.700   1.761
 9867SOL    HW278441   3.935  15.850   1.754
 9868SOL     OW78442  14.067   7.621   1.288
 9868SOL    HW178443  14.098   7.545   1.346
 9868SOL    HW278444  14.008   7.587   1.216
 9869SOL     OW78445   8.428   3.795   6.482
 9869SOL    HW178446   8.527   3.804   6.487
 9869SOL    HW278447   8.402   3.768   6.389
 9870SOL     OW78448  12.802   6.958   7.590
 9870SOL    HW178449  12.892   6.915   7.580
 9870SOL    HW278450  12.806   7.053   7.559
 9871SOL     OW78451  11.358   7.911   1.192
 9871SOL    HW178452  11.376   7.987   1.130
 9871SOL    HW278453  11.260   7.892   1.194
 9872SOL     OW78454   4.793   5.985   0.395
 9872SOL    HW178455   4.798   6.074   0.348
 9872SOL    HW278456   4.884   5.961   0.429
 9873SOL     OW78457   8.505  13.030   0.324
 9873SOL    HW178458   8.490  13.067   0.416
 9873SOL    HW278459   8.563  12.948   0.330
 9874SOL     OW78460  14.740   2.101   7.680
 9874SOL    HW178461  14.727   2.191   7.723
 9874SOL    HW278462  14.830   2.097   7.638
 9875SOL     OW78463  14.771  15.270   0.369
 9875SOL    HW178464  14.861  15.311   0.384
 9875SOL    HW278465  14.700  15.338   0.385
 9876SOL     OW78466  12.971  13.045   0.485
 9876SOL    HW178467  12.921  12.968   0.445
 9876SOL    HW278468  13.030  13.011   0.558
 9877SOL     OW78469  13.808  13.577   7.042
 9877SOL    HW178470  13.734  13.644   7.051
 9877SOL    HW278471  13.825  13.559   6.945
 9878SOL     OW78472   9.438   4.616   2.253
 9878SOL    HW178473   9.429   4.715   2.259
 9878SOL    HW278474   9.363   4.573   2.304
 9879SOL     OW78475  15.418  16.968   7.528
 9879SOL    HW178476  15.490  16.899   7.522
 9879SOL    HW278477  15.338  16.937   7.475
 9880SOL     OW78478   5.810   5.535   7.649
 9880SOL    HW178479   5.762   5.467   7.705
 9880SOL    HW278480   5.895   5.496   7.614
 9881SOL     OW78481  12.247  14.921   0.198
 9881SOL    HW178482  12.185  14.979   0.251
 9881SOL    HW278483  12.341  14.938   0.226
 9882SOL     OW78484  12.514  14.201   7.650
 9882SOL    HW178485  12.471  14.284   7.615
 9882SOL    HW278486  12.609  14.197   7.619
 9883SOL     OW78487   4.114   6.678   0.871
 9883SOL    HW178488   4.153   6.607   0.930
 9883SOL    HW278489   4.029   6.711   0.911
 9884SOL     OW78490   6.165   6.555   7.466
 9884SOL    HW178491   6.258   6.583   7.488
 9884SOL    HW278492   6.110   6.635   7.442
 9885SOL     OW78493  12.855  12.094   7.172
 9885SOL    HW178494  12.883  12.175   7.224
 9885SOL    HW278495  12.805  12.123   7.090
 9886SOL     OW78496   3.413  12.429   0.346
 9886SOL    HW178497   3.479  12.449   0.418
 9886SOL    HW278498   3.458  12.434   0.257
 9887SOL     OW78499  12.145   4.573   8.444
 9887SOL    HW178500  12.101   4.493   0.032
 9887SOL    HW278501  12.090   4.654   0.010
 9888SOL     OW78502   2.707  10.408   0.587
 9888SOL    HW178503   2.728  10.452   0.500
 9888SOL    HW278504   2.789  10.407   0.644
 9889SOL     OW78505  10.035   3.889   0.702
 9889SOL    HW178506  10.004   3.795   0.682
 9889SOL    HW278507   9.987   3.953   0.641
 9890SOL     OW78508  10.347   3.023   6.109
 9890SOL    HW178509  10.416   2.951   6.113
 9890SOL    HW278510  10.275   2.995   6.045
 9891SOL     OW78511   4.568  12.562   1.203
 9891SOL    HW178512   4.634  12.523   1.267
 9891SOL    HW278513   4.599  12.652   1.173
 9892SOL     OW78514  13.337  11.842   2.376
 9892SOL    HW178515  13.417  11.902   2.377
 9892SOL    HW278516  13.347  11.771   2.445
 9893SOL     OW78517  11.683   3.500   6.739
 9893SOL    HW178518  11.666   3.403   6.753
 9893SOL    HW278519  11.623   3.554   6.798
 9894SOL     OW78520   8.463  16.390   1.190
 9894SOL    HW178521   8.527  16.430   1.256
 9894SOL    HW278522   8.488  16.419   1.097
 9895SOL     OW78523   1.851  14.411   6.930
 9895SOL    HW178524   1.931  14.402   6.871
 9895SOL    HW278525   1.769  14.387   6.879
 9896SOL     OW78526   2.814  11.499   0.250
 9896SOL    HW178527   2.842  11.574   0.190
 9896SOL    HW278528   2.895  11.443   0.271
 9897SOL     OW78529   2.305   3.115   0.721
 9897SOL    HW178530   2.207   3.095   0.719
 9897SOL    HW278531   2.324   3.195   0.664
 9898SOL     OW78532   9.411   9.406   6.358
 9898SOL    HW178533   9.397   9.323   6.304
 9898SOL    HW278534   9.505   9.438   6.345
 9899SOL     OW78535  14.366  11.376   7.694
 9899SOL    HW178536  14.335  11.344   7.604
 9899SOL    HW278537  14.453  11.425   7.684
 9900SOL     OW78538   7.078   5.464   2.217
 9900SOL    HW178539   7.102   5.541   2.276
 9900SOL    HW278540   7.068   5.381   2.272
 9901SOL     OW78541  16.202  12.566   0.377
 9901SOL    HW178542  16.228  12.662   0.370
 9901SOL    HW278543  16.103  12.558   0.367
 9902SOL     OW78544  15.109   5.831   6.855
 9902SOL    HW178545  15.195   5.802   6.814
 9902SOL    HW278546  15.109   5.931   6.867
 9903SOL     OW78547   4.324   3.000   1.175
 9903SOL    HW178548   4.422   3.011   1.189
 9903SOL    HW278549   4.274   3.049   1.246
 9904SOL     OW78550   1.527   1.649   7.063
 9904SOL    HW178551   1.596   1.578   7.069
 9904SOL    HW278552   1.463   1.627   6.988
 9905SOL     OW78553   2.382  14.511   8.437
 9905SOL    HW178554   2.307  14.448   0.002
 9905SOL    HW278555   2.429  14.483   8.353
 9906SOL     OW78556  13.142   4.477   8.191
 9906SOL    HW178557  13.055   4.472   8.240
 9906SOL    HW278558  13.189   4.388   8.198
 9907SOL     OW78559  10.122   5.688   6.504
 9907SOL    HW178560  10.126   5.617   6.434
 9907SOL    HW278561  10.166   5.771   6.470
 9908SOL     OW78562  15.575   2.233   1.782
 9908SOL    HW178563  15.652   2.247   1.843
 9908SOL    HW278564  15.536   2.142   1.798
 9909SOL     OW78565   7.639  10.450   0.943
 9909SOL    HW178566   7.584  10.532   0.925
 9909SOL    HW278567   7.629  10.385   0.868
 9910SOL     OW78568  14.599  10.253   1.182
 9910SOL    HW178569  14.682  10.204   1.207
 9910SOL    HW278570  14.602  10.275   1.084
 9911SOL     OW78571  10.367  11.232   1.850
 9911SOL    HW178572  10.357  11.247   1.948
 9911SOL    HW278573  10.278  11.211   1.810
 9912SOL     OW78574  15.304  12.741   6.566
 9912SOL    HW178575  15.231  12.742   6.633
 9912SOL    HW278576  15.373  12.674   6.592
 9913SOL     OW78577   6.147  14.743   0.880
 9913SOL    HW178578   6.113  14.718   0.789
 9913SOL    HW278579   6.078  14.796   0.928
 9914SOL     OW78580  16.030   6.910   1.020
 9914SOL    HW178581  16.078   6.941   1.102
 9914SOL    HW278582  16.071   6.825   0.988
 9915SOL     OW78583   4.128   4.837   1.610
 9915SOL    HW178584   4.110   4.916   1.668
 9915SOL    HW278585   4.224   4.837   1.582
 9916SOL     OW78586   2.255   9.170   0.540
 9916SOL    HW178587   2.352   9.191   0.528
 9916SOL    HW278588   2.202   9.217   0.469
 9917SOL     OW78589   9.171   4.115   0.750
 9917SOL    HW178590   9.187   4.018   0.764
 9917SOL    HW278591   9.131   4.130   0.660
 9918SOL     OW78592   8.302  16.304   6.628
 9918SOL    HW178593   8.308  16.279   6.531
 9918SOL    HW278594   8.324  16.224   6.684
 9919SOL     OW78595   9.287   5.069   8.389
 9919SOL    HW178596   9.238   5.072   0.022
 9919SOL    HW278597   9.221   5.060   8.314
 9920SOL     OW78598  11.406   4.656   0.887
 9920SOL    HW178599  11.498   4.665   0.924
 9920SOL    HW278600  11.369   4.566   0.913
 9921SOL     OW78601   3.683  12.097   0.598
 9921SOL    HW178602   3.644  12.110   0.506
 9921SOL    HW278603   3.775  12.135   0.601
 9922SOL     OW78604   6.102  16.205   1.691
 9922SOL    HW178605   6.180  16.144   1.708
 9922SOL    HW278606   6.017  16.158   1.719
 9923SOL     OW78607   1.122  12.187   0.611
 9923SOL    HW178608   1.144  12.206   0.707
 9923SOL    HW278609   1.100  12.273   0.565
 9924SOL     OW78610   7.856   4.187   7.954
 9924SOL    HW178611   7.775   4.174   7.897
 9924SOL    HW278612   7.830   4.178   8.051
 9925SOL     OW78613  12.831   9.581   6.737
 9925SOL    HW178614  12.857   9.485   6.747
 9925SOL    HW278615  12.758   9.589   6.670
 9926SOL     OW78616   8.495  15.617   1.375
 9926SOL    HW178617   8.406  15.585   1.341
 9926SOL    HW278618   8.491  15.715   1.390
 9927SOL     OW78619   4.633   5.350   7.426
 9927SOL    HW178620   4.601   5.397   7.509
 9927SOL    HW278621   4.691   5.273   7.451
 9928SOL     OW78622  15.328   3.874   6.558
 9928SOL    HW178623  15.346   3.834   6.649
 9928SOL    HW278624  15.387   3.954   6.545
 9929SOL     OW78625   0.844   0.420   0.227
 9929SOL    HW178626   0.845   0.507   0.277
 9929SOL    HW278627   0.921   0.363   0.256
 9930SOL     OW78628   9.301   9.454   6.864
 9930SOL    HW178629   9.297   9.475   6.962
 9930SOL    HW278630   9.396   9.434   6.839
 9931SOL     OW78631  15.933  12.094   0.502
 9931SOL    HW178632  15.985  12.115   0.584
 9931SOL    HW278633  15.968  12.009   0.461
 9932SOL     OW78634   3.638  16.942   1.070
 9932SOL    HW178635   3.623   0.054   1.044
 9932SOL    HW278636   3.550  16.899   1.091
 9933SOL     OW78637   2.462  16.861   2.123
 9933SOL    HW178638   2.446  16.941   2.181
 9933SOL    HW278639   2.392  16.791   2.142
 9934SOL     OW78640   3.822   9.672   1.335
 9934SOL    HW178641   3.907   9.650   1.383
 9934SOL    HW278642   3.820   9.770   1.314
 9935SOL     OW78643   9.309  14.740   1.914
 9935SOL    HW178644   9.392  14.772   1.868
 9935SOL    HW278645   9.304  14.779   2.006
 9936SOL     OW78646  16.593  10.464   2.340
 9936SOL    HW178647  16.676  10.448   2.285
 9936SOL    HW278648  16.619  10.503   2.428
 9937SOL     OW78649   4.822   1.407   8.300
 9937SOL    HW178650   4.856   1.429   8.209
 9937SOL    HW278651   4.838   1.310   8.319
 9938SOL     OW78652   2.365   6.550   0.382
 9938SOL    HW178653   2.280   6.500   0.400
 9938SOL    HW278654   2.443   6.490   0.397
 9939SOL     OW78655  16.248  10.499   0.866
 9939SOL    HW178656  16.217  10.466   0.955
 9939SOL    HW278657  16.338  10.460   0.846
 9940SOL     OW78658  15.327   3.404   0.242
 9940SOL    HW178659  15.250   3.459   0.208
 9940SOL    HW278660  15.362   3.347   0.169
 9941SOL     OW78661  15.060  15.548   0.637
 9941SOL    HW178662  15.148  15.502   0.654
 9941SOL    HW278663  15.058  15.583   0.544
 9942SOL     OW78664   7.395  10.995   1.155
 9942SOL    HW178665   7.487  10.971   1.124
 9942SOL    HW278666   7.341  10.911   1.168
 9943SOL     OW78667   8.292   3.607   7.820
 9943SOL    HW178668   8.204   3.582   7.859
 9943SOL    HW278669   8.291   3.591   7.721
 9944SOL     OW78670   8.092   9.336   2.103
 9944SOL    HW178671   8.119   9.399   2.030
 9944SOL    HW278672   8.172   9.310   2.156
 9945SOL     OW78673   3.704  15.483   1.959
 9945SOL    HW178674   3.692  15.461   2.055
 9945SOL    HW278675   3.782  15.432   1.922
 9946SOL     OW78676   4.730   7.620   0.935
 9946SOL    HW178677   4.706   7.582   1.024
 9946SOL    HW278678   4.771   7.711   0.947
 9947SOL     OW78679  16.763  13.999   6.984
 9947SOL    HW178680  16.781  13.996   6.886
 9947SOL    HW278681  16.848  14.015   7.034
 9948SOL     OW78682   6.432  12.969   7.171
 9948SOL    HW178683   6.395  12.877   7.187
 9948SOL    HW278684   6.415  13.026   7.252
 9949SOL     OW78685  14.902  13.272   7.944
 9949SOL    HW178686  14.936  13.197   8.000
 9949SOL    HW278687  14.864  13.236   7.859
 9950SOL     OW78688   6.152  13.849   1.977
 9950SOL    HW178689   6.100  13.776   2.020
 9950SOL    HW278690   6.230  13.873   2.034
 9951SOL     OW78691   2.389  15.016   1.001
 9951SOL    HW178692   2.312  15.065   1.042
 9951SOL    HW278693   2.406  15.052   0.909
 9952SOL     OW78694   6.603   4.693   0.581
 9952SOL    HW178695   6.687   4.684   0.634
 9952SOL    HW278696   6.545   4.763   0.622
 9953SOL     OW78697   0.713   0.045   0.092
 9953SOL    HW178698   0.707   0.141   0.064
 9953SOL    HW278699   0.702  16.969   0.012
 9954SOL     OW78700  14.952   5.957   7.895
 9954SOL    HW178701  14.930   6.043   7.850
 9954SOL    HW278702  15.050   5.940   7.889
 9955SOL     OW78703  11.439   9.236   0.294
 9955SOL    HW178704  11.378   9.276   0.362
 9955SOL    HW278705  11.398   9.247   0.203
 9956SOL     OW78706  10.042   6.665   6.181
 9956SOL    HW178707   9.983   6.670   6.101
 9956SOL    HW278708  10.126   6.717   6.163
 9957SOL     OW78709  10.266  14.796   1.531
 9957SOL    HW178710  10.290  14.893   1.529
 9957SOL    HW278711  10.174  14.783   1.493
 9958SOL     OW78712  12.262   9.493   0.995
 9958SOL    HW178713  12.314   9.524   0.916
 9958SOL    HW278714  12.287   9.399   1.017
 9959SOL     OW78715   0.723   8.442   0.747
 9959SOL    HW178716   0.652   8.512   0.748
 9959SOL    HW278717   0.772   8.446   0.660
 9960SOL     OW78718  15.035  14.953   1.365
 9960SOL    HW178719  15.073  14.914   1.449
 9960SOL    HW278720  15.088  15.034   1.339
 9961SOL     OW78721   0.193   6.885   7.968
 9961SOL    HW178722   0.139   6.968   7.955
 9961SOL    HW278723   0.146   6.825   8.033
 9962SOL     OW78724   1.131  13.504   2.353
 9962SOL    HW178725   1.111  13.563   2.431
 9962SOL    HW278726   1.229  13.506   2.334
 9963SOL     OW78727   7.398   1.184   1.277
 9963SOL    HW178728   7.472   1.236   1.235
 9963SOL    HW278729   7.391   1.208   1.374
 9964SOL     OW78730   0.500  10.084   7.202
 9964SOL    HW178731   0.529  10.010   7.262
 9964SOL    HW278732   0.525  10.172   7.243
 9965SOL     OW78733   4.994   9.473   1.834
 9965SOL    HW178734   5.047   9.496   1.752
 9965SOL    HW278735   4.963   9.378   1.827
 9966SOL     OW78736  15.515   4.635   0.669
 9966SOL    HW178737  15.529   4.653   0.571
 9966SOL    HW278738  15.572   4.558   0.697
 9967SOL     OW78739   8.707   4.487   0.875
 9967SOL    HW178740   8.740   4.461   0.966
 9967SOL    HW278741   8.725   4.585   0.861
 9968SOL     OW78742   2.537  11.781   1.703
 9968SOL    HW178743   2.449  11.798   1.747
 9968SOL    HW278744   2.609  11.833   1.750
 9969SOL     OW78745   9.347  11.680   7.686
 9969SOL    HW178746   9.302  11.733   7.614
 9969SOL    HW278747   9.293  11.686   7.770
 9970SOL     OW78748   0.339   9.851   7.497
 9970SOL    HW178749   0.429   9.844   7.454
 9970SOL    HW278750   0.306   9.760   7.522
 9971SOL     OW78751   6.110   1.285   6.239
 9971SOL    HW178752   6.195   1.332   6.260
 9971SOL    HW278753   6.047   1.347   6.192
 9972SOL     OW78754  13.556   8.195   7.865
 9972SOL    HW178755  13.605   8.272   7.824
 9972SOL    HW278756  13.610   8.111   7.855
 9973SOL     OW78757  13.230   3.129   1.794
 9973SOL    HW178758  13.285   3.091   1.869
 9973SOL    HW278759  13.134   3.132   1.822
 9974SOL     OW78760   0.373  13.815   7.697
 9974SOL    HW178761   0.388  13.851   7.605
 9974SOL    HW278762   0.280  13.836   7.726
 9975SOL     OW78763  15.302   0.095   7.758
 9975SOL    HW178764  15.340   0.045   7.680
 9975SOL    HW278765  15.231   0.158   7.726
 9976SOL     OW78766   1.602  11.236   7.561
 9976SOL    HW178767   1.550  11.197   7.638
 9976SOL    HW278768   1.539  11.274   7.494
 9977SOL     OW78769  13.441  16.162   7.645
 9977SOL    HW178770  13.444  16.083   7.707
 9977SOL    HW278771  13.348  16.197   7.641
 9978SOL     OW78772   2.833  12.286   0.606
 9978SOL    HW178773   2.927  12.253   0.606
 9978SOL    HW278774   2.784  12.250   0.686
 9979SOL     OW78775  16.633  10.522   1.191
 9979SOL    HW178776  16.553  10.580   1.203
 9979SOL    HW278777  16.674  10.539   1.101
 9980SOL     OW78778  13.641  14.212   1.245
 9980SOL    HW178779  13.670  14.221   1.340
 9980SOL    HW278780  13.720  14.222   1.185
 9981SOL     OW78781   0.482  16.488   0.841
 9981SOL    HW178782   0.437  16.576   0.853
 9981SOL    HW278783   0.581  16.503   0.829
 9982SOL     OW78784   2.517  14.009   2.184
 9982SOL    HW178785   2.562  13.990   2.271
 9982SOL    HW278786   2.583  13.996   2.109
 9983SOL     OW78787   2.551  11.386   1.880
 9983SOL    HW178788   2.498  11.430   1.952
 9983SOL    HW278789   2.562  11.289   1.901
 9984SOL     OW78790  10.289  10.105   7.549
 9984SOL    HW178791  10.352  10.110   7.472
 9984SOL    HW278792  10.339  10.079   7.631
 9985SOL     OW78793  16.788   3.873   7.249
 9985SOL    HW178794  16.871   3.925   7.268
 9985SOL    HW278795  16.810   3.775   7.249
 9986SOL     OW78796   2.911  14.104   7.805
 9986SOL    HW178797   2.847  14.114   7.728
 9986SOL    HW278798   2.868  14.137   7.889
 9987SOL     OW78799  16.499  13.601   7.076
 9987SOL    HW178800  16.584  13.552   7.057
 9987SOL    HW278801  16.509  13.696   7.045
 9988SOL     OW78802   7.503   4.649   8.040
 9988SOL    HW178803   7.506   4.670   8.137
 9988SOL    HW278804   7.535   4.555   8.025
 9989SOL     OW78805   3.907  14.169   0.753
 9989SOL    HW178806   3.819  14.121   0.765
 9989SOL    HW278807   3.939  14.154   0.659
 9990SOL     OW78808  13.326   4.208   0.504
 9990SOL    HW178809  13.292   4.166   0.588
 9990SOL    HW278810  13.256   4.269   0.467
 9991SOL     OW78811   5.867  12.295   7.678
 9991SOL    HW178812   5.883  12.354   7.758
 9991SOL    HW278813   5.947  12.238   7.663
 9992SOL     OW78814   7.712   6.271   0.519
 9992SOL    HW178815   7.736   6.360   0.559
 9992SOL    HW278816   7.758   6.261   0.431
 9993SOL     OW78817  16.516   4.441   7.545
 9993SOL    HW178818  16.588   4.481   7.489
 9993SOL    HW278819  16.478   4.360   7.499
 9994SOL     OW78820   9.166  16.781   7.185
 9994SOL    HW178821   9.081  16.763   7.234
 9994SOL    HW278822   9.242  16.736   7.233
 9995SOL     OW78823   7.281   5.318   0.007
 9995SOL    HW178824   7.307   5.346   0.099
 9995SOL    HW278825   7.356   5.269   8.418
 9996SOL     OW78826  15.211   1.810   6.325
 9996SOL    HW178827  15.298   1.852   6.352
 9996SOL    HW278828  15.226   1.742   6.255
 9997SOL     OW78829   7.214  14.545   1.850
 9997SOL    HW178830   7.303  14.525   1.810
 9997SOL    HW278831   7.212  14.639   1.884
 9998SOL     OW78832   2.409   1.294   0.021
 9998SOL    HW178833   2.465   1.211   0.017
 9998SOL    HW278834   2.355   1.302   8.392
 9999SOL     OW78835  11.173   4.794   0.935
 9999SOL    HW178836  11.101   4.726   0.951
 9999SOL    HW278837  11.256   4.748   0.905
10000SOL     OW78838   2.634   7.109   6.810
10000SOL    HW178839   2.553   7.152   6.850
10000SOL    HW278840   2.653   7.150   6.721
10001SOL     OW78841   6.908  13.753   0.410
10001SOL    HW178842   6.979  13.707   0.357
10001SOL    HW278843   6.950  13.818   0.473
10002SOL     OW78844   1.415  16.856   0.086
10002SOL    HW178845   1.486  16.867   0.017
10002SOL    HW278846   1.437  16.778   0.145
10003SOL     OW78847  16.263  15.074   7.331
10003SOL    HW178848  16.170  15.041   7.351
10003SOL    HW278849  16.258  15.169   7.302
10004SOL     OW78850   7.306   1.497   7.524
10004SOL    HW178851   7.404   1.501   7.542
10004SOL    HW278852   7.257   1.550   7.594
10005SOL     OW78853  10.209  12.515   1.882
10005SOL    HW178854  10.263  12.598   1.898
10005SOL    HW278855  10.113  12.535   1.901
10006SOL     OW78856   5.668   4.059   0.335
10006SOL    HW178857   5.746   4.027   0.388
10006SOL    HW278858   5.699   4.121   0.263
10007SOL     OW78859  14.746   2.871   7.119
10007SOL    HW178860  14.648   2.866   7.104
10007SOL    HW278861  14.792   2.801   7.065
10008SOL     OW78862   7.331   2.271   7.638
10008SOL    HW178863   7.399   2.270   7.565
10008SOL    HW278864   7.273   2.190   7.633
10009SOL     OW78865   9.903   1.866   0.038
10009SOL    HW178866   9.911   1.766   0.031
10009SOL    HW278867   9.992   1.905   0.062
10010SOL     OW78868   4.617  12.034   1.225
10010SOL    HW178869   4.673  12.117   1.223
10010SOL    HW278870   4.624  11.991   1.315
10011SOL     OW78871  11.375  16.641   0.156
10011SOL    HW178872  11.320  16.715   0.192
10011SOL    HW278873  11.316  16.577   0.105
10012SOL     OW78874   0.733   8.354   7.887
10012SOL    HW178875   0.702   8.270   7.843
10012SOL    HW278876   0.758   8.421   7.817
10013SOL     OW78877   4.354  16.981   2.049
10013SOL    HW178878   4.298   0.070   2.090
10013SOL    HW278879   4.424   0.040   1.991
10014SOL     OW78880   1.298   8.570   0.053
10014SOL    HW178881   1.350   8.604   8.429
10014SOL    HW278882   1.247   8.646   0.095
10015SOL     OW78883  14.816   7.976   6.470
10015SOL    HW178884  14.811   8.060   6.415
10015SOL    HW278885  14.732   7.923   6.457
10016SOL     OW78886   4.662   3.615   7.057
10016SOL    HW178887   4.652   3.555   6.977
10016SOL    HW278888   4.593   3.687   7.053
10017SOL     OW78889   8.868   5.989   6.956
10017SOL    HW178890   8.802   6.060   6.933
10017SOL    HW278891   8.931   6.024   7.026
10018SOL     OW78892   5.615  12.828   1.687
10018SOL    HW178893   5.591  12.921   1.658
10018SOL    HW278894   5.712  12.823   1.707
10019SOL     OW78895  11.045  16.350   7.820
10019SOL    HW178896  11.143  16.334   7.826
10019SOL    HW278897  11.006  16.296   7.745
10020SOL     OW78898   4.074   7.091   0.962
10020SOL    HW178899   4.163   7.105   0.918
10020SOL    HW278900   4.016   7.035   0.902
10021SOL     OW78901   3.780   8.323   7.072
10021SOL    HW178902   3.725   8.268   7.136
10021SOL    HW278903   3.746   8.310   6.979
10022SOL     OW78904   8.843  15.790   0.256
10022SOL    HW178905   8.879  15.815   0.166
10022SOL    HW278906   8.778  15.715   0.246
10023SOL     OW78907  10.681   7.956   7.144
10023SOL    HW178908  10.614   7.904   7.092
10023SOL    HW278909  10.733   7.894   7.203
10024SOL     OW78910  10.327  16.662   7.875
10024SOL    HW178911  10.248  16.708   7.918
10024SOL    HW278912  10.403  16.658   7.940
10025SOL     OW78913  13.508  14.787   0.705
10025SOL    HW178914  13.413  14.815   0.719
10025SOL    HW278915  13.511  14.695   0.667
10026SOL     OW78916   2.855   5.701   7.847
10026SOL    HW178917   2.758   5.689   7.869
10026SOL    HW278918   2.882   5.633   7.778
10027SOL     OW78919   6.666  16.605   0.146
10027SOL    HW178920   6.700  16.623   0.053
10027SOL    HW278921   6.653  16.691   0.194
10028SOL     OW78922  10.651   4.842   5.829
10028SOL    HW178923  10.639   4.747   5.800
10028SOL    HW278924  10.643   4.903   5.750
10029SOL     OW78925   2.584   6.637   7.840
10029SOL    HW178926   2.491   6.627   7.874
10029SOL    HW278927   2.625   6.720   7.878
10030SOL     OW78928   5.661   2.727   0.506
10030SOL    HW178929   5.719   2.808   0.498
10030SOL    HW278930   5.597   2.725   0.429
10031SOL     OW78931   0.098  15.513   7.937
10031SOL    HW178932   0.011  15.554   7.963
10031SOL    HW278933   0.081  15.424   7.894
10032SOL     OW78934   3.242   5.461   0.920
10032SOL    HW178935   3.295   5.517   0.856
10032SOL    HW278936   3.205   5.382   0.873
10033SOL     OW78937  10.157   2.151   7.170
10033SOL    HW178938  10.066   2.114   7.190
10033SOL    HW278939  10.185   2.212   7.244
10034SOL     OW78940  16.344  10.018   1.737
10034SOL    HW178941  16.308   9.940   1.686
10034SOL    HW278942  16.288  10.033   1.819
10035SOL     OW78943   8.578   2.682   7.915
10035SOL    HW178944   8.649   2.620   7.882
10035SOL    HW278945   8.515   2.631   7.975
10036SOL     OW78946   4.584   0.386   7.935
10036SOL    HW178947   4.576   0.377   8.034
10036SOL    HW278948   4.609   0.299   7.894
10037SOL     OW78949   1.924  10.482   0.644
10037SOL    HW178950   1.986  10.422   0.593
10037SOL    HW278951   1.886  10.433   0.722
10038SOL     OW78952   3.306  15.837   7.310
10038SOL    HW178953   3.213  15.866   7.335
10038SOL    HW278954   3.373  15.896   7.355
10039SOL     OW78955   2.139  12.806   1.180
10039SOL    HW178956   2.052  12.842   1.214
10039SOL    HW278957   2.172  12.736   1.243
10040SOL     OW78958   4.643  12.021   8.219
10040SOL    HW178959   4.679  12.010   8.312
10040SOL    HW278960   4.677  12.107   8.181
10041SOL     OW78961   7.774  16.184   7.530
10041SOL    HW178962   7.807  16.091   7.549
10041SOL    HW278963   7.849  16.239   7.494
10042SOL     OW78964  13.326  11.651   2.575
10042SOL    HW178965  13.239  11.602   2.577
10042SOL    HW278966  13.344  11.691   2.665
10043SOL     OW78967   7.942  16.443   7.215
10043SOL    HW178968   8.001  16.485   7.146
10043SOL    HW278969   7.846  16.450   7.186
10044SOL     OW78970   8.780  10.735   6.841
10044SOL    HW178971   8.756  10.668   6.771
10044SOL    HW278972   8.778  10.827   6.801
10045SOL     OW78973   2.221  10.413   7.415
10045SOL    HW178974   2.201  10.472   7.337
10045SOL    HW278975   2.266  10.467   7.486
10046SOL     OW78976   4.754   0.047   1.994
10046SOL    HW178977   4.736   0.090   2.082
10046SOL    HW278978   4.675   0.062   1.934
10047SOL     OW78979  12.118  13.673   2.082
10047SOL    HW178980  12.128  13.605   2.154
10047SOL    HW278981  12.031  13.720   2.092
10048SOL     OW78982  16.258   4.736   5.843
10048SOL    HW178983  16.313   4.677   5.784
10048SOL    HW278984  16.180   4.771   5.792
10049SOL     OW78985   8.021   8.960   0.611
10049SOL    HW178986   8.087   9.015   0.662
10049SOL    HW278987   8.026   8.865   0.641
10050SOL     OW78988   0.976   6.474   0.088
10050SOL    HW178989   0.985   6.566   0.125
10050SOL    HW278990   1.036   6.463   0.009
10051SOL     OW78991  13.963   8.611   8.323
10051SOL    HW178992  13.962   8.530   8.264
10051SOL    HW278993  13.870   8.649   8.329
10052SOL     OW78994  13.944  16.915   1.016
10052SOL    HW178995  13.947   0.002   0.946
10052SOL    HW278996  13.853  16.872   1.016
10053SOL     OW78997  13.405   2.568   7.636
10053SOL    HW178998  13.414   2.648   7.695
10053SOL    HW278999  13.482   2.506   7.651
10054SOL     OW79000   0.663  16.460   1.246
10054SOL    HW179001   0.615  16.460   1.334
10054SOL    HW279002   0.668  16.366   1.211
10055SOL     OW79003   7.944   1.503   0.572
10055SOL    HW179004   8.006   1.455   0.633
10055SOL    HW279005   7.890   1.436   0.520
10056SOL     OW79006  11.897   0.153   7.413
10056SOL    HW179007  11.860   0.098   7.487
10056SOL    HW279008  11.949   0.230   7.451
10057SOL     OW79009  10.754   5.224   1.113
10057SOL    HW179010  10.762   5.247   1.209
10057SOL    HW279011  10.694   5.289   1.067
10058SOL     OW79012  11.551  14.675   7.966
10058SOL    HW179013  11.475  14.735   7.940
10058SOL    HW279014  11.582  14.624   7.886
10059SOL     OW79015  11.447  11.445   7.021
10059SOL    HW179016  11.396  11.488   6.946
10059SOL    HW279017  11.387  11.433   7.100
10060SOL     OW79018  13.719  16.264   8.174
10060SOL    HW179019  13.754  16.322   8.247
10060SOL    HW279020  13.701  16.320   8.092
10061SOL     OW79021  11.211   5.924   6.256
10061SOL    HW179022  11.242   5.931   6.161
10061SOL    HW279023  11.126   5.976   6.267
10062SOL     OW79024   2.328   1.116   0.758
10062SOL    HW179025   2.255   1.121   0.826
10062SOL    HW279026   2.298   1.159   0.673
10063SOL     OW79027   9.689   5.079   8.029
10063SOL    HW179028   9.657   4.990   8.062
10063SOL    HW279029   9.771   5.067   7.973
10064SOL     OW79030   6.072  14.229   7.347
10064SOL    HW179031   6.087  14.318   7.306
10064SOL    HW279032   6.087  14.157   7.279
10065SOL     OW79033  15.787  12.095   1.366
10065SOL    HW179034  15.855  12.096   1.439
10065SOL    HW279035  15.752  12.188   1.352
10066SOL     OW79036  13.615  13.774   7.053
10066SOL    HW179037  13.528  13.748   7.094
10066SOL    HW279038  13.599  13.838   6.977
10067SOL     OW79039   3.529  11.331   8.151
10067SOL    HW179040   3.571  11.400   8.210
10067SOL    HW279041   3.470  11.377   8.084
10068SOL     OW79042  14.749  14.778   7.842
10068SOL    HW179043  14.686  14.796   7.766
10068SOL    HW279044  14.759  14.679   7.855
10069SOL     OW79045  10.057   2.797   7.148
10069SOL    HW179046   9.975   2.775   7.095
10069SOL    HW279047  10.107   2.870   7.102
10070SOL     OW79048   3.312  11.637   0.983
10070SOL    HW179049   3.393  11.695   0.970
10070SOL    HW279050   3.302  11.616   1.080
10071SOL     OW79051   5.924   7.076   1.134
10071SOL    HW179052   5.868   7.011   1.082
10071SOL    HW279053   5.902   7.068   1.231
10072SOL     OW79054  10.945   4.060   7.086
10072SOL    HW179055  10.984   4.035   7.175
10072SOL    HW279056  11.019   4.086   7.024
10073SOL     OW79057   8.877   7.524   6.619
10073SOL    HW179058   8.932   7.501   6.538
10073SOL    HW279059   8.800   7.460   6.625
10074SOL     OW79060  11.471  10.644   6.998
10074SOL    HW179061  11.412  10.644   6.917
10074SOL    HW279062  11.563  10.672   6.973
10075SOL     OW79063   5.373   3.601   6.116
10075SOL    HW179064   5.360   3.508   6.082
10075SOL    HW279065   5.306   3.662   6.074
10076SOL     OW79066   5.417  14.973   7.096
10076SOL    HW179067   5.362  15.025   7.030
10076SOL    HW279068   5.357  14.912   7.148
10077SOL     OW79069   9.117  15.316   8.266
10077SOL    HW179070   9.132  15.257   8.187
10077SOL    HW279071   9.202  15.366   8.287
10078SOL     OW79072   6.749   7.615   1.803
10078SOL    HW179073   6.727   7.625   1.900
10078SOL    HW279074   6.830   7.557   1.793
10079SOL     OW79075   7.368  12.243   6.888
10079SOL    HW179076   7.418  12.235   6.975
10079SOL    HW279077   7.295  12.175   6.886
10080SOL     OW79078   6.572  11.630   5.960
10080SOL    HW179079   6.656  11.684   5.954
10080SOL    HW279080   6.555  11.585   5.872
10081SOL     OW79081  14.557   7.804   7.044
10081SOL    HW179082  14.533   7.715   7.082
10081SOL    HW279083  14.479   7.866   7.053
10082SOL     OW79084   9.508   6.785   7.629
10082SOL    HW179085   9.599   6.813   7.598
10082SOL    HW279086   9.506   6.686   7.640
10083SOL     OW79087   8.915   7.448   8.072
10083SOL    HW179088   8.946   7.442   7.977
10083SOL    HW279089   8.992   7.469   8.132
10084SOL     OW79090  11.369  13.348   8.173
10084SOL    HW179091  11.356  13.387   8.082
10084SOL    HW279092  11.298  13.279   8.190
10085SOL     OW79093  13.441  15.739   0.245
10085SOL    HW179094  13.504  15.663   0.230
10085SOL    HW279095  13.348  15.710   0.223
10086SOL     OW79096  13.862   7.203   6.161
10086SOL    HW179097  13.904   7.288   6.130
10086SOL    HW279098  13.898   7.127   6.107
10087SOL     OW79099  13.837   6.318   7.096
10087SOL    HW179100  13.896   6.275   7.165
10087SOL    HW279101  13.826   6.257   7.018
10088SOL     OW79102   7.727   0.676   0.962
10088SOL    HW179103   7.703   0.669   0.865
10088SOL    HW279104   7.645   0.700   1.015
10089SOL     OW79105   5.391   5.434   1.695
10089SOL    HW179106   5.349   5.344   1.685
10089SOL    HW279107   5.325   5.504   1.669
10090SOL     OW79108   8.584   1.148   6.348
10090SOL    HW179109   8.567   1.067   6.292
10090SOL    HW279110   8.584   1.229   6.290
10091SOL     OW79111   4.846   5.603   0.199
10091SOL    HW179112   4.799   5.690   0.189
10091SOL    HW279113   4.783   5.528   0.176
10092SOL     OW79114   1.704  12.408   6.727
10092SOL    HW179115   1.769  12.393   6.653
10092SOL    HW279116   1.640  12.481   6.702
10093SOL     OW79117  12.202  16.613   6.869
10093SOL    HW179118  12.190  16.592   6.966
10093SOL    HW279119  12.300  16.608   6.846
10094SOL     OW79120   2.413   0.112   8.228
10094SOL    HW179121   2.448   0.063   8.308
10094SOL    HW279122   2.343   0.177   8.257
10095SOL     OW79123  14.670   1.997   1.444
10095SOL    HW179124  14.713   2.047   1.519
10095SOL    HW279125  14.618   1.920   1.481
10096SOL     OW79126  15.484   5.877   7.974
10096SOL    HW179127  15.584   5.882   7.973
10096SOL    HW279128  15.453   5.815   7.902
10097SOL     OW79129   4.694   6.557   7.866
10097SOL    HW179130   4.604   6.536   7.827
10097SOL    HW279131   4.728   6.478   7.918
10098SOL     OW79132   2.700   9.507   1.577
10098SOL    HW179133   2.705   9.503   1.677
10098SOL    HW279134   2.621   9.562   1.550
10099SOL     OW79135  14.510   2.366   6.616
10099SOL    HW179136  14.576   2.291   6.619
10099SOL    HW279137  14.449   2.353   6.537
10100SOL     OW79138   6.811   6.837   7.461
10100SOL    HW179139   6.720   6.857   7.499
10100SOL    HW279140   6.880   6.853   7.532
10101SOL     OW79141   5.852   6.505   7.830
10101SOL    HW179142   5.805   6.428   7.875
10101SOL    HW279143   5.925   6.470   7.772
10102SOL     OW79144   4.942   7.995   6.510
10102SOL    HW179145   4.970   7.962   6.420
10102SOL    HW279146   4.842   7.993   6.518
10103SOL     OW79147   6.312   9.254   2.044
10103SOL    HW179148   6.246   9.191   2.085
10103SOL    HW279149   6.347   9.316   2.114
10104SOL     OW79150   0.032   8.255   1.576
10104SOL    HW179151   0.042   8.320   1.651
10104SOL    HW279152   0.036   8.304   1.489
10105SOL     OW79153   9.143   5.545   1.734
10105SOL    HW179154   9.159   5.644   1.732
10105SOL    HW279155   9.221   5.499   1.776
10106SOL     OW79156   9.840   1.120   1.590
10106SOL    HW179157   9.830   1.058   1.667
10106SOL    HW279158   9.845   1.214   1.623
10107SOL     OW79159  14.791  10.541   7.189
10107SOL    HW179160  14.849  10.475   7.141
10107SOL    HW279161  14.849  10.608   7.236
10108SOL     OW79162   1.032   5.143   2.041
10108SOL    HW179163   1.059   5.047   2.048
10108SOL    HW279164   0.990   5.172   2.127
10109SOL     OW79165  12.844  14.840   0.673
10109SOL    HW179166  12.790  14.814   0.754
10109SOL    HW279167  12.873  14.935   0.682
10110SOL     OW79168   3.699  16.716   2.767
10110SOL    HW179169   3.717  16.645   2.836
10110SOL    HW279170   3.691  16.805   2.812
10111SOL     OW79171   5.595   6.421   2.658
10111SOL    HW179172   5.689   6.448   2.637
10111SOL    HW279173   5.594   6.327   2.693
10112SOL     OW79174   9.842  15.863   1.209
10112SOL    HW179175   9.924  15.809   1.228
10112SOL    HW279176   9.793  15.879   1.295
10113SOL     OW79177   5.206   7.223   7.850
10113SOL    HW179178   5.240   7.290   7.783
10113SOL    HW279179   5.156   7.151   7.802
10114SOL     OW79180  13.898   9.245   1.205
10114SOL    HW179181  13.802   9.267   1.184
10114SOL    HW279182  13.937   9.319   1.260
10115SOL     OW79183   4.876   9.815   1.392
10115SOL    HW179184   4.814   9.797   1.315
10115SOL    HW279185   4.838   9.778   1.476
10116SOL     OW79186  11.307   1.790   0.667
10116SOL    HW179187  11.265   1.801   0.758
10116SOL    HW279188  11.241   1.747   0.605
10117SOL     OW79189  16.688   7.882   1.487
10117SOL    HW179190  16.748   7.941   1.541
10117SOL    HW279191  16.736   7.797   1.465
10118SOL     OW79192  14.320   8.204   8.036
10118SOL    HW179193  14.238   8.244   7.996
10118SOL    HW279194  14.374   8.276   8.080
10119SOL     OW79195   4.231   2.292   1.734
10119SOL    HW179196   4.293   2.277   1.811
10119SOL    HW279197   4.259   2.235   1.657
10120SOL     OW79198  10.676  11.401   1.150
10120SOL    HW179199  10.673  11.366   1.244
10120SOL    HW279200  10.733  11.483   1.148
10121SOL     OW79201   5.158  10.665   0.260
10121SOL    HW179202   5.211  10.701   0.337
10121SOL    HW279203   5.130  10.572   0.280
10122SOL     OW79204   3.177   0.232   0.679
10122SOL    HW179205   3.163   0.134   0.671
10122SOL    HW279206   3.135   0.278   0.600
10123SOL     OW79207   7.922   6.659   1.336
10123SOL    HW179208   7.983   6.588   1.303
10123SOL    HW279209   7.961   6.749   1.315
10124SOL     OW79210   6.016  14.938   6.917
10124SOL    HW179211   6.086  14.944   6.847
10124SOL    HW279212   6.048  14.879   6.991
10125SOL     OW79213  12.793   6.727   8.440
10125SOL    HW179214  12.738   6.743   0.068
10125SOL    HW279215  12.734   6.729   8.360
10126SOL     OW79216  13.899   6.729   0.068
10126SOL    HW179217  13.870   6.633   0.063
10126SOL    HW279218  13.907   6.756   0.164
10127SOL     OW79219  15.603   1.070   8.155
10127SOL    HW179220  15.671   1.120   8.208
10127SOL    HW279221  15.567   1.128   8.082
10128SOL     OW79222   0.741   3.960   7.112
10128SOL    HW179223   0.683   3.957   7.193
10128SOL    HW279224   0.807   3.884   7.116
10129SOL     OW79225  16.708  16.264   6.542
10129SOL    HW179226  16.790  16.309   6.507
10129SOL    HW279227  16.691  16.293   6.636
10130SOL     OW79228   4.354   9.659   0.712
10130SOL    HW179229   4.305   9.694   0.791
10130SOL    HW279230   4.375   9.562   0.726
10131SOL     OW79231   1.242  13.953   2.469
10131SOL    HW179232   1.264  13.904   2.554
10131SOL    HW279233   1.261  14.051   2.482
10132SOL     OW79234   9.003  14.013   0.867
10132SOL    HW179235   8.976  14.034   0.961
10132SOL    HW279236   8.924  14.026   0.806
10133SOL     OW79237  13.389   3.471   7.659
10133SOL    HW179238  13.408   3.461   7.562
10133SOL    HW279239  13.312   3.412   7.684
10134SOL     OW79240   9.037  12.272   0.751
10134SOL    HW179241   8.974  12.244   0.823
10134SOL    HW279242   8.997  12.348   0.700
10135SOL     OW79243  11.034  14.921   0.315
10135SOL    HW179244  11.013  14.933   0.412
10135SOL    HW279245  11.132  14.928   0.300
10136SOL     OW79246  11.554   0.281   2.015
10136SOL    HW179247  11.458   0.253   2.008
10136SOL    HW279248  11.606   0.209   2.060
10137SOL     OW79249   1.658  15.327   0.327
10137SOL    HW179250   1.573  15.333   0.275
10137SOL    HW279251   1.734  15.308   0.265
10138SOL     OW79252   6.419   1.717   7.464
10138SOL    HW179253   6.472   1.632   7.475
10138SOL    HW279254   6.375   1.741   7.550
10139SOL     OW79255  13.778   5.176   8.017
10139SOL    HW179256  13.810   5.131   7.934
10139SOL    HW279257  13.691   5.222   7.997
10140SOL     OW79258  11.682   5.431   7.916
10140SOL    HW179259  11.710   5.404   8.008
10140SOL    HW279260  11.730   5.514   7.889
10141SOL     OW79261  10.939   4.158   1.405
10141SOL    HW179262  10.965   4.134   1.498
10141SOL    HW279263  11.008   4.218   1.364
10142SOL     OW79264  14.364   9.385   2.557
10142SOL    HW179265  14.341   9.481   2.576
10142SOL    HW279266  14.319   9.357   2.472
10143SOL     OW79267  15.017   1.986   6.394
10143SOL    HW179268  15.094   1.925   6.373
10143SOL    HW279269  14.939   1.960   6.337
10144SOL     OW79270   9.620  14.576   7.659
10144SOL    HW179271   9.613  14.674   7.679
10144SOL    HW279272   9.714  14.554   7.633
10145SOL     OW79273   6.297   6.622   8.339
10145SOL    HW179274   6.233   6.546   8.333
10145SOL    HW279275   6.306   6.650   8.435
10146SOL     OW79276  15.410   7.668   6.645
10146SOL    HW179277  15.410   7.612   6.728
10146SOL    HW279278  15.373   7.615   6.569
10147SOL     OW79279   5.295   7.437   7.345
10147SOL    HW179280   5.345   7.517   7.377
10147SOL    HW279281   5.347   7.392   7.272
10148SOL     OW79282  13.086   9.599   8.120
10148SOL    HW179283  13.016   9.642   8.063
10148SOL    HW279284  13.048   9.582   8.211
10149SOL     OW79285   0.567  11.803   2.413
10149SOL    HW179286   0.621  11.881   2.444
10149SOL    HW279287   0.503  11.776   2.486
10150SOL     OW79288   5.049   7.652   8.331
10150SOL    HW179289   5.116   7.599   8.278
10150SOL    HW279290   5.096   7.728   8.376
10151SOL     OW79291  16.738  10.812   2.302
10151SOL    HW179292  16.662  10.814   2.367
10151SOL    HW279293  16.821  10.844   2.346
10152SOL     OW79294  16.350   8.850   6.425
10152SOL    HW179295  16.421   8.819   6.362
10152SOL    HW279296  16.376   8.938   6.464
10153SOL     OW79297   6.610  15.356   1.320
10153SOL    HW179298   6.529  15.342   1.376
10153SOL    HW279299   6.650  15.267   1.296
10154SOL     OW79300   8.438  16.664   0.570
10154SOL    HW179301   8.453  16.751   0.523
10154SOL    HW279302   8.397  16.681   0.660
10155SOL     OW79303  10.163   3.111   6.601
10155SOL    HW179304  10.210   3.123   6.514
10155SOL    HW279305  10.218   3.053   6.661
10156SOL     OW79306   9.629  14.595   8.170
10156SOL    HW179307   9.637  14.662   8.244
10156SOL    HW279308   9.534  14.563   8.165
10157SOL     OW79309  16.068  13.030   0.393
10157SOL    HW179310  16.075  13.101   0.464
10157SOL    HW279311  15.987  12.974   0.410
10158SOL     OW79312   8.035   2.229   7.965
10158SOL    HW179313   8.052   2.327   7.954
10158SOL    HW279314   7.963   2.201   7.902
10159SOL     OW79315   2.653   0.193   1.775
10159SOL    HW179316   2.582   0.253   1.738
10159SOL    HW279317   2.731   0.248   1.804
10160SOL     OW79318  14.501   8.516   7.293
10160SOL    HW179319  14.495   8.605   7.339
10160SOL    HW279320  14.595   8.482   7.299
10161SOL     OW79321   1.251  10.204   7.097
10161SOL    HW179322   1.217  10.122   7.144
10161SOL    HW279323   1.191  10.227   7.021
10162SOL     OW79324   9.601   3.720   7.299
10162SOL    HW179325   9.700   3.710   7.287
10162SOL    HW279326   9.560   3.758   7.216
10163SOL     OW79327   3.515   3.457   7.297
10163SOL    HW179328   3.428   3.503   7.313
10163SOL    HW279329   3.510   3.363   7.330
10164SOL     OW79330   9.586  13.605   8.225
10164SOL    HW179331   9.651  13.562   8.162
10164SOL    HW279332   9.636  13.664   8.289
10165SOL     OW79333  10.118   0.613   7.561
10165SOL    HW179334  10.106   0.626   7.463
10165SOL    HW279335  10.066   0.533   7.591
10166SOL     OW79336   1.489   3.930   0.019
10166SOL    HW179337   1.448   3.909   8.384
10166SOL    HW279338   1.551   4.008   0.010
10167SOL     OW79339  16.339  11.634   7.620
10167SOL    HW179340  16.353  11.699   7.695
10167SOL    HW279341  16.427  11.607   7.582
10168SOL     OW79342  11.688  16.214   6.879
10168SOL    HW179343  11.629  16.260   6.813
10168SOL    HW279344  11.773  16.186   6.833
10169SOL     OW79345  12.992   2.081   8.087
10169SOL    HW179346  13.059   2.148   8.119
10169SOL    HW279347  13.030   1.989   8.093
10170SOL     OW79348  14.621   6.530   0.362
10170SOL    HW179349  14.538   6.584   0.363
10170SOL    HW279350  14.695   6.583   0.320
10171SOL     OW79351   1.337   8.403   7.488
10171SOL    HW179352   1.373   8.438   7.575
10171SOL    HW279353   1.237   8.395   7.494
10172SOL     OW79354  10.511  11.389   1.491
10172SOL    HW179355  10.451  11.334   1.433
10172SOL    HW279356  10.487  11.486   1.482
10173SOL     OW79357  11.093  12.717   1.661
10173SOL    HW179358  11.040  12.656   1.720
10173SOL    HW279359  11.057  12.810   1.667
10174SOL     OW79360  15.674   8.508   8.226
10174SOL    HW179361  15.724   8.462   8.153
10174SOL    HW279362  15.595   8.556   8.188
10175SOL     OW79363   2.805   0.775   7.999
10175SOL    HW179364   2.756   0.770   7.912
10175SOL    HW279365   2.896   0.733   7.989
10176SOL     OW79366  14.243  11.788   1.380
10176SOL    HW179367  14.241  11.798   1.281
10176SOL    HW279368  14.331  11.820   1.415
10177SOL     OW79369  15.146   5.069   6.855
10177SOL    HW179370  15.163   5.015   6.938
10177SOL    HW279371  15.181   5.162   6.868
10178SOL     OW79372  16.764   5.820   7.609
10178SOL    HW179373  16.810   5.787   7.527
10178SOL    HW279374  16.683   5.873   7.584
10179SOL     OW79375  14.808   3.826   0.861
10179SOL    HW179376  14.888   3.820   0.921
10179SOL    HW279377  14.751   3.903   0.889
10180SOL     OW79378   4.938  14.550   1.434
10180SOL    HW179379   4.848  14.554   1.391
10180SOL    HW279380   4.973  14.456   1.430
10181SOL     OW79381  12.947  15.474   1.311
10181SOL    HW179382  12.951  15.382   1.351
10181SOL    HW279383  13.023  15.485   1.247
10182SOL     OW79384   9.911   0.814   0.195
10182SOL    HW179385   9.819   0.779   0.177
10182SOL    HW279386   9.975   0.773   0.130
10183SOL     OW79387  12.382  16.329   8.011
10183SOL    HW179388  12.332  16.276   7.942
10183SOL    HW279389  12.342  16.310   8.101
10184SOL     OW79390  12.964   6.578   6.246
10184SOL    HW179391  12.883   6.522   6.263
10184SOL    HW279392  13.044   6.519   6.233
10185SOL     OW79393   9.250   3.237   8.102
10185SOL    HW179394   9.214   3.321   8.062
10185SOL    HW279395   9.298   3.258   8.187
10186SOL     OW79396  12.583  15.888   0.011
10186SOL    HW179397  12.507  15.930   0.060
10186SOL    HW279398  12.571  15.900   8.366
10187SOL     OW79399   2.307   0.111   7.391
10187SOL    HW179400   2.407   0.113   7.392
10187SOL    HW279401   2.275   0.017   7.398
10188SOL     OW79402   9.676   9.495   6.314
10188SOL    HW179403   9.733   9.416   6.337
10188SOL    HW279404   9.716   9.544   6.237
10189SOL     OW79405  11.310   9.269   7.533
10189SOL    HW179406  11.360   9.355   7.524
10189SOL    HW279407  11.213   9.288   7.547
10190SOL     OW79408  10.532   3.069   1.691
10190SOL    HW179409  10.513   3.148   1.750
10190SOL    HW279410  10.503   2.985   1.736
10191SOL     OW79411   1.143   2.939   7.515
10191SOL    HW179412   1.203   2.945   7.595
10191SOL    HW279413   1.090   3.023   7.507
10192SOL     OW79414  11.037  10.596   7.204
10192SOL    HW179415  11.006  10.625   7.295
10192SOL    HW279416  11.131  10.628   7.189
10193SOL     OW79417  16.754   7.608   0.345
10193SOL    HW179418  16.692   7.536   0.376
10193SOL    HW279419  16.707   7.696   0.349
10194SOL     OW79420   1.143  12.952   1.390
10194SOL    HW179421   1.066  13.014   1.409
10194SOL    HW279422   1.108  12.862   1.366
10195SOL     OW79423   7.168   1.559   0.627
10195SOL    HW179424   7.234   1.617   0.674
10195SOL    HW279425   7.197   1.547   0.532
10196SOL     OW79426   5.542   0.113   2.268
10196SOL    HW179427   5.494   0.200   2.257
10196SOL    HW279428   5.636   0.129   2.298
10197SOL     OW79429   1.617   5.309   7.494
10197SOL    HW179430   1.648   5.308   7.399
10197SOL    HW279431   1.693   5.332   7.554
10198SOL     OW79432  10.939   6.371   1.621
10198SOL    HW179433  10.918   6.467   1.599
10198SOL    HW279434  10.956   6.363   1.719
10199SOL     OW79435  14.202  16.101   6.804
10199SOL    HW179436  14.185  16.038   6.728
10199SOL    HW279437  14.289  16.078   6.848
10200SOL     OW79438  12.592   4.112   5.561
10200SOL    HW179439  12.549   4.161   5.486
10200SOL    HW279440  12.536   4.032   5.585
10201SOL     OW79441   6.522   0.369   0.345
10201SOL    HW179442   6.453   0.310   0.386
10201SOL    HW279443   6.493   0.464   0.351
10202SOL     OW79444  12.539  15.433   1.387
10202SOL    HW179445  12.553  15.501   1.459
10202SOL    HW279446  12.468  15.369   1.415
10203SOL     OW79447  11.273  14.838   1.052
10203SOL    HW179448  11.245  14.932   1.072
10203SOL    HW279449  11.226  14.775   1.114
10204SOL     OW79450  15.797   2.406   6.410
10204SOL    HW179451  15.749   2.417   6.498
10204SOL    HW279452  15.895   2.415   6.425
10205SOL     OW79453  12.547   4.007   0.350
10205SOL    HW179454  12.621   3.957   0.306
10205SOL    HW279455  12.503   3.948   0.418
10206SOL     OW79456   1.490  16.699   0.893
10206SOL    HW179457   1.489  16.613   0.944
10206SOL    HW279458   1.550  16.690   0.813
10207SOL     OW79459  13.857  16.057   7.783
10207SOL    HW179460  13.838  15.990   7.712
10207SOL    HW279461  13.798  16.136   7.772
10208SOL     OW79462   6.166   1.009   1.310
10208SOL    HW179463   6.130   1.027   1.219
10208SOL    HW279464   6.254   0.963   1.303
10209SOL     OW79465   9.299  12.081   7.386
10209SOL    HW179466   9.316  12.065   7.289
10209SOL    HW279467   9.254  12.169   7.398
10210SOL     OW79468   6.285  16.046   6.418
10210SOL    HW179469   6.213  15.976   6.424
10210SOL    HW279470   6.297  16.073   6.323
10211SOL     OW79471   1.090  11.919   0.846
10211SOL    HW179472   1.064  11.907   0.750
10211SOL    HW279473   1.183  11.884   0.860
10212SOL     OW79474   4.446   4.677   8.064
10212SOL    HW179475   4.487   4.615   7.998
10212SOL    HW279476   4.501   4.679   8.148
10213SOL     OW79477   2.432  10.555   7.115
10213SOL    HW179478   2.486  10.582   7.196
10213SOL    HW279479   2.479  10.586   7.033
10214SOL     OW79480   3.717  10.005   7.546
10214SOL    HW179481   3.676  10.082   7.596
10214SOL    HW279482   3.644   9.945   7.513
10215SOL     OW79483  11.829   7.310   0.875
10215SOL    HW179484  11.857   7.214   0.876
10215SOL    HW279485  11.731   7.316   0.893
10216SOL     OW79486   3.691   9.094   7.862
10216SOL    HW179487   3.674   9.136   7.773
10216SOL    HW279488   3.699   9.165   7.932
10217SOL     OW79489  13.259  11.036   1.634
10217SOL    HW179490  13.262  11.090   1.718
10217SOL    HW279491  13.243  11.096   1.556
10218SOL     OW79492   4.095   9.287   0.003
10218SOL    HW179493   4.150   9.204   0.016
10218SOL    HW279494   4.119   9.354   0.074
10219SOL     OW79495   9.837   7.552   7.119
10219SOL    HW179496   9.887   7.638   7.135
10219SOL    HW279497   9.903   7.477   7.113
10220SOL     OW79498   6.591   0.448   1.075
10220SOL    HW179499   6.523   0.379   1.050
10220SOL    HW279500   6.612   0.504   0.995
10221SOL     OW79501  16.233  11.476   1.192
10221SOL    HW179502  16.232  11.553   1.256
10221SOL    HW279503  16.327  11.448   1.175
10222SOL     OW79504   3.549   0.696   0.395
10222SOL    HW179505   3.559   0.682   0.297
10222SOL    HW279506   3.580   0.614   0.444
10223SOL     OW79507   9.008  10.338   7.122
10223SOL    HW179508   9.090  10.369   7.171
10223SOL    HW279509   9.028  10.253   7.073
10224SOL     OW79510  13.136   2.626   7.951
10224SOL    HW179511  13.142   2.717   7.910
10224SOL    HW279512  13.226   2.584   7.953
10225SOL     OW79513  14.253   6.218   6.913
10225SOL    HW179514  14.206   6.300   6.946
10225SOL    HW279515  14.215   6.138   6.958
10226SOL     OW79516   3.858   2.341   7.290
10226SOL    HW179517   3.809   2.266   7.246
10226SOL    HW279518   3.842   2.426   7.239
10227SOL     OW79519  10.072  10.804   7.851
10227SOL    HW179520  10.004  10.876   7.846
10227SOL    HW279521  10.028  10.718   7.878
10228SOL     OW79522   1.336  16.286   6.837
10228SOL    HW179523   1.283  16.266   6.754
10228SOL    HW279524   1.431  16.259   6.823
10229SOL     OW79525  10.233   3.432   6.956
10229SOL    HW179526  10.290   3.353   6.974
10229SOL    HW279527  10.159   3.436   7.023
10230SOL     OW79528   2.360   8.205   1.746
10230SOL    HW179529   2.325   8.285   1.796
10230SOL    HW279530   2.399   8.235   1.659
10231SOL     OW79531   2.597  10.489   7.912
10231SOL    HW179532   2.534  10.502   7.988
10231SOL    HW279533   2.627  10.578   7.877
10232SOL     OW79534   2.620   6.391   7.725
10232SOL    HW179535   2.548   6.340   7.771
10232SOL    HW279536   2.618   6.486   7.756
10233SOL     OW79537   2.814  13.459   0.887
10233SOL    HW179538   2.853  13.469   0.979
10233SOL    HW279539   2.880  13.413   0.828
10234SOL     OW79540  13.363  12.958   0.540
10234SOL    HW179541  13.286  12.951   0.603
10234SOL    HW279542  13.426  13.029   0.573
10235SOL     OW79543   3.628   2.671   7.908
10235SOL    HW179544   3.619   2.768   7.889
10235SOL    HW279545   3.626   2.620   7.822
10236SOL     OW79546   4.258  15.069   6.579
10236SOL    HW179547   4.297  14.980   6.603
10236SOL    HW279548   4.328  15.126   6.538
10237SOL     OW79549  14.763  14.528   7.360
10237SOL    HW179550  14.832  14.462   7.333
10237SOL    HW279551  14.802  14.620   7.359
10238SOL     OW79552  11.585   8.077   7.017
10238SOL    HW179553  11.613   8.150   6.954
10238SOL    HW279554  11.501   8.034   6.984
10239SOL     OW79555   1.659   1.858   7.908
10239SOL    HW179556   1.569   1.817   7.924
10239SOL    HW279557   1.681   1.853   7.810
10240SOL     OW79558   2.070  10.445   1.767
10240SOL    HW179559   1.999  10.470   1.833
10240SOL    HW279560   2.106  10.355   1.790
10241SOL     OW79561  16.331  14.492   0.075
10241SOL    HW179562  16.330  14.544   8.444
10241SOL    HW279563  16.259  14.526   0.136
10242SOL     OW79564  13.025  12.240   2.018
10242SOL    HW179565  13.119  12.258   1.991
10242SOL    HW279566  12.967  12.235   1.936
10243SOL     OW79567   3.439  15.256   1.702
10243SOL    HW179568   3.527  15.220   1.733
10243SOL    HW279569   3.390  15.185   1.651
10244SOL     OW79570   7.918  12.484   6.812
10244SOL    HW179571   7.869  12.435   6.741
10244SOL    HW279572   8.007  12.513   6.777
10245SOL     OW79573   5.004   9.339   0.400
10245SOL    HW179574   5.093   9.334   0.445
10245SOL    HW279575   4.955   9.421   0.431
10246SOL     OW79576   6.852  14.424   0.726
10246SOL    HW179577   6.870  14.398   0.821
10246SOL    HW279578   6.820  14.519   0.723
10247SOL     OW79579   0.485   3.206   1.860
10247SOL    HW179580   0.436   3.209   1.774
10247SOL    HW279581   0.464   3.287   1.914
10248SOL     OW79582  15.981   1.765   1.084
10248SOL    HW179583  15.901   1.716   1.051
10248SOL    HW279584  16.018   1.823   1.011
10249SOL     OW79585  15.559  13.008   0.253
10249SOL    HW179586  15.504  12.925   0.255
10249SOL    HW279587  15.544  13.060   0.337
10250SOL     OW79588  14.320  14.054   7.659
10250SOL    HW179589  14.252  13.983   7.640
10250SOL    HW279590  14.277  14.144   7.654
10251SOL     OW79591  11.366   1.081   0.249
10251SOL    HW179592  11.428   1.140   0.196
10251SOL    HW279593  11.330   1.133   0.326
10252SOL     OW79594   0.241  10.417   0.087
10252SOL    HW179595   0.188  10.354   0.142
10252SOL    HW279596   0.248  10.505   0.134
10253SOL     OW79597   5.068   9.575   0.027
10253SOL    HW179598   5.078   9.561   8.383
10253SOL    HW279599   5.080   9.489   0.076
10254SOL     OW79600  15.646   7.658   1.550
10254SOL    HW179601  15.636   7.586   1.482
10254SOL    HW279602  15.585   7.640   1.627
10255SOL     OW79603   5.745   7.880   7.279
10255SOL    HW179604   5.688   7.959   7.254
10255SOL    HW279605   5.832   7.913   7.316
10256SOL     OW79606  15.590   3.119   0.988
10256SOL    HW179607  15.501   3.093   0.953
10256SOL    HW279608  15.583   3.137   1.086
10257SOL     OW79609  16.360  16.342   0.979
10257SOL    HW179610  16.376  16.328   1.077
10257SOL    HW279611  16.270  16.306   0.954
10258SOL     OW79612  16.666   2.683   6.015
10258SOL    HW179613  16.626   2.612   5.956
10258SOL    HW279614  16.712   2.751   5.960
10259SOL     OW79615   3.882  12.401   1.167
10259SOL    HW179616   3.951  12.427   1.099
10259SOL    HW279617   3.790  12.415   1.129
10260SOL     OW79618  12.952   2.752   0.534
10260SOL    HW179619  12.991   2.691   0.603
10260SOL    HW279620  12.989   2.729   0.444
10261SOL     OW79621   4.737   8.228   6.380
10261SOL    HW179622   4.710   8.142   6.425
10261SOL    HW279623   4.673   8.300   6.405
10262SOL     OW79624  14.694   7.214   2.196
10262SOL    HW179625  14.733   7.303   2.215
10262SOL    HW279626  14.669   7.169   2.282
10263SOL     OW79627   2.179  16.324   8.377
10263SOL    HW179628   2.244  16.383   8.328
10263SOL    HW279629   2.224  16.284   0.003
10264SOL     OW79630   7.739   1.427   0.336
10264SOL    HW179631   7.767   1.343   0.382
10264SOL    HW279632   7.657   1.464   0.379
10265SOL     OW79633   2.327   4.281   7.322
10265SOL    HW179634   2.257   4.285   7.251
10265SOL    HW279635   2.392   4.208   7.300
10266SOL     OW79636  15.182  10.716   7.952
10266SOL    HW179637  15.222  10.798   7.911
10266SOL    HW279638  15.136  10.663   7.881
10267SOL     OW79639  12.650   7.525   6.650
10267SOL    HW179640  12.724   7.470   6.689
10267SOL    HW279641  12.680   7.565   6.564
10268SOL     OW79642   8.306   4.800   0.262
10268SOL    HW179643   8.230   4.860   0.239
10268SOL    HW279644   8.371   4.849   0.320
10269SOL     OW79645   1.330  16.155   1.688
10269SOL    HW179646   1.313  16.252   1.704
10269SOL    HW279647   1.259  16.101   1.734
10270SOL     OW79648  15.635   5.216   0.429
10270SOL    HW179649  15.732   5.195   0.412
10270SOL    HW279650  15.615   5.307   0.391
10271SOL     OW79651   9.753   1.065   6.261
10271SOL    HW179652   9.692   1.142   6.243
10271SOL    HW279653   9.846   1.088   6.230
10272SOL     OW79654   0.163   1.922   8.390
10272SOL    HW179655   0.239   1.891   8.332
10272SOL    HW279656   0.120   1.843   8.435
10273SOL     OW79657   7.507  10.533   7.988
10273SOL    HW179658   7.530  10.597   7.915
10273SOL    HW279659   7.545  10.566   8.074
10274SOL     OW79660   3.425   4.383   7.970
10274SOL    HW179661   3.400   4.384   7.873
10274SOL    HW279662   3.487   4.459   7.989
10275SOL     OW79663  12.567   1.059   7.134
10275SOL    HW179664  12.605   1.075   7.043
10275SOL    HW279665  12.471   1.034   7.126
10276SOL     OW79666  15.849   9.431   1.038
10276SOL    HW179667  15.869   9.388   1.126
10276SOL    HW279668  15.751   9.424   1.019
10277SOL     OW79669   2.364  15.456   1.730
10277SOL    HW179670   2.336  15.507   1.812
10277SOL    HW279671   2.329  15.363   1.735
10278SOL     OW79672   5.002  15.607   2.140
10278SOL    HW179673   4.926  15.671   2.132
10278SOL    HW279674   5.004  15.568   2.233
10279SOL     OW79675  16.685  15.740   1.835
10279SOL    HW179676  16.694  15.757   1.933
10279SOL    HW279677  16.589  15.754   1.807
10280SOL     OW79678   3.751   5.538   1.595
10280SOL    HW179679   3.689   5.496   1.529
10280SOL    HW279680   3.701   5.603   1.652
10281SOL     OW79681  12.960  12.694   0.581
10281SOL    HW179682  12.927  12.735   0.665
10281SOL    HW279683  12.918  12.740   0.502
10282SOL     OW79684   9.182  12.945   0.547
10282SOL    HW179685   9.252  12.977   0.610
10282SOL    HW279686   9.199  12.984   0.456
10283SOL     OW79687   3.453   7.811   1.824
10283SOL    HW179688   3.422   7.880   1.889
10283SOL    HW279689   3.514   7.747   1.870
10284SOL     OW79690  14.441   3.943   7.070
10284SOL    HW179691  14.385   3.945   7.153
10284SOL    HW279692  14.537   3.960   7.095
10285SOL     OW79693  15.146  14.190   1.163
10285SOL    HW179694  15.051  14.176   1.191
10285SOL    HW279695  15.148  14.239   1.076
10286SOL     OW79696   7.156   6.248   8.198
10286SOL    HW179697   7.198   6.198   8.274
10286SOL    HW279698   7.143   6.344   8.225
10287SOL     OW79699  10.964   9.077   0.470
10287SOL    HW179700  11.031   9.074   0.396
10287SOL    HW279701  11.008   9.055   0.556
10288SOL     OW79702  10.499  13.295   2.431
10288SOL    HW179703  10.553  13.292   2.515
10288SOL    HW279704  10.420  13.354   2.444
10289SOL     OW79705   2.851  14.577   7.047
10289SOL    HW179706   2.803  14.525   7.116
10289SOL    HW279707   2.823  14.547   6.956
10290SOL     OW79708  11.512   1.253   0.084
10290SOL    HW179709  11.486   1.322   0.016
10290SOL    HW279710  11.581   1.291   0.146
10291SOL     OW79711   3.936   6.830   0.532
10291SOL    HW179712   3.898   6.744   0.567
10291SOL    HW279713   3.955   6.892   0.608
10292SOL     OW79714  13.935  14.571   2.436
10292SOL    HW179715  13.908  14.519   2.516
10292SOL    HW279716  13.999  14.644   2.463
10293SOL     OW79717  15.708   0.746   8.410
10293SOL    HW179718  15.769   0.818   8.441
10293SOL    HW279719  15.626   0.787   8.368
10294SOL     OW79720   0.482   6.777   1.073
10294SOL    HW179721   0.551   6.734   1.130
10294SOL    HW279722   0.494   6.748   0.978
10295SOL     OW79723   4.792   1.799   0.149
10295SOL    HW179724   4.749   1.814   0.060
10295SOL    HW279725   4.732   1.834   0.221
10296SOL     OW79726  11.533  13.771   7.143
10296SOL    HW179727  11.458  13.831   7.112
10296SOL    HW279728  11.585  13.818   7.214
10297SOL     OW79729   9.751   6.909   7.529
10297SOL    HW179730   9.834   6.946   7.571
10297SOL    HW279731   9.693   6.984   7.498
10298SOL     OW79732   5.484  16.936   0.231
10298SOL    HW179733   5.414  16.935   0.160
10298SOL    HW279734   5.558  16.873   0.206
10299SOL     OW79735  12.713   8.925   7.024
10299SOL    HW179736  12.807   8.940   7.055
10299SOL    HW279737  12.664   8.871   7.092
10300SOL     OW79738   2.773  13.692   0.752
10300SOL    HW179739   2.762  13.765   0.819
10300SOL    HW279740   2.780  13.604   0.799
10301SOL     OW79741   7.945  15.144   6.306
10301SOL    HW179742   7.957  15.099   6.218
10301SOL    HW279743   7.993  15.232   6.305
10302SOL     OW79744   0.716   2.910   8.037
10302SOL    HW179745   0.810   2.929   8.009
10302SOL    HW279746   0.669   2.995   8.056
10303SOL     OW79747  10.081   6.041   0.876
10303SOL    HW179748  10.127   5.952   0.885
10303SOL    HW279749  10.147   6.110   0.846
10304SOL     OW79750   4.302  15.834   1.998
10304SOL    HW179751   4.305  15.859   2.094
10304SOL    HW279752   4.215  15.788   1.978
10305SOL     OW79753  13.960   2.721   7.051
10305SOL    HW179754  14.040   2.778   7.033
10305SOL    HW279755  13.878   2.778   7.058
10306SOL     OW79756   8.805   3.229   6.791
10306SOL    HW179757   8.814   3.265   6.698
10306SOL    HW279758   8.772   3.302   6.851
10307SOL     OW79759   7.799   4.550   0.228
10307SOL    HW179760   7.722   4.612   0.210
10307SOL    HW279761   7.852   4.538   0.144
10308SOL     OW79762   3.690   7.107   0.783
10308SOL    HW179763   3.701   7.187   0.842
10308SOL    HW279764   3.669   7.137   0.690
10309SOL     OW79765  15.667   9.640   1.212
10309SOL    HW179766  15.645   9.543   1.219
10309SOL    HW279767  15.766   9.651   1.204
10310SOL     OW79768   6.573   3.270   0.943
10310SOL    HW179769   6.594   3.184   0.988
10310SOL    HW279770   6.515   3.254   0.864
10311SOL     OW79771  14.169   7.159   0.190
10311SOL    HW179772  14.163   7.258   0.179
10311SOL    HW279773  14.264   7.129   0.175
10312SOL     OW79774   6.457  12.654   0.995
10312SOL    HW179775   6.479  12.583   0.929
10312SOL    HW279776   6.510  12.737   0.976
10313SOL     OW79777   0.717  12.284   6.674
10313SOL    HW179778   0.637  12.332   6.709
10313SOL    HW279779   0.696  12.246   6.584
10314SOL     OW79780   1.864  11.323   1.409
10314SOL    HW179781   1.870  11.330   1.310
10314SOL    HW279782   1.953  11.296   1.447
10315SOL     OW79783   8.900   7.892   6.802
10315SOL    HW179784   8.918   7.875   6.705
10315SOL    HW279785   8.804   7.876   6.822
10316SOL     OW79786  14.518   6.875   1.938
10316SOL    HW179787  14.424   6.862   1.970
10316SOL    HW279788  14.578   6.809   1.983
10317SOL     OW79789   6.437  12.149   6.124
10317SOL    HW179790   6.403  12.236   6.087
10317SOL    HW279791   6.536  12.154   6.135
10318SOL     OW79792   6.773   6.868   1.006
10318SOL    HW179793   6.682   6.843   1.038
10318SOL    HW279794   6.810   6.939   1.065
10319SOL     OW79795  12.410   2.730   6.773
10319SOL    HW179796  12.476   2.661   6.803
10319SOL    HW279797  12.408   2.734   6.673
10320SOL     OW79798  15.995   1.756   0.249
10320SOL    HW179799  15.949   1.685   0.302
10320SOL    HW279800  15.927   1.810   0.199
10321SOL     OW79801   9.498  15.114   6.660
10321SOL    HW179802   9.561  15.152   6.727
10321SOL    HW279803   9.549  15.064   6.590
10322SOL     OW79804  16.900  15.289   0.576
10322SOL    HW179805  16.954  15.205   0.575
10322SOL    HW279806  16.803  15.266   0.577
10323SOL     OW79807   6.791  11.808   0.785
10323SOL    HW179808   6.726  11.881   0.763
10323SOL    HW279809   6.884  11.838   0.763
10324SOL     OW79810  11.256   8.645   0.952
10324SOL    HW179811  11.298   8.688   1.032
10324SOL    HW279812  11.289   8.551   0.942
10325SOL     OW79813   5.263   0.958   7.542
10325SOL    HW179814   5.270   1.008   7.629
10325SOL    HW279815   5.188   0.995   7.488
10326SOL     OW79816  16.400   5.764   0.792
10326SOL    HW179817  16.411   5.672   0.830
10326SOL    HW279818  16.344   5.819   0.854
10327SOL     OW79819   4.790   3.960   7.771
10327SOL    HW179820   4.771   3.865   7.745
10327SOL    HW279821   4.884   3.968   7.804
10328SOL     OW79822  12.957  14.133   1.514
10328SOL    HW179823  12.996  14.057   1.567
10328SOL    HW279824  12.858  14.135   1.527
10329SOL     OW79825   8.371   9.253   1.228
10329SOL    HW179826   8.424   9.315   1.286
10329SOL    HW279827   8.303   9.204   1.284
10330SOL     OW79828  12.094   5.565   6.308
10330SOL    HW179829  12.097   5.565   6.208
10330SOL    HW279830  12.160   5.631   6.344
10331SOL     OW79831   8.441   3.522   6.654
10331SOL    HW179832   8.499   3.583   6.707
10331SOL    HW279833   8.443   3.548   6.558
10332SOL     OW79834  12.302   1.357   0.410
10332SOL    HW179835  12.305   1.426   0.482
10332SOL    HW279836  12.389   1.309   0.406
10333SOL     OW79837  14.380   0.787   7.761
10333SOL    HW179838  14.398   0.799   7.663
10333SOL    HW279839  14.408   0.870   7.810
10334SOL     OW79840   6.751   5.167   6.514
10334SOL    HW179841   6.677   5.232   6.529
10334SOL    HW279842   6.715   5.085   6.468
10335SOL     OW79843   8.400   4.005   6.663
10335SOL    HW179844   8.398   3.924   6.604
10335SOL    HW279845   8.427   4.085   6.609
10336SOL     OW79846   6.708   5.933   1.565
10336SOL    HW179847   6.723   6.020   1.613
10336SOL    HW279848   6.629   5.887   1.605
10337SOL     OW79849  14.215  16.212   1.196
10337SOL    HW179850  14.245  16.305   1.173
10337SOL    HW279851  14.225  16.197   1.294
10338SOL     OW79852   1.577   0.328   8.327
10338SOL    HW179853   1.654   0.364   8.380
10338SOL    HW279854   1.549   0.395   8.259
10339SOL     OW79855   0.166   7.490   6.451
10339SOL    HW179856   0.224   7.467   6.373
10339SOL    HW279857   0.071   7.465   6.430
10340SOL     OW79858  12.216  12.826   7.410
10340SOL    HW179859  12.183  12.821   7.504
10340SOL    HW279860  12.287  12.757   7.397
10341SOL     OW79861   7.341  12.072   0.057
10341SOL    HW179862   7.431  12.036   0.084
10341SOL    HW279863   7.352  12.129   8.430
10342SOL     OW79864   1.011   7.386   0.226
10342SOL    HW179865   1.041   7.481   0.216
10342SOL    HW279866   0.959   7.377   0.311
10343SOL     OW79867  16.311  16.265   6.190
10343SOL    HW179868  16.398  16.290   6.234
10343SOL    HW279869  16.320  16.173   6.150
10344SOL     OW79870  10.010  12.637   0.190
10344SOL    HW179871  10.026  12.677   0.100
10344SOL    HW279872  10.055  12.693   0.259
10345SOL     OW79873   5.980  13.419   7.856
10345SOL    HW179874   5.924  13.336   7.851
10345SOL    HW279875   6.076  13.393   7.869
10346SOL     OW79876   5.711   4.184   1.167
10346SOL    HW179877   5.619   4.213   1.139
10346SOL    HW279878   5.779   4.233   1.113
10347SOL     OW79879  13.457  14.611   0.035
10347SOL    HW179880  13.421  14.562   8.410
10347SOL    HW279881  13.493  14.699   0.006
10348SOL     OW79882  16.759   1.201   1.482
10348SOL    HW179883  16.812   1.159   1.556
10348SOL    HW279884  16.760   1.140   1.403
10349SOL     OW79885   5.451   4.870   6.337
10349SOL    HW179886   5.551   4.872   6.337
10349SOL    HW279887   5.416   4.948   6.284
10350SOL     OW79888   2.138  12.634   1.649
10350SOL    HW179889   2.197  12.570   1.699
10350SOL    HW279890   2.043  12.622   1.678
10351SOL     OW79891  15.761   2.426   5.705
10351SOL    HW179892  15.715   2.338   5.720
10351SOL    HW279893  15.854   2.409   5.671
10352SOL     OW79894   9.932   7.108   6.615
10352SOL    HW179895  10.023   7.147   6.601
10352SOL    HW279896   9.879   7.169   6.674
10353SOL     OW79897   1.970  16.212   8.238
10353SOL    HW179898   2.043  16.249   8.296
10353SOL    HW279899   1.894  16.182   8.296
10354SOL     OW79900   4.358   8.695   7.813
10354SOL    HW179901   4.423   8.644   7.757
10354SOL    HW279902   4.272   8.706   7.763
10355SOL     OW79903   2.958  14.451   8.432
10355SOL    HW179904   3.037  14.391   8.421
10355SOL    HW279905   2.966  14.529   8.370
10356SOL     OW79906   8.543  15.558   1.668
10356SOL    HW179907   8.597  15.572   1.585
10356SOL    HW279908   8.454  15.603   1.657
10357SOL     OW79909   7.671   9.305   1.076
10357SOL    HW179910   7.751   9.325   1.133
10357SOL    HW279911   7.645   9.209   1.089
10358SOL     OW79912   0.737   5.658   0.514
10358SOL    HW179913   0.825   5.651   0.467
10358SOL    HW279914   0.672   5.706   0.455
10359SOL     OW79915   3.911  15.408   0.890
10359SOL    HW179916   3.825  15.435   0.846
10359SOL    HW279917   3.919  15.309   0.888
10360SOL     OW79918   7.255   8.139   7.763
10360SOL    HW179919   7.173   8.175   7.717
10360SOL    HW279920   7.336   8.160   7.708
10361SOL     OW79921  11.925  10.634   0.390
10361SOL    HW179922  11.949  10.537   0.390
10361SOL    HW279923  11.873  10.656   0.472
10362SOL     OW79924   1.879  16.751   0.856
10362SOL    HW179925   1.884  16.744   0.955
10362SOL    HW279926   1.887  16.847   0.829
10363SOL     OW79927  11.149  10.443   7.703
10363SOL    HW179928  11.183  10.532   7.732
10363SOL    HW279929  11.055  10.453   7.670
10364SOL     OW79930   6.430   8.801   0.674
10364SOL    HW179931   6.415   8.900   0.665
10364SOL    HW279932   6.472   8.782   0.762
10365SOL     OW79933  14.126  13.669   1.649
10365SOL    HW179934  14.182  13.731   1.704
10365SOL    HW279935  14.120  13.580   1.694
10366SOL     OW79936  15.372  15.034   0.006
10366SOL    HW179937  15.401  14.950   0.051
10366SOL    HW279938  15.341  15.014   8.367
10367SOL     OW79939   3.617   8.133   0.445
10367SOL    HW179940   3.662   8.103   0.530
10367SOL    HW279941   3.563   8.215   0.463
10368SOL     OW79942   5.410  14.495   0.392
10368SOL    HW179943   5.374  14.402   0.394
10368SOL    HW279944   5.341  14.559   0.425
10369SOL     OW79945   0.894  15.865   1.475
10369SOL    HW179946   0.869  15.775   1.440
10369SOL    HW279947   0.990  15.866   1.502
10370SOL     OW79948  14.867  14.148   1.215
10370SOL    HW179949  14.879  14.049   1.212
10370SOL    HW279950  14.813  14.177   1.136
10371SOL     OW79951  16.895   6.961   8.440
10371SOL    HW179952  16.908   6.864   8.417
10371SOL    HW279953  16.946   6.982   0.069
10372SOL     OW79954   1.360   7.518   7.893
10372SOL    HW179955   1.372   7.617   7.890
10372SOL    HW279956   1.295   7.494   7.964
10373SOL     OW79957   9.211  14.264   1.405
10373SOL    HW179958   9.303  14.230   1.427
10373SOL    HW279959   9.209  14.292   1.309
10374SOL     OW79960  14.637   0.969   7.043
10374SOL    HW179961  14.707   0.914   7.088
10374SOL    HW279962  14.669   0.997   6.952
10375SOL     OW79963  12.250   1.838   6.413
10375SOL    HW179964  12.275   1.934   6.399
10375SOL    HW279965  12.179   1.833   6.483
10376SOL     OW79966   9.414   3.992   1.950
10376SOL    HW179967   9.344   3.996   2.021
10376SOL    HW279968   9.440   3.897   1.932
10377SOL     OW79969  10.382  10.781   2.234
10377SOL    HW179970  10.298  10.785   2.288
10377SOL    HW279971  10.411  10.686   2.226
10378SOL     OW79972   2.865   4.997   8.316
10378SOL    HW179973   2.827   4.991   8.224
10378SOL    HW279974   2.963   5.016   8.310
10379SOL     OW79975   8.526  14.326   6.606
10379SOL    HW179976   8.510  14.270   6.525
10379SOL    HW279977   8.492  14.418   6.590
10380SOL     OW79978  16.006   9.492   8.414
10380SOL    HW179979  15.965   9.416   0.010
10380SOL    HW279980  16.097   9.466   8.381
10381SOL     OW79981  16.411   3.590   1.098
10381SOL    HW179982  16.349   3.532   1.152
10381SOL    HW279983  16.505   3.577   1.130
10382SOL     OW79984  10.014  15.477   7.543
10382SOL    HW179985  10.030  15.384   7.511
10382SOL    HW279986  10.086  15.537   7.509
10383SOL     OW79987   2.478  11.783   8.394
10383SOL    HW179988   2.576  11.764   8.389
10383SOL    HW279989   2.462  11.857   0.006
10384SOL     OW79990   6.258  13.800   7.712
10384SOL    HW179991   6.309  13.816   7.627
10384SOL    HW279992   6.195  13.724   7.699
10385SOL     OW79993  11.346  13.553   7.158
10385SOL    HW179994  11.434  13.600   7.161
10385SOL    HW279995  11.281  13.606   7.103
10386SOL     OW79996  13.129  15.473   7.905
10386SOL    HW179997  13.053  15.533   7.878
10386SOL    HW279998  13.211  15.528   7.920
10387SOL     OW79999   8.658  12.660   1.755
10387SOL    HW180000   8.721  12.720   1.706
10387SOL    HW280001   8.706  12.576   1.781
10388SOL     OW80002   8.084  14.601   1.711
10388SOL    HW180003   8.020  14.602   1.788
10388SOL    HW280004   8.160  14.663   1.729
10389SOL     OW80005  11.052  12.825   0.809
10389SOL    HW180006  10.995  12.771   0.746
10389SOL    HW280007  11.123  12.872   0.758
10390SOL     OW80008  16.688   5.680   6.929
10390SOL    HW180009  16.613   5.684   6.863
10390SOL    HW280010  16.724   5.587   6.934
10391SOL     OW80011   1.012   2.020   7.674
10391SOL    HW180012   1.099   2.064   7.690
10391SOL    HW280013   1.013   1.927   7.713
10392SOL     OW80014  16.158  11.300   7.079
10392SOL    HW180015  16.161  11.221   7.018
10392SOL    HW280016  16.076  11.354   7.060
10393SOL     OW80017   9.230   0.098   6.924
10393SOL    HW180018   9.153   0.161   6.917
10393SOL    HW280019   9.247   0.077   7.021
10394SOL     OW80020  10.563  15.784   7.674
10394SOL    HW180021  10.542  15.703   7.729
10394SOL    HW280022  10.530  15.866   7.721
10395SOL     OW80023   7.805   8.732   1.391
10395SOL    HW180024   7.747   8.735   1.309
10395SOL    HW280025   7.751   8.760   1.471
10396SOL     OW80026   5.065  15.694   7.209
10396SOL    HW180027   5.037  15.786   7.182
10396SOL    HW280028   4.988  15.648   7.253
10397SOL     OW80029  13.382   2.872   7.552
10397SOL    HW180030  13.282   2.866   7.557
10397SOL    HW280031  13.421   2.849   7.641
10398SOL     OW80032   1.421  11.203   1.923
10398SOL    HW180033   1.472  11.267   1.981
10398SOL    HW280034   1.342  11.249   1.884
10399SOL     OW80035  10.761  13.318   8.382
10399SOL    HW180036  10.684  13.351   8.327
10399SOL    HW280037  10.819  13.394   8.408
10400SOL     OW80038   8.913   4.301   1.331
10400SOL    HW180039   8.981   4.276   1.399
10400SOL    HW280040   8.871   4.219   1.294
10401SOL     OW80041   2.054  15.808   7.360
10401SOL    HW180042   2.061  15.801   7.460
10401SOL    HW280043   2.132  15.761   7.318
10402SOL     OW80044  16.648   6.681   1.186
10402SOL    HW180045  16.720   6.643   1.128
10402SOL    HW280046  16.656   6.643   1.278
10403SOL     OW80047   3.228   5.566   7.248
10403SOL    HW180048   3.191   5.478   7.279
10403SOL    HW280049   3.265   5.615   7.327
10404SOL     OW80050  13.943   5.641   8.094
10404SOL    HW180051  13.902   5.586   8.166
10404SOL    HW280052  14.011   5.587   8.044
10405SOL     OW80053  10.295   6.030   7.335
10405SOL    HW180054  10.229   6.045   7.261
10405SOL    HW280055  10.386   6.058   7.305
10406SOL     OW80056   2.270  15.825   6.595
10406SOL    HW180057   2.306  15.793   6.508
10406SOL    HW280058   2.278  15.924   6.601
10407SOL     OW80059   9.234   0.739   0.810
10407SOL    HW180060   9.212   0.726   0.907
10407SOL    HW280061   9.313   0.683   0.786
10408SOL     OW80062   2.356   0.617   6.395
10408SOL    HW180063   2.408   0.690   6.349
10408SOL    HW280064   2.273   0.598   6.342
10409SOL     OW80065   7.536   3.891   6.861
10409SOL    HW180066   7.462   3.913   6.923
10409SOL    HW280067   7.505   3.901   6.766
10410SOL     OW80068  14.433   6.356   7.539
10410SOL    HW180069  14.386   6.374   7.453
10410SOL    HW280070  14.500   6.427   7.557
10411SOL     OW80071   3.039   6.114   0.544
10411SOL    HW180072   3.067   6.210   0.543
10411SOL    HW280073   3.024   6.084   0.638
10412SOL     OW80074   8.020  13.806   6.798
10412SOL    HW180075   7.959  13.875   6.836
10412SOL    HW280076   8.021  13.814   6.698
10413SOL     OW80077   1.991   7.137   0.238
10413SOL    HW180078   2.055   7.213   0.248
10413SOL    HW280079   2.041   7.051   0.234
10414SOL     OW80080   7.124  16.465   7.588
10414SOL    HW180081   7.209  16.430   7.628
10414SOL    HW280082   7.143  16.501   7.497
10415SOL     OW80083  16.616   3.841   7.515
10415SOL    HW180084  16.545   3.815   7.580
10415SOL    HW280085  16.574   3.887   7.436
10416SOL     OW80086  14.726  11.331   7.987
10416SOL    HW180087  14.797  11.356   7.922
10416SOL    HW280088  14.760  11.345   8.080
10417SOL     OW80089  12.000  14.919   7.521
10417SOL    HW180090  12.008  14.902   7.423
10417SOL    HW280091  12.043  15.006   7.544
10418SOL     OW80092   5.590  11.859   1.683
10418SOL    HW180093   5.561  11.949   1.652
10418SOL    HW280094   5.677  11.835   1.639
10419SOL     OW80095   8.108  16.405   0.271
10419SOL    HW180096   8.141  16.357   0.190
10419SOL    HW280097   8.185  16.438   0.325
10420SOL     OW80098   2.230  15.581   7.573
10420SOL    HW180099   2.168  15.658   7.592
10420SOL    HW280100   2.322  15.604   7.603
10421SOL     OW80101  15.022   7.957   1.151
10421SOL    HW180102  15.059   8.049   1.164
10421SOL    HW280103  14.922   7.963   1.143
10422SOL     OW80104  14.547  10.448   6.053
10422SOL    HW180105  14.475  10.450   6.123
10422SOL    HW280106  14.615  10.380   6.078
10423SOL     OW80107   4.306   4.550   6.719
10423SOL    HW180108   4.389   4.543   6.662
10423SOL    HW280109   4.227   4.516   6.668
10424SOL     OW80110  10.820   4.190   0.216
10424SOL    HW180111  10.887   4.146   0.156
10424SOL    HW280112  10.846   4.175   0.312
10425SOL     OW80113   3.317  16.797   8.192
10425SOL    HW180114   3.283  16.881   8.150
10425SOL    HW280115   3.279  16.788   8.283
10426SOL     OW80116  11.335  10.883   7.997
10426SOL    HW180117  11.320  10.787   8.021
10426SOL    HW280118  11.367  10.888   7.902
10427SOL     OW80119  16.416  15.140   7.739
10427SOL    HW180120  16.451  15.193   7.662
10427SOL    HW280121  16.344  15.192   7.786
10428SOL     OW80122   2.764  10.277   7.968
10428SOL    HW180123   2.709  10.358   7.945
10428SOL    HW280124   2.850  10.306   8.011
10429SOL     OW80125   9.291  16.022   1.829
10429SOL    HW180126   9.380  16.068   1.834
10429SOL    HW280127   9.218  16.088   1.845
10430SOL     OW80128   0.485  10.360   8.401
10430SOL    HW180129   0.395  10.363   8.445
10430SOL    HW280130   0.519  10.453   8.388
10431SOL     OW80131   6.182  13.735   6.221
10431SOL    HW180132   6.190  13.833   6.204
10431SOL    HW280133   6.154  13.688   6.138
10432SOL     OW80134  10.798   3.524   6.594
10432SOL    HW180135  10.714   3.520   6.649
10432SOL    HW280136  10.830   3.619   6.589
10433SOL     OW80137   7.554  12.623   7.981
10433SOL    HW180138   7.503  12.618   8.067
10433SOL    HW280139   7.492  12.647   7.907
10434SOL     OW80140   2.393   2.710   1.680
10434SOL    HW180141   2.305   2.722   1.635
10434SOL    HW280142   2.461   2.767   1.635
10435SOL     OW80143   3.498  11.014   1.574
10435SOL    HW180144   3.579  11.000   1.518
10435SOL    HW280145   3.445  11.092   1.539
10436SOL     OW80146  14.541   6.213   1.618
10436SOL    HW180147  14.612   6.268   1.662
10436SOL    HW280148  14.576   6.120   1.603
10437SOL     OW80149   2.792  12.611   7.548
10437SOL    HW180150   2.760  12.695   7.504
10437SOL    HW280151   2.788  12.621   7.647
10438SOL     OW80152   1.275  15.507   7.769
10438SOL    HW180153   1.311  15.429   7.821
10438SOL    HW280154   1.209  15.556   7.825
10439SOL     OW80155   8.292   8.430   0.463
10439SOL    HW180156   8.335   8.368   0.528
10439SOL    HW280157   8.199   8.450   0.491
10440SOL     OW80158   6.480   2.878   1.590
10440SOL    HW180159   6.555   2.910   1.533
10440SOL    HW280160   6.463   2.945   1.663
10441SOL     OW80161   3.707  11.012   0.835
10441SOL    HW180162   3.635  10.970   0.779
10441SOL    HW280163   3.665  11.075   0.901
10442SOL     OW80164   3.407  11.193   6.208
10442SOL    HW180165   3.421  11.131   6.285
10442SOL    HW280166   3.481  11.260   6.206
10443SOL     OW80167   9.095  13.898   7.595
10443SOL    HW180168   9.118  13.805   7.568
10443SOL    HW280169   9.063  13.950   7.515
10444SOL     OW80170   4.955   6.626   1.074
10444SOL    HW180171   4.898   6.585   1.145
10444SOL    HW280172   4.921   6.598   0.984
10445SOL     OW80173  13.858  16.031   8.203
10445SOL    HW180174  13.814  16.120   8.191
10445SOL    HW280175  13.826  15.990   8.288
10446SOL     OW80176   1.382   8.260   8.146
10446SOL    HW180177   1.377   8.241   8.244
10446SOL    HW280178   1.332   8.189   8.095
10447SOL     OW80179   4.378  14.467   2.290
10447SOL    HW180180   4.348  14.444   2.197
10447SOL    HW280181   4.330  14.408   2.355
10448SOL     OW80182   8.486   7.697   1.206
10448SOL    HW180183   8.406   7.709   1.265
10448SOL    HW280184   8.484   7.605   1.166
10449SOL     OW80185  10.547   1.033   1.534
10449SOL    HW180186  10.463   1.029   1.588
10449SOL    HW280187  10.617   0.976   1.576
10450SOL     OW80188   1.725   9.788   1.304
10450SOL    HW180189   1.750   9.696   1.275
10450SOL    HW280190   1.777   9.813   1.385
10451SOL     OW80191  16.776   5.872   0.895
10451SOL    HW180192  16.723   5.880   0.810
10451SOL    HW280193  16.757   5.784   0.938
10452SOL     OW80194  11.565   4.397   0.019
10452SOL    HW180195  11.646   4.400   8.414
10452SOL    HW280196  11.586   4.439   0.107
10453SOL     OW80197   4.814  16.048   0.902
10453SOL    HW180198   4.902  16.094   0.895
10453SOL    HW280199   4.758  16.070   0.822
10454SOL     OW80200   2.297   3.964   0.433
10454SOL    HW180201   2.302   4.024   0.512
10454SOL    HW280202   2.378   3.977   0.376
10455SOL     OW80203   0.205   3.516   1.884
10455SOL    HW180204   0.286   3.477   1.928
10455SOL    HW280205   0.144   3.554   1.954
10456SOL     OW80206  10.563   1.856   0.772
10456SOL    HW180207  10.584   1.780   0.711
10456SOL    HW280208  10.471   1.844   0.810
10457SOL     OW80209   5.786   4.239   0.153
10457SOL    HW180210   5.745   4.228   0.062
10457SOL    HW280211   5.884   4.253   0.144
10458SOL     OW80212   9.978  12.969   6.651
10458SOL    HW180213  10.032  13.054   6.653
10458SOL    HW280214   9.949  12.952   6.557
10459SOL     OW80215  15.378   8.990   0.639
10459SOL    HW180216  15.373   9.034   0.549
10459SOL    HW280217  15.328   8.903   0.636
10460SOL     OW80218  12.832  15.497   7.447
10460SOL    HW180219  12.879  15.473   7.362
10460SOL    HW280220  12.844  15.594   7.466
10461SOL     OW80221   5.628   2.104   0.337
10461SOL    HW180222   5.652   2.007   0.338
10461SOL    HW280223   5.703   2.157   0.298
10462SOL     OW80224  14.114   8.793   0.719
10462SOL    HW180225  14.211   8.797   0.696
10462SOL    HW280226  14.093   8.702   0.756
10463SOL     OW80227   1.900  12.132   7.806
10463SOL    HW180228   1.933  12.221   7.775
10463SOL    HW280229   1.974  12.065   7.797
10464SOL     OW80230  16.021  14.381   8.416
10464SOL    HW180231  15.958  14.342   8.348
10464SOL    HW280232  16.059  14.467   8.381
10465SOL     OW80233   6.492   9.249   0.395
10465SOL    HW180234   6.584   9.243   0.355
10465SOL    HW280235   6.484   9.334   0.447
10466SOL     OW80236   3.590  10.056   1.365
10466SOL    HW180237   3.515  10.020   1.422
10466SOL    HW280238   3.625  10.140   1.406
10467SOL     OW80239   7.074   0.542   1.132
10467SOL    HW180240   6.978   0.552   1.158
10467SOL    HW280241   7.111   0.630   1.102
10468SOL     OW80242   0.109   9.149   1.457
10468SOL    HW180243   0.044   9.211   1.412
10468SOL    HW280244   0.070   9.057   1.460
10469SOL     OW80245   5.995   8.237   0.103
10469SOL    HW180246   5.896   8.224   0.101
10469SOL    HW280247   6.022   8.270   0.193
10470SOL     OW80248  14.058  12.157   1.442
10470SOL    HW180249  14.012  12.132   1.527
10470SOL    HW280250  14.008  12.120   1.364
10471SOL     OW80251   6.080   3.605   6.912
10471SOL    HW180252   6.084   3.703   6.929
10471SOL    HW280253   6.136   3.583   6.832
10472SOL     OW80254  14.296   4.870   8.256
10472SOL    HW180255  14.391   4.900   8.243
10472SOL    HW280256  14.239   4.949   8.279
10473SOL     OW80257   5.979  13.210   0.101
10473SOL    HW180258   5.953  13.115   0.113
10473SOL    HW280259   6.046  13.236   0.171
10474SOL     OW80260   5.320   9.685   8.228
10474SOL    HW180261   5.335   9.701   8.325
10474SOL    HW280262   5.265   9.603   8.215
10475SOL     OW80263   4.300  15.870   7.913
10475SOL    HW180264   4.396  15.899   7.913
10475SOL    HW280265   4.293  15.778   7.950
10476SOL     OW80266  14.713   0.267   0.088
10476SOL    HW180267  14.684   0.176   0.118
10476SOL    HW280268  14.755   0.260   8.451
10477SOL     OW80269   2.946   7.023   0.542
10477SOL    HW180270   3.014   6.954   0.569
10477SOL    HW280271   2.857   6.980   0.532
10478SOL     OW80272  11.308  14.646   7.538
10478SOL    HW180273  11.292  14.669   7.442
10478SOL    HW280274  11.399  14.605   7.547
10479SOL     OW80275   8.458  15.363   1.834
10479SOL    HW180276   8.491  15.274   1.804
10479SOL    HW280277   8.489  15.434   1.771
10480SOL     OW80278   7.127   8.051   6.578
10480SOL    HW180279   7.100   7.956   6.589
10480SOL    HW280280   7.193   8.059   6.503
10481SOL     OW80281  13.404   7.307   6.522
10481SOL    HW180282  13.390   7.230   6.460
10481SOL    HW280283  13.319   7.358   6.531
10482SOL     OW80284   3.170   3.945   1.737
10482SOL    HW180285   3.260   3.949   1.781
10482SOL    HW280286   3.131   4.037   1.733
10483SOL     OW80287  13.800   5.391   6.715
10483SOL    HW180288  13.770   5.296   6.714
10483SOL    HW280289  13.897   5.396   6.736
10484SOL     OW80290   2.621   8.724   0.697
10484SOL    HW180291   2.718   8.702   0.692
10484SOL    HW280292   2.568   8.639   0.701
10485SOL     OW80293  10.350   7.593   0.997
10485SOL    HW180294  10.386   7.682   0.969
10485SOL    HW280295  10.288   7.606   1.075
10486SOL     OW80296  16.475  14.897   1.899
10486SOL    HW180297  16.385  14.926   1.867
10486SOL    HW280298  16.499  14.945   1.983
10487SOL     OW80299  15.162  14.367   7.161
10487SOL    HW180300  15.145  14.329   7.070
10487SOL    HW280301  15.257  14.352   7.186
10488SOL     OW80302  16.004   5.052   7.194
10488SOL    HW180303  16.037   5.068   7.101
10488SOL    HW280304  15.908   5.081   7.201
10489SOL     OW80305  12.319  14.435   8.360
10489SOL    HW180306  12.414  14.431   8.328
10489SOL    HW280307  12.262  14.375   8.303
10490SOL     OW80308   2.518   7.774   0.237
10490SOL    HW180309   2.566   7.817   0.314
10490SOL    HW280310   2.551   7.815   0.151
10491SOL     OW80311  14.763  12.527   7.424
10491SOL    HW180312  14.730  12.617   7.396
10491SOL    HW280313  14.765  12.523   7.524
10492SOL     OW80314  11.809  16.785   7.958
10492SOL    HW180315  11.762  16.824   8.037
10492SOL    HW280316  11.850  16.697   7.983
10493SOL     OW80317   9.534  10.888   7.936
10493SOL    HW180318   9.616  10.847   7.976
10493SOL    HW280319   9.513  10.842   7.850
10494SOL     OW80320  12.560   2.224   8.159
10494SOL    HW180321  12.505   2.306   8.171
10494SOL    HW280322  12.503   2.143   8.171
10495SOL     OW80323   3.186   0.395   2.873
10495SOL    HW180324   3.279   0.377   2.904
10495SOL    HW280325   3.133   0.311   2.873
10496SOL     OW80326   3.320   2.231   1.331
10496SOL    HW180327   3.283   2.208   1.241
10496SOL    HW280328   3.249   2.216   1.400
10497SOL     OW80329   9.231  14.017   7.186
10497SOL    HW180330   9.328  13.993   7.176
10497SOL    HW280331   9.177  13.967   7.119
10498SOL     OW80332  16.590   5.302   8.301
10498SOL    HW180333  16.496   5.272   8.285
10498SOL    HW280334  16.649   5.263   8.231
10499SOL     OW80335  10.780   8.568   1.284
10499SOL    HW180336  10.765   8.598   1.190
10499SOL    HW280337  10.710   8.609   1.343
10500SOL     OW80338  11.591   2.528   7.999
10500SOL    HW180339  11.632   2.455   7.945
10500SOL    HW280340  11.661   2.571   8.056
10501SOL     OW80341  12.134   5.491   7.678
10501SOL    HW180342  12.117   5.436   7.759
10501SOL    HW280343  12.195   5.567   7.701
10502SOL     OW80344   5.807   8.442   0.333
10502SOL    HW180345   5.892   8.394   0.352
10502SOL    HW280346   5.731   8.377   0.330
10503SOL     OW80347  14.661   4.905   7.387
10503SOL    HW180348  14.584   4.927   7.327
10503SOL    HW280349  14.694   4.813   7.366
10504SOL     OW80350   2.715   1.674   7.702
10504SOL    HW180351   2.711   1.652   7.800
10504SOL    HW280352   2.808   1.658   7.669
10505SOL     OW80353  13.755  11.412   0.724
10505SOL    HW180354  13.670  11.368   0.753
10505SOL    HW280355  13.770  11.394   0.627
10506SOL     OW80356  14.139  16.751   6.817
10506SOL    HW180357  14.150  16.830   6.757
10506SOL    HW280358  14.043  16.723   6.819
10507SOL     OW80359   3.737   3.977   1.102
10507SOL    HW180360   3.764   4.063   1.059
10507SOL    HW280361   3.818   3.929   1.135
10508SOL     OW80362  10.245  13.951   8.438
10508SOL    HW180363  10.178  13.892   0.030
10508SOL    HW280364  10.280  13.904   8.357
10509SOL     OW80365   9.028   4.693   1.529
10509SOL    HW180366   9.125   4.677   1.546
10509SOL    HW280367   8.988   4.742   1.607
10510SOL     OW80368  12.006   3.381   0.688
10510SOL    HW180369  12.050   3.299   0.652
10510SOL    HW280370  11.968   3.362   0.778
10511SOL     OW80371   2.284   8.551   1.562
10511SOL    HW180372   2.211   8.614   1.537
10511SOL    HW280373   2.350   8.545   1.487
10512SOL     OW80374   2.869  12.045   0.797
10512SOL    HW180375   2.876  11.946   0.803
10512SOL    HW280376   2.941  12.081   0.738
10513SOL     OW80377   0.062   7.126   7.924
10513SOL    HW180378  16.952   7.148   7.951
10513SOL    HW280379   0.076   7.152   7.828
10514SOL     OW80380  14.776  12.026   0.874
10514SOL    HW180381  14.763  11.946   0.816
10514SOL    HW280382  14.708  12.026   0.947
10515SOL     OW80383   8.598   1.404   6.232
10515SOL    HW180384   8.528   1.414   6.303
10515SOL    HW280385   8.635   1.494   6.210
10516SOL     OW80386  12.262  13.143   1.491
10516SOL    HW180387  12.331  13.101   1.551
10516SOL    HW280388  12.172  13.104   1.511
10517SOL     OW80389  12.754   6.426   6.334
10517SOL    HW180390  12.668   6.385   6.307
10517SOL    HW280391  12.828   6.358   6.327
10518SOL     OW80392   6.504   9.050   7.160
10518SOL    HW180393   6.469   8.958   7.140
10518SOL    HW280394   6.509   9.062   7.259
10519SOL     OW80395   1.719  16.209   0.291
10519SOL    HW180396   1.817  16.194   0.307
10519SOL    HW280397   1.706  16.253   0.202
10520SOL     OW80398   7.370   6.175   6.391
10520SOL    HW180399   7.279   6.151   6.355
10520SOL    HW280400   7.362   6.258   6.445
10521SOL     OW80401  15.220   1.790   7.829
10521SOL    HW180402  15.144   1.725   7.835
10521SOL    HW280403  15.249   1.800   7.734
10522SOL     OW80404  15.855   6.198   1.471
10522SOL    HW180405  15.805   6.259   1.532
10522SOL    HW280406  15.845   6.104   1.503
10523SOL     OW80407   2.944   5.729   6.408
10523SOL    HW180408   3.002   5.703   6.330
10523SOL    HW280409   2.925   5.827   6.404
10524SOL     OW80410  11.544  16.670   7.422
10524SOL    HW180411  11.612  16.664   7.495
10524SOL    HW280412  11.590  16.687   7.335
10525SOL     OW80413   8.875  12.516   1.277
10525SOL    HW180414   8.895  12.611   1.249
10525SOL    HW280415   8.825  12.470   1.204
10526SOL     OW80416  10.455   0.602   6.846
10526SOL    HW180417  10.503   0.554   6.919
10526SOL    HW280418  10.503   0.687   6.825
10527SOL     OW80419   1.861   3.293   1.750
10527SOL    HW180420   1.934   3.251   1.805
10527SOL    HW280421   1.834   3.229   1.677
10528SOL     OW80422  10.221  10.404   7.157
10528SOL    HW180423  10.205  10.355   7.242
10528SOL    HW280424  10.153  10.377   7.089
10529SOL     OW80425  12.971   1.511   8.363
10529SOL    HW180426  12.906   1.569   8.412
10529SOL    HW280427  12.968   1.532   8.266
10530SOL     OW80428   5.789   8.919   1.639
10530SOL    HW180429   5.844   8.839   1.664
10530SOL    HW280430   5.819   8.998   1.692
10531SOL     OW80431   9.590   7.620   7.030
10531SOL    HW180432   9.540   7.673   7.098
10531SOL    HW280433   9.676   7.587   7.069
10532SOL     OW80434   1.422  13.441   1.765
10532SOL    HW180435   1.332  13.434   1.723
10532SOL    HW280436   1.454  13.350   1.790
10533SOL     OW80437   6.601  16.120   1.337
10533SOL    HW180438   6.669  16.096   1.406
10533SOL    HW280439   6.514  16.142   1.381
10534SOL     OW80440   7.731   3.347   6.220
10534SOL    HW180441   7.682   3.379   6.139
10534SOL    HW280442   7.818   3.395   6.228
10535SOL     OW80443   3.640  13.956   1.363
10535SOL    HW180444   3.629  13.908   1.449
10535SOL    HW280445   3.603  14.049   1.372
10536SOL     OW80446  16.742   1.056   0.719
10536SOL    HW180447  16.762   1.149   0.689
10536SOL    HW280448  16.644   1.046   0.737
10537SOL     OW80449  16.656   8.084   1.009
10537SOL    HW180450  16.707   8.002   1.034
10537SOL    HW280451  16.647   8.143   1.089
10538SOL     OW80452  13.176   1.999   6.590
10538SOL    HW180453  13.095   1.944   6.573
10538SOL    HW280454  13.154   2.096   6.579
10539SOL     OW80455  12.393  11.604   7.373
10539SOL    HW180456  12.470  11.664   7.395
10539SOL    HW280457  12.308  11.644   7.407
10540SOL     OW80458   2.390  14.717   2.027
10540SOL    HW180459   2.396  14.619   2.046
10540SOL    HW280460   2.444  14.738   1.946
10541SOL     OW80461  13.360  15.209   7.477
10541SOL    HW180462  13.360  15.253   7.567
10541SOL    HW280463  13.302  15.261   7.414
10542SOL     OW80464   0.902   3.938   6.708
10542SOL    HW180465   0.925   3.850   6.748
10542SOL    HW280466   0.985   3.983   6.676
10543SOL     OW80467  11.184   4.738   7.595
10543SOL    HW180468  11.177   4.641   7.572
10543SOL    HW280469  11.100   4.768   7.640
10544SOL     OW80470   8.779  10.984   6.731
10544SOL    HW180471   8.812  10.967   6.638
10544SOL    HW280472   8.770  11.083   6.746
10545SOL     OW80473  10.415   3.912   6.364
10545SOL    HW180474  10.489   3.976   6.343
10545SOL    HW280475  10.327   3.958   6.351
10546SOL     OW80476   0.145   2.054   1.642
10546SOL    HW180477   0.240   2.022   1.652
10546SOL    HW280478   0.133   2.137   1.695
10547SOL     OW80479  13.605  12.185   1.171
10547SOL    HW180480  13.602  12.284   1.163
10547SOL    HW280481  13.605  12.159   1.268
10548SOL     OW80482  12.024   9.874   0.469
10548SOL    HW180483  12.114   9.836   0.451
10548SOL    HW280484  11.959   9.842   0.399
10549SOL     OW80485   9.877   2.989   0.063
10549SOL    HW180486   9.967   3.027   0.085
10549SOL    HW280487   9.846   2.932   0.140
10550SOL     OW80488  15.996   0.563   0.220
10550SOL    HW180489  16.039   0.472   0.219
10550SOL    HW280490  16.065   0.632   0.199
10551SOL     OW80491  10.397   4.051   8.076
10551SOL    HW180492  10.306   4.052   8.118
10551SOL    HW280493  10.466   4.070   8.147
10552SOL     OW80494  11.963   1.961   0.755
10552SOL    HW180495  12.020   1.907   0.693
10552SOL    HW280496  11.990   2.058   0.748
10553SOL     OW80497  16.710   8.016   0.585
10553SOL    HW180498  16.678   7.953   0.657
10553SOL    HW280499  16.646   8.092   0.577
10554SOL     OW80500  16.622   5.883   0.673
10554SOL    HW180501  16.538   5.842   0.708
10554SOL    HW280502  16.610   5.982   0.666
10555SOL     OW80503  15.351  12.913   1.672
10555SOL    HW180504  15.338  12.853   1.593
10555SOL    HW280505  15.320  12.867   1.755
10556SOL     OW80506  14.950   6.417   8.280
10556SOL    HW180507  14.882   6.479   8.318
10556SOL    HW280508  14.938   6.326   8.319
10557SOL     OW80509   0.339   0.783   8.242
10557SOL    HW180510   0.410   0.783   8.173
10557SOL    HW280511   0.374   0.742   8.326
10558SOL     OW80512  10.827   4.302   7.560
10558SOL    HW180513  10.858   4.333   7.470
10558SOL    HW280514  10.868   4.360   7.631
10559SOL     OW80515   7.141  14.433   2.091
10559SOL    HW180516   7.169  14.468   2.001
10559SOL    HW280517   7.209  14.460   2.159
10560SOL     OW80518  14.349   4.869   1.034
10560SOL    HW180519  14.400   4.947   1.071
10560SOL    HW280520  14.265   4.857   1.086
10561SOL     OW80521  15.086   2.999   6.447
10561SOL    HW180522  15.183   3.016   6.463
10561SOL    HW280523  15.034   3.022   6.529
10562SOL     OW80524   3.257   2.741   8.076
10562SOL    HW180525   3.298   2.797   8.149
10562SOL    HW280526   3.162   2.769   8.063
10563SOL     OW80527  12.113  11.436   1.748
10563SOL    HW180528  12.049  11.378   1.697
10563SOL    HW280529  12.088  11.532   1.736
10564SOL     OW80530   5.667   4.059   6.719
10564SOL    HW180531   5.628   3.967   6.717
10564SOL    HW280532   5.649   4.104   6.632
10565SOL     OW80533   7.610  15.793   0.930
10565SOL    HW180534   7.662  15.733   0.869
10565SOL    HW280535   7.512  15.781   0.913
10566SOL     OW80536   0.276  16.313   0.781
10566SOL    HW180537   0.322  16.245   0.725
10566SOL    HW280538   0.342  16.380   0.814
10567SOL     OW80539  15.062   6.639   7.484
10567SOL    HW180540  15.131   6.650   7.412
10567SOL    HW280541  14.984   6.699   7.466
10568SOL     OW80542   2.753  11.188   7.719
10568SOL    HW180543   2.656  11.163   7.716
10568SOL    HW280544   2.804  11.118   7.768
10569SOL     OW80545   0.851   1.019   7.483
10569SOL    HW180546   0.929   0.963   7.511
10569SOL    HW280547   0.873   1.115   7.496
10570SOL     OW80548   7.548  11.046   7.051
10570SOL    HW180549   7.598  11.043   6.965
10570SOL    HW280550   7.588  11.117   7.110
10571SOL     OW80551  16.831  15.064   1.453
10571SOL    HW180552  16.916  15.116   1.454
10571SOL    HW280553  16.846  14.974   1.493
10572SOL     OW80554  10.500  14.656   2.104
10572SOL    HW180555  10.413  14.637   2.151
10572SOL    HW280556  10.576  14.640   2.168
10573SOL     OW80557  14.048   5.331   0.452
10573SOL    HW180558  14.015   5.421   0.480
10573SOL    HW280559  14.095   5.338   0.364
10574SOL     OW80560  13.736   6.710   0.552
10574SOL    HW180561  13.657   6.770   0.541
10574SOL    HW280562  13.705   6.620   0.583
10575SOL     OW80563   9.376  10.515   7.455
10575SOL    HW180564   9.394  10.476   7.545
10575SOL    HW280565   9.460  10.555   7.418
10576SOL     OW80566  10.288   9.859   1.602
10576SOL    HW180567  10.319   9.772   1.642
10576SOL    HW280568  10.332   9.935   1.650
10577SOL     OW80569  16.095   4.196   0.729
10577SOL    HW180570  16.015   4.139   0.708
10577SOL    HW280571  16.105   4.267   0.659
10578SOL     OW80572  11.189   7.283   1.039
10578SOL    HW180573  11.222   7.356   1.099
10578SOL    HW280574  11.225   7.195   1.070
10579SOL     OW80575  13.436  16.357   8.408
10579SOL    HW180576  13.453  16.446   8.365
10579SOL    HW280577  13.346  16.323   8.379
10580SOL     OW80578  13.042   6.741   1.039
10580SOL    HW180579  13.096   6.809   0.989
10580SOL    HW280580  13.080   6.650   1.021
10581SOL     OW80581  10.906   2.041   0.509
10581SOL    HW180582  10.888   1.946   0.537
10581SOL    HW280583  10.888   2.050   0.411
10582SOL     OW80584   0.595  10.668   7.719
10582SOL    HW180585   0.666  10.738   7.714
10582SOL    HW280586   0.616  10.595   7.654
10583SOL     OW80587   2.529  12.414   0.201
10583SOL    HW180588   2.577  12.362   0.272
10583SOL    HW280589   2.431  12.394   0.205
10584SOL     OW80590   8.203   3.667   8.305
10584SOL    HW180591   8.158   3.726   8.239
10584SOL    HW280592   8.136   3.607   8.349
10585SOL     OW80593   3.925  14.637   7.413
10585SOL    HW180594   3.932  14.676   7.322
10585SOL    HW280595   4.002  14.666   7.469
10586SOL     OW80596  13.447   0.994   8.342
10586SOL    HW180597  13.387   1.026   8.268
10586SOL    HW280598  13.455   0.894   8.336
10587SOL     OW80599   3.990   7.296   0.414
10587SOL    HW180600   4.084   7.277   0.385
10587SOL    HW280601   3.936   7.212   0.410
10588SOL     OW80602   9.228  15.432   7.589
10588SOL    HW180603   9.281  15.393   7.664
10588SOL    HW280604   9.133  15.401   7.594
10589SOL     OW80605   8.209  15.272   0.590
10589SOL    HW180606   8.166  15.182   0.598
10589SOL    HW280607   8.289  15.266   0.530
10590SOL     OW80608   1.995   9.081   7.478
10590SOL    HW180609   2.048   9.144   7.422
10590SOL    HW280610   1.916   9.128   7.517
10591SOL     OW80611  13.102   8.536   6.719
10591SOL    HW180612  13.033   8.593   6.763
10591SOL    HW280613  13.137   8.582   6.637
10592SOL     OW80614  15.467   7.741   5.766
10592SOL    HW180615  15.418   7.788   5.693
10592SOL    HW280616  15.555   7.708   5.731
10593SOL     OW80617  12.399   9.079   8.233
10593SOL    HW180618  12.299   9.075   8.229
10593SOL    HW280619  12.427   9.107   8.325
10594SOL     OW80620   8.343   4.822   6.038
10594SOL    HW180621   8.440   4.809   6.059
10594SOL    HW280622   8.333   4.848   5.942
10595SOL     OW80623   0.109   6.786   6.324
10595SOL    HW180624   0.195   6.761   6.369
10595SOL    HW280625   0.129   6.824   6.233
10596SOL     OW80626   4.669  12.791   1.467
10596SOL    HW180627   4.585  12.759   1.512
10596SOL    HW280628   4.656  12.885   1.436
10597SOL     OW80629  16.391   5.174   0.575
10597SOL    HW180630  16.310   5.143   0.624
10597SOL    HW280631  16.383   5.151   0.478
10598SOL     OW80632   6.195  11.173   2.181
10598SOL    HW180633   6.207  11.080   2.145
10598SOL    HW280634   6.218  11.173   2.279
10599SOL     OW80635   7.276   3.512   1.302
10599SOL    HW180636   7.209   3.510   1.228
10599SOL    HW280637   7.368   3.501   1.264
10600SOL     OW80638   3.253  10.686   7.838
10600SOL    HW180639   3.260  10.763   7.775
10600SOL    HW280640   3.306  10.706   7.921
10601SOL     OW80641  14.958   0.174   1.996
10601SOL    HW180642  14.881   0.223   2.038
10601SOL    HW280643  14.982   0.096   2.054
10602SOL     OW80644   1.060  13.545   1.263
10602SOL    HW180645   1.032  13.523   1.170
10602SOL    HW280646   1.005  13.621   1.298
10603SOL     OW80647  16.420   4.113   7.840
10603SOL    HW180648  16.495   4.049   7.857
10603SOL    HW280649  16.456   4.206   7.834
10604SOL     OW80650   9.636  12.542   8.086
10604SOL    HW180651   9.713  12.488   8.049
10604SOL    HW280652   9.672  12.624   8.130
10605SOL     OW80653   2.593   9.903   7.300
10605SOL    HW180654   2.670   9.895   7.364
10605SOL    HW280655   2.608   9.842   7.223
10606SOL     OW80656   4.254   7.258   0.346
10606SOL    HW180657   4.318   7.332   0.365
10606SOL    HW280658   4.267   7.184   0.412
10607SOL     OW80659  11.914   6.051   0.734
10607SOL    HW180660  11.955   6.135   0.700
10607SOL    HW280661  11.987   5.987   0.760
10608SOL     OW80662  15.745   9.587   7.678
10608SOL    HW180663  15.680   9.537   7.736
10608SOL    HW280664  15.769   9.674   7.722
10609SOL     OW80665   9.650   0.242   0.999
10609SOL    HW180666   9.629   0.300   0.920
10609SOL    HW280667   9.572   0.239   1.061
10610SOL     OW80668   3.786   2.783   0.580
10610SOL    HW180669   3.723   2.850   0.620
10610SOL    HW280670   3.838   2.827   0.506
10611SOL     OW80671   7.677   6.912   6.926
10611SOL    HW180672   7.716   6.915   7.018
10611SOL    HW280673   7.611   6.986   6.916
10612SOL     OW80674   4.298  15.353   0.195
10612SOL    HW180675   4.242  15.346   0.277
10612SOL    HW280676   4.265  15.429   0.138
10613SOL     OW80677   6.228   7.214   1.814
10613SOL    HW180678   6.190   7.255   1.897
10613SOL    HW280679   6.252   7.286   1.749
10614SOL     OW80680   3.872   1.422   7.284
10614SOL    HW180681   3.940   1.350   7.267
10614SOL    HW280682   3.912   1.511   7.263
10615SOL     OW80683  12.549   1.468   8.186
10615SOL    HW180684  12.541   1.468   8.285
10615SOL    HW280685  12.604   1.547   8.157
10616SOL     OW80686   9.725  14.568   1.342
10616SOL    HW180687   9.814  14.557   1.297
10616SOL    HW280688   9.657  14.597   1.275
10617SOL     OW80689  11.769  10.108   7.095
10617SOL    HW180690  11.817  10.042   7.037
10617SOL    HW280691  11.671  10.091   7.091
10618SOL     OW80692   6.351  12.560   6.646
10618SOL    HW180693   6.449  12.543   6.646
10618SOL    HW280694   6.333  12.652   6.610
10619SOL     OW80695   9.067   4.249   1.554
10619SOL    HW180696   9.035   4.312   1.624
10619SOL    HW280697   9.165   4.233   1.566
10620SOL     OW80698   7.237   0.554   7.841
10620SOL    HW180699   7.276   0.549   7.933
10620SOL    HW280700   7.142   0.585   7.846
10621SOL     OW80701  10.115   9.828   1.151
10621SOL    HW180702  10.020   9.804   1.167
10621SOL    HW280703  10.169   9.810   1.234
10622SOL     OW80704   4.808  11.484   0.885
10622SOL    HW180705   4.710  11.494   0.869
10622SOL    HW280706   4.830  11.513   0.979
10623SOL     OW80707  12.364   1.949   1.043
10623SOL    HW180708  12.323   1.859   1.063
10623SOL    HW280709  12.331   1.980   0.954
10624SOL     OW80710   8.777  11.612   0.431
10624SOL    HW180711   8.770  11.521   0.390
10624SOL    HW280712   8.855  11.660   0.393
10625SOL     OW80713   7.572   4.533   0.826
10625SOL    HW180714   7.607   4.625   0.847
10625SOL    HW280715   7.505   4.506   0.895
10626SOL     OW80716  10.490   0.350   7.896
10626SOL    HW180717  10.419   0.307   7.839
10626SOL    HW280718  10.481   0.317   7.990
10627SOL     OW80719  16.194   6.431   7.809
10627SOL    HW180720  16.113   6.385   7.773
10627SOL    HW280721  16.262   6.362   7.836
10628SOL     OW80722   2.406  16.141   1.126
10628SOL    HW180723   2.420  16.204   1.201
10628SOL    HW280724   2.424  16.187   1.039
10629SOL     OW80725   3.916  15.130   8.403
10629SOL    HW180726   3.998  15.116   0.005
10629SOL    HW280727   3.841  15.163   0.007
10630SOL     OW80728  14.565   6.862   0.604
10630SOL    HW180729  14.655   6.852   0.562
10630SOL    HW280730  14.498   6.884   0.533
10631SOL     OW80731   6.381  12.487   1.465
10631SOL    HW180732   6.395  12.442   1.377
10631SOL    HW280733   6.389  12.586   1.454
10632SOL     OW80734   3.852  15.558   1.662
10632SOL    HW180735   3.837  15.459   1.664
10632SOL    HW280736   3.801  15.597   1.586
10633SOL     OW80737   4.091   4.457   6.566
10633SOL    HW180738   4.048   4.484   6.479
10633SOL    HW280739   4.110   4.359   6.565
10634SOL     OW80740   5.879   1.613   1.159
10634SOL    HW180741   5.846   1.555   1.233
10634SOL    HW280742   5.977   1.597   1.144
10635SOL     OW80743   4.052  13.890   8.095
10635SOL    HW180744   4.082  13.931   8.180
10635SOL    HW280745   3.969  13.835   8.111
10636SOL     OW80746   3.472  16.634   0.776
10636SOL    HW180747   3.444  16.716   0.826
10636SOL    HW280748   3.525  16.574   0.836
10637SOL     OW80749   6.915  14.789   7.988
10637SOL    HW180750   6.942  14.762   8.080
10637SOL    HW280751   6.816  14.793   7.982
10638SOL     OW80752  14.976   7.277   0.031
10638SOL    HW180753  15.002   7.326   8.401
10638SOL    HW280754  15.021   7.187   0.032
10639SOL     OW80755  15.596   0.740   0.584
10639SOL    HW180756  15.611   0.672   0.512
10639SOL    HW280757  15.522   0.801   0.556
10640SOL     OW80758  15.186  14.579   1.239
10640SOL    HW180759  15.251  14.654   1.247
10640SOL    HW280760  15.094  14.612   1.261
10641SOL     OW80761  14.683   7.750   5.749
10641SOL    HW180762  14.677   7.850   5.746
10641SOL    HW280763  14.755   7.719   5.688
10642SOL     OW80764  11.609  15.187   1.243
10642SOL    HW180765  11.572  15.120   1.179
10642SOL    HW280766  11.543  15.205   1.315
10643SOL     OW80767   4.976  12.460   0.800
10643SOL    HW180768   5.072  12.431   0.805
10643SOL    HW280769   4.940  12.443   0.708
10644SOL     OW80770   4.404   0.197   0.109
10644SOL    HW180771   4.477   0.179   0.043
10644SOL    HW280772   4.319   0.219   0.061
10645SOL     OW80773   6.553  11.337   6.820
10645SOL    HW180774   6.496  11.393   6.880
10645SOL    HW280775   6.497  11.299   6.747
10646SOL     OW80776   7.419  12.957   7.119
10646SOL    HW180777   7.388  12.867   7.088
10646SOL    HW280778   7.436  12.954   7.217
10647SOL     OW80779   9.604  10.969   7.364
10647SOL    HW180780   9.596  10.911   7.283
10647SOL    HW280781   9.520  10.963   7.418
10648SOL     OW80782  11.181  13.410   1.617
10648SOL    HW180783  11.130  13.341   1.565
10648SOL    HW280784  11.208  13.485   1.556
10649SOL     OW80785  10.326   4.928   7.952
10649SOL    HW180786  10.394   4.888   8.013
10649SOL    HW280787  10.234   4.910   7.989
10650SOL     OW80788   5.515   9.877   8.139
10650SOL    HW180789   5.451   9.801   8.153
10650SOL    HW280790   5.486   9.929   8.058
10651SOL     OW80791  15.211   6.532   7.074
10651SOL    HW180792  15.123   6.520   7.028
10651SOL    HW280793  15.285   6.526   7.007
10652SOL     OW80794   9.716  14.602   1.615
10652SOL    HW180795   9.724  14.596   1.516
10652SOL    HW280796   9.804  14.627   1.655
10653SOL     OW80797   1.798   7.464   6.343
10653SOL    HW180798   1.718   7.518   6.315
10653SOL    HW280799   1.868   7.469   6.271
10654SOL     OW80800   1.151   2.875   1.323
10654SOL    HW180801   1.105   2.827   1.249
10654SOL    HW280802   1.126   2.971   1.322
10655SOL     OW80803  15.148   0.339   1.545
10655SOL    HW180804  15.235   0.387   1.542
10655SOL    HW280805  15.133   0.302   1.636
10656SOL     OW80806   9.523  12.078   6.901
10656SOL    HW180807   9.559  12.167   6.874
10656SOL    HW280808   9.464  12.043   6.828
10657SOL     OW80809  11.359   2.229   1.189
10657SOL    HW180810  11.267   2.196   1.166
10657SOL    HW280811  11.421   2.214   1.112
10658SOL     OW80812   9.066   5.452   5.902
10658SOL    HW180813   8.997   5.398   5.854
10658SOL    HW280814   9.154   5.442   5.855
10659SOL     OW80815  16.071   7.963   0.078
10659SOL    HW180816  16.082   7.864   0.087
10659SOL    HW280817  15.976   7.988   0.097
10660SOL     OW80818   2.663   5.406   7.750
10660SOL    HW180819   2.618   5.481   7.799
10660SOL    HW280820   2.735   5.443   7.691
10661SOL     OW80821   8.405  16.606   1.975
10661SOL    HW180822   8.481  16.600   2.039
10661SOL    HW280823   8.431  16.660   1.896
10662SOL     OW80824  11.773   7.460   1.262
10662SOL    HW180825  11.697   7.462   1.327
10662SOL    HW280826  11.794   7.554   1.233
10663SOL     OW80827  13.898   9.855   0.138
10663SOL    HW180828  13.822   9.821   0.194
10663SOL    HW280829  13.874   9.848   0.042
10664SOL     OW80830   8.217   0.765   7.576
10664SOL    HW180831   8.169   0.847   7.544
10664SOL    HW280832   8.240   0.775   7.673
10665SOL     OW80833   7.990  10.476   8.444
10665SOL    HW180834   7.938  10.557   8.419
10665SOL    HW280835   7.928  10.405   0.024
10666SOL     OW80836   6.507   5.271   1.510
10666SOL    HW180837   6.531   5.242   1.603
10666SOL    HW280838   6.438   5.209   1.473
10667SOL     OW80839   0.101  12.291   0.757
10667SOL    HW180840   0.121  12.362   0.689
10667SOL    HW280841   0.010  12.252   0.738
10668SOL     OW80842   4.113   0.693   7.278
10668SOL    HW180843   4.095   0.628   7.353
10668SOL    HW280844   4.028   0.742   7.256
10669SOL     OW80845   7.488   2.032   7.242
10669SOL    HW180846   7.454   2.111   7.192
10669SOL    HW280847   7.484   1.951   7.183
10670SOL     OW80848  15.787   1.895   0.122
10670SOL    HW180849  15.739   1.976   0.157
10670SOL    HW280850  15.725   1.817   0.121
10671SOL     OW80851   5.583   5.388   1.897
10671SOL    HW180852   5.509   5.405   1.832
10671SOL    HW280853   5.547   5.334   1.974
10672SOL     OW80854  11.464   4.109   7.600
10672SOL    HW180855  11.563   4.126   7.601
10672SOL    HW280856  11.416   4.192   7.629
10673SOL     OW80857   2.175   7.556   6.879
10673SOL    HW180858   2.264   7.573   6.837
10673SOL    HW280859   2.134   7.474   6.839
10674SOL     OW80860   2.440  10.908   1.083
10674SOL    HW180861   2.531  10.933   1.116
10674SOL    HW280862   2.410  10.824   1.128
10675SOL     OW80863  14.894  15.334   0.679
10675SOL    HW180864  14.957  15.410   0.665
10675SOL    HW280865  14.928  15.253   0.631
10676SOL     OW80866  11.510  14.062   0.029
10676SOL    HW180867  11.493  14.005   0.109
10676SOL    HW280868  11.549  14.006   8.410
10677SOL     OW80869  12.177   7.684   1.090
10677SOL    HW180870  12.268   7.650   1.064
10677SOL    HW280871  12.107   7.622   1.054
10678SOL     OW80872   3.595   1.380   0.883
10678SOL    HW180873   3.640   1.291   0.874
10678SOL    HW280874   3.526   1.374   0.955
10679SOL     OW80875   6.015  16.777   7.846
10679SOL    HW180876   6.010  16.850   7.914
10679SOL    HW280877   6.070  16.807   7.768
10680SOL     OW80878  14.953   0.420   7.011
10680SOL    HW180879  14.963   0.343   6.948
10680SOL    HW280880  14.934   0.503   6.959
10681SOL     OW80881  15.656  13.583   8.261
10681SOL    HW180882  15.569  13.539   8.239
10681SOL    HW280883  15.646  13.682   8.254
10682SOL     OW80884   1.518   7.285   1.474
10682SOL    HW180885   1.448   7.323   1.535
10682SOL    HW280886   1.480   7.276   1.382
10683SOL     OW80887  15.488  13.178   0.464
10683SOL    HW180888  15.408  13.133   0.502
10683SOL    HW280889  15.465  13.271   0.437
10684SOL     OW80890  12.942  15.235   2.246
10684SOL    HW180891  13.004  15.259   2.321
10684SOL    HW280892  12.862  15.295   2.250
10685SOL     OW80893   0.963   2.172   0.640
10685SOL    HW180894   1.013   2.206   0.720
10685SOL    HW280895   1.029   2.144   0.570
10686SOL     OW80896  11.425   5.060   1.568
10686SOL    HW180897  11.348   5.068   1.631
10686SOL    HW280898  11.506   5.030   1.617
10687SOL     OW80899  15.393  11.542   7.111
10687SOL    HW180900  15.488  11.565   7.093
10687SOL    HW280901  15.333  11.612   7.073
10688SOL     OW80902   8.673   6.491   1.395
10688SOL    HW180903   8.633   6.535   1.314
10688SOL    HW280904   8.626   6.405   1.413
10689SOL     OW80905   4.857  16.692   6.979
10689SOL    HW180906   4.852  16.714   6.882
10689SOL    HW280907   4.834  16.595   6.992
10690SOL     OW80908   5.333  14.079   6.989
10690SOL    HW180909   5.354  14.172   7.018
10690SOL    HW280910   5.306  14.079   6.893
10691SOL     OW80911  14.981   2.574   6.100
10691SOL    HW180912  14.953   2.479   6.113
10691SOL    HW280913  14.964   2.602   6.006
10692SOL     OW80914   1.075  14.660   2.035
10692SOL    HW180915   1.148  14.601   2.001
10692SOL    HW280916   1.112  14.726   2.101
10693SOL     OW80917  12.498   8.859   0.111
10693SOL    HW180918  12.443   8.846   0.193
10693SOL    HW280919  12.584   8.809   0.120
10694SOL     OW80920   7.805  16.269   5.970
10694SOL    HW180921   7.814  16.365   5.996
10694SOL    HW280922   7.895  16.233   5.943
10695SOL     OW80923   5.938   0.249   7.944
10695SOL    HW180924   5.899   0.201   7.865
10695SOL    HW280925   5.879   0.327   7.967
10696SOL     OW80926   2.272   7.047   1.129
10696SOL    HW180927   2.222   7.106   1.192
10696SOL    HW280928   2.370   7.052   1.149
10697SOL     OW80929   5.946   9.768   7.412
10697SOL    HW180930   5.961   9.836   7.484
10697SOL    HW280931   6.013   9.694   7.422
10698SOL     OW80932  13.345   5.480   1.973
10698SOL    HW180933  13.267   5.518   2.023
10698SOL    HW280934  13.413   5.552   1.959
10699SOL     OW80935   4.787  13.114   7.452
10699SOL    HW180936   4.721  13.049   7.416
10699SOL    HW280937   4.784  13.198   7.397
10700SOL     OW80938   1.777   4.660   0.774
10700SOL    HW180939   1.774   4.669   0.675
10700SOL    HW280940   1.793   4.564   0.798
10701SOL     OW80941   8.510  14.255   1.480
10701SOL    HW180942   8.445  14.326   1.451
10701SOL    HW280943   8.505  14.178   1.417
10702SOL     OW80944   7.958   4.064   1.625
10702SOL    HW180945   7.893   4.054   1.701
10702SOL    HW280946   7.917   4.028   1.542
10703SOL     OW80947  14.588  12.859   0.061
10703SOL    HW180948  14.557  12.809   0.142
10703SOL    HW280949  14.652  12.801   0.009
10704SOL     OW80950   2.380  10.031   7.423
10704SOL    HW180951   2.390  10.027   7.522
10704SOL    HW280952   2.455   9.980   7.380
10705SOL     OW80953  13.159   0.490   1.918
10705SOL    HW180954  13.208   0.434   1.985
10705SOL    HW280955  13.194   0.584   1.921
10706SOL     OW80956  11.975   2.736   7.140
10706SOL    HW180957  12.050   2.706   7.082
10706SOL    HW280958  11.889   2.732   7.088
10707SOL     OW80959  13.110   6.201   6.084
10707SOL    HW180960  13.155   6.248   6.008
10707SOL    HW280961  13.111   6.103   6.068
10708SOL     OW80962  14.285   8.566   7.839
10708SOL    HW180963  14.260   8.660   7.862
10708SOL    HW280964  14.381   8.550   7.862
10709SOL     OW80965   1.901   4.000   0.110
10709SOL    HW180966   1.992   4.021   0.147
10709SOL    HW280967   1.893   3.902   0.096
10710SOL     OW80968  15.137   6.588   0.409
10710SOL    HW180969  15.081   6.505   0.406
10710SOL    HW280970  15.101   6.650   0.478
10711SOL     OW80971  10.534   8.724   0.089
10711SOL    HW180972  10.525   8.764   0.180
10711SOL    HW280973  10.547   8.796   0.022
10712SOL     OW80974   5.562  10.814   7.380
10712SOL    HW180975   5.553  10.815   7.281
10712SOL    HW280976   5.653  10.781   7.405
10713SOL     OW80977  14.626  10.470   6.566
10713SOL    HW180978  14.689  10.489   6.491
10713SOL    HW280979  14.612  10.371   6.573
10714SOL     OW80980   8.807   4.904   6.745
10714SOL    HW180981   8.810   5.004   6.738
10714SOL    HW280982   8.892   4.871   6.786
10715SOL     OW80983   2.333   7.766   8.129
10715SOL    HW180984   2.359   7.719   8.045
10715SOL    HW280985   2.330   7.701   8.205
10716SOL     OW80986  12.880   2.341   1.500
10716SOL    HW180987  12.818   2.269   1.468
10716SOL    HW280988  12.902   2.325   1.597
10717SOL     OW80989   9.000  13.367   0.562
10717SOL    HW180990   8.911  13.323   0.551
10717SOL    HW280991   9.062  13.335   0.490
10718SOL     OW80992  11.807   1.034   1.468
10718SOL    HW180993  11.842   1.042   1.562
10718SOL    HW280994  11.856   0.961   1.420
10719SOL     OW80995  15.820   9.676   2.228
10719SOL    HW180996  15.874   9.755   2.257
10719SOL    HW280997  15.845   9.596   2.282
10720SOL     OW80998  14.124  13.035   7.166
10720SOL    HW180999  14.161  13.029   7.074
10720SOL    HW281000  14.199  13.034   7.232
10721SOL     OW81001   5.874  16.093   1.795
10721SOL    HW181002   5.800  16.129   1.852
10721SOL    HW281003   5.862  15.994   1.784
10722SOL     OW81004  11.367   8.081   7.577
10722SOL    HW181005  11.378   8.176   7.550
10722SOL    HW281006  11.308   8.034   7.511
10723SOL     OW81007   3.808   6.829   7.904
10723SOL    HW181008   3.902   6.845   7.936
10723SOL    HW281009   3.779   6.908   7.849
10724SOL     OW81010   8.079   1.778   1.802
10724SOL    HW181011   8.102   1.709   1.871
10724SOL    HW281012   7.991   1.819   1.825
10725SOL     OW81013   5.565   9.908   8.407
10725SOL    HW181014   5.598   9.819   8.440
10725SOL    HW281015   5.546   9.901   8.309
10726SOL     OW81016   6.023  12.664   0.157
10726SOL    HW181017   6.006  12.761   0.142
10726SOL    HW281018   5.941  12.622   0.197
10727SOL     OW81019  10.954  16.585   6.892
10727SOL    HW181020  10.883  16.520   6.918
10727SOL    HW281021  10.992  16.628   6.974
10728SOL     OW81022   2.754   3.365   1.470
10728SOL    HW181023   2.708   3.452   1.452
10728SOL    HW281024   2.721   3.296   1.406
10729SOL     OW81025   4.709   1.503   0.678
10729SOL    HW181026   4.780   1.437   0.705
10729SOL    HW281027   4.632   1.453   0.638
10730SOL     OW81028   2.572   6.128   0.367
10730SOL    HW181029   2.663   6.088   0.363
10730SOL    HW281030   2.506   6.066   0.325
10731SOL     OW81031   8.153   7.817   0.604
10731SOL    HW181032   8.199   7.738   0.645
10731SOL    HW281033   8.055   7.813   0.625
10732SOL     OW81034   9.404   1.650   6.634
10732SOL    HW181035   9.469   1.618   6.565
10732SOL    HW281036   9.400   1.584   6.709
10733SOL     OW81037   0.137  14.590   7.406
10733SOL    HW181038   0.185  14.506   7.432
10733SOL    HW281039   0.103  14.581   7.313
10734SOL     OW81040  11.350   4.060   1.115
10734SOL    HW181041  11.409   4.126   1.160
10734SOL    HW281042  11.350   3.974   1.167
10735SOL     OW81043  10.775  11.648   0.432
10735SOL    HW181044  10.753  11.550   0.436
10735SOL    HW281045  10.712  11.698   0.492
10736SOL     OW81046   6.430  12.236   2.014
10736SOL    HW181047   6.501  12.285   2.064
10736SOL    HW281048   6.349  12.226   2.072
10737SOL     OW81049   8.996  16.704   7.610
10737SOL    HW181050   9.074  16.645   7.589
10737SOL    HW281051   8.935  16.657   7.673
10738SOL     OW81052  16.944  12.065   1.962
10738SOL    HW181053  16.909  12.007   2.036
10738SOL    HW281054  16.872  12.129   1.934
10739SOL     OW81055   5.495  11.959   7.815
10739SOL    HW181056   5.521  11.981   7.909
10739SOL    HW281057   5.555  12.008   7.752
10740SOL     OW81058   4.314   2.902   0.908
10740SOL    HW181059   4.392   2.855   0.868
10740SOL    HW281060   4.333   2.924   1.003
10741SOL     OW81061   4.291   4.354   1.388
10741SOL    HW181062   4.304   4.364   1.487
10741SOL    HW281063   4.380   4.339   1.345
10742SOL     OW81064   4.644  12.798   1.078
10742SOL    HW181065   4.576  12.868   1.059
10742SOL    HW281066   4.734  12.841   1.090
10743SOL     OW81067   9.594   1.884   7.833
10743SOL    HW181068   9.674   1.846   7.881
10743SOL    HW281069   9.543   1.944   7.895
10744SOL     OW81070  11.922   1.131   0.873
10744SOL    HW181071  11.967   1.043   0.859
10744SOL    HW281072  11.901   1.173   0.785
10745SOL     OW81073  14.427  14.000   6.720
10745SOL    HW181074  14.480  13.928   6.675
10745SOL    HW281075  14.485  14.081   6.733
10746SOL     OW81076   1.686   1.962   1.848
10746SOL    HW181077   1.680   1.947   1.947
10746SOL    HW281078   1.625   1.897   1.802
10747SOL     OW81079  14.747  15.634   7.919
10747SOL    HW181080  14.767  15.550   7.868
10747SOL    HW281081  14.827  15.662   7.971
10748SOL     OW81082   3.567  13.249   1.690
10748SOL    HW181083   3.638  13.315   1.664
10748SOL    HW281084   3.538  13.267   1.784
10749SOL     OW81085   3.162  15.536   7.514
10749SOL    HW181086   3.145  15.620   7.566
10749SOL    HW281087   3.240  15.551   7.453
10750SOL     OW81088   0.673  11.169   8.397
10750SOL    HW181089   0.709  11.127   8.314
10750SOL    HW281090   0.607  11.240   8.372
10751SOL     OW81091  10.023  10.740   1.413
10751SOL    HW181092  10.093  10.800   1.373
10751SOL    HW281093   9.969  10.791   1.479
10752SOL     OW81094   0.708  14.090   6.476
10752SOL    HW181095   0.778  14.020   6.483
10752SOL    HW281096   0.712  14.132   6.385
10753SOL     OW81097  13.481  10.284   8.049
10753SOL    HW181098  13.479  10.247   7.956
10753SOL    HW281099  13.573  10.273   8.086
10754SOL     OW81100  10.523   5.829   7.624
10754SOL    HW181101  10.554   5.834   7.529
10754SOL    HW281102  10.532   5.919   7.667
10755SOL     OW81103   4.178   8.658   8.309
10755SOL    HW181104   4.240   8.678   8.233
10755SOL    HW281105   4.096   8.612   8.274
10756SOL     OW81106   1.987  14.444   7.171
10756SOL    HW181107   1.936  14.438   7.085
10756SOL    HW281108   1.925  14.471   7.245
10757SOL     OW81109  13.355   8.056   7.734
10757SOL    HW181110  13.416   8.113   7.788
10757SOL    HW281111  13.281   8.022   7.792
10758SOL     OW81112  10.207  11.441   0.416
10758SOL    HW181113  10.267  11.466   0.340
10758SOL    HW281114  10.172  11.348   0.403
10759SOL     OW81115  14.931   8.466   0.386
10759SOL    HW181116  15.009   8.428   0.435
10759SOL    HW281117  14.888   8.537   0.443
10760SOL     OW81118  15.231   5.656   1.726
10760SOL    HW181119  15.262   5.602   1.648
10760SOL    HW281120  15.199   5.745   1.693
10761SOL     OW81121   1.861  15.265   0.157
10761SOL    HW181122   1.895  15.189   0.100
10761SOL    HW281123   1.932  15.334   0.167
10762SOL     OW81124  16.023   2.093   8.137
10762SOL    HW181125  15.964   2.076   8.216
10762SOL    HW281126  16.094   2.023   8.133
10763SOL     OW81127  11.322   0.008   7.642
10763SOL    HW181128  11.355  16.945   7.725
10763SOL    HW281129  11.252  16.935   7.599
10764SOL     OW81130  15.052   0.109   7.428
10764SOL    HW181131  15.058   0.160   7.342
10764SOL    HW281132  15.082   0.167   7.503
10765SOL     OW81133   5.091   6.566   1.560
10765SOL    HW181134   5.073   6.474   1.525
10765SOL    HW281135   5.173   6.565   1.618
10766SOL     OW81136  13.092   2.582   1.096
10766SOL    HW181137  13.079   2.526   1.178
10766SOL    HW281138  13.008   2.634   1.078
10767SOL     OW81139   8.357   8.110   7.099
10767SOL    HW181140   8.402   8.191   7.137
10767SOL    HW281141   8.397   8.087   7.010
10768SOL     OW81142  14.969   2.252   0.745
10768SOL    HW181143  15.060   2.220   0.717
10768SOL    HW281144  14.969   2.352   0.746
10769SOL     OW81145  12.858   2.675   7.937
10769SOL    HW181146  12.839   2.611   7.862
10769SOL    HW281147  12.954   2.666   7.964
10770SOL     OW81148   5.789   6.879   0.105
10770SOL    HW181149   5.858   6.894   0.175
10770SOL    HW281150   5.699   6.868   0.147
10771SOL     OW81151   0.137  13.759   8.189
10771SOL    HW181152   0.233  13.779   8.168
10771SOL    HW281153   0.118  13.663   8.171
10772SOL     OW81154  14.537   9.337   0.248
10772SOL    HW181155  14.449   9.330   0.294
10772SOL    HW281156  14.532   9.407   0.177
10773SOL     OW81157  14.000   8.962   6.547
10773SOL    HW181158  14.083   8.928   6.503
10773SOL    HW281159  14.020   9.049   6.592
10774SOL     OW81160  14.353  12.011   0.954
10774SOL    HW181161  14.299  12.082   0.999
10774SOL    HW281162  14.331  11.922   0.994
10775SOL     OW81163   2.289   7.538   7.421
10775SOL    HW181164   2.276   7.551   7.323
10775SOL    HW281165   2.369   7.480   7.437
10776SOL     OW81166  12.576  10.525   2.617
10776SOL    HW181167  12.639  10.451   2.641
10776SOL    HW281168  12.490  10.487   2.583
10777SOL     OW81169  11.485  15.531   0.538
10777SOL    HW181170  11.476  15.432   0.548
10777SOL    HW281171  11.581  15.557   0.545
10778SOL     OW81172  11.145  10.046   7.338
10778SOL    HW181173  11.163  10.006   7.428
10778SOL    HW281174  11.205  10.125   7.324
10779SOL     OW81175  12.044  11.708   1.677
10779SOL    HW181176  12.122  11.688   1.618
10779SOL    HW281177  11.997  11.790   1.644
10780SOL     OW81178   9.369   3.388   6.798
10780SOL    HW181179   9.290   3.334   6.770
10780SOL    HW281180   9.424   3.412   6.718
10781SOL     OW81181   8.981  13.388   1.191
10781SOL    HW181182   8.914  13.364   1.121
10781SOL    HW281183   8.992  13.487   1.194
10782SOL     OW81184   7.336  11.117   0.256
10782SOL    HW181185   7.360  11.186   0.325
10782SOL    HW281186   7.281  11.045   0.298
10783SOL     OW81187  11.428   2.501   0.581
10783SOL    HW181188  11.449   2.527   0.486
10783SOL    HW281189  11.329   2.490   0.591
10784SOL     OW81190   5.785   8.919   7.186
10784SOL    HW181191   5.786   8.921   7.086
10784SOL    HW281192   5.731   8.840   7.218
10785SOL     OW81193   2.886   0.333   1.859
10785SOL    HW181194   2.893   0.262   1.930
10785SOL    HW281195   2.972   0.339   1.810
10786SOL     OW81196  15.522  14.951   8.084
10786SOL    HW181197  15.596  14.884   8.086
10786SOL    HW281198  15.501  14.974   7.989
10787SOL     OW81199   7.944  15.259   7.979
10787SOL    HW181200   7.935  15.264   8.078
10787SOL    HW281201   7.866  15.208   7.941
10788SOL     OW81202   6.008  14.350   1.524
10788SOL    HW181203   6.067  14.415   1.475
10788SOL    HW281204   6.062  14.272   1.555
10789SOL     OW81205  14.047  10.683   8.406
10789SOL    HW181206  13.989  10.741   8.348
10789SOL    HW281207  14.077  10.736   0.032
10790SOL     OW81208  11.547   6.992   7.138
10790SOL    HW181209  11.531   6.996   7.237
10790SOL    HW281210  11.534   6.898   7.106
10791SOL     OW81211  15.652   0.303   7.103
10791SOL    HW181212  15.637   0.209   7.134
10791SOL    HW281213  15.634   0.366   7.179
10792SOL     OW81214   8.623   6.593   8.030
10792SOL    HW181215   8.551   6.630   7.971
10792SOL    HW281216   8.707   6.580   7.977
10793SOL     OW81217   4.749   8.016   8.042
10793SOL    HW181218   4.774   7.939   8.101
10793SOL    HW281219   4.651   8.035   8.053
10794SOL     OW81220   1.459   6.465   6.710
10794SOL    HW181221   1.382   6.493   6.768
10794SOL    HW281222   1.510   6.392   6.755
10795SOL     OW81223   0.916   2.038   1.771
10795SOL    HW181224   0.832   2.019   1.821
10795SOL    HW281225   0.954   2.125   1.801
10796SOL     OW81226  15.803   3.468   7.491
10796SOL    HW181227  15.717   3.464   7.540
10796SOL    HW281228  15.834   3.563   7.485
10797SOL     OW81229  15.476  12.005   0.500
10797SOL    HW181230  15.426  12.090   0.485
10797SOL    HW281231  15.427  11.948   0.566
10798SOL     OW81232   6.875  11.163   1.808
10798SOL    HW181233   6.800  11.209   1.761
10798SOL    HW281234   6.882  11.197   1.901
10799SOL     OW81235  11.407   4.552   8.300
10799SOL    HW181236  11.442   4.646   8.300
10799SOL    HW281237  11.461   4.496   8.362
10800SOL     OW81238  15.633  12.611   1.718
10800SOL    HW181239  15.674  12.531   1.676
10800SOL    HW281240  15.538  12.592   1.741
10801SOL     OW81241   9.448   7.839   7.756
10801SOL    HW181242   9.415   7.933   7.765
10801SOL    HW281243   9.377   7.776   7.787
10802SOL     OW81244   0.319  15.242   7.925
10802SOL    HW181245   0.227  15.265   7.895
10802SOL    HW281246   0.361  15.180   7.858
10803SOL     OW81247  10.058  13.758   1.193
10803SOL    HW181248  10.065  13.660   1.207
10803SOL    HW281249  10.143  13.802   1.220
10804SOL     OW81250  10.134   9.086   0.750
10804SOL    HW181251  10.069   9.089   0.825
10804SOL    HW281252  10.088   9.114   0.665
10805SOL     OW81253  11.520   6.562   0.556
10805SOL    HW181254  11.566   6.649   0.572
10805SOL    HW281255  11.586   6.495   0.522
10806SOL     OW81256  16.021   4.130   0.342
10806SOL    HW181257  15.969   4.117   0.257
10806SOL    HW281258  15.974   4.194   0.401
10807SOL     OW81259   4.979  13.175   7.058
10807SOL    HW181260   5.031  13.243   7.110
10807SOL    HW281261   5.031  13.146   6.978
10808SOL     OW81262   8.788  14.750   7.523
10808SOL    HW181263   8.858  14.819   7.539
10808SOL    HW281264   8.725  14.782   7.452
10809SOL     OW81265   0.284  14.361   7.441
10809SOL    HW181266   0.261  14.287   7.505
10809SOL    HW281267   0.380  14.387   7.452
10810SOL     OW81268   3.799  11.003   0.218
10810SOL    HW181269   3.857  11.010   0.136
10810SOL    HW281270   3.766  11.094   0.243
10811SOL     OW81271   2.933   3.190   1.856
10811SOL    HW181272   3.017   3.207   1.805
10811SOL    HW281273   2.955   3.165   1.950
10812SOL     OW81274   5.428  14.693   7.953
10812SOL    HW181275   5.384  14.647   7.876
10812SOL    HW281276   5.370  14.768   7.985
10813SOL     OW81277   2.020  10.839   0.099
10813SOL    HW181278   2.079  10.800   0.029
10813SOL    HW281279   1.960  10.768   0.136
10814SOL     OW81280  16.364   8.737   7.820
10814SOL    HW181281  16.454   8.704   7.851
10814SOL    HW281282  16.368   8.836   7.807
10815SOL     OW81283   2.303   4.820   7.740
10815SOL    HW181284   2.278   4.759   7.815
10815SOL    HW281285   2.272   4.913   7.761
10816SOL     OW81286   0.281   1.752   7.960
10816SOL    HW181287   0.319   1.820   7.898
10816SOL    HW281288   0.314   1.661   7.935
10817SOL     OW81289  15.920   6.543   5.922
10817SOL    HW181290  15.950   6.489   5.844
10817SOL    HW281291  15.894   6.635   5.892
10818SOL     OW81292   5.315   8.682   1.119
10818SOL    HW181293   5.244   8.705   1.053
10818SOL    HW281294   5.381   8.619   1.077
10819SOL     OW81295  12.593  15.167   1.924
10819SOL    HW181296  12.533  15.110   1.981
10819SOL    HW281297  12.687  15.136   1.935
10820SOL     OW81298   0.840   4.956   7.471
10820SOL    HW181299   0.905   5.022   7.508
10820SOL    HW281300   0.779   4.924   7.544
10821SOL     OW81301  13.925   5.335   0.843
10821SOL    HW181302  13.953   5.274   0.769
10821SOL    HW281303  13.855   5.399   0.810
10822SOL     OW81304   2.579   0.150   7.413
10822SOL    HW181305   2.653   0.094   7.450
10822SOL    HW281306   2.559   0.225   7.476
10823SOL     OW81307   5.081  10.000   7.020
10823SOL    HW181308   5.024  10.032   6.944
10823SOL    HW281309   5.133   9.920   6.992
10824SOL     OW81310  12.052  13.302   7.247
10824SOL    HW181311  12.094  13.229   7.300
10824SOL    HW281312  11.979  13.345   7.300
10825SOL     OW81313  13.089  10.814   7.992
10825SOL    HW181314  13.097  10.716   7.972
10825SOL    HW281315  12.992  10.840   7.997
10826SOL     OW81316   7.422  16.419   1.401
10826SOL    HW181317   7.462  16.463   1.320
10826SOL    HW281318   7.339  16.467   1.427
10827SOL     OW81319   5.187   3.950   6.607
10827SOL    HW181320   5.136   3.865   6.620
10827SOL    HW281321   5.211   3.960   6.510
10828SOL     OW81322  11.919  10.501   0.105
10828SOL    HW181323  11.852  10.572   0.128
10828SOL    HW281324  11.953  10.459   0.190
10829SOL     OW81325   6.159  16.452   1.586
10829SOL    HW181326   6.146  16.356   1.610
10829SOL    HW281327   6.103  16.509   1.647
10830SOL     OW81328   0.230   2.605   1.264
10830SOL    HW181329   0.198   2.565   1.178
10830SOL    HW281330   0.162   2.590   1.336
10831SOL     OW81331   3.991   9.111   0.412
10831SOL    HW181332   4.058   9.038   0.423
10831SOL    HW281333   3.938   9.096   0.329
10832SOL     OW81334  12.509   7.996   1.047
10832SOL    HW181335  12.489   7.912   0.996
10832SOL    HW281336  12.608   8.004   1.060
10833SOL     OW81337  10.186  11.361   7.076
10833SOL    HW181338  10.198  11.424   7.152
10833SOL    HW281339  10.116  11.293   7.099
10834SOL     OW81340  10.362   3.567   0.383
10834SOL    HW181341  10.339   3.535   0.291
10834SOL    HW281342  10.440   3.629   0.379
10835SOL     OW81343  14.579   9.436   1.423
10835SOL    HW181344  14.498   9.488   1.453
10835SOL    HW281345  14.630   9.490   1.356
10836SOL     OW81346  14.301   3.736   7.453
10836SOL    HW181347  14.273   3.805   7.386
10836SOL    HW281348  14.385   3.691   7.423
10837SOL     OW81349  10.789  10.044   0.954
10837SOL    HW181350  10.833  10.128   0.922
10837SOL    HW281351  10.850   9.967   0.941
10838SOL     OW81352   4.288  16.717   7.160
10838SOL    HW181353   4.289  16.774   7.078
10838SOL    HW281354   4.371  16.662   7.163
10839SOL     OW81355  11.851   0.126   6.491
10839SOL    HW181356  11.757   0.092   6.495
10839SOL    HW281357  11.891   0.106   6.402
10840SOL     OW81358   8.301  13.368   1.460
10840SOL    HW181359   8.286  13.326   1.550
10840SOL    HW281360   8.267  13.461   1.460
10841SOL     OW81361   0.058   7.804   6.774
10841SOL    HW181362  16.966   7.856   6.734
10841SOL    HW281363   0.045   7.797   6.873
10842SOL     OW81364  11.240   6.249   8.370
10842SOL    HW181365  11.252   6.348   8.380
10842SOL    HW281366  11.289   6.202   8.444
10843SOL     OW81367   6.601   9.284   6.734
10843SOL    HW181368   6.687   9.324   6.701
10843SOL    HW281369   6.567   9.219   6.666
10844SOL     OW81370   6.117  12.557   8.377
10844SOL    HW181371   6.212  12.585   8.371
10844SOL    HW281372   6.076  12.597   0.005
10845SOL     OW81373  14.521   0.096   6.773
10845SOL    HW181374  14.455   0.149   6.720
10845SOL    HW281375  14.591   0.157   6.809
10846SOL     OW81376   2.014   5.735   0.057
10846SOL    HW181377   1.933   5.690   0.019
10846SOL    HW281378   2.055   5.793   8.441
10847SOL     OW81379  10.183   6.016   6.647
10847SOL    HW181380  10.194   6.115   6.634
10847SOL    HW281381  10.268   5.978   6.683
10848SOL     OW81382  16.426  11.052   6.755
10848SOL    HW181383  16.340  11.060   6.806
10848SOL    HW281384  16.407  11.066   6.658
10849SOL     OW81385  12.527   8.200   8.451
10849SOL    HW181386  12.433   8.221   0.025
10849SOL    HW281387  12.582   8.177   0.077
10850SOL     OW81388   6.234  11.303   6.760
10850SOL    HW181389   6.296  11.248   6.704
10850SOL    HW281390   6.239  11.272   6.855
10851SOL     OW81391  13.016   1.189   7.776
10851SOL    HW181392  13.104   1.154   7.809
10851SOL    HW281393  12.956   1.207   7.853
10852SOL     OW81394   9.201   7.754   8.086
10852SOL    HW181395   9.184   7.852   8.095
10852SOL    HW281396   9.203   7.729   7.990
10853SOL     OW81397  16.161   7.906   1.804
10853SOL    HW181398  16.138   7.947   1.892
10853SOL    HW281399  16.245   7.852   1.814
10854SOL     OW81400  14.646   4.290   1.372
10854SOL    HW181401  14.728   4.267   1.318
10854SOL    HW281402  14.586   4.348   1.317
10855SOL     OW81403   0.559   2.531   8.196
10855SOL    HW181404   0.568   2.455   8.131
10855SOL    HW281405   0.500   2.503   8.272
10856SOL     OW81406   7.057  15.559   1.417
10856SOL    HW181407   7.081  15.574   1.513
10856SOL    HW281408   7.055  15.460   1.398
10857SOL     OW81409   9.124   0.476   7.592
10857SOL    HW181410   9.032   0.468   7.553
10857SOL    HW281411   9.129   0.560   7.646
10858SOL     OW81412  13.554   3.036   7.852
10858SOL    HW181413  13.583   3.106   7.786
10858SOL    HW281414  13.603   3.049   7.938
10859SOL     OW81415  15.856  10.362   6.928
10859SOL    HW181416  15.912  10.413   6.863
10859SOL    HW281417  15.775  10.326   6.882
10860SOL     OW81418   2.501   4.080   7.244
10860SOL    HW181419   2.436   4.006   7.260
10860SOL    HW281420   2.594   4.045   7.252
10861SOL     OW81421  14.103   0.513   6.654
10861SOL    HW181422  14.077   0.441   6.589
10861SOL    HW281423  14.056   0.497   6.742
10862SOL     OW81424  12.982   9.059   6.743
10862SOL    HW181425  13.071   9.013   6.743
10862SOL    HW281426  12.920   9.013   6.680
10863SOL     OW81427   3.010   7.706   7.215
10863SOL    HW181428   3.102   7.739   7.237
10863SOL    HW281429   2.942   7.758   7.266
10864SOL     OW81430  14.020   8.112   6.425
10864SOL    HW181431  14.062   8.201   6.444
10864SOL    HW281432  13.989   8.110   6.330
10865SOL     OW81433   4.656  13.640   1.481
10865SOL    HW181434   4.651  13.730   1.525
10865SOL    HW281435   4.571  13.622   1.432
10866SOL     OW81436  11.248   9.588   6.593
10866SOL    HW181437  11.290   9.580   6.683
10866SOL    HW281438  11.309   9.547   6.525
10867SOL     OW81439  10.829  12.453   7.471
10867SOL    HW181440  10.736  12.489   7.473
10867SOL    HW281441  10.892  12.526   7.443
10868SOL     OW81442  14.795   4.465   8.185
10868SOL    HW181443  14.706   4.486   8.144
10868SOL    HW281444  14.858   4.542   8.167
10869SOL     OW81445  14.973   9.823   7.186
10869SOL    HW181446  15.033   9.900   7.207
10869SOL    HW281447  14.949   9.776   7.271
10870SOL     OW81448   8.622  10.797   1.881
10870SOL    HW181449   8.642  10.721   1.942
10870SOL    HW281450   8.555  10.769   1.813
10871SOL     OW81451  12.907  15.915   0.992
10871SOL    HW181452  12.871  15.942   0.902
10871SOL    HW281453  12.874  15.824   1.016
10872SOL     OW81454  10.762   5.316   0.309
10872SOL    HW181455  10.852   5.279   0.334
10872SOL    HW281456  10.760   5.414   0.332
10873SOL     OW81457   8.418   4.832   7.149
10873SOL    HW181458   8.508   4.875   7.141
10873SOL    HW281459   8.412   4.755   7.085
10874SOL     OW81460  14.294   8.171   1.754
10874SOL    HW181461  14.232   8.138   1.683
10874SOL    HW281462  14.275   8.122   1.839
10875SOL     OW81463  14.189   2.285   7.258
10875SOL    HW181464  14.282   2.298   7.222
10875SOL    HW281465  14.134   2.366   7.237
10876SOL     OW81466   4.688  10.396   1.398
10876SOL    HW181467   4.635  10.468   1.353
10876SOL    HW281468   4.709  10.324   1.331
10877SOL     OW81469  16.630   9.638   8.045
10877SOL    HW181470  16.722   9.644   8.007
10877SOL    HW281471  16.587   9.553   8.016
10878SOL     OW81472   3.480   0.062   7.807
10878SOL    HW181473   3.579   0.056   7.793
10878SOL    HW281474   3.459   0.040   7.903
10879SOL     OW81475   2.339  12.941   7.069
10879SOL    HW181476   2.267  13.002   7.103
10879SOL    HW281477   2.342  12.945   6.969
10880SOL     OW81478   8.314   1.463   7.991
10880SOL    HW181479   8.317   1.547   8.045
10880SOL    HW281480   8.384   1.400   8.024
10881SOL     OW81481  12.065   5.614   6.964
10881SOL    HW181482  12.002   5.538   6.950
10881SOL    HW281483  12.013   5.699   6.973
10882SOL     OW81484   3.157   4.399   1.916
10882SOL    HW181485   3.212   4.327   1.960
10882SOL    HW281486   3.131   4.467   1.985
10883SOL     OW81487   2.447  11.330   2.153
10883SOL    HW181488   2.485  11.419   2.179
10883SOL    HW281489   2.385  11.298   2.224
10884SOL     OW81490  16.713   8.561   0.415
10884SOL    HW181491  16.641   8.506   0.372
10884SOL    HW281492  16.745   8.514   0.497
10885SOL     OW81493   5.981  12.472   7.873
10885SOL    HW181494   5.964  12.498   7.968
10885SOL    HW281495   6.075  12.437   7.864
10886SOL     OW81496   6.753   8.585   8.171
10886SOL    HW181497   6.849   8.604   8.195
10886SOL    HW281498   6.700   8.670   8.172
10887SOL     OW81499  12.948   7.365   0.381
10887SOL    HW181500  12.948   7.462   0.405
10887SOL    HW281501  12.972   7.355   0.284
10888SOL     OW81502  11.672  11.770   1.076
10888SOL    HW181503  11.683  11.764   1.175
10888SOL    HW281504  11.693  11.681   1.034
10889SOL     OW81505  10.986   0.844   1.786
10889SOL    HW181506  11.077   0.885   1.775
10889SOL    HW281507  10.992   0.762   1.841
10890SOL     OW81508  16.860   7.455   6.045
10890SOL    HW181509  16.905   7.482   5.960
10890SOL    HW281510  16.860   7.532   6.109
10891SOL     OW81511  16.372   0.111   8.315
10891SOL    HW181512  16.309   0.157   8.252
10891SOL    HW281513  16.325   0.034   8.359
10892SOL     OW81514   9.843   8.466   7.739
10892SOL    HW181515   9.834   8.565   7.727
10892SOL    HW281516   9.904   8.448   7.816
10893SOL     OW81517   0.922  16.574   7.450
10893SOL    HW181518   0.862  16.496   7.462
10893SOL    HW281519   0.989  16.554   7.379
10894SOL     OW81520   6.020  11.021   7.843
10894SOL    HW181521   6.066  11.071   7.916
10894SOL    HW281522   6.050  11.056   7.755
10895SOL     OW81523  12.072  15.868   1.561
10895SOL    HW181524  12.166  15.855   1.531
10895SOL    HW281525  12.010  15.817   1.501
10896SOL     OW81526   8.238   8.871   1.433
10896SOL    HW181527   8.211   8.814   1.356
10896SOL    HW281528   8.224   8.968   1.410
10897SOL     OW81529   7.712   6.041   6.501
10897SOL    HW181530   7.639   5.984   6.462
10897SOL    HW281531   7.798   5.989   6.501
10898SOL     OW81532   6.304   6.497   0.525
10898SOL    HW181533   6.352   6.556   0.590
10898SOL    HW281534   6.359   6.488   0.442
10899SOL     OW81535  14.498  14.334   0.085
10899SOL    HW181536  14.453  14.367   0.168
10899SOL    HW281537  14.560  14.259   0.109
10900SOL     OW81538   8.053   7.920   1.809
10900SOL    HW181539   7.972   7.978   1.816
10900SOL    HW281540   8.129   7.963   1.859
10901SOL     OW81541   1.457   2.462   8.170
10901SOL    HW181542   1.515   2.471   8.251
10901SOL    HW281543   1.409   2.375   8.173
10902SOL     OW81544  10.715   2.147   7.354
10902SOL    HW181545  10.623   2.132   7.392
10902SOL    HW281546  10.710   2.144   7.254
10903SOL     OW81547  13.512   5.321   0.682
10903SOL    HW181548  13.533   5.259   0.758
10903SOL    HW281549  13.413   5.327   0.671
10904SOL     OW81550   0.546  14.987   0.448
10904SOL    HW181551   0.609  14.916   0.415
10904SOL    HW281552   0.454  14.948   0.455
10905SOL     OW81553   4.343   7.860   8.057
10905SOL    HW181554   4.408   7.785   8.045
10905SOL    HW281555   4.392   7.946   8.067
10906SOL     OW81556   9.071  14.832   7.243
10906SOL    HW181557   9.170  14.848   7.251
10906SOL    HW281558   9.054  14.736   7.224
10907SOL     OW81559   9.771   2.526   2.006
10907SOL    HW181560   9.838   2.595   2.034
10907SOL    HW281561   9.688   2.536   2.061
10908SOL     OW81562   0.307  14.331   6.938
10908SOL    HW181563   0.316  14.255   6.874
10908SOL    HW281564   0.216  14.371   6.931
10909SOL     OW81565  11.889  15.957   0.234
10909SOL    HW181566  11.804  16.010   0.236
10909SOL    HW281567  11.953  16.000   0.170
10910SOL     OW81568   7.475  11.696   0.986
10910SOL    HW181569   7.461  11.698   0.887
10910SOL    HW281570   7.396  11.735   1.032
10911SOL     OW81571  10.557   3.771   0.338
10911SOL    HW181572  10.589   3.793   0.246
10911SOL    HW281573  10.491   3.839   0.368
10912SOL     OW81574   6.993   5.887   6.564
10912SOL    HW181575   6.909   5.910   6.614
10912SOL    HW281576   7.069   5.942   6.600
10913SOL     OW81577  14.334  10.865   1.545
10913SOL    HW181578  14.358  10.769   1.545
10913SOL    HW281579  14.300  10.892   1.635
10914SOL     OW81580   1.072   7.075   8.171
10914SOL    HW181581   0.999   7.014   8.200
10914SOL    HW281582   1.127   7.102   8.250
10915SOL     OW81583   8.664   1.107   7.930
10915SOL    HW181584   8.754   1.090   7.969
10915SOL    HW281585   8.668   1.097   7.831
10916SOL     OW81586   3.104   2.475   0.149
10916SOL    HW181587   3.071   2.566   0.126
10916SOL    HW281588   3.056   2.441   0.230
10917SOL     OW81589   9.820  12.315   8.319
10917SOL    HW181590   9.793  12.277   8.231
10917SOL    HW281591   9.876  12.397   8.304
10918SOL     OW81592   3.604  12.081   7.300
10918SOL    HW181593   3.601  12.168   7.350
10918SOL    HW281594   3.516  12.063   7.258
10919SOL     OW81595   8.579   4.453   1.185
10919SOL    HW181596   8.677   4.468   1.175
10919SOL    HW281597   8.530   4.533   1.152
10920SOL     OW81598   4.697  15.800   8.184
10920SOL    HW181599   4.749  15.845   8.256
10920SOL    HW281600   4.616  15.757   8.224
10921SOL     OW81601   6.265   6.228   1.877
10921SOL    HW181602   6.282   6.269   1.967
10921SOL    HW281603   6.214   6.143   1.889
10922SOL     OW81604  13.980   0.001   0.540
10922SOL    HW181605  13.994   0.095   0.510
10922SOL    HW281606  14.068  16.938   0.546
10923SOL     OW81607  12.738   7.011   8.190
10923SOL    HW181608  12.723   6.912   8.183
10923SOL    HW281609  12.836   7.030   8.195
10924SOL     OW81610   4.047   3.412   1.736
10924SOL    HW181611   4.027   3.377   1.645
10924SOL    HW281612   4.030   3.341   1.804
10925SOL     OW81613   2.298   1.915   7.634
10925SOL    HW181614   2.263   1.999   7.592
10925SOL    HW281615   2.242   1.893   7.714
10926SOL     OW81616   7.828   7.371   1.335
10926SOL    HW181617   7.887   7.344   1.411
10926SOL    HW281618   7.752   7.426   1.370
10927SOL     OW81619  12.315   1.371   0.130
10927SOL    HW181620  12.304   1.368   0.230
10927SOL    HW281621  12.263   1.449   0.094
10928SOL     OW81622   1.937  14.204   2.525
10928SOL    HW181623   2.036  14.218   2.525
10928SOL    HW281624   1.898  14.236   2.611
10929SOL     OW81625   0.437   8.127   6.896
10929SOL    HW181626   0.459   8.157   6.804
10929SOL    HW281627   0.487   8.182   6.963
10930SOL     OW81628  14.173  16.679   0.339
10930SOL    HW181629  14.107  16.610   0.370
10930SOL    HW281630  14.193  16.741   0.414
10931SOL     OW81631   5.068  10.327   6.448
10931SOL    HW181632   5.068  10.339   6.349
10931SOL    HW281633   5.107  10.238   6.471
10932SOL     OW81634   6.081   3.415   0.099
10932SOL    HW181635   6.180   3.424   0.090
10932SOL    HW281636   6.039   3.506   0.099
10933SOL     OW81637   9.971  16.946   8.426
10933SOL    HW181638   9.943  16.863   8.378
10933SOL    HW281639   9.895  16.980   0.027
10934SOL     OW81640   6.838   0.013   1.516
10934SOL    HW181641   6.787  16.960   1.437
10934SOL    HW281642   6.925   0.051   1.484
10935SOL     OW81643   1.284   1.140   1.543
10935SOL    HW181644   1.383   1.143   1.557
10935SOL    HW281645   1.265   1.141   1.444
10936SOL     OW81646  16.340   8.488   7.477
10936SOL    HW181647  16.385   8.431   7.545
10936SOL    HW281648  16.258   8.442   7.444
10937SOL     OW81649   7.984   7.885   7.640
10937SOL    HW181650   8.079   7.869   7.611
10937SOL    HW281651   7.971   7.853   7.734
10938SOL     OW81652  16.852   9.206   2.084
10938SOL    HW181653  16.922   9.146   2.122
10938SOL    HW281654  16.764   9.188   2.128
10939SOL     OW81655  12.419   3.558   0.448
10939SOL    HW181656  12.322   3.539   0.464
10939SOL    HW281657  12.437   3.564   0.350
10940SOL     OW81658  16.205   2.882   8.094
10940SOL    HW181659  16.194   2.803   8.033
10940SOL    HW281660  16.165   2.862   8.183
10941SOL     OW81661   7.422   8.869   8.260
10941SOL    HW181662   7.395   8.871   8.164
10941SOL    HW281663   7.472   8.784   8.279
10942SOL     OW81664   4.130  16.383   0.239
10942SOL    HW181665   4.155  16.286   0.247
10942SOL    HW281666   4.175  16.421   0.158
10943SOL     OW81667  12.187  10.110   0.415
10943SOL    HW181668  12.113  10.049   0.440
10943SOL    HW281669  12.239  10.070   0.340
10944SOL     OW81670  15.104  10.345   1.852
10944SOL    HW181671  15.101  10.277   1.925
10944SOL    HW281672  15.176  10.412   1.872
10945SOL     OW81673   6.069   4.901   6.483
10945SOL    HW181674   6.164   4.923   6.506
10945SOL    HW281675   6.023   4.982   6.448
10946SOL     OW81676   9.609   1.827   6.685
10946SOL    HW181677   9.524   1.776   6.671
10946SOL    HW281678   9.650   1.849   6.597
10947SOL     OW81679   2.950   5.728   8.294
10947SOL    HW181680   3.032   5.716   8.238
10947SOL    HW281681   2.907   5.639   8.310
10948SOL     OW81682  10.412   5.113   6.353
10948SOL    HW181683  10.463   5.092   6.436
10948SOL    HW281684  10.409   5.031   6.295
10949SOL     OW81685   8.823   7.579   7.501
10949SOL    HW181686   8.884   7.501   7.494
10949SOL    HW281687   8.800   7.596   7.597
10950SOL     OW81688   1.365   6.759   7.021
10950SOL    HW181689   1.324   6.817   7.092
10950SOL    HW281690   1.417   6.685   7.064
10951SOL     OW81691   6.046  13.064   6.292
10951SOL    HW181692   6.015  13.031   6.381
10951SOL    HW281693   6.003  13.010   6.220
10952SOL     OW81694   3.034   8.918   0.450
10952SOL    HW181695   3.032   8.818   0.447
10952SOL    HW281696   3.111   8.951   0.394
10953SOL     OW81697  12.784  14.763   7.579
10953SOL    HW181698  12.747  14.748   7.671
10953SOL    HW281699  12.882  14.782   7.584
10954SOL     OW81700  11.998  15.881   6.293
10954SOL    HW181701  12.010  15.782   6.280
10954SOL    HW281702  12.088  15.925   6.290
10955SOL     OW81703   9.135   1.488   7.392
10955SOL    HW181704   9.135   1.494   7.492
10955SOL    HW281705   9.171   1.399   7.363
10956SOL     OW81706   8.803  14.500   6.039
10956SOL    HW181707   8.850  14.514   5.952
10956SOL    HW281708   8.727  14.436   6.026
10957SOL     OW81709  13.650  12.217   7.814
10957SOL    HW181710  13.676  12.253   7.724
10957SOL    HW281711  13.579  12.148   7.803
10958SOL     OW81712   3.965  15.212   6.915
10958SOL    HW181713   3.969  15.312   6.920
10958SOL    HW281714   3.979  15.183   6.820
10959SOL     OW81715   7.744  16.319   7.776
10959SOL    HW181716   7.676  16.392   7.768
10959SOL    HW281717   7.757  16.276   7.687
10960SOL     OW81718  16.406   7.698   6.817
10960SOL    HW181719  16.360   7.780   6.782
10960SOL    HW281720  16.359   7.664   6.898
10961SOL     OW81721   5.926   3.288   1.682
10961SOL    HW181722   5.980   3.242   1.753
10961SOL    HW281723   5.971   3.374   1.656
10962SOL     OW81724  12.084   7.213   8.389
10962SOL    HW181725  12.063   7.283   0.003
10962SOL    HW281726  12.182   7.194   8.390
10963SOL     OW81727  11.177  16.165   8.364
10963SOL    HW181728  11.154  16.198   0.002
10963SOL    HW281729  11.228  16.080   8.372
10964SOL     OW81730   4.022  12.103   1.725
10964SOL    HW181731   4.104  12.088   1.669
10964SOL    HW281732   4.022  12.197   1.760
10965SOL     OW81733  11.810   4.772   6.799
10965SOL    HW181734  11.891   4.758   6.857
10965SOL    HW281735  11.839   4.782   6.704
10966SOL     OW81736   8.440   5.945   7.619
10966SOL    HW181737   8.507   6.011   7.652
10966SOL    HW281738   8.443   5.863   7.675
10967SOL     OW81739   2.760  13.794   1.596
10967SOL    HW181740   2.700  13.863   1.637
10967SOL    HW281741   2.831  13.839   1.542
10968SOL     OW81742  14.886  10.035   2.045
10968SOL    HW181743  14.888   9.978   1.963
10968SOL    HW281744  14.972  10.084   2.054
10969SOL     OW81745   3.197  16.799   1.689
10969SOL    HW181746   3.103  16.830   1.678
10969SOL    HW281747   3.203  16.739   1.768
10970SOL     OW81748   0.446  11.583   2.292
10970SOL    HW181749   0.500  11.658   2.332
10970SOL    HW281750   0.468  11.498   2.340
10971SOL     OW81751  11.812  15.003   0.430
10971SOL    HW181752  11.803  14.994   0.529
10971SOL    HW281753  11.797  14.914   0.387
10972SOL     OW81754   1.717  13.868   2.894
10972SOL    HW181755   1.776  13.824   2.961
10972SOL    HW281756   1.623  13.833   2.904
10973SOL     OW81757  12.339   0.459   7.363
10973SOL    HW181758  12.404   0.431   7.292
10973SOL    HW281759  12.262   0.506   7.321
10974SOL     OW81760   5.686   7.514   1.440
10974SOL    HW181761   5.657   7.434   1.387
10974SOL    HW281762   5.772   7.494   1.486
10975SOL     OW81763   3.174   7.990   0.416
10975SOL    HW181764   3.197   8.086   0.432
10975SOL    HW281765   3.236   7.952   0.347
10976SOL     OW81766   4.681   2.784   1.176
10976SOL    HW181767   4.648   2.877   1.184
10976SOL    HW281768   4.714   2.768   1.082
10977SOL     OW81769   3.063  11.777   0.603
10977SOL    HW181770   3.016  11.830   0.532
10977SOL    HW281771   3.074  11.683   0.572
10978SOL     OW81772   6.643  15.926   1.674
10978SOL    HW181773   6.561  15.900   1.623
10978SOL    HW281774   6.697  15.991   1.621
10979SOL     OW81775  14.692   0.295   6.867
10979SOL    HW181776  14.746   0.238   6.928
10979SOL    HW281777  14.752   0.346   6.806
10980SOL     OW81778  14.096  15.330   8.194
10980SOL    HW181779  14.073  15.269   8.119
10980SOL    HW281780  14.175  15.386   8.169
10981SOL     OW81781   3.599  13.820   7.961
10981SOL    HW181782   3.684  13.815   7.910
10981SOL    HW281783   3.536  13.750   7.928
10982SOL     OW81784  13.232   6.910   1.991
10982SOL    HW181785  13.312   6.970   1.980
10982SOL    HW281786  13.206   6.873   1.902
10983SOL     OW81787  16.800   3.762   6.562
10983SOL    HW181788  16.731   3.714   6.508
10983SOL    HW281789  16.765   3.852   6.589
10984SOL     OW81790   2.765   1.565   7.955
10984SOL    HW181791   2.843   1.523   8.000
10984SOL    HW281792   2.696   1.495   7.937
10985SOL     OW81793   6.122   4.193   5.824
10985SOL    HW181794   6.062   4.113   5.834
10985SOL    HW281795   6.217   4.163   5.818
10986SOL     OW81796   2.584   3.087   0.377
10986SOL    HW181797   2.638   3.166   0.406
10986SOL    HW281798   2.627   3.044   0.297
10987SOL     OW81799  14.678  14.427   1.555
10987SOL    HW181800  14.685  14.336   1.515
10987SOL    HW281801  14.651  14.419   1.651
10988SOL     OW81802   8.189  15.756   0.564
10988SOL    HW181803   8.246  15.756   0.645
10988SOL    HW281804   8.123  15.832   0.569
10989SOL     OW81805   2.579  15.092   2.469
10989SOL    HW181806   2.574  15.029   2.546
10989SOL    HW281807   2.514  15.167   2.482
10990SOL     OW81808  13.221  10.635   7.076
10990SOL    HW181809  13.153  10.591   7.017
10990SOL    HW281810  13.191  10.727   7.100
10991SOL     OW81811  16.453   5.693   6.782
10991SOL    HW181812  16.461   5.696   6.683
10991SOL    HW281813  16.375   5.636   6.808
10992SOL     OW81814  11.434   7.543   1.001
10992SOL    HW181815  11.493   7.618   1.029
10992SOL    HW281816  11.368   7.523   1.074
10993SOL     OW81817  11.877   8.863   7.474
10993SOL    HW181818  11.881   8.929   7.549
10993SOL    HW281819  11.815   8.898   7.403
10994SOL     OW81820   8.374   6.391   7.002
10994SOL    HW181821   8.328   6.459   7.059
10994SOL    HW281822   8.369   6.302   7.046
10995SOL     OW81823   3.831   2.581   1.213
10995SOL    HW181824   3.922   2.595   1.175
10995SOL    HW281825   3.837   2.522   1.293
10996SOL     OW81826  14.444   1.298   8.412
10996SOL    HW181827  14.495   1.352   0.026
10996SOL    HW281828  14.347   1.301   8.434
10997SOL     OW81829   9.920   6.903   7.090
10997SOL    HW181830   9.898   6.848   7.009
10997SOL    HW281831   9.896   6.852   7.172
10998SOL     OW81832  14.796  12.293   1.213
10998SOL    HW181833  14.707  12.275   1.254
10998SOL    HW281834  14.783  12.347   1.129
10999SOL     OW81835  10.190   5.539   1.088
10999SOL    HW181836  10.119   5.484   1.132
10999SOL    HW281837  10.234   5.598   1.156
11000SOL     OW81838   9.343   4.255   7.866
11000SOL    HW181839   9.348   4.322   7.940
11000SOL    HW281840   9.260   4.270   7.813
11001SOL     OW81841   6.968   7.491   1.338
11001SOL    HW181842   7.018   7.489   1.252
11001SOL    HW281843   6.940   7.398   1.362
11002SOL     OW81844   3.326   1.159   6.271
11002SOL    HW181845   3.271   1.096   6.217
11002SOL    HW281846   3.398   1.108   6.318
11003SOL     OW81847   8.294   5.055   6.354
11003SOL    HW181848   8.296   4.959   6.382
11003SOL    HW281849   8.375   5.076   6.299
11004SOL     OW81850   1.341   7.570   6.562
11004SOL    HW181851   1.293   7.657   6.559
11004SOL    HW281852   1.340   7.528   6.471
11005SOL     OW81853   9.688   6.038   0.538
11005SOL    HW181854   9.722   5.968   0.476
11005SOL    HW281855   9.736   6.031   0.626
11006SOL     OW81856  11.497  12.182   1.238
11006SOL    HW181857  11.403  12.151   1.222
11006SOL    HW281858  11.547  12.183   1.151
11007SOL     OW81859   7.529  15.940   7.854
11007SOL    HW181860   7.608  15.886   7.824
11007SOL    HW281861   7.458  15.938   7.783
11008SOL     OW81862   4.212  10.373   0.245
11008SOL    HW181863   4.133  10.355   0.304
11008SOL    HW281864   4.189  10.446   0.181
11009SOL     OW81865   3.413   3.961   1.872
11009SOL    HW181866   3.484   3.970   1.802
11009SOL    HW281867   3.439   3.889   1.937
11010SOL     OW81868  15.861   3.479   0.672
11010SOL    HW181869  15.923   3.406   0.640
11010SOL    HW281870  15.799   3.442   0.741
11011SOL     OW81871   5.680  11.425   6.628
11011SOL    HW181872   5.624  11.345   6.607
11011SOL    HW281873   5.756  11.430   6.562
11012SOL     OW81874   6.187   2.724   7.168
11012SOL    HW181875   6.126   2.709   7.246
11012SOL    HW281876   6.169   2.655   7.098
11013SOL     OW81877   5.972  11.287   8.355
11013SOL    HW181878   5.964  11.298   8.255
11013SOL    HW281879   6.069  11.295   8.381
11014SOL     OW81880  15.684   6.298   7.079
11014SOL    HW181881  15.682   6.397   7.092
11014SOL    HW281882  15.624   6.254   7.146
11015SOL     OW81883  16.198   9.417   2.222
11015SOL    HW181884  16.263   9.468   2.279
11015SOL    HW281885  16.142   9.358   2.280
11016SOL     OW81886  15.181  16.693   7.668
11016SOL    HW181887  15.209  16.635   7.592
11016SOL    HW281888  15.263  16.729   7.715
11017SOL     OW81889   4.227   5.501   1.926
11017SOL    HW181890   4.234   5.512   2.025
11017SOL    HW281891   4.130   5.495   1.900
11018SOL     OW81892   7.024   5.426   0.667
11018SOL    HW181893   7.107   5.408   0.719
11018SOL    HW281894   6.946   5.435   0.729
11019SOL     OW81895  10.701  15.303   1.891
11019SOL    HW181896  10.660  15.217   1.862
11019SOL    HW281897  10.651  15.339   1.969
11020SOL     OW81898  12.685   9.327   8.002
11020SOL    HW181899  12.728   9.267   7.935
11020SOL    HW281900  12.742   9.330   8.085
11021SOL     OW81901  12.569  15.814   7.957
11021SOL    HW181902  12.569  15.873   7.876
11021SOL    HW281903  12.508  15.736   7.941
11022SOL     OW81904   1.467   8.464   1.492
11022SOL    HW181905   1.563   8.490   1.504
11022SOL    HW281906   1.453   8.372   1.527
11023SOL     OW81907  14.849  16.035   7.865
11023SOL    HW181908  14.849  16.107   7.795
11023SOL    HW281909  14.931  15.978   7.855
11024SOL     OW81910   8.532   0.887   1.168
11024SOL    HW181911   8.461   0.835   1.215
11024SOL    HW281912   8.577   0.828   1.101
11025SOL     OW81913  16.365  11.815   1.935
11025SOL    HW181914  16.324  11.829   1.845
11025SOL    HW281915  16.457  11.854   1.937
11026SOL     OW81916  14.609   9.863   0.941
11026SOL    HW181917  14.662   9.788   0.902
11026SOL    HW281918  14.549   9.828   1.013
11027SOL     OW81919  12.633  15.332   7.541
11027SOL    HW181920  12.594  15.290   7.459
11027SOL    HW281921  12.709  15.392   7.514
11028SOL     OW81922   3.717   3.689   1.692
11028SOL    HW181923   3.745   3.740   1.610
11028SOL    HW281924   3.790   3.692   1.759
11029SOL     OW81925  13.060   3.362   8.380
11029SOL    HW181926  13.143   3.352   8.434
11029SOL    HW281927  13.065   3.305   8.298
11030SOL     OW81928  12.269  13.522   1.188
11030SOL    HW181929  12.329  13.475   1.123
11030SOL    HW281930  12.217  13.454   1.240
11031SOL     OW81931  12.363   2.723   7.850
11031SOL    HW181932  12.414   2.747   7.767
11031SOL    HW281933  12.265   2.738   7.835
11032SOL     OW81934   4.291   4.754   0.843
11032SOL    HW181935   4.218   4.813   0.879
11032SOL    HW281936   4.378   4.781   0.883
11033SOL     OW81937  11.478  10.011   0.401
11033SOL    HW181938  11.430  10.097   0.386
11033SOL    HW281939  11.467   9.952   0.322
11034SOL     OW81940   4.586  14.940   6.525
11034SOL    HW181941   4.664  14.877   6.519
11034SOL    HW281942   4.612  15.029   6.488
11035SOL     OW81943  10.661   4.304   8.102
11035SOL    HW181944  10.649   4.224   8.162
11035SOL    HW281945  10.580   4.362   8.109
11036SOL     OW81946  16.400  14.467   1.022
11036SOL    HW181947  16.316  14.481   0.970
11036SOL    HW281948  16.396  14.521   1.106
11037SOL     OW81949   2.116  14.746   1.677
11037SOL    HW181950   2.081  14.794   1.758
11037SOL    HW281951   2.189  14.684   1.704
11038SOL     OW81952  11.580  14.168   6.636
11038SOL    HW181953  11.559  14.169   6.538
11038SOL    HW281954  11.671  14.131   6.651
11039SOL     OW81955  16.372  15.739   0.757
11039SOL    HW181956  16.389  15.809   0.827
11039SOL    HW281957  16.353  15.783   0.670
11040SOL     OW81958   9.886   8.858   0.987
11040SOL    HW181959   9.915   8.793   1.058
11040SOL    HW281960   9.850   8.807   0.908
11041SOL     OW81961  13.386   7.106   6.342
11041SOL    HW181962  13.479   7.084   6.314
11041SOL    HW281963  13.335   7.141   6.263
11042SOL     OW81964  12.705  16.604   8.202
11042SOL    HW181965  12.685  16.583   8.106
11042SOL    HW281966  12.739  16.697   8.209
11043SOL     OW81967   4.656   0.607   8.268
11043SOL    HW181968   4.689   0.685   8.216
11043SOL    HW281969   4.574   0.633   8.319
11044SOL     OW81970   3.794  16.161   0.500
11044SOL    HW181971   3.711  16.124   0.544
11044SOL    HW281972   3.856  16.195   0.570
11045SOL     OW81973  15.117   3.368   7.813
11045SOL    HW181974  15.062   3.447   7.839
11045SOL    HW281975  15.111   3.355   7.714
11046SOL     OW81976   1.530  15.979   1.619
11046SOL    HW181977   1.452  16.028   1.657
11046SOL    HW281978   1.518  15.968   1.520
11047SOL     OW81979   4.289   1.696   8.254
11047SOL    HW181980   4.256   1.741   8.337
11047SOL    HW281981   4.247   1.738   8.174
11048SOL     OW81982   7.264  16.808   0.730
11048SOL    HW181983   7.309  16.723   0.702
11048SOL    HW281984   7.205  16.841   0.656
11049SOL     OW81985  14.999   9.020   7.517
11049SOL    HW181986  14.914   9.063   7.546
11049SOL    HW281987  14.989   8.921   7.519
11050SOL     OW81988   2.387   5.438   0.207
11050SOL    HW181989   2.290   5.424   0.223
11050SOL    HW281990   2.434   5.452   0.295
11051SOL     OW81991   3.929   8.640   1.774
11051SOL    HW181992   3.931   8.731   1.733
11051SOL    HW281993   3.881   8.577   1.712
11052SOL     OW81994  11.400  13.765   8.285
11052SOL    HW181995  11.488  13.812   8.288
11052SOL    HW281996  11.363  13.770   8.193
11053SOL     OW81997   9.064   7.721   6.042
11053SOL    HW181998   9.015   7.679   5.966
11053SOL    HW281999   9.103   7.809   6.013
11054SOL     OW82000  10.723   4.550   0.422
11054SOL    HW182001  10.737   4.525   0.327
11054SOL    HW282002  10.811   4.560   0.468
11055SOL     OW82003   1.409   4.488   7.441
11055SOL    HW182004   1.354   4.478   7.524
11055SOL    HW282005   1.348   4.499   7.362
11056SOL     OW82006   4.217  13.762   2.360
11056SOL    HW182007   4.244  13.823   2.434
11056SOL    HW282008   4.123  13.782   2.332
11057SOL     OW82009  13.031  15.790   6.743
11057SOL    HW182010  13.003  15.886   6.754
11057SOL    HW282011  13.076  15.779   6.655
11058SOL     OW82012   0.094  12.850   2.569
11058SOL    HW182013   0.028  12.780   2.597
11058SOL    HW282014   0.093  12.925   2.634
11059SOL     OW82015   6.362  12.492   7.083
11059SOL    HW182016   6.436  12.425   7.089
11059SOL    HW282017   6.307  12.473   7.002
11060SOL     OW82018   7.935   1.835   8.240
11060SOL    HW182019   7.987   1.788   8.169
11060SOL    HW282020   7.996   1.893   8.294
11061SOL     OW82021   4.040  12.376   8.405
11061SOL    HW182022   3.957  12.417   8.441
11061SOL    HW282023   4.071  12.303   0.012
11062SOL     OW82024  11.534  13.439   0.190
11062SOL    HW182025  11.492  13.456   0.101
11062SOL    HW282026  11.600  13.511   0.211
11063SOL     OW82027  15.736   9.332   6.510
11063SOL    HW182028  15.792   9.412   6.530
11063SOL    HW282029  15.791   9.265   6.459
11064SOL     OW82030   1.860   3.662   7.315
11064SOL    HW182031   1.792   3.721   7.271
11064SOL    HW282032   1.822   3.571   7.328
11065SOL     OW82033  11.449   2.071   1.386
11065SOL    HW182034  11.450   2.129   1.468
11065SOL    HW282035  11.409   2.122   1.310
11066SOL     OW82036   0.898  12.120   8.043
11066SOL    HW182037   0.938  12.078   8.124
11066SOL    HW282038   0.915  12.061   7.963
11067SOL     OW82039   2.276  10.988   7.643
11067SOL    HW182040   2.198  11.004   7.703
11067SOL    HW282041   2.256  11.023   7.552
11068SOL     OW82042  16.258   5.971   6.360
11068SOL    HW182043  16.287   5.991   6.454
11068SOL    HW282044  16.338   5.964   6.301
11069SOL     OW82045   1.875  16.057   8.029
11069SOL    HW182046   1.904  16.120   8.101
11069SOL    HW282047   1.929  15.973   8.034
11070SOL     OW82048   8.905   3.868   0.368
11070SOL    HW182049   8.819   3.883   0.320
11070SOL    HW282050   8.980   3.860   0.302
11071SOL     OW82051  11.948  15.520   7.251
11071SOL    HW182052  12.013  15.571   7.194
11071SOL    HW282053  11.859  15.566   7.249
11072SOL     OW82054   6.761  11.810   6.912
11072SOL    HW182055   6.780  11.764   6.999
11072SOL    HW282056   6.805  11.759   6.837
11073SOL     OW82057   7.152   0.420   7.487
11073SOL    HW182058   7.156   0.353   7.413
11073SOL    HW282059   7.135   0.372   7.574
11074SOL     OW82060  13.534  16.918   7.057
11074SOL    HW182061  13.518  16.819   7.051
11074SOL    HW282062  13.455  16.962   7.099
11075SOL     OW82063   3.576   4.915   6.931
11075SOL    HW182064   3.559   4.996   6.875
11075SOL    HW282065   3.658   4.929   6.985
11076SOL     OW82066  13.673  16.586   0.988
11076SOL    HW182067  13.730  16.565   1.067
11076SOL    HW282068  13.612  16.509   0.970
11077SOL     OW82069  11.821   0.684   6.641
11077SOL    HW182070  11.799   0.599   6.689
11077SOL    HW282071  11.893   0.732   6.690
11078SOL     OW82072  15.875  13.022   6.726
11078SOL    HW182073  15.889  12.934   6.681
11078SOL    HW282074  15.885  13.095   6.658
11079SOL     OW82075  10.667   7.448   8.049
11079SOL    HW182076  10.764   7.437   8.070
11079SOL    HW282077  10.623   7.359   8.043
11080SOL     OW82078   0.846  14.130   8.127
11080SOL    HW182079   0.796  14.096   8.207
11080SOL    HW282080   0.933  14.170   8.157
11081SOL     OW82081  13.899  12.901   0.571
11081SOL    HW182082  13.815  12.863   0.611
11081SOL    HW282083  13.935  12.972   0.631
11082SOL     OW82084   3.397   2.824   0.616
11082SOL    HW182085   3.355   2.887   0.550
11082SOL    HW282086   3.470   2.872   0.665
11083SOL     OW82087  16.500  14.192   1.046
11083SOL    HW182088  16.527  14.206   1.141
11083SOL    HW282089  16.442  14.268   1.017
11084SOL     OW82090   7.875   4.261   7.004
11084SOL    HW182091   7.851   4.259   7.102
11084SOL    HW282092   7.946   4.193   6.986
11085SOL     OW82093   2.486  14.245   7.583
11085SOL    HW182094   2.486  14.329   7.529
11085SOL    HW282095   2.446  14.171   7.529
11086SOL     OW82096   3.104  14.972   8.358
11086SOL    HW182097   3.010  14.966   8.324
11086SOL    HW282098   3.103  14.985   0.003
11087SOL     OW82099   5.498   8.604   0.761
11087SOL    HW182100   5.415   8.600   0.706
11087SOL    HW282101   5.535   8.697   0.759
11088SOL     OW82102  10.305   3.933   0.677
11088SOL    HW182103  10.352   3.868   0.736
11088SOL    HW282104  10.207   3.917   0.681
11089SOL     OW82105   0.619  10.495   0.642
11089SOL    HW182106   0.587  10.570   0.584
11089SOL    HW282107   0.552  10.480   0.715
11090SOL     OW82108   6.378  15.338   2.185
11090SOL    HW182109   6.468  15.380   2.199
11090SOL    HW282110   6.344  15.302   2.272
11091SOL     OW82111   8.340   3.254   7.778
11091SOL    HW182112   8.400   3.190   7.730
11091SOL    HW282113   8.337   3.340   7.727
11092SOL     OW82114  16.790  10.120   7.186
11092SOL    HW182115  16.804  10.031   7.145
11092SOL    HW282116  16.850  10.187   7.142
11093SOL     OW82117   4.028  16.846   0.812
11093SOL    HW182118   3.929  16.851   0.820
11093SOL    HW282119   4.059  16.914   0.745
11094SOL     OW82120   7.373   2.912   6.879
11094SOL    HW182121   7.457   2.871   6.842
11094SOL    HW282122   7.311   2.936   6.805
11095SOL     OW82123   7.256   1.279   6.621
11095SOL    HW182124   7.305   1.275   6.534
11095SOL    HW282125   7.318   1.312   6.692
11096SOL     OW82126   3.141   6.032   8.070
11096SOL    HW182127   3.066   5.967   8.067
11096SOL    HW282128   3.181   6.032   8.162
11097SOL     OW82129   0.796   2.384   0.609
11097SOL    HW182130   0.778   2.412   0.515
11097SOL    HW282131   0.863   2.310   0.610
11098SOL     OW82132   4.240   6.369   7.659
11098SOL    HW182133   4.167   6.425   7.622
11098SOL    HW282134   4.313   6.428   7.694
11099SOL     OW82135  12.278   6.291   6.778
11099SOL    HW182136  12.296   6.256   6.870
11099SOL    HW282137  12.359   6.277   6.721
11100SOL     OW82138   7.886   1.494   7.994
11100SOL    HW182139   7.945   1.570   8.022
11100SOL    HW282140   7.805   1.491   8.052
11101SOL     OW82141   5.873   0.948   0.030
11101SOL    HW182142   5.833   0.969   0.119
11101SOL    HW282143   5.879   1.032   8.429
11102SOL     OW82144  14.987  15.208   1.142
11102SOL    HW182145  14.933  15.183   1.222
11102SOL    HW282146  14.926  15.233   1.067
11103SOL     OW82147  12.696   7.961   6.835
11103SOL    HW182148  12.648   8.009   6.909
11103SOL    HW282149  12.630   7.939   6.763
11104SOL     OW82150   1.271  13.756   2.011
11104SOL    HW182151   1.278  13.832   1.947
11104SOL    HW282152   1.176  13.744   2.040
11105SOL     OW82153   9.269   4.569   0.738
11105SOL    HW182154   9.312   4.479   0.727
11105SOL    HW282155   9.275   4.598   0.833
11106SOL     OW82156   4.220   1.340   7.787
11106SOL    HW182157   4.246   1.403   7.714
11106SOL    HW282158   4.129   1.364   7.820
11107SOL     OW82159   8.049   4.481   7.546
11107SOL    HW182160   8.100   4.399   7.570
11107SOL    HW282161   7.979   4.458   7.478
11108SOL     OW82162   4.403   7.652   0.608
11108SOL    HW182163   4.451   7.739   0.594
11108SOL    HW282164   4.306   7.670   0.623
11109SOL     OW82165   1.042   4.547   1.249
11109SOL    HW182166   1.017   4.635   1.211
11109SOL    HW282167   0.977   4.520   1.320
11110SOL     OW82168  16.358   4.091   6.488
11110SOL    HW182169  16.354   3.998   6.452
11110SOL    HW282170  16.344   4.157   6.413
11111SOL     OW82171   7.001  10.185   7.076
11111SOL    HW182172   7.090  10.165   7.117
11111SOL    HW282173   6.971  10.107   7.022
11112SOL     OW82174  12.528   7.376   8.360
11112SOL    HW182175  12.623   7.375   8.393
11112SOL    HW282176  12.503   7.470   8.335
11113SOL     OW82177  12.591   7.457   1.506
11113SOL    HW182178  12.575   7.363   1.539
11113SOL    HW282179  12.591   7.519   1.584
11114SOL     OW82180  14.568   6.126   6.153
11114SOL    HW182181  14.567   6.035   6.110
11114SOL    HW282182  14.477   6.167   6.144
11115SOL     OW82183  12.004   2.736   1.017
11115SOL    HW182184  11.974   2.641   1.022
11115SOL    HW282185  11.927   2.795   0.995
11116SOL     OW82186  12.632   4.971   0.673
11116SOL    HW182187  12.636   4.887   0.725
11116SOL    HW282188  12.599   5.045   0.731
11117SOL     OW82189   9.640   4.826   0.842
11117SOL    HW182190   9.690   4.835   0.756
11117SOL    HW282191   9.546   4.795   0.823
11118SOL     OW82192  14.069   6.377   1.776
11118SOL    HW182193  14.019   6.374   1.863
11118SOL    HW282194  14.156   6.329   1.786
11119SOL     OW82195   6.834  13.863   8.066
11119SOL    HW182196   6.846  13.777   8.115
11119SOL    HW282197   6.795  13.932   8.127
11120SOL     OW82198   9.089   0.629   7.041
11120SOL    HW182199   9.146   0.556   7.079
11120SOL    HW282200   9.051   0.683   7.116
11121SOL     OW82201  16.096  10.737   0.050
11121SOL    HW182202  16.189  10.731   0.086
11121SOL    HW282203  16.032  10.698   0.116
11122SOL     OW82204   9.895  16.155   0.017
11122SOL    HW182205   9.945  16.069   0.009
11122SOL    HW282206   9.797  16.136   0.018
11123SOL     OW82207  12.374   8.487   1.171
11123SOL    HW182208  12.466   8.468   1.205
11123SOL    HW282209  12.316   8.407   1.183
11124SOL     OW82210   1.490   9.330   0.704
11124SOL    HW182211   1.491   9.421   0.661
11124SOL    HW282212   1.435   9.334   0.787
11125SOL     OW82213   4.013   8.610   1.044
11125SOL    HW182214   3.998   8.630   0.947
11125SOL    HW282215   4.079   8.676   1.081
11126SOL     OW82216  13.111   4.025   8.402
11126SOL    HW182217  13.151   4.017   0.039
11126SOL    HW282218  13.129   3.941   8.350
11127SOL     OW82219   5.310   7.324   1.540
11127SOL    HW182220   5.229   7.271   1.567
11127SOL    HW282221   5.389   7.263   1.537
11128SOL     OW82222   3.764   6.563   1.610
11128SOL    HW182223   3.811   6.651   1.624
11128SOL    HW282224   3.665   6.576   1.621
11129SOL     OW82225   0.053   1.262   2.281
11129SOL    HW182226   0.127   1.195   2.285
11129SOL    HW282227  16.976   1.250   2.359
11130SOL     OW82228   9.724   5.236   1.822
11130SOL    HW182229   9.822   5.226   1.839
11130SOL    HW282230   9.695   5.330   1.839
11131SOL     OW82231  14.861  12.129   8.186
11131SOL    HW182232  14.870  12.228   8.192
11131SOL    HW282233  14.924  12.093   8.117
11132SOL     OW82234   5.291  15.089   0.273
11132SOL    HW182235   5.267  15.079   0.370
11132SOL    HW282236   5.390  15.105   0.266
11133SOL     OW82237  13.006  13.009   7.364
11133SOL    HW182238  13.073  12.955   7.314
11133SOL    HW282239  13.050  13.090   7.402
11134SOL     OW82240   7.611   6.974   0.669
11134SOL    HW182241   7.604   6.892   0.611
11134SOL    HW282242   7.561   6.959   0.754
11135SOL     OW82243  10.259  14.334   1.441
11135SOL    HW182244  10.310  14.300   1.520
11135SOL    HW282245  10.305  14.414   1.404
11136SOL     OW82246   5.591   9.002   6.233
11136SOL    HW182247   5.603   8.921   6.290
11136SOL    HW282248   5.513   8.987   6.171
11137SOL     OW82249   3.180  10.564   7.421
11137SOL    HW182250   3.162  10.484   7.478
11137SOL    HW282251   3.147  10.547   7.328
11138SOL     OW82252   6.087  10.654   0.193
11138SOL    HW182253   6.007  10.712   0.178
11138SOL    HW282254   6.170  10.709   0.184
11139SOL     OW82255   7.971   8.841   0.267
11139SOL    HW182256   7.960   8.746   0.238
11139SOL    HW282257   8.059   8.852   0.313
11140SOL     OW82258  15.319  10.510   1.923
11140SOL    HW182259  15.354  10.589   1.972
11140SOL    HW282260  15.369  10.428   1.952
11141SOL     OW82261  15.834   6.286   6.630
11141SOL    HW182262  15.856   6.208   6.689
11141SOL    HW282263  15.909   6.352   6.633
11142SOL     OW82264   5.712  13.814   7.322
11142SOL    HW182265   5.772  13.782   7.248
11142SOL    HW282266   5.623  13.769   7.314
11143SOL     OW82267  12.931   8.753   1.897
11143SOL    HW182268  12.979   8.830   1.855
11143SOL    HW282269  12.995   8.696   1.948
11144SOL     OW82270   3.313   9.876   0.786
11144SOL    HW182271   3.218   9.885   0.814
11144SOL    HW282272   3.334   9.779   0.769
11145SOL     OW82273  11.966   8.844   0.771
11145SOL    HW182274  12.012   8.786   0.838
11145SOL    HW282275  11.935   8.928   0.817
11146SOL     OW82276   1.247   1.870   8.451
11146SOL    HW182277   1.157   1.840   0.030
11146SOL    HW282278   1.289   1.929   0.065
11147SOL     OW82279   6.831  10.243   2.129
11147SOL    HW182280   6.771  10.206   2.200
11147SOL    HW282281   6.905  10.178   2.111
11148SOL     OW82282  15.674  11.693   7.479
11148SOL    HW182283  15.639  11.772   7.530
11148SOL    HW282284  15.612  11.615   7.492
11149SOL     OW82285  11.828   6.736   7.517
11149SOL    HW182286  11.758   6.731   7.589
11149SOL    HW282287  11.858   6.831   7.507
11150SOL     OW82288  11.856   9.469   8.067
11150SOL    HW182289  11.758   9.486   8.058
11150SOL    HW282290  11.906   9.548   8.031
11151SOL     OW82291   6.692  13.467   7.080
11151SOL    HW182292   6.720  13.548   7.131
11151SOL    HW282293   6.693  13.387   7.140
11152SOL     OW82294  13.239  12.110   1.750
11152SOL    HW182295  13.154  12.108   1.697
11152SOL    HW282296  13.239  12.190   1.810
11153SOL     OW82297  11.304  12.276   8.345
11153SOL    HW182298  11.313  12.236   8.254
11153SOL    HW282299  11.207  12.292   8.365
11154SOL     OW82300  10.733   4.613   8.396
11154SOL    HW182301  10.761   4.708   8.409
11154SOL    HW282302  10.784   4.574   8.319
11155SOL     OW82303   1.908  15.518   0.597
11155SOL    HW182304   1.935  15.613   0.609
11155SOL    HW282305   1.814  15.513   0.563
11156SOL     OW82306  16.171   1.987   0.317
11156SOL    HW182307  16.118   1.911   0.280
11156SOL    HW282308  16.161   2.067   0.258
11157SOL     OW82309  16.869  13.835   0.859
11157SOL    HW182310  16.969  13.831   0.865
11157SOL    HW282311  16.843  13.894   0.783
11158SOL     OW82312  11.847  10.587   1.007
11158SOL    HW182313  11.919  10.650   0.978
11158SOL    HW282314  11.803  10.547   0.926
11159SOL     OW82315  13.964  11.593   0.725
11159SOL    HW182316  13.890  11.527   0.734
11159SOL    HW282317  13.941  11.677   0.774
11160SOL     OW82318   6.604   5.780   8.206
11160SOL    HW182319   6.550   5.834   8.270
11160SOL    HW282320   6.621   5.834   8.123
11161SOL     OW82321   6.776  11.078   7.739
11161SOL    HW182322   6.822  11.128   7.813
11161SOL    HW282323   6.679  11.102   7.739
11162SOL     OW82324   4.524   3.681   1.176
11162SOL    HW182325   4.598   3.679   1.109
11162SOL    HW282326   4.562   3.692   1.268
11163SOL     OW82327  15.092  16.007   7.452
11163SOL    HW182328  15.026  15.979   7.382
11163SOL    HW282329  15.122  15.927   7.504
11164SOL     OW82330   2.450  14.447   2.053
11164SOL    HW182331   2.428  14.419   2.146
11164SOL    HW282332   2.514  14.381   2.013
11165SOL     OW82333  11.915  12.487   1.548
11165SOL    HW182334  11.983  12.520   1.614
11165SOL    HW282335  11.907  12.553   1.473
11166SOL     OW82336  15.831   1.175   8.282
11166SOL    HW182337  15.882   1.255   8.312
11166SOL    HW282338  15.882   1.127   8.210
11167SOL     OW82339  15.562  12.692   0.565
11167SOL    HW182340  15.534  12.755   0.638
11167SOL    HW282341  15.497  12.616   0.560
11168SOL     OW82342   1.098  15.888   7.488
11168SOL    HW182343   1.082  15.818   7.558
11168SOL    HW282344   1.095  15.979   7.531
11169SOL     OW82345   5.675   7.609   7.279
11169SOL    HW182346   5.664   7.573   7.372
11169SOL    HW282347   5.696   7.706   7.283
11170SOL     OW82348   1.688   5.779   6.653
11170SOL    HW182349   1.684   5.728   6.567
11170SOL    HW282350   1.657   5.872   6.639
11171SOL     OW82351  12.264  12.196   7.088
11171SOL    HW182352  12.327  12.253   7.035
11171SOL    HW282353  12.314  12.119   7.127
11172SOL     OW82354   4.335  15.935   1.081
11172SOL    HW182355   4.386  15.873   1.022
11172SOL    HW282356   4.371  16.028   1.071
11173SOL     OW82357  10.043   2.564   7.906
11173SOL    HW182358  10.121   2.594   7.960
11173SOL    HW282359   9.962   2.618   7.931
11174SOL     OW82360   5.082  11.289   1.457
11174SOL    HW182361   4.992  11.333   1.455
11174SOL    HW282362   5.099  11.252   1.549
11175SOL     OW82363   7.241  13.036   8.197
11175SOL    HW182364   7.282  13.094   8.268
11175SOL    HW282365   7.159  13.080   8.161
11176SOL     OW82366  15.310  15.712   6.879
11176SOL    HW182367  15.218  15.673   6.886
11176SOL    HW282368  15.378  15.638   6.883
11177SOL     OW82369   1.453   2.059   0.616
11177SOL    HW182370   1.402   2.144   0.629
11177SOL    HW282371   1.542   2.079   0.576
11178SOL     OW82372   9.584  10.866   0.846
11178SOL    HW182373   9.624  10.955   0.821
11178SOL    HW282374   9.604  10.847   0.942
11179SOL     OW82375  13.723   0.674   1.165
11179SOL    HW182376  13.686   0.584   1.138
11179SOL    HW282377  13.822   0.670   1.166
11180SOL     OW82378   7.926   4.785   6.140
11180SOL    HW182379   7.866   4.719   6.185
11180SOL    HW282380   7.876   4.831   6.067
11181SOL     OW82381   2.623  14.263   1.938
11181SOL    HW182382   2.656  14.293   1.848
11181SOL    HW282383   2.621  14.163   1.940
11182SOL     OW82384  11.329  12.691   1.799
11182SOL    HW182385  11.308  12.635   1.879
11182SOL    HW282386  11.246  12.703   1.744
11183SOL     OW82387  12.492   5.302   7.584
11183SOL    HW182388  12.563   5.271   7.521
11183SOL    HW282389  12.452   5.223   7.631
11184SOL     OW82390   6.495  16.973   1.457
11184SOL    HW182391   6.570  16.955   1.393
11184SOL    HW282392   6.512  16.926   1.543
11185SOL     OW82393   0.729   6.394   8.450
11185SOL    HW182394   0.815   6.421   0.039
11185SOL    HW282395   0.706   6.460   8.378
11186SOL     OW82396   7.582  16.294   1.586
11186SOL    HW182397   7.539  16.312   1.674
11186SOL    HW282398   7.524  16.329   1.512
11187SOL     OW82399  16.444   2.595   7.262
11187SOL    HW182400  16.466   2.562   7.353
11187SOL    HW282401  16.346   2.613   7.256
11188SOL     OW82402  14.332   2.541   5.924
11188SOL    HW182403  14.358   2.631   5.890
11188SOL    HW282404  14.330   2.476   5.848
11189SOL     OW82405   1.329   9.749   0.050
11189SOL    HW182406   1.232   9.771   0.057
11189SOL    HW282407   1.370   9.802   8.429
11190SOL     OW82408   4.436   0.191   7.561
11190SOL    HW182409   4.411   0.184   7.464
11190SOL    HW282410   4.354   0.183   7.618
11191SOL     OW82411   0.909  11.477   7.537
11191SOL    HW182412   0.992  11.447   7.492
11191SOL    HW282413   0.841  11.503   7.469
11192SOL     OW82414   9.228   9.421   0.498
11192SOL    HW182415   9.208   9.517   0.519
11192SOL    HW282416   9.202   9.364   0.576
11193SOL     OW82417   5.495   7.423   8.216
11193SOL    HW182418   5.559   7.492   8.250
11193SOL    HW282419   5.522   7.333   8.250
11194SOL     OW82420   7.181  11.035   7.366
11194SOL    HW182421   7.095  11.031   7.418
11194SOL    HW282422   7.247  11.090   7.417
11195SOL     OW82423   5.626   0.406   6.786
11195SOL    HW182424   5.706   0.390   6.728
11195SOL    HW282425   5.574   0.484   6.752
11196SOL     OW82426   6.189  10.794   7.848
11196SOL    HW182427   6.130  10.874   7.830
11196SOL    HW282428   6.282  10.815   7.819
11197SOL     OW82429  12.031   2.018   8.296
11197SOL    HW182430  11.935   1.990   8.301
11197SOL    HW282431  12.045   2.077   8.217
11198SOL     OW82432  16.335   8.030   0.451
11198SOL    HW182433  16.286   8.077   0.377
11198SOL    HW282434  16.269   7.981   0.508
11199SOL     OW82435   6.338  11.995   1.549
11199SOL    HW182436   6.294  12.056   1.483
11199SOL    HW282437   6.378  12.049   1.623
11200SOL     OW82438  16.072   6.547   6.153
11200SOL    HW182439  16.003   6.545   6.081
11200SOL    HW282440  16.162   6.564   6.112
11201SOL     OW82441  13.205   1.564   1.404
11201SOL    HW182442  13.169   1.656   1.386
11201SOL    HW282443  13.295   1.571   1.448
11202SOL     OW82444  13.230  12.583   7.181
11202SOL    HW182445  13.169  12.540   7.114
11202SOL    HW282446  13.212  12.545   7.272
11203SOL     OW82447   1.684   7.893   0.112
11203SOL    HW182448   1.739   7.937   0.183
11203SOL    HW282449   1.646   7.963   0.052
11204SOL     OW82450  15.729  14.300   0.740
11204SOL    HW182451  15.741  14.394   0.706
11204SOL    HW282452  15.786  14.286   0.821
11205SOL     OW82453   3.806   8.815   7.583
11205SOL    HW182454   3.865   8.760   7.524
11205SOL    HW282455   3.799   8.771   7.673
11206SOL     OW82456  12.921  12.304   7.339
11206SOL    HW182457  12.983  12.368   7.295
11206SOL    HW282458  12.937  12.305   7.438
11207SOL     OW82459  13.505   0.084   0.787
11207SOL    HW182460  13.441   0.101   0.863
11207SOL    HW282461  13.566   0.009   0.811
11208SOL     OW82462   7.506   2.062   0.994
11208SOL    HW182463   7.589   2.074   1.050
11208SOL    HW282464   7.453   1.985   1.030
11209SOL     OW82465   4.525   0.589   0.827
11209SOL    HW182466   4.525   0.590   0.727
11209SOL    HW282467   4.524   0.494   0.859
11210SOL     OW82468   0.122   5.722   1.012
11210SOL    HW182469   0.102   5.782   0.935
11210SOL    HW282470   0.219   5.731   1.036
11211SOL     OW82471   1.172   5.432   0.669
11211SOL    HW182472   1.144   5.365   0.738
11211SOL    HW282473   1.135   5.405   0.580
11212SOL     OW82474  15.598   2.022   1.013
11212SOL    HW182475  15.694   2.049   1.019
11212SOL    HW282476  15.540   2.097   1.043
11213SOL     OW82477  14.424   0.061   0.408
11213SOL    HW182478  14.428   0.121   0.487
11213SOL    HW282479  14.366   0.102   0.337
11214SOL     OW82480   6.543  15.116   7.846
11214SOL    HW182481   6.639  15.144   7.851
11214SOL    HW282482   6.504  15.148   7.759
11215SOL     OW82483   8.115  12.594   8.300
11215SOL    HW182484   8.133  12.515   8.358
11215SOL    HW282485   8.098  12.563   8.206
11216SOL     OW82486  15.356  13.842   1.561
11216SOL    HW182487  15.431  13.904   1.539
11216SOL    HW282488  15.383  13.781   1.635
11217SOL     OW82489   4.357   2.226   2.195
11217SOL    HW182490   4.268   2.271   2.190
11217SOL    HW282491   4.391   2.230   2.289
11218SOL     OW82492   0.192  16.631   6.984
11218SOL    HW182493   0.257  16.700   6.952
11218SOL    HW282494   0.195  16.551   6.924
11219SOL     OW82495  13.679  12.018   8.396
11219SOL    HW182496  13.626  11.975   0.016
11219SOL    HW282497  13.678  11.958   8.316
11220SOL     OW82498   6.754   7.547   8.308
11220SOL    HW182499   6.741   7.587   8.218
11220SOL    HW282500   6.708   7.603   8.377
11221SOL     OW82501   0.473  12.449   0.366
11221SOL    HW182502   0.476  12.513   0.289
11221SOL    HW282503   0.382  12.407   0.371
11222SOL     OW82504   7.217   9.353   0.037
11222SOL    HW182505   7.228   9.452   0.031
11222SOL    HW282506   7.227   9.313   8.400
11223SOL     OW82507   3.157   4.858   8.436
11223SOL    HW182508   3.157   4.922   8.358
11223SOL    HW282509   3.114   4.772   8.408
11224SOL     OW82510   0.238   5.587   8.297
11224SOL    HW182511   0.284   5.517   8.352
11224SOL    HW282512   0.141   5.564   8.288
11225SOL     OW82513   7.019  15.235   1.536
11225SOL    HW182514   6.977  15.183   1.611
11225SOL    HW282515   7.118  15.238   1.549
11226SOL     OW82516   1.484  14.408   2.079
11226SOL    HW182517   1.579  14.375   2.078
11226SOL    HW282518   1.444  14.393   2.169
11227SOL     OW82519  14.857  15.977   1.365
11227SOL    HW182520  14.927  16.049   1.369
11227SOL    HW282521  14.878  15.914   1.290
11228SOL     OW82522  14.395   3.727   7.718
11228SOL    HW182523  14.351   3.733   7.629
11228SOL    HW282524  14.404   3.819   7.757
11229SOL     OW82525  12.008   6.234   1.314
11229SOL    HW182526  12.095   6.186   1.317
11229SOL    HW282527  12.017   6.317   1.259
11230SOL     OW82528  15.608  14.315   2.004
11230SOL    HW182529  15.574  14.288   2.094
11230SOL    HW282530  15.613  14.415   1.999
11231SOL     OW82531  16.064   9.583   0.374
11231SOL    HW182532  16.030   9.651   0.439
11231SOL    HW282533  16.069   9.623   0.282
11232SOL     OW82534   9.725   7.857   7.336
11232SOL    HW182535   9.698   7.904   7.420
11232SOL    HW282536   9.644   7.825   7.288
11233SOL     OW82537  13.059  14.177   0.503
11233SOL    HW182538  13.052  14.276   0.490
11233SOL    HW282539  12.982  14.144   0.557
11234SOL     OW82540   0.031  14.428   6.500
11234SOL    HW182541   0.074  14.360   6.440
11234SOL    HW282542  16.924  14.396   6.528
11235SOL     OW82543   7.127  14.209   1.061
11235SOL    HW182544   7.208  14.265   1.077
11235SOL    HW282545   7.079  14.193   1.147
11236SOL     OW82546  14.733   0.478   1.966
11236SOL    HW182547  14.644   0.473   1.921
11236SOL    HW282548  14.738   0.407   2.037
11237SOL     OW82549   5.518  13.641   7.179
11237SOL    HW182550   5.586  13.583   7.135
11237SOL    HW282551   5.495  13.718   7.118
11238SOL     OW82552  12.855   1.365   7.236
11238SOL    HW182553  12.799   1.443   7.266
11238SOL    HW282554  12.815   1.280   7.269
11239SOL     OW82555   7.372   4.604   0.323
11239SOL    HW182556   7.450   4.635   0.269
11239SOL    HW282557   7.405   4.565   0.410
11240SOL     OW82558   5.780   5.274   7.844
11240SOL    HW182559   5.836   5.219   7.781
11240SOL    HW282560   5.696   5.224   7.864
11241SOL     OW82561  15.616  14.094   0.288
11241SOL    HW182562  15.675  14.103   0.369
11241SOL    HW282563  15.541  14.031   0.309
11242SOL     OW82564   9.763   1.197   7.707
11242SOL    HW182565   9.706   1.179   7.627
11242SOL    HW282566   9.790   1.294   7.707
11243SOL     OW82567  10.175   4.290   6.045
11243SOL    HW182568  10.273   4.275   6.029
11243SOL    HW282569  10.123   4.215   6.005
11244SOL     OW82570  15.569  11.195   6.456
11244SOL    HW182571  15.655  11.152   6.428
11244SOL    HW282572  15.503  11.190   6.381
11245SOL     OW82573   1.098   9.310   7.370
11245SOL    HW182574   1.145   9.265   7.294
11245SOL    HW282575   1.148   9.292   7.455
11246SOL     OW82576   4.680  12.343   7.822
11246SOL    HW182577   4.642  12.346   7.914
11246SOL    HW282578   4.678  12.248   7.788
11247SOL     OW82579  14.475   9.691   1.120
11247SOL    HW182580  14.552   9.661   1.177
11247SOL    HW282581  14.456   9.622   1.050
11248SOL     OW82582   1.729   3.644   8.292
11248SOL    HW182583   1.750   3.584   8.214
11248SOL    HW282584   1.741   3.739   8.265
11249SOL     OW82585  12.015  14.886   6.998
11249SOL    HW182586  12.019  14.984   6.975
11249SOL    HW282587  11.989  14.834   6.917
11250SOL     OW82588  13.353  12.104   7.058
11250SOL    HW182589  13.347  12.191   7.010
11250SOL    HW282590  13.315  12.114   7.150
11251SOL     OW82591   2.603   2.924   0.615
11251SOL    HW182592   2.521   2.884   0.656
11251SOL    HW282593   2.578   2.971   0.530
11252SOL     OW82594  16.642   2.226   0.195
11252SOL    HW182595  16.581   2.198   0.269
11252SOL    HW282596  16.727   2.174   0.201
11253SOL     OW82597  12.530   4.668   0.324
11253SOL    HW182598  12.478   4.691   0.242
11253SOL    HW282599  12.589   4.744   0.350
11254SOL     OW82600   1.860   5.108   7.562
11254SOL    HW182601   1.873   5.011   7.540
11254SOL    HW282602   1.835   5.117   7.659
11255SOL     OW82603  10.029   3.074   1.374
11255SOL    HW182604   9.947   3.100   1.425
11255SOL    HW282605  10.099   3.043   1.438
11256SOL     OW82606  11.882  12.830   2.236
11256SOL    HW182607  11.830  12.755   2.276
11256SOL    HW282608  11.827  12.913   2.237
11257SOL     OW82609  15.326   9.359   8.098
11257SOL    HW182610  15.353   9.455   8.091
11257SOL    HW282611  15.242   9.352   8.152
11258SOL     OW82612  11.565   0.949   7.560
11258SOL    HW182613  11.595   1.020   7.623
11258SOL    HW282614  11.515   0.991   7.484
11259SOL     OW82615  13.875   3.283   1.350
11259SOL    HW182616  13.852   3.290   1.253
11259SOL    HW282617  13.791   3.282   1.404
11260SOL     OW82618   7.024  15.283   7.078
11260SOL    HW182619   7.107  15.319   7.121
11260SOL    HW282620   7.044  15.196   7.033
11261SOL     OW82621   7.613   5.089   1.127
11261SOL    HW182622   7.697   5.054   1.169
11261SOL    HW282623   7.606   5.187   1.145
11262SOL     OW82624   1.888  13.527   0.452
11262SOL    HW182625   1.929  13.469   0.382
11262SOL    HW282626   1.797  13.491   0.475
11263SOL     OW82627   3.351  11.588   1.633
11263SOL    HW182628   3.409  11.607   1.554
11263SOL    HW282629   3.392  11.514   1.687
11264SOL     OW82630   4.278   3.745   6.767
11264SOL    HW182631   4.369   3.714   6.741
11264SOL    HW282632   4.263   3.727   6.864
11265SOL     OW82633   5.206   2.626   7.085
11265SOL    HW182634   5.144   2.552   7.056
11265SOL    HW282635   5.199   2.702   7.021
11266SOL     OW82636   6.613   8.657   0.017
11266SOL    HW182637   6.525   8.609   0.016
11266SOL    HW282638   6.598   8.755   0.003
11267SOL     OW82639  16.767   3.937   0.886
11267SOL    HW182640  16.676   3.958   0.922
11267SOL    HW282641  16.764   3.849   0.840
11268SOL     OW82642  14.381   9.047   1.607
11268SOL    HW182643  14.411   9.071   1.700
11268SOL    HW282644  14.445   9.086   1.541
11269SOL     OW82645  12.773   9.190   6.469
11269SOL    HW182646  12.789   9.092   6.485
11269SOL    HW282647  12.826   9.221   6.391
11270SOL     OW82648  14.279  16.223   1.466
11270SOL    HW182649  14.271  16.322   1.471
11270SOL    HW282650  14.362  16.194   1.514
11271SOL     OW82651  14.260  16.934   1.619
11271SOL    HW182652  14.234  16.928   1.715
11271SOL    HW282653  14.267   0.047   1.592
11272SOL     OW82654  12.194   1.326   1.532
11272SOL    HW182655  12.106   1.358   1.497
11272SOL    HW282656  12.203   1.350   1.628
11273SOL     OW82657  14.974   5.377   0.393
11273SOL    HW182658  14.972   5.459   0.336
11273SOL    HW282659  15.068   5.355   0.417
11274SOL     OW82660   9.802  11.171   7.303
11274SOL    HW182661   9.726  11.106   7.300
11274SOL    HW282662   9.868  11.142   7.373
11275SOL     OW82663   9.259   9.251   8.149
11275SOL    HW182664   9.214   9.308   8.081
11275SOL    HW282665   9.281   9.306   8.230
11276SOL     OW82666  12.739  16.899   8.450
11276SOL    HW182667  12.671  16.970   8.436
11276SOL    HW282668  12.728  16.859   0.087
11277SOL     OW82669  16.636  15.572   0.039
11277SOL    HW182670  16.674  15.644   8.434
11277SOL    HW282671  16.679  15.485   0.017
11278SOL     OW82672   6.901   8.522   6.709
11278SOL    HW182673   6.979   8.513   6.647
11278SOL    HW282674   6.825   8.466   6.676
11279SOL     OW82675  11.326   6.502   8.447
11279SOL    HW182676  11.379   6.481   0.075
11279SOL    HW282677  11.381   6.557   8.385
11280SOL     OW82678   6.607   1.128   6.788
11280SOL    HW182679   6.571   1.104   6.698
11280SOL    HW282680   6.620   1.227   6.794
11281SOL     OW82681  15.736  13.778   0.324
11281SOL    HW182682  15.734  13.806   0.420
11281SOL    HW282683  15.647  13.741   0.298
11282SOL     OW82684  14.185   7.160   1.344
11282SOL    HW182685  14.282   7.153   1.321
11282SOL    HW282686  14.164   7.254   1.374
11283SOL     OW82687   0.354   9.450   1.596
11283SOL    HW182688   0.347   9.368   1.540
11283SOL    HW282689   0.262   9.478   1.626
11284SOL     OW82690   6.168   6.645   0.825
11284SOL    HW182691   6.107   6.618   0.751
11284SOL    HW282692   6.117   6.699   0.892
11285SOL     OW82693  11.174  12.712   2.202
11285SOL    HW182694  11.127  12.688   2.286
11285SOL    HW282695  11.123  12.783   2.154
11286SOL     OW82696   7.281  12.803   1.281
11286SOL    HW182697   7.268  12.821   1.184
11286SOL    HW282698   7.296  12.889   1.329
11287SOL     OW82699   5.076   2.411   7.355
11287SOL    HW182700   5.075   2.316   7.324
11287SOL    HW282701   5.160   2.428   7.406
11288SOL     OW82702   8.633   7.851   7.146
11288SOL    HW182703   8.537   7.839   7.173
11288SOL    HW282704   8.686   7.773   7.179
11289SOL     OW82705  15.221   4.720   7.441
11289SOL    HW182706  15.127   4.686   7.434
11289SOL    HW282707  15.256   4.706   7.533
11290SOL     OW82708   8.000   3.753   0.700
11290SOL    HW182709   8.066   3.709   0.639
11290SOL    HW282710   7.935   3.686   0.733
11291SOL     OW82711  16.225   8.830   6.672
11291SOL    HW182712  16.260   8.825   6.578
11291SOL    HW282713  16.234   8.924   6.706
11292SOL     OW82714  13.826   9.364   6.135
11292SOL    HW182715  13.758   9.431   6.163
11292SOL    HW282716  13.789   9.272   6.146
11293SOL     OW82717  14.281  11.222   2.895
11293SOL    HW182718  14.345  11.181   2.959
11293SOL    HW282719  14.262  11.316   2.921
11294SOL     OW82720   7.690   5.070   0.057
11294SOL    HW182721   7.601   5.051   0.099
11294SOL    HW282722   7.706   5.006   8.436
11295SOL     OW82723   0.780   1.241   8.150
11295SOL    HW182724   0.682   1.238   8.170
11295SOL    HW282725   0.802   1.171   8.081
11296SOL     OW82726   4.476   3.468   7.435
11296SOL    HW182727   4.571   3.439   7.428
11296SOL    HW282728   4.471   3.568   7.430
11297SOL     OW82729   8.921   2.334   1.437
11297SOL    HW182730   8.953   2.416   1.485
11297SOL    HW282731   8.873   2.360   1.353
11298SOL     OW82732   5.341  11.058   1.163
11298SOL    HW182733   5.241  11.058   1.173
11298SOL    HW282734   5.367  10.995   1.090
11299SOL     OW82735   6.067   0.758   0.028
11299SOL    HW182736   6.031   0.669   0.054
11299SOL    HW282737   5.995   0.827   0.032
11300SOL     OW82738  11.453   8.522   8.290
11300SOL    HW182739  11.362   8.486   8.313
11300SOL    HW282740  11.463   8.525   8.191
11301SOL     OW82741   9.191  11.760   6.786
11301SOL    HW182742   9.289  11.745   6.782
11301SOL    HW282743   9.149  11.733   6.700
11302SOL     OW82744  10.238   0.008   0.818
11302SOL    HW182745  10.141   0.025   0.800
11302SOL    HW282746  10.270   0.071   0.889
11303SOL     OW82747  15.369  16.830   0.959
11303SOL    HW182748  15.335  16.785   1.041
11303SOL    HW282749  15.301  16.821   0.886
11304SOL     OW82750  11.825  10.454   1.710
11304SOL    HW182751  11.762  10.426   1.637
11304SOL    HW282752  11.791  10.421   1.798
11305SOL     OW82753   0.000   8.157   7.373
11305SOL    HW182754   0.035   8.069   7.407
11305SOL    HW282755   0.068   8.198   7.313
11306SOL     OW82756   6.150   4.822   7.208
11306SOL    HW182757   6.145   4.909   7.159
11306SOL    HW282758   6.225   4.768   7.172
11307SOL     OW82759  16.341   5.325   6.764
11307SOL    HW182760  16.298   5.404   6.808
11307SOL    HW282761  16.375   5.262   6.834
11308SOL     OW82762   7.040   7.122   7.344
11308SOL    HW182763   7.111   7.149   7.279
11308SOL    HW282764   7.082   7.080   7.424
11309SOL     OW82765   7.991  16.871   8.342
11309SOL    HW182766   7.997  16.771   8.336
11309SOL    HW282767   8.074  16.912   8.305
11310SOL     OW82768   7.149  15.289   0.472
11310SOL    HW182769   7.201  15.294   0.386
11310SOL    HW282770   7.204  15.328   0.546
11311SOL     OW82771  15.987   0.193   1.777
11311SOL    HW182772  15.917   0.223   1.842
11311SOL    HW282773  16.053   0.267   1.763
11312SOL     OW82774   3.497   6.262   0.707
11312SOL    HW182775   3.495   6.190   0.639
11312SOL    HW282776   3.571   6.246   0.772
11313SOL     OW82777  16.853   0.845   8.013
11313SOL    HW182778  16.782   0.777   8.025
11313SOL    HW282779  16.855   0.906   8.092
11314SOL     OW82780   1.344   8.838   7.741
11314SOL    HW182781   1.395   8.779   7.803
11314SOL    HW282782   1.267   8.879   7.790
11315SOL     OW82783  16.634  16.730   1.388
11315SOL    HW182784  16.615  16.817   1.342
11315SOL    HW282785  16.642  16.746   1.486
11316SOL     OW82786   6.843  15.630   2.005
11316SOL    HW182787   6.855  15.549   2.062
11316SOL    HW282788   6.783  15.695   2.051
11317SOL     OW82789   9.554  15.611   1.185
11317SOL    HW182790   9.588  15.664   1.107
11317SOL    HW282791   9.622  15.615   1.259
11318SOL     OW82792   2.182  14.844   0.927
11318SOL    HW182793   2.147  14.910   0.860
11318SOL    HW282794   2.269  14.876   0.964
11319SOL     OW82795  14.998  12.363   6.889
11319SOL    HW182796  14.938  12.287   6.864
11319SOL    HW282797  15.035  12.405   6.806
11320SOL     OW82798  12.425   8.509   7.726
11320SOL    HW182799  12.477   8.550   7.800
11320SOL    HW282800  12.468   8.423   7.698
11321SOL     OW82801  14.016  12.041   0.977
11321SOL    HW182802  13.960  12.089   0.909
11321SOL    HW282803  14.086  12.103   1.012
11322SOL     OW82804  11.825   3.061   6.790
11322SOL    HW182805  11.843   3.045   6.693
11322SOL    HW282806  11.907   3.040   6.843
11323SOL     OW82807  12.644   9.542   1.627
11323SOL    HW182808  12.676   9.454   1.591
11323SOL    HW282809  12.631   9.534   1.726
11324SOL     OW82810   1.271   1.270   7.234
11324SOL    HW182811   1.281   1.370   7.229
11324SOL    HW282812   1.285   1.231   7.143
11325SOL     OW82813  16.476   1.916   2.003
11325SOL    HW182814  16.436   1.945   2.090
11325SOL    HW282815  16.477   1.816   1.998
11326SOL     OW82816   4.685   1.277   7.278
11326SOL    HW182817   4.594   1.248   7.249
11326SOL    HW282818   4.688   1.377   7.284
11327SOL     OW82819  15.279   1.799   6.784
11327SOL    HW182820  15.193   1.765   6.821
11327SOL    HW282821  15.341   1.822   6.859
11328SOL     OW82822  11.710  12.934   0.296
11328SOL    HW182823  11.673  13.010   0.242
11328SOL    HW282824  11.636  12.888   0.344
11329SOL     OW82825   7.055  14.126   1.839
11329SOL    HW182826   7.145  14.098   1.872
11329SOL    HW282827   6.988  14.121   1.914
11330SOL     OW82828  11.137   6.432   8.024
11330SOL    HW182829  11.195   6.454   7.945
11330SOL    HW282830  11.049   6.397   7.992
11331SOL     OW82831  11.645   1.747   0.013
11331SOL    HW182832  11.606   1.751   0.105
11331SOL    HW282833  11.572   1.736   8.399
11332SOL     OW82834   8.969  13.950   8.032
11332SOL    HW182835   8.881  13.920   8.068
11332SOL    HW282836   8.998  13.888   7.959
11333SOL     OW82837   2.588   6.626   7.457
11333SOL    HW182838   2.564   6.530   7.439
11333SOL    HW282839   2.678   6.645   7.420
11334SOL     OW82840   3.999   7.905   0.594
11334SOL    HW182841   4.014   7.865   0.684
11334SOL    HW282842   4.014   7.835   0.523
11335SOL     OW82843   1.968   5.641   8.067
11335SOL    HW182844   1.931   5.565   8.120
11335SOL    HW282845   1.904   5.718   8.069
11336SOL     OW82846  11.738  11.484   0.458
11336SOL    HW182847  11.648  11.526   0.448
11336SOL    HW282848  11.738  11.393   0.416
11337SOL     OW82849   5.456   5.338   6.792
11337SOL    HW182850   5.408   5.265   6.744
11337SOL    HW282851   5.391   5.412   6.813
11338SOL     OW82852   6.639  12.764   1.596
11338SOL    HW182853   6.562  12.739   1.537
11338SOL    HW282854   6.674  12.681   1.641
11339SOL     OW82855  14.954  12.839   1.141
11339SOL    HW182856  15.015  12.860   1.064
11339SOL    HW282857  15.002  12.859   1.227
11340SOL     OW82858   8.621  10.482   0.183
11340SOL    HW182859   8.592  10.497   0.278
11340SOL    HW282860   8.636  10.385   0.168
11341SOL     OW82861  14.586  15.513   8.405
11341SOL    HW182862  14.658  15.481   8.343
11341SOL    HW282863  14.511  15.447   8.405
11342SOL     OW82864  14.873  11.249   3.002
11342SOL    HW182865  14.908  11.157   3.021
11342SOL    HW282866  14.929  11.316   3.050
11343SOL     OW82867  11.688  15.281   6.648
11343SOL    HW182868  11.710  15.272   6.551
11343SOL    HW282869  11.609  15.342   6.659
11344SOL     OW82870  13.906  10.338   7.494
11344SOL    HW182871  14.002  10.318   7.473
11344SOL    HW282872  13.878  10.420   7.444
11345SOL     OW82873   1.834   4.026   0.863
11345SOL    HW182874   1.841   4.045   0.765
11345SOL    HW282875   1.797   3.934   0.877
11346SOL     OW82876   8.469   5.689   0.691
11346SOL    HW182877   8.440   5.608   0.742
11346SOL    HW282878   8.566   5.707   0.711
11347SOL     OW82879  11.851  13.101   1.765
11347SOL    HW182880  11.791  13.180   1.750
11347SOL    HW282881  11.889  13.106   1.857
11348SOL     OW82882  14.173  14.959   0.208
11348SOL    HW182883  14.157  14.869   0.166
11348SOL    HW282884  14.233  14.948   0.287
11349SOL     OW82885   0.309  16.716   7.224
11349SOL    HW182886   0.261  16.683   7.142
11349SOL    HW282887   0.404  16.737   7.200
11350SOL     OW82888  12.507   8.683   7.444
11350SOL    HW182889  12.428   8.680   7.505
11350SOL    HW282890  12.563   8.763   7.467
11351SOL     OW82891   5.420  15.945   0.690
11351SOL    HW182892   5.356  15.909   0.757
11351SOL    HW282893   5.370  15.979   0.610
11352SOL     OW82894   9.375   5.253   0.917
11352SOL    HW182895   9.414   5.171   0.959
11352SOL    HW282896   9.276   5.244   0.913
11353SOL     OW82897   0.308   1.153   1.049
11353SOL    HW182898   0.242   1.223   1.073
11353SOL    HW282899   0.318   1.089   1.126
11354SOL     OW82900  14.608   6.339   8.387
11354SOL    HW182901  14.556   6.421   8.364
11354SOL    HW282902  14.596   6.270   8.315
11355SOL     OW82903   6.918   0.250   6.155
11355SOL    HW182904   7.003   0.301   6.171
11355SOL    HW282905   6.890   0.206   6.240
11356SOL     OW82906  15.667  15.642   7.208
11356SOL    HW182907  15.677  15.677   7.115
11356SOL    HW282908  15.575  15.662   7.242
11357SOL     OW82909  16.509   0.697   7.099
11357SOL    HW182910  16.544   0.691   7.193
11357SOL    HW282911  16.585   0.688   7.035
11358SOL     OW82912   3.584   9.735   6.866
11358SOL    HW182913   3.663   9.720   6.926
11358SOL    HW282914   3.612   9.730   6.771
11359SOL     OW82915  15.333   9.384   1.696
11359SOL    HW182916  15.367   9.394   1.789
11359SOL    HW282917  15.245   9.335   1.698
11360SOL     OW82918  10.497   3.293   1.840
11360SOL    HW182919  10.564   3.325   1.907
11360SOL    HW282920  10.459   3.372   1.792
11361SOL     OW82921  10.862  13.792   7.746
11361SOL    HW182922  10.776  13.829   7.778
11361SOL    HW282923  10.877  13.820   7.651
11362SOL     OW82924   0.610  15.369   8.445
11362SOL    HW182925   0.700  15.351   0.029
11362SOL    HW282926   0.558  15.426   0.055
11363SOL     OW82927  11.248   5.080   0.045
11363SOL    HW182928  11.151   5.061   0.057
11363SOL    HW282929  11.273   5.069   8.402
11364SOL     OW82930   8.367   4.784   0.620
11364SOL    HW182931   8.399   4.858   0.561
11364SOL    HW282932   8.424   4.703   0.605
11365SOL     OW82933   0.033  11.968   1.712
11365SOL    HW182934   0.034  12.048   1.653
11365SOL    HW282935   0.014  11.996   1.806
11366SOL     OW82936   3.654   3.455   7.621
11366SOL    HW182937   3.676   3.548   7.652
11366SOL    HW282938   3.555   3.443   7.617
11367SOL     OW82939  13.007   8.528   6.357
11367SOL    HW182940  12.991   8.438   6.317
11367SOL    HW282941  13.097   8.529   6.401
11368SOL     OW82942   0.443   9.748   0.691
11368SOL    HW182943   0.351   9.718   0.666
11368SOL    HW282944   0.439   9.841   0.728
11369SOL     OW82945   1.579  10.482   7.890
11369SOL    HW182946   1.592  10.579   7.870
11369SOL    HW282947   1.668  10.438   7.902
11370SOL     OW82948  15.487   7.887   7.978
11370SOL    HW182949  15.411   7.929   7.928
11370SOL    HW282950  15.571   7.938   7.959
11371SOL     OW82951  10.542  12.683   0.268
11371SOL    HW182952  10.470  12.734   0.220
11371SOL    HW282953  10.626  12.738   0.271
11372SOL     OW82954   2.489  16.563   0.379
11372SOL    HW182955   2.400  16.589   0.418
11372SOL    HW282956   2.475  16.515   0.293
11373SOL     OW82957   6.160   0.400   7.857
11373SOL    HW182958   6.089   0.336   7.886
11373SOL    HW282959   6.153   0.483   7.912
11374SOL     OW82960   4.338  10.763   0.037
11374SOL    HW182961   4.362  10.678   8.443
11374SOL    HW282962   4.420  10.821   0.044
11375SOL     OW82963   5.833  16.216   1.320
11375SOL    HW182964   5.846  16.217   1.221
11375SOL    HW282965   5.920  16.196   1.365
11376SOL     OW82966   0.634   5.312   0.332
11376SOL    HW182967   0.571   5.374   0.285
11376SOL    HW282968   0.658   5.350   0.422
11377SOL     OW82969   1.786  15.682   1.121
11377SOL    HW182970   1.884  15.694   1.131
11377SOL    HW282971   1.740  15.710   1.206
11378SOL     OW82972   4.597   0.599   2.039
11378SOL    HW182973   4.504   0.580   2.068
11378SOL    HW282974   4.647   0.644   2.113
11379SOL     OW82975   2.425   4.621   0.801
11379SOL    HW182976   2.472   4.683   0.863
11379SOL    HW282977   2.407   4.668   0.714
11380SOL     OW82978   0.639  15.734   7.953
11380SOL    HW182979   0.590  15.705   8.035
11380SOL    HW282980   0.616  15.829   7.933
11381SOL     OW82981   3.180  14.315   8.327
11381SOL    HW182982   3.137  14.348   8.243
11381SOL    HW282983   3.275  14.346   8.330
11382SOL     OW82984  13.208  10.892   7.411
11382SOL    HW182985  13.281  10.913   7.345
11382SOL    HW282986  13.199  10.793   7.420
11383SOL     OW82987   0.040  16.627   0.305
11383SOL    HW182988   0.053  16.689   0.382
11383SOL    HW282989   0.120  16.569   0.295
11384SOL     OW82990   8.539   8.583   7.864
11384SOL    HW182991   8.476   8.579   7.786
11384SOL    HW282992   8.496   8.633   7.939
11385SOL     OW82993   9.904   3.478   6.405
11385SOL    HW182994   9.835   3.547   6.425
11385SOL    HW282995   9.931   3.432   6.490
11386SOL     OW82996   9.366   0.291   8.216
11386SOL    HW182997   9.433   0.358   8.185
11386SOL    HW282998   9.289   0.338   8.259
11387SOL     OW82999  15.920  14.756   1.112
11387SOL    HW183000  15.946  14.661   1.125
11387SOL    HW283001  15.928  14.806   1.198
11388SOL     OW83002   4.238  16.665   1.356
11388SOL    HW183003   4.221  16.758   1.388
11388SOL    HW283004   4.161  16.606   1.381
11389SOL     OW83005   5.585   4.105   6.455
11389SOL    HW183006   5.512   4.127   6.390
11389SOL    HW283007   5.670   4.089   6.405
11390SOL     OW83008   7.608   5.662   1.794
11390SOL    HW183009   7.514   5.682   1.768
11390SOL    HW283010   7.611   5.636   1.891
11391SOL     OW83011  13.080  10.307   7.078
11391SOL    HW183012  13.176  10.322   7.102
11391SOL    HW283013  13.073  10.294   6.979
11392SOL     OW83014   7.311   6.534   8.091
11392SOL    HW183015   7.347   6.627   8.086
11392SOL    HW283016   7.237   6.531   8.160
11393SOL     OW83017  11.676   9.328   1.078
11393SOL    HW183018  11.723   9.346   0.992
11393SOL    HW283019  11.577   9.342   1.065
11394SOL     OW83020  16.424  16.377   6.851
11394SOL    HW183021  16.368  16.420   6.780
11394SOL    HW283022  16.432  16.439   6.929
11395SOL     OW83023  10.936   1.650   8.446
11395SOL    HW183024  10.944   1.590   0.072
11395SOL    HW283025  10.958   1.743   0.018
11396SOL     OW83026   4.719  11.415   0.499
11396SOL    HW183027   4.770  11.335   0.528
11396SOL    HW283028   4.640  11.387   0.444
11397SOL     OW83029   1.488   8.902   7.163
11397SOL    HW183030   1.514   8.941   7.075
11397SOL    HW283031   1.476   8.976   7.230
11398SOL     OW83032   8.686   2.324   6.553
11398SOL    HW183033   8.633   2.370   6.482
11398SOL    HW283034   8.702   2.229   6.526
11399SOL     OW83035   4.141  12.842   0.388
11399SOL    HW183036   4.201  12.917   0.359
11399SOL    HW283037   4.110  12.859   0.482
11400SOL     OW83038   0.198   8.278   7.224
11400SOL    HW183039   0.196   8.223   7.140
11400SOL    HW283040   0.293   8.293   7.252
11401SOL     OW83041   1.857  12.193   1.355
11401SOL    HW183042   1.861  12.106   1.306
11401SOL    HW283043   1.915  12.188   1.436
11402SOL     OW83044   1.730  14.808   0.804
11402SOL    HW183045   1.783  14.737   0.850
11402SOL    HW283046   1.648  14.829   0.857
11403SOL     OW83047   8.084   2.793   0.181
11403SOL    HW183048   8.038   2.705   0.173
11403SOL    HW283049   8.138   2.796   0.265
11404SOL     OW83050   2.881  11.874   6.863
11404SOL    HW183051   2.854  11.849   6.770
11404SOL    HW283052   2.966  11.926   6.859
11405SOL     OW83053  15.066   0.840   6.846
11405SOL    HW183054  15.120   0.796   6.774
11405SOL    HW283055  14.991   0.780   6.872
11406SOL     OW83056  13.222   9.778   8.411
11406SOL    HW183057  13.258   9.831   8.334
11406SOL    HW283058  13.259   9.685   8.408
11407SOL     OW83059  11.696  11.756   1.353
11407SOL    HW183060  11.650  11.715   1.432
11407SOL    HW283061  11.693  11.855   1.360
11408SOL     OW83062   2.699  12.859   7.455
11408SOL    HW183063   2.600  12.856   7.473
11408SOL    HW283064   2.730  12.953   7.457
11409SOL     OW83065  14.933  11.076   6.816
11409SOL    HW183066  15.029  11.091   6.838
11409SOL    HW283067  14.884  11.045   6.897
11410SOL     OW83068  16.543  14.498   2.019
11410SOL    HW183069  16.492  14.456   2.095
11410SOL    HW283070  16.634  14.524   2.050
11411SOL     OW83071  11.204   1.647   7.963
11411SOL    HW183072  11.146   1.728   7.958
11411SOL    HW283073  11.150   1.571   8.000
11412SOL     OW83074   6.700  16.462   8.321
11412SOL    HW183075   6.712  16.404   8.241
11412SOL    HW283076   6.632  16.422   8.382
11413SOL     OW83077  13.006   0.188   8.261
11413SOL    HW183078  13.078   0.123   8.237
11413SOL    HW283079  13.038   0.281   8.244
11414SOL     OW83080  13.685  14.328   0.823
11414SOL    HW183081  13.698  14.242   0.872
11414SOL    HW283082  13.590  14.337   0.794
11415SOL     OW83083   2.957  16.844   7.969
11415SOL    HW183084   3.006  16.769   7.924
11415SOL    HW283085   2.988  16.932   7.933
11416SOL     OW83086   6.058   4.393   1.450
11416SOL    HW183087   6.041   4.304   1.408
11416SOL    HW283088   5.972   4.430   1.485
11417SOL     OW83089   2.192  16.152   8.039
11417SOL    HW183090   2.114  16.194   8.085
11417SOL    HW283091   2.235  16.085   8.099
11418SOL     OW83092  14.630   7.516   8.174
11418SOL    HW183093  14.710   7.464   8.143
11418SOL    HW283094  14.560   7.515   8.103
11419SOL     OW83095   2.002   7.885   1.534
11419SOL    HW183096   2.082   7.935   1.569
11419SOL    HW283097   1.919   7.919   1.578
11420SOL     OW83098   1.992   7.486   6.148
11420SOL    HW183099   1.939   7.469   6.065
11420SOL    HW283100   2.023   7.581   6.149
11421SOL     OW83101   0.510   7.128   8.105
11421SOL    HW183102   0.423   7.172   8.081
11421SOL    HW283103   0.498   7.028   8.103
11422SOL     OW83104   1.168   9.720   0.389
11422SOL    HW183105   1.081   9.749   0.427
11422SOL    HW283106   1.215   9.661   0.455
11423SOL     OW83107  15.468  14.642   8.345
11423SOL    HW183108  15.566  14.631   8.329
11423SOL    HW283109  15.431  14.558   8.385
11424SOL     OW83110   6.597   6.979   7.578
11424SOL    HW183111   6.604   7.052   7.510
11424SOL    HW283112   6.657   6.999   7.655
11425SOL     OW83113   9.771   9.739   1.223
11425SOL    HW183114   9.691   9.702   1.270
11425SOL    HW283115   9.793   9.829   1.259
11426SOL     OW83116  12.979  14.597   6.758
11426SOL    HW183117  12.986  14.678   6.700
11426SOL    HW283118  12.895  14.547   6.738
11427SOL     OW83119  11.007   3.591   8.182
11427SOL    HW183120  11.096   3.631   8.161
11427SOL    HW283121  10.987   3.517   8.116
11428SOL     OW83122   7.575   1.840   6.324
11428SOL    HW183123   7.573   1.859   6.226
11428SOL    HW283124   7.488   1.869   6.365
11429SOL     OW83125   9.550   2.736   0.252
11429SOL    HW183126   9.535   2.687   0.166
11429SOL    HW283127   9.639   2.781   0.249
11430SOL     OW83128   9.213   7.097   7.667
11430SOL    HW183129   9.199   7.082   7.569
11430SOL    HW283130   9.202   7.011   7.716
11431SOL     OW83131   1.545  12.757   8.357
11431SOL    HW183132   1.512  12.759   8.452
11431SOL    HW283133   1.531  12.665   8.319
11432SOL     OW83134  13.309   9.293   0.299
11432SOL    HW183135  13.240   9.352   0.340
11432SOL    HW283136  13.304   9.302   0.199
11433SOL     OW83137  11.396  11.175   5.924
11433SOL    HW183138  11.344  11.255   5.895
11433SOL    HW283139  11.343  11.093   5.905
11434SOL     OW83140  15.905   6.648   2.003
11434SOL    HW183141  15.838   6.705   2.051
11434SOL    HW283142  15.906   6.556   2.044
11435SOL     OW83143   7.047   3.172   1.182
11435SOL    HW183144   7.015   3.087   1.223
11435SOL    HW283145   7.144   3.184   1.201
11436SOL     OW83146   8.386   5.289   6.641
11436SOL    HW183147   8.304   5.232   6.640
11436SOL    HW283148   8.426   5.287   6.733
11437SOL     OW83149   8.413   1.253   0.690
11437SOL    HW183150   8.475   1.251   0.611
11437SOL    HW283151   8.395   1.160   0.721
11438SOL     OW83152   8.386   0.708   6.305
11438SOL    HW183153   8.445   0.785   6.279
11438SOL    HW283154   8.441   0.632   6.338
11439SOL     OW83155  10.888  10.964   1.910
11439SOL    HW183156  10.916  10.882   1.962
11439SOL    HW283157  10.821  11.015   1.964
11440SOL     OW83158  12.181  15.475   1.499
11440SOL    HW183159  12.240  15.394   1.499
11440SOL    HW283160  12.208  15.536   1.574
11441SOL     OW83161   7.140   0.591   1.414
11441SOL    HW183162   7.094   0.530   1.479
11441SOL    HW283163   7.124   0.558   1.321
11442SOL     OW83164   5.381   6.899   1.242
11442SOL    HW183165   5.331   6.828   1.292
11442SOL    HW283166   5.319   6.976   1.224
11443SOL     OW83167   8.102   0.810   0.549
11443SOL    HW183168   8.102   0.715   0.518
11443SOL    HW283169   8.123   0.812   0.647
11444SOL     OW83170  10.813  10.196   0.521
11444SOL    HW183171  10.911  10.179   0.531
11444SOL    HW283172  10.778  10.240   0.604
11445SOL     OW83173  14.749  11.797   0.685
11445SOL    HW183174  14.805  11.735   0.631
11445SOL    HW283175  14.654  11.767   0.683
11446SOL     OW83176   8.036   0.340   1.211
11446SOL    HW183177   7.956   0.400   1.211
11446SOL    HW283178   8.085   0.349   1.124
11447SOL     OW83179  15.068  11.474   2.180
11447SOL    HW183180  14.981  11.457   2.132
11447SOL    HW283181  15.097  11.568   2.163
11448SOL     OW83182   4.623   8.233   1.398
11448SOL    HW183183   4.589   8.175   1.472
11448SOL    HW283184   4.597   8.194   1.310
11449SOL     OW83185  11.247  12.605   7.419
11449SOL    HW183186  11.152  12.638   7.416
11449SOL    HW283187  11.265  12.562   7.507
11450SOL     OW83188   1.420   4.076   1.419
11450SOL    HW183189   1.452   4.153   1.364
11450SOL    HW283190   1.347   4.029   1.371
11451SOL     OW83191  12.441   3.818   0.527
11451SOL    HW183192  12.442   3.725   0.492
11451SOL    HW283193  12.354   3.836   0.573
11452SOL     OW83194  13.714  13.811   7.685
11452SOL    HW183195  13.692  13.780   7.592
11452SOL    HW283196  13.677  13.903   7.698
11453SOL     OW83197   3.479   8.821   0.790
11453SOL    HW183198   3.492   8.873   0.874
11453SOL    HW283199   3.491   8.881   0.711
11454SOL     OW83200   6.993   9.215   6.116
11454SOL    HW183201   7.001   9.312   6.136
11454SOL    HW283202   7.045   9.193   6.034
11455SOL     OW83203  15.859   6.386   1.843
11455SOL    HW183204  15.859   6.396   1.943
11455SOL    HW283205  15.941   6.336   1.815
11456SOL     OW83206   7.350  10.901   0.792
11456SOL    HW183207   7.340  10.981   0.850
11456SOL    HW283208   7.260  10.866   0.768
11457SOL     OW83209  11.430   0.234   0.057
11457SOL    HW183210  11.423   0.332   0.041
11457SOL    HW283211  11.370   0.208   0.132
11458SOL     OW83212  11.091   6.990   7.530
11458SOL    HW183213  11.011   6.935   7.557
11458SOL    HW283214  11.165   6.975   7.596
11459SOL     OW83215   4.241   4.028   7.701
11459SOL    HW183216   4.201   4.055   7.789
11459SOL    HW283217   4.182   3.962   7.656
11460SOL     OW83218   6.197   3.982   7.603
11460SOL    HW183219   6.098   3.973   7.607
11460SOL    HW283220   6.227   4.059   7.658
11461SOL     OW83221   0.408   3.629   8.330
11461SOL    HW183222   0.505   3.630   8.353
11461SOL    HW283223   0.365   3.546   8.367
11462SOL     OW83224   1.036  12.670   0.450
11462SOL    HW183225   1.042  12.765   0.420
11462SOL    HW283226   0.961  12.660   0.515
11463SOL     OW83227   3.898   9.515   7.758
11463SOL    HW183228   3.809   9.498   7.714
11463SOL    HW283229   3.892   9.490   7.855
11464SOL     OW83230   6.875   4.217   0.228
11464SOL    HW183231   6.907   4.149   0.294
11464SOL    HW283232   6.904   4.308   0.259
11465SOL     OW83233  10.704   6.657   0.799
11465SOL    HW183234  10.627   6.721   0.797
11465SOL    HW283235  10.751   6.663   0.887
11466SOL     OW83236   0.782  13.730   1.949
11466SOL    HW183237   0.711  13.661   1.965
11466SOL    HW283238   0.742  13.807   1.899
11467SOL     OW83239  10.078   3.217   6.168
11467SOL    HW183240   9.988   3.225   6.210
11467SOL    HW283241  10.145   3.192   6.238
11468SOL     OW83242   3.528   9.951   1.099
11468SOL    HW183243   3.551  10.001   1.182
11468SOL    HW283244   3.568   9.997   1.020
11469SOL     OW83245   2.094  13.611   1.427
11469SOL    HW183246   2.152  13.530   1.418
11469SOL    HW283247   2.017  13.604   1.364
11470SOL     OW83248   4.420  13.522   6.900
11470SOL    HW183249   4.375  13.433   6.891
11470SOL    HW283250   4.391  13.567   6.984
11471SOL     OW83251   6.143  15.134   7.320
11471SOL    HW183252   6.166  15.176   7.408
11471SOL    HW283253   6.145  15.034   7.329
11472SOL     OW83254  11.760   6.397   1.186
11472SOL    HW183255  11.779   6.311   1.138
11472SOL    HW283256  11.844   6.450   1.194
11473SOL     OW83257   5.701  12.031   2.413
11473SOL    HW183258   5.729  11.949   2.463
11473SOL    HW283259   5.633  12.081   2.466
11474SOL     OW83260   4.013  10.423   2.176
11474SOL    HW183261   3.963  10.341   2.148
11474SOL    HW283262   3.986  10.448   2.269
11475SOL     OW83263  14.292   4.609   0.480
11475SOL    HW183264  14.280   4.518   0.441
11475SOL    HW283265  14.329   4.601   0.572
11476SOL     OW83266  10.801  14.798   1.190
11476SOL    HW183267  10.829  14.702   1.192
11476SOL    HW283268  10.835  14.841   1.106
11477SOL     OW83269   1.804   6.890   7.628
11477SOL    HW183270   1.826   6.986   7.610
11477SOL    HW283271   1.745   6.855   7.555
11478SOL     OW83272  15.936  13.213   1.845
11478SOL    HW183273  16.000  13.177   1.777
11478SOL    HW283274  15.844  13.181   1.824
11479SOL     OW83275   9.247   0.077   8.349
11479SOL    HW183276   9.152   0.084   8.318
11479SOL    HW283277   9.301   0.151   8.308
11480SOL     OW83278   6.582   4.150   6.123
11480SOL    HW183279   6.536   4.186   6.204
11480SOL    HW283280   6.568   4.052   6.118
11481SOL     OW83281   2.037   0.663   0.407
11481SOL    HW183282   2.137   0.654   0.398
11481SOL    HW283283   2.014   0.756   0.433
11482SOL     OW83284  15.851   6.435   1.312
11482SOL    HW183285  15.939   6.482   1.323
11482SOL    HW283286  15.851   6.352   1.368
11483SOL     OW83287  10.612   0.262   6.185
11483SOL    HW183288  10.630   0.350   6.140
11483SOL    HW283289  10.630   0.270   6.283
11484SOL     OW83290  10.364  16.172   0.063
11484SOL    HW183291  10.314  16.252   0.030
11484SOL    HW283292  10.306  16.119   0.126
11485SOL     OW83293   5.748  12.468   1.404
11485SOL    HW183294   5.823  12.532   1.416
11485SOL    HW283295   5.671  12.496   1.462
11486SOL     OW83296   9.864   2.594   7.293
11486SOL    HW183297   9.832   2.531   7.222
11486SOL    HW283298   9.935   2.653   7.256
11487SOL     OW83299   7.850   3.926   6.855
11487SOL    HW183300   7.750   3.924   6.852
11487SOL    HW283301   7.886   3.934   6.761
11488SOL     OW83302   9.159  11.961   0.308
11488SOL    HW183303   9.135  12.018   0.387
11488SOL    HW283304   9.168  12.019   0.227
11489SOL     OW83305   2.569  10.841   8.255
11489SOL    HW183306   2.578  10.878   8.163
11489SOL    HW283307   2.506  10.898   8.308
11490SOL     OW83308  13.679   8.059   6.063
11490SOL    HW183309  13.699   7.990   5.994
11490SOL    HW283310  13.614   8.126   6.026
11491SOL     OW83311   3.789   3.631   0.797
11491SOL    HW183312   3.780   3.712   0.739
11491SOL    HW283313   3.704   3.617   0.848
11492SOL     OW83314  14.957   3.619   7.542
11492SOL    HW183315  15.004   3.707   7.551
11492SOL    HW283316  14.900   3.621   7.460
11493SOL     OW83317  15.394  12.328   1.919
11493SOL    HW183318  15.383  12.405   1.855
11493SOL    HW283319  15.400  12.364   2.012
11494SOL     OW83320  10.844   4.100   5.526
11494SOL    HW183321  10.943   4.116   5.528
11494SOL    HW283322  10.800   4.176   5.478
11495SOL     OW83323  10.895  10.459   7.589
11495SOL    HW183324  10.902  10.378   7.531
11495SOL    HW283325  10.805  10.462   7.632
11496SOL     OW83326  12.026   1.029   7.368
11496SOL    HW183327  11.975   0.970   7.431
11496SOL    HW283328  12.106   1.067   7.416
11497SOL     OW83329  11.201  15.303   0.144
11497SOL    HW183330  11.280  15.359   0.121
11497SOL    HW283331  11.122  15.333   0.091
11498SOL     OW83332  13.090   8.270   1.387
11498SOL    HW183333  13.095   8.369   1.372
11498SOL    HW283334  13.090   8.252   1.485
11499SOL     OW83335   7.790  13.739   7.996
11499SOL    HW183336   7.728  13.663   7.975
11499SOL    HW283337   7.789  13.805   7.921
11500SOL     OW83338  11.363   3.997   0.239
11500SOL    HW183339  11.300   3.982   0.314
11500SOL    HW283340  11.452   3.958   0.262
11501SOL     OW83341   3.535   3.057   6.383
11501SOL    HW183342   3.608   2.994   6.357
11501SOL    HW283343   3.574   3.137   6.428
11502SOL     OW83344  10.702  14.602   2.269
11502SOL    HW183345  10.663  14.547   2.343
11502SOL    HW283346  10.725  14.693   2.303
11503SOL     OW83347  12.021   8.070   1.299
11503SOL    HW183348  12.056   8.042   1.389
11503SOL    HW283349  11.929   8.107   1.309
11504SOL     OW83350  11.703  12.089   7.392
11504SOL    HW183351  11.672  12.103   7.486
11504SOL    HW283352  11.642  12.138   7.329
11505SOL     OW83353   8.326  15.790   0.801
11505SOL    HW183354   8.284  15.716   0.852
11505SOL    HW283355   8.424  15.794   0.822
11506SOL     OW83356   5.376   5.561   8.327
11506SOL    HW183357   5.445   5.494   8.300
11506SOL    HW283358   5.286   5.517   8.333
11507SOL     OW83359  10.823   1.651   0.999
11507SOL    HW183360  10.872   1.608   1.075
11507SOL    HW283361  10.740   1.695   1.033
11508SOL     OW83362   8.437   1.273   8.339
11508SOL    HW183363   8.456   1.288   8.242
11508SOL    HW283364   8.339   1.286   8.357
11509SOL     OW83365   6.887   5.568   1.111
11509SOL    HW183366   6.817   5.584   1.180
11509SOL    HW283367   6.967   5.526   1.153
11510SOL     OW83368   6.376   6.735   7.334
11510SOL    HW183369   6.317   6.729   7.254
11510SOL    HW283370   6.351   6.815   7.389
11511SOL     OW83371   6.386   2.323   1.859
11511SOL    HW183372   6.423   2.416   1.856
11511SOL    HW283373   6.380   2.292   1.954
11512SOL     OW83374  14.538  11.001   1.860
11512SOL    HW183375  14.607  11.035   1.797
11512SOL    HW283376  14.558  10.906   1.883
11513SOL     OW83377  15.004  14.856   7.764
11513SOL    HW183378  15.049  14.883   7.848
11513SOL    HW283379  14.908  14.832   7.783
11514SOL     OW83380   9.684  15.304   7.311
11514SOL    HW183381   9.711  15.300   7.407
11514SOL    HW283382   9.668  15.399   7.285
11515SOL     OW83383   6.195  15.664   7.847
11515SOL    HW183384   6.154  15.611   7.921
11515SOL    HW283385   6.224  15.602   7.774
11516SOL     OW83386   3.518  10.038   7.208
11516SOL    HW183387   3.493   9.990   7.124
11516SOL    HW283388   3.460  10.118   7.219
11517SOL     OW83389   9.846   7.679   7.544
11517SOL    HW183390   9.811   7.725   7.462
11517SOL    HW283391   9.791   7.706   7.623
11518SOL     OW83392   0.499   2.285   7.480
11518SOL    HW183393   0.533   2.192   7.495
11518SOL    HW283394   0.452   2.289   7.393
11519SOL     OW83395   3.778   6.003   7.584
11519SOL    HW183396   3.731   6.018   7.497
11519SOL    HW283397   3.711   5.978   7.654
11520SOL     OW83398  12.949   8.776   1.092
11520SOL    HW183399  12.957   8.750   0.996
11520SOL    HW283400  12.874   8.725   1.135
11521SOL     OW83401   4.357  14.691   0.658
11521SOL    HW183402   4.302  14.751   0.600
11521SOL    HW283403   4.446  14.734   0.677
11522SOL     OW83404  12.358   1.833   7.264
11522SOL    HW183405  12.315   1.746   7.237
11522SOL    HW283406  12.353   1.843   7.363
11523SOL     OW83407   9.971  15.938   7.537
11523SOL    HW183408  10.063  15.933   7.499
11523SOL    HW283409   9.955  16.030   7.574
11524SOL     OW83410  15.578  15.694   8.062
11524SOL    HW183411  15.530  15.641   8.132
11524SOL    HW283412  15.583  15.790   8.091
11525SOL     OW83413  11.996  15.854   0.946
11525SOL    HW183414  11.966  15.769   0.989
11525SOL    HW283415  12.010  15.838   0.848
11526SOL     OW83416  13.046   2.486   6.016
11526SOL    HW183417  13.145   2.491   6.002
11526SOL    HW283418  12.999   2.502   5.930
11527SOL     OW83419   4.308   9.363   1.228
11527SOL    HW183420   4.300   9.372   1.327
11527SOL    HW283421   4.293   9.268   1.201
11528SOL     OW83422   9.456  14.757   0.908
11528SOL    HW183423   9.480  14.713   0.995
11528SOL    HW283424   9.380  14.708   0.866
11529SOL     OW83425   7.239   0.844   0.331
11529SOL    HW183426   7.233   0.746   0.350
11529SOL    HW283427   7.327   0.879   0.364
11530SOL     OW83428   1.187   8.620   0.376
11530SOL    HW183429   1.182   8.687   0.302
11530SOL    HW283430   1.239   8.659   0.452
11531SOL     OW83431   3.934   8.569   8.201
11531SOL    HW183432   3.905   8.490   8.146
11531SOL    HW283433   3.863   8.590   8.268
11532SOL     OW83434   3.186   5.771   7.856
11532SOL    HW183435   3.272   5.820   7.841
11532SOL    HW283436   3.192   5.681   7.813
11533SOL     OW83437   8.194  16.403   1.245
11533SOL    HW183438   8.289  16.393   1.217
11533SOL    HW283439   8.188  16.403   1.344
11534SOL     OW83440   7.607   3.720   0.345
11534SOL    HW183441   7.547   3.757   0.415
11534SOL    HW283442   7.691   3.686   0.387
11535SOL     OW83443  16.574   6.979   0.223
11535SOL    HW183444  16.528   6.917   0.159
11535SOL    HW283445  16.512   7.001   0.299
11536SOL     OW83446   4.569  15.181   7.986
11536SOL    HW183447   4.545  15.107   7.922
11536SOL    HW283448   4.544  15.269   7.946
11537SOL     OW83449  15.393   8.453   1.882
11537SOL    HW183450  15.410   8.536   1.936
11537SOL    HW283451  15.457   8.382   1.909
11538SOL     OW83452  16.123   8.012   2.054
11538SOL    HW183453  16.173   8.072   2.116
11538SOL    HW283454  16.063   7.952   2.108
11539SOL     OW83455  10.359  15.464   1.609
11539SOL    HW183456  10.421  15.436   1.535
11539SOL    HW283457  10.411  15.514   1.678
11540SOL     OW83458   5.861   4.360   2.192
11540SOL    HW183459   5.861   4.371   2.291
11540SOL    HW283460   5.840   4.448   2.149
11541SOL     OW83461   1.640  10.196   8.068
11541SOL    HW183462   1.620  10.130   7.995
11541SOL    HW283463   1.704  10.264   8.034
11542SOL     OW83464  14.812   4.138   2.017
11542SOL    HW183465  14.858   4.223   2.040
11542SOL    HW283466  14.844   4.106   1.928
11543SOL     OW83467  16.858   3.601   7.253
11543SOL    HW183468  16.833   3.545   7.174
11543SOL    HW283469  16.956   3.592   7.272
11544SOL     OW83470   2.587   8.741   7.450
11544SOL    HW183471   2.636   8.689   7.519
11544SOL    HW283472   2.624   8.720   7.359
11545SOL     OW83473   7.265   3.661   7.016
11545SOL    HW183474   7.291   3.758   7.015
11545SOL    HW283475   7.229   3.635   6.926
11546SOL     OW83476  13.055   9.740   6.749
11546SOL    HW183477  12.972   9.686   6.733
11546SOL    HW283478  13.102   9.754   6.662
11547SOL     OW83479   7.113  13.996   6.693
11547SOL    HW183480   7.013  13.994   6.695
11547SOL    HW283481   7.144  14.088   6.718
11548SOL     OW83482   9.055   1.766   0.936
11548SOL    HW183483   9.050   1.741   1.033
11548SOL    HW283484   9.151   1.776   0.910
11549SOL     OW83485   5.220   5.161   7.987
11549SOL    HW183486   5.261   5.193   7.902
11549SOL    HW283487   5.132   5.118   7.968
11550SOL     OW83488  15.451   5.340   7.998
11550SOL    HW183489  15.364   5.323   8.045
11550SOL    HW283490  15.524   5.354   8.066
11551SOL     OW83491  13.276   9.120   7.590
11551SOL    HW183492  13.316   9.097   7.501
11551SOL    HW283493  13.321   9.066   7.661
11552SOL     OW83494   9.532  13.694   1.187
11552SOL    HW183495   9.458  13.628   1.196
11552SOL    HW283496   9.610  13.651   1.143
11553SOL     OW83497  11.709   9.824   7.557
11553SOL    HW183498  11.610   9.821   7.570
11553SOL    HW283499  11.730   9.815   7.460
11554SOL     OW83500  10.237   5.598   5.590
11554SOL    HW183501  10.183   5.667   5.542
11554SOL    HW283502  10.330   5.631   5.604
11555SOL     OW83503  15.382   8.894   8.177
11555SOL    HW183504  15.340   8.871   8.264
11555SOL    HW283505  15.421   8.986   8.182
11556SOL     OW83506  13.086   9.901   0.674
11556SOL    HW183507  13.145   9.966   0.722
11556SOL    HW283508  13.001   9.889   0.725
11557SOL     OW83509   1.472  11.862   1.366
11557SOL    HW183510   1.422  11.865   1.452
11557SOL    HW283511   1.513  11.771   1.355
11558SOL     OW83512  14.228   0.243   6.991
11558SOL    HW183513  14.181   0.213   6.908
11558SOL    HW283514  14.309   0.297   6.966
11559SOL     OW83515  11.953  12.578   2.505
11559SOL    HW183516  12.026  12.644   2.485
11559SOL    HW283517  11.993  12.496   2.546
11560SOL     OW83518  15.234   8.752   0.663
11560SOL    HW183519  15.256   8.661   0.699
11560SOL    HW283520  15.188   8.806   0.734
11561SOL     OW83521  15.060  12.081   8.001
11561SOL    HW183522  15.107  12.169   8.009
11561SOL    HW283523  15.072  12.047   7.908
11562SOL     OW83524   6.939   3.720   1.722
11562SOL    HW183525   6.849   3.723   1.678
11562SOL    HW283526   6.955   3.805   1.771
11563SOL     OW83527  16.329   6.620   0.367
11563SOL    HW183528  16.389   6.595   0.291
11563SOL    HW283529  16.383   6.629   0.451
11564SOL     OW83530   9.741  11.432   6.785
11564SOL    HW183531   9.813  11.370   6.817
11564SOL    HW283532   9.732  11.424   6.685
11565SOL     OW83533  10.783   9.496   7.125
11565SOL    HW183534  10.732   9.571   7.166
11565SOL    HW283535  10.820   9.525   7.036
11566SOL     OW83536   4.920  16.014   8.060
11566SOL    HW183537   4.857  16.076   8.107
11566SOL    HW283538   4.909  15.921   8.096
11567SOL     OW83539   8.934  13.630   0.556
11567SOL    HW183540   8.852  13.619   0.501
11567SOL    HW283541   8.972  13.540   0.578
11568SOL     OW83542  10.304  14.679   7.245
11568SOL    HW183543  10.289  14.760   7.189
11568SOL    HW283544  10.218  14.628   7.252
11569SOL     OW83545   7.419   8.385   2.334
11569SOL    HW183546   7.519   8.389   2.345
11569SOL    HW283547   7.376   8.441   2.403
11570SOL     OW83548  16.627  14.113   2.294
11570SOL    HW183549  16.600  14.193   2.348
11570SOL    HW283550  16.724  14.095   2.307
11571SOL     OW83551  14.941   3.339   0.077
11571SOL    HW183552  14.889   3.276   0.133
11571SOL    HW283553  14.879   3.390   0.017
11572SOL     OW83554   4.521  13.262   0.463
11572SOL    HW183555   4.482  13.208   0.537
11572SOL    HW283556   4.473  13.349   0.455
11573SOL     OW83557   5.339  12.543   6.235
11573SOL    HW183558   5.264  12.536   6.170
11573SOL    HW283559   5.344  12.637   6.269
11574SOL     OW83560  11.487   4.532   7.834
11574SOL    HW183561  11.452   4.501   7.922
11574SOL    HW283562  11.571   4.584   7.848
11575SOL     OW83563   3.602   1.187   2.865
11575SOL    HW183564   3.577   1.283   2.872
11575SOL    HW283565   3.665   1.164   2.939
11576SOL     OW83566  11.732   8.907   1.409
11576SOL    HW183567  11.716   8.980   1.342
11576SOL    HW283568  11.815   8.928   1.462
11577SOL     OW83569  16.633  13.052   0.721
11577SOL    HW183570  16.591  12.962   0.733
11577SOL    HW283571  16.721  13.042   0.675
11578SOL     OW83572  11.218   8.785   0.444
11578SOL    HW183573  11.214   8.766   0.542
11578SOL    HW283574  11.275   8.866   0.427
11579SOL     OW83575   5.161  14.317   2.223
11579SOL    HW183576   5.185  14.409   2.252
11579SOL    HW283577   5.201  14.250   2.286
11580SOL     OW83578  13.070   1.434   0.558
11580SOL    HW183579  13.007   1.434   0.481
11580SOL    HW283580  13.093   1.529   0.582
11581SOL     OW83581  16.233   5.323   0.011
11581SOL    HW183582  16.293   5.396   0.045
11581SOL    HW283583  16.269   5.287   8.379
11582SOL     OW83584   7.208  13.916   8.258
11582SOL    HW183585   7.231  13.832   8.209
11582SOL    HW283586   7.191  13.990   8.193
11583SOL     OW83587   3.614  14.136   0.468
11583SOL    HW183588   3.554  14.176   0.537
11583SOL    HW283589   3.643  14.045   0.498
11584SOL     OW83590  16.457  16.490   7.667
11584SOL    HW183591  16.486  16.514   7.574
11584SOL    HW283592  16.364  16.525   7.683
11585SOL     OW83593  15.543   5.314   2.104
11585SOL    HW183594  15.458   5.343   2.148
11585SOL    HW283595  15.621   5.360   2.148
11586SOL     OW83596   9.313   9.206   7.605
11586SOL    HW183597   9.278   9.115   7.628
11586SOL    HW283598   9.350   9.250   7.687
11587SOL     OW83599   6.534   7.964   0.115
11587SOL    HW183600   6.618   7.983   0.167
11587SOL    HW283601   6.525   8.031   0.041
11588SOL     OW83602  10.716   5.756   0.762
11588SOL    HW183603  10.634   5.793   0.807
11588SOL    HW283604  10.691   5.673   0.713
11589SOL     OW83605   2.287  16.185   0.539
11589SOL    HW183606   2.373  16.206   0.492
11589SOL    HW283607   2.258  16.092   0.516
11590SOL     OW83608   2.280   8.866   7.745
11590SOL    HW183609   2.229   8.874   7.831
11590SOL    HW283610   2.360   8.926   7.748
11591SOL     OW83611   0.520   1.520   0.047
11591SOL    HW183612   0.576   1.560   8.429
11591SOL    HW283613   0.446   1.466   0.006
11592SOL     OW83614  13.508   6.106   7.391
11592SOL    HW183615  13.499   6.205   7.397
11592SOL    HW283616  13.449   6.063   7.460
11593SOL     OW83617   4.829  16.414   7.044
11593SOL    HW183618   4.763  16.340   7.051
11593SOL    HW283619   4.888  16.399   6.964
11594SOL     OW83620  14.437  16.280   8.247
11594SOL    HW183621  14.358  16.271   8.187
11594SOL    HW283622  14.519  16.295   8.192
11595SOL     OW83623   0.444   4.632   5.630
11595SOL    HW183624   0.544   4.641   5.628
11595SOL    HW283625   0.404   4.718   5.661
11596SOL     OW83626   5.927   1.762   7.387
11596SOL    HW183627   5.959   1.793   7.476
11596SOL    HW283628   5.827   1.772   7.382
11597SOL     OW83629   6.629  15.922   0.871
11597SOL    HW183630   6.727  15.938   0.881
11597SOL    HW283631   6.582  15.948   0.955
11598SOL     OW83632  16.212   0.511   6.089
11598SOL    HW183633  16.216   0.427   6.035
11598SOL    HW283634  16.210   0.590   6.028
11599SOL     OW83635   3.829   0.290   0.342
11599SOL    HW183636   3.876   0.299   0.254
11599SOL    HW283637   3.730   0.300   0.328
11600SOL     OW83638   0.030   9.529   8.302
11600SOL    HW183639  16.967   9.449   8.264
11600SOL    HW283640   0.111   9.499   8.352
11601SOL     OW83641   8.984   4.933   0.876
11601SOL    HW183642   8.939   5.021   0.859
11601SOL    HW283643   9.013   4.928   0.972
11602SOL     OW83644   1.674   7.054   6.464
11602SOL    HW183645   1.707   6.961   6.454
11602SOL    HW283646   1.574   7.054   6.464
11603SOL     OW83647  12.960   1.586   8.095
11603SOL    HW183648  13.006   1.550   8.013
11603SOL    HW283649  12.864   1.602   8.075
11604SOL     OW83650  12.152  16.461   1.092
11604SOL    HW183651  12.134  16.416   1.005
11604SOL    HW283652  12.074  16.448   1.153
11605SOL     OW83653   3.733  12.612   1.463
11605SOL    HW183654   3.774  12.521   1.458
11605SOL    HW283655   3.677  12.628   1.382
11606SOL     OW83656   0.108   4.873   0.790
11606SOL    HW183657   0.068   4.853   0.879
11606SOL    HW283658   0.035   4.901   0.727
11607SOL     OW83659   6.327   0.554   7.225
11607SOL    HW183660   6.381   0.497   7.287
11607SOL    HW283661   6.381   0.633   7.196
11608SOL     OW83662   2.499  15.461   2.102
11608SOL    HW183663   2.510  15.498   2.195
11608SOL    HW283664   2.589  15.435   2.066
11609SOL     OW83665  13.633   8.627   6.867
11609SOL    HW183666  13.682   8.582   6.793
11609SOL    HW283667  13.619   8.563   6.942
11610SOL     OW83668   3.056   1.130   1.494
11610SOL    HW183669   2.973   1.113   1.548
11610SOL    HW283670   3.071   1.054   1.431
11611SOL     OW83671  16.830   5.255   7.287
11611SOL    HW183672  16.834   5.166   7.241
11611SOL    HW283673  16.918   5.301   7.278
11612SOL     OW83674   7.142  16.492   6.512
11612SOL    HW183675   7.211  16.555   6.478
11612SOL    HW283676   7.057  16.505   6.461
11613SOL     OW83677   3.376   5.641   0.762
11613SOL    HW183678   3.414   5.622   0.671
11613SOL    HW283679   3.348   5.737   0.767
11614SOL     OW83680   9.934   2.617   0.357
11614SOL    HW183681  10.025   2.659   0.355
11614SOL    HW283682   9.932   2.546   0.428
11615SOL     OW83683  12.631  13.774   0.880
11615SOL    HW183684  12.664  13.783   0.974
11615SOL    HW283685  12.541  13.818   0.872
11616SOL     OW83686   4.807  10.220   7.001
11616SOL    HW183687   4.843  10.157   6.932
11616SOL    HW283688   4.838  10.313   6.982
11617SOL     OW83689   2.580   8.986   1.287
11617SOL    HW183690   2.481   8.971   1.292
11617SOL    HW283691   2.603   9.029   1.200
11618SOL     OW83692   0.461   4.568   0.780
11618SOL    HW183693   0.407   4.637   0.732
11618SOL    HW283694   0.528   4.614   0.838
11619SOL     OW83695  11.083   5.183   6.618
11619SOL    HW183696  11.140   5.240   6.678
11619SOL    HW283697  11.129   5.096   6.603
11620SOL     OW83698  16.563  10.858   2.515
11620SOL    HW183699  16.466  10.849   2.535
11620SOL    HW283700  16.589  10.955   2.523
11621SOL     OW83701   4.500   7.213   8.215
11621SOL    HW183702   4.568   7.144   8.239
11621SOL    HW283703   4.546   7.298   8.191
11622SOL     OW83704   3.878  15.970   1.254
11622SOL    HW183705   3.975  15.981   1.279
11622SOL    HW283706   3.872  15.927   1.164
11623SOL     OW83707  11.353  13.324   0.367
11623SOL    HW183708  11.423  13.369   0.311
11623SOL    HW283709  11.350  13.367   0.458
11624SOL     OW83710   3.243   7.496   0.095
11624SOL    HW183711   3.201   7.559   0.160
11624SOL    HW283712   3.245   7.404   0.135
11625SOL     OW83713  15.208   5.619   6.560
11625SOL    HW183714  15.111   5.647   6.561
11625SOL    HW283715  15.231   5.584   6.469
11626SOL     OW83716  10.578   9.362   0.925
11626SOL    HW183717  10.580   9.436   0.858
11626SOL    HW283718  10.485   9.324   0.931
11627SOL     OW83719   2.877   5.010   0.150
11627SOL    HW183720   2.969   5.047   0.167
11627SOL    HW283721   2.862   5.003   0.051
11628SOL     OW83722   1.363  15.889   0.986
11628SOL    HW183723   1.434  15.947   1.025
11628SOL    HW283724   1.285  15.885   1.048
11629SOL     OW83725   3.453  14.455   1.740
11629SOL    HW183726   3.383  14.522   1.766
11629SOL    HW283727   3.420  14.363   1.758
11630SOL     OW83728   4.359   8.070   6.872
11630SOL    HW183729   4.348   7.975   6.842
11630SOL    HW283730   4.445   8.106   6.835
11631SOL     OW83731  13.114   1.123   5.900
11631SOL    HW183732  13.058   1.150   5.822
11631SOL    HW283733  13.208   1.106   5.870
11632SOL     OW83734  13.793   8.184   8.218
11632SOL    HW183735  13.799   8.186   8.317
11632SOL    HW283736  13.697   8.192   8.190
11633SOL     OW83737   8.166   5.186   0.980
11633SOL    HW183738   8.068   5.185   0.960
11633SOL    HW283739   8.217   5.190   0.894
11634SOL     OW83740   4.466  11.799   0.778
11634SOL    HW183741   4.518  11.744   0.843
11634SOL    HW283742   4.463  11.894   0.810
11635SOL     OW83743   8.115   3.147   0.923
11635SOL    HW183744   8.049   3.120   0.993
11635SOL    HW283745   8.113   3.246   0.912
11636SOL     OW83746   7.638   8.685   0.925
11636SOL    HW183747   7.662   8.726   0.837
11636SOL    HW283748   7.701   8.610   0.946
11637SOL     OW83749   5.270  14.157   2.418
11637SOL    HW183750   5.352  14.187   2.467
11637SOL    HW283751   5.189  14.183   2.470
11638SOL     OW83752  15.894   8.109   2.304
11638SOL    HW183753  15.801   8.135   2.277
11638SOL    HW283754  15.915   8.017   2.271
11639SOL     OW83755  12.128  13.481   8.042
11639SOL    HW183756  12.208  13.420   8.044
11639SOL    HW283757  12.060  13.445   7.978
11640SOL     OW83758  15.525   5.224   6.670
11640SOL    HW183759  15.595   5.231   6.741
11640SOL    HW283760  15.473   5.139   6.682
11641SOL     OW83761   3.227   5.683   6.711
11641SOL    HW183762   3.139   5.701   6.755
11641SOL    HW283763   3.300   5.720   6.768
11642SOL     OW83764   4.613   8.232   7.338
11642SOL    HW183765   4.531   8.225   7.394
11642SOL    HW283766   4.601   8.305   7.271
11643SOL     OW83767  12.914  10.758   1.695
11643SOL    HW183768  12.822  10.739   1.729
11643SOL    HW283769  12.922  10.856   1.675
11644SOL     OW83770   8.543  13.544   6.924
11644SOL    HW183771   8.480  13.492   6.868
11644SOL    HW283772   8.494  13.585   7.001
11645SOL     OW83773  12.927   9.687   7.908
11645SOL    HW183774  12.975   9.614   7.860
11645SOL    HW283775  12.926   9.769   7.852
11646SOL     OW83776   6.682  14.970   0.965
11646SOL    HW183777   6.654  14.952   0.871
11646SOL    HW283778   6.603  14.958   1.026
11647SOL     OW83779   8.517   5.023   6.888
11647SOL    HW183780   8.422   5.053   6.897
11647SOL    HW283781   8.520   4.938   6.836
11648SOL     OW83782   2.321   9.929   0.955
11648SOL    HW183783   2.342   9.913   1.051
11648SOL    HW283784   2.256  10.005   0.947
11649SOL     OW83785  14.762  13.514   7.475
11649SOL    HW183786  14.838  13.463   7.516
11649SOL    HW283787  14.777  13.522   7.377
11650SOL     OW83788   6.451  12.178   0.146
11650SOL    HW183789   6.499  12.261   0.117
11650SOL    HW283790   6.452  12.112   0.071
11651SOL     OW83791  16.775  12.190   1.175
11651SOL    HW183792  16.782  12.149   1.266
11651SOL    HW283793  16.861  12.175   1.125
11652SOL     OW83794   6.583   8.496   1.075
11652SOL    HW183795   6.550   8.402   1.064
11652SOL    HW283796   6.657   8.497   1.142
11653SOL     OW83797   5.470   8.398   7.861
11653SOL    HW183798   5.462   8.497   7.849
11653SOL    HW283799   5.494   8.356   7.773
11654SOL     OW83800   2.619  13.680   8.305
11654SOL    HW183801   2.603  13.629   8.220
11654SOL    HW283802   2.717  13.685   8.323
11655SOL     OW83803  10.075  11.199   1.789
11655SOL    HW183804  10.109  11.220   1.697
11655SOL    HW283805   9.976  11.190   1.786
11656SOL     OW83806  15.996  16.896   7.999
11656SOL    HW183807  15.898  16.900   7.981
11656SOL    HW283808  16.015  16.929   8.091
11657SOL     OW83809  13.414  12.259   0.969
11657SOL    HW183810  13.429  12.351   1.006
11657SOL    HW283811  13.468  12.193   1.021
11658SOL     OW83812  10.710  10.798   7.836
11658SOL    HW183813  10.641  10.788   7.764
11658SOL    HW283814  10.722  10.895   7.857
11659SOL     OW83815  13.739   1.035   8.154
11659SOL    HW183816  13.756   0.988   8.241
11659SOL    HW283817  13.669   0.986   8.102
11660SOL     OW83818  13.596   1.095   1.427
11660SOL    HW183819  13.507   1.094   1.472
11660SOL    HW283820  13.633   1.002   1.425
11661SOL     OW83821  13.742   5.100   5.874
11661SOL    HW183822  13.787   5.178   5.919
11661SOL    HW283823  13.764   5.016   5.923
11662SOL     OW83824  15.981   5.770   6.149
11662SOL    HW183825  15.981   5.850   6.209
11662SOL    HW283826  16.074   5.736   6.138
11663SOL     OW83827   2.262   7.932   0.785
11663SOL    HW183828   2.204   7.967   0.712
11663SOL    HW283829   2.358   7.947   0.762
11664SOL     OW83830   5.426  11.808   0.919
11664SOL    HW183831   5.371  11.727   0.935
11664SOL    HW283832   5.370  11.879   0.877
11665SOL     OW83833   5.163  13.625   8.073
11665SOL    HW183834   5.099  13.555   8.041
11665SOL    HW283835   5.172  13.619   8.173
11666SOL     OW83836   8.908  15.981   2.052
11666SOL    HW183837   8.979  15.913   2.070
11666SOL    HW283838   8.920  16.058   2.114
11667SOL     OW83839  10.754   8.549   0.084
11667SOL    HW183840  10.669   8.602   0.091
11667SOL    HW283841  10.780   8.516   0.175
11668SOL     OW83842   1.409   3.639   6.864
11668SOL    HW183843   1.415   3.651   6.764
11668SOL    HW283844   1.470   3.566   6.892
11669SOL     OW83845  14.288   6.138   6.117
11669SOL    HW183846  14.303   6.051   6.164
11669SOL    HW283847  14.243   6.121   6.029
11670SOL     OW83848  11.341  15.621   0.980
11670SOL    HW183849  11.267  15.688   0.983
11670SOL    HW283850  11.368  15.597   1.073
11671SOL     OW83851   9.091  11.560   0.054
11671SOL    HW183852   9.034  11.606   0.121
11671SOL    HW283853   9.034  11.501   8.450
11672SOL     OW83854   3.146   4.497   1.652
11672SOL    HW183855   3.210   4.572   1.635
11672SOL    HW283856   3.158   4.464   1.746
11673SOL     OW83857  12.034   0.200   8.323
11673SOL    HW183858  12.114   0.258   8.311
11673SOL    HW283859  11.951   0.256   8.323
11674SOL     OW83860   3.485   9.029   2.466
11674SOL    HW183861   3.584   9.021   2.460
11674SOL    HW283862   3.460   9.078   2.550
11675SOL     OW83863   5.303   5.163   6.631
11675SOL    HW183864   5.348   5.204   6.553
11675SOL    HW283865   5.313   5.063   6.627
11676SOL     OW83866   0.170   5.043   6.413
11676SOL    HW183867   0.255   5.009   6.453
11676SOL    HW283868   0.153   4.996   6.326
11677SOL     OW83869   7.221   9.836   6.361
11677SOL    HW183870   7.321   9.845   6.360
11677SOL    HW283871   7.193   9.778   6.285
11678SOL     OW83872   3.591   8.833   0.396
11678SOL    HW183873   3.555   8.869   0.310
11678SOL    HW283874   3.687   8.809   0.386
11679SOL     OW83875   9.542  10.202   0.867
11679SOL    HW183876   9.482  10.200   0.787
11679SOL    HW283877   9.633  10.168   0.842
11680SOL     OW83878  14.479   5.044   7.794
11680SOL    HW183879  14.437   5.030   7.705
11680SOL    HW283880  14.430   4.990   7.863
11681SOL     OW83881   1.040   5.682   0.667
11681SOL    HW183882   1.095   5.603   0.693
11681SOL    HW283883   1.017   5.677   0.570
11682SOL     OW83884   7.384  14.662   8.142
11682SOL    HW183885   7.300  14.624   8.104
11682SOL    HW283886   7.420  14.602   8.213
11683SOL     OW83887   7.292   6.757   1.732
11683SOL    HW183888   7.301   6.685   1.801
11683SOL    HW283889   7.261   6.841   1.775
11684SOL     OW83890   6.368  13.116   7.397
11684SOL    HW183891   6.331  13.206   7.373
11684SOL    HW283892   6.427  13.124   7.477
11685SOL     OW83893  11.213   4.504   1.740
11685SOL    HW183894  11.282   4.453   1.792
11685SOL    HW283895  11.259   4.568   1.678
11686SOL     OW83896  12.057  10.477   7.210
11686SOL    HW183897  12.077  10.446   7.117
11686SOL    HW283898  12.002  10.408   7.257
11687SOL     OW83899  10.357  15.583   8.278
11687SOL    HW183900  10.323  15.489   8.289
11687SOL    HW283901  10.324  15.620   8.191
11688SOL     OW83902  10.191   6.953   7.053
11688SOL    HW183903  10.242   6.889   7.110
11688SOL    HW283904  10.094   6.948   7.077
11689SOL     OW83905   4.071   4.055   0.782
11689SOL    HW183906   4.085   4.145   0.740
11689SOL    HW283907   4.133   4.044   0.859
11690SOL     OW83908   4.278  13.581   2.163
11690SOL    HW183909   4.286  13.494   2.212
11690SOL    HW283910   4.252  13.653   2.228
11691SOL     OW83911   9.568   2.794   6.635
11691SOL    HW183912   9.655   2.750   6.615
11691SOL    HW283913   9.529   2.754   6.718
11692SOL     OW83914   2.582   8.096   1.354
11692SOL    HW183915   2.557   8.054   1.266
11692SOL    HW283916   2.660   8.156   1.342
11693SOL     OW83917  13.302  12.416   7.801
11693SOL    HW183918  13.265  12.323   7.798
11693SOL    HW283919  13.374  12.421   7.870
11694SOL     OW83920   0.623   2.376   6.528
11694SOL    HW183921   0.635   2.472   6.504
11694SOL    HW283922   0.627   2.319   6.446
11695SOL     OW83923   4.115   7.607   1.303
11695SOL    HW183924   4.094   7.696   1.345
11695SOL    HW283925   4.144   7.621   1.208
11696SOL     OW83926  16.873  13.737   7.194
11696SOL    HW183927  16.828  13.767   7.111
11696SOL    HW283928  16.931  13.658   7.175
11697SOL     OW83929   4.927   0.491   7.072
11697SOL    HW183930   4.941   0.583   7.035
11697SOL    HW283931   4.830   0.469   7.072
11698SOL     OW83932   1.613   2.064   8.286
11698SOL    HW183933   1.615   2.104   8.194
11698SOL    HW283934   1.550   1.986   8.287
11699SOL     OW83935   0.793   0.316   1.900
11699SOL    HW183936   0.709   0.277   1.939
11699SOL    HW283937   0.853   0.346   1.974
11700SOL     OW83938   6.362   4.593   0.463
11700SOL    HW183939   6.451   4.639   0.465
11700SOL    HW283940   6.301   4.636   0.530
11701SOL     OW83941   0.110  11.464   7.649
11701SOL    HW183942   0.105  11.564   7.650
11701SOL    HW283943   0.085  11.428   7.739
11702SOL     OW83944   8.089   1.678   0.874
11702SOL    HW183945   8.182   1.641   0.873
11702SOL    HW283946   8.039   1.640   0.952
11703SOL     OW83947   8.501   7.676   0.623
11703SOL    HW183948   8.500   7.760   0.569
11703SOL    HW283949   8.409   7.658   0.658
11704SOL     OW83950   6.285   4.226   1.333
11704SOL    HW183951   6.310   4.322   1.319
11704SOL    HW283952   6.280   4.206   1.431
11705SOL     OW83953  11.648  14.810   0.850
11705SOL    HW183954  11.697  14.879   0.797
11705SOL    HW283955  11.606  14.853   0.930
11706SOL     OW83956   8.145  12.395   6.430
11706SOL    HW183957   8.179  12.331   6.362
11706SOL    HW283958   8.080  12.458   6.388
11707SOL     OW83959  10.623   2.303   7.897
11707SOL    HW183960  10.555   2.376   7.894
11707SOL    HW283961  10.686   2.319   7.973
11708SOL     OW83962   5.697  16.960   8.254
11708SOL    HW183963   5.791  16.926   8.259
11708SOL    HW283964   5.633  16.886   8.274
11709SOL     OW83965   4.664   5.823   0.207
11709SOL    HW183966   4.613   5.885   0.146
11709SOL    HW283967   4.709   5.876   0.279
11710SOL     OW83968  10.989  14.944   8.238
11710SOL    HW183969  11.042  15.015   8.285
11710SOL    HW283970  11.050  14.870   8.209
11711SOL     OW83971  11.069  13.239   6.768
11711SOL    HW183972  11.092  13.312   6.703
11711SOL    HW283973  11.150  13.217   6.823
11712SOL     OW83974  11.199   7.878   7.886
11712SOL    HW183975  11.206   7.974   7.860
11712SOL    HW283976  11.256   7.823   7.825
11713SOL     OW83977  13.245  11.555   0.363
11713SOL    HW183978  13.247  11.590   0.269
11713SOL    HW283979  13.266  11.458   0.362
11714SOL     OW83980   9.715  16.876   7.022
11714SOL    HW183981   9.671  16.959   6.988
11714SOL    HW283982   9.710  16.805   6.952
11715SOL     OW83983   4.940  16.769   2.360
11715SOL    HW183984   4.945  16.670   2.349
11715SOL    HW283985   4.893  16.790   2.446
11716SOL     OW83986   9.448   1.034   1.521
11716SOL    HW183987   9.375   1.080   1.470
11716SOL    HW283988   9.532   1.035   1.468
11717SOL     OW83989   7.619   4.530   7.541
11717SOL    HW183990   7.684   4.508   7.468
11717SOL    HW283991   7.533   4.481   7.525
11718SOL     OW83992  12.543  15.139   8.112
11718SOL    HW183993  12.600  15.217   8.087
11718SOL    HW283994  12.499  15.156   8.200
11719SOL     OW83995   5.394   0.113   1.516
11719SOL    HW183996   5.483   0.068   1.523
11719SOL    HW283997   5.382   0.147   1.422
11720SOL     OW83998  11.943   3.778   6.497
11720SOL    HW183999  11.957   3.800   6.401
11720SOL    HW284000  11.998   3.840   6.554
11721SOL     OW84001   9.204   5.554   1.210
11721SOL    HW184002   9.289   5.523   1.252
11721SOL    HW284003   9.128   5.496   1.241
11722SOL     OW84004   0.263   8.683   8.388
11722SOL    HW184005   0.298   8.599   8.429
11722SOL    HW284006   0.175   8.706   8.429
11723SOL     OW84007   0.313  13.058   1.487
11723SOL    HW184008   0.372  12.981   1.464
11723SOL    HW284009   0.218  13.028   1.487
11724SOL     OW84010   7.563  15.074   2.008
11724SOL    HW184011   7.623  15.017   2.064
11724SOL    HW284012   7.558  15.036   1.916
11725SOL     OW84013  10.617   7.810   7.783
11725SOL    HW184014  10.614   7.834   7.880
11725SOL    HW284015  10.546   7.862   7.734
11726SOL     OW84016  13.227   4.211   8.232
11726SOL    HW184017  13.256   4.154   8.155
11726SOL    HW284018  13.174   4.155   8.296
11727SOL     OW84019  16.415  15.757   1.780
11727SOL    HW184020  16.373  15.848   1.786
11727SOL    HW284021  16.368  15.695   1.843
11728SOL     OW84022  14.902   0.241   0.847
11728SOL    HW184023  14.875   0.167   0.785
11728SOL    HW284024  15.001   0.246   0.853
11729SOL     OW84025   7.900  12.254   1.332
11729SOL    HW184026   7.991  12.214   1.324
11729SOL    HW284027   7.848  12.205   1.402
11730SOL     OW84028  12.120   6.987   6.017
11730SOL    HW184029  12.212   7.026   6.016
11730SOL    HW284030  12.061   7.041   5.957
11731SOL     OW84031   2.521   1.549   7.544
11731SOL    HW184032   2.592   1.590   7.601
11731SOL    HW284033   2.542   1.452   7.531
11732SOL     OW84034   7.221   4.660   0.935
11732SOL    HW184035   7.231   4.756   0.960
11732SOL    HW284036   7.167   4.613   1.005
11733SOL     OW84037  14.454  11.361   7.960
11733SOL    HW184038  14.418  11.346   7.868
11733SOL    HW284039  14.554  11.352   7.958
11734SOL     OW84040  13.775   7.101   1.271
11734SOL    HW184041  13.823   7.187   1.258
11734SOL    HW284042  13.834   7.036   1.319
11735SOL     OW84043   8.086   0.697   1.632
11735SOL    HW184044   8.057   0.780   1.679
11735SOL    HW284045   8.010   0.662   1.577
11736SOL     OW84046   6.888  14.033   7.240
11736SOL    HW184047   6.905  13.965   7.312
11736SOL    HW284048   6.972  14.049   7.189
11737SOL     OW84049   3.173  12.769   7.988
11737SOL    HW184050   3.201  12.681   8.025
11737SOL    HW284051   3.113  12.815   8.054
11738SOL     OW84052   7.735   5.963   2.635
11738SOL    HW184053   7.707   5.981   2.730
11738SOL    HW284054   7.655   5.971   2.575
11739SOL     OW84055   5.549  15.025   0.594
11739SOL    HW184056   5.586  15.074   0.673
11739SOL    HW284057   5.603  14.942   0.579
11740SOL     OW84058  11.451   1.071   7.349
11740SOL    HW184059  11.372   1.049   7.291
11740SOL    HW284060  11.513   1.130   7.298
11741SOL     OW84061  14.090   2.866   0.918
11741SOL    HW184062  14.157   2.816   0.864
11741SOL    HW284063  14.136   2.934   0.974
11742SOL     OW84064   4.585  13.049   1.387
11742SOL    HW184065   4.502  13.026   1.335
11742SOL    HW284066   4.650  13.094   1.327
11743SOL     OW84067   0.578   9.802   1.777
11743SOL    HW184068   0.567   9.767   1.684
11743SOL    HW284069   0.506   9.764   1.835
11744SOL     OW84070  13.828  14.228   8.180
11744SOL    HW184071  13.833  14.306   8.117
11744SOL    HW284072  13.818  14.263   8.274
11745SOL     OW84073  16.376  15.532   8.203
11745SOL    HW184074  16.388  15.525   8.302
11745SOL    HW284075  16.451  15.586   8.165
11746SOL     OW84076  13.366  14.078   7.005
11746SOL    HW184077  13.383  14.176   7.014
11746SOL    HW284078  13.437  14.037   6.948
11747SOL     OW84079   2.515  15.919   8.010
11747SOL    HW184080   2.550  15.952   7.922
11747SOL    HW284081   2.584  15.932   8.081
11748SOL     OW84082   6.247  11.491   7.984
11748SOL    HW184083   6.244  11.444   8.073
11748SOL    HW284084   6.336  11.534   7.972
11749SOL     OW84085  10.909  16.096   7.160
11749SOL    HW184086  10.893  16.024   7.093
11749SOL    HW284087  10.970  16.165   7.120
11750SOL     OW84088   9.049   4.846   6.866
11750SOL    HW184089   9.019   4.902   6.943
11750SOL    HW284090   9.136   4.882   6.831
11751SOL     OW84091  12.336  15.816   1.495
11751SOL    HW184092  12.411  15.820   1.429
11751SOL    HW284093  12.347  15.736   1.554
11752SOL     OW84094   1.786   6.997   0.358
11752SOL    HW184095   1.800   7.009   0.456
11752SOL    HW284096   1.859   7.042   0.307
11753SOL     OW84097  13.009  14.455   0.494
11753SOL    HW184098  12.920  14.482   0.456
11753SOL    HW284099  13.028  14.509   0.576
11754SOL     OW84100  11.957  16.545   7.972
11754SOL    HW184101  12.005  16.462   8.002
11754SOL    HW284102  11.893  16.522   7.899
11755SOL     OW84103   4.280  10.596   7.894
11755SOL    HW184104   4.231  10.674   7.856
11755SOL    HW284105   4.226  10.513   7.880
11756SOL     OW84106  13.010   3.381   1.191
11756SOL    HW184107  13.083   3.394   1.258
11756SOL    HW284108  12.976   3.287   1.196
11757SOL     OW84109  12.338  12.170   1.205
11757SOL    HW184110  12.299  12.256   1.237
11757SOL    HW284111  12.277  12.094   1.226
11758SOL     OW84112  13.779   3.670   0.241
11758SOL    HW184113  13.781   3.638   0.336
11758SOL    HW284114  13.871   3.662   0.202
11759SOL     OW84115   7.680   3.869   7.554
11759SOL    HW184116   7.594   3.894   7.511
11759SOL    HW284117   7.669   3.865   7.653
11760SOL     OW84118  13.836   9.978   1.187
11760SOL    HW184119  13.910   9.986   1.254
11760SOL    HW284120  13.795   9.887   1.193
11761SOL     OW84121   2.704   4.788   7.890
11761SOL    HW184122   2.664   4.698   7.903
11761SOL    HW284123   2.782   4.783   7.828
11762SOL     OW84124   0.992  14.698   0.140
11762SOL    HW184125   1.060  14.753   0.092
11762SOL    HW284126   0.903  14.742   0.135
11763SOL     OW84127   5.173  15.714   1.178
11763SOL    HW184128   5.124  15.649   1.237
11763SOL    HW284129   5.137  15.709   1.085
11764SOL     OW84130   6.559   5.988   0.361
11764SOL    HW184131   6.467   6.026   0.350
11764SOL    HW284132   6.607   5.989   0.274
11765SOL     OW84133   5.364   7.354   0.434
11765SOL    HW184134   5.265   7.355   0.450
11765SOL    HW284135   5.392   7.263   0.407
11766SOL     OW84136   5.160  15.616   6.956
11766SOL    HW184137   5.133  15.633   7.051
11766SOL    HW284138   5.085  15.570   6.908
11767SOL     OW84139   1.836  16.851   0.414
11767SOL    HW184140   1.878  16.916   0.478
11767SOL    HW284141   1.739  16.872   0.405
11768SOL     OW84142  12.673  16.715   6.968
11768SOL    HW184143  12.595  16.680   6.915
11768SOL    HW284144  12.738  16.641   6.983
11769SOL     OW84145  15.499  11.681   1.843
11769SOL    HW184146  15.419  11.692   1.784
11769SOL    HW284147  15.565  11.619   1.800
11770SOL     OW84148   5.870   6.883   2.741
11770SOL    HW184149   5.776   6.889   2.774
11770SOL    HW284150   5.931   6.925   2.808
11771SOL     OW84151   1.793  14.521   8.348
11771SOL    HW184152   1.870  14.473   8.306
11771SOL    HW284153   1.824  14.570   8.429
11772SOL     OW84154  16.804  13.106   1.428
11772SOL    HW184155  16.813  13.155   1.341
11772SOL    HW284156  16.718  13.055   1.429
11773SOL     OW84157  16.554  15.361   6.259
11773SOL    HW184158  16.563  15.275   6.209
11773SOL    HW284159  16.542  15.342   6.356
11774SOL     OW84160   1.015  10.573   1.775
11774SOL    HW184161   1.025  10.550   1.872
11774SOL    HW284162   1.005  10.489   1.722
11775SOL     OW84163  14.557   8.071   0.602
11775SOL    HW184164  14.560   7.989   0.545
11775SOL    HW284165  14.636   8.072   0.663
11776SOL     OW84166   8.379   5.379   6.221
11776SOL    HW184167   8.373   5.405   6.125
11776SOL    HW284168   8.427   5.291   6.229
11777SOL     OW84169  11.403  15.963   0.613
11777SOL    HW184170  11.392  16.027   0.689
11777SOL    HW284171  11.405  15.870   0.649
11778SOL     OW84172   9.096  13.576   0.308
11778SOL    HW184173   9.070  13.633   0.230
11778SOL    HW284174   9.045  13.606   0.389
11779SOL     OW84175   3.358  16.613   7.800
11779SOL    HW184176   3.415  16.621   7.881
11779SOL    HW284177   3.371  16.694   7.741
11780SOL     OW84178   6.449   5.121   0.172
11780SOL    HW184179   6.429   5.198   0.233
11780SOL    HW284180   6.460   5.038   0.226
11781SOL     OW84181   8.224  10.090   8.138
11781SOL    HW184182   8.155  10.157   8.163
11781SOL    HW284183   8.311  10.136   8.120
11782SOL     OW84184   5.019  16.212   7.447
11782SOL    HW184185   5.076  16.193   7.368
11782SOL    HW284186   5.054  16.162   7.526
11783SOL     OW84187   5.723  11.659   2.351
11783SOL    HW184188   5.734  11.716   2.432
11783SOL    HW284189   5.706  11.716   2.271
11784SOL     OW84190  14.331   5.870   8.066
11784SOL    HW184191  14.374   5.795   8.015
11784SOL    HW284192  14.353   5.861   8.163
11785SOL     OW84193   1.283  14.995   0.210
11785SOL    HW184194   1.271  14.953   0.300
11785SOL    HW284195   1.278  15.094   0.218
11786SOL     OW84196   8.548  14.531   8.156
11786SOL    HW184197   8.478  14.541   8.226
11786SOL    HW284198   8.534  14.445   8.107
11787SOL     OW84199   4.418  10.129   1.691
11787SOL    HW184200   4.326  10.126   1.730
11787SOL    HW284201   4.438  10.221   1.658
11788SOL     OW84202  15.556   8.695   6.637
11788SOL    HW184203  15.537   8.613   6.691
11788SOL    HW284204  15.573   8.669   6.542
11789SOL     OW84205   4.314  15.401   8.289
11789SOL    HW184206   4.289  15.321   8.344
11789SOL    HW284207   4.261  15.401   8.204
11790SOL     OW84208   0.308  12.682   2.541
11790SOL    HW184209   0.231  12.745   2.532
11790SOL    HW284210   0.339  12.680   2.636
11791SOL     OW84211  10.417   9.152   7.195
11791SOL    HW184212  10.421   9.086   7.120
11791SOL    HW284213  10.506   9.198   7.204
11792SOL     OW84214  14.242  13.012   7.862
11792SOL    HW184215  14.286  13.101   7.861
11792SOL    HW284216  14.198  12.997   7.950
11793SOL     OW84217  15.828  12.497   7.410
11793SOL    HW184218  15.916  12.455   7.391
11793SOL    HW284219  15.833  12.595   7.394
11794SOL     OW84220   3.929  11.176   8.212
11794SOL    HW184221   3.875  11.174   8.128
11794SOL    HW284222   3.975  11.265   8.220
11795SOL     OW84223  10.570  12.551   7.470
11795SOL    HW184224  10.548  12.622   7.537
11795SOL    HW284225  10.524  12.466   7.496
11796SOL     OW84226   7.436  11.914   7.854
11796SOL    HW184227   7.465  11.846   7.786
11796SOL    HW284228   7.485  11.899   7.940
11797SOL     OW84229   3.774  14.812   0.216
11797SOL    HW184230   3.739  14.811   0.310
11797SOL    HW284231   3.698  14.795   0.152
11798SOL     OW84232  11.469  12.669   1.008
11798SOL    HW184233  11.426  12.599   0.952
11798SOL    HW284234  11.401  12.712   1.067
11799SOL     OW84235   1.331  14.457   7.959
11799SOL    HW184236   1.246  14.411   7.934
11799SOL    HW284237   1.382  14.399   8.022
11800SOL     OW84238   9.605  16.939   1.354
11800SOL    HW184239   9.647   0.024   1.413
11800SOL    HW284240   9.650  16.851   1.368
11801SOL     OW84241   1.943   7.401   6.561
11801SOL    HW184242   2.027   7.454   6.545
11801SOL    HW284243   1.883   7.408   6.482
11802SOL     OW84244   3.771  10.204   6.754
11802SOL    HW184245   3.789  10.127   6.814
11802SOL    HW284246   3.848  10.269   6.758
11803SOL     OW84247   3.964   6.771   7.130
11803SOL    HW184248   3.870   6.784   7.161
11803SOL    HW284249   4.019   6.736   7.205
11804SOL     OW84250   0.988  13.885   0.970
11804SOL    HW184251   0.893  13.855   0.973
11804SOL    HW284252   0.992  13.983   0.949
11805SOL     OW84253   6.158  12.875   7.914
11805SOL    HW184254   6.085  12.820   7.873
11805SOL    HW284255   6.118  12.955   7.959
11806SOL     OW84256  10.125   7.958   6.769
11806SOL    HW184257  10.195   7.930   6.834
11806SOL    HW284258  10.103   7.882   6.708
11807SOL     OW84259   6.329   9.852   6.743
11807SOL    HW184260   6.419   9.867   6.702
11807SOL    HW284261   6.310   9.754   6.747
11808SOL     OW84262   2.774   5.709   0.320
11808SOL    HW184263   2.734   5.671   0.403
11808SOL    HW284264   2.705   5.714   0.248
11809SOL     OW84265  13.070  12.626   1.030
11809SOL    HW184266  13.009  12.549   1.048
11809SOL    HW284267  13.087  12.632   0.931
11810SOL     OW84268   2.628   2.189   7.061
11810SOL    HW184269   2.631   2.152   6.968
11810SOL    HW284270   2.655   2.285   7.059
11811SOL     OW84271   8.423  15.191   7.221
11811SOL    HW184272   8.421  15.174   7.123
11811SOL    HW284273   8.334  15.226   7.250
11812SOL     OW84274   0.032   8.867   1.095
11812SOL    HW184275  16.941   8.881   1.161
11812SOL    HW284276   0.004   8.901   1.005
11813SOL     OW84277  12.339  11.625   2.075
11813SOL    HW184278  12.253  11.586   2.106
11813SOL    HW284279  12.351  11.716   2.115
11814SOL     OW84280  14.213   8.697   6.860
11814SOL    HW184281  14.278   8.653   6.923
11814SOL    HW284282  14.209   8.795   6.879
11815SOL     OW84283   1.026   6.520   1.438
11815SOL    HW184284   1.036   6.506   1.536
11815SOL    HW284285   0.961   6.594   1.421
11816SOL     OW84286   4.422  15.072   0.539
11816SOL    HW184287   4.364  15.143   0.578
11816SOL    HW284288   4.493  15.114   0.483
11817SOL     OW84289   7.304  13.600   7.032
11817SOL    HW184290   7.237  13.675   7.023
11817SOL    HW284291   7.269  13.519   6.985
11818SOL     OW84292   5.553   3.531   7.305
11818SOL    HW184293   5.530   3.584   7.223
11818SOL    HW284294   5.626   3.466   7.284
11819SOL     OW84295   5.701   1.405   7.370
11819SOL    HW184296   5.759   1.372   7.296
11819SOL    HW284297   5.633   1.468   7.334
11820SOL     OW84298   0.949  16.317   1.922
11820SOL    HW184299   0.962  16.255   1.999
11820SOL    HW284300   0.910  16.403   1.954
11821SOL     OW84301   4.157   0.643   1.129
11821SOL    HW184302   4.160   0.551   1.090
11821SOL    HW284303   4.249   0.682   1.131
11822SOL     OW84304   1.316   0.809   1.356
11822SOL    HW184305   1.350   0.722   1.321
11822SOL    HW284306   1.242   0.842   1.297
11823SOL     OW84307   8.481   1.549   7.114
11823SOL    HW184308   8.382   1.540   7.107
11823SOL    HW284309   8.505   1.646   7.107
11824SOL     OW84310  11.104  15.463   7.447
11824SOL    HW184311  11.034  15.534   7.461
11824SOL    HW284312  11.113  15.444   7.350
11825SOL     OW84313   0.880   7.389   6.541
11825SOL    HW184314   0.949   7.317   6.534
11825SOL    HW284315   0.919   7.475   6.506
11826SOL     OW84316   0.107  14.910   0.063
11826SOL    HW184317   0.037  14.968   0.021
11826SOL    HW284318   0.092  14.815   0.036
11827SOL     OW84319   2.172  12.930   8.004
11827SOL    HW184320   2.125  12.844   7.986
11827SOL    HW284321   2.256  12.935   7.950
11828SOL     OW84322  12.407   0.852   8.155
11828SOL    HW184323  12.335   0.915   8.183
11828SOL    HW284324  12.368   0.778   8.101
11829SOL     OW84325   4.987  10.438   2.498
11829SOL    HW184326   5.057  10.494   2.541
11829SOL    HW284327   5.000  10.342   2.525
11830SOL     OW84328  13.850   4.724   0.220
11830SOL    HW184329  13.871   4.784   0.143
11830SOL    HW284330  13.928   4.722   0.283
11831SOL     OW84331  15.829  14.727   0.085
11831SOL    HW184332  15.843  14.696   0.178
11831SOL    HW284333  15.828  14.827   0.083
11832SOL     OW84334  15.472   3.817   0.419
11832SOL    HW184335  15.493   3.811   0.516
11832SOL    HW284336  15.530   3.887   0.376
11833SOL     OW84337   2.379   1.656   7.862
11833SOL    HW184338   2.283   1.627   7.864
11833SOL    HW284339   2.430   1.596   7.801
11834SOL     OW84340   7.169  14.412   1.439
11834SOL    HW184341   7.171  14.509   1.414
11834SOL    HW284342   7.260  14.384   1.469
11835SOL     OW84343   1.852   1.102   0.685
11835SOL    HW184344   1.916   1.178   0.672
11835SOL    HW284345   1.856   1.071   0.780
11836SOL     OW84346  16.463  15.799   0.204
11836SOL    HW184347  16.550  15.764   0.238
11836SOL    HW284348  16.474  15.829   0.109
11837SOL     OW84349   6.981  12.520   6.154
11837SOL    HW184350   7.015  12.431   6.124
11837SOL    HW284351   7.005  12.590   6.087
11838SOL     OW84352  12.460  16.133   6.406
11838SOL    HW184353  12.434  16.228   6.428
11838SOL    HW284354  12.556  16.131   6.379
11839SOL     OW84355  15.884  15.911   6.973
11839SOL    HW184356  15.918  15.903   6.880
11839SOL    HW284357  15.908  16.001   7.010
11840SOL     OW84358   6.482  10.156   6.510
11840SOL    HW184359   6.414  10.210   6.460
11840SOL    HW284360   6.532  10.098   6.445
11841SOL     OW84361   6.414  11.541   7.285
11841SOL    HW184362   6.392  11.605   7.358
11841SOL    HW284363   6.362  11.457   7.299
11842SOL     OW84364  10.706   3.974   0.743
11842SOL    HW184365  10.682   4.045   0.810
11842SOL    HW284366  10.678   4.004   0.652
11843SOL     OW84367   0.378   5.744   1.572
11843SOL    HW184368   0.446   5.761   1.643
11843SOL    HW284369   0.319   5.668   1.600
11844SOL     OW84370  15.827   8.374   8.034
11844SOL    HW184371  15.874   8.303   8.087
11844SOL    HW284372  15.878   8.393   7.950
11845SOL     OW84373  11.989   9.244   8.374
11845SOL    HW184374  11.891   9.241   8.353
11845SOL    HW284375  12.027   9.331   8.341
11846SOL     OW84376  13.906  13.139   7.721
11846SOL    HW184377  13.864  13.181   7.802
11846SOL    HW284378  13.943  13.211   7.662
11847SOL     OW84379   5.261   9.189   0.808
11847SOL    HW184380   5.335   9.176   0.742
11847SOL    HW284381   5.231   9.284   0.806
11848SOL     OW84382  15.757  10.251   0.809
11848SOL    HW184383  15.750  10.299   0.896
11848SOL    HW284384  15.699  10.169   0.811
11849SOL     OW84385   6.199  13.340   5.995
11849SOL    HW184386   6.292  13.376   6.004
11849SOL    HW284387   6.201  13.257   5.938
11850SOL     OW84388   7.740  14.573   0.190
11850SOL    HW184389   7.761  14.655   0.244
11850SOL    HW284390   7.644  14.575   0.163
11851SOL     OW84391   3.158   2.914   6.865
11851SOL    HW184392   3.135   2.933   6.770
11851SOL    HW284393   3.199   2.996   6.906
11852SOL     OW84394  12.745   4.758   6.073
11852SOL    HW184395  12.829   4.810   6.090
11852SOL    HW284396  12.721   4.765   5.976
11853SOL     OW84397   6.980   6.876   0.263
11853SOL    HW184398   6.900   6.936   0.264
11853SOL    HW284399   6.953   6.783   0.284
11854SOL     OW84400   9.508   6.779   5.885
11854SOL    HW184401   9.577   6.708   5.874
11854SOL    HW284402   9.550   6.869   5.879
11855SOL     OW84403  11.642  13.134   7.935
11855SOL    HW184404  11.737  13.122   7.905
11855SOL    HW284405  11.641  13.185   8.021
11856SOL     OW84406   7.295  12.539   0.708
11856SOL    HW184407   7.313  12.440   0.706
11856SOL    HW284408   7.218  12.560   0.648
11857SOL     OW84409   9.468  11.762   1.783
11857SOL    HW184410   9.373  11.792   1.799
11857SOL    HW284411   9.519  11.836   1.739
11858SOL     OW84412  14.624   6.550   6.649
11858SOL    HW184413  14.652   6.597   6.733
11858SOL    HW284414  14.585   6.617   6.586
11859SOL     OW84415  15.522   4.914   0.681
11859SOL    HW184416  15.598   4.933   0.619
11859SOL    HW284417  15.509   4.815   0.689
11860SOL     OW84418  10.912   6.578   6.917
11860SOL    HW184419  11.002   6.548   6.949
11860SOL    HW284420  10.909   6.572   6.817
11861SOL     OW84421   8.078   2.177   0.485
11861SOL    HW184422   8.120   2.098   0.443
11861SOL    HW284423   8.008   2.148   0.550
11862SOL     OW84424  15.168   4.806   0.954
11862SOL    HW184425  15.188   4.738   0.884
11862SOL    HW284426  15.237   4.801   1.026
11863SOL     OW84427   2.207  15.931   0.463
11863SOL    HW184428   2.216  15.867   0.539
11863SOL    HW284429   2.118  15.919   0.419
11864SOL     OW84430   2.502   4.282   7.804
11864SOL    HW184431   2.443   4.293   7.724
11864SOL    HW284432   2.582   4.228   7.780
11865SOL     OW84433  16.054  16.122   1.227
11865SOL    HW184434  16.000  16.106   1.309
11865SOL    HW284435  16.000  16.102   1.146
11866SOL     OW84436   7.387  14.745   1.547
11866SOL    HW184437   7.447  14.755   1.467
11866SOL    HW284438   7.363  14.835   1.581
11867SOL     OW84439   4.535   7.867   1.052
11867SOL    HW184440   4.514   7.802   1.125
11867SOL    HW284441   4.632   7.860   1.028
11868SOL     OW84442   8.999   5.505   0.752
11868SOL    HW184443   8.917   5.495   0.808
11868SOL    HW284444   9.023   5.602   0.745
11869SOL     OW84445   6.706  14.074   8.243
11869SOL    HW184446   6.615  14.060   8.283
11869SOL    HW284447   6.765  14.121   8.308
11870SOL     OW84448   1.784  12.895   8.330
11870SOL    HW184449   1.844  12.836   8.277
11870SOL    HW284450   1.695  12.852   8.341
11871SOL     OW84451   6.159  16.150   8.385
11871SOL    HW184452   6.072  16.157   8.337
11871SOL    HW284453   6.210  16.235   8.374
11872SOL     OW84454  10.918   1.004   7.306
11872SOL    HW184455  10.985   0.967   7.242
11872SOL    HW284456  10.828   1.004   7.265
11873SOL     OW84457  10.749   2.993   1.081
11873SOL    HW184458  10.821   3.032   1.022
11873SOL    HW284459  10.785   2.913   1.128
11874SOL     OW84460  12.207  10.825   6.334
11874SOL    HW184461  12.141  10.766   6.381
11874SOL    HW284462  12.204  10.806   6.236
11875SOL     OW84463   9.545  15.858   0.440
11875SOL    HW184464   9.540  15.957   0.457
11875SOL    HW284465   9.640  15.832   0.424
11876SOL     OW84466   3.429   8.032   6.545
11876SOL    HW184467   3.446   8.105   6.479
11876SOL    HW284468   3.403   7.948   6.497
11877SOL     OW84469   7.552   1.676   1.340
11877SOL    HW184470   7.494   1.722   1.273
11877SOL    HW284471   7.509   1.678   1.429
11878SOL     OW84472   5.032  11.720   1.503
11878SOL    HW184473   5.081  11.740   1.418
11878SOL    HW284474   5.098  11.709   1.577
11879SOL     OW84475   4.822  12.137   6.809
11879SOL    HW184476   4.804  12.184   6.722
11879SOL    HW284477   4.742  12.146   6.868
11880SOL     OW84478   1.709   9.345   7.281
11880SOL    HW184479   1.715   9.444   7.296
11880SOL    HW284480   1.791   9.314   7.232
11881SOL     OW84481   7.586   9.777   8.075
11881SOL    HW184482   7.618   9.687   8.044
11881SOL    HW284483   7.624   9.848   8.016
11882SOL     OW84484  15.048  11.409   6.526
11882SOL    HW184485  15.100  11.377   6.446
11882SOL    HW284486  14.956  11.369   6.524
11883SOL     OW84487  12.711  14.428   1.303
11883SOL    HW184488  12.646  14.499   1.276
11883SOL    HW284489  12.748  14.385   1.221
11884SOL     OW84490  11.134   8.443   0.204
11884SOL    HW184491  11.196   8.520   0.214
11884SOL    HW284492  11.094   8.444   0.112
11885SOL     OW84493  10.426   6.445   1.062
11885SOL    HW184494  10.396   6.514   0.996
11885SOL    HW284495  10.347   6.408   1.110
11886SOL     OW84496   0.738   7.506   0.671
11886SOL    HW184497   0.673   7.533   0.743
11886SOL    HW284498   0.751   7.581   0.607
11887SOL     OW84499   8.053  15.604   2.684
11887SOL    HW184500   8.061  15.560   2.774
11887SOL    HW284501   8.143  15.637   2.655
11888SOL     OW84502   7.771  10.785   0.449
11888SOL    HW184503   7.744  10.777   0.354
11888SOL    HW284504   7.709  10.731   0.506
11889SOL     OW84505   3.692   2.745   7.457
11889SOL    HW184506   3.788   2.770   7.472
11889SOL    HW284507   3.659   2.790   7.374
11890SOL     OW84508   8.395   3.370   0.070
11890SOL    HW184509   8.445   3.293   0.031
11890SOL    HW284510   8.394   3.445   0.004
11891SOL     OW84511   3.533  14.716   7.728
11891SOL    HW184512   3.484  14.764   7.656
11891SOL    HW284513   3.521  14.764   7.815
11892SOL     OW84514   3.783   5.014   0.116
11892SOL    HW184515   3.761   4.934   0.172
11892SOL    HW284516   3.771   4.991   0.019
11893SOL     OW84517   1.190   4.878   2.023
11893SOL    HW184518   1.280   4.909   2.054
11893SOL    HW284519   1.180   4.780   2.041
11894SOL     OW84520   9.882   6.008   8.084
11894SOL    HW184521   9.870   6.065   8.165
11894SOL    HW284522   9.934   5.926   8.109
11895SOL     OW84523   3.103   0.422   1.094
11895SOL    HW184524   3.079   0.425   0.997
11895SOL    HW284525   3.197   0.389   1.104
11896SOL     OW84526   4.627   5.936   1.498
11896SOL    HW184527   4.612   5.849   1.451
11896SOL    HW284528   4.720   5.967   1.481
11897SOL     OW84529  15.809   6.067   7.469
11897SOL    HW184530  15.767   6.062   7.559
11897SOL    HW284531  15.813   5.975   7.429
11898SOL     OW84532   8.345  14.498   1.487
11898SOL    HW184533   8.336  14.550   1.402
11898SOL    HW284534   8.256  14.462   1.514
11899SOL     OW84535   0.147  12.721   0.430
11899SOL    HW184536   0.159  12.815   0.463
11899SOL    HW284537   0.179  12.715   0.335
11900SOL     OW84538   7.176  10.227   0.646
11900SOL    HW184539   7.155  10.298   0.713
11900SOL    HW284540   7.265  10.187   0.666
11901SOL     OW84541   1.920  10.857   6.775
11901SOL    HW184542   1.835  10.805   6.766
11901SOL    HW284543   1.992  10.814   6.720
11902SOL     OW84544  15.867  14.218   7.407
11902SOL    HW184545  15.891  14.133   7.454
11902SOL    HW284546  15.820  14.279   7.470
11903SOL     OW84547  16.731   5.865   7.126
11903SOL    HW184548  16.654   5.929   7.120
11903SOL    HW284549  16.721   5.794   7.056
11904SOL     OW84550   5.076   6.306   0.926
11904SOL    HW184551   5.124   6.379   0.974
11904SOL    HW284552   5.081   6.322   0.828
11905SOL     OW84553   2.807   1.102   8.329
11905SOL    HW184554   2.884   1.049   8.364
11905SOL    HW284555   2.829   1.199   8.330
11906SOL     OW84556   5.492   8.503   1.020
11906SOL    HW184557   5.448   8.413   1.024
11906SOL    HW284558   5.501   8.531   0.925
11907SOL     OW84559   8.880   5.604   6.946
11907SOL    HW184560   8.820   5.532   6.982
11907SOL    HW284561   8.945   5.564   6.882
11908SOL     OW84562   5.265   2.604   7.947
11908SOL    HW184563   5.207   2.554   8.011
11908SOL    HW284564   5.230   2.592   7.854
11909SOL     OW84565  11.479   4.820   8.305
11909SOL    HW184566  11.407   4.884   8.277
11909SOL    HW284567  11.563   4.840   8.253
11910SOL     OW84568   7.782  12.431   7.480
11910SOL    HW184569   7.785  12.411   7.578
11910SOL    HW284570   7.702  12.386   7.440
11911SOL     OW84571   6.074  13.950   0.711
11911SOL    HW184572   6.161  13.994   0.691
11911SOL    HW284573   6.046  13.971   0.805
11912SOL     OW84574  10.992  14.765   2.203
11912SOL    HW184575  11.051  14.816   2.265
11912SOL    HW284576  10.896  14.787   2.222
11913SOL     OW84577   4.188   0.136   7.687
11913SOL    HW184578   4.112   0.193   7.654
11913SOL    HW284579   4.158   0.040   7.692
11914SOL     OW84580  16.496  16.436   0.766
11914SOL    HW184581  16.593  16.431   0.789
11914SOL    HW284582  16.441  16.406   0.844
11915SOL     OW84583   4.260   5.789   7.348
11915SOL    HW184584   4.335   5.737   7.389
11915SOL    HW284585   4.246   5.873   7.401
11916SOL     OW84586   5.396   3.015   8.074
11916SOL    HW184587   5.378   2.921   8.103
11916SOL    HW284588   5.361   3.029   7.982
11917SOL     OW84589   5.249  12.421   0.752
11917SOL    HW184590   5.273  12.330   0.719
11917SOL    HW284591   5.313  12.450   0.823
11918SOL     OW84592   1.618   6.891   7.421
11918SOL    HW184593   1.569   6.946   7.488
11918SOL    HW284594   1.641   6.948   7.342
11919SOL     OW84595   6.603   7.643   1.276
11919SOL    HW184596   6.684   7.628   1.219
11919SOL    HW284597   6.629   7.642   1.372
11920SOL     OW84598   7.046   5.767   7.054
11920SOL    HW184599   7.057   5.852   7.003
11920SOL    HW284600   6.980   5.781   7.127
11921SOL     OW84601   3.055   5.451   8.002
11921SOL    HW184602   3.079   5.537   8.046
11921SOL    HW284603   2.956   5.436   8.010
11922SOL     OW84604  14.395   5.268   6.740
11922SOL    HW184605  14.488   5.232   6.750
11922SOL    HW284606  14.329   5.202   6.776
11923SOL     OW84607   2.524  12.392   0.617
11923SOL    HW184608   2.573  12.344   0.544
11923SOL    HW284609   2.493  12.481   0.584
11924SOL     OW84610   5.903  16.953   6.739
11924SOL    HW184611   5.818  16.977   6.692
11924SOL    HW284612   5.958  16.894   6.681
11925SOL     OW84613   3.040  16.022   1.060
11925SOL    HW184614   3.021  15.936   1.012
11925SOL    HW284615   3.072  16.001   1.153
11926SOL     OW84616   4.045   8.168   1.703
11926SOL    HW184617   4.038   8.210   1.793
11926SOL    HW284618   4.006   8.230   1.634
11927SOL     OW84619   7.562   0.509   7.503
11927SOL    HW184620   7.520   0.454   7.575
11927SOL    HW284621   7.652   0.541   7.533
11928SOL     OW84622  11.231   5.051   6.963
11928SOL    HW184623  11.161   5.115   6.995
11928SOL    HW284624  11.308   5.102   6.925
11929SOL     OW84625  16.114   9.519   7.435
11929SOL    HW184626  16.065   9.490   7.518
11929SOL    HW284627  16.164   9.603   7.453
11930SOL     OW84628  15.878   8.545   8.406
11930SOL    HW184629  15.955   8.487   8.378
11930SOL    HW284630  15.801   8.531   8.343
11931SOL     OW84631   2.970  11.985   1.681
11931SOL    HW184632   3.020  12.069   1.704
11931SOL    HW284633   3.031  11.906   1.691
11932SOL     OW84634   5.181  13.773   0.134
11932SOL    HW184635   5.276  13.741   0.133
11932SOL    HW284636   5.168  13.835   0.212
11933SOL     OW84637   7.504  16.546   7.378
11933SOL    HW184638   7.406  16.564   7.391
11933SOL    HW284639   7.515  16.461   7.327
11934SOL     OW84640   8.232  16.428   8.297
11934SOL    HW184641   8.230  16.364   8.374
11934SOL    HW284642   8.325  16.437   8.262
11935SOL     OW84643  14.517  16.899   7.836
11935SOL    HW184644  14.467  16.887   7.750
11935SOL    HW284645  14.614  16.878   7.822
11936SOL     OW84646   3.808   0.552   0.105
11936SOL    HW184647   3.846   0.586   0.192
11936SOL    HW284648   3.709   0.569   0.103
11937SOL     OW84649  13.337   8.387   1.749
11937SOL    HW184650  13.437   8.382   1.744
11937SOL    HW284651  13.308   8.394   1.844
11938SOL     OW84652   3.027   1.255   6.856
11938SOL    HW184653   2.980   1.344   6.855
11938SOL    HW284654   3.083   1.247   6.938
11939SOL     OW84655   4.323   2.111   1.122
11939SOL    HW184656   4.282   2.104   1.031
11939SOL    HW284657   4.267   2.172   1.178
11940SOL     OW84658   8.644  14.748   8.024
11940SOL    HW184659   8.576  14.821   8.028
11940SOL    HW284660   8.607  14.666   8.068
11941SOL     OW84661   4.066  14.900   8.046
11941SOL    HW184662   3.971  14.894   8.074
11941SOL    HW284663   4.105  14.987   8.077
11942SOL     OW84664  13.198   2.233   7.087
11942SOL    HW184665  13.276   2.217   7.026
11942SOL    HW284666  13.157   2.146   7.112
11943SOL     OW84667  13.580   4.565   6.454
11943SOL    HW184668  13.602   4.520   6.540
11943SOL    HW284669  13.485   4.596   6.455
11944SOL     OW84670   8.187  10.499   1.122
11944SOL    HW184671   8.145  10.570   1.066
11944SOL    HW284672   8.213  10.422   1.064
11945SOL     OW84673   1.699  14.852   1.228
11945SOL    HW184674   1.706  14.894   1.318
11945SOL    HW284675   1.789  14.848   1.185
11946SOL     OW84676  13.240   8.389   7.616
11946SOL    HW184677  13.333   8.424   7.618
11946SOL    HW284678  13.231   8.321   7.543
11947SOL     OW84679   7.610   4.752   6.634
11947SOL    HW184680   7.609   4.652   6.638
11947SOL    HW284681   7.538   4.784   6.572
11948SOL     OW84682   6.901   5.774   2.203
11948SOL    HW184683   6.816   5.759   2.254
11948SOL    HW284684   6.978   5.737   2.255
11949SOL     OW84685   7.268   7.134   7.182
11949SOL    HW184686   7.254   7.141   7.084
11949SOL    HW284687   7.362   7.163   7.205
11950SOL     OW84688   6.955  10.737   7.918
11950SOL    HW184689   7.041  10.760   7.873
11950SOL    HW284690   6.878  10.763   7.859
11951SOL     OW84691  16.191   1.562   0.236
11951SOL    HW184692  16.219   1.545   0.142
11951SOL    HW284693  16.122   1.635   0.237
11952SOL     OW84694   0.390   2.300   1.169
11952SOL    HW184695   0.329   2.311   1.247
11952SOL    HW284696   0.480   2.268   1.201
11953SOL     OW84697   2.988   8.281   6.912
11953SOL    HW184698   3.026   8.188   6.914
11953SOL    HW284699   3.022   8.330   6.832
11954SOL     OW84700  12.508   9.414   7.696
11954SOL    HW184701  12.579   9.462   7.747
11954SOL    HW284702  12.481   9.468   7.616
11955SOL     OW84703   6.929   8.429   1.560
11955SOL    HW184704   7.020   8.447   1.522
11955SOL    HW284705   6.903   8.334   1.541
11956SOL     OW84706  15.503   5.371   0.935
11956SOL    HW184707  15.430   5.310   0.966
11956SOL    HW284708  15.535   5.342   0.845
11957SOL     OW84709   4.681   3.989   8.361
11957SOL    HW184710   4.749   3.942   8.304
11957SOL    HW284711   4.709   4.085   8.372
11958SOL     OW84712   2.246  12.937   2.422
11958SOL    HW184713   2.256  12.939   2.521
11958SOL    HW284714   2.273  12.847   2.388
11959SOL     OW84715   8.238  12.751   7.672
11959SOL    HW184716   8.209  12.736   7.577
11959SOL    HW284717   8.171  12.710   7.734
11960SOL     OW84718  10.517  14.878   7.553
11960SOL    HW184719  10.448  14.894   7.624
11960SOL    HW284720  10.602  14.926   7.579
11961SOL     OW84721   9.999   8.846   8.135
11961SOL    HW184722  10.053   8.771   8.097
11961SOL    HW284723  10.042   8.933   8.114
11962SOL     OW84724   9.237   6.346   1.175
11962SOL    HW184725   9.258   6.420   1.239
11962SOL    HW284726   9.279   6.366   1.087
11963SOL     OW84727   6.630  12.881   0.976
11963SOL    HW184728   6.695  12.865   0.902
11963SOL    HW284729   6.672  12.942   1.043
11964SOL     OW84730  12.979   0.764   7.004
11964SOL    HW184731  12.958   0.685   6.946
11964SOL    HW284732  13.066   0.804   6.977
11965SOL     OW84733  15.585  12.372   7.297
11965SOL    HW184734  15.658  12.430   7.332
11965SOL    HW284735  15.499  12.423   7.294
11966SOL     OW84736   6.084   6.012   1.952
11966SOL    HW184737   6.121   5.945   2.016
11966SOL    HW284738   6.041   6.087   2.002
11967SOL     OW84739  16.221  11.382   7.659
11967SOL    HW184740  16.258  11.474   7.645
11967SOL    HW284741  16.210  11.365   7.757
11968SOL     OW84742   7.222   3.127   0.820
11968SOL    HW184743   7.218   3.210   0.765
11968SOL    HW284744   7.301   3.130   0.880
11969SOL     OW84745   1.112  14.717   8.232
11969SOL    HW184746   1.158  14.630   8.249
11969SOL    HW284747   1.120  14.776   8.312
11970SOL     OW84748   8.985   8.901   0.820
11970SOL    HW184749   8.948   8.891   0.913
11970SOL    HW284750   8.989   8.812   0.776
11971SOL     OW84751  13.494   3.303   0.275
11971SOL    HW184752  13.567   3.252   0.322
11971SOL    HW284753  13.424   3.330   0.341
11972SOL     OW84754   6.620   3.246   8.188
11972SOL    HW184755   6.545   3.236   8.122
11972SOL    HW284756   6.668   3.159   8.198
11973SOL     OW84757  15.485   6.463   7.928
11973SOL    HW184758  15.464   6.474   8.025
11973SOL    HW284759  15.538   6.541   7.896
11974SOL     OW84760   3.122  12.509   0.639
11974SOL    HW184761   3.050  12.562   0.683
11974SOL    HW284762   3.186  12.477   0.709
11975SOL     OW84763  14.928   7.682   7.573
11975SOL    HW184764  14.893   7.763   7.526
11975SOL    HW284765  14.924   7.603   7.511
11976SOL     OW84766  14.303  13.764   1.445
11976SOL    HW184767  14.232  13.726   1.503
11976SOL    HW284768  14.393  13.732   1.476
11977SOL     OW84769   6.336   0.186   0.444
11977SOL    HW184770   6.298   0.156   0.356
11977SOL    HW284771   6.264   0.184   0.513
11978SOL     OW84772  10.500  11.768   7.084
11978SOL    HW184773  10.433  11.842   7.088
11978SOL    HW284774  10.551  11.766   7.170
11979SOL     OW84775   4.889   6.866   2.246
11979SOL    HW184776   4.814   6.930   2.257
11979SOL    HW284777   4.935   6.853   2.335
11980SOL     OW84778  12.603   7.636   7.057
11980SOL    HW184779  12.692   7.680   7.061
11980SOL    HW284780  12.562   7.653   6.967
11981SOL     OW84781   3.988  13.556   0.255
11981SOL    HW184782   4.018  13.616   0.181
11981SOL    HW284783   4.049  13.566   0.333
11982SOL     OW84784  12.136   9.239   6.693
11982SOL    HW184785  12.193   9.241   6.611
11982SOL    HW284786  12.042   9.262   6.670
11983SOL     OW84787   1.683   2.168   1.208
11983SOL    HW184788   1.605   2.113   1.240
11983SOL    HW284789   1.739   2.194   1.286
11984SOL     OW84790  14.723   0.312   6.487
11984SOL    HW184791  14.655   0.374   6.447
11984SOL    HW284792  14.764   0.356   6.567
11985SOL     OW84793  13.837   9.418   0.035
11985SOL    HW184794  13.888   9.475   0.100
11985SOL    HW284795  13.808   9.473   8.411
11986SOL     OW84796   3.366   1.510   8.084
11986SOL    HW184797   3.418   1.527   8.001
11986SOL    HW284798   3.337   1.597   8.124
11987SOL     OW84799  14.236  10.470   0.603
11987SOL    HW184800  14.277  10.382   0.576
11987SOL    HW284801  14.160  10.453   0.666
11988SOL     OW84802  15.844   9.170   1.890
11988SOL    HW184803  15.874   9.075   1.879
11988SOL    HW284804  15.744   9.174   1.890
11989SOL     OW84805  10.313   5.518   7.925
11989SOL    HW184806  10.329   5.580   8.002
11989SOL    HW284807  10.389   5.527   7.860
11990SOL     OW84808  16.179   3.092   7.897
11990SOL    HW184809  16.207   3.173   7.949
11990SOL    HW284810  16.183   3.011   7.957
11991SOL     OW84811   8.127   9.138   7.030
11991SOL    HW184812   8.070   9.080   7.088
11991SOL    HW284813   8.093   9.232   7.033
11992SOL     OW84814  13.359   1.084   5.784
11992SOL    HW184815  13.437   1.027   5.808
11992SOL    HW284816  13.390   1.163   5.730
11993SOL     OW84817   5.976  15.375   2.134
11993SOL    HW184818   5.892  15.401   2.088
11993SOL    HW284819   5.964  15.382   2.233
11994SOL     OW84820  11.730   7.892   1.416
11994SOL    HW184821  11.760   7.827   1.345
11994SOL    HW284822  11.632   7.882   1.432
11995SOL     OW84823   5.608   5.731   8.316
11995SOL    HW184824   5.533   5.683   8.361
11995SOL    HW284825   5.695   5.707   8.359
11996SOL     OW84826   3.767  14.262   2.137
11996SOL    HW184827   3.834  14.297   2.072
11996SOL    HW284828   3.792  14.168   2.163
11997SOL     OW84829  13.093   9.107   8.368
11997SOL    HW184830  13.157   9.035   8.343
11997SOL    HW284831  13.143   9.183   8.410
11998SOL     OW84832   7.886   4.577   7.954
11998SOL    HW184833   7.971   4.569   8.006
11998SOL    HW284834   7.903   4.631   7.871
11999SOL     OW84835   5.416   7.098   7.981
11999SOL    HW184836   5.395   7.050   8.066
11999SOL    HW284837   5.332   7.136   7.943
12000SOL     OW84838   0.835  13.344   8.104
12000SOL    HW184839   0.808  13.388   8.019
12000SOL    HW284840   0.933  13.324   8.102
12001SOL     OW84841   4.487   3.787   7.956
12001SOL    HW184842   4.466   3.801   7.860
12001SOL    HW284843   4.494   3.689   7.974
12002SOL     OW84844   9.255   2.207   0.678
12002SOL    HW184845   9.262   2.141   0.604
12002SOL    HW284846   9.267   2.160   0.766
12003SOL     OW84847   9.937  15.708   6.001
12003SOL    HW184848  10.019  15.715   5.943
12003SOL    HW284849   9.856  15.696   5.943
12004SOL     OW84850   3.910  14.437   2.487
12004SOL    HW184851   3.817  14.404   2.506
12004SOL    HW284852   3.976  14.381   2.537
12005SOL     OW84853  15.094  16.811   1.506
12005SOL    HW184854  15.075  16.876   1.433
12005SOL    HW284855  15.010  16.797   1.560
12006SOL     OW84856  16.173   1.041   7.156
12006SOL    HW184857  16.133   1.113   7.098
12006SOL    HW284858  16.227   0.979   7.100
12007SOL     OW84859   6.293  14.924   0.203
12007SOL    HW184860   6.393  14.916   0.200
12007SOL    HW284861   6.268  15.005   0.256
12008SOL     OW84862  13.457   3.144   1.065
12008SOL    HW184863  13.446   3.186   1.155
12008SOL    HW284864  13.550   3.111   1.054
12009SOL     OW84865  12.067  16.523   6.640
12009SOL    HW184866  12.106  16.548   6.728
12009SOL    HW284867  12.130  16.464   6.590
12010SOL     OW84868   8.248   3.277   6.992
12010SOL    HW184869   8.310   3.215   6.945
12010SOL    HW284870   8.226   3.354   6.932
12011SOL     OW84871   2.861  13.000   1.477
12011SOL    HW184872   2.783  13.063   1.473
12011SOL    HW284873   2.839  12.917   1.426
12012SOL     OW84874   2.422  11.378   0.606
12012SOL    HW184875   2.502  11.359   0.548
12012SOL    HW284876   2.371  11.455   0.566
12013SOL     OW84877   5.752  15.492   1.140
12013SOL    HW184878   5.808  15.410   1.149
12013SOL    HW284879   5.704  15.490   1.052
12014SOL     OW84880  10.291  12.049   1.685
12014SOL    HW184881  10.293  12.149   1.683
12014SOL    HW284882  10.370  12.013   1.635
12015SOL     OW84883  15.963   4.084   7.470
12015SOL    HW184884  16.054   4.103   7.507
12015SOL    HW284885  15.971   4.024   7.391
12016SOL     OW84886  12.540   5.051   6.009
12016SOL    HW184887  12.629   5.036   6.053
12016SOL    HW284888  12.553   5.056   5.910
12017SOL     OW84889  13.472   1.751   6.287
12017SOL    HW184890  13.502   1.656   6.296
12017SOL    HW284891  13.508   1.789   6.202
12018SOL     OW84892  13.808   5.375   1.415
12018SOL    HW184893  13.883   5.381   1.349
12018SOL    HW284894  13.797   5.464   1.461
12019SOL     OW84895  16.214   0.700   5.892
12019SOL    HW184896  16.179   0.717   5.800
12019SOL    HW284897  16.314   0.700   5.891
12020SOL     OW84898   9.640   3.911   0.200
12020SOL    HW184899   9.583   3.987   0.231
12020SOL    HW284900   9.614   3.828   0.248
12021SOL     OW84901  10.323   2.131   0.191
12021SOL    HW184902  10.418   2.120   0.220
12021SOL    HW284903  10.265   2.147   0.271
12022SOL     OW84904  14.785  14.393   8.145
12022SOL    HW184905  14.799  14.461   8.073
12022SOL    HW284906  14.765  14.440   8.231
12023SOL     OW84907   6.992   4.386   6.710
12023SOL    HW184908   6.896   4.390   6.683
12023SOL    HW284909   7.046   4.444   6.649
12024SOL     OW84910   3.538  10.630   0.759
12024SOL    HW184911   3.473  10.554   0.757
12024SOL    HW284912   3.630  10.596   0.743
12025SOL     OW84913   6.458  12.288   0.538
12025SOL    HW184914   6.448  12.190   0.556
12025SOL    HW284915   6.554  12.309   0.519
12026SOL     OW84916   0.167   5.957   0.173
12026SOL    HW184917   0.204   5.908   0.094
12026SOL    HW284918   0.232   6.027   0.202
12027SOL     OW84919  16.581   6.028   8.393
12027SOL    HW184920  16.518   6.039   0.016
12027SOL    HW284921  16.670   5.995   8.427
12028SOL     OW84922  16.468  10.140   7.881
12028SOL    HW184923  16.513  10.225   7.853
12028SOL    HW284924  16.417  10.155   7.965
12029SOL     OW84925  15.733   0.161   7.674
12029SOL    HW184926  15.794   0.229   7.715
12029SOL    HW284927  15.670   0.206   7.612
12030SOL     OW84928  11.591  14.667   0.021
12030SOL    HW184929  11.628  14.655   8.383
12030SOL    HW284930  11.610  14.585   0.075
12031SOL     OW84931  14.811   3.464   6.524
12031SOL    HW184932  14.774   3.371   6.530
12031SOL    HW284933  14.792   3.503   6.434
12032SOL     OW84934   9.586   0.083   6.857
12032SOL    HW184935   9.545   0.152   6.917
12032SOL    HW284936   9.516   0.045   6.797
12033SOL     OW84937   0.825   1.264   7.774
12033SOL    HW184938   0.734   1.302   7.764
12033SOL    HW284939   0.872   1.263   7.686
12034SOL     OW84940   3.914  13.917   7.475
12034SOL    HW184941   3.939  14.001   7.524
12034SOL    HW284942   3.996  13.868   7.449
12035SOL     OW84943  10.686  16.581   0.164
12035SOL    HW184944  10.615  16.569   0.234
12035SOL    HW284945  10.763  16.520   0.183
12036SOL     OW84946   7.974   8.938   1.068
12036SOL    HW184947   7.941   8.965   1.159
12036SOL    HW284948   7.903   8.955   1.001
12037SOL     OW84949   5.628  11.872   6.603
12037SOL    HW184950   5.724  11.859   6.629
12037SOL    HW284951   5.623  11.886   6.504
12038SOL     OW84952   5.810   0.114   2.321
12038SOL    HW184953   5.852   0.053   2.388
12038SOL    HW284954   5.853   0.204   2.326
12039SOL     OW84955  15.767   5.426   2.213
12039SOL    HW184956  15.827   5.431   2.134
12039SOL    HW284957  15.795   5.350   2.272
12040SOL     OW84958  11.156   2.090   6.037
12040SOL    HW184959  11.168   1.993   6.018
12040SOL    HW284960  11.170   2.143   5.954
12041SOL     OW84961   8.396   5.302   8.154
12041SOL    HW184962   8.358   5.210   8.147
12041SOL    HW284963   8.336   5.359   8.211
12042SOL     OW84964   9.036   9.104   0.446
12042SOL    HW184965   8.959   9.065   0.496
12042SOL    HW284966   9.004   9.135   0.356
12043SOL     OW84967  15.216   3.248   1.768
12043SOL    HW184968  15.266   3.323   1.725
12043SOL    HW284969  15.257   3.227   1.856
12044SOL     OW84970   9.234  10.450   0.988
12044SOL    HW184971   9.257  10.354   1.003
12044SOL    HW284972   9.151  10.472   1.039
12045SOL     OW84973  13.809   4.867   6.002
12045SOL    HW184974  13.806   4.785   6.059
12045SOL    HW284975  13.883   4.858   5.935
12046SOL     OW84976   4.570   0.349   8.220
12046SOL    HW184977   4.607   0.281   8.282
12046SOL    HW284978   4.611   0.438   8.239
12047SOL     OW84979  14.646  11.099   7.868
12047SOL    HW184980  14.730  11.050   7.845
12047SOL    HW284981  14.669  11.182   7.918
12048SOL     OW84982   2.300  14.173   0.676
12048SOL    HW184983   2.397  14.177   0.653
12048SOL    HW284984   2.246  14.192   0.594
12049SOL     OW84985   8.444  14.260   7.592
12049SOL    HW184986   8.355  14.249   7.549
12049SOL    HW284987   8.516  14.229   7.530
12050SOL     OW84988   3.699  15.497   1.224
12050SOL    HW184989   3.614  15.542   1.196
12050SOL    HW284990   3.775  15.537   1.173
12051SOL     OW84991  10.092   0.113   7.575
12051SOL    HW184992  10.064   0.021   7.604
12051SOL    HW284993  10.088   0.119   7.476
12052SOL     OW84994  14.091   2.549   8.235
12052SOL    HW184995  14.051   2.641   8.228
12052SOL    HW284996  14.177   2.554   8.285
12053SOL     OW84997   0.436   4.383   5.516
12053SOL    HW184998   0.425   4.480   5.537
12053SOL    HW284999   0.353   4.348   5.474
12054SOL     OW85000   5.774   4.815   8.322
12054SOL    HW185001   5.763   4.764   8.237
12054SOL    HW285002   5.763   4.754   8.400
12055SOL     OW85003   7.635  16.774   7.289
12055SOL    HW185004   7.588  16.693   7.324
12055SOL    HW285005   7.648  16.764   7.191
12056SOL     OW85006   3.465   9.679   1.077
12056SOL    HW185007   3.550   9.631   1.055
12056SOL    HW285008   3.484   9.778   1.081
12057SOL     OW85009   0.449  15.774   0.015
12057SOL    HW185010   0.363  15.775   8.418
12057SOL    HW285011   0.447  15.845   0.085
12058SOL     OW85012  16.540   4.360   7.803
12058SOL    HW185013  16.532   4.388   7.708
12058SOL    HW285014  16.500   4.430   7.862
12059SOL     OW85015   3.285   4.003   8.210
12059SOL    HW185016   3.230   4.014   8.294
12059SOL    HW285017   3.310   4.093   8.175
12060SOL     OW85018  12.597  13.384   7.314
12060SOL    HW185019  12.671  13.317   7.316
12060SOL    HW285020  12.602  13.437   7.230
12061SOL     OW85021   0.118  15.395   1.704
12061SOL    HW185022   0.203  15.415   1.752
12061SOL    HW285023   0.053  15.470   1.719
12062SOL     OW85024  11.702   0.200   0.106
12062SOL    HW185025  11.725   0.106   0.132
12062SOL    HW285026  11.604   0.206   0.085
12063SOL     OW85027  15.770   8.103   0.605
12063SOL    HW185028  15.854   8.106   0.551
12063SOL    HW285029  15.790   8.071   0.697
12064SOL     OW85030  14.671  16.115   6.626
12064SOL    HW185031  14.716  16.188   6.573
12064SOL    HW285032  14.620  16.056   6.563
12065SOL     OW85033  14.976   8.741   7.527
12065SOL    HW185034  14.928   8.725   7.441
12065SOL    HW285035  15.067   8.699   7.524
12066SOL     OW85036   4.384  16.572   1.749
12066SOL    HW185037   4.381  16.672   1.750
12066SOL    HW285038   4.293  16.535   1.770
12067SOL     OW85039   2.673  16.867   2.831
12067SOL    HW185040   2.600  16.799   2.842
12067SOL    HW285041   2.634  16.951   2.794
12068SOL     OW85042   8.430   2.247   1.099
12068SOL    HW185043   8.495   2.173   1.118
12068SOL    HW285044   8.420   2.258   1.000
12069SOL     OW85045  15.043  11.356   0.566
12069SOL    HW185046  14.991  11.435   0.534
12069SOL    HW285047  14.994  11.312   0.641
12070SOL     OW85048  14.100   3.028   0.376
12070SOL    HW185049  14.005   2.997   0.376
12070SOL    HW285050  14.157   2.958   0.333
12071SOL     OW85051  14.161   1.278   0.923
12071SOL    HW185052  14.136   1.371   0.900
12071SOL    HW285053  14.154   1.220   0.842
12072SOL     OW85054  10.665  15.487   2.333
12072SOL    HW185055  10.761  15.473   2.357
12072SOL    HW285056  10.625  15.556   2.394
12073SOL     OW85057   7.192  12.835   7.999
12073SOL    HW185058   7.096  12.850   7.976
12073SOL    HW285059   7.222  12.902   8.067
12074SOL     OW85060  16.272  14.277   1.306
12074SOL    HW185061  16.254  14.187   1.346
12074SOL    HW285062  16.195  14.338   1.325
12075SOL     OW85063  14.925   7.197   6.325
12075SOL    HW185064  14.843   7.140   6.327
12075SOL    HW285065  14.964   7.197   6.232
12076SOL     OW85066  13.079   3.217   8.155
12076SOL    HW185067  13.058   3.121   8.141
12076SOL    HW285068  13.069   3.266   8.068
12077SOL     OW85069   7.500  12.405   2.388
12077SOL    HW185070   7.566  12.331   2.399
12077SOL    HW285071   7.421  12.390   2.447
12078SOL     OW85072  11.167   0.812   1.105
12078SOL    HW185073  11.095   0.882   1.109
12078SOL    HW285074  11.172   0.775   1.012
12079SOL     OW85075  10.323   9.244   0.891
12079SOL    HW185076  10.279   9.334   0.883
12079SOL    HW285077  10.273   9.178   0.835
12080SOL     OW85078   9.842  14.460   6.916
12080SOL    HW185079   9.849  14.431   6.821
12080SOL    HW285080   9.932  14.455   6.960
12081SOL     OW85081   2.993   0.159   6.462
12081SOL    HW185082   2.924   0.113   6.518
12081SOL    HW285083   2.994   0.118   6.371
12082SOL     OW85084   7.076  14.069   1.574
12082SOL    HW185085   7.076  14.089   1.672
12082SOL    HW285086   6.985  14.086   1.536
12083SOL     OW85087   1.399  14.718   7.281
12083SOL    HW185088   1.375  14.794   7.220
12083SOL    HW285089   1.316  14.668   7.306
12084SOL     OW85090   9.059   8.503   8.444
12084SOL    HW185091   9.053   8.412   8.402
12084SOL    HW285092   9.046   8.495   0.089
12085SOL     OW85093   7.298   9.363   7.778
12085SOL    HW185094   7.264   9.331   7.867
12085SOL    HW285095   7.232   9.426   7.738
12086SOL     OW85096  12.509   5.369   7.881
12086SOL    HW185097  12.451   5.293   7.913
12086SOL    HW285098  12.514   5.366   7.781
12087SOL     OW85099  15.862  11.449   8.026
12087SOL    HW185100  15.764  11.442   8.046
12087SOL    HW285101  15.897  11.359   8.000
12088SOL     OW85102   1.704  15.762   6.630
12088SOL    HW185103   1.799  15.777   6.601
12088SOL    HW285104   1.703  15.731   6.725
12089SOL     OW85105  10.186  10.350   8.055
12089SOL    HW185106  10.233  10.432   8.088
12089SOL    HW285107  10.159  10.364   7.960
12090SOL     OW85108   7.087  10.462   8.032
12090SOL    HW185109   7.056  10.536   8.091
12090SOL    HW285110   7.114  10.383   8.087
12091SOL     OW85111  16.842   2.793   7.617
12091SOL    HW185112  16.886   2.868   7.666
12091SOL    HW285113  16.843   2.811   7.519
12092SOL     OW85114   1.205  13.326   7.681
12092SOL    HW185115   1.214  13.243   7.736
12092SOL    HW285116   1.123  13.376   7.710
12093SOL     OW85117  13.629  11.797   1.714
12093SOL    HW185118  13.729  11.802   1.718
12093SOL    HW285119  13.599  11.703   1.729
12094SOL     OW85120  10.678   1.216   1.065
12094SOL    HW185121  10.615   1.177   1.133
12094SOL    HW285122  10.680   1.158   0.984
12095SOL     OW85123   0.917   7.410   1.330
12095SOL    HW185124   0.983   7.374   1.396
12095SOL    HW285125   0.857   7.336   1.300
12096SOL     OW85126  16.267  15.455   7.479
12096SOL    HW185127  16.267  15.424   7.384
12096SOL    HW285128  16.342  15.411   7.528
12097SOL     OW85129  14.575  15.026   1.415
12097SOL    HW185130  14.572  14.940   1.466
12097SOL    HW285131  14.507  15.025   1.343
12098SOL     OW85132  11.928   7.541   7.574
12098SOL    HW185133  11.875   7.550   7.659
12098SOL    HW285134  11.935   7.444   7.550
12099SOL     OW85135   1.751   4.324   8.270
12099SOL    HW185136   1.720   4.418   8.277
12099SOL    HW285137   1.747   4.294   8.174
12100SOL     OW85138   5.102   7.629   0.593
12100SOL    HW185139   5.038   7.705   0.598
12100SOL    HW285140   5.097   7.575   0.677
12101SOL     OW85141   0.621  13.515   1.030
12101SOL    HW185142   0.603  13.559   1.118
12101SOL    HW285143   0.617  13.416   1.041
12102SOL     OW85144  12.168   2.115   0.424
12102SOL    HW185145  12.258   2.157   0.439
12102SOL    HW285146  12.121   2.162   0.349
12103SOL     OW85147   4.235  16.930   1.421
12103SOL    HW185148   4.334  16.929   1.408
12103SOL    HW285149   4.214  16.976   1.507
12104SOL     OW85150  11.805   2.158   0.421
12104SOL    HW185151  11.754   2.207   0.351
12104SOL    HW285152  11.903   2.168   0.404
12105SOL     OW85153  10.166  15.853   0.808
12105SOL    HW185154  10.189  15.937   0.857
12105SOL    HW285155  10.067  15.839   0.810
12106SOL     OW85156   0.314   3.607   6.955
12106SOL    HW185157   0.219   3.634   6.969
12106SOL    HW285158   0.358   3.673   6.893
12107SOL     OW85159  10.303   6.184   7.565
12107SOL    HW185160  10.289   6.116   7.493
12107SOL    HW285161  10.340   6.268   7.524
12108SOL     OW85162  13.843   0.169   6.838
12108SOL    HW185163  13.794   0.116   6.769
12108SOL    HW285164  13.821   0.134   6.929
12109SOL     OW85165   2.259   8.397   7.686
12109SOL    HW185166   2.336   8.334   7.698
12109SOL    HW285167   2.293   8.485   7.652
12110SOL     OW85168  10.027   1.814   6.696
12110SOL    HW185169  10.114   1.770   6.672
12110SOL    HW285170   9.984   1.851   6.613
12111SOL     OW85171   9.160   0.182   1.836
12111SOL    HW185172   9.199   0.176   1.928
12111SOL    HW285173   9.062   0.198   1.843
12112SOL     OW85174  11.633   0.536   2.071
12112SOL    HW185175  11.603   0.442   2.055
12112SOL    HW285176  11.581   0.598   2.013
12113SOL     OW85177  15.561   5.261   0.688
12113SOL    HW185178  15.473   5.214   0.693
12113SOL    HW285179  15.601   5.249   0.597
12114SOL     OW85180   1.701   8.368   0.026
12114SOL    HW185181   1.701   8.466   0.005
12114SOL    HW285182   1.795   8.335   0.031
12115SOL     OW85183  13.002  12.092   2.268
12115SOL    HW185184  12.987  12.160   2.196
12115SOL    HW285185  12.938  12.109   2.343
12116SOL     OW85186   2.788   6.166   6.715
12116SOL    HW185187   2.811   6.231   6.643
12116SOL    HW285188   2.694   6.134   6.702
12117SOL     OW85189   1.517   7.941   1.073
12117SOL    HW185190   1.554   8.023   1.030
12117SOL    HW285191   1.428   7.962   1.112
12118SOL     OW85192   8.678   3.932   0.230
12118SOL    HW185193   8.595   3.970   0.269
12118SOL    HW285194   8.656   3.848   0.180
12119SOL     OW85195   5.542  14.181   0.220
12119SOL    HW185196   5.588  14.223   0.142
12119SOL    HW285197   5.604  14.178   0.297
12120SOL     OW85198  16.586   2.720   7.675
12120SOL    HW185199  16.680   2.745   7.651
12120SOL    HW285200  16.585   2.673   7.763
12121SOL     OW85201  14.654   4.724   0.572
12121SOL    HW185202  14.720   4.768   0.633
12121SOL    HW285203  14.650   4.626   0.594
12122SOL     OW85204   5.090   5.452   2.148
12122SOL    HW185205   5.038   5.367   2.137
12122SOL    HW285206   5.106   5.470   2.245
12123SOL     OW85207  16.865   2.065   0.203
12123SOL    HW185208  16.818   2.007   0.136
12123SOL    HW285209  16.955   2.089   0.168
12124SOL     OW85210  15.736  11.107   0.372
12124SOL    HW185211  15.821  11.127   0.420
12124SOL    HW285212  15.659  11.139   0.427
12125SOL     OW85213   2.240  10.995   1.370
12125SOL    HW185214   2.269  11.070   1.311
12125SOL    HW285215   2.181  10.933   1.319
12126SOL     OW85216   6.323  16.126   6.160
12126SOL    HW185217   6.241  16.167   6.122
12126SOL    HW285218   6.404  16.167   6.119
12127SOL     OW85219   9.614   8.966   0.117
12127SOL    HW185220   9.606   8.994   0.021
12127SOL    HW285221   9.619   8.866   0.122
12128SOL     OW85222   4.227   5.401   8.164
12128SOL    HW185223   4.205   5.386   8.067
12128SOL    HW285224   4.172   5.477   8.198
12129SOL     OW85225  15.661  10.440   0.276
12129SOL    HW185226  15.694  10.496   0.352
12129SOL    HW285227  15.592  10.376   0.310
12130SOL     OW85228  12.289  11.040   1.443
12130SOL    HW185229  12.375  11.091   1.446
12130SOL    HW285230  12.279  10.997   1.353
12131SOL     OW85231   5.944  10.399   6.150
12131SOL    HW185232   5.878  10.384   6.077
12131SOL    HW285233   6.022  10.337   6.137
12132SOL     OW85234   4.513  16.758   7.672
12132SOL    HW185235   4.585  16.692   7.693
12132SOL    HW285236   4.435  16.711   7.632
12133SOL     OW85237  10.244   0.293   0.015
12133SOL    HW185238  10.317   0.350   8.433
12133SOL    HW285239  10.177   0.351   0.062
12134SOL     OW85240  12.285  16.317   1.308
12134SOL    HW185241  12.370  16.344   1.354
12134SOL    HW285242  12.274  16.371   1.225
12135SOL     OW85243  15.659   7.191   6.973
12135SOL    HW185244  15.729   7.157   6.910
12135SOL    HW285245  15.703   7.243   7.047
12136SOL     OW85246   4.622   6.840   7.576
12136SOL    HW185247   4.529   6.833   7.610
12136SOL    HW285248   4.641   6.763   7.515
12137SOL     OW85249   9.295   6.563   0.282
12137SOL    HW185250   9.336   6.559   0.191
12137SOL    HW285251   9.216   6.501   0.286
12138SOL     OW85252  11.150   7.366   0.782
12138SOL    HW185253  11.168   7.331   0.874
12138SOL    HW285254  11.100   7.452   0.788
12139SOL     OW85255  16.622   8.682   7.896
12139SOL    HW185256  16.679   8.751   7.941
12139SOL    HW285257  16.675   8.635   7.826
12140SOL     OW85258   6.922   3.635   6.920
12140SOL    HW185259   7.009   3.618   6.873
12140SOL    HW285260   6.870   3.550   6.925
12141SOL     OW85261  13.857  14.443   7.991
12141SOL    HW185262  13.929  14.512   8.000
12141SOL    HW285263  13.859  14.403   7.899
12142SOL     OW85264  13.814   4.547   7.123
12142SOL    HW185265  13.796   4.452   7.148
12142SOL    HW285266  13.727   4.596   7.114
12143SOL     OW85267  16.493  13.950   1.522
12143SOL    HW185268  16.408  13.983   1.483
12143SOL    HW285269  16.553  14.027   1.542
12144SOL     OW85270   8.800  11.417   7.454
12144SOL    HW185271   8.825  11.375   7.367
12144SOL    HW285272   8.804  11.349   7.527
12145SOL     OW85273   0.551   5.343   6.982
12145SOL    HW185274   0.479   5.357   7.050
12145SOL    HW285275   0.511   5.342   6.890
12146SOL     OW85276   9.355  14.533   8.168
12146SOL    HW185277   9.329  14.599   8.097
12146SOL    HW285278   9.335  14.572   8.258
12147SOL     OW85279   9.928   4.892   7.336
12147SOL    HW185280  10.024   4.884   7.364
12147SOL    HW285281   9.904   4.815   7.277
12148SOL     OW85282  16.219   3.839   7.635
12148SOL    HW185283  16.306   3.809   7.673
12148SOL    HW285284  16.199   3.788   7.551
12149SOL     OW85285  12.303  13.679   7.948
12149SOL    HW185286  12.242  13.612   7.991
12149SOL    HW285287  12.392  13.677   7.993
12150SOL     OW85288   0.981   8.586   2.030
12150SOL    HW185289   0.888   8.551   2.040
12150SOL    HW285290   0.984   8.682   2.061
12151SOL     OW85291  10.809   7.865   0.494
12151SOL    HW185292  10.835   7.959   0.516
12151SOL    HW285293  10.818   7.850   0.395
12152SOL     OW85294   5.312   8.301   0.634
12152SOL    HW185295   5.320   8.400   0.625
12152SOL    HW285296   5.267   8.263   0.552
12153SOL     OW85297  15.862  15.130   0.392
12153SOL    HW185298  15.768  15.118   0.358
12153SOL    HW285299  15.920  15.059   0.354
12154SOL     OW85300   2.589   6.866   7.594
12154SOL    HW185301   2.586   6.780   7.544
12154SOL    HW285302   2.641   6.854   7.679
12155SOL     OW85303  14.801   3.400   0.751
12155SOL    HW185304  14.878   3.436   0.699
12155SOL    HW285305  14.822   3.307   0.782
12156SOL     OW85306  13.364   5.988   6.199
12156SOL    HW185307  13.392   6.078   6.232
12156SOL    HW285308  13.368   5.987   6.099
12157SOL     OW85309  12.824  11.711   7.231
12157SOL    HW185310  12.912  11.702   7.276
12157SOL    HW285311  12.801  11.626   7.183
12158SOL     OW85312  10.226   2.989   1.543
12158SOL    HW185313  10.226   2.933   1.626
12158SOL    HW285314  10.255   3.082   1.567
12159SOL     OW85315   3.524   5.999   0.056
12159SOL    HW185316   3.617   6.028   0.033
12159SOL    HW285317   3.494   6.046   0.139
12160SOL     OW85318   0.311  15.495   8.112
12160SOL    HW185319   0.238  15.513   8.047
12160SOL    HW285320   0.360  15.412   8.085
12161SOL     OW85321   9.126   2.276   7.004
12161SOL    HW185322   9.188   2.264   7.081
12161SOL    HW285323   9.138   2.367   6.965
12162SOL     OW85324  14.438  12.543   7.508
12162SOL    HW185325  14.479  12.458   7.539
12162SOL    HW285326  14.469  12.619   7.566
12163SOL     OW85327   4.655   8.218   8.342
12163SOL    HW185328   4.717   8.245   8.268
12163SOL    HW285329   4.561   8.245   8.318
12164SOL     OW85330  15.299   6.088   7.969
12164SOL    HW185331  15.360   6.010   7.980
12164SOL    HW285332  15.255   6.110   8.056
12165SOL     OW85333  12.977  14.970   2.157
12165SOL    HW185334  12.970  15.060   2.201
12165SOL    HW285335  13.073  14.944   2.150
12166SOL     OW85336   6.419   8.319   0.154
12166SOL    HW185337   6.467   8.265   0.085
12166SOL    HW285338   6.388   8.404   0.113
12167SOL     OW85339   4.191  15.122   8.155
12167SOL    HW185340   4.271  15.064   8.168
12167SOL    HW285341   4.155  15.149   8.244
12168SOL     OW85342  14.635   2.630   8.189
12168SOL    HW185343  14.717   2.623   8.246
12168SOL    HW285344  14.595   2.539   8.178
12169SOL     OW85345  15.871   0.984   0.023
12169SOL    HW185346  15.848   1.048   8.404
12169SOL    HW285347  15.836   1.018   0.110
12170SOL     OW85348   9.969   4.623   1.326
12170SOL    HW185349  10.015   4.534   1.316
12170SOL    HW285350   9.976   4.674   1.241
12171SOL     OW85351  14.251  15.347   6.217
12171SOL    HW185352  14.175  15.282   6.216
12171SOL    HW285353  14.220  15.436   6.184
12172SOL     OW85354   5.159  14.148   7.374
12172SOL    HW185355   5.155  14.048   7.373
12172SOL    HW285356   5.249  14.179   7.343
12173SOL     OW85357  13.302   0.036   7.157
12173SOL    HW185358  13.235  16.962   7.111
12173SOL    HW285359  13.304   0.014   7.255
12174SOL     OW85360  15.939  11.989   2.202
12174SOL    HW185361  16.002  11.920   2.238
12174SOL    HW285362  15.959  12.006   2.106
12175SOL     OW85363   8.582  10.925   7.981
12175SOL    HW185364   8.515  10.883   7.919
12175SOL    HW285365   8.611  10.858   8.049
12176SOL     OW85366  16.958  14.653   7.922
12176SOL    HW185367  16.871  14.604   7.919
12176SOL    HW285368  16.941  14.751   7.915
12177SOL     OW85369  14.302   4.162   7.688
12177SOL    HW185370  14.368   4.100   7.730
12177SOL    HW285371  14.294   4.246   7.742
12178SOL     OW85372  12.151  14.772   1.541
12178SOL    HW185373  12.203  14.728   1.468
12178SOL    HW285374  12.141  14.709   1.618
12179SOL     OW85375   1.636   8.841   8.271
12179SOL    HW185376   1.604   8.915   8.330
12179SOL    HW285377   1.688   8.879   8.194
12180SOL     OW85378  14.464   4.975   1.684
12180SOL    HW185379  14.393   4.905   1.693
12180SOL    HW285380  14.545   4.947   1.736
12181SOL     OW85381   5.219  14.823   7.223
12181SOL    HW185382   5.193  14.730   7.246
12181SOL    HW285383   5.199  14.884   7.300
12182SOL     OW85384   0.675   4.815   0.096
12182SOL    HW185385   0.751   4.865   0.054
12182SOL    HW285386   0.607   4.880   0.129
12183SOL     OW85387  16.167  15.869   7.655
12183SOL    HW185388  16.199  15.881   7.749
12183SOL    HW285389  16.074  15.833   7.655
12184SOL     OW85390   5.618   9.614   6.481
12184SOL    HW185391   5.644   9.579   6.391
12184SOL    HW285392   5.533   9.666   6.473
12185SOL     OW85393  13.509   4.888   6.171
12185SOL    HW185394  13.600   4.912   6.136
12185SOL    HW285395  13.496   4.927   6.261
12186SOL     OW85396   6.057   1.980   7.267
12186SOL    HW185397   6.005   1.899   7.291
12186SOL    HW285398   6.155   1.960   7.274
12187SOL     OW85399   5.434  11.432   5.974
12187SOL    HW185400   5.527  11.400   5.955
12187SOL    HW285401   5.405  11.495   5.903
12188SOL     OW85402   5.567   3.644   1.309
12188SOL    HW185403   5.653   3.668   1.355
12188SOL    HW285404   5.529   3.725   1.264
12189SOL     OW85405   4.095   2.848   7.020
12189SOL    HW185406   4.175   2.858   7.080
12189SOL    HW285407   4.111   2.902   6.936
12190SOL     OW85408   5.437  12.419   8.162
12190SOL    HW185409   5.403  12.501   8.207
12190SOL    HW285410   5.402  12.338   8.209
12191SOL     OW85411   5.989   9.531   8.406
12191SOL    HW185412   5.979   9.606   8.341
12191SOL    HW285413   6.039   9.563   0.033
12192SOL     OW85414   3.599   6.607   8.214
12192SOL    HW185415   3.531   6.612   8.287
12192SOL    HW285416   3.609   6.698   8.173
12193SOL     OW85417  16.931  12.039   2.622
12193SOL    HW185418  16.967  12.124   2.659
12193SOL    HW285419  16.838  12.053   2.589
12194SOL     OW85420   6.136   0.716   1.408
12194SOL    HW185421   6.185   0.802   1.424
12194SOL    HW285422   6.141   0.659   1.490
12195SOL     OW85423   9.645  16.192   0.283
12195SOL    HW185424   9.744  16.197   0.297
12195SOL    HW285425   9.626  16.154   0.193
12196SOL     OW85426  16.918   1.320   8.199
12196SOL    HW185427  16.951   1.261   8.125
12196SOL    HW285428  16.821   1.338   8.187
12197SOL     OW85429  12.728  13.890   7.618
12197SOL    HW185430  12.662  13.873   7.691
12197SOL    HW285431  12.816  13.848   7.642
12198SOL     OW85432   6.854   6.916   1.999
12198SOL    HW185433   6.791   6.993   2.009
12198SOL    HW285434   6.803   6.830   2.010
12199SOL     OW85435   8.681  13.326   7.029
12199SOL    HW185436   8.713  13.256   6.965
12199SOL    HW285437   8.635  13.399   6.977
12200SOL     OW85438  12.325   1.090   1.502
12200SOL    HW185439  12.421   1.111   1.523
12200SOL    HW285440  12.269   1.170   1.519
12201SOL     OW85441  14.837  16.848   7.238
12201SOL    HW185442  14.828  16.898   7.325
12201SOL    HW285443  14.793  16.759   7.247
12202SOL     OW85444  11.913   5.783   1.046
12202SOL    HW185445  11.882   5.792   0.952
12202SOL    HW285446  11.913   5.686   1.072
12203SOL     OW85447   2.476   8.494   0.694
12203SOL    HW185448   2.460   8.461   0.787
12203SOL    HW285449   2.477   8.417   0.630
12204SOL     OW85450   5.797   9.912   8.116
12204SOL    HW185451   5.816   9.865   8.031
12204SOL    HW285452   5.698   9.912   8.133
12205SOL     OW85453   9.771   6.197   0.114
12205SOL    HW185454   9.704   6.124   0.113
12205SOL    HW285455   9.751   6.260   0.189
12206SOL     OW85456   8.836  10.905   1.731
12206SOL    HW185457   8.844  11.002   1.754
12206SOL    HW285458   8.768  10.862   1.791
12207SOL     OW85459   3.484  11.906   7.903
12207SOL    HW185460   3.568  11.960   7.905
12207SOL    HW285461   3.494  11.825   7.960
12208SOL     OW85462   7.810   5.458   1.020
12208SOL    HW185463   7.878   5.528   1.043
12208SOL    HW285464   7.783   5.469   0.924
12209SOL     OW85465   2.266  15.681   7.241
12209SOL    HW185466   2.356  15.719   7.261
12209SOL    HW285467   2.268  15.582   7.254
12210SOL     OW85468  11.127   4.006   8.227
12210SOL    HW185469  11.192   3.983   8.300
12210SOL    HW285470  11.165   3.979   8.138
12211SOL     OW85471   9.333   2.887   0.576
12211SOL    HW185472   9.314   2.838   0.661
12211SOL    HW285473   9.334   2.985   0.594
12212SOL     OW85474  14.345  11.416   6.353
12212SOL    HW185475  14.384  11.340   6.301
12212SOL    HW285476  14.247  11.424   6.332
12213SOL     OW85477   5.179   9.874   2.425
12213SOL    HW185478   5.081   9.871   2.445
12213SOL    HW285479   5.228   9.905   2.506
12214SOL     OW85480  16.431  13.217   0.341
12214SOL    HW185481  16.429  13.214   0.441
12214SOL    HW285482  16.340  13.239   0.307
12215SOL     OW85483   1.873   0.956   2.153
12215SOL    HW185484   1.962   0.984   2.116
12215SOL    HW285485   1.833   1.030   2.206
12216SOL     OW85486   5.625  14.762   7.677
12216SOL    HW185487   5.703  14.750   7.616
12216SOL    HW285488   5.634  14.848   7.727
12217SOL     OW85489  10.054  10.595   7.585
12217SOL    HW185490  10.140  10.631   7.549
12217SOL    HW285491  10.070  10.504   7.624
12218SOL     OW85492   6.611   7.230   6.863
12218SOL    HW185493   6.523   7.243   6.817
12218SOL    HW285494   6.681   7.284   6.816
12219SOL     OW85495  15.884   8.620   1.292
12219SOL    HW185496  15.832   8.542   1.260
12219SOL    HW285497  15.873   8.697   1.229
12220SOL     OW85498   8.874  14.045   1.684
12220SOL    HW185499   8.821  14.028   1.601
12220SOL    HW285500   8.970  14.058   1.659
12221SOL     OW85501  14.759   8.256   0.906
12221SOL    HW185502  14.688   8.311   0.862
12221SOL    HW285503  14.829   8.317   0.943
12222SOL     OW85504  11.077   2.198   6.473
12222SOL    HW185505  11.013   2.179   6.548
12222SOL    HW285506  11.082   2.297   6.458
12223SOL     OW85507  11.006   5.775   7.421
12223SOL    HW185508  11.056   5.720   7.354
12223SOL    HW285509  11.056   5.775   7.508
12224SOL     OW85510   0.677   0.845   7.826
12224SOL    HW185511   0.645   0.886   7.741
12224SOL    HW285512   0.703   0.750   7.810
12225SOL     OW85513   1.119  12.383   1.392
12225SOL    HW185514   1.090  12.415   1.483
12225SOL    HW285515   1.169  12.455   1.346
12226SOL     OW85516   4.433  14.202   1.398
12226SOL    HW185517   4.502  14.131   1.407
12226SOL    HW285518   4.366  14.194   1.472
12227SOL     OW85519   5.083  12.485   2.325
12227SOL    HW185520   5.043  12.403   2.366
12227SOL    HW285521   5.154  12.521   2.384
12228SOL     OW85522   0.075   7.287   6.140
12228SOL    HW185523   0.000   7.346   6.109
12228SOL    HW285524   0.159   7.311   6.092
12229SOL     OW85525  10.974   1.287   0.403
12229SOL    HW185526  10.898   1.228   0.430
12229SOL    HW285527  10.990   1.356   0.474
12230SOL     OW85528  15.840  14.735   0.396
12230SOL    HW185529  15.904  14.809   0.378
12230SOL    HW285530  15.746  14.769   0.391
12231SOL     OW85531   6.518   2.160   6.900
12231SOL    HW185532   6.507   2.070   6.857
12231SOL    HW285533   6.565   2.222   6.836
12232SOL     OW85534   8.833   2.234   7.360
12232SOL    HW185535   8.741   2.246   7.396
12232SOL    HW285536   8.852   2.137   7.348
12233SOL     OW85537   7.832  10.861   1.812
12233SOL    HW185538   7.829  10.961   1.812
12233SOL    HW285539   7.923  10.831   1.781
12234SOL     OW85540  12.041   3.997   0.733
12234SOL    HW185541  12.075   3.916   0.686
12234SOL    HW285542  12.027   4.071   0.668
12235SOL     OW85543  13.336   0.080   1.387
12235SOL    HW185544  13.349   0.157   1.449
12235SOL    HW285545  13.250   0.091   1.337
12236SOL     OW85546   9.804  14.511   0.962
12236SOL    HW185547   9.799  14.609   0.944
12236SOL    HW285548   9.712  14.475   0.977
12237SOL     OW85549  12.259   4.216   7.950
12237SOL    HW185550  12.321   4.281   7.907
12237SOL    HW285551  12.224   4.152   7.881
12238SOL     OW85552   4.374   6.830   7.697
12238SOL    HW185553   4.333   6.882   7.622
12238SOL    HW285554   4.346   6.869   7.785
12239SOL     OW85555  14.453  13.634   7.909
12239SOL    HW185556  14.384  13.679   7.966
12239SOL    HW285557  14.484  13.550   7.954
12240SOL     OW85558   3.602  14.957   6.408
12240SOL    HW185559   3.636  15.045   6.374
12240SOL    HW285560   3.521  14.931   6.355
12241SOL     OW85561   8.784   2.520   7.834
12241SOL    HW185562   8.816   2.426   7.828
12241SOL    HW285563   8.859   2.583   7.814
12242SOL     OW85564  15.945   8.830   6.708
12242SOL    HW185565  16.044   8.821   6.693
12242SOL    HW285566  15.900   8.855   6.623
12243SOL     OW85567  11.049  11.955   2.246
12243SOL    HW185568  11.143  11.988   2.238
12243SOL    HW285569  11.048  11.868   2.296
12244SOL     OW85570  13.535  12.257   1.885
12244SOL    HW185571  13.559  12.160   1.891
12244SOL    HW285572  13.568  12.305   1.966
12245SOL     OW85573  12.995   6.406   6.616
12245SOL    HW185574  13.053   6.478   6.578
12245SOL    HW285575  13.036   6.316   6.597
12246SOL     OW85576   9.530  13.958   6.802
12246SOL    HW185577   9.490  13.974   6.711
12246SOL    HW285578   9.519  13.862   6.826
12247SOL     OW85579   4.691  11.621   7.782
12247SOL    HW185580   4.749  11.692   7.741
12247SOL    HW285581   4.627  11.663   7.846
12248SOL     OW85582   2.967  11.314   8.102
12248SOL    HW185583   2.894  11.381   8.113
12248SOL    HW285584   3.013  11.328   8.014
12249SOL     OW85585   7.797  16.311   6.871
12249SOL    HW185586   7.884  16.346   6.837
12249SOL    HW285587   7.723  16.343   6.812
12250SOL     OW85588  14.611  14.003   0.888
12250SOL    HW185589  14.533  13.973   0.942
12250SOL    HW285590  14.658  14.077   0.937
12251SOL     OW85591  13.153  10.306   1.913
12251SOL    HW185592  13.164  10.371   1.988
12251SOL    HW285593  13.107  10.224   1.946
12252SOL     OW85594  13.310  10.486   0.794
12252SOL    HW185595  13.391  10.518   0.746
12252SOL    HW285596  13.319  10.506   0.892
12253SOL     OW85597   6.849   9.690   1.758
12253SOL    HW185598   6.821   9.603   1.798
12253SOL    HW285599   6.866   9.756   1.832
12254SOL     OW85600   6.285  10.875   1.116
12254SOL    HW185601   6.380  10.894   1.090
12254SOL    HW285602   6.254  10.943   1.182
12255SOL     OW85603   9.930   4.337   0.116
12255SOL    HW185604   9.880   4.397   0.053
12255SOL    HW285605   9.864   4.279   0.165
12256SOL     OW85606   3.968   1.776   2.390
12256SOL    HW185607   3.870   1.794   2.387
12256SOL    HW285608   4.013   1.847   2.445
12257SOL     OW85609   8.749  15.320   7.034
12257SOL    HW185610   8.831  15.264   7.022
12257SOL    HW285611   8.764  15.410   6.993
12258SOL     OW85612  13.220  11.603   2.153
12258SOL    HW185613  13.199  11.701   2.151
12258SOL    HW285614  13.156  11.557   2.214
12259SOL     OW85615  14.059   6.932   6.844
12259SOL    HW185616  14.011   6.947   6.758
12259SOL    HW285617  13.994   6.904   6.914
12260SOL     OW85618  14.528   4.311   6.836
12260SOL    HW185619  14.577   4.223   6.833
12260SOL    HW285620  14.529   4.352   6.745
12261SOL     OW85621   7.383   0.086   7.211
12261SOL    HW185622   7.414   0.045   7.125
12261SOL    HW285623   7.460   0.132   7.255
12262SOL     OW85624   5.816   4.463   1.552
12262SOL    HW185625   5.724   4.427   1.541
12262SOL    HW285626   5.836   4.474   1.650
12263SOL     OW85627  15.504   0.303   6.858
12263SOL    HW185628  15.469   0.396   6.846
12263SOL    HW285629  15.563   0.300   6.939
12264SOL     OW85630  15.543   3.551   6.285
12264SOL    HW185631  15.507   3.561   6.192
12264SOL    HW285632  15.478   3.500   6.341
12265SOL     OW85633   2.764   0.722   0.515
12265SOL    HW185634   2.832   0.795   0.524
12265SOL    HW285635   2.781   0.671   0.431
12266SOL     OW85636   4.899  13.872   1.254
12266SOL    HW185637   4.871  13.941   1.187
12266SOL    HW285638   4.818  13.827   1.292
12267SOL     OW85639   1.264   0.424   7.483
12267SOL    HW185640   1.235   0.407   7.388
12267SOL    HW285641   1.184   0.433   7.541
12268SOL     OW85642   7.310   5.558   0.974
12268SOL    HW185643   7.291   5.617   0.895
12268SOL    HW285644   7.262   5.471   0.962
12269SOL     OW85645   7.774   9.014   0.858
12269SOL    HW185646   7.770   9.092   0.795
12269SOL    HW285647   7.751   8.930   0.809
12270SOL     OW85648   6.543   0.073   0.598
12270SOL    HW185649   6.531   0.084   0.697
12270SOL    HW285650   6.462   0.108   0.551
12271SOL     OW85651  16.016  14.880   6.791
12271SOL    HW185652  16.087  14.950   6.793
12271SOL    HW285653  16.037  14.813   6.721
12272SOL     OW85654   8.784  11.842   0.180
12272SOL    HW185655   8.785  11.941   0.196
12272SOL    HW285656   8.869  11.802   0.215
12273SOL     OW85657   0.831   5.020   1.262
12273SOL    HW185658   0.908   5.005   1.324
12273SOL    HW285659   0.770   5.090   1.301
12274SOL     OW85660  16.684   6.393   0.229
12274SOL    HW185661  16.709   6.296   0.228
12274SOL    HW285662  16.753   6.444   0.280
12275SOL     OW85663   8.668   6.165   6.875
12275SOL    HW185664   8.645   6.191   6.781
12275SOL    HW285665   8.601   6.097   6.907
12276SOL     OW85666   0.482   1.090   0.222
12276SOL    HW185667   0.396   1.100   0.271
12276SOL    HW285668   0.531   1.177   0.220
12277SOL     OW85669  10.943   2.897   7.432
12277SOL    HW185670  10.985   2.836   7.365
12277SOL    HW285671  10.843   2.896   7.421
12278SOL     OW85672   8.488   3.932   6.912
12278SOL    HW185673   8.410   3.935   6.973
12278SOL    HW285674   8.462   3.968   6.822
12279SOL     OW85675   0.528   2.733   7.405
12279SOL    HW185676   0.556   2.658   7.465
12279SOL    HW285677   0.435   2.760   7.427
12280SOL     OW85678  15.292  15.434   7.008
12280SOL    HW185679  15.379  15.454   6.962
12280SOL    HW285680  15.310  15.405   7.102
12281SOL     OW85681  10.106   3.191   7.408
12281SOL    HW185682  10.139   3.145   7.490
12281SOL    HW285683  10.183   3.219   7.352
12282SOL     OW85684  15.819   3.931   1.113
12282SOL    HW185685  15.884   3.972   1.177
12282SOL    HW285686  15.745   3.996   1.094
12283SOL     OW85687  10.645   6.025   6.645
12283SOL    HW185688  10.634   6.106   6.587
12283SOL    HW285689  10.679   5.949   6.590
12284SOL     OW85690  13.185   2.788   6.169
12284SOL    HW185691  13.203   2.776   6.071
12284SOL    HW285692  13.199   2.701   6.216
12285SOL     OW85693  16.066  14.594   0.503
12285SOL    HW185694  15.983  14.644   0.477
12285SOL    HW285695  16.041  14.517   0.562
12286SOL     OW85696   7.970   7.148   5.943
12286SOL    HW185697   7.933   7.222   5.886
12286SOL    HW285698   7.896   7.085   5.966
12287SOL     OW85699  11.624  10.764   1.755
12287SOL    HW185700  11.723  10.755   1.745
12287SOL    HW285701  11.588  10.681   1.797
12288SOL     OW85702  10.900   7.360   8.372
12288SOL    HW185703  10.917   7.383   8.276
12288SOL    HW285704  10.961   7.414   8.430
12289SOL     OW85705   2.269   8.084   1.008
12289SOL    HW185706   2.262   8.017   0.934
12289SOL    HW285707   2.244   8.174   0.973
12290SOL     OW85708  11.214   7.564   7.500
12290SOL    HW185709  11.275   7.598   7.572
12290SOL    HW285710  11.121   7.554   7.537
12291SOL     OW85711  12.020  15.290   7.125
12291SOL    HW185712  12.043  15.321   7.032
12291SOL    HW285713  11.989  15.367   7.179
12292SOL     OW85714  12.915  13.740   2.516
12292SOL    HW185715  12.934  13.723   2.420
12292SOL    HW285716  12.982  13.692   2.573
12293SOL     OW85717  15.039   3.715   0.459
12293SOL    HW185718  15.110   3.752   0.398
12293SOL    HW285719  15.016   3.782   0.529
12294SOL     OW85720  10.822   1.438   7.481
12294SOL    HW185721  10.828   1.407   7.386
12294SOL    HW285722  10.913   1.464   7.514
12295SOL     OW85723   0.685   5.360   7.611
12295SOL    HW185724   0.638   5.272   7.604
12295SOL    HW285725   0.666   5.414   7.528
12296SOL     OW85726  11.029   0.684   7.708
12296SOL    HW185727  10.939   0.691   7.663
12296SOL    HW285728  11.091   0.633   7.649
12297SOL     OW85729   2.870  14.747   7.604
12297SOL    HW185730   2.873  14.695   7.519
12297SOL    HW285731   2.952  14.803   7.612
12298SOL     OW85732  15.837  12.770   7.073
12298SOL    HW185733  15.801  12.692   7.023
12298SOL    HW285734  15.931  12.788   7.043
12299SOL     OW85735   3.072  16.620   6.898
12299SOL    HW185736   2.996  16.563   6.866
12299SOL    HW285737   3.155  16.594   6.849
12300SOL     OW85738   7.115   5.441   1.230
12300SOL    HW185739   7.156   5.510   1.290
12300SOL    HW285740   7.187   5.389   1.184
12301SOL     OW85741  12.176  11.174   0.680
12301SOL    HW185742  12.255  11.229   0.653
12301SOL    HW285743  12.098  11.234   0.701
12302SOL     OW85744   5.342   6.386   2.154
12302SOL    HW185745   5.285   6.317   2.199
12302SOL    HW285746   5.437   6.355   2.152
12303SOL     OW85747  10.736   5.449   8.076
12303SOL    HW185748  10.658   5.503   8.108
12303SOL    HW285749  10.750   5.371   8.137
12304SOL     OW85750   1.603  11.473   0.405
12304SOL    HW185751   1.692  11.437   0.432
12304SOL    HW285752   1.606  11.501   0.309
12305SOL     OW85753  14.978   2.793   6.736
12305SOL    HW185754  15.064   2.744   6.725
12305SOL    HW285755  14.925   2.788   6.651
12306SOL     OW85756   6.057  12.209   7.227
12306SOL    HW185757   6.033  12.300   7.260
12306SOL    HW285758   6.156  12.197   7.228
12307SOL     OW85759   5.420  12.795   1.253
12307SOL    HW185760   5.409  12.699   1.279
12307SOL    HW285761   5.389  12.808   1.159
12308SOL     OW85762   9.832  15.373   2.175
12308SOL    HW185763   9.742  15.330   2.169
12308SOL    HW285764   9.839  15.423   2.262
12309SOL     OW85765   5.359   1.280   8.219
12309SOL    HW185766   5.308   1.206   8.263
12309SOL    HW285767   5.353   1.363   8.275
12310SOL     OW85768  11.333   8.023   1.637
12310SOL    HW185769  11.367   8.114   1.661
12310SOL    HW285770  11.316   7.971   1.720
12311SOL     OW85771  14.997  12.071   1.740
12311SOL    HW185772  14.928  12.102   1.675
12311SOL    HW285773  14.958  12.070   1.832
12312SOL     OW85774  11.839   4.665   8.182
12312SOL    HW185775  11.909   4.729   8.215
12312SOL    HW285776  11.761   4.716   8.146
12313SOL     OW85777  15.362   2.565   7.224
12313SOL    HW185778  15.420   2.625   7.170
12313SOL    HW285779  15.418   2.502   7.276
12314SOL     OW85780  15.409  15.166   0.898
12314SOL    HW185781  15.377  15.114   0.978
12314SOL    HW285782  15.461  15.246   0.929
12315SOL     OW85783  12.091   2.197   0.669
12315SOL    HW185784  12.115   2.170   0.576
12315SOL    HW285785  12.077   2.296   0.673
12316SOL     OW85786   4.105  14.993   1.529
12316SOL    HW185787   4.081  15.090   1.536
12316SOL    HW285788   4.108  14.967   1.432
12317SOL     OW85789   0.708   7.766   8.395
12317SOL    HW185790   0.798   7.766   8.352
12317SOL    HW285791   0.663   7.678   8.379
12318SOL     OW85792   8.757  11.261   6.732
12318SOL    HW185793   8.816  11.339   6.711
12318SOL    HW285794   8.695  11.244   6.656
12319SOL     OW85795   9.347   9.244   0.331
12319SOL    HW185796   9.282   9.194   0.273
12319SOL    HW285797   9.297   9.309   0.388
12320SOL     OW85798   1.734   0.190   1.976
12320SOL    HW185799   1.681   0.248   2.037
12320SOL    HW285800   1.719   0.094   2.000
12321SOL     OW85801   9.367   3.311   8.340
12321SOL    HW185802   9.452   3.325   8.391
12321SOL    HW285803   9.307   3.390   8.353
12322SOL     OW85804  16.275  15.968   1.185
12322SOL    HW185805  16.319  15.951   1.273
12322SOL    HW285806  16.200  16.033   1.198
12323SOL     OW85807   8.753  13.715   6.383
12323SOL    HW185808   8.729  13.637   6.440
12323SOL    HW285809   8.720  13.700   6.290
12324SOL     OW85810   9.801   1.780   7.979
12324SOL    HW185811   9.786   1.807   8.074
12324SOL    HW285812   9.827   1.684   7.974
12325SOL     OW85813   6.944  16.961   7.747
12325SOL    HW185814   6.961   0.037   7.668
12325SOL    HW285815   6.962  16.866   7.721
12326SOL     OW85816   4.875  11.261   5.891
12326SOL    HW185817   4.845  11.204   5.967
12326SOL    HW285818   4.855  11.357   5.911
12327SOL     OW85819   5.567  12.945   0.273
12327SOL    HW185820   5.503  12.926   0.348
12327SOL    HW285821   5.535  13.025   0.221
12328SOL     OW85822   9.066   5.592   0.000
12328SOL    HW185823   9.012   5.552   8.381
12328SOL    HW285824   9.034   5.685   0.019
12329SOL     OW85825   9.366   9.608   2.301
12329SOL    HW185826   9.391   9.568   2.389
12329SOL    HW285827   9.437   9.585   2.233
12330SOL     OW85828  13.051  14.839   6.627
12330SOL    HW185829  13.093  14.873   6.711
12330SOL    HW285830  12.954  14.862   6.627
12331SOL     OW85831  16.928   9.914   7.512
12331SOL    HW185832   0.005   9.887   7.437
12331SOL    HW285833  16.853   9.849   7.519
12332SOL     OW85834  12.167  14.541   1.726
12332SOL    HW185835  12.090  14.479   1.708
12332SOL    HW285836  12.155  14.584   1.815
12333SOL     OW85837   2.121   5.370   0.218
12333SOL    HW185838   2.124   5.386   0.119
12333SOL    HW285839   2.028   5.387   0.251
12334SOL     OW85840   1.675  11.996   8.297
12334SOL    HW185841   1.725  12.046   8.226
12334SOL    HW285842   1.616  12.059   8.347
12335SOL     OW85843   8.581   6.849   0.008
12335SOL    HW185844   8.592   6.767   0.064
12335SOL    HW285845   8.615   6.830   8.369
12336SOL     OW85846  10.541  16.182   1.331
12336SOL    HW185847  10.571  16.202   1.237
12336SOL    HW285848  10.566  16.258   1.391
12337SOL     OW85849  10.296   7.082   6.650
12337SOL    HW185850  10.329   7.068   6.743
12337SOL    HW285851  10.239   7.164   6.647
12338SOL     OW85852  14.602   1.496   7.023
12338SOL    HW185853  14.639   1.485   7.115
12338SOL    HW285854  14.537   1.423   7.003
12339SOL     OW85855  15.669   8.982   1.346
12339SOL    HW185856  15.656   9.048   1.421
12339SOL    HW285857  15.710   9.028   1.268
12340SOL     OW85858   3.257   7.176   7.993
12340SOL    HW185859   3.353   7.181   7.966
12340SOL    HW285860   3.201   7.226   7.927
12341SOL     OW85861   7.014  16.246   2.130
12341SOL    HW185862   7.092  16.228   2.190
12341SOL    HW285863   6.996  16.345   2.129
12342SOL     OW85864   1.147  11.090   1.060
12342SOL    HW185865   1.173  11.071   0.966
12342SOL    HW285866   1.052  11.120   1.064
12343SOL     OW85867   5.322  12.196   7.376
12343SOL    HW185868   5.387  12.124   7.350
12343SOL    HW285869   5.311  12.198   7.475
12344SOL     OW85870  14.541  12.623   0.959
12344SOL    HW185871  14.457  12.580   0.924
12344SOL    HW285872  14.518  12.684   1.035
12345SOL     OW85873   3.396   3.224   1.556
12345SOL    HW185874   3.493   3.230   1.532
12345SOL    HW285875   3.366   3.129   1.549
12346SOL     OW85876   9.681  10.193   6.741
12346SOL    HW185877   9.650  10.277   6.786
12346SOL    HW285878   9.605  10.152   6.691
12347SOL     OW85879  16.807   6.539   0.995
12347SOL    HW185880  16.846   6.612   0.939
12347SOL    HW285881  16.877   6.469   1.011
12348SOL     OW85882   2.545   8.903   8.074
12348SOL    HW185883   2.470   8.923   8.010
12348SOL    HW285884   2.547   8.972   8.146
12349SOL     OW85885  13.500  16.857   1.124
12349SOL    HW185886  13.575  16.861   1.058
12349SOL    HW285887  13.423  16.809   1.084
12350SOL     OW85888  12.542  11.463   0.448
12350SOL    HW185889  12.607  11.426   0.382
12350SOL    HW285890  12.563  11.559   0.465
12351SOL     OW85891   6.085  16.457   1.182
12351SOL    HW185892   6.019  16.477   1.110
12351SOL    HW285893   6.069  16.518   1.260
12352SOL     OW85894   7.946   4.595   0.469
12352SOL    HW185895   7.891   4.593   0.386
12352SOL    HW285896   7.932   4.511   0.521
12353SOL     OW85897   4.485   3.861   6.309
12353SOL    HW185898   4.435   3.780   6.276
12353SOL    HW285899   4.563   3.878   6.249
12354SOL     OW85900  10.108  16.885   7.134
12354SOL    HW185901  10.023  16.855   7.177
12354SOL    HW285902  10.184  16.828   7.166
12355SOL     OW85903  13.955  13.999   1.842
12355SOL    HW185904  14.031  13.995   1.777
12355SOL    HW285905  13.960  14.085   1.893
12356SOL     OW85906  14.790   8.962   6.663
12356SOL    HW185907  14.884   8.961   6.696
12356SOL    HW285908  14.784   8.911   6.578
12357SOL     OW85909  16.434  13.999   7.203
12357SOL    HW185910  16.472  13.946   7.127
12357SOL    HW285911  16.507  14.025   7.266
12358SOL     OW85912   6.404   8.247   8.161
12358SOL    HW185913   6.332   8.205   8.106
12358SOL    HW285914   6.382   8.343   8.177
12359SOL     OW85915  12.688   9.974   6.759
12359SOL    HW185916  12.727   9.910   6.825
12359SOL    HW285917  12.593   9.949   6.739
12360SOL     OW85918   2.998   6.911   2.312
12360SOL    HW185919   3.010   6.815   2.337
12360SOL    HW285920   3.028   6.969   2.388
12361SOL     OW85921   4.989   0.695   0.069
12361SOL    HW185922   5.066   0.748   0.105
12361SOL    HW285923   5.025   0.614   0.021
12362SOL     OW85924  13.038   8.715   8.266
12362SOL    HW185925  13.010   8.722   8.170
12362SOL    HW285926  13.071   8.622   8.284
12363SOL     OW85927   4.152   1.567   1.676
12363SOL    HW185928   4.134   1.665   1.677
12363SOL    HW285929   4.208   1.543   1.755
12364SOL     OW85930  11.668   8.640   0.472
12364SOL    HW185931  11.762   8.637   0.507
12364SOL    HW285932  11.671   8.648   0.372
12365SOL     OW85933  14.553   6.595   5.863
12365SOL    HW185934  14.500   6.621   5.944
12365SOL    HW285935  14.490   6.579   5.787
12366SOL     OW85936   9.223   5.173   1.433
12366SOL    HW185937   9.192   5.181   1.339
12366SOL    HW285938   9.164   5.107   1.482
12367SOL     OW85939   4.970   5.064   7.943
12367SOL    HW185940   4.968   4.965   7.958
12367SOL    HW285941   4.916   5.109   8.014
12368SOL     OW85942   9.191  13.152   7.532
12368SOL    HW185943   9.102  13.185   7.501
12368SOL    HW285944   9.207  13.181   7.627
12369SOL     OW85945  11.613   0.142   7.000
12369SOL    HW185946  11.641   0.100   7.086
12369SOL    HW285947  11.693   0.180   6.954
12370SOL     OW85948   0.100   8.355   7.549
12370SOL    HW185949   0.044   8.310   7.479
12370SOL    HW285950   0.113   8.293   7.626
12371SOL     OW85951   6.623   0.342   6.510
12371SOL    HW185952   6.595   0.438   6.500
12371SOL    HW285953   6.702   0.337   6.571
12372SOL     OW85954  16.653  10.341   7.817
12372SOL    HW185955  16.713  10.298   7.750
12372SOL    HW285956  16.644  10.438   7.796
12373SOL     OW85957  16.728  15.310   0.037
12373SOL    HW185958  16.731  15.303   0.137
12373SOL    HW285959  16.791  15.243   8.451
12374SOL     OW85960  13.757  16.466   7.572
12374SOL    HW185961  13.852  16.485   7.545
12374SOL    HW285962  13.712  16.551   7.598
12375SOL     OW85963   7.515   9.046   1.480
12375SOL    HW185964   7.540   9.130   1.529
12375SOL    HW285965   7.569   9.039   1.397
12376SOL     OW85966   8.280   0.922   8.318
12376SOL    HW185967   8.366   0.877   8.342
12376SOL    HW285968   8.296   0.991   8.248
12377SOL     OW85969   1.401  12.187   7.794
12377SOL    HW185970   1.372  12.104   7.745
12377SOL    HW285971   1.446  12.161   7.879
12378SOL     OW85972  16.946   7.104   0.911
12378SOL    HW185973  16.876   7.034   0.919
12378SOL    HW285974  16.981   7.128   1.002
12379SOL     OW85975   6.807  11.392   6.735
12379SOL    HW185976   6.823  11.317   6.671
12379SOL    HW285977   6.716  11.381   6.777
12380SOL     OW85978   3.324  14.777   8.247
12380SOL    HW185979   3.283  14.807   8.161
12380SOL    HW285980   3.284  14.828   8.323
12381SOL     OW85981   6.202   5.050   7.052
12381SOL    HW185982   6.189   5.142   7.013
12381SOL    HW285983   6.298   5.038   7.078
12382SOL     OW85984  14.837  11.400   2.045
12382SOL    HW185985  14.828  11.371   1.950
12382SOL    HW285986  14.775  11.348   2.103
12383SOL     OW85987  13.795   2.969   7.326
12383SOL    HW185988  13.780   3.055   7.375
12383SOL    HW285989  13.737   2.897   7.365
12384SOL     OW85990   6.137   7.064   7.986
12384SOL    HW185991   6.083   6.994   8.033
12384SOL    HW285992   6.192   7.113   8.054
12385SOL     OW85993  15.487   0.868   8.302
12385SOL    HW185994  15.516   0.948   8.249
12385SOL    HW285995  15.404   0.830   8.261
12386SOL     OW85996   3.294   8.535   7.682
12386SOL    HW185997   3.321   8.617   7.631
12386SOL    HW285998   3.299   8.555   7.780
12387SOL     OW85999   6.489   4.928   1.124
12387SOL    HW186000   6.472   4.845   1.070
12387SOL    HW286001   6.587   4.938   1.140
12388SOL     OW86002  15.842   4.046   0.674
12388SOL    HW186003  15.798   4.057   0.584
12388SOL    HW286004  15.841   3.949   0.699
12389SOL     OW86005  12.453  14.519   1.697
12389SOL    HW186006  12.354  14.535   1.696
12389SOL    HW286007  12.478  14.461   1.620
12390SOL     OW86008   5.801   9.675   0.659
12390SOL    HW186009   5.796   9.607   0.586
12390SOL    HW286010   5.746   9.645   0.737
12391SOL     OW86011  10.495   8.997   7.896
12391SOL    HW186012  10.398   9.006   7.873
12391SOL    HW286013  10.510   8.907   7.938
12392SOL     OW86014   3.563   4.434   0.420
12392SOL    HW186015   3.548   4.337   0.439
12392SOL    HW286016   3.643   4.444   0.360
12393SOL     OW86017   9.609   8.860   1.528
12393SOL    HW186018   9.583   8.895   1.438
12393SOL    HW286019   9.672   8.783   1.517
12394SOL     OW86020  14.577  13.808   6.605
12394SOL    HW186021  14.555  13.717   6.569
12394SOL    HW286022  14.674  13.828   6.589
12395SOL     OW86023  11.091   6.487   0.139
12395SOL    HW186024  11.077   6.570   0.193
12395SOL    HW286025  11.168   6.500   0.077
12396SOL     OW86026  10.863  10.902   7.327
12396SOL    HW186027  10.798  10.954   7.383
12396SOL    HW286028  10.891  10.820   7.376
12397SOL     OW86029   6.621   2.530   1.203
12397SOL    HW186030   6.699   2.481   1.165
12397SOL    HW286031   6.580   2.588   1.133
12398SOL     OW86032   5.729   1.017   0.250
12398SOL    HW186033   5.692   1.034   0.342
12398SOL    HW286034   5.686   1.079   0.185
12399SOL     OW86035   3.892   8.798   6.948
12399SOL    HW186036   3.869   8.786   6.852
12399SOL    HW286037   3.905   8.708   6.990
12400SOL     OW86038  11.859  10.917   1.394
12400SOL    HW186039  11.875  10.908   1.296
12400SOL    HW286040  11.947  10.920   1.441
12401SOL     OW86041  14.053   4.421   0.910
12401SOL    HW186042  14.008   4.394   0.825
12401SOL    HW286043  14.036   4.518   0.927
12402SOL     OW86044   4.242   1.208   0.572
12402SOL    HW186045   4.142   1.221   0.566
12402SOL    HW286046   4.281   1.210   0.480
12403SOL     OW86047  11.912  15.921   6.957
12403SOL    HW186048  11.840  15.852   6.958
12403SOL    HW286049  11.890  15.992   6.891
12404SOL     OW86050  11.486  15.409   0.881
12404SOL    HW186051  11.427  15.479   0.922
12404SOL    HW286052  11.576  15.448   0.865
12405SOL     OW86053   2.722   2.305   8.034
12405SOL    HW186054   2.720   2.255   8.120
12405SOL    HW286055   2.720   2.240   7.958
12406SOL     OW86056   9.059  15.558   1.901
12406SOL    HW186057   9.028  15.479   1.955
12406SOL    HW286058   9.071  15.637   1.962
12407SOL     OW86059   3.434  15.845   1.547
12407SOL    HW186060   3.514  15.868   1.492
12407SOL    HW286061   3.383  15.772   1.502
12408SOL     OW86062   9.894  15.077   8.081
12408SOL    HW186063   9.922  15.041   7.992
12408SOL    HW286064   9.940  15.164   8.098
12409SOL     OW86065  12.640  12.332   7.337
12409SOL    HW186066  12.740  12.327   7.341
12409SOL    HW286067  12.613  12.389   7.260
12410SOL     OW86068   1.839  11.393   1.843
12410SOL    HW186069   1.764  11.437   1.793
12410SOL    HW286070   1.858  11.304   1.802
12411SOL     OW86071  13.972   4.631   1.274
12411SOL    HW186072  13.902   4.584   1.222
12411SOL    HW286073  13.957   4.616   1.372
12412SOL     OW86074   0.351   0.150   1.074
12412SOL    HW186075   0.320   0.059   1.104
12412SOL    HW286076   0.435   0.174   1.122
12413SOL     OW86077  10.911  11.391   1.507
12413SOL    HW186078  10.885  11.297   1.528
12413SOL    HW286079  10.984  11.391   1.439
12414SOL     OW86080   5.814  10.322   1.078
12414SOL    HW186081   5.867  10.243   1.106
12414SOL    HW286082   5.719  10.311   1.107
12415SOL     OW86083  13.063   3.713   0.416
12415SOL    HW186084  12.974   3.666   0.414
12415SOL    HW286085  13.050   3.810   0.399
12416SOL     OW86086  13.122   9.288   1.242
12416SOL    HW186087  13.086   9.295   1.149
12416SOL    HW286088  13.095   9.368   1.295
12417SOL     OW86089   4.873   4.011   1.190
12417SOL    HW186090   4.905   4.031   1.282
12417SOL    HW286091   4.777   4.037   1.181
12418SOL     OW86092   5.593   9.208   1.355
12418SOL    HW186093   5.597   9.133   1.288
12418SOL    HW286094   5.529   9.184   1.427
12419SOL     OW86095   1.541  15.594   1.982
12419SOL    HW186096   1.620  15.633   2.031
12419SOL    HW286097   1.469  15.572   2.048
12420SOL     OW86098  16.870   0.927   0.939
12420SOL    HW186099  16.796   0.884   0.991
12420SOL    HW286100  16.831   0.982   0.865
12421SOL     OW86101  10.637  11.466   0.727
12421SOL    HW186102  10.656  11.540   0.792
12421SOL    HW286103  10.543  11.475   0.694
12422SOL     OW86104  13.832   0.076   7.440
12422SOL    HW186105  13.922   0.032   7.442
12422SOL    HW286106  13.830   0.143   7.367
12423SOL     OW86107  12.382   0.262   1.465
12423SOL    HW186108  12.332   0.327   1.408
12423SOL    HW286109  12.337   0.173   1.464
12424SOL     OW86110  10.975   3.510   0.716
12424SOL    HW186111  10.888   3.555   0.699
12424SOL    HW286112  10.960   3.411   0.727
12425SOL     OW86113   6.735  10.965   7.345
12425SOL    HW186114   6.664  11.034   7.357
12425SOL    HW286115   6.821  10.998   7.386
12426SOL     OW86116  13.954   2.627   5.930
12426SOL    HW186117  14.016   2.704   5.919
12426SOL    HW286118  13.984   2.551   5.873
12427SOL     OW86119   5.933   7.529   7.479
12427SOL    HW186120   5.844   7.494   7.507
12427SOL    HW286121   6.002   7.457   7.484
12428SOL     OW86122   4.680   6.136   1.068
12428SOL    HW186123   4.677   6.219   1.124
12428SOL    HW286124   4.589   6.094   1.066
12429SOL     OW86125  14.008  13.315   0.336
12429SOL    HW186126  14.076  13.300   0.407
12429SOL    HW286127  14.045  13.289   0.247
12430SOL     OW86128  10.985  12.333   8.073
12430SOL    HW186129  11.035  12.301   7.993
12430SOL    HW286130  10.940  12.256   8.118
12431SOL     OW86131  16.218   0.411   6.340
12431SOL    HW186132  16.214   0.447   6.247
12431SOL    HW286133  16.285   0.338   6.346
12432SOL     OW86134   6.809  15.871   0.234
12432SOL    HW186135   6.781  15.867   0.138
12432SOL    HW286136   6.808  15.966   0.266
12433SOL     OW86137  12.736   2.138   6.822
12433SOL    HW186138  12.703   2.126   6.728
12433SOL    HW286139  12.763   2.049   6.859
12434SOL     OW86140  13.871  12.349   8.206
12434SOL    HW186141  13.962  12.351   8.248
12434SOL    HW286142  13.872  12.283   8.130
12435SOL     OW86143  12.825   8.323   0.389
12435SOL    HW186144  12.895   8.330   0.318
12435SOL    HW286145  12.866   8.344   0.478
12436SOL     OW86146   6.291  14.151   7.503
12436SOL    HW186147   6.208  14.180   7.456
12436SOL    HW286148   6.276  14.158   7.602
12437SOL     OW86149  14.506   7.934   7.704
12437SOL    HW186150  14.570   8.000   7.743
12437SOL    HW286151  14.420   7.939   7.755
12438SOL     OW86152  11.962  13.119   8.106
12438SOL    HW186153  11.915  13.061   8.173
12438SOL    HW286154  12.033  13.172   8.152
12439SOL     OW86155   3.924   4.049   1.445
12439SOL    HW186156   4.001   4.074   1.503
12439SOL    HW286157   3.910   4.119   1.375
12440SOL     OW86158  12.271  10.368   0.765
12440SOL    HW186159  12.185  10.354   0.716
12440SOL    HW286160  12.277  10.463   0.796
12441SOL     OW86161   7.434   7.527   8.016
12441SOL    HW186162   7.362   7.497   8.078
12441SOL    HW286163   7.521   7.483   8.042
12442SOL     OW86164  12.889  12.661   0.148
12442SOL    HW186165  12.837  12.577   0.140
12442SOL    HW286166  12.978  12.650   0.102
12443SOL     OW86167   7.916  15.311   1.912
12443SOL    HW186168   7.954  15.399   1.883
12443SOL    HW286169   7.840  15.326   1.975
12444SOL     OW86170  12.937  16.066   6.782
12444SOL    HW186171  12.929  16.071   6.683
12444SOL    HW286172  12.864  16.119   6.825
12445SOL     OW86173   1.942   0.529   0.185
12445SOL    HW186174   1.970   0.582   0.265
12445SOL    HW286175   1.910   0.439   0.215
12446SOL     OW86176   6.029   7.545   2.149
12446SOL    HW186177   6.111   7.578   2.195
12446SOL    HW286178   5.973   7.623   2.122
12447SOL     OW86179  16.119   3.826   1.417
12447SOL    HW186180  16.195   3.860   1.472
12447SOL    HW286181  16.079   3.902   1.365
12448SOL     OW86182  14.373   5.344   0.623
12448SOL    HW186183  14.367   5.282   0.545
12448SOL    HW286184  14.316   5.424   0.607
12449SOL     OW86185   6.088  11.667   0.749
12449SOL    HW186186   6.156  11.688   0.819
12449SOL    HW286187   6.075  11.747   0.690
12450SOL     OW86188  10.009   4.770   1.812
12450SOL    HW186189  10.014   4.688   1.754
12450SOL    HW286190  10.100   4.811   1.819
12451SOL     OW86191   4.823   6.185   6.451
12451SOL    HW186192   4.797   6.214   6.359
12451SOL    HW286193   4.784   6.248   6.518
12452SOL     OW86194  13.652  10.656   7.362
12452SOL    HW186195  13.642  10.701   7.273
12452SOL    HW286196  13.746  10.622   7.372
12453SOL     OW86197   8.017  11.822   8.228
12453SOL    HW186198   7.964  11.805   8.145
12453SOL    HW286199   8.115  11.820   8.207
12454SOL     OW86200  10.333  14.808   7.968
12454SOL    HW186201  10.390  14.726   7.961
12454SOL    HW286202  10.237  14.782   7.976
12455SOL     OW86203  12.098  14.042   7.724
12455SOL    HW186204  12.019  14.059   7.665
12455SOL    HW286205  12.087  13.955   7.770
12456SOL     OW86206  12.120  10.623   8.407
12456SOL    HW186207  12.081  10.705   8.365
12456SOL    HW286208  12.049  10.576   0.006
12457SOL     OW86209   8.914   3.522   7.277
12457SOL    HW186210   8.960   3.610   7.264
12457SOL    HW286211   8.941   3.459   7.205
12458SOL     OW86212  16.323   3.503   0.848
12458SOL    HW186213  16.373   3.536   0.928
12458SOL    HW286214  16.225   3.522   0.861
12459SOL     OW86215   5.981  11.587   1.560
12459SOL    HW186216   6.021  11.513   1.613
12459SOL    HW286217   6.055  11.646   1.525
12460SOL     OW86218   2.471  16.008   0.754
12460SOL    HW186219   2.486  16.093   0.804
12460SOL    HW286220   2.375  15.982   0.761
12461SOL     OW86221  15.981   5.178   6.586
12461SOL    HW186222  15.958   5.269   6.621
12461SOL    HW286223  16.080   5.169   6.578
12462SOL     OW86224   7.968   9.354   0.537
12462SOL    HW186225   8.057   9.400   0.531
12462SOL    HW286226   7.968   9.274   0.477
12463SOL     OW86227   1.407  15.982   7.539
12463SOL    HW186228   1.440  15.941   7.454
12463SOL    HW286229   1.380  15.910   7.603
12464SOL     OW86230   1.983   6.072   1.338
12464SOL    HW186231   2.054   6.028   1.283
12464SOL    HW286232   1.914   6.110   1.278
12465SOL     OW86233   4.620   9.589   7.646
12465SOL    HW186234   4.584   9.659   7.583
12465SOL    HW286235   4.622   9.500   7.599
12466SOL     OW86236  13.989  10.061   7.045
12466SOL    HW186237  13.891  10.043   7.050
12466SOL    HW286238  14.010  10.110   6.961
12467SOL     OW86239   4.096   6.744   1.252
12467SOL    HW186240   4.018   6.730   1.191
12467SOL    HW286241   4.115   6.659   1.302
12468SOL     OW86242   7.251   0.576   0.376
12468SOL    HW186243   7.291   0.543   0.290
12468SOL    HW286244   7.176   0.516   0.403
12469SOL     OW86245  15.080   2.585   7.161
12469SOL    HW186246  15.171   2.561   7.194
12469SOL    HW286247  15.015   2.516   7.192
12470SOL     OW86248  11.746  12.621   2.343
12470SOL    HW186249  11.816  12.603   2.411
12470SOL    HW286250  11.657  12.593   2.378
12471SOL     OW86251   0.903  11.302   1.761
12471SOL    HW186252   0.817  11.318   1.808
12471SOL    HW286253   0.888  11.244   1.681
12472SOL     OW86254   4.902   4.648   0.711
12472SOL    HW186255   4.910   4.610   0.619
12472SOL    HW286256   4.979   4.710   0.728
12473SOL     OW86257   5.865   9.150   1.781
12473SOL    HW186258   5.798   9.136   1.854
12473SOL    HW286259   5.872   9.247   1.760
12474SOL     OW86260   4.085   0.780   8.019
12474SOL    HW186261   4.153   0.707   8.020
12474SOL    HW286262   4.064   0.807   8.113
12475SOL     OW86263  16.854   3.292   5.381
12475SOL    HW186264  16.803   3.366   5.337
12475SOL    HW286265  16.793   3.215   5.400
12476SOL     OW86266   1.164  14.400   8.427
12476SOL    HW186267   1.076  14.418   0.017
12476SOL    HW286268   1.215  14.333   0.026
12477SOL     OW86269   9.163   3.524   0.303
12477SOL    HW186270   9.136   3.579   0.382
12477SOL    HW286271   9.217   3.580   0.240
12478SOL     OW86272   4.354  12.491   1.598
12478SOL    HW186273   4.258  12.484   1.570
12478SOL    HW286274   4.381  12.588   1.601
12479SOL     OW86275   9.011  12.895   8.003
12479SOL    HW186276   8.980  12.857   7.916
12479SOL    HW286277   8.988  12.832   8.077
12480SOL     OW86278   2.394   5.192   6.479
12480SOL    HW186279   2.319   5.181   6.414
12480SOL    HW286280   2.470   5.240   6.435
12481SOL     OW86281   1.393   1.885   0.413
12481SOL    HW186282   1.315   1.828   0.441
12481SOL    HW286283   1.410   1.954   0.483
12482SOL     OW86284  13.465   4.823   0.964
12482SOL    HW186285  13.468   4.867   0.874
12482SOL    HW286286  13.537   4.754   0.970
12483SOL     OW86287  15.806   6.093   1.191
12483SOL    HW186288  15.837   6.072   1.284
12483SOL    HW286289  15.804   6.008   1.137
12484SOL     OW86290   8.968  10.271   0.921
12484SOL    HW186291   8.966  10.324   0.836
12484SOL    HW286292   8.957  10.174   0.900
12485SOL     OW86293   5.782   9.010   0.629
12485SOL    HW186294   5.751   9.105   0.633
12485SOL    HW286295   5.711   8.951   0.668
12486SOL     OW86296   7.745   8.247   0.870
12486SOL    HW186297   7.647   8.246   0.853
12486SOL    HW286298   7.768   8.180   0.940
12487SOL     OW86299   2.418   0.439   0.202
12487SOL    HW186300   2.458   0.430   0.111
12487SOL    HW286301   2.463   0.376   0.265
12488SOL     OW86302   2.212  10.589   0.997
12488SOL    HW186303   2.250  10.614   1.086
12488SOL    HW286304   2.119  10.555   1.009
12489SOL     OW86305   8.308   5.788   7.316
12489SOL    HW186306   8.379   5.721   7.337
12489SOL    HW286307   8.345   5.880   7.324
12490SOL     OW86308  10.242   6.645   2.414
12490SOL    HW186309  10.154   6.691   2.416
12490SOL    HW286310  10.315   6.713   2.409
12491SOL     OW86311   2.853  13.369   1.689
12491SOL    HW186312   2.858  13.302   1.763
12491SOL    HW286313   2.759  13.404   1.683
12492SOL     OW86314   3.461   4.177   0.495
12492SOL    HW186315   3.437   4.107   0.428
12492SOL    HW286316   3.514   4.135   0.569
12493SOL     OW86317  10.997   4.569   1.901
12493SOL    HW186318  11.027   4.647   1.957
12493SOL    HW286319  11.072   4.540   1.841
12494SOL     OW86320  12.776  12.896   0.034
12494SOL    HW186321  12.823  12.824   0.087
12494SOL    HW286322  12.726  12.854   8.413
12495SOL     OW86323   8.923   6.333   8.262
12495SOL    HW186324   8.850   6.315   8.196
12495SOL    HW286325   8.970   6.418   8.238
12496SOL     OW86326   5.037   6.110   7.454
12496SOL    HW186327   4.994   6.165   7.526
12496SOL    HW286328   5.129   6.085   7.482
12497SOL     OW86329   1.459   6.576   7.738
12497SOL    HW186330   1.520   6.647   7.773
12497SOL    HW286331   1.512   6.507   7.689
12498SOL     OW86332   6.447  15.421   7.787
12498SOL    HW186333   6.378  15.399   7.856
12498SOL    HW286334   6.401  15.457   7.705
12499SOL     OW86335   7.210   2.753   7.410
12499SOL    HW186336   7.251   2.668   7.379
12499SOL    HW286337   7.239   2.828   7.350
12500SOL     OW86338   4.522   6.576   0.629
12500SOL    HW186339   4.533   6.638   0.706
12500SOL    HW286340   4.599   6.586   0.566
12501SOL     OW86341   5.571  15.306   8.358
12501SOL    HW186342   5.607  15.296   8.451
12501SOL    HW286343   5.498  15.238   8.344
12502SOL     OW86344  15.815   4.746   7.433
12502SOL    HW186345  15.865   4.687   7.497
12502SOL    HW286346  15.839   4.719   7.339
12503SOL     OW86347   3.537  16.554   2.125
12503SOL    HW186348   3.518  16.567   2.222
12503SOL    HW286349   3.513  16.460   2.099
12504SOL     OW86350   2.201  10.214   1.845
12504SOL    HW186351   2.296  10.240   1.831
12504SOL    HW286352   2.176  10.232   1.940
12505SOL     OW86353  11.567   8.673   7.411
12505SOL    HW186354  11.622   8.590   7.412
12505SOL    HW286355  11.580   8.721   7.324
12506SOL     OW86356   6.498   2.440   7.178
12506SOL    HW186357   6.438   2.374   7.132
12506SOL    HW286358   6.578   2.392   7.215
12507SOL     OW86359   9.282   7.875   0.237
12507SOL    HW186360   9.275   7.813   0.158
12507SOL    HW286361   9.378   7.881   0.265
12508SOL     OW86362   0.107   7.517   1.302
12508SOL    HW186363   0.177   7.581   1.270
12508SOL    HW286364   0.133   7.481   1.392
12509SOL     OW86365   8.692   8.472   7.406
12509SOL    HW186366   8.698   8.484   7.307
12509SOL    HW286367   8.713   8.378   7.430
12510SOL     OW86368  12.115  16.871   6.915
12510SOL    HW186369  12.136  16.776   6.890
12510SOL    HW286370  12.022  16.893   6.886
12511SOL     OW86371   5.363   6.184   1.054
12511SOL    HW186372   5.360   6.261   1.117
12511SOL    HW286373   5.356   6.217   0.960
12512SOL     OW86374   2.266  11.296   0.214
12512SOL    HW186375   2.195  11.228   0.227
12512SOL    HW286376   2.225  11.387   0.207
12513SOL     OW86377   5.670   6.909   0.663
12513SOL    HW186378   5.663   6.840   0.735
12513SOL    HW286379   5.761   6.905   0.622
12514SOL     OW86380   8.071   1.025   7.905
12514SOL    HW186381   8.085   1.122   7.927
12514SOL    HW286382   8.001   1.018   7.834
12515SOL     OW86383   4.939  12.743   0.411
12515SOL    HW186384   5.007  12.696   0.468
12515SOL    HW286385   4.972  12.747   0.317
12516SOL     OW86386   7.790  14.306   0.244
12516SOL    HW186387   7.737  14.270   0.321
12516SOL    HW286388   7.767  14.402   0.229
12517SOL     OW86389   1.939  11.639   0.590
12517SOL    HW186390   1.888  11.680   0.665
12517SOL    HW286391   1.931  11.698   0.509
12518SOL     OW86392   7.925  13.451   2.136
12518SOL    HW186393   7.947  13.466   2.232
12518SOL    HW286394   7.989  13.502   2.079
12519SOL     OW86395   4.359   9.458   8.204
12519SOL    HW186396   4.324   9.523   8.271
12519SOL    HW286397   4.430   9.501   8.149
12520SOL     OW86398  12.923  16.407   0.507
12520SOL    HW186399  13.013  16.367   0.525
12520SOL    HW286400  12.916  16.434   0.411
12521SOL     OW86401   8.930   3.159   7.357
12521SOL    HW186402   8.932   3.238   7.417
12521SOL    HW286403   8.857   3.171   7.289
12522SOL     OW86404  10.260   8.853   0.657
12522SOL    HW186405  10.357   8.851   0.681
12522SOL    HW286406  10.218   8.934   0.696
12523SOL     OW86407   9.431   9.982   1.718
12523SOL    HW186408   9.451  10.080   1.715
12523SOL    HW286409   9.483   9.934   1.647
12524SOL     OW86410   1.391  11.641   8.079
12524SOL    HW186411   1.423  11.684   8.164
12524SOL    HW286412   1.463  11.648   8.009
12525SOL     OW86413   9.598   3.356   0.038
12525SOL    HW186414   9.591   3.384   0.134
12525SOL    HW286415   9.664   3.415   8.445
12526SOL     OW86416   7.259  15.908   7.644
12526SOL    HW186417   7.236  15.980   7.709
12526SOL    HW286418   7.204  15.827   7.663
12527SOL     OW86419  13.804   4.485   5.878
12527SOL    HW186420  13.710   4.463   5.853
12527SOL    HW286421  13.867   4.433   5.819
12528SOL     OW86422   6.394   3.933   6.998
12528SOL    HW186423   6.392   4.023   6.954
12528SOL    HW286424   6.486   3.916   7.034
12529SOL     OW86425   0.382  11.125   6.597
12529SOL    HW186426   0.333  11.126   6.684
12529SOL    HW286427   0.395  11.030   6.567
12530SOL     OW86428  11.156   4.465   7.553
12530SOL    HW186429  11.077   4.463   7.615
12530SOL    HW286430  11.231   4.412   7.593
12531SOL     OW86431  12.181  12.653   7.855
12531SOL    HW186432  12.137  12.695   7.935
12531SOL    HW286433  12.137  12.566   7.834
12532SOL     OW86434  11.863   5.185   8.346
12532SOL    HW186435  11.804   5.229   8.414
12532SOL    HW286436  11.836   5.089   8.336
12533SOL     OW86437   9.883  11.660   1.993
12533SOL    HW186438   9.922  11.664   2.086
12533SOL    HW286439   9.785  11.675   1.997
12534SOL     OW86440   1.199   7.837   1.408
12534SOL    HW186441   1.120   7.777   1.398
12534SOL    HW286442   1.227   7.839   1.504
12535SOL     OW86443   9.566  12.895   1.784
12535SOL    HW186444   9.644  12.833   1.791
12535SOL    HW286445   9.528  12.912   1.876
12536SOL     OW86446   4.411   2.237   1.927
12536SOL    HW186447   4.401   2.236   2.027
12536SOL    HW286448   4.506   2.254   1.903
12537SOL     OW86449   0.579   6.639   7.815
12537SOL    HW186450   0.649   6.571   7.793
12537SOL    HW286451   0.533   6.667   7.731
12538SOL     OW86452   8.169   9.787   1.428
12538SOL    HW186453   8.258   9.767   1.387
12538SOL    HW286454   8.146   9.882   1.412
12539SOL     OW86455  13.096  15.915   0.147
12539SOL    HW186456  13.004  15.903   0.108
12539SOL    HW286457  13.089  15.971   0.230
12540SOL     OW86458   6.235   4.014   1.624
12540SOL    HW186459   6.260   4.109   1.641
12540SOL    HW286460   6.317   3.956   1.631
12541SOL     OW86461  16.496   9.151   0.243
12541SOL    HW186462  16.416   9.144   0.303
12541SOL    HW286463  16.466   9.152   0.148
12542SOL     OW86464   5.382   1.847   7.750
12542SOL    HW186465   5.469   1.808   7.720
12542SOL    HW286466   5.365   1.933   7.702
12543SOL     OW86467   4.465   8.692   1.409
12543SOL    HW186468   4.535   8.623   1.423
12543SOL    HW286469   4.509   8.781   1.396
12544SOL     OW86470   7.895  11.617   8.387
12544SOL    HW186471   7.941  11.688   8.334
12544SOL    HW286472   7.960  11.573   8.448
12545SOL     OW86473   1.942   9.071   1.194
12545SOL    HW186474   1.921   9.051   1.098
12545SOL    HW286475   2.002   9.151   1.199
12546SOL     OW86476  15.626   0.860   1.290
12546SOL    HW186477  15.648   0.868   1.387
12546SOL    HW286478  15.527   0.864   1.278
12547SOL     OW86479   1.078   1.631   8.307
12547SOL    HW186480   1.048   1.681   8.388
12547SOL    HW286481   1.133   1.552   8.335
12548SOL     OW86482   5.861   0.184   1.976
12548SOL    HW186483   5.785   0.242   2.004
12548SOL    HW286484   5.873   0.189   1.877
12549SOL     OW86485   6.479   3.399   6.916
12549SOL    HW186486   6.405   3.355   6.866
12549SOL    HW286487   6.459   3.496   6.927
12550SOL     OW86488   4.036   9.791   0.780
12550SOL    HW186489   4.033   9.735   0.697
12550SOL    HW286490   4.111   9.761   0.839
12551SOL     OW86491  16.689   3.302   7.187
12551SOL    HW186492  16.728   3.225   7.237
12551SOL    HW286493  16.597   3.321   7.223
12552SOL     OW86494  11.783  14.775   0.276
12552SOL    HW186495  11.830  14.715   0.213
12552SOL    HW286496  11.703  14.815   0.231
12553SOL     OW86497  16.643  16.043   1.002
12553SOL    HW186498  16.711  16.082   0.939
12553SOL    HW286499  16.652  16.086   1.091
12554SOL     OW86500   8.205   9.494   7.222
12554SOL    HW186501   8.214   9.589   7.251
12554SOL    HW286502   8.224   9.434   7.300
12555SOL     OW86503   4.461   3.279   7.646
12555SOL    HW186504   4.559   3.260   7.658
12555SOL    HW286505   4.450   3.349   7.576
12556SOL     OW86506   4.220   1.107   7.627
12556SOL    HW186507   4.231   1.194   7.675
12556SOL    HW286508   4.181   1.040   7.690
12557SOL     OW86509   1.587  10.038   7.852
12557SOL    HW186510   1.582  10.080   7.761
12557SOL    HW286511   1.535   9.953   7.852
12558SOL     OW86512   0.337   1.865   1.288
12558SOL    HW186513   0.281   1.807   1.347
12558SOL    HW286514   0.281   1.898   1.212
12559SOL     OW86515   3.069  11.773   1.022
12559SOL    HW186516   3.141  11.711   0.993
12559SOL    HW286517   2.995  11.772   0.954
12560SOL     OW86518  11.028   7.716   7.126
12560SOL    HW186519  11.022   7.721   7.026
12560SOL    HW286520  10.941   7.746   7.166
12561SOL     OW86521   2.419   0.482   1.893
12561SOL    HW186522   2.434   0.433   1.807
12561SOL    HW286523   2.412   0.416   1.968
12562SOL     OW86524   1.264   1.417   0.638
12562SOL    HW186525   1.271   1.358   0.558
12562SOL    HW286526   1.354   1.453   0.662
12563SOL     OW86527  11.533  12.223   7.217
12563SOL    HW186528  11.545  12.194   7.122
12563SOL    HW286529  11.481  12.308   7.219
12564SOL     OW86530   5.886   0.109   0.582
12564SOL    HW186531   5.868   0.109   0.484
12564SOL    HW286532   5.831   0.179   0.626
12565SOL     OW86533   0.514   4.072   8.197
12565SOL    HW186534   0.527   4.103   8.292
12565SOL    HW286535   0.423   4.101   8.165
12566SOL     OW86536   6.790   3.074   1.675
12566SOL    HW186537   6.738   3.150   1.715
12566SOL    HW286538   6.876   3.108   1.637
12567SOL     OW86539  13.384  10.560   1.053
12567SOL    HW186540  13.359  10.514   1.138
12567SOL    HW286541  13.374  10.659   1.064
12568SOL     OW86542   1.867   4.073   0.589
12568SOL    HW186543   1.852   4.002   0.519
12568SOL    HW286544   1.956   4.115   0.575
12569SOL     OW86545  16.243   9.398   0.249
12569SOL    HW186546  16.243   9.305   0.286
12569SOL    HW286547  16.171   9.452   0.293
12570SOL     OW86548  12.283   1.356   6.241
12570SOL    HW186549  12.279   1.296   6.321
12570SOL    HW286550  12.295   1.450   6.270
12571SOL     OW86551  15.576   2.406   6.230
12571SOL    HW186552  15.597   2.431   6.135
12571SOL    HW286553  15.660   2.400   6.282
12572SOL     OW86554   0.603   2.517   7.567
12572SOL    HW186555   0.550   2.435   7.545
12572SOL    HW286556   0.643   2.507   7.659
12573SOL     OW86557   8.058  14.838   0.824
12573SOL    HW186558   7.992  14.776   0.865
12573SOL    HW286559   8.069  14.918   0.882
12574SOL     OW86560  12.846   7.244   7.546
12574SOL    HW186561  12.883   7.264   7.636
12574SOL    HW286562  12.763   7.299   7.532
12575SOL     OW86563   1.418  14.711   7.990
12575SOL    HW186564   1.387  14.620   7.964
12575SOL    HW286565   1.479  14.705   8.069
12576SOL     OW86566   1.433   9.400   7.223
12576SOL    HW186567   1.371   9.323   7.209
12576SOL    HW286568   1.522   9.365   7.255
12577SOL     OW86569  11.567   7.778   1.076
12577SOL    HW186570  11.586   7.841   1.001
12577SOL    HW286571  11.493   7.815   1.133
12578SOL     OW86572   1.936  13.084   6.913
12578SOL    HW186573   1.849  13.050   6.878
12578SOL    HW286574   1.988  13.124   6.838
12579SOL     OW86575  11.897   3.011   6.528
12579SOL    HW186576  11.901   2.997   6.429
12579SOL    HW286577  11.990   3.018   6.564
12580SOL     OW86578   1.017   8.283   1.415
12580SOL    HW186579   1.051   8.238   1.332
12580SOL    HW286580   0.970   8.367   1.390
12581SOL     OW86581   5.086  12.153   0.972
12581SOL    HW186582   5.041  12.113   1.051
12581SOL    HW286583   5.124  12.242   0.996
12582SOL     OW86584  16.324  11.016   8.450
12582SOL    HW186585  16.278  11.091   0.044
12582SOL    HW286586  16.259  10.969   8.391
12583SOL     OW86587  12.039  10.604   1.405
12583SOL    HW186588  11.942  10.627   1.418
12583SOL    HW286589  12.084  10.596   1.493
12584SOL     OW86590  15.654  11.463   0.558
12584SOL    HW186591  15.692  11.477   0.649
12584SOL    HW286592  15.635  11.365   0.545
12585SOL     OW86593  12.176   9.382   0.522
12585SOL    HW186594  12.198   9.293   0.563
12585SOL    HW286595  12.087   9.412   0.556
12586SOL     OW86596  14.142   6.055   8.356
12586SOL    HW186597  14.222   5.995   8.344
12586SOL    HW286598  14.144   6.127   8.287
12587SOL     OW86599   5.898   9.872   0.032
12587SOL    HW186600   5.958   9.861   8.407
12587SOL    HW286601   5.856   9.962   0.030
12588SOL     OW86602   7.971   8.904   1.912
12588SOL    HW186603   7.901   8.863   1.970
12588SOL    HW286604   8.061   8.889   1.953
12589SOL     OW86605   3.232  11.797   1.980
12589SOL    HW186606   3.215  11.808   1.882
12589SOL    HW286607   3.283  11.876   2.014
12590SOL     OW86608  12.973  14.495   7.313
12590SOL    HW186609  13.027  14.509   7.396
12590SOL    HW286610  12.974  14.579   7.258
12591SOL     OW86611   3.618  10.903   0.402
12591SOL    HW186612   3.625  10.804   0.417
12591SOL    HW286613   3.690  10.932   0.339
12592SOL     OW86614  16.124   4.957   7.933
12592SOL    HW186615  16.189   5.005   7.875
12592SOL    HW286616  16.082   4.882   7.883
12593SOL     OW86617  15.944   3.201   7.132
12593SOL    HW186618  15.964   3.283   7.186
12593SOL    HW286619  16.029   3.151   7.115
12594SOL     OW86620  15.958  12.069   1.579
12594SOL    HW186621  15.897  12.006   1.627
12594SOL    HW286622  16.042  12.020   1.553
12595SOL     OW86623  12.930  10.034   0.926
12595SOL    HW186624  12.857  10.031   0.858
12595SOL    HW286625  12.936  10.125   0.966
12596SOL     OW86626  10.680   8.043   7.527
12596SOL    HW186627  10.714   7.950   7.538
12596SOL    HW286628  10.757   8.106   7.522
12597SOL     OW86629  13.235  12.432   0.169
12597SOL    HW186630  13.332  12.440   0.144
12597SOL    HW286631  13.228  12.395   0.262
12598SOL     OW86632   3.026   9.888   1.128
12598SOL    HW186633   3.112   9.936   1.112
12598SOL    HW286634   2.990   9.911   1.218
12599SOL     OW86635  14.019  10.099   0.187
12599SOL    HW186636  13.945  10.157   0.154
12599SOL    HW286637  13.992  10.003   0.179
12600SOL     OW86638   4.390   4.139   0.766
12600SOL    HW186639   4.339   4.113   0.849
12600SOL    HW286640   4.424   4.056   0.722
12601SOL     OW86641  10.878  10.646   6.986
12601SOL    HW186642  10.835  10.734   7.005
12601SOL    HW286643  10.936  10.619   7.062
12602SOL     OW86644   9.856   4.698   7.162
12602SOL    HW186645   9.868   4.614   7.217
12602SOL    HW286646   9.824   4.673   7.071
12603SOL     OW86647  15.374   1.562   7.607
12603SOL    HW186648  15.326   1.647   7.586
12603SOL    HW286649  15.363   1.498   7.531
12604SOL     OW86650   4.986  15.385   0.944
12604SOL    HW186651   4.955  15.370   1.037
12604SOL    HW286652   4.918  15.352   0.879
12605SOL     OW86653   1.925   5.776   0.315
12605SOL    HW186654   1.988   5.729   0.378
12605SOL    HW286655   1.957   5.765   0.221
12606SOL     OW86656  10.634   9.633   7.915
12606SOL    HW186657  10.616   9.709   7.977
12606SOL    HW286658  10.563   9.631   7.844
12607SOL     OW86659   0.124  13.381   1.328
12607SOL    HW186660   0.136  13.304   1.265
12607SOL    HW286661   0.143  13.467   1.281
12608SOL     OW86662   9.492   3.672   1.628
12608SOL    HW186663   9.585   3.650   1.600
12608SOL    HW286664   9.491   3.702   1.723
12609SOL     OW86665   7.161  10.696   0.112
12609SOL    HW186666   7.185  10.665   0.204
12609SOL    HW286667   7.164  10.618   0.049
12610SOL     OW86668   5.667  16.752   0.123
12610SOL    HW186669   5.641  16.768   0.028
12610SOL    HW286670   5.660  16.655   0.144
12611SOL     OW86671   0.304   2.898   0.243
12611SOL    HW186672   0.208   2.902   0.270
12611SOL    HW286673   0.358   2.958   0.303
12612SOL     OW86674  15.770   1.229   6.415
12612SOL    HW186675  15.701   1.302   6.417
12612SOL    HW286676  15.850   1.261   6.365
12613SOL     OW86677  14.099   2.284   1.580
12613SOL    HW186678  14.099   2.369   1.634
12613SOL    HW286679  14.185   2.277   1.529
12614SOL     OW86680   2.947   0.992   6.911
12614SOL    HW186681   2.962   1.083   6.873
12614SOL    HW286682   2.993   0.924   6.853
12615SOL     OW86683  11.356   3.253   6.439
12615SOL    HW186684  11.307   3.324   6.388
12615SOL    HW286685  11.358   3.169   6.385
12616SOL     OW86686  13.116   1.096   7.375
12616SOL    HW186687  13.166   1.152   7.309
12616SOL    HW286688  13.062   1.027   7.326
12617SOL     OW86689  11.182   1.823   5.988
12617SOL    HW186690  11.195   1.794   6.083
12617SOL    HW286691  11.230   1.760   5.927
12618SOL     OW86692  16.735  10.634   1.795
12618SOL    HW186693  16.743  10.658   1.892
12618SOL    HW286694  16.638  10.618   1.773
12619SOL     OW86695  11.392   5.718   7.698
12619SOL    HW186696  11.472   5.710   7.638
12619SOL    HW286697  11.390   5.641   7.762
12620SOL     OW86698  15.303   3.517   7.550
12620SOL    HW186699  15.302   3.556   7.458
12620SOL    HW286700  15.229   3.450   7.558
12621SOL     OW86701  13.789   9.983   0.768
12621SOL    HW186702  13.853  10.021   0.834
12621SOL    HW286703  13.722  10.053   0.743
12622SOL     OW86704   9.820  11.432   0.178
12622SOL    HW186705   9.800  11.493   0.101
12622SOL    HW286706   9.761  11.351   0.172
12623SOL     OW86707  10.896   9.560   7.829
12623SOL    HW186708  10.805   9.598   7.840
12623SOL    HW286709  10.894   9.462   7.851
12624SOL     OW86710   0.669  14.541   1.830
12624SOL    HW186711   0.712  14.585   1.908
12624SOL    HW286712   0.706  14.449   1.819
12625SOL     OW86713  14.910  16.155   7.600
12625SOL    HW186714  14.819  16.144   7.561
12625SOL    HW286715  14.975  16.097   7.552
12626SOL     OW86716   5.175  11.870   6.755
12626SOL    HW186717   5.158  11.944   6.690
12626SOL    HW286718   5.245  11.899   6.820
12627SOL     OW86719   5.618   7.291   1.292
12627SOL    HW186720   5.697   7.306   1.233
12627SOL    HW286721   5.536   7.283   1.235
12628SOL     OW86722  15.595  10.006   7.726
12628SOL    HW186723  15.642  10.070   7.787
12628SOL    HW286724  15.659   9.975   7.656
12629SOL     OW86725   9.833   4.755   8.295
12629SOL    HW186726   9.757   4.779   8.234
12629SOL    HW286727   9.852   4.831   8.356
12630SOL     OW86728   3.670  16.836   2.245
12630SOL    HW186729   3.626  16.831   2.155
12630SOL    HW286730   3.744  16.769   2.249
12631SOL     OW86731   0.064   6.395   1.024
12631SOL    HW186732   0.142   6.451   0.997
12631SOL    HW286733   0.071   6.372   1.121
12632SOL     OW86734   0.229  12.141   7.622
12632SOL    HW186735   0.170  12.116   7.545
12632SOL    HW286736   0.232  12.240   7.631
12633SOL     OW86737   5.026   6.308   1.477
12633SOL    HW186738   5.059   6.278   1.567
12633SOL    HW286739   5.053   6.242   1.408
12634SOL     OW86740   3.575   8.583   0.893
12634SOL    HW186741   3.551   8.670   0.849
12634SOL    HW286742   3.501   8.557   0.955
12635SOL     OW86743   3.427  16.071   2.338
12635SOL    HW186744   3.503  16.019   2.301
12635SOL    HW286745   3.374  16.013   2.400
12636SOL     OW86746  14.169   9.654   0.890
12636SOL    HW186747  14.086   9.675   0.839
12636SOL    HW286748  14.148   9.653   0.988
12637SOL     OW86749  12.868   5.913   0.592
12637SOL    HW186750  12.775   5.900   0.557
12637SOL    HW286751  12.864   5.943   0.687
12638SOL     OW86752   1.949   4.280   6.886
12638SOL    HW186753   2.004   4.285   6.803
12638SOL    HW286754   1.893   4.363   6.894
12639SOL     OW86755   5.989   3.858   1.329
12639SOL    HW186756   6.049   3.779   1.342
12639SOL    HW286757   5.992   3.886   1.233
12640SOL     OW86758  16.620   6.610   7.955
12640SOL    HW186759  16.584   6.637   8.044
12640SOL    HW286760  16.720   6.618   7.955
12641SOL     OW86761   0.364  16.049   7.155
12641SOL    HW186762   0.416  16.122   7.109
12641SOL    HW286763   0.268  16.055   7.127
12642SOL     OW86764   5.207  11.715   1.717
12642SOL    HW186765   5.298  11.678   1.696
12642SOL    HW286766   5.174  11.674   1.802
12643SOL     OW86767  10.508  10.345   7.136
12643SOL    HW186768  10.582  10.382   7.191
12643SOL    HW286769  10.423  10.392   7.159
12644SOL     OW86770   5.426  13.211   7.253
12644SOL    HW186771   5.444  13.192   7.350
12644SOL    HW286772   5.492  13.160   7.198
12645SOL     OW86773   8.904   4.578   7.327
12645SOL    HW186774   8.974   4.643   7.356
12645SOL    HW286775   8.893   4.506   7.395
12646SOL     OW86776   0.739  16.777   7.401
12646SOL    HW186777   0.813  16.714   7.425
12646SOL    HW286778   0.668  16.772   7.472
12647SOL     OW86779   5.392  14.572   1.337
12647SOL    HW186780   5.306  14.538   1.300
12647SOL    HW286781   5.387  14.574   1.437
12648SOL     OW86782   0.818   1.366   0.476
12648SOL    HW186783   0.731   1.415   0.481
12648SOL    HW286784   0.853   1.369   0.383
12649SOL     OW86785   9.749  15.623   1.387
12649SOL    HW186786   9.726  15.718   1.408
12649SOL    HW286787   9.778  15.577   1.470
12650SOL     OW86788  10.093   9.210   1.645
12650SOL    HW186789  10.156   9.212   1.723
12650SOL    HW286790  10.042   9.295   1.640
12651SOL     OW86791  11.725  10.340   1.937
12651SOL    HW186792  11.801  10.356   2.000
12651SOL    HW286793  11.726  10.245   1.907
12652SOL     OW86794  16.768  12.823   0.411
12652SOL    HW186795  16.805  12.790   0.325
12652SOL    HW286796  16.750  12.746   0.472
12653SOL     OW86797   2.072   0.460   7.863
12653SOL    HW186798   2.085   0.559   7.852
12653SOL    HW286799   2.066   0.438   7.960
12654SOL     OW86800  10.467  13.198   6.700
12654SOL    HW186801  10.453  13.137   6.622
12654SOL    HW286802  10.434  13.290   6.676
12655SOL     OW86803  10.738  11.353   2.155
12655SOL    HW186804  10.723  11.451   2.172
12655SOL    HW286805  10.759  11.307   2.241
12656SOL     OW86806  14.302   9.327   6.135
12656SOL    HW186807  14.258   9.312   6.046
12656SOL    HW286808  14.305   9.425   6.155
12657SOL     OW86809  10.580  10.040   1.516
12657SOL    HW186810  10.569  10.112   1.448
12657SOL    HW286811  10.519  10.058   1.593
12658SOL     OW86812   1.762   3.143   7.457
12658SOL    HW186813   1.763   3.160   7.555
12658SOL    HW286814   1.725   3.052   7.438
12659SOL     OW86815   0.159  11.340   1.045
12659SOL    HW186816   0.212  11.425   1.053
12659SOL    HW286817   0.075  11.348   1.098
12660SOL     OW86818  15.259   9.711   0.797
12660SOL    HW186819  15.271   9.810   0.792
12660SOL    HW286820  15.319   9.666   0.731
12661SOL     OW86821   5.261   6.299   8.074
12661SOL    HW186822   5.327   6.270   8.144
12661SOL    HW286823   5.300   6.372   8.020
12662SOL     OW86824   7.043   4.195   6.522
12662SOL    HW186825   7.009   4.226   6.434
12662SOL    HW286826   7.016   4.260   6.593
12663SOL     OW86827  10.779   6.432   0.515
12663SOL    HW186828  10.759   6.385   0.601
12663SOL    HW286829  10.867   6.479   0.523
12664SOL     OW86830   4.453   3.272   1.050
12664SOL    HW186831   4.508   3.293   0.969
12664SOL    HW286832   4.502   3.206   1.107
12665SOL     OW86833  13.406  13.551   0.498
12665SOL    HW186834  13.474  13.545   0.425
12665SOL    HW286835  13.353  13.466   0.502
12666SOL     OW86836   7.403  15.800   6.522
12666SOL    HW186837   7.367  15.739   6.452
12666SOL    HW286838   7.500  15.780   6.537
12667SOL     OW86839   4.707  14.646   1.300
12667SOL    HW186840   4.651  14.567   1.325
12667SOL    HW286841   4.708  14.712   1.375
12668SOL     OW86842   1.365  15.572   0.598
12668SOL    HW186843   1.289  15.631   0.571
12668SOL    HW286844   1.387  15.588   0.695
12669SOL     OW86845  16.401   1.607   0.405
12669SOL    HW186846  16.374   1.659   0.486
12669SOL    HW286847  16.320   1.590   0.348
12670SOL     OW86848  15.953   2.410   0.758
12670SOL    HW186849  15.896   2.392   0.838
12670SOL    HW286850  15.979   2.507   0.757
12671SOL     OW86851   8.332  11.612   8.267
12671SOL    HW186852   8.409  11.604   8.203
12671SOL    HW286853   8.288  11.523   8.277
12672SOL     OW86854  10.927  13.292   6.092
12672SOL    HW186855  10.979  13.211   6.121
12672SOL    HW286856  10.990  13.362   6.060
12673SOL     OW86857   7.429   7.385   7.779
12673SOL    HW186858   7.434   7.287   7.799
12673SOL    HW286859   7.420   7.436   7.865
12674SOL     OW86860   8.872   0.130   0.139
12674SOL    HW186861   8.956   0.078   0.126
12674SOL    HW286862   8.839   0.162   0.050
12675SOL     OW86863   7.618   0.221   1.513
12675SOL    HW186864   7.666   0.248   1.597
12675SOL    HW286865   7.661   0.140   1.474
12676SOL     OW86866   6.848  11.984   0.097
12676SOL    HW186867   6.841  12.005   8.453
12676SOL    HW286868   6.864  12.069   0.148
12677SOL     OW86869  11.399   6.662   0.899
12677SOL    HW186870  11.410   6.569   0.865
12677SOL    HW286871  11.336   6.712   0.839
12678SOL     OW86872   2.894   6.701   7.648
12678SOL    HW186873   2.842   6.620   7.676
12678SOL    HW286874   2.871   6.726   7.554
12679SOL     OW86875  14.014  16.809   0.093
12679SOL    HW186876  13.957  16.834   0.172
12679SOL    HW286877  14.023  16.710   0.089
12680SOL     OW86878  15.311  13.104   1.225
12680SOL    HW186879  15.222  13.110   1.271
12680SOL    HW286880  15.380  13.151   1.281
12681SOL     OW86881   6.991   2.907   1.988
12681SOL    HW186882   6.912   2.886   1.930
12681SOL    HW286883   7.073   2.914   1.932
12682SOL     OW86884   9.838  16.344   6.780
12682SOL    HW186885   9.872  16.432   6.812
12682SOL    HW286886   9.791  16.357   6.692
12683SOL     OW86887   5.473  13.852   8.405
12683SOL    HW186888   5.496  13.843   8.308
12683SOL    HW286889   5.434  13.942   8.423
12684SOL     OW86890   7.061   4.986   7.555
12684SOL    HW186891   7.025   4.954   7.642
12684SOL    HW286892   7.015   4.938   7.480
12685SOL     OW86893  13.439   4.844   7.578
12685SOL    HW186894  13.351   4.892   7.578
12685SOL    HW286895  13.467   4.823   7.484
12686SOL     OW86896  15.778   6.730   0.658
12686SOL    HW186897  15.779   6.672   0.739
12686SOL    HW286898  15.739   6.679   0.581
12687SOL     OW86899   2.372  15.932   0.241
12687SOL    HW186900   2.369  15.839   0.206
12687SOL    HW286901   2.320  15.937   0.327
12688SOL     OW86902   1.169  15.069   7.413
12688SOL    HW186903   1.106  15.134   7.456
12688SOL    HW286904   1.129  15.037   7.327
12689SOL     OW86905  11.445  13.113   2.082
12689SOL    HW186906  11.457  13.116   2.181
12689SOL    HW286907  11.395  13.194   2.052
12690SOL     OW86908   4.684  15.858   0.632
12690SOL    HW186909   4.584  15.855   0.629
12690SOL    HW286910   4.715  15.953   0.631
12691SOL     OW86911  13.586  11.234   1.772
12691SOL    HW186912  13.638  11.206   1.691
12691SOL    HW286913  13.647  11.278   1.837
12692SOL     OW86914  16.230   7.255   6.687
12692SOL    HW186915  16.300   7.221   6.625
12692SOL    HW286916  16.269   7.268   6.778
12693SOL     OW86917  10.937  10.652   0.151
12693SOL    HW186918  10.962  10.556   0.137
12693SOL    HW286919  11.010  10.711   0.117
12694SOL     OW86920  15.863  13.341   6.764
12694SOL    HW186921  15.871  13.286   6.682
12694SOL    HW286922  15.845  13.437   6.739
12695SOL     OW86923   6.711   5.010   0.710
12695SOL    HW186924   6.807   4.992   0.732
12695SOL    HW286925   6.690   5.105   0.730
12696SOL     OW86926   5.160  12.507   7.359
12696SOL    HW186927   5.252  12.476   7.335
12696SOL    HW286928   5.122  12.447   7.430
12697SOL     OW86929  16.382   9.688   0.923
12697SOL    HW186930  16.458   9.667   0.861
12697SOL    HW286931  16.333   9.768   0.890
12698SOL     OW86932  13.026  14.630   0.713
12698SOL    HW186933  12.990  14.585   0.795
12698SOL    HW286934  12.969  14.710   0.691
12699SOL     OW86935   4.004  12.894   0.153
12699SOL    HW186936   4.045  12.879   0.243
12699SOL    HW286937   4.075  12.919   0.087
12700SOL     OW86938  11.187   6.287   1.220
12700SOL    HW186939  11.150   6.380   1.218
12700SOL    HW286940  11.246   6.274   1.140
12701SOL     OW86941   4.095   3.354   7.548
12701SOL    HW186942   4.005   3.359   7.506
12701SOL    HW286943   4.100   3.274   7.608
12702SOL     OW86944   6.525  15.360   7.025
12702SOL    HW186945   6.613  15.360   7.071
12702SOL    HW286946   6.539  15.348   6.926
12703SOL     OW86947   6.951   8.000   7.058
12703SOL    HW186948   6.880   8.058   7.018
12703SOL    HW286949   7.039   8.021   7.016
12704SOL     OW86950   5.885   0.984   7.400
12704SOL    HW186951   5.977   0.945   7.404
12704SOL    HW286952   5.847   0.989   7.493
12705SOL     OW86953  13.341  11.102   7.148
12705SOL    HW186954  13.382  11.129   7.062
12705SOL    HW286955  13.270  11.034   7.132
12706SOL     OW86956   0.098   8.430   1.362
12706SOL    HW186957   0.111   8.508   1.301
12706SOL    HW286958   0.186   8.387   1.381
12707SOL     OW86959  10.046   6.249   7.658
12707SOL    HW186960  10.037   6.199   7.744
12707SOL    HW286961  10.136   6.231   7.618
12708SOL     OW86962   0.004   3.125   7.119
12708SOL    HW186963  16.936   3.126   7.204
12708SOL    HW286964   0.048   3.214   7.105
12709SOL     OW86965  11.980   8.637   7.592
12709SOL    HW186966  12.080   8.644   7.592
12709SOL    HW286967  11.942   8.711   7.537
12710SOL     OW86968  11.830  11.365   8.171
12710SOL    HW186969  11.882  11.449   8.164
12710SOL    HW286970  11.794  11.341   8.081
12711SOL     OW86971   2.131   9.631   0.605
12711SOL    HW186972   2.031   9.633   0.597
12711SOL    HW286973   2.160   9.544   0.645
12712SOL     OW86974   7.407   1.440   0.958
12712SOL    HW186975   7.432   1.537   0.949
12712SOL    HW286976   7.467   1.397   1.026
12713SOL     OW86977   1.320   1.244   0.431
12713SOL    HW186978   1.353   1.322   0.378
12713SOL    HW286979   1.388   1.171   0.429
12714SOL     OW86980   3.502   4.863   8.304
12714SOL    HW186981   3.463   4.940   8.356
12714SOL    HW286982   3.601   4.874   8.299
12715SOL     OW86983  14.819   6.875   0.478
12715SOL    HW186984  14.900   6.834   0.521
12715SOL    HW286985  14.834   6.973   0.467
12716SOL     OW86986   0.190   4.074   6.788
12716SOL    HW186987   0.280   4.117   6.787
12716SOL    HW286988   0.130   4.122   6.723
12717SOL     OW86989   1.403   6.453   0.164
12717SOL    HW186990   1.408   6.552   0.171
12717SOL    HW286991   1.386   6.427   0.068
12718SOL     OW86992   5.822   8.311   7.838
12718SOL    HW186993   5.787   8.341   7.749
12718SOL    HW286994   5.911   8.266   7.824
12719SOL     OW86995  10.192  11.442   1.171
12719SOL    HW186996  10.153  11.403   1.088
12719SOL    HW286997  10.119  11.477   1.229
12720SOL     OW86998   5.168  13.868   7.352
12720SOL    HW186999   5.237  13.799   7.376
12720SOL    HW287000   5.158  13.872   7.253
12721SOL     OW87001   2.835  15.242   7.892
12721SOL    HW187002   2.814  15.173   7.962
12721SOL    HW287003   2.758  15.304   7.883
12722SOL     OW87004  11.364  12.154   0.158
12722SOL    HW187005  11.411  12.220   0.218
12722SOL    HW287006  11.343  12.197   0.071
12723SOL     OW87007   9.118  12.932   1.110
12723SOL    HW187008   9.190  12.870   1.140
12723SOL    HW287009   9.136  13.024   1.145
12724SOL     OW87010   8.362   9.171   7.179
12724SOL    HW187011   8.281   9.169   7.120
12724SOL    HW287012   8.440   9.207   7.128
12725SOL     OW87013   9.362   5.452   7.307
12725SOL    HW187014   9.272   5.408   7.304
12725SOL    HW287015   9.431   5.385   7.336
12726SOL     OW87016   2.860  14.022   6.612
12726SOL    HW187017   2.854  14.112   6.568
12726SOL    HW287018   2.954  13.988   6.606
12727SOL     OW87019   0.101   9.565   2.574
12727SOL    HW187020   0.188   9.601   2.610
12727SOL    HW287021   0.045   9.531   2.649
12728SOL     OW87022  16.688  16.549   2.108
12728SOL    HW187023  16.596  16.535   2.145
12728SOL    HW287024  16.693  16.638   2.063
12729SOL     OW87025   3.092   3.095   1.298
12729SOL    HW187026   3.040   3.096   1.212
12729SOL    HW287027   3.067   3.175   1.352
12730SOL     OW87028  10.567   3.455   8.105
12730SOL    HW187029  10.531   3.545   8.131
12730SOL    HW287030  10.622   3.465   8.022
12731SOL     OW87031   6.812   2.057   1.368
12731SOL    HW187032   6.734   2.057   1.305
12731SOL    HW287033   6.792   2.118   1.445
12732SOL     OW87034   4.487   4.956   8.047
12732SOL    HW187035   4.419   5.016   8.090
12732SOL    HW287036   4.455   4.861   8.051
12733SOL     OW87037   6.285  12.807   6.526
12733SOL    HW187038   6.283  12.859   6.612
12733SOL    HW287039   6.302  12.870   6.450
12734SOL     OW87040   0.710   7.014   0.346
12734SOL    HW187041   0.718   7.065   0.261
12734SOL    HW287042   0.624   6.963   0.346
12735SOL     OW87043   8.941  14.975   8.000
12735SOL    HW187044   8.865  14.993   8.063
12735SOL    HW287045   8.967  14.878   8.006
12736SOL     OW87046   5.800   2.056   0.679
12736SOL    HW187047   5.702   2.048   0.657
12736SOL    HW287048   5.820   2.149   0.710
12737SOL     OW87049   5.628  16.444   0.438
12737SOL    HW187050   5.581  16.521   0.480
12737SOL    HW287051   5.683  16.397   0.508
12738SOL     OW87052  10.160  10.941   7.611
12738SOL    HW187053  10.121  10.886   7.685
12738SOL    HW287054  10.088  10.993   7.566
12739SOL     OW87055   6.325  10.841   0.432
12739SOL    HW187056   6.307  10.811   0.339
12739SOL    HW287057   6.423  10.849   0.446
12740SOL     OW87058   9.525   1.899   1.713
12740SOL    HW187059   9.563   1.894   1.620
12740SOL    HW287060   9.558   1.983   1.757
12741SOL     OW87061  16.191  15.286   1.259
12741SOL    HW187062  16.249  15.295   1.341
12741SOL    HW287063  16.213  15.360   1.195
12742SOL     OW87064   9.292   9.735   0.792
12742SOL    HW187065   9.336   9.645   0.788
12742SOL    HW287066   9.234   9.740   0.873
12743SOL     OW87067  10.086   0.371   0.400
12743SOL    HW187068  10.001   0.319   0.412
12743SOL    HW287069  10.164   0.313   0.423
12744SOL     OW87070   2.961   8.999   1.680
12744SOL    HW187071   2.974   8.985   1.581
12744SOL    HW287072   2.871   9.041   1.696
12745SOL     OW87073  10.156   3.027   7.016
12745SOL    HW187074  10.207   3.112   7.024
12745SOL    HW287075  10.058   3.046   7.008
12746SOL     OW87076   4.479   0.624   0.194
12746SOL    HW187077   4.479   0.533   0.235
12746SOL    HW287078   4.571   0.662   0.196
12747SOL     OW87079  16.896   4.914   0.588
12747SOL    HW187080  16.841   4.997   0.590
12747SOL    HW287081  16.951   4.912   0.504
12748SOL     OW87082   5.585  11.171   0.071
12748SOL    HW187083   5.571  11.254   0.017
12748SOL    HW287084   5.506  11.111   0.062
12749SOL     OW87085   9.253  16.784   8.309
12749SOL    HW187086   9.159  16.753   8.295
12749SOL    HW287087   9.257  16.883   8.310
12750SOL     OW87088  16.814  11.541   7.368
12750SOL    HW187089  16.802  11.640   7.371
12750SOL    HW287090  16.892  11.519   7.309
12751SOL     OW87091  12.873   4.524   6.137
12751SOL    HW187092  12.828   4.613   6.126
12751SOL    HW287093  12.899   4.489   6.047
12752SOL     OW87094   5.172   8.194   0.415
12752SOL    HW187095   5.084   8.149   0.399
12752SOL    HW287096   5.246   8.128   0.405
12753SOL     OW87097  11.613   9.649   0.178
12753SOL    HW187098  11.699   9.695   0.200
12753SOL    HW287099  11.621   9.551   0.200
12754SOL     OW87100   8.894   6.924   8.271
12754SOL    HW187101   8.968   6.869   8.311
12754SOL    HW287102   8.819   6.863   8.245
12755SOL     OW87103  15.811   8.158   7.078
12755SOL    HW187104  15.716   8.161   7.108
12755SOL    HW287105  15.816   8.175   6.980
12756SOL     OW87106  12.898   1.107   6.847
12756SOL    HW187107  12.935   1.016   6.830
12756SOL    HW287108  12.799   1.101   6.858
12757SOL     OW87109  14.158   3.545   0.919
12757SOL    HW187110  14.096   3.618   0.891
12757SOL    HW287111  14.243   3.584   0.952
12758SOL     OW87112   3.673  12.163   1.447
12758SOL    HW187113   3.573  12.165   1.454
12758SOL    HW287114   3.700  12.118   1.362
12759SOL     OW87115   9.677   7.130   7.792
12759SOL    HW187116   9.765   7.178   7.804
12759SOL    HW287117   9.619   7.182   7.730
12760SOL     OW87118   9.572  10.939   6.923
12760SOL    HW187119   9.563  10.854   6.872
12760SOL    HW287120   9.632  11.002   6.873
12761SOL     OW87121   0.839   6.959   5.944
12761SOL    HW187122   0.824   7.024   5.869
12761SOL    HW287123   0.769   6.888   5.941
12762SOL     OW87124   2.247  12.502   8.108
12762SOL    HW187125   2.275  12.590   8.145
12762SOL    HW287126   2.235  12.437   8.183
12763SOL     OW87127   5.503  12.830   7.983
12763SOL    HW187128   5.488  12.867   7.891
12763SOL    HW287129   5.552  12.743   7.976
12764SOL     OW87130   8.067  10.321   8.185
12764SOL    HW187131   8.044  10.363   8.273
12764SOL    HW287132   8.127  10.382   8.134
12765SOL     OW87133   7.412  10.266   8.025
12765SOL    HW187134   7.445  10.360   8.014
12765SOL    HW287135   7.325  10.267   8.076
12766SOL     OW87136  11.929   3.531   1.034
12766SOL    HW187137  11.918   3.436   1.007
12766SOL    HW287138  11.913   3.539   1.133
12767SOL     OW87139  14.721   3.960   7.066
12767SOL    HW187140  14.782   3.886   7.038
12767SOL    HW287141  14.763   4.011   7.141
12768SOL     OW87142  10.824  11.133   1.585
12768SOL    HW187143  10.829  11.036   1.606
12768SOL    HW287144  10.743  11.173   1.629
12769SOL     OW87145  11.612  10.668   7.977
12769SOL    HW187146  11.577  10.587   8.024
12769SOL    HW287147  11.597  10.749   8.033
12770SOL     OW87148  11.584   1.227   7.164
12770SOL    HW187149  11.636   1.308   7.190
12770SOL    HW287150  11.501   1.254   7.115
12771SOL     OW87151  14.729  12.768   2.041
12771SOL    HW187152  14.665  12.701   2.080
12771SOL    HW287153  14.797  12.793   2.110
12772SOL     OW87154  14.576   6.935   7.947
12772SOL    HW187155  14.557   6.842   7.980
12772SOL    HW287156  14.543   7.001   8.014
12773SOL     OW87157   2.253   0.038   0.051
12773SOL    HW187158   2.224  16.971   0.132
12773SOL    HW287159   2.352   0.025   0.038
12774SOL     OW87160  16.718  14.855   7.287
12774SOL    HW187161  16.632  14.902   7.265
12774SOL    HW287162  16.757  14.894   7.370
12775SOL     OW87163  13.441  12.600   1.575
12775SOL    HW187164  13.397  12.639   1.657
12775SOL    HW287165  13.403  12.642   1.493
12776SOL     OW87166   1.726   8.558   1.512
12776SOL    HW187167   1.780   8.476   1.493
12776SOL    HW287168   1.779   8.620   1.570
12777SOL     OW87169   0.447  16.179   0.604
12777SOL    HW187170   0.482  16.255   0.549
12777SOL    HW287171   0.507  16.164   0.683
12778SOL     OW87172  14.780   1.351   0.128
12778SOL    HW187173  14.831   1.377   0.046
12778SOL    HW287174  14.694   1.402   0.131
12779SOL     OW87175   9.686  11.551   8.139
12779SOL    HW187176   9.718  11.630   8.086
12779SOL    HW287177   9.717  11.466   8.095
12780SOL     OW87178   2.078  15.798   7.631
12780SOL    HW187179   1.981  15.789   7.655
12780SOL    HW287180   2.123  15.860   7.696
12781SOL     OW87181   3.428   2.751   0.252
12781SOL    HW187182   3.407   2.706   0.339
12781SOL    HW287183   3.509   2.709   0.211
12782SOL     OW87184   1.719   1.446   7.042
12782SOL    HW187185   1.814   1.476   7.051
12782SOL    HW287186   1.706   1.402   6.953
12783SOL     OW87187   6.103   2.871   8.214
12783SOL    HW187188   6.161   2.789   8.214
12783SOL    HW287189   6.083   2.897   8.120
12784SOL     OW87190  16.013   3.683   7.748
12784SOL    HW187191  15.922   3.726   7.744
12784SOL    HW287192  16.082   3.749   7.721
12785SOL     OW87193   0.823  14.573   7.623
12785SOL    HW187194   0.749  14.534   7.679
12785SOL    HW287195   0.903  14.591   7.680
12786SOL     OW87196   1.151  15.127   0.733
12786SOL    HW187197   1.226  15.122   0.667
12786SOL    HW287198   1.186  15.160   0.821
12787SOL     OW87199  15.018  16.814   1.889
12787SOL    HW187200  14.939  16.786   1.944
12787SOL    HW287201  15.087  16.855   1.949
12788SOL     OW87202  16.952   0.542   1.079
12788SOL    HW187203  16.967   0.639   1.098
12788SOL    HW287204   0.057   0.499   1.057
12789SOL     OW87205   1.290   9.700   8.119
12789SOL    HW187206   1.315   9.775   8.181
12789SOL    HW287207   1.308   9.612   8.164
12790SOL     OW87208  12.850  12.659   7.817
12790SOL    HW187209  12.877  12.628   7.726
12790SOL    HW287210  12.860  12.759   7.822
12791SOL     OW87211   3.832  13.626   6.759
12791SOL    HW187212   3.878  13.556   6.703
12791SOL    HW287213   3.874  13.715   6.742
12792SOL     OW87214  10.147   3.434   1.021
12792SOL    HW187215  10.099   3.511   1.064
12792SOL    HW287216  10.223   3.405   1.079
12793SOL     OW87217  11.749  16.593   1.332
12793SOL    HW187218  11.718  16.676   1.287
12793SOL    HW287219  11.754  16.609   1.431
12794SOL     OW87220  12.401   2.562   8.443
12794SOL    HW187221  12.478   2.520   0.036
12794SOL    HW287222  12.394   2.658   0.016
12795SOL     OW87223   2.813  10.442   0.974
12795SOL    HW187224   2.784  10.534   1.000
12795SOL    HW287225   2.864  10.445   0.888
12796SOL     OW87226   4.881  11.465   1.958
12796SOL    HW187227   4.838  11.503   2.040
12796SOL    HW287228   4.974  11.502   1.948
12797SOL     OW87229   9.474  11.252   0.310
12797SOL    HW187230   9.554  11.234   0.254
12797SOL    HW287231   9.417  11.321   0.267
12798SOL     OW87232  14.076  16.929   7.465
12798SOL    HW187233  14.107  16.888   7.552
12798SOL    HW287234  14.034  16.858   7.408
12799SOL     OW87235   2.793   7.487   8.397
12799SOL    HW187236   2.867   7.425   8.372
12799SOL    HW287237   2.754   7.460   0.031
12800SOL     OW87238  15.658   5.471   1.136
12800SOL    HW187239  15.603   5.445   1.056
12800SOL    HW287240  15.641   5.568   1.157
12801SOL     OW87241  15.546  13.628   1.131
12801SOL    HW187242  15.511  13.721   1.127
12801SOL    HW287243  15.639  13.625   1.094
12802SOL     OW87244  14.736  11.124   0.300
12802SOL    HW187245  14.716  11.206   0.353
12802SOL    HW287246  14.825  11.135   0.254
12803SOL     OW87247   5.982   2.003   0.249
12803SOL    HW187248   5.931   2.087   0.231
12803SOL    HW287249   6.056   1.993   0.183
12804SOL     OW87250  13.764   2.824   8.089
12804SOL    HW187251  13.732   2.918   8.092
12804SOL    HW287252  13.688   2.762   8.112
12805SOL     OW87253   2.912  15.037   1.348
12805SOL    HW187254   2.942  14.944   1.371
12805SOL    HW287255   2.813  15.042   1.354
12806SOL     OW87256   0.054   1.996   0.433
12806SOL    HW187257  16.950   1.982   0.387
12806SOL    HW287258   0.085   2.090   0.419
12807SOL     OW87259   5.234   4.723   7.801
12807SOL    HW187260   5.151   4.777   7.793
12807SOL    HW287261   5.230   4.667   7.884
12808SOL     OW87262  14.509   6.953   7.678
12808SOL    HW187263  14.536   6.944   7.774
12808SOL    HW287264  14.461   7.039   7.666
12809SOL     OW87265   0.889   8.761   0.247
12809SOL    HW187266   0.887   8.754   0.347
12809SOL    HW287267   0.814   8.820   0.217
12810SOL     OW87268   3.461   4.779   0.641
12810SOL    HW187269   3.495   4.836   0.716
12810SOL    HW287270   3.510   4.692   0.640
12811SOL     OW87271  16.750   3.119   1.938
12811SOL    HW187272  16.693   3.182   1.990
12811SOL    HW287273  16.706   3.030   1.934
12812SOL     OW87274   8.582  10.142   7.622
12812SOL    HW187275   8.647  10.069   7.643
12812SOL    HW287276   8.575  10.154   7.523
12813SOL     OW87277  11.260  14.473   0.118
12813SOL    HW187278  11.279  14.442   0.212
12813SOL    HW287279  11.272  14.573   0.113
12814SOL     OW87280   5.839  13.413   7.530
12814SOL    HW187281   5.885  13.429   7.443
12814SOL    HW287282   5.878  13.331   7.574
12815SOL     OW87283   7.596  16.070   7.345
12815SOL    HW187284   7.657  16.027   7.279
12815SOL    HW287285   7.649  16.115   7.416
12816SOL     OW87286   7.106  14.509   0.218
12816SOL    HW187287   7.176  14.499   0.289
12816SOL    HW287288   7.103  14.604   0.186
12817SOL     OW87289  10.016   6.522   7.691
12817SOL    HW187290   9.919   6.547   7.693
12817SOL    HW287291  10.024   6.423   7.676
12818SOL     OW87292  14.777  13.033   1.027
12818SOL    HW187293  14.819  12.957   1.077
12818SOL    HW287294  14.849  13.093   0.991
12819SOL     OW87295  16.806   6.954   0.364
12819SOL    HW187296  16.775   7.004   0.445
12819SOL    HW287297  16.734   6.956   0.294
12820SOL     OW87298  16.455  16.590   0.364
12820SOL    HW187299  16.389  16.661   0.391
12820SOL    HW287300  16.451  16.577   0.265
12821SOL     OW87301   2.566   5.629   7.080
12821SOL    HW187302   2.625   5.550   7.063
12821SOL    HW287303   2.617   5.713   7.064
12822SOL     OW87304  11.374   8.370   0.923
12822SOL    HW187305  11.316   8.330   0.852
12822SOL    HW287306  11.459   8.404   0.881
12823SOL     OW87307  12.435   7.279   6.230
12823SOL    HW187308  12.390   7.228   6.302
12823SOL    HW287309  12.443   7.375   6.257
12824SOL     OW87310  14.260   5.466   6.622
12824SOL    HW187311  14.168   5.452   6.658
12824SOL    HW287312  14.319   5.391   6.653
12825SOL     OW87313  13.544   4.753   7.325
12825SOL    HW187314  13.628   4.805   7.346
12825SOL    HW287315  13.549   4.719   7.231
12826SOL     OW87316   6.108  16.842   1.268
12826SOL    HW187317   6.032  16.865   1.207
12826SOL    HW287318   6.087  16.756   1.315
12827SOL     OW87319   1.765   9.865   0.742
12827SOL    HW187320   1.721   9.840   0.828
12827SOL    HW287321   1.696   9.902   0.679
12828SOL     OW87322   7.189   8.698   1.056
12828SOL    HW187323   7.253   8.709   0.980
12828SOL    HW287324   7.179   8.785   1.104
12829SOL     OW87325   0.685   5.852   1.257
12829SOL    HW187326   0.726   5.767   1.291
12829SOL    HW287327   0.630   5.893   1.330
12830SOL     OW87328   3.204   2.649   0.726
12830SOL    HW187329   3.270   2.719   0.698
12830SOL    HW287330   3.114   2.671   0.690
12831SOL     OW87331  14.660   9.473   8.183
12831SOL    HW187332  14.620   9.556   8.222
12831SOL    HW287333  14.594   9.430   8.121
12832SOL     OW87334   4.120  11.279   0.974
12832SOL    HW187335   4.186  11.250   0.904
12832SOL    HW287336   4.047  11.332   0.931
12833SOL     OW87337   4.267   5.764   0.015
12833SOL    HW187338   4.230   5.836   0.074
12833SOL    HW287339   4.212   5.681   0.026
12834SOL     OW87340   2.800   1.755   2.283
12834SOL    HW187341   2.712   1.729   2.324
12834SOL    HW287342   2.871   1.752   2.353
12835SOL     OW87343  14.792  10.997   7.041
12835SOL    HW187344  14.835  10.979   7.130
12835SOL    HW287345  14.709  10.942   7.032
12836SOL     OW87346   6.678   5.605   1.308
12836SOL    HW187347   6.602   5.631   1.368
12836SOL    HW287348   6.701   5.509   1.323
12837SOL     OW87349   4.874   5.418   7.888
12837SOL    HW187350   4.812   5.355   7.842
12837SOL    HW287351   4.839   5.440   7.979
12838SOL     OW87352  12.443   9.138   7.684
12838SOL    HW187353  12.514   9.081   7.725
12838SOL    HW287354  12.471   9.233   7.687
12839SOL     OW87355  16.023  14.948   2.011
12839SOL    HW187356  16.009  14.933   2.108
12839SOL    HW287357  15.934  14.959   1.966
12840SOL     OW87358   2.263  11.826   7.968
12840SOL    HW187359   2.216  11.738   7.980
12840SOL    HW287360   2.204  11.888   7.916
12841SOL     OW87361  13.927   9.324   6.474
12841SOL    HW187362  13.966   9.285   6.557
12841SOL    HW287363  13.981   9.294   6.395
12842SOL     OW87364   0.085   9.495   1.647
12842SOL    HW187365   0.067   9.549   1.565
12842SOL    HW287366   0.001   9.485   1.700
12843SOL     OW87367   8.475  16.173   0.887
12843SOL    HW187368   8.476  16.272   0.870
12843SOL    HW287369   8.392  16.133   0.846
12844SOL     OW87370   7.935  12.066   2.131
12844SOL    HW187371   7.933  12.067   2.231
12844SOL    HW287372   8.002  12.133   2.099
12845SOL     OW87373  10.218   0.549   6.704
12845SOL    HW187374  10.149   0.541   6.776
12845SOL    HW287375  10.306   0.572   6.744
12846SOL     OW87376  11.236   0.136   1.679
12846SOL    HW187377  11.227   0.223   1.630
12846SOL    HW287378  11.262   0.154   1.774
12847SOL     OW87379  15.791   5.852   6.452
12847SOL    HW187380  15.876   5.890   6.416
12847SOL    HW287381  15.761   5.776   6.394
12848SOL     OW87382  12.628   1.116   6.866
12848SOL    HW187383  12.578   1.074   6.791
12848SOL    HW287384  12.605   1.213   6.871
12849SOL     OW87385  11.742  15.642   0.554
12849SOL    HW187386  11.790  15.593   0.481
12849SOL    HW287387  11.766  15.739   0.551
12850SOL     OW87388   3.452  11.879   0.400
12850SOL    HW187389   3.384  11.872   0.327
12850SOL    HW287390   3.472  11.975   0.418
12851SOL     OW87391   8.651   4.280   7.031
12851SOL    HW187392   8.711   4.211   6.990
12851SOL    HW287393   8.626   4.252   7.123
12852SOL     OW87394   9.223   2.717   1.790
12852SOL    HW187395   9.124   2.728   1.782
12852SOL    HW287396   9.243   2.625   1.823
12853SOL     OW87397   1.588  11.302   0.807
12853SOL    HW187398   1.570  11.396   0.777
12853SOL    HW287399   1.676  11.272   0.771
12854SOL     OW87400   0.948  15.403   8.216
12854SOL    HW187401   1.040  15.430   8.188
12854SOL    HW287402   0.934  15.306   8.194
12855SOL     OW87403  15.241   5.341   6.826
12855SOL    HW187404  15.156   5.391   6.840
12855SOL    HW287405  15.260   5.334   6.728
12856SOL     OW87406  12.099   3.492   6.150
12856SOL    HW187407  12.075   3.571   6.095
12856SOL    HW287408  12.081   3.408   6.098
12857SOL     OW87409   1.840   2.674   7.533
12857SOL    HW187410   1.897   2.627   7.465
12857SOL    HW287411   1.786   2.606   7.583
12858SOL     OW87412   1.954   0.373   1.952
12858SOL    HW187413   2.033   0.324   1.989
12858SOL    HW287414   1.873   0.314   1.956
12859SOL     OW87415  13.357   1.969   0.350
12859SOL    HW187416  13.288   2.037   0.328
12859SOL    HW287417  13.374   1.910   0.271
12860SOL     OW87418  13.442   5.913   7.063
12860SOL    HW187419  13.378   5.985   7.035
12860SOL    HW287420  13.433   5.834   7.001
12861SOL     OW87421   7.902  15.813   1.436
12861SOL    HW187422   7.902  15.876   1.357
12861SOL    HW287423   7.821  15.831   1.492
12862SOL     OW87424  13.873   6.124   8.364
12862SOL    HW187425  13.966   6.088   8.363
12862SOL    HW287426  13.813   6.061   8.315
12863SOL     OW87427   0.913  13.935   1.649
12863SOL    HW187428   0.994  13.992   1.659
12863SOL    HW287429   0.924  13.874   1.570
12864SOL     OW87430  11.762   5.382   8.176
12864SOL    HW187431  11.810   5.320   8.238
12864SOL    HW287432  11.667   5.393   8.206
12865SOL     OW87433   7.458  16.195   0.864
12865SOL    HW187434   7.490  16.290   0.861
12865SOL    HW287435   7.534  16.133   0.846
12866SOL     OW87436  15.990  15.906   0.271
12866SOL    HW187437  15.993  15.965   0.190
12866SOL    HW287438  16.075  15.854   0.277
12867SOL     OW87439  11.407   6.984   0.662
12867SOL    HW187440  11.398   7.079   0.693
12867SOL    HW287441  11.342   6.927   0.711
12868SOL     OW87442  10.545   4.597   7.941
12868SOL    HW187443  10.517   4.548   7.858
12868SOL    HW287444  10.507   4.550   8.021
12869SOL     OW87445   9.615   1.609   7.756
12869SOL    HW187446   9.593   1.564   7.843
12869SOL    HW287447   9.606   1.708   7.767
12870SOL     OW87448   2.002  15.396   0.831
12870SOL    HW187449   1.923  15.349   0.870
12870SOL    HW287450   1.975  15.442   0.747
12871SOL     OW87451  16.124   0.006   1.097
12871SOL    HW187452  16.083   0.062   1.025
12871SOL    HW287453  16.131  16.895   1.065
12872SOL     OW87454  14.351   3.701   0.702
12872SOL    HW187455  14.443   3.722   0.668
12872SOL    HW287456  14.324   3.611   0.668
12873SOL     OW87457  11.162   9.084   7.876
12873SOL    HW187458  11.251   9.114   7.841
12873SOL    HW287459  11.155   8.984   7.868
12874SOL     OW87460  11.122  10.361   1.828
12874SOL    HW187461  11.062  10.328   1.755
12874SOL    HW287462  11.068  10.414   1.893
12875SOL     OW87463  11.617   7.956   0.868
12875SOL    HW187464  11.680   8.021   0.825
12875SOL    HW287465  11.563   7.910   0.798
12876SOL     OW87466  11.580   5.359   0.707
12876SOL    HW187467  11.512   5.418   0.750
12876SOL    HW287468  11.672   5.392   0.729
12877SOL     OW87469  15.568  15.069   2.062
12877SOL    HW187470  15.493  15.033   2.008
12877SOL    HW287471  15.559  15.038   2.157
12878SOL     OW87472   2.130  13.542   7.555
12878SOL    HW187473   2.212  13.494   7.523
12878SOL    HW287474   2.139  13.640   7.536
12879SOL     OW87475   1.920  12.112   0.064
12879SOL    HW187476   1.835  12.150   0.102
12879SOL    HW287477   1.931  12.018   0.094
12880SOL     OW87478   3.116   0.937   7.121
12880SOL    HW187479   3.177   0.858   7.112
12880SOL    HW287480   3.060   0.945   7.038
12881SOL     OW87481  15.751   2.696   5.590
12881SOL    HW187482  15.657   2.730   5.596
12881SOL    HW287483  15.756   2.605   5.631
12882SOL     OW87484  16.116   4.606   6.290
12882SOL    HW187485  16.176   4.644   6.219
12882SOL    HW287486  16.169   4.544   6.348
12883SOL     OW87487  15.467   4.725   7.329
12883SOL    HW187488  15.515   4.649   7.373
12883SOL    HW287489  15.372   4.727   7.360
12884SOL     OW87490   7.949  15.264   8.249
12884SOL    HW187491   8.004  15.344   8.272
12884SOL    HW287492   7.876  15.254   8.316
12885SOL     OW87493   2.245  14.516   7.213
12885SOL    HW187494   2.150  14.486   7.208
12885SOL    HW287495   2.282  14.527   7.121
12886SOL     OW87496   4.411  15.890   0.669
12886SOL    HW187497   4.327  15.839   0.654
12886SOL    HW287498   4.389  15.981   0.705
12887SOL     OW87499   1.207   6.064   0.200
12887SOL    HW187500   1.225   6.149   0.251
12887SOL    HW287501   1.214   5.986   0.262
12888SOL     OW87502  11.064   8.942   1.274
12888SOL    HW187503  11.057   8.846   1.298
12888SOL    HW287504  11.118   8.953   1.190
12889SOL     OW87505  10.682   5.510   0.631
12889SOL    HW187506  10.690   5.537   0.535
12889SOL    HW287507  10.738   5.430   0.649
12890SOL     OW87508  11.148  14.167   1.788
12890SOL    HW187509  11.184  14.260   1.784
12890SOL    HW287510  11.190  14.119   1.865
12891SOL     OW87511   2.433   2.881   8.108
12891SOL    HW187512   2.434   2.977   8.134
12891SOL    HW287513   2.524   2.842   8.124
12892SOL     OW87514   8.217   0.133   6.889
12892SOL    HW187515   8.163   0.217   6.879
12892SOL    HW287516   8.313   0.154   6.871
12893SOL     OW87517   6.955   7.722   7.030
12893SOL    HW187518   7.026   7.701   6.963
12893SOL    HW287519   6.949   7.821   7.042
12894SOL     OW87520   3.707   6.173   0.866
12894SOL    HW187521   3.726   6.108   0.793
12894SOL    HW287522   3.688   6.124   0.951
12895SOL     OW87523   4.465  14.385   7.431
12895SOL    HW187524   4.387  14.390   7.369
12895SOL    HW287525   4.510  14.296   7.422
12896SOL     OW87526   7.274   2.384   0.559
12896SOL    HW187527   7.301   2.443   0.635
12896SOL    HW287528   7.178   2.358   0.570
12897SOL     OW87529  10.962  11.933   0.629
12897SOL    HW187530  10.999  11.875   0.556
12897SOL    HW287531  10.942  11.877   0.709
12898SOL     OW87532   9.009  11.727   0.303
12898SOL    HW187533   9.065  11.654   0.342
12898SOL    HW287534   9.061  11.813   0.302
12899SOL     OW87535  16.845   5.272   0.692
12899SOL    HW187536  16.935   5.256   0.650
12899SOL    HW287537  16.827   5.371   0.694
12900SOL     OW87538   4.422   1.254   7.198
12900SOL    HW187539   4.359   1.198   7.144
12900SOL    HW287540   4.408   1.350   7.175
12901SOL     OW87541   4.176  16.424   7.379
12901SOL    HW187542   4.130  16.467   7.301
12901SOL    HW287543   4.122  16.347   7.411
12902SOL     OW87544   2.722   9.781   1.814
12902SOL    HW187545   2.723   9.682   1.832
12902SOL    HW287546   2.722   9.796   1.716
12903SOL     OW87547  12.069  14.459   1.301
12903SOL    HW187548  11.996  14.455   1.370
12903SOL    HW287549  12.038  14.513   1.223
12904SOL     OW87550   3.384   0.429   0.678
12904SOL    HW187551   3.329   0.502   0.636
12904SOL    HW287552   3.331   0.344   0.680
12905SOL     OW87553  12.020   3.548   7.932
12905SOL    HW187554  11.935   3.568   7.981
12905SOL    HW287555  12.091   3.612   7.961
12906SOL     OW87556   9.445  16.941   0.826
12906SOL    HW187557   9.463  16.943   0.924
12906SOL    HW287558   9.469  16.851   0.789
12907SOL     OW87559   7.315   1.887   6.402
12907SOL    HW187560   7.279   1.941   6.326
12907SOL    HW287561   7.293   1.791   6.388
12908SOL     OW87562  14.246   2.848   0.227
12908SOL    HW187563  14.339   2.875   0.252
12908SOL    HW287564  14.228   2.872   0.132
12909SOL     OW87565   8.689  15.554   0.218
12909SOL    HW187566   8.667  15.553   0.121
12909SOL    HW287567   8.735  15.469   0.243
12910SOL     OW87568   4.817   0.074   7.256
12910SOL    HW187569   4.770  16.976   7.221
12910SOL    HW287570   4.915   0.055   7.264
12911SOL     OW87571   7.214  12.084   1.585
12911SOL    HW187572   7.191  12.168   1.634
12911SOL    HW287573   7.227  12.009   1.650
12912SOL     OW87574   6.849  12.042   8.278
12912SOL    HW187575   6.841  11.950   8.238
12912SOL    HW287576   6.931  12.087   8.241
12913SOL     OW87577  15.361   1.241   6.445
12913SOL    HW187578  15.292   1.230   6.374
12913SOL    HW287579  15.320   1.225   6.535
12914SOL     OW87580   0.724   2.859   6.995
12914SOL    HW187581   0.664   2.936   6.969
12914SOL    HW287582   0.668   2.786   7.035
12915SOL     OW87583   6.939   2.827   7.429
12915SOL    HW187584   7.035   2.798   7.435
12915SOL    HW287585   6.882   2.747   7.410
12916SOL     OW87586   1.202  15.320   7.084
12916SOL    HW187587   1.293  15.285   7.062
12916SOL    HW287588   1.133  15.270   7.031
12917SOL     OW87589   6.783   2.049   2.046
12917SOL    HW187590   6.725   2.029   2.125
12917SOL    HW287591   6.863   1.988   2.046
12918SOL     OW87592  13.825   4.104   0.881
12918SOL    HW187593  13.764   4.152   0.818
12918SOL    HW287594  13.909   4.079   0.833
12919SOL     OW87595   3.178  16.939   0.683
12919SOL    HW187596   3.227  16.946   0.597
12919SOL    HW287597   3.235  16.890   0.750
12920SOL     OW87598  15.716   2.580   0.013
12920SOL    HW187599  15.804   2.606   8.427
12920SOL    HW287600  15.720   2.590   0.112
12921SOL     OW87601  14.124   2.031   0.366
12921SOL    HW187602  14.063   2.109   0.353
12921SOL    HW287603  14.075   1.957   0.410
12922SOL     OW87604   0.075  11.813   7.379
12922SOL    HW187605  16.961  11.806   7.357
12922SOL    HW287606   0.127  11.757   7.314
12923SOL     OW87607   2.929   3.883   7.070
12923SOL    HW187608   2.972   3.809   7.121
12923SOL    HW287609   2.963   3.883   6.975
12924SOL     OW87610   8.350  11.013   8.134
12924SOL    HW187611   8.362  11.070   8.215
12924SOL    HW287612   8.440  10.995   8.093
12925SOL     OW87613   6.923   8.719   2.301
12925SOL    HW187614   6.862   8.750   2.373
12925SOL    HW287615   6.970   8.799   2.261
12926SOL     OW87616  12.097   2.402   6.821
12926SOL    HW187617  12.079   2.319   6.874
12926SOL    HW287618  12.157   2.380   6.744
12927SOL     OW87619   1.156   6.906   6.788
12927SOL    HW187620   1.190   6.999   6.774
12927SOL    HW287621   1.128   6.895   6.883
12928SOL     OW87622  14.694   0.778   7.494
12928SOL    HW187623  14.718   0.682   7.482
12928SOL    HW287624  14.776   0.829   7.520
12929SOL     OW87625   6.425   0.951   7.918
12929SOL    HW187626   6.507   0.896   7.936
12929SOL    HW287627   6.414   1.018   7.992
12930SOL     OW87628   0.310   9.108   0.870
12930SOL    HW187629   0.406   9.119   0.846
12930SOL    HW287630   0.267   9.044   0.807
12931SOL     OW87631   3.690   0.026   1.390
12931SOL    HW187632   3.743  16.943   1.337
12931SOL    HW287633   3.750   0.072   1.456
12932SOL     OW87634  13.366   0.621   6.926
12932SOL    HW187635  13.388   0.551   6.858
12932SOL    HW287636  13.332   0.577   7.009
12933SOL     OW87637  14.529   9.735   7.403
12933SOL    HW187638  14.482   9.647   7.409
12933SOL    HW287639  14.565   9.748   7.311
12934SOL     OW87640   0.780  15.307   6.881
12934SOL    HW187641   0.704  15.350   6.931
12934SOL    HW287642   0.748  15.277   6.792
12935SOL     OW87643  11.592   7.539   1.773
12935SOL    HW187644  11.520   7.596   1.813
12935SOL    HW287645  11.550   7.459   1.729
12936SOL     OW87646   7.937   6.974   7.399
12936SOL    HW187647   8.023   6.934   7.430
12936SOL    HW287648   7.875   6.984   7.476
12937SOL     OW87649   7.802  16.874   7.694
12937SOL    HW187650   7.863  16.801   7.665
12937SOL    HW287651   7.732  16.888   7.623
12938SOL     OW87652  11.371   1.697   6.653
12938SOL    HW187653  11.283   1.658   6.680
12938SOL    HW287654  11.375   1.701   6.553
12939SOL     OW87655  11.036   1.361   6.440
12939SOL    HW187656  11.082   1.347   6.528
12939SOL    HW287657  10.978   1.442   6.445
12940SOL     OW87658  15.430   2.225   1.089
12940SOL    HW187659  15.452   2.285   1.013
12940SOL    HW287660  15.458   2.268   1.175
12941SOL     OW87661   0.753   7.513   0.142
12941SOL    HW187662   0.830   7.451   0.123
12941SOL    HW287663   0.695   7.520   0.062
12942SOL     OW87664  12.662   0.397   0.905
12942SOL    HW187665  12.726   0.417   0.832
12942SOL    HW287666  12.641   0.299   0.904
12943SOL     OW87667   7.686   3.222   1.123
12943SOL    HW187668   7.627   3.144   1.145
12943SOL    HW287669   7.646   3.306   1.160
12944SOL     OW87670  14.979   4.582   7.698
12944SOL    HW187671  14.977   4.491   7.740
12944SOL    HW287672  14.935   4.648   7.759
12945SOL     OW87673  13.304   0.219   0.122
12945SOL    HW187674  13.382   0.260   0.074
12945SOL    HW287675  13.314   0.120   0.123
12946SOL     OW87676   7.918   8.983   1.334
12946SOL    HW187677   7.885   9.042   1.407
12946SOL    HW287678   7.894   8.888   1.355
12947SOL     OW87679   8.285   0.574   1.487
12947SOL    HW187680   8.206   0.607   1.538
12947SOL    HW287681   8.264   0.486   1.445
12948SOL     OW87682   4.679   3.369   1.966
12948SOL    HW187683   4.610   3.350   2.035
12948SOL    HW287684   4.749   3.430   2.003
12949SOL     OW87685  16.393   0.073   1.070
12949SOL    HW187686  16.421   0.165   1.099
12949SOL    HW287687  16.297   0.059   1.093
12950SOL     OW87688   3.325   0.441   0.198
12950SOL    HW187689   3.282   0.356   0.229
12950SOL    HW287690   3.254   0.507   0.172
12951SOL     OW87691   1.611  13.859   1.221
12951SOL    HW187692   1.658  13.943   1.192
12951SOL    HW287693   1.612  13.854   1.321
12952SOL     OW87694  14.526   1.973   7.411
12952SOL    HW187695  14.466   1.953   7.489
12952SOL    HW287696  14.488   1.931   7.329
12953SOL     OW87697   8.412   7.487   0.012
12953SOL    HW187698   8.454   7.446   0.093
12953SOL    HW287699   8.456   7.575   8.446
12954SOL     OW87700  11.673   2.322   5.748
12954SOL    HW187701  11.598   2.349   5.686
12954SOL    HW287702  11.645   2.242   5.801
12955SOL     OW87703   8.279   2.502   7.571
12955SOL    HW187704   8.346   2.487   7.498
12955SOL    HW287705   8.300   2.442   7.648
12956SOL     OW87706  12.428   3.366   6.486
12956SOL    HW187707  12.500   3.432   6.464
12956SOL    HW287708  12.458   3.307   6.561
12957SOL     OW87709   7.480  13.526   7.568
12957SOL    HW187710   7.574  13.515   7.538
12957SOL    HW287711   7.427  13.572   7.496
12958SOL     OW87712   1.770  14.459   7.698
12958SOL    HW187713   1.755  14.370   7.741
12958SOL    HW287714   1.700  14.474   7.628
12959SOL     OW87715   5.986   5.906   1.711
12959SOL    HW187716   6.021   5.947   1.795
12959SOL    HW287717   5.887   5.921   1.707
12960SOL     OW87718  10.591   8.684   1.446
12960SOL    HW187719  10.518   8.749   1.463
12960SOL    HW287720  10.665   8.698   1.511
12961SOL     OW87721   7.458   6.485   7.146
12961SOL    HW187722   7.411   6.484   7.234
12961SOL    HW287723   7.531   6.416   7.146
12962SOL     OW87724   5.294   4.527   1.422
12962SOL    HW187725   5.296   4.431   1.450
12962SOL    HW287726   5.201   4.563   1.434
12963SOL     OW87727  12.228  12.207   7.853
12963SOL    HW187728  12.314  12.188   7.900
12963SOL    HW287729  12.234  12.173   7.759
12964SOL     OW87730   4.182   8.226   7.314
12964SOL    HW187731   4.251   8.209   7.385
12964SOL    HW287732   4.174   8.146   7.255
12965SOL     OW87733   1.413   9.897   8.277
12965SOL    HW187734   1.394   9.992   8.251
12965SOL    HW287735   1.501   9.869   8.238
12966SOL     OW87736  16.941  13.278   7.746
12966SOL    HW187737  16.972  13.358   7.694
12966SOL    HW287738  16.841  13.275   7.746
12967SOL     OW87739   6.311   5.092   1.407
12967SOL    HW187740   6.344   5.004   1.374
12967SOL    HW287741   6.220   5.082   1.446
12968SOL     OW87742   0.184  13.771   7.323
12968SOL    HW187743   0.115  13.749   7.255
12968SOL    HW287744   0.246  13.693   7.334
12969SOL     OW87745   6.425  10.097   7.017
12969SOL    HW187746   6.342  10.085   6.962
12969SOL    HW287747   6.498  10.041   6.979
12970SOL     OW87748  15.581   8.751   0.666
12970SOL    HW187749  15.584   8.796   0.577
12970SOL    HW287750  15.568   8.819   0.738
12971SOL     OW87751   8.598  14.999   6.488
12971SOL    HW187752   8.620  14.903   6.508
12971SOL    HW287753   8.672  15.058   6.520
12972SOL     OW87754   3.116  16.028   1.343
12972SOL    HW187755   3.017  16.021   1.357
12972SOL    HW287756   3.148  16.117   1.373
12973SOL     OW87757  10.214   7.539   6.988
12973SOL    HW187758  10.231   7.583   7.076
12973SOL    HW287759  10.301   7.519   6.943
12974SOL     OW87760  13.115  11.569   1.170
12974SOL    HW187761  13.105  11.565   1.270
12974SOL    HW287762  13.053  11.639   1.134
12975SOL     OW87763   7.662  13.411   2.201
12975SOL    HW187764   7.758  13.435   2.188
12975SOL    HW287765   7.655  13.314   2.224
12976SOL     OW87766  10.555  10.534   6.926
12976SOL    HW187767  10.631  10.516   6.864
12976SOL    HW287768  10.544  10.457   6.989
12977SOL     OW87769  11.942  14.573   0.149
12977SOL    HW187770  11.987  14.584   0.060
12977SOL    HW287771  11.968  14.485   0.189
12978SOL     OW87772  15.341  11.655   8.450
12978SOL    HW187773  15.333  11.582   0.064
12978SOL    HW287774  15.255  11.662   8.399
12979SOL     OW87775  15.075  11.517   8.294
12979SOL    HW187776  15.078  11.543   8.197
12979SOL    HW287777  15.140  11.442   8.309
12980SOL     OW87778  12.803   7.424   8.441
12980SOL    HW187779  12.876   7.388   0.045
12980SOL    HW287780  12.838   7.445   8.350
12981SOL     OW87781   6.130   9.033   7.558
12981SOL    HW187782   6.204   8.970   7.582
12981SOL    HW287783   6.059   8.983   7.508
12982SOL     OW87784   5.015  10.329   0.763
12982SOL    HW187785   4.955  10.315   0.842
12982SOL    HW287786   5.040  10.426   0.757
12983SOL     OW87787   5.408   9.459   0.994
12983SOL    HW187788   5.375   9.416   1.077
12983SOL    HW287789   5.334   9.464   0.927
12984SOL     OW87790  13.393   9.844   7.646
12984SOL    HW187791  13.361   9.895   7.726
12984SOL    HW287792  13.436   9.907   7.582
12985SOL     OW87793  10.939   7.409   8.097
12985SOL    HW187794  10.971   7.332   8.041
12985SOL    HW287795  10.984   7.493   8.067
12986SOL     OW87796  12.814  14.146   0.657
12986SOL    HW187797  12.737  14.084   0.673
12986SOL    HW287798  12.784  14.223   0.602
12987SOL     OW87799   5.707  11.035   0.506
12987SOL    HW187800   5.668  11.106   0.447
12987SOL    HW287801   5.715  11.070   0.599
12988SOL     OW87802   5.677   0.852   6.654
12988SOL    HW187803   5.768   0.810   6.654
12988SOL    HW287804   5.686   0.949   6.633
12989SOL     OW87805   6.304  15.529   0.498
12989SOL    HW187806   6.291  15.490   0.407
12989SOL    HW287807   6.402  15.544   0.515
12990SOL     OW87808   4.931   3.340   1.164
12990SOL    HW187809   4.905   3.401   1.239
12990SOL    HW287810   5.030   3.348   1.148
12991SOL     OW87811  14.195  10.586   1.678
12991SOL    HW187812  14.290  10.567   1.698
12991SOL    HW287813  14.156  10.643   1.751
12992SOL     OW87814  14.046   8.682   0.118
12992SOL    HW187815  14.054   8.782   0.113
12992SOL    HW287816  14.022   8.646   0.028
12993SOL     OW87817  10.843   2.578   7.184
12993SOL    HW187818  10.918   2.644   7.191
12993SOL    HW287819  10.871   2.491   7.224
12994SOL     OW87820   9.071   5.334   7.524
12994SOL    HW187821   9.029   5.254   7.481
12994SOL    HW287822   9.002   5.382   7.578
12995SOL     OW87823   1.867   6.298   6.924
12995SOL    HW187824   1.950   6.325   6.875
12995SOL    HW287825   1.887   6.221   6.984
12996SOL     OW87826   3.174   5.327   6.908
12996SOL    HW187827   3.153   5.343   6.812
12996SOL    HW287828   3.238   5.396   6.941
12997SOL     OW87829   0.715  14.524   7.182
12997SOL    HW187830   0.689  14.615   7.215
12997SOL    HW287831   0.633  14.472   7.160
12998SOL     OW87832   0.424   4.659   6.390
12998SOL    HW187833   0.459   4.588   6.451
12998SOL    HW287834   0.456   4.642   6.297
12999SOL     OW87835   1.267  16.682   8.135
12999SOL    HW187836   1.317  16.680   8.222
12999SOL    HW287837   1.238  16.589   8.111
13000SOL     OW87838   8.044  11.050   1.452
13000SOL    HW187839   8.039  10.954   1.426
13000SOL    HW287840   8.101  11.058   1.534
13001SOL     OW87841   7.381   0.042   6.652
13001SOL    HW187842   7.341   0.102   6.722
13001SOL    HW287843   7.447   0.094   6.598
13002SOL     OW87844  12.843  13.056   8.040
13002SOL    HW187845  12.857  13.009   7.953
13002SOL    HW287846  12.911  13.025   8.107
13003SOL     OW87847  12.376  13.879   0.835
13003SOL    HW187848  12.318  13.908   0.911
13003SOL    HW287849  12.321  13.826   0.770
13004SOL     OW87850   6.765   0.736   1.362
13004SOL    HW187851   6.778   0.763   1.457
13004SOL    HW287852   6.785   0.814   1.302
13005SOL     OW87853  12.140  15.039   0.575
13005SOL    HW187854  12.135  15.126   0.624
13005SOL    HW287855  12.121  15.054   0.478
13006SOL     OW87856  14.962   4.003   1.504
13006SOL    HW187857  14.928   3.984   1.412
13006SOL    HW287858  15.057   4.036   1.498
13007SOL     OW87859  10.480   5.632   6.301
13007SOL    HW187860  10.541   5.557   6.326
13007SOL    HW287861  10.433   5.610   6.215
13008SOL     OW87862   2.087   4.639   0.567
13008SOL    HW187863   2.101   4.608   0.661
13008SOL    HW287864   1.995   4.614   0.536
13009SOL     OW87865  12.187  16.146   7.511
13009SOL    HW187866  12.161  16.213   7.580
13009SOL    HW287867  12.106  16.096   7.480
13010SOL     OW87868   3.124  13.045   1.517
13010SOL    HW187869   3.135  13.145   1.522
13010SOL    HW287870   3.026  13.023   1.509
13011SOL     OW87871   6.644  13.001   6.401
13011SOL    HW187872   6.654  12.973   6.306
13011SOL    HW287873   6.734  13.003   6.445
13012SOL     OW87874   9.752  10.676   0.087
13012SOL    HW187875   9.654  10.656   0.089
13012SOL    HW287876   9.777  10.712   8.451
13013SOL     OW87877  14.905   9.507   0.288
13013SOL    HW187878  14.854   9.538   0.208
13013SOL    HW287879  14.957   9.584   0.327
13014SOL     OW87880   9.090   1.604   0.531
13014SOL    HW187881   9.162   1.565   0.589
13014SOL    HW287882   9.008   1.548   0.539
13015SOL     OW87883  11.673  16.100   1.722
13015SOL    HW187884  11.619  16.184   1.717
13015SOL    HW287885  11.674  16.056   1.632
13016SOL     OW87886  16.737  13.948   8.095
13016SOL    HW187887  16.741  13.944   8.195
13016SOL    HW287888  16.645  13.926   8.065
13017SOL     OW87889   0.578   0.492   0.872
13017SOL    HW187890   0.543   0.583   0.850
13017SOL    HW287891   0.511   0.423   0.843
13018SOL     OW87892   1.521  16.102   8.188
13018SOL    HW187893   1.596  16.123   8.251
13018SOL    HW287894   1.436  16.091   8.240
13019SOL     OW87895   7.185   7.325   1.921
13019SOL    HW187896   7.185   7.281   1.831
13019SOL    HW287897   7.217   7.261   1.990
13020SOL     OW87898  11.460  15.411   8.270
13020SOL    HW187899  11.526  15.446   8.204
13020SOL    HW287900  11.390  15.357   8.222
13021SOL     OW87901   8.076  11.215   7.123
13021SOL    HW187902   8.148  11.259   7.069
13021SOL    HW287903   8.038  11.280   7.188
13022SOL     OW87904   0.231  14.942   7.285
13022SOL    HW187905   0.308  14.885   7.312
13022SOL    HW287906   0.208  14.926   7.190
13023SOL     OW87907  15.687  13.008   1.032
13023SOL    HW187908  15.703  12.950   1.112
13023SOL    HW287909  15.739  12.973   0.955
13024SOL     OW87910   9.743   1.326   8.220
13024SOL    HW187911   9.668   1.377   8.263
13024SOL    HW287912   9.810   1.300   8.289
13025SOL     OW87913   1.961   9.269   0.776
13025SOL    HW187914   1.909   9.280   0.691
13025SOL    HW287915   2.055   9.299   0.761
13026SOL     OW87916   8.167   7.350   6.588
13026SOL    HW187917   8.181   7.311   6.498
13026SOL    HW287918   8.162   7.450   6.581
13027SOL     OW87919  13.374   3.716   1.433
13027SOL    HW187920  13.373   3.659   1.515
13027SOL    HW287921  13.380   3.812   1.459
13028SOL     OW87922  12.449   7.799   7.620
13028SOL    HW187923  12.479   7.840   7.706
13028SOL    HW287924  12.510   7.828   7.547
13029SOL     OW87925   4.222  11.801   1.494
13029SOL    HW187926   4.138  11.748   1.481
13029SOL    HW287927   4.284  11.750   1.555
13030SOL     OW87928  11.461   9.871   0.168
13030SOL    HW187929  11.376   9.860   0.116
13030SOL    HW287930  11.509   9.783   0.172
13031SOL     OW87931  15.582   3.314   0.501
13031SOL    HW187932  15.578   3.405   0.459
13031SOL    HW287933  15.504   3.302   0.562
13032SOL     OW87934   4.621  11.903   1.477
13032SOL    HW187935   4.574  11.947   1.554
13032SOL    HW287936   4.590  11.808   1.470
13033SOL     OW87937   4.041   3.266   0.004
13033SOL    HW187938   3.997   3.239   0.089
13033SOL    HW287939   4.112   3.199   8.434
13034SOL     OW87940   4.518   0.014   6.975
13034SOL    HW187941   4.434  16.945   6.961
13034SOL    HW287942   4.579  16.948   7.036
13035SOL     OW87943   3.238   8.836   1.339
13035SOL    HW187944   3.191   8.761   1.292
13035SOL    HW287945   3.317   8.865   1.284
13036SOL     OW87946   4.203   8.802   1.133
13036SOL    HW187947   4.150   8.820   1.215
13036SOL    HW287948   4.266   8.727   1.149
13037SOL     OW87949  15.233   5.605   5.761
13037SOL    HW187950  15.306   5.645   5.706
13037SOL    HW287951  15.160   5.573   5.700
13038SOL     OW87952  11.157   5.089   7.662
13038SOL    HW187953  11.231   5.140   7.619
13038SOL    HW287954  11.082   5.078   7.597
13039SOL     OW87955  11.659   8.345   8.352
13039SOL    HW187956  11.584   8.402   8.318
13039SOL    HW287957  11.634   8.307   8.441
13040SOL     OW87958  12.447   7.895   0.448
13040SOL    HW187959  12.391   7.880   0.530
13040SOL    HW287960  12.424   7.982   0.407
13041SOL     OW87961  10.598  13.622   0.776
13041SOL    HW187962  10.521  13.593   0.718
13041SOL    HW287963  10.641  13.541   0.816
13042SOL     OW87964   6.179   1.902   1.350
13042SOL    HW187965   6.264   1.870   1.309
13042SOL    HW287966   6.124   1.823   1.378
13043SOL     OW87967   8.019   4.472   6.621
13043SOL    HW187968   7.935   4.458   6.570
13043SOL    HW287969   8.096   4.436   6.569
13044SOL     OW87970  11.332   0.416   0.318
13044SOL    HW187971  11.405   0.431   0.385
13044SOL    HW287972  11.306   0.504   0.277
13045SOL     OW87973  14.350   6.414   6.544
13045SOL    HW187974  14.288   6.491   6.562
13045SOL    HW287975  14.393   6.426   6.455
13046SOL     OW87976   3.663   0.515   8.202
13046SOL    HW187977   3.751   0.547   8.235
13046SOL    HW287978   3.612   0.591   8.162
13047SOL     OW87979  10.460   6.929   5.925
13047SOL    HW187980  10.504   6.907   6.012
13047SOL    HW287981  10.520   6.902   5.850
13048SOL     OW87982   5.435   0.902   1.121
13048SOL    HW187983   5.339   0.897   1.148
13048SOL    HW287984   5.492   0.915   1.202
13049SOL     OW87985   8.849   1.651   0.785
13049SOL    HW187986   8.922   1.698   0.836
13049SOL    HW287987   8.857   1.552   0.799
13050SOL     OW87988   0.560   4.693   8.195
13050SOL    HW187989   0.469   4.652   8.196
13050SOL    HW287990   0.626   4.627   8.160
13051SOL     OW87991  14.590   0.339   1.244
13051SOL    HW187992  14.561   0.423   1.289
13051SOL    HW287993  14.624   0.360   1.152
13052SOL     OW87994  14.896   4.546   0.898
13052SOL    HW187995  14.923   4.568   0.992
13052SOL    HW287996  14.836   4.467   0.898
13053SOL     OW87997  14.390   2.018   0.443
13053SOL    HW187998  14.401   2.095   0.505
13053SOL    HW287999  14.295   2.011   0.415
13054SOL     OW88000   1.452  14.254   1.368
13054SOL    HW188001   1.549  14.230   1.367
13054SOL    HW288002   1.400  14.187   1.315
13055SOL     OW88003   6.448  12.466   7.691
13055SOL    HW188004   6.385  12.539   7.662
13055SOL    HW288005   6.530  12.507   7.732
13056SOL     OW88006  10.189   3.643   8.112
13056SOL    HW188007  10.122   3.677   8.046
13056SOL    HW288008  10.209   3.547   8.092
13057SOL     OW88009   1.527  15.074   1.178
13057SOL    HW188010   1.437  15.031   1.176
13057SOL    HW288011   1.597  15.005   1.193
13058SOL     OW88012  16.011   1.986   6.478
13058SOL    HW188013  16.065   1.909   6.512
13058SOL    HW288014  15.998   1.977   6.379
13059SOL     OW88015   9.101   9.307   7.452
13059SOL    HW188016   9.081   9.397   7.492
13059SOL    HW288017   9.180   9.267   7.498
13060SOL     OW88018  10.967   6.040   7.342
13060SOL    HW188019  10.973   5.952   7.389
13060SOL    HW288020  11.059   6.072   7.318
13061SOL     OW88021   2.628  12.982   0.674
13061SOL    HW188022   2.567  13.002   0.597
13061SOL    HW288023   2.716  13.026   0.659
13062SOL     OW88024   9.867  13.858   1.362
13062SOL    HW188025   9.908  13.904   1.440
13062SOL    HW288026   9.940  13.826   1.301
13063SOL     OW88027   5.308  15.896   0.228
13063SOL    HW188028   5.350  15.951   0.156
13063SOL    HW288029   5.340  15.801   0.220
13064SOL     OW88030  13.715   2.257   6.193
13064SOL    HW188031  13.682   2.226   6.282
13064SOL    HW288032  13.815   2.256   6.192
13065SOL     OW88033   7.182   3.273   7.622
13065SOL    HW188034   7.248   3.282   7.548
13065SOL    HW288035   7.181   3.178   7.653
13066SOL     OW88036   7.589  15.470   6.902
13066SOL    HW188037   7.619  15.408   6.830
13066SOL    HW288038   7.624  15.562   6.884
13067SOL     OW88039  14.766   8.065   1.114
13067SOL    HW188040  14.742   8.113   1.199
13067SOL    HW288041  14.761   8.129   1.037
13068SOL     OW88042  10.521   8.117   7.312
13068SOL    HW188043  10.575   8.079   7.237
13068SOL    HW288044  10.569   8.103   7.398
13069SOL     OW88045  16.974  15.968   7.553
13069SOL    HW188046   0.036  15.881   7.539
13069SOL    HW288047  16.878  15.961   7.524
13070SOL     OW88048   1.669   2.635   6.999
13070SOL    HW188049   1.661   2.555   7.058
13070SOL    HW288050   1.750   2.627   6.941
13071SOL     OW88051  11.328   1.207   1.417
13071SOL    HW188052  11.264   1.194   1.493
13071SOL    HW288053  11.396   1.133   1.418
13072SOL     OW88054   7.648  15.568   0.479
13072SOL    HW188055   7.553  15.554   0.454
13072SOL    HW288056   7.703  15.491   0.447
13073SOL     OW88057   2.288  13.997   0.009
13073SOL    HW188058   2.358  13.972   8.395
13073SOL    HW288059   2.255  13.914   0.054
13074SOL     OW88060  14.379   2.956   6.320
13074SOL    HW188061  14.369   3.053   6.297
13074SOL    HW288062  14.290   2.919   6.346
13075SOL     OW88063  13.328   9.661   7.116
13075SOL    HW188064  13.263   9.619   7.053
13075SOL    HW288065  13.347   9.755   7.088
13076SOL     OW88066   1.221   6.928   0.101
13076SOL    HW188067   1.228   7.004   0.037
13076SOL    HW288068   1.145   6.944   0.164
13077SOL     OW88069   2.614   2.625   0.420
13077SOL    HW188070   2.524   2.644   0.460
13077SOL    HW288071   2.672   2.581   0.488
13078SOL     OW88072   0.526  12.924   1.706
13078SOL    HW188073   0.520  12.900   1.609
13078SOL    HW288074   0.435  12.919   1.747
13079SOL     OW88075  14.708  13.931   1.957
13079SOL    HW188076  14.659  13.995   2.017
13079SOL    HW288077  14.750  13.981   1.881
13080SOL     OW88078  12.384   4.714   0.076
13080SOL    HW188079  12.358   4.805   0.045
13080SOL    HW288080  12.312   4.649   0.054
13081SOL     OW88081   9.990   0.873   6.596
13081SOL    HW188082  10.083   0.859   6.562
13081SOL    HW288083   9.925   0.840   6.527
13082SOL     OW88084  12.026  12.161   8.039
13082SOL    HW188085  12.097  12.185   7.972
13082SOL    HW288086  11.949  12.224   8.029
13083SOL     OW88087   7.296   6.799   6.601
13083SOL    HW188088   7.339   6.852   6.528
13083SOL    HW288089   7.201   6.781   6.578
13084SOL     OW88090   5.632  11.922   6.331
13084SOL    HW188091   5.559  11.985   6.302
13084SOL    HW288092   5.708  11.927   6.268
13085SOL     OW88093  13.638  12.293   8.347
13085SOL    HW188094  13.721  12.323   8.301
13085SOL    HW288095  13.645  12.195   8.369
13086SOL     OW88096   8.165  13.109   0.634
13086SOL    HW188097   8.106  13.069   0.565
13086SOL    HW288098   8.125  13.096   0.725
13087SOL     OW88099   4.703   2.372   8.159
13087SOL    HW188100   4.642   2.325   8.222
13087SOL    HW288101   4.772   2.423   8.210
13088SOL     OW88102  15.173   2.867   5.836
13088SOL    HW188103  15.213   2.813   5.761
13088SOL    HW288104  15.098   2.923   5.802
13089SOL     OW88105   5.490  10.516   7.704
13089SOL    HW188106   5.561  10.587   7.711
13089SOL    HW288107   5.466  10.502   7.608
13090SOL     OW88108   1.162  12.433   6.806
13090SOL    HW188109   1.080  12.468   6.761
13090SOL    HW288110   1.151  12.336   6.826
13091SOL     OW88111   2.921  16.490   1.866
13091SOL    HW188112   2.899  16.469   1.961
13091SOL    HW288113   2.840  16.476   1.809
13092SOL     OW88114   8.853  11.262   7.224
13092SOL    HW188115   8.802  11.272   7.138
13092SOL    HW288116   8.949  11.244   7.203
13093SOL     OW88117  16.627   6.043   6.616
13093SOL    HW188118  16.646   6.053   6.714
13093SOL    HW288119  16.665   5.956   6.585
13094SOL     OW88120  15.112  16.161   8.279
13094SOL    HW188121  15.033  16.169   8.341
13094SOL    HW288122  15.094  16.213   8.196
13095SOL     OW88123  15.590  16.875   2.164
13095SOL    HW188124  15.510  16.833   2.205
13095SOL    HW288125  15.673  16.842   2.211
13096SOL     OW88126  10.628  10.050   6.751
13096SOL    HW188127  10.586   9.961   6.770
13096SOL    HW288128  10.712  10.058   6.806
13097SOL     OW88129  16.198   8.189   7.094
13097SOL    HW188130  16.188   8.288   7.104
13097SOL    HW288131  16.268   8.156   7.158
13098SOL     OW88132   1.593  11.190   1.069
13098SOL    HW188133   1.682  11.223   1.100
13098SOL    HW288134   1.577  11.217   0.974
13099SOL     OW88135   9.670   8.041   7.107
13099SOL    HW188136   9.703   8.002   7.193
13099SOL    HW288137   9.612   8.121   7.127
13100SOL     OW88138  14.711  15.385   1.346
13100SOL    HW188139  14.752  15.295   1.363
13100SOL    HW288140  14.779  15.445   1.305
13101SOL     OW88141  14.825   5.973   8.140
13101SOL    HW188142  14.900   5.957   8.204
13101SOL    HW288143  14.860   5.973   8.046
13102SOL     OW88144   6.079  12.873   6.980
13102SOL    HW188145   6.082  12.804   7.052
13102SOL    HW288146   6.047  12.960   7.018
13103SOL     OW88147   9.799   3.145   1.502
13103SOL    HW188148   9.719   3.096   1.533
13103SOL    HW288149   9.772   3.235   1.466
13104SOL     OW88150   1.148  14.025   0.676
13104SOL    HW188151   1.162  14.010   0.578
13104SOL    HW288152   1.234  14.012   0.724
13105SOL     OW88153  16.672   9.957   1.580
13105SOL    HW188154  16.693  10.038   1.524
13105SOL    HW288155  16.658   9.985   1.675
13106SOL     OW88156   5.247  15.591   6.396
13106SOL    HW188157   5.236  15.641   6.310
13106SOL    HW288158   5.344  15.575   6.414
13107SOL     OW88159  12.593  12.963   7.287
13107SOL    HW188160  12.564  12.908   7.365
13107SOL    HW288161  12.517  13.022   7.259
13108SOL     OW88162  15.693  12.366   1.612
13108SOL    HW188163  15.695  12.367   1.512
13108SOL    HW288164  15.619  12.307   1.644
13109SOL     OW88165   7.806   0.621   7.571
13109SOL    HW188166   7.888   0.594   7.521
13109SOL    HW288167   7.832   0.657   7.661
13110SOL     OW88168   5.067  12.130   7.284
13110SOL    HW188169   5.022  12.199   7.228
13110SOL    HW288170   5.153  12.167   7.319
13111SOL     OW88171   8.505  11.870   0.208
13111SOL    HW188172   8.444  11.853   0.131
13111SOL    HW288173   8.600  11.866   0.176
13112SOL     OW88174  14.459   3.341   6.862
13112SOL    HW188175  14.379   3.309   6.811
13112SOL    HW288176  14.462   3.441   6.858
13113SOL     OW88177  12.958  16.733   7.196
13113SOL    HW188178  12.948  16.810   7.259
13113SOL    HW288179  12.879  16.672   7.205
13114SOL     OW88180   9.749  16.799   0.267
13114SOL    HW188181   9.835  16.759   0.299
13114SOL    HW288182   9.692  16.728   0.226
13115SOL     OW88183   1.742  15.280   0.916
13115SOL    HW188184   1.658  15.235   0.885
13115SOL    HW288185   1.799  15.213   0.964
13116SOL     OW88186  12.917   7.968   5.814
13116SOL    HW188187  12.997   7.989   5.758
13116SOL    HW288188  12.947   7.934   5.903
13117SOL     OW88189   4.714  12.866   8.407
13117SOL    HW188190   4.804  12.903   8.430
13117SOL    HW288191   4.682  12.806   0.027
13118SOL     OW88192  12.830   7.813   7.588
13118SOL    HW188193  12.822   7.720   7.624
13118SOL    HW288194  12.758   7.829   7.520
13119SOL     OW88195   5.468  12.392   7.706
13119SOL    HW188196   5.392  12.331   7.682
13119SOL    HW288197   5.513  12.359   7.789
13120SOL     OW88198  14.679   3.875   7.429
13120SOL    HW188199  14.631   3.791   7.403
13120SOL    HW288200  14.631   3.953   7.390
13121SOL     OW88201  15.498  10.646   0.175
13121SOL    HW188202  15.567  10.576   0.192
13121SOL    HW288203  15.527  10.733   0.213
13122SOL     OW88204  12.517   8.096   7.001
13122SOL    HW188205  12.423   8.061   7.006
13122SOL    HW288206  12.514   8.196   6.992
13123SOL     OW88207   7.311  13.545   6.636
13123SOL    HW188208   7.248  13.469   6.652
13123SOL    HW288209   7.259  13.624   6.603
13124SOL     OW88210   1.147   8.859   1.546
13124SOL    HW188211   1.215   8.794   1.579
13124SOL    HW288212   1.077   8.812   1.493
13125SOL     OW88213  13.349  14.047   7.619
13125SOL    HW188214  13.316  14.063   7.526
13125SOL    HW288215  13.276  14.006   7.673
13126SOL     OW88216  10.117   1.350   0.482
13126SOL    HW188217  10.189   1.341   0.550
13126SOL    HW288218  10.028   1.353   0.528
13127SOL     OW88219   1.883   2.512   8.322
13127SOL    HW188220   1.945   2.477   8.393
13127SOL    HW288221   1.905   2.608   8.303
13128SOL     OW88222   8.366  13.505   7.661
13128SOL    HW188223   8.361  13.561   7.743
13128SOL    HW288224   8.365  13.564   7.580
13129SOL     OW88225   8.513   2.562   6.934
13129SOL    HW188226   8.569   2.555   7.017
13129SOL    HW288227   8.525   2.653   6.894
13130SOL     OW88228   3.499   9.008   0.589
13130SOL    HW188229   3.523   9.102   0.567
13130SOL    HW288230   3.535   8.946   0.519
13131SOL     OW88231   3.786  16.630   7.482
13131SOL    HW188232   3.807  16.540   7.443
13131SOL    HW288233   3.868  16.688   7.478
13132SOL     OW88234  10.615  12.347   7.797
13132SOL    HW188235  10.560  12.340   7.714
13132SOL    HW288236  10.559  12.326   7.876
13133SOL     OW88237  16.410  16.979   0.568
13133SOL    HW188238  16.500  16.961   0.528
13133SOL    HW288239  16.410  16.951   0.664
13134SOL     OW88240  10.098  11.191   0.371
13134SOL    HW188241  10.171  11.158   0.311
13134SOL    HW288242  10.012  11.194   0.321
13135SOL     OW88243   9.641  12.386   0.496
13135SOL    HW188244   9.736  12.372   0.523
13135SOL    HW288245   9.631  12.477   0.455
13136SOL     OW88246  16.778  14.471   0.493
13136SOL    HW188247  16.690  14.515   0.508
13136SOL    HW288248  16.820  14.450   0.581
13137SOL     OW88249  12.920   7.636   0.436
13137SOL    HW188250  12.960   7.715   0.390
13137SOL    HW288251  12.820   7.648   0.442
13138SOL     OW88252   6.911  10.365   7.465
13138SOL    HW188253   6.988  10.313   7.503
13138SOL    HW288254   6.930  10.463   7.472
13139SOL     OW88255   5.863   2.313   0.752
13139SOL    HW188256   5.958   2.331   0.778
13139SOL    HW288257   5.840   2.369   0.672
13140SOL     OW88258   4.248  10.602   7.005
13140SOL    HW188259   4.334  10.635   6.967
13140SOL    HW288260   4.263  10.517   7.055
13141SOL     OW88261   4.087  13.278   6.183
13141SOL    HW188262   4.144  13.209   6.139
13141SOL    HW288263   4.113  13.369   6.151
13142SOL     OW88264   2.971   6.147   7.704
13142SOL    HW188265   2.965   6.171   7.801
13142SOL    HW288266   2.992   6.050   7.695
13143SOL     OW88267  14.298   5.819   0.135
13143SOL    HW188268  14.213   5.769   0.117
13143SOL    HW288269  14.368   5.755   0.165
13144SOL     OW88270   8.534   7.368   0.230
13144SOL    HW188271   8.581   7.285   0.201
13144SOL    HW288272   8.574   7.401   0.315
13145SOL     OW88273   2.406   1.108   1.530
13145SOL    HW188274   2.330   1.079   1.473
13145SOL    HW288275   2.472   1.160   1.475
13146SOL     OW88276  16.069  10.178   1.581
13146SOL    HW188277  16.032  10.091   1.549
13146SOL    HW288278  16.163  10.188   1.549
13147SOL     OW88279   4.232   8.973   7.513
13147SOL    HW188280   4.281   8.907   7.456
13147SOL    HW288281   4.297   9.033   7.559
13148SOL     OW88282   1.703  13.379   7.676
13148SOL    HW188283   1.619  13.411   7.632
13148SOL    HW288284   1.710  13.418   7.768
13149SOL     OW88285   0.672  15.420   8.176
13149SOL    HW188286   0.637  15.408   8.269
13149SOL    HW288287   0.772  15.427   8.179
13150SOL     OW88288   5.514   4.093   7.746
13150SOL    HW188289   5.569   4.155   7.801
13150SOL    HW288290   5.519   4.001   7.785
13151SOL     OW88291   9.434   7.330   7.009
13151SOL    HW188292   9.438   7.430   7.008
13151SOL    HW288293   9.420   7.296   6.916
13152SOL     OW88294   6.858  13.931   0.930
13152SOL    HW188295   6.809  13.983   1.001
13152SOL    HW288296   6.806  13.849   0.907
13153SOL     OW88297   7.992  16.455   1.686
13153SOL    HW188298   7.911  16.464   1.628
13153SOL    HW288299   7.965  16.442   1.781
13154SOL     OW88300   0.774  13.275   0.769
13154SOL    HW188301   0.788  13.239   0.861
13154SOL    HW288302   0.732  13.205   0.711
13155SOL     OW88303  13.128  16.979   1.111
13155SOL    HW188304  13.218   0.027   1.080
13155SOL    HW288305  13.060   0.065   1.090
13156SOL     OW88306  15.489   4.858   6.891
13156SOL    HW188307  15.461   4.919   6.817
13156SOL    HW288308  15.419   4.788   6.904
13157SOL     OW88309   9.409   4.207   6.552
13157SOL    HW188310   9.490   4.266   6.555
13157SOL    HW288311   9.427   4.123   6.602
13158SOL     OW88312   0.129   3.766   6.107
13158SOL    HW188313   0.103   3.817   6.025
13158SOL    HW288314   0.218   3.797   6.140
13159SOL     OW88315  16.848   4.961   6.694
13159SOL    HW188316  16.831   4.910   6.609
13159SOL    HW288317  16.920   5.028   6.678
13160SOL     OW88318   6.209   5.104   0.417
13160SOL    HW188319   6.228   5.080   0.512
13160SOL    HW288320   6.266   5.182   0.390
13161SOL     OW88321  13.701   5.960   0.243
13161SOL    HW188322  13.624   5.919   0.194
13161SOL    HW288323  13.728   5.901   0.319
13162SOL     OW88324   3.778  10.806   8.418
13162SOL    HW188325   3.759  10.767   8.328
13162SOL    HW288326   3.832  10.890   8.408
13163SOL     OW88327  16.590  10.345   1.633
13163SOL    HW188328  16.552  10.437   1.644
13163SOL    HW288329  16.638  10.319   1.718
13164SOL     OW88330   2.421  11.019   8.420
13164SOL    HW188331   2.372  10.988   0.048
13164SOL    HW288332   2.507  11.063   8.446
13165SOL     OW88333   4.459   7.673   1.232
13165SOL    HW188334   4.436   7.649   1.326
13165SOL    HW288335   4.531   7.613   1.197
13166SOL     OW88336  13.065   3.971   6.259
13166SOL    HW188337  12.987   3.990   6.199
13166SOL    HW288338  13.104   4.057   6.292
13167SOL     OW88339   5.271  10.644   0.976
13167SOL    HW188340   5.322  10.730   0.973
13167SOL    HW288341   5.335  10.567   0.975
13168SOL     OW88342   9.902   7.618   1.228
13168SOL    HW188343   9.859   7.558   1.160
13168SOL    HW288344   9.891   7.713   1.200
13169SOL     OW88345  12.736   4.400   7.184
13169SOL    HW188346  12.814   4.462   7.176
13169SOL    HW288347  12.704   4.398   7.278
13170SOL     OW88348  10.363  15.240   7.805
13170SOL    HW188349  10.437  15.279   7.751
13170SOL    HW288350  10.387  15.244   7.902
13171SOL     OW88351  16.804  13.792   1.124
13171SOL    HW188352  16.819  13.823   1.031
13171SOL    HW288353  16.776  13.869   1.181
13172SOL     OW88354   5.423   5.793   6.179
13172SOL    HW188355   5.414   5.893   6.178
13172SOL    HW288356   5.422   5.759   6.085
13173SOL     OW88357   2.681  15.073   8.080
13173SOL    HW188358   2.718  15.007   8.014
13173SOL    HW288359   2.582  15.079   8.069
13174SOL     OW88360   6.375   9.522   6.523
13174SOL    HW188361   6.305   9.521   6.452
13174SOL    HW288362   6.333   9.550   6.610
13175SOL     OW88363   4.268  12.822   7.913
13175SOL    HW188364   4.298  12.785   8.001
13175SOL    HW288365   4.343  12.814   7.847
13176SOL     OW88366   0.015   1.811   1.645
13176SOL    HW188367   0.065   1.897   1.648
13176SOL    HW288368  16.905   1.824   1.680
13177SOL     OW88369  13.104   7.269   8.009
13177SOL    HW188370  13.144   7.339   8.069
13177SOL    HW288371  13.167   7.251   7.933
13178SOL     OW88372   1.225   9.528   0.583
13178SOL    HW188373   1.130   9.530   0.615
13178SOL    HW288374   1.235   9.458   0.512
13179SOL     OW88375  11.359   2.714   1.361
13179SOL    HW188376  11.388   2.778   1.432
13179SOL    HW288377  11.377   2.621   1.391
13180SOL     OW88378  10.941   0.939   0.522
13180SOL    HW188379  10.977   0.852   0.486
13180SOL    HW288380  11.011   0.984   0.577
13181SOL     OW88381   5.453   7.560   6.860
13181SOL    HW188382   5.532   7.499   6.855
13181SOL    HW288383   5.403   7.557   6.773
13182SOL     OW88384   6.862   9.548   7.232
13182SOL    HW188385   6.845   9.456   7.266
13182SOL    HW288386   6.793   9.610   7.270
13183SOL     OW88387   4.427  12.951   0.966
13183SOL    HW188388   4.449  12.911   0.877
13183SOL    HW288389   4.428  13.051   0.959
13184SOL     OW88390  10.466   7.838   0.927
13184SOL    HW188391  10.511   7.833   0.838
13184SOL    HW288392  10.440   7.933   0.946
13185SOL     OW88393  14.365  16.870   0.787
13185SOL    HW188394  14.313  16.788   0.810
13185SOL    HW288395  14.317  16.951   0.819
13186SOL     OW88396   9.043   7.960   0.619
13186SOL    HW188397   9.068   7.987   0.712
13186SOL    HW288398   9.093   7.876   0.595
13187SOL     OW88399   1.836   6.425   0.866
13187SOL    HW188400   1.739   6.417   0.890
13187SOL    HW288401   1.892   6.408   0.947
13188SOL     OW88402   1.549   2.734   0.376
13188SOL    HW188403   1.590   2.656   0.424
13188SOL    HW288404   1.620   2.799   0.350
13189SOL     OW88405  16.227   9.808   1.606
13189SOL    HW188406  16.168   9.771   1.535
13189SOL    HW288407  16.194   9.779   1.696
13190SOL     OW88408   2.737   3.306   0.464
13190SOL    HW188409   2.756   3.258   0.550
13190SOL    HW288410   2.666   3.375   0.480
13191SOL     OW88411   1.564   6.060   6.415
13191SOL    HW188412   1.489   6.052   6.349
13191SOL    HW288413   1.643   6.101   6.370
13192SOL     OW88414   7.524   0.118   0.089
13192SOL    HW188415   7.524   0.194   0.154
13192SOL    HW288416   7.563   0.037   0.133
13193SOL     OW88417   6.501   1.920   6.786
13193SOL    HW188418   6.451   1.873   6.858
13193SOL    HW288419   6.489   1.870   6.700
13194SOL     OW88420   4.922   6.707   0.579
13194SOL    HW188421   4.867   6.651   0.518
13194SOL    HW288422   4.871   6.790   0.604
13195SOL     OW88423  14.168  11.150   6.645
13195SOL    HW188424  14.078  11.173   6.682
13195SOL    HW288425  14.158  11.079   6.576
13196SOL     OW88426   9.205  13.659   7.987
13196SOL    HW188427   9.255  13.588   7.938
13196SOL    HW288428   9.138  13.701   7.926
13197SOL     OW88429  12.948   0.224   7.005
13197SOL    HW188430  12.943   0.150   6.938
13197SOL    HW288431  13.044   0.249   7.021
13198SOL     OW88432   6.939   4.848   7.361
13198SOL    HW188433   6.864   4.783   7.348
13198SOL    HW288434   7.021   4.813   7.316
13199SOL     OW88435  11.969  14.477   7.849
13199SOL    HW188436  11.869  14.478   7.841
13199SOL    HW288437  12.008  14.537   7.778
13200SOL     OW88438  12.818  13.329   8.045
13200SOL    HW188439  12.830  13.230   8.035
13200SOL    HW288440  12.784  13.367   7.959
13201SOL     OW88441   2.383  16.014   7.386
13201SOL    HW188442   2.418  15.935   7.335
13201SOL    HW288443   2.292  16.037   7.352
13202SOL     OW88444   8.965   1.854   6.588
13202SOL    HW188445   8.958   1.944   6.631
13202SOL    HW288446   8.975   1.865   6.489
13203SOL     OW88447  16.521   1.037   7.709
13203SOL    HW188448  16.614   1.024   7.745
13203SOL    HW288449  16.499   0.962   7.646
13204SOL     OW88450   5.846  12.555   6.608
13204SOL    HW188451   5.918  12.613   6.570
13204SOL    HW288452   5.841  12.470   6.557
13205SOL     OW88453   3.211  11.902   7.971
13205SOL    HW188454   3.169  11.991   7.950
13205SOL    HW288455   3.310  11.907   7.956
13206SOL     OW88456   0.690   1.351   1.723
13206SOL    HW188457   0.602   1.355   1.771
13206SOL    HW288458   0.675   1.351   1.624
13207SOL     OW88459   9.673   2.812   1.530
13207SOL    HW188460   9.681   2.824   1.628
13207SOL    HW288461   9.763   2.819   1.487
13208SOL     OW88462   4.124   9.118   1.863
13208SOL    HW188463   4.175   9.035   1.839
13208SOL    HW288464   4.120   9.179   1.784
13209SOL     OW88465  13.686   3.990   0.489
13209SOL    HW188466  13.650   3.900   0.516
13209SOL    HW288467  13.783   3.981   0.465
13210SOL     OW88468   1.917  13.802   7.664
13210SOL    HW188469   1.945  13.716   7.706
13210SOL    HW288470   1.896  13.787   7.567
13211SOL     OW88471   4.403   3.882   0.372
13211SOL    HW188472   4.436   3.908   0.462
13211SOL    HW288473   4.479   3.884   0.307
13212SOL     OW88474  10.314   9.440   1.149
13212SOL    HW188475  10.383   9.450   1.221
13212SOL    HW288476  10.307   9.525   1.097
13213SOL     OW88477   4.979   3.169   7.139
13213SOL    HW188478   4.955   3.092   7.079
13213SOL    HW288479   4.905   3.236   7.139
13214SOL     OW88480  14.584   9.155   1.440
13214SOL    HW188481  14.562   9.253   1.433
13214SOL    HW288482  14.683   9.144   1.448
13215SOL     OW88483  13.814  16.440   7.092
13215SOL    HW188484  13.780  16.379   7.019
13215SOL    HW288485  13.766  16.419   7.177
13216SOL     OW88486   0.071  10.625   0.406
13216SOL    HW188487   0.123  10.669   0.333
13216SOL    HW288488   0.114  10.538   0.430
13217SOL     OW88489   7.887  12.235   8.001
13217SOL    HW188490   7.894  12.175   8.080
13217SOL    HW288491   7.831  12.314   8.024
13218SOL     OW88492   9.530   6.608   7.249
13218SOL    HW188493   9.600   6.568   7.309
13218SOL    HW288494   9.520   6.705   7.270
13219SOL     OW88495   8.133   6.675   6.246
13219SOL    HW188496   8.200   6.602   6.258
13219SOL    HW288497   8.177   6.752   6.199
13220SOL     OW88498   3.405  13.798   8.316
13220SOL    HW188499   3.435  13.722   8.259
13220SOL    HW288500   3.330  13.847   8.271
13221SOL     OW88501   7.489   2.395   5.955
13221SOL    HW188502   7.437   2.463   5.905
13221SOL    HW288503   7.584   2.425   5.962
13222SOL     OW88504   7.863   4.999   7.928
13222SOL    HW188505   7.830   4.945   7.851
13222SOL    HW288506   7.788   5.018   7.990
13223SOL     OW88507  13.609   4.239   1.097
13223SOL    HW188508  13.558   4.305   1.152
13223SOL    HW288509  13.560   4.223   1.011
13224SOL     OW88510   7.188  12.608   6.488
13224SOL    HW188511   7.112  12.671   6.472
13224SOL    HW288512   7.248  12.645   6.558
13225SOL     OW88513   2.287   7.156   7.918
13225SOL    HW188514   2.324   7.197   8.002
13225SOL    HW288515   2.190   7.137   7.930
13226SOL     OW88516   1.085   6.334   8.313
13226SOL    HW188517   1.062   6.245   8.353
13226SOL    HW288518   1.052   6.337   8.218
13227SOL     OW88519   4.317   3.438   1.667
13227SOL    HW188520   4.304   3.483   1.578
13227SOL    HW288521   4.232   3.443   1.719
13228SOL     OW88522   0.756  11.789   1.645
13228SOL    HW188523   0.740  11.887   1.652
13228SOL    HW288524   0.854  11.771   1.635
13229SOL     OW88525   9.554   3.472   6.603
13229SOL    HW188526   9.530   3.419   6.522
13229SOL    HW288527   9.628   3.425   6.652
13230SOL     OW88528   7.946   3.010   6.569
13230SOL    HW188529   7.915   3.104   6.554
13230SOL    HW288530   7.949   2.962   6.482
13231SOL     OW88531  14.632  15.722   1.875
13231SOL    HW188532  14.637  15.711   1.974
13231SOL    HW288533  14.575  15.801   1.852
13232SOL     OW88534   3.354  12.055   7.184
13232SOL    HW188535   3.347  11.993   7.106
13232SOL    HW288536   3.287  12.030   7.253
13233SOL     OW88537  10.304  12.374   7.216
13233SOL    HW188538  10.380  12.337   7.162
13233SOL    HW288539  10.227  12.311   7.213
13234SOL     OW88540  16.545  12.244   6.794
13234SOL    HW188541  16.610  12.230   6.719
13234SOL    HW288542  16.513  12.155   6.826
13235SOL     OW88543   4.086   5.950   6.447
13235SOL    HW188544   4.023   5.893   6.499
13235SOL    HW288545   4.067   6.046   6.464
13236SOL     OW88546  11.120   9.616   6.156
13236SOL    HW188547  11.216   9.589   6.156
13236SOL    HW288548  11.091   9.633   6.062
13237SOL     OW88549   1.758   6.158   0.559
13237SOL    HW188550   1.816   6.101   0.502
13237SOL    HW288551   1.801   6.247   0.575
13238SOL     OW88552   1.046  16.033   0.431
13238SOL    HW188553   1.078  16.122   0.398
13238SOL    HW288554   1.106  15.961   0.396
13239SOL     OW88555  13.543  12.703   0.150
13239SOL    HW188556  13.590  12.725   0.065
13239SOL    HW288557  13.526  12.605   0.155
13240SOL     OW88558  16.427   2.681   6.170
13240SOL    HW188559  16.508   2.656   6.115
13240SOL    HW288560  16.369   2.742   6.117
13241SOL     OW88561   4.554  10.641   6.634
13241SOL    HW188562   4.484  10.586   6.588
13241SOL    HW288563   4.641  10.631   6.586
13242SOL     OW88564   4.684  16.235   1.057
13242SOL    HW188565   4.744  16.264   1.131
13242SOL    HW288566   4.728  16.162   1.005
13243SOL     OW88567   2.436   1.409   6.598
13243SOL    HW188568   2.407   1.504   6.582
13243SOL    HW288569   2.403   1.351   6.525
13244SOL     OW88570  12.507   2.061   6.290
13244SOL    HW188571  12.479   1.989   6.226
13244SOL    HW288572  12.584   2.111   6.251
13245SOL     OW88573  15.423   4.558   1.040
13245SOL    HW188574  15.393   4.647   1.074
13245SOL    HW288575  15.523   4.555   1.037
13246SOL     OW88576   8.589   3.695   6.820
13246SOL    HW188577   8.576   3.637   6.901
13246SOL    HW288578   8.548   3.784   6.836
13247SOL     OW88579  11.096   2.939   6.301
13247SOL    HW188580  11.029   2.899   6.237
13247SOL    HW288581  11.060   3.025   6.336
13248SOL     OW88582   0.078   0.263   1.376
13248SOL    HW188583   0.142   0.235   1.448
13248SOL    HW288584  16.977   0.297   1.417
13249SOL     OW88585  12.608   4.706   6.308
13249SOL    HW188586  12.644   4.734   6.219
13249SOL    HW288587  12.508   4.703   6.305
13250SOL     OW88588   6.341   3.006   7.617
13250SOL    HW188589   6.352   2.910   7.641
13250SOL    HW288590   6.417   3.036   7.559
13251SOL     OW88591   2.468  12.139   0.955
13251SOL    HW188592   2.408  12.062   0.976
13251SOL    HW288593   2.560  12.119   0.986
13252SOL     OW88594   6.848   5.048   5.953
13252SOL    HW188595   6.902   4.965   5.940
13252SOL    HW288596   6.753   5.031   5.928
13253SOL     OW88597   8.309   1.947   7.200
13253SOL    HW188598   8.266   1.913   7.283
13253SOL    HW288599   8.306   2.047   7.198
13254SOL     OW88600   1.350   3.199   0.212
13254SOL    HW188601   1.449   3.187   0.205
13254SOL    HW288602   1.319   3.161   0.299
13255SOL     OW88603   9.331   9.078   7.103
13255SOL    HW188604   9.378   9.094   7.016
13255SOL    HW288605   9.329   8.980   7.122
13256SOL     OW88606  10.941   2.542   6.659
13256SOL    HW188607  10.985   2.521   6.572
13256SOL    HW288608  10.963   2.636   6.685
13257SOL     OW88609  12.027   3.252   7.638
13257SOL    HW188610  11.931   3.253   7.612
13257SOL    HW288611  12.035   3.251   7.738
13258SOL     OW88612   7.882   3.871   8.346
13258SOL    HW188613   7.793   3.916   8.341
13258SOL    HW288614   7.923   3.886   8.436
13259SOL     OW88615  16.502  14.641   1.792
13259SOL    HW188616  16.515  14.588   1.876
13259SOL    HW288617  16.479  14.735   1.815
13260SOL     OW88618  11.330   8.195   7.189
13260SOL    HW188619  11.371   8.286   7.203
13260SOL    HW288620  11.394   8.125   7.218
13261SOL     OW88621   6.934  16.595   0.860
13261SOL    HW188622   6.999  16.520   0.871
13261SOL    HW288623   6.946  16.636   0.770
13262SOL     OW88624  13.942  16.110   6.906
13262SOL    HW188625  13.895  16.034   6.862
13262SOL    HW288626  14.037  16.115   6.874
13263SOL     OW88627  12.591   8.633   0.926
13263SOL    HW188628  12.498   8.617   0.896
13263SOL    HW288629  12.630   8.710   0.875
13264SOL     OW88630   6.546   7.302   7.883
13264SOL    HW188631   6.488   7.226   7.852
13264SOL    HW288632   6.619   7.316   7.816
13265SOL     OW88633  16.224   9.890   0.806
13265SOL    HW188634  16.309   9.916   0.760
13265SOL    HW288635  16.165   9.970   0.816
13266SOL     OW88636   8.272  13.829   6.912
13266SOL    HW188637   8.334  13.854   6.838
13266SOL    HW288638   8.179  13.818   6.875
13267SOL     OW88639  16.002  12.994   7.740
13267SOL    HW188640  15.962  13.067   7.795
13267SOL    HW288641  15.962  12.997   7.648
13268SOL     OW88642   4.412   4.770   7.448
13268SOL    HW188643   4.485   4.747   7.384
13268SOL    HW288644   4.377   4.861   7.427
13269SOL     OW88645   6.815  13.091   0.130
13269SOL    HW188646   6.852  13.010   0.083
13269SOL    HW288647   6.725  13.069   0.167
13270SOL     OW88648   4.443   7.559   7.745
13270SOL    HW188649   4.520   7.537   7.685
13270SOL    HW288650   4.397   7.641   7.711
13271SOL     OW88651   3.848  10.002   6.927
13271SOL    HW188652   3.792   9.938   6.980
13271SOL    HW288653   3.940  10.006   6.965
13272SOL     OW88654  11.858  14.624   7.249
13272SOL    HW188655  11.889  14.530   7.259
13272SOL    HW288656  11.935  14.687   7.259
13273SOL     OW88657  14.391   2.066   6.562
13273SOL    HW188658  14.411   1.989   6.502
13273SOL    HW288659  14.363   2.145   6.507
13274SOL     OW88660   4.711   8.184   0.268
13274SOL    HW188661   4.662   8.240   0.335
13274SOL    HW288662   4.645   8.131   0.214
13275SOL     OW88663  14.135  14.703   0.117
13275SOL    HW188664  14.146  14.665   0.025
13275SOL    HW288665  14.045  14.676   0.152
13276SOL     OW88666   4.576   2.938   7.137
13276SOL    HW188667   4.570   2.914   7.040
13276SOL    HW288668   4.534   2.866   7.192
13277SOL     OW88669   4.052  16.177   7.739
13277SOL    HW188670   3.977  16.240   7.759
13277SOL    HW288671   4.139  16.225   7.749
13278SOL     OW88672   4.759   4.428   7.664
13278SOL    HW188673   4.788   4.477   7.582
13278SOL    HW288674   4.822   4.351   7.681
13279SOL     OW88675   9.927   9.668   8.127
13279SOL    HW188676   9.989   9.600   8.167
13279SOL    HW288677   9.851   9.685   8.189
13280SOL     OW88678   4.028   5.891   7.619
13280SOL    HW188679   4.094   5.939   7.562
13280SOL    HW288680   3.936   5.928   7.602
13281SOL     OW88681  13.360  10.392   2.223
13281SOL    HW188682  13.405  10.460   2.282
13281SOL    HW288683  13.287  10.436   2.172
13282SOL     OW88684   1.800   1.604   8.006
13282SOL    HW188685   1.784   1.701   7.989
13282SOL    HW288686   1.748   1.550   7.941
13283SOL     OW88687   2.587  13.114   7.971
13283SOL    HW188688   2.572  13.091   8.067
13283SOL    HW288689   2.684  13.103   7.949
13284SOL     OW88690  15.240   3.205   0.410
13284SOL    HW188691  15.284   3.210   0.500
13284SOL    HW288692  15.270   3.282   0.354
13285SOL     OW88693   8.188  11.421   7.518
13285SOL    HW188694   8.184  11.447   7.614
13285SOL    HW288695   8.174  11.322   7.510
13286SOL     OW88696   7.809  10.290   0.344
13286SOL    HW188697   7.715  10.288   0.380
13286SOL    HW288698   7.806  10.300   0.245
13287SOL     OW88699  12.342  12.234   6.416
13287SOL    HW188700  12.252  12.191   6.421
13287SOL    HW288701  12.348  12.289   6.333
13288SOL     OW88702   1.351   8.681   1.620
13288SOL    HW188703   1.372   8.666   1.717
13288SOL    HW288704   1.374   8.600   1.567
13289SOL     OW88705   9.435  13.920   7.761
13289SOL    HW188706   9.351  13.964   7.791
13289SOL    HW288707   9.510  13.987   7.763
13290SOL     OW88708   7.372   3.123   7.060
13290SOL    HW188709   7.396   3.052   6.994
13290SOL    HW288710   7.440   3.196   7.056
13291SOL     OW88711   6.670   8.472   0.681
13291SOL    HW188712   6.744   8.525   0.639
13291SOL    HW288713   6.582   8.509   0.652
13292SOL     OW88714  15.084   0.254   7.200
13292SOL    HW188715  15.175   0.226   7.169
13292SOL    HW288716  15.046   0.320   7.135
13293SOL     OW88717  15.096   5.191   7.263
13293SOL    HW188718  15.195   5.204   7.249
13293SOL    HW288719  15.047   5.269   7.223
13294SOL     OW88720   3.654  12.715   1.766
13294SOL    HW188721   3.624  12.624   1.737
13294SOL    HW288722   3.616  12.784   1.704
13295SOL     OW88723  15.300   6.027   2.233
13295SOL    HW188724  15.330   6.008   2.140
13295SOL    HW288725  15.365   5.989   2.298
13296SOL     OW88726  11.126  10.387   0.701
13296SOL    HW188727  11.172  10.432   0.777
13296SOL    HW288728  11.108  10.453   0.629
13297SOL     OW88729   8.017   6.918   1.312
13297SOL    HW188730   7.999   7.008   1.271
13297SOL    HW288731   7.991   6.920   1.409
13298SOL     OW88732  13.505   9.994   6.777
13298SOL    HW188733  13.544  10.086   6.787
13298SOL    HW288734  13.489   9.975   6.681
13299SOL     OW88735  15.813   1.111   7.055
13299SOL    HW188736  15.745   1.127   7.126
13299SOL    HW288737  15.793   1.025   7.008
13300SOL     OW88738  13.491  10.941   0.233
13300SOL    HW188739  13.460  10.893   0.315
13300SOL    HW288740  13.467  10.889   0.152
13301SOL     OW88741   6.202  10.800   7.086
13301SOL    HW188742   6.229  10.809   7.182
13301SOL    HW288743   6.272  10.843   7.028
13302SOL     OW88744  15.351   3.755   6.812
13302SOL    HW188745  15.252   3.769   6.815
13302SOL    HW288746  15.372   3.660   6.837
13303SOL     OW88747  10.001   8.530   6.984
13303SOL    HW188748   9.980   8.591   7.060
13303SOL    HW288749  10.018   8.584   6.901
13304SOL     OW88750   7.222   4.964   7.099
13304SOL    HW188751   7.161   5.043   7.099
13304SOL    HW288752   7.316   4.993   7.117
13305SOL     OW88753  13.924   5.127   5.657
13305SOL    HW188754  13.859   5.128   5.733
13305SOL    HW288755  13.889   5.183   5.582
13306SOL     OW88756  15.399   9.636   7.692
13306SOL    HW188757  15.418   9.679   7.604
13306SOL    HW288758  15.326   9.568   7.680
13307SOL     OW88759   1.187   9.073   0.147
13307SOL    HW188760   1.090   9.082   0.169
13307SOL    HW288761   1.222   9.161   0.115
13308SOL     OW88762  12.753   2.113   1.399
13308SOL    HW188763  12.717   2.113   1.305
13308SOL    HW288764  12.688   2.067   1.459
13309SOL     OW88765   4.493  16.075   7.280
13309SOL    HW188766   4.468  16.058   7.185
13309SOL    HW288767   4.523  15.990   7.322
13310SOL     OW88768   9.311  14.694   7.937
13310SOL    HW188769   9.355  14.615   7.894
13310SOL    HW288770   9.333  14.777   7.886
13311SOL     OW88771   5.535  13.813   8.130
13311SOL    HW188772   5.560  13.749   8.057
13311SOL    HW288773   5.516  13.903   8.090
13312SOL     OW88774   9.096  10.478   1.268
13312SOL    HW188775   9.018  10.417   1.256
13312SOL    HW288776   9.077  10.566   1.224
13313SOL     OW88777  12.447  10.308   1.529
13313SOL    HW188778  12.366  10.294   1.472
13313SOL    HW288779  12.530  10.288   1.476
13314SOL     OW88780  15.176  10.297   1.587
13314SOL    HW188781  15.268  10.337   1.588
13314SOL    HW288782  15.138  10.300   1.679
13315SOL     OW88783  10.294  11.303   2.103
13315SOL    HW188784  10.319  11.346   2.190
13315SOL    HW288785  10.198  11.320   2.084
13316SOL     OW88786   7.595   0.815   7.016
13316SOL    HW188787   7.579   0.853   6.925
13316SOL    HW288788   7.547   0.728   7.025
13317SOL     OW88789   7.370   8.218   1.848
13317SOL    HW188790   7.428   8.240   1.927
13317SOL    HW288791   7.408   8.139   1.800
13318SOL     OW88792   0.668  14.179   7.312
13318SOL    HW188793   0.741  14.248   7.312
13318SOL    HW288794   0.621  14.181   7.400
13319SOL     OW88795  13.922   4.931   0.046
13319SOL    HW188796  14.012   4.973   0.051
13319SOL    HW288797  13.884   4.944   8.408
13320SOL     OW88798   9.212   6.678   7.997
13320SOL    HW188799   9.247   6.585   7.984
13320SOL    HW288800   9.282   6.734   8.041
13321SOL     OW88801   0.637  15.121   1.819
13321SOL    HW188802   0.545  15.103   1.784
13321SOL    HW288803   0.647  15.218   1.837
13322SOL     OW88804   6.987   1.421   1.290
13322SOL    HW188805   7.051   1.438   1.365
13322SOL    HW288806   7.017   1.340   1.239
13323SOL     OW88807   7.412   2.246   7.089
13323SOL    HW188808   7.330   2.300   7.070
13323SOL    HW288809   7.490   2.307   7.102
13324SOL     OW88810  12.433   5.964   6.308
13324SOL    HW188811  12.511   6.006   6.356
13324SOL    HW288812  12.384   6.034   6.257
13325SOL     OW88813  12.463   6.407   1.583
13325SOL    HW188814  12.483   6.362   1.671
13325SOL    HW288815  12.379   6.459   1.591
13326SOL     OW88816  15.947  14.950   1.316
13326SOL    HW188817  15.918  14.940   1.411
13326SOL    HW288818  15.934  15.045   1.287
13327SOL     OW88819   2.199   6.055   0.914
13327SOL    HW188820   2.104   6.029   0.902
13327SOL    HW288821   2.230   6.107   0.834
13328SOL     OW88822   9.602  12.251   1.226
13328SOL    HW188823   9.677  12.268   1.162
13328SOL    HW288824   9.637  12.258   1.320
13329SOL     OW88825   5.718   5.887   1.253
13329SOL    HW188826   5.671   5.945   1.186
13329SOL    HW288827   5.658   5.868   1.330
13330SOL     OW88828  13.723  15.459   8.282
13330SOL    HW188829  13.709  15.555   8.258
13330SOL    HW288830  13.803  15.451   8.341
13331SOL     OW88831   0.640   7.590   7.523
13331SOL    HW188832   0.552   7.546   7.543
13331SOL    HW288833   0.714   7.524   7.538
13332SOL     OW88834  16.950   4.089   0.214
13332SOL    HW188835   0.040   4.028   0.246
13332SOL    HW288836  16.903   4.128   0.292
13333SOL     OW88837   2.113   1.592   7.874
13333SOL    HW188838   2.111   1.565   7.970
13333SOL    HW288839   2.045   1.539   7.823
13334SOL     OW88840  10.514   0.348   0.772
13334SOL    HW188841  10.525   0.256   0.812
13334SOL    HW288842  10.421   0.357   0.735
13335SOL     OW88843   7.191   7.783   1.068
13335SOL    HW188844   7.258   7.852   1.095
13335SOL    HW288845   7.121   7.775   1.139
13336SOL     OW88846  16.905  15.455   1.416
13336SOL    HW188847  16.964  15.536   1.412
13336SOL    HW288848  16.960  15.374   1.438
13337SOL     OW88849  14.812   9.276   8.326
13337SOL    HW188850  14.768   9.349   8.274
13337SOL    HW288851  14.746   9.236   8.390
13338SOL     OW88852  13.236  11.974   6.847
13338SOL    HW188853  13.286  12.007   6.927
13338SOL    HW288854  13.197  12.052   6.798
13339SOL     OW88855   4.297  13.230   1.653
13339SOL    HW188856   4.390  13.194   1.657
13339SOL    HW288857   4.252  13.217   1.742
13340SOL     OW88858  11.744  16.600   5.997
13340SOL    HW188859  11.663  16.541   6.006
13340SOL    HW288860  11.814  16.553   5.944
13341SOL     OW88861   5.456   1.365   1.712
13341SOL    HW188862   5.487   1.383   1.805
13341SOL    HW288863   5.457   1.267   1.695
13342SOL     OW88864   2.027  16.172   7.676
13342SOL    HW188865   1.933  16.143   7.693
13342SOL    HW288866   2.031  16.225   7.591
13343SOL     OW88867   3.567  16.818   8.331
13343SOL    HW188868   3.619  16.899   8.303
13343SOL    HW288869   3.474  16.824   8.295
13344SOL     OW88870   8.470  11.749   7.696
13344SOL    HW188871   8.429  11.719   7.610
13344SOL    HW288872   8.500  11.670   7.748
13345SOL     OW88873  12.371   4.996   0.281
13345SOL    HW188874  12.459   5.033   0.251
13345SOL    HW288875  12.371   4.987   0.380
13346SOL     OW88876   6.909  14.955   7.753
13346SOL    HW188877   6.880  15.043   7.789
13346SOL    HW288878   6.925  14.892   7.829
13347SOL     OW88879   6.482   4.909   5.651
13347SOL    HW188880   6.494   4.812   5.671
13347SOL    HW288881   6.410   4.921   5.582
13348SOL     OW88882   4.430   6.271   6.407
13348SOL    HW188883   4.447   6.346   6.344
13348SOL    HW288884   4.451   6.184   6.363
13349SOL     OW88885  15.271   2.639   7.517
13349SOL    HW188886  15.293   2.655   7.421
13349SOL    HW288887  15.219   2.718   7.552
13350SOL     OW88888   5.996   8.303   7.284
13350SOL    HW188889   6.019   8.394   7.252
13350SOL    HW288890   6.079   8.247   7.287
13351SOL     OW88891  15.685  10.412   8.350
13351SOL    HW188892  15.597  10.363   8.350
13351SOL    HW288893  15.700  10.452   8.259
13352SOL     OW88894  11.116   7.943   0.099
13352SOL    HW188895  11.184   7.986   0.158
13352SOL    HW288896  11.114   7.990   0.011
13353SOL     OW88897  16.763  12.001   6.722
13353SOL    HW188898  16.787  11.917   6.673
13353SOL    HW288899  16.764  12.078   6.658
13354SOL     OW88900   8.122  15.014   0.622
13354SOL    HW188901   8.074  15.001   0.535
13354SOL    HW288902   8.091  14.944   0.687
13355SOL     OW88903   6.754  14.163   7.459
13355SOL    HW188904   6.811  14.112   7.395
13355SOL    HW288905   6.786  14.147   7.553
13356SOL     OW88906   5.147  12.447   8.076
13356SOL    HW188907   5.115  12.517   8.013
13356SOL    HW288908   5.247  12.442   8.072
13357SOL     OW88909   2.963   8.862   0.877
13357SOL    HW188910   3.041   8.805   0.903
13357SOL    HW288911   2.981   8.957   0.903
13358SOL     OW88912  16.023  15.792   7.179
13358SOL    HW188913  15.975  15.825   7.097
13358SOL    HW288914  15.979  15.831   7.260
13359SOL     OW88915  15.090  10.734   6.300
13359SOL    HW188916  15.088  10.711   6.202
13359SOL    HW288917  15.006  10.781   6.325
13360SOL     OW88918  13.824  14.330   1.760
13360SOL    HW188919  13.908  14.318   1.812
13360SOL    HW288920  13.748  14.288   1.809
13361SOL     OW88921   7.996  12.199   7.461
13361SOL    HW188922   8.073  12.176   7.402
13361SOL    HW288923   8.020  12.280   7.515
13362SOL     OW88924   6.816  16.405   7.104
13362SOL    HW188925   6.792  16.400   7.201
13362SOL    HW288926   6.839  16.313   7.071
13363SOL     OW88927   6.412   1.821   1.235
13363SOL    HW188928   6.478   1.853   1.302
13363SOL    HW288929   6.440   1.850   1.143
13364SOL     OW88930  12.937  16.751   0.344
13364SOL    HW188931  12.916  16.733   0.440
13364SOL    HW288932  12.999  16.828   0.337
13365SOL     OW88933  13.952   5.573   0.559
13365SOL    HW188934  13.914   5.651   0.509
13365SOL    HW288935  13.883   5.537   0.621
13366SOL     OW88936   7.673   7.357   6.481
13366SOL    HW188937   7.749   7.383   6.421
13366SOL    HW288938   7.630   7.274   6.446
13367SOL     OW88939   3.052   2.512   6.311
13367SOL    HW188940   3.018   2.438   6.370
13367SOL    HW288941   3.138   2.483   6.269
13368SOL     OW88942  12.359   6.938   0.377
13368SOL    HW188943  12.410   7.013   0.419
13368SOL    HW288944  12.303   6.893   0.447
13369SOL     OW88945  15.719   8.018   7.926
13369SOL    HW188946  15.811   8.023   7.887
13369SOL    HW288947  15.679   8.109   7.929
13370SOL     OW88948  15.816   7.871   1.595
13370SOL    HW188949  15.775   7.911   1.677
13370SOL    HW288950  15.763   7.790   1.568
13371SOL     OW88951   0.219   0.523   7.898
13371SOL    HW188952   0.197   0.434   7.938
13371SOL    HW288953   0.315   0.524   7.871
13372SOL     OW88954   9.351  13.467   7.848
13372SOL    HW188955   9.395  13.523   7.778
13372SOL    HW288956   9.418  13.405   7.888
13373SOL     OW88957  10.044   3.265   0.830
13373SOL    HW188958  10.123   3.211   0.803
13373SOL    HW288959  10.067   3.322   0.909
13374SOL     OW88960  15.296   1.187   8.208
13374SOL    HW188961  15.224   1.248   8.173
13374SOL    HW288962  15.364   1.242   8.258
13375SOL     OW88963   3.302  10.255   1.229
13375SOL    HW188964   3.255  10.274   1.315
13375SOL    HW288965   3.390  10.301   1.228
13376SOL     OW88966   6.321  16.274   0.395
13376SOL    HW188967   6.281  16.225   0.473
13376SOL    HW288968   6.384  16.213   0.346
13377SOL     OW88969   6.913   5.833   0.375
13377SOL    HW188970   6.842   5.787   0.321
13377SOL    HW288971   6.886   5.928   0.392
13378SOL     OW88972  13.041  15.033   7.068
13378SOL    HW188973  13.022  15.021   7.166
13378SOL    HW288974  12.958  15.062   7.021
13379SOL     OW88975   6.092  10.538   7.872
13379SOL    HW188976   6.118  10.634   7.858
13379SOL    HW288977   6.162  10.493   7.927
13380SOL     OW88978   2.810   2.387   1.441
13380SOL    HW188979   2.886   2.418   1.385
13380SOL    HW288980   2.739   2.457   1.443
13381SOL     OW88981  11.120   2.453   1.542
13381SOL    HW188982  11.118   2.448   1.442
13381SOL    HW288983  11.126   2.548   1.571
13382SOL     OW88984   7.919  15.007   7.452
13382SOL    HW188985   7.980  14.941   7.495
13382SOL    HW288986   7.824  14.980   7.467
13383SOL     OW88987   0.941   7.479   0.860
13383SOL    HW188988   0.878   7.483   0.783
13383SOL    HW288989   0.890   7.460   0.944
13384SOL     OW88990   9.585   8.008   2.081
13384SOL    HW188991   9.521   8.079   2.111
13384SOL    HW288992   9.548   7.918   2.105
13385SOL     OW88993  12.375   3.166   7.321
13385SOL    HW188994  12.326   3.228   7.382
13385SOL    HW288995  12.427   3.100   7.375
13386SOL     OW88996   5.730  13.293   1.008
13386SOL    HW188997   5.753  13.387   0.980
13386SOL    HW288998   5.804  13.232   0.982
13387SOL     OW88999   2.083  16.335   7.460
13387SOL    HW189000   2.168  16.380   7.434
13387SOL    HW289001   2.016  16.404   7.487
13388SOL     OW89002   6.838   9.517   7.774
13388SOL    HW189003   6.929   9.540   7.738
13388SOL    HW289004   6.833   9.418   7.791
13389SOL     OW89005   5.199   2.588   7.683
13389SOL    HW189006   5.258   2.547   7.614
13389SOL    HW289007   5.103   2.566   7.663
13390SOL     OW89008  16.514  11.432   1.168
13390SOL    HW189009  16.566  11.356   1.129
13390SOL    HW289010  16.542  11.448   1.262
13391SOL     OW89011   6.472  14.944   1.139
13391SOL    HW189012   6.449  14.854   1.176
13391SOL    HW289013   6.388  14.995   1.121
13392SOL     OW89014   7.106   0.382   0.907
13392SOL    HW189015   7.163   0.304   0.929
13392SOL    HW289016   7.103   0.445   0.985
13393SOL     OW89017   7.283   8.165   2.244
13393SOL    HW189018   7.293   8.083   2.300
13393SOL    HW289019   7.326   8.243   2.290
13394SOL     OW89020   9.003   8.313   0.801
13394SOL    HW189021   9.043   8.225   0.827
13394SOL    HW289022   8.921   8.329   0.856
13395SOL     OW89023   0.459  11.323   7.096
13395SOL    HW189024   0.537  11.341   7.037
13395SOL    HW289025   0.376  11.358   7.053
13396SOL     OW89026   2.832   0.350   1.071
13396SOL    HW189027   2.832   0.258   1.031
13396SOL    HW289028   2.925   0.372   1.103
13397SOL     OW89029   1.147   9.165   0.559
13397SOL    HW189030   1.171   9.238   0.494
13397SOL    HW289031   1.132   9.205   0.650
13398SOL     OW89032   2.973  16.184   6.883
13398SOL    HW189033   3.004  16.163   6.791
13398SOL    HW289034   2.929  16.274   6.884
13399SOL     OW89035  16.438   8.284   7.930
13399SOL    HW189036  16.377   8.233   7.991
13399SOL    HW289037  16.521   8.309   7.979
13400SOL     OW89038   2.419   4.195   7.000
13400SOL    HW189039   2.331   4.235   7.024
13400SOL    HW289040   2.460   4.154   7.081
13401SOL     OW89041   5.355  11.464   0.717
13401SOL    HW189042   5.356  11.552   0.669
13401SOL    HW289043   5.310  11.476   0.806
13402SOL     OW89044  13.213   6.049   1.280
13402SOL    HW189045  13.244   5.956   1.263
13402SOL    HW289046  13.236   6.075   1.374
13403SOL     OW89047  11.295  12.394   6.489
13403SOL    HW189048  11.197  12.405   6.473
13403SOL    HW289049  11.333  12.330   6.423
13404SOL     OW89050   6.671   7.179   0.057
13404SOL    HW189051   6.580   7.219   0.066
13404SOL    HW289052   6.712   7.209   8.425
13405SOL     OW89053   4.118   0.392   6.518
13405SOL    HW189054   4.066   0.317   6.479
13405SOL    HW289055   4.135   0.374   6.615
13406SOL     OW89056  10.121   2.679   1.543
13406SOL    HW189057  10.189   2.608   1.525
13406SOL    HW289058  10.148   2.729   1.626
13407SOL     OW89059   8.660  10.671   6.391
13407SOL    HW189060   8.721  10.600   6.356
13407SOL    HW289061   8.635  10.733   6.317
13408SOL     OW89062  12.908  10.729   6.916
13408SOL    HW189063  12.843  10.687   6.979
13408SOL    HW289064  12.961  10.658   6.871
13409SOL     OW89065  14.615  10.145   2.406
13409SOL    HW189066  14.520  10.118   2.419
13409SOL    HW289067  14.651  10.182   2.492
13410SOL     OW89068  14.984   6.033   0.980
13410SOL    HW189069  14.994   6.106   0.913
13410SOL    HW289070  15.046   6.050   1.057
13411SOL     OW89071  11.134  11.893   1.317
13411SOL    HW189072  11.114  11.962   1.387
13411SOL    HW289073  11.169  11.810   1.360
13412SOL     OW89074   6.609   7.936   1.560
13412SOL    HW189075   6.610   7.997   1.639
13412SOL    HW289076   6.519   7.939   1.517
13413SOL     OW89077   7.387   5.357   1.546
13413SOL    HW189078   7.445   5.321   1.619
13413SOL    HW289079   7.368   5.283   1.480
13414SOL     OW89080   9.214   6.105   7.558
13414SOL    HW189081   9.143   6.078   7.493
13414SOL    HW289082   9.275   6.027   7.575
13415SOL     OW89083   7.528   7.532   7.575
13415SOL    HW189084   7.490   7.483   7.653
13415SOL    HW289085   7.468   7.520   7.496
13416SOL     OW89086  12.598   2.226   7.369
13416SOL    HW189087  12.543   2.227   7.286
13416SOL    HW289088  12.607   2.319   7.405
13417SOL     OW89089  13.508   2.490   6.896
13417SOL    HW189090  13.505   2.517   6.800
13417SOL    HW289091  13.599   2.507   6.933
13418SOL     OW89092  10.228   6.384   0.174
13418SOL    HW189093  10.139   6.410   0.211
13418SOL    HW289094  10.264   6.459   0.119
13419SOL     OW89095   2.531   7.984   7.403
13419SOL    HW189096   2.586   7.936   7.471
13419SOL    HW289097   2.435   7.955   7.412
13420SOL     OW89098   8.161  15.272   1.409
13420SOL    HW189099   8.086  15.305   1.465
13420SOL    HW289100   8.236  15.242   1.468
13421SOL     OW89101   6.791   4.286   7.018
13421SOL    HW189102   6.823   4.214   6.957
13421SOL    HW289103   6.793   4.255   7.113
13422SOL     OW89104  15.653   6.168   0.107
13422SOL    HW189105  15.733   6.211   0.065
13422SOL    HW289106  15.677   6.135   0.198
13423SOL     OW89107  15.138   2.847   7.636
13423SOL    HW189108  15.056   2.896   7.666
13423SOL    HW289109  15.218   2.907   7.643
13424SOL     OW89110   6.903  16.425   7.891
13424SOL    HW189111   6.848  16.503   7.860
13424SOL    HW289112   6.923  16.365   7.813
13425SOL     OW89113   1.668   8.698   7.134
13425SOL    HW189114   1.634   8.640   7.060
13425SOL    HW289115   1.600   8.769   7.154
13426SOL     OW89116  13.710   0.942   1.102
13426SOL    HW189117  13.705   0.843   1.118
13426SOL    HW289118  13.800   0.975   1.129
13427SOL     OW89119  13.430  12.367   8.179
13427SOL    HW189120  13.473  12.393   8.092
13427SOL    HW289121  13.501  12.342   8.245
13428SOL     OW89122   0.581  11.418   7.884
13428SOL    HW189123   0.523  11.468   7.948
13428SOL    HW289124   0.632  11.347   7.933
13429SOL     OW89125  13.550   0.316   7.195
13429SOL    HW189126  13.644   0.292   7.219
13429SOL    HW289127  13.528   0.279   7.105
13430SOL     OW89128   9.420   3.517   0.761
13430SOL    HW189129   9.390   3.476   0.675
13430SOL    HW289130   9.456   3.608   0.742
13431SOL     OW89131   4.871  16.407   8.167
13431SOL    HW189132   4.830  16.316   8.174
13431SOL    HW289133   4.798  16.476   8.169
13432SOL     OW89134   4.664   0.843   6.962
13432SOL    HW189135   4.652   0.796   6.875
13432SOL    HW289136   4.574   0.871   6.997
13433SOL     OW89137   7.989   9.276   7.441
13433SOL    HW189138   8.007   9.342   7.513
13433SOL    HW289139   7.933   9.318   7.370
13434SOL     OW89140   5.929  15.256   1.706
13434SOL    HW189141   5.975  15.215   1.784
13434SOL    HW289142   5.920  15.355   1.720
13435SOL     OW89143   8.027   1.052   0.847
13435SOL    HW189144   7.958   1.035   0.918
13435SOL    HW289145   8.028   1.150   0.825
13436SOL     OW89146  16.091   5.281   0.539
13436SOL    HW189147  16.100   5.195   0.588
13436SOL    HW289148  16.133   5.355   0.592
13437SOL     OW89149  14.664  11.436   0.697
13437SOL    HW189150  14.639  11.350   0.742
13437SOL    HW289151  14.743  11.475   0.743
13438SOL     OW89152   6.303   5.206   8.067
13438SOL    HW189153   6.251   5.165   7.992
13438SOL    HW289154   6.258   5.290   8.096
13439SOL     OW89155   3.078  13.546   2.448
13439SOL    HW189156   2.997  13.489   2.435
13439SOL    HW289157   3.099  13.551   2.546
13440SOL     OW89158  16.629   6.162   0.690
13440SOL    HW189159  16.632   6.158   0.790
13440SOL    HW289160  16.666   6.249   0.659
13441SOL     OW89161  14.761  14.000   7.961
13441SOL    HW189162  14.692  14.028   7.895
13441SOL    HW289163  14.765  13.901   7.965
13442SOL     OW89164   3.385  15.588   7.370
13442SOL    HW189165   3.395  15.531   7.288
13442SOL    HW289166   3.364  15.682   7.343
13443SOL     OW89167   0.578  14.324   1.232
13443SOL    HW189168   0.507  14.264   1.195
13443SOL    HW289169   0.656  14.326   1.169
13444SOL     OW89170   3.223  16.622   1.473
13444SOL    HW189171   3.238  16.696   1.538
13444SOL    HW289172   3.181  16.544   1.519
13445SOL     OW89173  14.675  15.276   7.041
13445SOL    HW189174  14.651  15.357   6.987
13445SOL    HW289175  14.769  15.284   7.074
13446SOL     OW89176  15.031  11.044   2.159
13446SOL    HW189177  15.115  11.085   2.194
13446SOL    HW289178  15.022  11.063   2.062
13447SOL     OW89179   4.830  15.918   7.566
13447SOL    HW189180   4.913  15.863   7.570
13447SOL    HW289181   4.821  15.958   7.475
13448SOL     OW89182  14.662  15.460   7.380
13448SOL    HW189183  14.750  15.440   7.424
13448SOL    HW289184  14.678  15.521   7.302
13449SOL     OW89185   6.856  13.583   6.709
13449SOL    HW189186   6.937  13.552   6.661
13449SOL    HW289187   6.775  13.539   6.671
13450SOL     OW89188   5.001   5.567   0.426
13450SOL    HW189189   4.970   5.628   0.499
13450SOL    HW289190   4.944   5.580   0.345
13451SOL     OW89191   5.248  11.244   8.037
13451SOL    HW189192   5.308  11.210   8.110
13451SOL    HW289193   5.226  11.169   7.974
13452SOL     OW89194   7.606  10.521   7.129
13452SOL    HW189195   7.670  10.498   7.056
13452SOL    HW289196   7.570  10.613   7.114
13453SOL     OW89197  15.132  14.288   6.142
13453SOL    HW189198  15.078  14.318   6.220
13453SOL    HW289199  15.071  14.269   6.065
13454SOL     OW89200   8.663  10.566   2.042
13454SOL    HW189201   8.695  10.514   2.121
13454SOL    HW289202   8.693  10.523   1.958
13455SOL     OW89203   2.081   7.863   8.443
13455SOL    HW189204   1.997   7.812   8.422
13455SOL    HW289205   2.150   7.800   0.024
13456SOL     OW89206  13.766   2.522   6.982
13456SOL    HW189207  13.793   2.439   6.932
13456SOL    HW289208  13.842   2.587   6.983
13457SOL     OW89209   5.478   8.491   1.461
13457SOL    HW189210   5.550   8.538   1.513
13457SOL    HW289211   5.460   8.402   1.503
13458SOL     OW89212  16.595   3.612   6.441
13458SOL    HW189213  16.597   3.561   6.526
13458SOL    HW289214  16.502   3.608   6.402
13459SOL     OW89215  10.294   3.583   0.843
13459SOL    HW189216  10.248   3.515   0.900
13459SOL    HW289217  10.265   3.675   0.870
13460SOL     OW89218  15.011  15.656   6.525
13460SOL    HW189219  15.054  15.687   6.440
13460SOL    HW289220  14.912  15.653   6.514
13461SOL     OW89221   3.457  16.329   1.295
13461SOL    HW189222   3.403  16.406   1.259
13461SOL    HW289223   3.553  16.341   1.269
13462SOL     OW89224  11.432   6.063   7.926
13462SOL    HW189225  11.472   5.992   7.985
13462SOL    HW289226  11.406   6.142   7.982
13463SOL     OW89227  12.088   8.773   7.977
13463SOL    HW189228  12.091   8.799   8.073
13463SOL    HW289229  12.151   8.832   7.925
13464SOL     OW89230  15.037   3.254   7.200
13464SOL    HW189231  14.994   3.195   7.131
13464SOL    HW289232  15.021   3.217   7.291
13465SOL     OW89233   7.212   8.579   1.718
13465SOL    HW189234   7.262   8.625   1.791
13465SOL    HW289235   7.165   8.499   1.755
13466SOL     OW89236   1.276   0.669   8.334
13466SOL    HW189237   1.232   0.681   8.423
13466SOL    HW289238   1.233   0.593   8.286
13467SOL     OW89239   1.112   3.782   8.014
13467SOL    HW189240   1.016   3.761   7.998
13467SOL    HW289241   1.126   3.881   8.013
13468SOL     OW89242  10.293   9.679   1.009
13468SOL    HW189243  10.376   9.734   1.017
13468SOL    HW289244  10.216   9.731   1.046
13469SOL     OW89245   0.319  15.261   0.845
13469SOL    HW189246   0.317  15.253   0.746
13469SOL    HW289247   0.302  15.171   0.886
13470SOL     OW89248  12.299   1.186   5.549
13470SOL    HW189249  12.383   1.138   5.521
13470SOL    HW289250  12.220   1.142   5.506
13471SOL     OW89251   2.654   7.857   0.475
13471SOL    HW189252   2.744   7.899   0.473
13471SOL    HW289253   2.656   7.777   0.535
13472SOL     OW89254   7.084  11.465   0.428
13472SOL    HW189255   7.097  11.366   0.431
13472SOL    HW289256   7.097  11.504   0.519
13473SOL     OW89257  10.211   4.842   5.750
13473SOL    HW189258  10.257   4.753   5.757
13473SOL    HW289259  10.166   4.849   5.661
13474SOL     OW89260  10.637   5.005   5.613
13474SOL    HW189261  10.692   5.088   5.625
13474SOL    HW289262  10.598   5.005   5.521
13475SOL     OW89263   4.298   7.151   0.812
13475SOL    HW189264   4.383   7.168   0.862
13475SOL    HW289265   4.244   7.236   0.808
13476SOL     OW89266  11.001   7.455   1.320
13476SOL    HW189267  10.951   7.373   1.347
13476SOL    HW289268  11.029   7.505   1.401
13477SOL     OW89269   0.084  10.345   0.677
13477SOL    HW189270  16.973  10.377   0.675
13477SOL    HW289271   0.124  10.356   0.586
13478SOL     OW89272   5.764  15.436   1.964
13478SOL    HW189273   5.813  15.457   1.880
13478SOL    HW289274   5.726  15.520   2.003
13479SOL     OW89275   6.244   4.640   7.598
13479SOL    HW189276   6.195   4.561   7.561
13479SOL    HW289277   6.342   4.626   7.589
13480SOL     OW89278  11.233   2.301   8.285
13480SOL    HW189279  11.329   2.306   8.313
13480SOL    HW289280  11.203   2.206   8.288
13481SOL     OW89281   7.891   4.053   0.931
13481SOL    HW189282   7.984   4.089   0.926
13481SOL    HW289283   7.858   4.032   0.839
13482SOL     OW89284  13.032  16.358   6.711
13482SOL    HW189285  12.986  16.312   6.787
13482SOL    HW289286  13.091  16.293   6.664
13483SOL     OW89287   2.838  15.552   8.064
13483SOL    HW189288   2.827  15.562   7.965
13483SOL    HW289289   2.752  15.521   8.104
13484SOL     OW89290   2.157   4.564   0.826
13484SOL    HW189291   2.130   4.504   0.901
13484SOL    HW289292   2.256   4.572   0.823
13485SOL     OW89293  14.091  16.602   6.315
13485SOL    HW189294  14.116  16.513   6.277
13485SOL    HW289295  14.051  16.659   6.244
13486SOL     OW89296   8.170  14.070   1.438
13486SOL    HW189297   8.181  14.103   1.345
13486SOL    HW289298   8.159  14.147   1.501
13487SOL     OW89299   5.306   1.064   7.795
13487SOL    HW189300   5.368   1.017   7.857
13487SOL    HW289301   5.219   1.080   7.840
13488SOL     OW89302  13.725  10.081   7.755
13488SOL    HW189303  13.729   9.990   7.797
13488SOL    HW289304  13.748  10.074   7.658
13489SOL     OW89305   1.176   3.383   7.118
13489SOL    HW189306   1.266   3.340   7.111
13489SOL    HW289307   1.116   3.347   7.046
13490SOL     OW89308   9.931   7.538   0.625
13490SOL    HW189309   9.836   7.555   0.600
13490SOL    HW289310   9.983   7.509   0.545
13491SOL     OW89311  12.096   6.645   7.576
13491SOL    HW189312  12.178   6.674   7.528
13491SOL    HW289313  12.015   6.683   7.531
13492SOL     OW89314  10.221   0.026   0.097
13492SOL    HW189315  10.236   0.123   0.079
13492SOL    HW289316  10.130   0.000   0.065
13493SOL     OW89317  13.251   0.056   8.199
13493SOL    HW189318  13.279   0.141   8.155
13493SOL    HW289319  13.322   0.028   8.265
13494SOL     OW89320  12.488  15.722   7.233
13494SOL    HW189321  12.440  15.639   7.205
13494SOL    HW289322  12.567  15.737   7.173
13495SOL     OW89323  15.809   1.732   6.440
13495SOL    HW189324  15.768   1.790   6.369
13495SOL    HW289325  15.888   1.685   6.402
13496SOL     OW89326  16.552  16.292   1.860
13496SOL    HW189327  16.507  16.376   1.891
13496SOL    HW289328  16.536  16.220   1.927
13497SOL     OW89329   1.551   6.743   0.578
13497SOL    HW189330   1.496   6.671   0.620
13497SOL    HW289331   1.637   6.703   0.545
13498SOL     OW89332   6.508  14.058   7.382
13498SOL    HW189333   6.432  14.100   7.431
13498SOL    HW289334   6.594  14.095   7.417
13499SOL     OW89335   1.744   9.327   1.067
13499SOL    HW189336   1.831   9.298   1.026
13499SOL    HW289337   1.701   9.396   1.009
13500SOL     OW89338   3.210   3.137   7.481
13500SOL    HW189339   3.159   3.198   7.542
13500SOL    HW289340   3.165   3.048   7.478
13501SOL     OW89341   7.456   8.198   1.532
13501SOL    HW189342   7.463   8.124   1.598
13501SOL    HW289343   7.485   8.284   1.575
13502SOL     OW89344  12.901   5.980   7.599
13502SOL    HW189345  12.863   6.073   7.598
13502SOL    HW289346  12.826   5.914   7.603
13503SOL     OW89347   0.619   9.395   0.113
13503SOL    HW189348   0.652   9.414   0.021
13503SOL    HW289349   0.675   9.446   0.179
13504SOL     OW89350  16.119   6.680   7.264
13504SOL    HW189351  16.218   6.679   7.274
13504SOL    HW289352  16.089   6.598   7.216
13505SOL     OW89353  11.215   5.327   5.788
13505SOL    HW189354  11.289   5.389   5.764
13505SOL    HW289355  11.230   5.238   5.746
13506SOL     OW89356  16.354   4.093   0.766
13506SOL    HW189357  16.263   4.133   0.755
13506SOL    HW289358  16.352   3.998   0.734
13507SOL     OW89359   3.689  14.786   0.474
13507SOL    HW189360   3.737  14.699   0.487
13507SOL    HW289361   3.733  14.857   0.530
13508SOL     OW89362   2.252  16.263   7.027
13508SOL    HW189363   2.305  16.182   7.002
13508SOL    HW289364   2.155  16.241   7.026
13509SOL     OW89365  16.057  12.110   6.023
13509SOL    HW189366  16.126  12.056   6.073
13509SOL    HW289367  15.992  12.048   5.980
13510SOL     OW89368   5.958  16.844   8.279
13510SOL    HW189369   5.906  16.764   8.309
13510SOL    HW289370   6.052  16.816   8.258
13511SOL     OW89371   1.140  12.553   7.573
13511SOL    HW189372   1.237  12.553   7.549
13511SOL    HW289373   1.119  12.470   7.625
13512SOL     OW89374  12.305   2.364   7.630
13512SOL    HW189375  12.271   2.353   7.537
13512SOL    HW289376  12.229   2.382   7.692
13513SOL     OW89377   4.989  14.806   0.790
13513SOL    HW189378   5.072  14.849   0.824
13513SOL    HW289379   4.994  14.795   0.691
13514SOL     OW89380   0.015  10.257   0.982
13514SOL    HW189381   0.031  10.327   1.052
13514SOL    HW289382   0.061  10.285   0.897
13515SOL     OW89383  13.844   3.347   6.337
13515SOL    HW189384  13.858   3.274   6.270
13515SOL    HW289385  13.814   3.429   6.290
13516SOL     OW89386   0.920   4.406   0.416
13516SOL    HW189387   0.953   4.455   0.336
13516SOL    HW289388   0.828   4.439   0.439
13517SOL     OW89389   0.388  16.895   7.733
13517SOL    HW189390   0.367   0.009   7.722
13517SOL    HW289391   0.321  16.853   7.794
13518SOL     OW89392   3.523   1.773   8.364
13518SOL    HW189393   3.599   1.787   8.300
13518SOL    HW289394   3.556   1.780   0.004
13519SOL     OW89395  16.337   9.534   0.616
13519SOL    HW189396  16.358   9.552   0.520
13519SOL    HW289397  16.418   9.554   0.672
13520SOL     OW89398   7.312   8.054   6.369
13520SOL    HW189399   7.313   8.138   6.315
13520SOL    HW289400   7.331   7.976   6.311
13521SOL     OW89401  12.350  10.743   2.515
13521SOL    HW189402  12.340  10.643   2.509
13521SOL    HW289403  12.418  10.765   2.585
13522SOL     OW89404  10.481   0.240   8.150
13522SOL    HW189405  10.466   0.310   8.219
13522SOL    HW289406  10.567   0.193   8.169
13523SOL     OW89407   2.321   4.697   1.115
13523SOL    HW189408   2.295   4.623   1.176
13523SOL    HW289409   2.239   4.732   1.068
13524SOL     OW89410   7.986   7.789   7.897
13524SOL    HW189411   7.921   7.718   7.925
13524SOL    HW289412   8.075   7.748   7.880
13525SOL     OW89413  15.058   7.053   6.684
13525SOL    HW189414  14.966   7.070   6.650
13525SOL    HW289415  15.087   7.129   6.742
13526SOL     OW89416   3.008   6.121   1.253
13526SOL    HW189417   3.052   6.163   1.332
13526SOL    HW289418   2.940   6.055   1.284
13527SOL     OW89419   8.732  16.512   1.840
13527SOL    HW189420   8.675  16.434   1.815
13527SOL    HW289421   8.706  16.543   1.932
13528SOL     OW89422   8.649   7.395   7.171
13528SOL    HW189423   8.733   7.342   7.176
13528SOL    HW289424   8.591   7.361   7.098
13529SOL     OW89425   3.174  12.331   0.436
13529SOL    HW189426   3.258  12.364   0.392
13529SOL    HW289427   3.147  12.396   0.508
13530SOL     OW89428   6.409   8.460   7.654
13530SOL    HW189429   6.458   8.492   7.573
13530SOL    HW289430   6.452   8.498   7.736
13531SOL     OW89431  13.896   3.362   0.281
13531SOL    HW189432  13.931   3.438   0.336
13531SOL    HW289433  13.840   3.397   0.206
13532SOL     OW89434   0.556  15.990   7.860
13532SOL    HW189435   0.567  15.969   7.763
13532SOL    HW289436   0.460  16.014   7.878
13533SOL     OW89437  15.273   8.190   0.874
13533SOL    HW189438  15.340   8.128   0.832
13533SOL    HW289439  15.300   8.210   0.968
13534SOL     OW89440  16.857   6.847   7.777
13534SOL    HW189441  16.918   6.892   7.711
13534SOL    HW289442  16.763   6.879   7.762
13535SOL     OW89443   5.066   2.281   0.575
13535SOL    HW189444   5.003   2.206   0.594
13535SOL    HW289445   5.041   2.325   0.489
13536SOL     OW89446  10.497  15.674   7.420
13536SOL    HW189447  10.527  15.719   7.505
13536SOL    HW289448  10.506  15.738   7.344
13537SOL     OW89449   9.590   5.482   6.734
13537SOL    HW189450   9.679   5.522   6.756
13537SOL    HW289451   9.520   5.554   6.734
13538SOL     OW89452   8.145  12.984   1.241
13538SOL    HW189453   8.099  13.072   1.252
13538SOL    HW289454   8.244  12.996   1.255
13539SOL     OW89455   0.378  16.962   0.168
13539SOL    HW189456   0.416  16.883   0.119
13539SOL    HW289457   0.295   0.009   0.121
13540SOL     OW89458   6.710   0.326   6.938
13540SOL    HW189459   6.695   0.411   6.988
13540SOL    HW289460   6.790   0.279   6.975
13541SOL     OW89461   7.836   9.664   0.901
13541SOL    HW189462   7.929   9.651   0.936
13541SOL    HW289463   7.800   9.576   0.870
13542SOL     OW89464   4.327   7.021   7.490
13542SOL    HW189465   4.261   7.038   7.417
13542SOL    HW289466   4.345   7.107   7.538
13543SOL     OW89467   7.142   6.489   6.466
13543SOL    HW189468   7.109   6.582   6.484
13543SOL    HW289469   7.240   6.484   6.485
13544SOL     OW89470  15.810  16.270   8.110
13544SOL    HW189471  15.764  16.210   8.175
13544SOL    HW289472  15.751  16.347   8.087
13545SOL     OW89473  14.005  10.806   2.186
13545SOL    HW189474  14.094  10.828   2.226
13545SOL    HW289475  13.933  10.842   2.245
13546SOL     OW89476  13.938   0.108   8.448
13546SOL    HW189477  13.879   0.170   0.045
13546SOL    HW289478  13.959   0.028   0.050
13547SOL     OW89479  10.904   8.197   7.509
13547SOL    HW189480  10.928   8.182   7.605
13547SOL    HW289481  10.987   8.202   7.454
13548SOL     OW89482  10.458  15.340   0.169
13548SOL    HW189483  10.493  15.433   0.160
13548SOL    HW289484  10.507  15.292   0.241
13549SOL     OW89485   1.702   9.729   2.443
13549SOL    HW189486   1.769   9.666   2.483
13549SOL    HW289487   1.677   9.798   2.511
13550SOL     OW89488   7.399  11.947   6.996
13550SOL    HW189489   7.310  11.975   6.962
13550SOL    HW289490   7.453  11.909   6.921
13551SOL     OW89491  14.682   4.088   0.094
13551SOL    HW189492  14.685   4.186   0.075
13551SOL    HW289493  14.774   4.056   0.119
13552SOL     OW89494   9.839  15.895   8.107
13552SOL    HW189495   9.870  15.990   8.097
13552SOL    HW289496   9.851  15.865   8.201
13553SOL     OW89497   2.096   2.956   1.778
13553SOL    HW189498   2.154   2.895   1.832
13553SOL    HW289499   2.091   3.045   1.822
13554SOL     OW89500  10.592   4.585   7.055
13554SOL    HW189501  10.678   4.637   7.052
13554SOL    HW289502  10.515   4.649   7.051
13555SOL     OW89503  11.395  16.404   0.742
13555SOL    HW189504  11.347  16.483   0.703
13555SOL    HW289505  11.489  16.429   0.762
13556SOL     OW89506  13.432  15.680   1.466
13556SOL    HW189507  13.336  15.670   1.495
13556SOL    HW289508  13.444  15.767   1.420
13557SOL     OW89509  14.736   7.650   6.194
13557SOL    HW189510  14.727   7.552   6.210
13557SOL    HW289511  14.814   7.686   6.244
13558SOL     OW89512  11.240  11.096   1.514
13558SOL    HW189513  11.183  11.126   1.591
13558SOL    HW289514  11.312  11.036   1.548
13559SOL     OW89515  10.435   9.647   7.715
13559SOL    HW189516  10.476   9.666   7.626
13559SOL    HW289517  10.373   9.568   7.707
13560SOL     OW89518   5.295   3.831   7.073
13560SOL    HW189519   5.367   3.764   7.093
13560SOL    HW289520   5.310   3.869   6.982
13561SOL     OW89521  16.082  14.032   1.650
13561SOL    HW189522  15.984  14.020   1.667
13561SOL    HW289523  16.122  14.087   1.722
13562SOL     OW89524  12.100  12.524   0.605
13562SOL    HW189525  12.168  12.474   0.658
13562SOL    HW289526  12.118  12.623   0.614
13563SOL     OW89527   2.420   7.540   6.748
13563SOL    HW189528   2.408   7.469   6.678
13563SOL    HW289529   2.508   7.527   6.794
13564SOL     OW89530   9.964   9.660   6.518
13564SOL    HW189531   9.881   9.625   6.475
13564SOL    HW289532  10.017   9.584   6.555
13565SOL     OW89533   3.682   4.574   0.936
13565SOL    HW189534   3.773   4.612   0.949
13565SOL    HW289535   3.653   4.587   0.841
13566SOL     OW89536   9.514   9.700   0.168
13566SOL    HW189537   9.438   9.762   0.149
13566SOL    HW289538   9.480   9.606   0.173
13567SOL     OW89539   5.955   6.788   6.699
13567SOL    HW189540   6.014   6.839   6.762
13567SOL    HW289541   6.008   6.718   6.652
13568SOL     OW89542   9.044  12.269   0.242
13568SOL    HW189543   9.117  12.297   0.305
13568SOL    HW289544   9.084  12.217   0.167
13569SOL     OW89545   4.116   7.705   6.625
13569SOL    HW189546   4.177   7.689   6.547
13569SOL    HW289547   4.050   7.630   6.631
13570SOL     OW89548  15.732   7.480   7.343
13570SOL    HW189549  15.683   7.398   7.374
13570SOL    HW289550  15.750   7.540   7.421
13571SOL     OW89551   9.284  10.291   6.260
13571SOL    HW189552   9.192  10.299   6.297
13571SOL    HW289553   9.282  10.308   6.161
13572SOL     OW89554  15.531   3.553   0.352
13572SOL    HW189555  15.500   3.645   0.377
13572SOL    HW289556  15.455   3.500   0.316
13573SOL     OW89557   0.106   3.763   1.141
13573SOL    HW189558   0.121   3.767   1.240
13573SOL    HW289559   0.044   3.688   1.119
13574SOL     OW89560   9.131   9.264   7.170
13574SOL    HW189561   9.195   9.189   7.151
13574SOL    HW289562   9.114   9.269   7.269
13575SOL     OW89563   7.616   5.325   8.107
13575SOL    HW189564   7.631   5.347   8.011
13575SOL    HW289565   7.558   5.395   8.149
13576SOL     OW89566  10.832   4.738   7.046
13576SOL    HW189567  10.916   4.693   7.075
13576SOL    HW289568  10.831   4.747   6.946
13577SOL     OW89569  15.717  11.452   0.832
13577SOL    HW189570  15.807  11.444   0.874
13577SOL    HW289571  15.672  11.363   0.831
13578SOL     OW89572   4.659  16.138   0.696
13578SOL    HW189573   4.561  16.140   0.714
13578SOL    HW289574   4.689  16.228   0.662
13579SOL     OW89575   5.291   6.726   0.163
13579SOL    HW189576   5.216   6.660   0.171
13579SOL    HW289577   5.259   6.816   0.193
13580SOL     OW89578  11.014   3.445   2.175
13580SOL    HW189579  11.107   3.475   2.197
13580SOL    HW289580  10.949   3.512   2.209
13581SOL     OW89581   6.654  10.435   0.464
13581SOL    HW189582   6.691  10.421   0.555
13581SOL    HW289583   6.555  10.450   0.470
13582SOL     OW89584   5.225  15.218   7.864
13582SOL    HW189585   5.244  15.307   7.824
13582SOL    HW289586   5.297  15.196   7.930
13583SOL     OW89587  10.160  11.244   1.537
13583SOL    HW189588  10.236  11.253   1.474
13583SOL    HW289589  10.081  11.205   1.489
13584SOL     OW89590   3.343   7.884   8.422
13584SOL    HW189591   3.401   7.928   8.352
13584SOL    HW289592   3.304   7.800   8.384
13585SOL     OW89593   8.370  11.028   0.174
13585SOL    HW189594   8.386  10.930   0.186
13585SOL    HW289595   8.291  11.056   0.228
13586SOL     OW89596  10.407   3.587   5.825
13586SOL    HW189597  10.320   3.592   5.778
13586SOL    HW289598  10.461   3.511   5.789
13587SOL     OW89599   0.314  14.841   0.488
13587SOL    HW189600   0.304  14.742   0.476
13587SOL    HW289601   0.244  14.889   0.435
13588SOL     OW89602   4.693  15.076   7.311
13588SOL    HW189603   4.650  15.159   7.275
13588SOL    HW289604   4.744  15.099   7.394
13589SOL     OW89605   3.635  10.512   1.453
13589SOL    HW189606   3.618  10.553   1.543
13589SOL    HW289607   3.679  10.423   1.465
13590SOL     OW89608   0.364  14.474   7.996
13590SOL    HW189609   0.449  14.521   8.023
13590SOL    HW289610   0.387  14.389   7.949
13591SOL     OW89611  15.127   9.712   1.925
13591SOL    HW189612  15.195   9.751   1.986
13591SOL    HW289613  15.095   9.625   1.961
13592SOL     OW89614   2.180   8.126   1.259
13592SOL    HW189615   2.081   8.134   1.258
13592SOL    HW289616   2.212   8.104   1.166
13593SOL     OW89617  13.460   5.301   1.117
13593SOL    HW189618  13.419   5.317   1.207
13593SOL    HW289619  13.557   5.326   1.120
13594SOL     OW89620   4.567  10.659   0.258
13594SOL    HW189621   4.504  10.723   0.302
13594SOL    HW289622   4.650  10.708   0.231
13595SOL     OW89623   4.143   9.081   0.754
13595SOL    HW189624   4.179   9.001   0.803
13595SOL    HW289625   4.164   9.164   0.806
13596SOL     OW89626   0.394  11.085   2.155
13596SOL    HW189627   0.348  11.136   2.228
13596SOL    HW289628   0.489  11.070   2.180
13597SOL     OW89629   0.254   5.865   1.346
13597SOL    HW189630   0.296   5.817   1.423
13597SOL    HW289631   0.168   5.820   1.323
13598SOL     OW89632  12.799   4.984   7.795
13598SOL    HW189633  12.755   4.981   7.705
13598SOL    HW289634  12.867   4.910   7.801
13599SOL     OW89635   4.158   8.316   8.325
13599SOL    HW189636   4.130   8.361   8.410
13599SOL    HW289637   4.083   8.259   8.291
13600SOL     OW89638  10.831   8.531   2.229
13600SOL    HW189639  10.776   8.592   2.286
13600SOL    HW289640  10.803   8.436   2.246
13601SOL     OW89641   5.195  10.882   6.921
13601SOL    HW189642   5.181  10.900   6.824
13601SOL    HW289643   5.257  10.804   6.932
13602SOL     OW89644   7.370   3.418   1.748
13602SOL    HW189645   7.311   3.499   1.745
13602SOL    HW289646   7.465   3.446   1.765
13603SOL     OW89647  14.871  15.746   7.486
13603SOL    HW189648  14.853  15.650   7.466
13603SOL    HW289649  14.815  15.776   7.563
13604SOL     OW89650  15.932   5.471   1.071
13604SOL    HW189651  15.834   5.475   1.095
13604SOL    HW289652  15.964   5.562   1.048
13605SOL     OW89653   7.843  11.140   1.786
13605SOL    HW189654   7.811  11.147   1.691
13605SOL    HW289655   7.931  11.186   1.794
13606SOL     OW89656  16.089  12.101   0.733
13606SOL    HW189657  16.037  12.098   0.819
13606SOL    HW289658  16.142  12.186   0.729
13607SOL     OW89659  14.885   4.981   0.159
13607SOL    HW189660  14.795   4.938   0.170
13607SOL    HW289661  14.953   4.933   0.214
13608SOL     OW89662   3.654  12.942   0.478
13608SOL    HW189663   3.585  12.965   0.546
13608SOL    HW289664   3.712  13.022   0.460
13609SOL     OW89665   6.535  16.442   0.423
13609SOL    HW189666   6.548  16.501   0.344
13609SOL    HW289667   6.448  16.393   0.415
13610SOL     OW89668   0.769   4.204   0.777
13610SOL    HW189669   0.681   4.239   0.742
13610SOL    HW289670   0.843   4.263   0.745
13611SOL     OW89671   8.965   8.438   7.952
13611SOL    HW189672   8.890   8.467   7.892
13611SOL    HW289673   8.954   8.481   8.041
13612SOL     OW89674   6.171   4.875   7.474
13612SOL    HW189675   6.170   4.855   7.376
13612SOL    HW289676   6.187   4.790   7.524
13613SOL     OW89677  12.007   9.600   0.999
13613SOL    HW189678  12.095   9.554   0.994
13613SOL    HW289679  12.011   9.672   1.068
13614SOL     OW89680  12.953  10.427   0.812
13614SOL    HW189681  12.908  10.369   0.745
13614SOL    HW289682  12.997  10.504   0.765
13615SOL     OW89683   1.201  13.973   7.899
13615SOL    HW189684   1.241  14.014   7.817
13615SOL    HW289685   1.104  13.957   7.884
13616SOL     OW89686  16.714   1.833   0.483
13616SOL    HW189687  16.688   1.779   0.563
13616SOL    HW289688  16.641   1.828   0.414
13617SOL     OW89689  13.209   7.477   8.154
13617SOL    HW189690  13.219   7.514   8.246
13617SOL    HW289691  13.281   7.513   8.095
13618SOL     OW89692   9.585  12.050   0.787
13618SOL    HW189693   9.517  12.016   0.852
13618SOL    HW289694   9.623  11.973   0.735
13619SOL     OW89695  13.524  10.600   1.458
13619SOL    HW189696  13.460  10.674   1.480
13619SOL    HW289697  13.567  10.566   1.541
13620SOL     OW89698   2.841   2.916   7.098
13620SOL    HW189699   2.766   2.890   7.160
13620SOL    HW289700   2.812   2.993   7.041
13621SOL     OW89701   9.267   4.727   8.217
13621SOL    HW189702   9.193   4.697   8.277
13621SOL    HW289703   9.228   4.756   8.129
13622SOL     OW89704  10.982  15.004   0.573
13622SOL    HW189705  11.072  14.985   0.614
13622SOL    HW289706  10.972  15.102   0.559
13623SOL     OW89707   4.935   6.602   7.753
13623SOL    HW189708   4.844   6.588   7.793
13623SOL    HW289709   4.955   6.529   7.688
13624SOL     OW89710  16.676   7.087   0.565
13624SOL    HW189711  16.659   7.109   0.661
13624SOL    HW289712  16.590   7.093   0.514
13625SOL     OW89713   4.147   9.884   7.333
13625SOL    HW189714   4.134   9.810   7.398
13625SOL    HW289715   4.245   9.898   7.318
13626SOL     OW89716   4.922  11.000   1.751
13626SOL    HW189717   4.952  10.909   1.778
13626SOL    HW289718   4.880  11.046   1.830
13627SOL     OW89719  12.228  12.399   1.320
13627SOL    HW189720  12.152  12.344   1.353
13627SOL    HW289721  12.207  12.496   1.332
13628SOL     OW89722   6.666   9.359   8.038
13628SOL    HW189723   6.611   9.303   8.100
13628SOL    HW289724   6.614   9.376   7.954
13629SOL     OW89725   9.489   8.683   7.328
13629SOL    HW189726   9.546   8.614   7.284
13629SOL    HW289727   9.540   8.769   7.335
13630SOL     OW89728   6.278  11.395   0.917
13630SOL    HW189729   6.223  11.457   0.973
13630SOL    HW289730   6.241  11.302   0.922
13631SOL     OW89731  11.116  15.540   6.572
13631SOL    HW189732  11.045  15.610   6.574
13631SOL    HW289733  11.206  15.584   6.566
13632SOL     OW89734  11.398   3.225   7.987
13632SOL    HW189735  11.397   3.241   8.086
13632SOL    HW289736  11.490   3.241   7.952
13633SOL     OW89737  12.716  10.643   8.086
13633SOL    HW189738  12.747  10.559   8.043
13633SOL    HW289739  12.616  10.643   8.092
13634SOL     OW89740  11.047   2.516   7.833
13634SOL    HW189741  10.956   2.533   7.794
13634SOL    HW289742  11.064   2.579   7.908
13635SOL     OW89743   9.407   0.885   7.182
13635SOL    HW189744   9.323   0.881   7.236
13635SOL    HW289745   9.484   0.905   7.242
13636SOL     OW89746   9.961   9.770   0.817
13636SOL    HW189747   9.956   9.682   0.770
13636SOL    HW289748   9.869   9.799   0.843
13637SOL     OW89749   4.780   6.573   6.299
13637SOL    HW189750   4.720   6.624   6.238
13637SOL    HW289751   4.841   6.637   6.347
13638SOL     OW89752  15.292  16.223   0.029
13638SOL    HW189753  15.227  16.188   8.416
13638SOL    HW289754  15.361  16.279   8.437
13639SOL     OW89755   1.150  12.965   1.881
13639SOL    HW189756   1.102  13.034   1.935
13639SOL    HW289757   1.221  13.009   1.826
13640SOL     OW89758  12.640   4.327   0.664
13640SOL    HW189759  12.552   4.282   0.647
13640SOL    HW289760  12.696   4.268   0.721
13641SOL     OW89761  16.153   7.056   6.397
13641SOL    HW189762  16.081   7.095   6.455
13641SOL    HW289763  16.124   7.060   6.301
13642SOL     OW89764  13.011   5.667   7.866
13642SOL    HW189765  12.978   5.675   7.960
13642SOL    HW289766  13.035   5.571   7.847
13643SOL     OW89767  14.108   6.487   1.051
13643SOL    HW189768  14.106   6.572   1.104
13643SOL    HW289769  14.075   6.411   1.108
13644SOL     OW89770   4.554  11.595   1.456
13644SOL    HW189771   4.506  11.519   1.409
13644SOL    HW289772   4.652  11.579   1.452
13645SOL     OW89773  14.913   2.884   7.342
13645SOL    HW189774  14.843   2.883   7.271
13645SOL    HW289775  15.004   2.876   7.300
13646SOL     OW89776  15.510   9.265   8.450
13646SOL    HW189777  15.590   9.208   0.016
13646SOL    HW289778  15.539   9.348   8.403
13647SOL     OW89779  11.408  15.657   7.477
13647SOL    HW189780  11.441  15.576   7.429
13647SOL    HW289781  11.463  15.671   7.559
13648SOL     OW89782   7.020   5.652   7.421
13648SOL    HW189783   7.028   5.697   7.510
13648SOL    HW289784   6.981   5.717   7.355
13649SOL     OW89785   6.821   0.067   0.159
13649SOL    HW189786   6.805   0.110   0.248
13649SOL    HW289787   6.897   0.002   0.167
13650SOL     OW89788  14.877   7.858   1.536
13650SOL    HW189789  14.793   7.901   1.503
13650SOL    HW289790  14.868   7.839   1.634
13651SOL     OW89791  11.048   2.396   1.277
13651SOL    HW189792  10.959   2.433   1.304
13651SOL    HW289793  11.065   2.420   1.181
13652SOL     OW89794   2.140   8.787   7.019
13652SOL    HW189795   2.187   8.790   7.107
13652SOL    HW289796   2.046   8.820   7.030
13653SOL     OW89797  12.148   3.526   0.492
13653SOL    HW189798  12.109   3.499   0.404
13653SOL    HW289799  12.098   3.481   0.566
13654SOL     OW89800   3.485   9.888   6.546
13654SOL    HW189801   3.524   9.962   6.490
13654SOL    HW289802   3.559   9.828   6.577
13655SOL     OW89803   4.196  12.769   1.314
13655SOL    HW189804   4.235  12.680   1.291
13655SOL    HW289805   4.096  12.762   1.320
13656SOL     OW89806  11.876   2.022   1.431
13656SOL    HW189807  11.851   2.077   1.511
13656SOL    HW289808  11.804   2.030   1.361
13657SOL     OW89809  14.356   2.425   6.831
13657SOL    HW189810  14.376   2.513   6.874
13657SOL    HW289811  14.419   2.409   6.755
13658SOL     OW89812   7.308   6.082   0.227
13658SOL    HW189813   7.288   6.178   0.247
13658SOL    HW289814   7.407   6.068   0.226
13659SOL     OW89815   9.598   6.231   7.805
13659SOL    HW189816   9.605   6.315   7.858
13659SOL    HW289817   9.658   6.236   7.725
13660SOL     OW89818   5.161  11.412   2.463
13660SOL    HW189819   5.250  11.418   2.507
13660SOL    HW289820   5.168  11.353   2.382
13661SOL     OW89821   7.819   8.067   1.806
13661SOL    HW189822   7.749   8.046   1.875
13661SOL    HW289823   7.780   8.056   1.715
13662SOL     OW89824  12.129   4.365   0.976
13662SOL    HW189825  12.034   4.347   1.003
13662SOL    HW289826  12.139   4.351   0.878
13663SOL     OW89827  11.334  13.443   7.913
13663SOL    HW189828  11.244  13.458   7.872
13663SOL    HW289829  11.390  13.524   7.902
13664SOL     OW89830   6.378   4.291   6.607
13664SOL    HW189831   6.317   4.368   6.627
13664SOL    HW289832   6.393   4.237   6.689
13665SOL     OW89833  10.025   8.742   0.559
13665SOL    HW189834  10.109   8.788   0.591
13665SOL    HW289835   9.957   8.811   0.535
13666SOL     OW89836  11.495  14.509   1.512
13666SOL    HW189837  11.575  14.452   1.532
13666SOL    HW289838  11.427  14.454   1.463
13667SOL     OW89839   9.830   7.437   8.234
13667SOL    HW189840   9.878   7.349   8.234
13667SOL    HW289841   9.853   7.487   8.317
13668SOL     OW89842   1.158   4.176   8.296
13668SOL    HW189843   1.253   4.203   8.279
13668SOL    HW289844   1.100   4.257   8.292
13669SOL     OW89845   2.827   8.940   8.090
13669SOL    HW189846   2.730   8.935   8.066
13669SOL    HW289847   2.851   8.861   8.146
13670SOL     OW89848   6.961   2.573   0.731
13670SOL    HW189849   6.967   2.480   0.692
13670SOL    HW289850   6.999   2.638   0.666
13671SOL     OW89851  12.671  13.854   2.515
13671SOL    HW189852  12.676  13.943   2.561
13671SOL    HW289853  12.760  13.810   2.517
13672SOL     OW89854   8.428   0.330   7.795
13672SOL    HW189855   8.367   0.403   7.827
13672SOL    HW289856   8.374   0.262   7.745
13673SOL     OW89857  16.611  15.711   7.384
13673SOL    HW189858  16.656  15.797   7.406
13673SOL    HW289859  16.520  15.709   7.426
13674SOL     OW89860  11.992   1.610   0.574
13674SOL    HW189861  12.040   1.697   0.563
13674SOL    HW289862  12.026   1.563   0.655
13675SOL     OW89863  15.866  12.299   6.977
13675SOL    HW189864  15.818  12.251   6.903
13675SOL    HW289865  15.964  12.282   6.969
13676SOL     OW89866   3.990  10.377   6.745
13676SOL    HW189867   4.035  10.318   6.678
13676SOL    HW289868   4.019  10.471   6.732
13677SOL     OW89869   6.219  12.418   0.558
13677SOL    HW189870   6.210  12.482   0.482
13677SOL    HW289871   6.308  12.373   0.554
13678SOL     OW89872  16.915   4.834   7.901
13678SOL    HW189873  16.926   4.758   7.837
13678SOL    HW289874   0.007   4.899   7.889
13679SOL     OW89875  13.640   9.343   1.151
13679SOL    HW189876  13.698   9.415   1.112
13679SOL    HW289877  13.553   9.384   1.179
13680SOL     OW89878   5.003   0.935   8.247
13680SOL    HW189879   4.995   0.911   8.150
13680SOL    HW289880   4.989   0.853   8.303
13681SOL     OW89881   7.394  14.237   6.326
13681SOL    HW189882   7.380  14.148   6.285
13681SOL    HW289883   7.313  14.294   6.312
13682SOL     OW89884   4.933   7.932   2.352
13682SOL    HW189885   4.868   7.878   2.405
13682SOL    HW289886   5.026   7.901   2.372
13683SOL     OW89887   3.375   8.651   0.397
13683SOL    HW189888   3.452   8.714   0.403
13683SOL    HW289889   3.332   8.659   0.307
13684SOL     OW89890  13.066  12.932   1.750
13684SOL    HW189891  12.975  12.967   1.727
13684SOL    HW289892  13.073  12.836   1.723
13685SOL     OW89893   5.509   9.993   7.150
13685SOL    HW189894   5.578   9.998   7.078
13685SOL    HW289895   5.473   9.900   7.155
13686SOL     OW89896   6.209  16.742   8.210
13686SOL    HW189897   6.258  16.720   8.294
13686SOL    HW289898   6.275  16.758   8.136
13687SOL     OW89899  15.588  14.265   8.340
13687SOL    HW189900  15.536  14.337   8.386
13687SOL    HW289901  15.671  14.305   8.300
13688SOL     OW89902  11.346   2.018   0.515
13688SOL    HW189903  11.328   1.930   0.560
13688SOL    HW289904  11.419   2.066   0.564
13689SOL     OW89905   9.901  14.776   7.280
13689SOL    HW189906   9.809  14.743   7.301
13689SOL    HW289907   9.960  14.698   7.259
13690SOL     OW89908   5.023   1.633   1.425
13690SOL    HW189909   4.997   1.681   1.509
13690SOL    HW289910   4.953   1.565   1.402
13691SOL     OW89911  10.883   0.454   8.112
13691SOL    HW189912  10.897   0.540   8.063
13691SOL    HW289913  10.971   0.418   8.142
13692SOL     OW89914  12.651   2.503   1.641
13692SOL    HW189915  12.680   2.563   1.567
13692SOL    HW289916  12.618   2.417   1.603
13693SOL     OW89917  12.933  16.274   7.499
13693SOL    HW189918  12.854  16.234   7.545
13693SOL    HW289919  12.920  16.372   7.489
13694SOL     OW89920  10.519  14.981   8.079
13694SOL    HW189921  10.609  14.942   8.062
13694SOL    HW289922  10.448  14.918   8.046
13695SOL     OW89923   4.238  11.365   2.096
13695SOL    HW189924   4.168  11.418   2.142
13695SOL    HW289925   4.329  11.396   2.125
13696SOL     OW89926   8.531   2.820   6.848
13696SOL    HW189927   8.463   2.890   6.867
13696SOL    HW289928   8.608   2.861   6.798
13697SOL     OW89929   7.958   2.892   6.323
13697SOL    HW189930   8.009   2.897   6.237
13697SOL    HW289931   7.867   2.856   6.306
13698SOL     OW89932   7.765   0.319   2.002
13698SOL    HW189933   7.690   0.266   2.042
13698SOL    HW289934   7.851   0.294   2.046
13699SOL     OW89935   7.816   6.220   0.267
13699SOL    HW189936   7.805   6.308   0.220
13699SOL    HW289937   7.909   6.187   0.257
13700SOL     OW89938  11.783   1.609   7.928
13700SOL    HW189939  11.839   1.539   7.973
13700SOL    HW289940  11.702   1.565   7.887
13701SOL     OW89941   9.504   6.509   7.664
13701SOL    HW189942   9.473   6.431   7.609
13701SOL    HW289943   9.504   6.484   7.760
13702SOL     OW89944  12.410  15.150   8.359
13702SOL    HW189945  12.426  15.233   8.413
13702SOL    HW289946  12.313  15.125   8.365
13703SOL     OW89947   2.232  10.018   0.174
13703SOL    HW189948   2.233  10.111   0.137
13703SOL    HW289949   2.138   9.985   0.181
13704SOL     OW89950  15.811  10.828   8.000
13704SOL    HW189951  15.862  10.754   8.043
13704SOL    HW289952  15.806  10.812   7.902
13705SOL     OW89953  10.062   7.624   7.896
13705SOL    HW189954  10.136   7.577   7.944
13705SOL    HW289955  10.084   7.630   7.799
13706SOL     OW89956   1.674   4.140   0.012
13706SOL    HW189957   1.702   4.201   8.392
13706SOL    HW289958   1.755   4.093   0.049
13707SOL     OW89959  11.141   1.348   6.698
13707SOL    HW189960  11.142   1.445   6.725
13707SOL    HW289961  11.233   1.310   6.712
13708SOL     OW89962   9.662   6.159   7.369
13708SOL    HW189963   9.742   6.168   7.309
13708SOL    HW289964   9.633   6.063   7.371
13709SOL     OW89965   7.369   5.321   6.845
13709SOL    HW189966   7.438   5.258   6.809
13709SOL    HW289967   7.403   5.361   6.930
13710SOL     OW89968   4.551  15.300   7.235
13710SOL    HW189969   4.469  15.280   7.181
13710SOL    HW289970   4.524  15.329   7.327
13711SOL     OW89971   5.301   4.269   1.522
13711SOL    HW189972   5.227   4.269   1.590
13711SOL    HW289973   5.299   4.184   1.471
13712SOL     OW89974   5.260   7.221   6.967
13712SOL    HW189975   5.182   7.271   7.005
13712SOL    HW289976   5.269   7.242   6.869
13713SOL     OW89977   2.751  14.168   7.569
13713SOL    HW189978   2.754  14.144   7.472
13713SOL    HW289979   2.658  14.195   7.594
13714SOL     OW89980   4.964  11.605   2.425
13714SOL    HW189981   5.033  11.536   2.444
13714SOL    HW289982   4.967  11.676   2.496
13715SOL     OW89983   3.150   9.121   2.084
13715SOL    HW189984   3.173   9.181   2.161
13715SOL    HW289985   3.053   9.099   2.087
13716SOL     OW89986   2.433   4.600   7.606
13716SOL    HW189987   2.532   4.615   7.617
13716SOL    HW289988   2.383   4.669   7.658
13717SOL     OW89989  11.143   3.218   1.185
13717SOL    HW189990  11.205   3.153   1.229
13717SOL    HW289991  11.195   3.276   1.122
13718SOL     OW89992  13.779  10.300   2.547
13718SOL    HW189993  13.805  10.364   2.619
13718SOL    HW289994  13.685  10.270   2.561
13719SOL     OW89995  16.883  13.543   1.042
13719SOL    HW189996  16.978  13.533   1.071
13719SOL    HW289997  16.850  13.634   1.070
13720SOL     OW89998  15.927  10.970   0.703
13720SOL    HW189999  15.870  10.991   0.783
13720SOL    HW290000  15.923  11.046   0.638
13721SOL     OW90001   5.275   6.023   2.497
13721SOL    HW190002   5.292   6.095   2.563
13721SOL    HW290003   5.185   5.983   2.512
13722SOL     OW90004   2.739   6.843   2.249
13722SOL    HW190005   2.833   6.875   2.261
13722SOL    HW290006   2.722   6.766   2.311
13723SOL     OW90007  11.272  14.752   0.094
13723SOL    HW190008  11.321  14.783   0.012
13723SOL    HW290009  11.284  14.820   0.167
13724SOL     OW90010   6.921  14.216   0.489
13724SOL    HW190011   7.001  14.264   0.523
13724SOL    HW290012   6.892  14.147   0.556
13725SOL     OW90013   3.045  12.821   7.753
13725SOL    HW190014   3.072  12.910   7.717
13725SOL    HW290015   3.092  12.804   7.840
13726SOL     OW90016  12.979   6.617   0.416
13726SOL    HW190017  12.921   6.536   0.411
13726SOL    HW290018  12.925   6.695   0.448
13727SOL     OW90019  13.829   9.671   1.513
13727SOL    HW190020  13.858   9.766   1.529
13727SOL    HW290021  13.732   9.670   1.490
13728SOL     OW90022   5.954  10.711   1.917
13728SOL    HW190023   6.032  10.662   1.878
13728SOL    HW290024   5.963  10.716   2.016
13729SOL     OW90025  14.386  15.216   0.842
13729SOL    HW190026  14.294  15.255   0.840
13729SOL    HW290027  14.448  15.281   0.886
13730SOL     OW90028  16.439  12.996   8.172
13730SOL    HW190029  16.378  13.062   8.214
13730SOL    HW290030  16.522  13.043   8.141
13731SOL     OW90031  11.850   1.231   0.631
13731SOL    HW190032  11.934   1.245   0.579
13731SOL    HW290033  11.779   1.194   0.572
13732SOL     OW90034  13.535   2.944   5.445
13732SOL    HW190035  13.575   2.972   5.533
13732SOL    HW290036  13.534   3.023   5.383
13733SOL     OW90037   6.669  15.649   8.284
13733SOL    HW190038   6.587  15.599   8.313
13733SOL    HW290039   6.720  15.592   8.219
13734SOL     OW90040   7.289  14.485   7.885
13734SOL    HW190041   7.245  14.457   7.970
13734SOL    HW290042   7.265  14.579   7.864
13735SOL     OW90043  12.034   7.980   8.127
13735SOL    HW190044  12.043   7.910   8.198
13735SOL    HW290045  11.974   8.053   8.160
13736SOL     OW90046  15.078  10.084   1.418
13736SOL    HW190047  15.099   9.990   1.447
13736SOL    HW290048  15.116  10.148   1.484
13737SOL     OW90049   5.186  13.956   1.673
13737SOL    HW190050   5.185  13.862   1.707
13737SOL    HW290051   5.155  14.018   1.745
13738SOL     OW90052   9.245  13.568   2.149
13738SOL    HW190053   9.332  13.595   2.190
13738SOL    HW290054   9.178  13.550   2.222
13739SOL     OW90055   6.612   2.723   6.924
13739SOL    HW190056   6.559   2.705   7.007
13739SOL    HW290057   6.604   2.819   6.899
13740SOL     OW90058  12.338   9.567   8.182
13740SOL    HW190059  12.360   9.474   8.151
13740SOL    HW290060  12.403   9.595   8.252
13741SOL     OW90061   4.575  12.174   6.948
13741SOL    HW190062   4.581  12.083   6.990
13741SOL    HW290063   4.479  12.199   6.937
13742SOL     OW90064   3.933   1.174   8.346
13742SOL    HW190065   4.007   1.192   8.281
13742SOL    HW290066   3.851   1.224   8.318
13743SOL     OW90067   0.815  11.398   0.088
13743SOL    HW190068   0.896  11.400   0.029
13743SOL    HW290069   0.759  11.319   0.064
13744SOL     OW90070  12.075  13.802   7.848
13744SOL    HW190071  12.162  13.763   7.877
13744SOL    HW290072  12.016  13.818   7.928
13745SOL     OW90073  10.420   1.692   0.393
13745SOL    HW190074  10.344   1.757   0.402
13745SOL    HW290075  10.385   1.605   0.357
13746SOL     OW90076   0.376   8.493   0.514
13746SOL    HW190077   0.429   8.537   0.587
13746SOL    HW290078   0.436   8.477   0.435
13747SOL     OW90079  15.565   4.246   1.299
13747SOL    HW190080  15.634   4.288   1.358
13747SOL    HW290081  15.482   4.303   1.301
13748SOL     OW90082   6.987   2.128   6.338
13748SOL    HW190083   6.914   2.059   6.340
13748SOL    HW290084   7.013   2.146   6.243
13749SOL     OW90085  13.225   1.043   1.068
13749SOL    HW190086  13.229   1.024   1.166
13749SOL    HW290087  13.282   0.977   1.019
13750SOL     OW90088  12.498  12.244   6.032
13750SOL    HW190089  12.449  12.304   6.096
13750SOL    HW290090  12.440  12.223   5.954
13751SOL     OW90091   1.797   4.508   6.899
13751SOL    HW190092   1.698   4.519   6.911
13751SOL    HW290093   1.844   4.537   6.982
13752SOL     OW90094   4.314   1.519   1.883
13752SOL    HW190095   4.322   1.514   1.983
13752SOL    HW290096   4.403   1.505   1.842
13753SOL     OW90097  15.454  12.376   6.829
13753SOL    HW190098  15.486  12.314   6.900
13753SOL    HW290099  15.387  12.328   6.771
13754SOL     OW90100   5.087  10.597   0.774
13754SOL    HW190101   5.151  10.613   0.849
13754SOL    HW290102   5.028  10.677   0.763
13755SOL     OW90103  13.796  10.344   6.505
13755SOL    HW190104  13.851  10.408   6.452
13755SOL    HW290105  13.743  10.286   6.443
13756SOL     OW90106   8.897   3.873   1.055
13756SOL    HW190107   8.956   3.797   1.028
13756SOL    HW290108   8.887   3.936   0.977
13757SOL     OW90109  15.967  15.586   8.275
13757SOL    HW190110  15.918  15.540   8.350
13757SOL    HW290111  15.910  15.583   8.193
13758SOL     OW90112   8.993  12.120   2.021
13758SOL    HW190113   8.950  12.136   2.109
13758SOL    HW290114   9.092  12.113   2.032
13759SOL     OW90115   4.725   8.324   6.968
13759SOL    HW190116   4.810   8.377   6.964
13759SOL    HW290117   4.664   8.364   7.036
13760SOL     OW90118   1.915   5.812   0.662
13760SOL    HW190119   1.981   5.764   0.605
13760SOL    HW290120   1.840   5.750   0.686
13761SOL     OW90121  15.404  11.255   7.667
13761SOL    HW190122  15.442  11.167   7.635
13761SOL    HW290123  15.444  11.329   7.612
13762SOL     OW90124   7.145  10.677   1.485
13762SOL    HW190125   7.149  10.764   1.435
13762SOL    HW290126   7.155  10.601   1.420
13763SOL     OW90127   4.706   1.160   0.644
13763SOL    HW190128   4.756   1.080   0.675
13763SOL    HW290129   4.710   1.166   0.544
13764SOL     OW90130  10.012   3.475   7.114
13764SOL    HW190131   9.943   3.480   7.042
13764SOL    HW290132   9.971   3.437   7.197
13765SOL     OW90133  14.258  16.578   6.992
13765SOL    HW190134  14.229  16.491   6.951
13765SOL    HW290135  14.223  16.654   6.937
13766SOL     OW90136   5.048   4.091   0.991
13766SOL    HW190137   4.982   4.057   1.057
13766SOL    HW290138   5.013   4.174   0.948
13767SOL     OW90139   9.410   6.541   1.674
13767SOL    HW190140   9.317   6.553   1.640
13767SOL    HW290141   9.451   6.631   1.691
13768SOL     OW90142   8.642   3.595   7.301
13768SOL    HW190143   8.600   3.561   7.385
13768SOL    HW290144   8.737   3.567   7.297
13769SOL     OW90145  14.679   4.048   6.039
13769SOL    HW190146  14.682   4.107   5.958
13769SOL    HW290147  14.742   3.971   6.026
13770SOL     OW90148   8.251   2.786   0.392
13770SOL    HW190149   8.304   2.702   0.377
13770SOL    HW290150   8.303   2.848   0.450
13771SOL     OW90151   6.444   4.242   6.349
13771SOL    HW190152   6.424   4.250   6.447
13771SOL    HW290153   6.464   4.333   6.312
13772SOL     OW90154   3.529  11.191   1.967
13772SOL    HW190155   3.593  11.252   2.013
13772SOL    HW290156   3.481  11.136   2.034
13773SOL     OW90157  13.909  12.869   7.686
13773SOL    HW190158  13.915  12.967   7.704
13773SOL    HW290159  13.867  12.853   7.596
13774SOL     OW90160  10.234  12.337   1.016
13774SOL    HW190161  10.228  12.299   0.923
13774SOL    HW290162  10.224  12.436   1.011
13775SOL     OW90163   8.182   0.518   6.677
13775SOL    HW190164   8.276   0.534   6.649
13775SOL    HW290165   8.128   0.602   6.663
13776SOL     OW90166  15.823  15.263   2.129
13776SOL    HW190167  15.730  15.288   2.153
13776SOL    HW290168  15.864  15.210   2.203
13777SOL     OW90169   0.465  14.278   1.490
13777SOL    HW190170   0.505  14.296   1.399
13777SOL    HW290171   0.394  14.346   1.508
13778SOL     OW90172   9.528  15.391   6.936
13778SOL    HW190173   9.439  15.345   6.941
13778SOL    HW290174   9.598  15.325   6.911
13779SOL     OW90175  12.326   6.189   7.032
13779SOL    HW190176  12.414   6.168   6.989
13779SOL    HW290177  12.340   6.213   7.128
13780SOL     OW90178   2.935  15.538   6.764
13780SOL    HW190179   3.021  15.487   6.762
13780SOL    HW290180   2.939  15.613   6.699
13781SOL     OW90181   1.194  16.407   1.041
13781SOL    HW190182   1.118  16.362   1.088
13781SOL    HW290183   1.214  16.358   0.956
13782SOL     OW90184  15.328  12.462   0.851
13782SOL    HW190185  15.230  12.447   0.865
13782SOL    HW290186  15.379  12.391   0.900
13783SOL     OW90187   8.628   5.727   1.278
13783SOL    HW190188   8.573   5.647   1.298
13783SOL    HW290189   8.707   5.700   1.223
13784SOL     OW90190   1.005  11.982   8.254
13784SOL    HW190191   1.058  11.911   8.209
13784SOL    HW290192   0.934  11.940   8.311
13785SOL     OW90193   6.395  15.900   8.051
13785SOL    HW190194   6.318  15.953   8.014
13785SOL    HW290195   6.476  15.959   8.057
13786SOL     OW90196   5.290   5.902   1.757
13786SOL    HW190197   5.338   5.989   1.772
13786SOL    HW290198   5.198   5.907   1.796
13787SOL     OW90199  14.827   5.029   1.277
13787SOL    HW190200  14.748   4.970   1.292
13787SOL    HW290201  14.873   5.003   1.192
13788SOL     OW90202  14.302   8.128   7.332
13788SOL    HW190203  14.292   8.224   7.357
13788SOL    HW290204  14.218   8.078   7.353
13789SOL     OW90205   9.043  13.622   7.308
13789SOL    HW190206   8.997  13.547   7.260
13789SOL    HW290207   8.981  13.699   7.316
13790SOL     OW90208   5.406   0.003   7.621
13790SOL    HW190209   5.402   0.099   7.592
13790SOL    HW290210   5.314  16.951   7.631
13791SOL     OW90211  12.417  12.283   0.962
13791SOL    HW190212  12.389  12.230   1.042
13791SOL    HW290213  12.507  12.324   0.978
13792SOL     OW90214  15.258  10.832   6.910
13792SOL    HW190215  15.254  10.797   6.816
13792SOL    HW290216  15.238  10.930   6.909
13793SOL     OW90217   3.487  12.893   1.383
13793SOL    HW190218   3.538  12.940   1.311
13793SOL    HW290219   3.524  12.918   1.472
13794SOL     OW90220   5.277   7.371   7.618
13794SOL    HW190221   5.285   7.449   7.681
13794SOL    HW290222   5.279   7.404   7.524
13795SOL     OW90223   8.581   5.395   0.098
13795SOL    HW190224   8.586   5.446   0.012
13795SOL    HW290225   8.656   5.330   0.102
13796SOL     OW90226   7.570   8.462   1.580
13796SOL    HW190227   7.554   8.530   1.651
13796SOL    HW290228   7.517   8.486   1.498
13797SOL     OW90229   0.430   9.304   1.062
13797SOL    HW190230   0.356   9.252   1.018
13797SOL    HW290231   0.392   9.360   1.136
13798SOL     OW90232   1.692  13.877   0.475
13798SOL    HW190233   1.701  13.796   0.533
13798SOL    HW290234   1.665  13.850   0.383
13799SOL     OW90235   2.817  15.813   6.883
13799SOL    HW190236   2.738  15.751   6.883
13799SOL    HW290237   2.862  15.809   6.794
13800SOL     OW90238   8.622   0.053   1.966
13800SOL    HW190239   8.542   0.105   1.995
13800SOL    HW290240   8.619   0.040   1.867
13801SOL     OW90241  11.758  16.894   0.183
13801SOL    HW190242  11.802  16.895   0.093
13801SOL    HW290243  11.826  16.912   0.254
13802SOL     OW90244   6.461   7.029   0.934
13802SOL    HW190245   6.365   7.038   0.909
13802SOL    HW290246   6.475   6.941   0.981
13803SOL     OW90247   4.030  16.974   6.833
13803SOL    HW190248   3.966  16.975   6.910
13803SOL    HW290249   3.979  16.965   6.748
13804SOL     OW90250   9.241  12.011   8.278
13804SOL    HW190251   9.340  12.018   8.275
13804SOL    HW290252   9.214  11.915   8.279
13805SOL     OW90253   0.725   4.475   5.923
13805SOL    HW190254   0.728   4.573   5.941
13805SOL    HW290255   0.702   4.459   5.827
13806SOL     OW90256   0.966   5.515   8.446
13806SOL    HW190257   0.987   5.483   8.354
13806SOL    HW290258   0.885   5.469   0.027
13807SOL     OW90259  14.529  16.544   1.088
13807SOL    HW190260  14.590  16.567   1.163
13807SOL    HW290261  14.437  16.529   1.123
13808SOL     OW90262   8.700   5.809   1.533
13808SOL    HW190263   8.640   5.753   1.590
13808SOL    HW290264   8.683   5.788   1.436
13809SOL     OW90265  11.863  12.656   1.337
13809SOL    HW190266  11.804  12.729   1.370
13809SOL    HW290267  11.816  12.606   1.264
13810SOL     OW90268   0.683   4.497   0.521
13810SOL    HW190269   0.719   4.562   0.589
13810SOL    HW290270   0.630   4.427   0.568
13811SOL     OW90271  15.687   6.040   7.717
13811SOL    HW190272  15.617   6.105   7.749
13811SOL    HW290273  15.713   5.980   7.793
13812SOL     OW90274   7.109  11.498   8.176
13812SOL    HW190275   7.204  11.514   8.149
13812SOL    HW290276   7.082  11.566   8.245
13813SOL     OW90277  14.414   1.301   6.984
13813SOL    HW190278  14.412   1.209   7.022
13813SOL    HW290279  14.330   1.349   7.008
13814SOL     OW90280  15.195  12.105   0.090
13814SOL    HW190281  15.271  12.040   0.097
13814SOL    HW290282  15.108  12.056   0.091
13815SOL     OW90283  15.657  14.367   0.258
13815SOL    HW190284  15.754  14.392   0.251
13815SOL    HW290285  15.648  14.268   0.266
13816SOL     OW90286   0.065   1.456   8.395
13816SOL    HW190287   0.028   1.419   8.310
13816SOL    HW290288   0.020   1.412   0.019
13817SOL     OW90289   8.414   4.822   7.625
13817SOL    HW190290   8.411   4.749   7.557
13817SOL    HW290291   8.481   4.800   7.695
13818SOL     OW90292   9.609  16.102   0.016
13818SOL    HW190293   9.618  16.030   8.401
13818SOL    HW290294   9.513  16.129   0.023
13819SOL     OW90295   7.664   5.170   2.037
13819SOL    HW190296   7.570   5.148   2.065
13819SOL    HW290297   7.695   5.250   2.088
13820SOL     OW90298  11.499  12.817   0.441
13820SOL    HW190299  11.445  12.901   0.442
13820SOL    HW290300  11.539  12.802   0.532
13821SOL     OW90301  11.236  11.190   6.519
13821SOL    HW190302  11.165  11.125   6.492
13821SOL    HW290303  11.250  11.256   6.444
13822SOL     OW90304   3.519  11.197   0.102
13822SOL    HW190305   3.587  11.223   0.170
13822SOL    HW290306   3.564  11.164   0.020
13823SOL     OW90307  12.054  12.861   7.054
13823SOL    HW190308  12.015  12.953   7.062
13823SOL    HW290309  12.033  12.809   7.137
13824SOL     OW90310   5.123  12.558   6.072
13824SOL    HW190311   5.086  12.466   6.064
13824SOL    HW290312   5.053  12.620   6.107
13825SOL     OW90313  15.887  13.202   6.524
13825SOL    HW190314  15.847  13.137   6.459
13825SOL    HW290315  15.963  13.251   6.481
13826SOL     OW90316  15.458  10.253   0.319
13826SOL    HW190317  15.399  10.246   0.399
13826SOL    HW290318  15.471  10.162   0.279
13827SOL     OW90319   3.082  14.324   6.566
13827SOL    HW190320   3.148  14.253   6.539
13827SOL    HW290321   2.994  14.305   6.525
13828SOL     OW90322   7.036   2.529   1.348
13828SOL    HW190323   7.048   2.449   1.289
13828SOL    HW290324   6.952   2.519   1.401
13829SOL     OW90325   8.392  16.729   1.403
13829SOL    HW190326   8.408  16.661   1.475
13829SOL    HW290327   8.471  16.790   1.398
13830SOL     OW90328   5.896  15.254   1.138
13830SOL    HW190329   5.940  15.203   1.212
13830SOL    HW290330   5.953  15.250   1.057
13831SOL     OW90331  13.641  11.827   2.138
13831SOL    HW190332  13.585  11.747   2.118
13831SOL    HW290333  13.645  11.842   2.237
13832SOL     OW90334  13.938   6.746   0.349
13832SOL    HW190335  13.990   6.660   0.343
13832SOL    HW290336  13.866   6.736   0.418
13833SOL     OW90337  16.638  15.064   8.260
13833SOL    HW190338  16.674  15.152   8.227
13833SOL    HW290339  16.578  15.080   8.339
13834SOL     OW90340  12.235  10.867   2.280
13834SOL    HW190341  12.139  10.838   2.274
13834SOL    HW290342  12.276  10.828   2.363
13835SOL     OW90343  10.453   5.238   7.702
13835SOL    HW190344  10.362   5.265   7.672
13835SOL    HW290345  10.471   5.144   7.673
13836SOL     OW90346  16.685   4.009   6.635
13836SOL    HW190347  16.726   4.082   6.580
13836SOL    HW290348  16.594   4.038   6.665
13837SOL     OW90349   3.035   0.117   7.888
13837SOL    HW190350   2.952   0.163   7.918
13837SOL    HW290351   3.066   0.156   7.801
13838SOL     OW90352   3.748   3.265   7.059
13838SOL    HW190353   3.821   3.239   6.996
13838SOL    HW290354   3.788   3.300   7.143
13839SOL     OW90355   6.330   0.810   0.513
13839SOL    HW190356   6.266   0.740   0.542
13839SOL    HW290357   6.306   0.897   0.557
13840SOL     OW90358  14.701   5.587   7.461
13840SOL    HW190359  14.671   5.502   7.503
13840SOL    HW290360  14.797   5.579   7.435
13841SOL     OW90361  10.458   5.536   6.939
13841SOL    HW190362  10.483   5.630   6.917
13841SOL    HW290363  10.419   5.533   7.031
13842SOL     OW90364   7.604   8.364   0.465
13842SOL    HW190365   7.600   8.426   0.387
13842SOL    HW290366   7.516   8.363   0.512
13843SOL     OW90367   5.672   7.639   0.743
13843SOL    HW190368   5.587   7.680   0.775
13843SOL    HW290369   5.651   7.562   0.682
13844SOL     OW90370   7.703  10.776   0.180
13844SOL    HW190371   7.651  10.860   0.165
13844SOL    HW290372   7.756  10.755   0.098
13845SOL     OW90373  13.540   6.659   0.847
13845SOL    HW190374  13.454   6.701   0.817
13845SOL    HW290375  13.568   6.590   0.780
13846SOL     OW90376   6.211   4.628   1.801
13846SOL    HW190377   6.282   4.671   1.857
13846SOL    HW290378   6.203   4.531   1.827
13847SOL     OW90379   8.184  14.335   0.502
13847SOL    HW190380   8.132  14.262   0.457
13847SOL    HW290381   8.130  14.419   0.504
13848SOL     OW90382  13.702   0.103   6.372
13848SOL    HW190383  13.722   0.009   6.400
13848SOL    HW290384  13.604   0.112   6.352
13849SOL     OW90385   5.003  10.311   8.398
13849SOL    HW190386   5.074  10.332   8.331
13849SOL    HW290387   5.043  10.261   0.021
13850SOL     OW90388  15.670  15.395   1.722
13850SOL    HW190389  15.654  15.344   1.638
13850SOL    HW290390  15.746  15.354   1.772
13851SOL     OW90391  11.030   7.533   6.100
13851SOL    HW190392  11.042   7.612   6.040
13851SOL    HW290393  11.005   7.453   6.045
13852SOL     OW90394   1.331   4.764   0.949
13852SOL    HW190395   1.383   4.776   0.864
13852SOL    HW290396   1.306   4.667   0.959
13853SOL     OW90397   2.926  16.908   0.786
13853SOL    HW190398   3.013  16.916   0.738
13853SOL    HW290399   2.942  16.869   0.877
13854SOL     OW90400   1.526  13.213   8.246
13854SOL    HW190401   1.595  13.224   8.174
13854SOL    HW290402   1.566  13.235   8.334
13855SOL     OW90403  15.639   5.733   1.217
13855SOL    HW190404  15.696   5.785   1.154
13855SOL    HW290405  15.552   5.782   1.231
13856SOL     OW90406  14.780   1.447   7.901
13856SOL    HW190407  14.768   1.510   7.977
13856SOL    HW290408  14.736   1.484   7.819
13857SOL     OW90409   6.602  12.621   0.649
13857SOL    HW190410   6.556  12.642   0.563
13857SOL    HW290411   6.561  12.539   0.690
13858SOL     OW90412  13.606  13.947   1.992
13858SOL    HW190413  13.655  13.894   1.923
13858SOL    HW290414  13.589  13.888   2.072
13859SOL     OW90415   5.870  14.695   2.645
13859SOL    HW190416   5.940  14.761   2.670
13859SOL    HW290417   5.806  14.737   2.581
13860SOL     OW90418  10.818   7.104   0.883
13860SOL    HW190419  10.721   7.125   0.872
13860SOL    HW290420  10.869   7.137   0.804
13861SOL     OW90421  11.225   1.697   1.317
13861SOL    HW190422  11.242   1.654   1.228
13861SOL    HW290423  11.311   1.732   1.354
13862SOL     OW90424   7.808   0.507   1.221
13862SOL    HW190425   7.790   0.553   1.134
13862SOL    HW290426   7.723   0.471   1.259
13863SOL     OW90427  13.636  16.699   7.646
13863SOL    HW190428  13.641  16.770   7.576
13863SOL    HW290429  13.546  16.702   7.690
13864SOL     OW90430  16.753  10.293   0.401
13864SOL    HW190431  16.768  10.391   0.394
13864SOL    HW290432  16.747  10.254   0.309
13865SOL     OW90433  15.785   4.333   1.450
13865SOL    HW190434  15.861   4.272   1.471
13865SOL    HW290435  15.817   4.408   1.392
13866SOL     OW90436   7.278   3.520   0.571
13866SOL    HW190437   7.334   3.532   0.653
13866SOL    HW290438   7.219   3.440   0.582
13867SOL     OW90439   5.413   9.909   7.644
13867SOL    HW190440   5.458   9.986   7.598
13867SOL    HW290441   5.349   9.865   7.580
13868SOL     OW90442   7.144  16.910   0.961
13868SOL    HW190443   7.181  16.867   0.880
13868SOL    HW290444   7.136  16.842   1.035
13869SOL     OW90445   8.363   3.714   6.228
13869SOL    HW190446   8.275   3.761   6.218
13869SOL    HW290447   8.425   3.745   6.157
13870SOL     OW90448  15.380  14.035   1.141
13870SOL    HW190449  15.396  14.035   1.042
13870SOL    HW290450  15.291  14.076   1.160
13871SOL     OW90451   5.545   6.424   0.642
13871SOL    HW190452   5.607   6.496   0.615
13871SOL    HW290453   5.588   6.335   0.626
13872SOL     OW90454   5.008   7.573   7.770
13872SOL    HW190455   4.960   7.498   7.723
13872SOL    HW290456   4.992   7.659   7.722
13873SOL     OW90457  15.021   4.396   0.691
13873SOL    HW190458  15.074   4.444   0.622
13873SOL    HW290459  14.986   4.461   0.758
13874SOL     OW90460   2.503   0.235   1.173
13874SOL    HW190461   2.588   0.229   1.225
13874SOL    HW290462   2.517   0.293   1.092
13875SOL     OW90463   5.567   6.300   1.912
13875SOL    HW190464   5.663   6.314   1.888
13875SOL    HW290465   5.561   6.279   2.010
13876SOL     OW90466   6.957   4.336   5.848
13876SOL    HW190467   6.933   4.433   5.837
13876SOL    HW290468   7.055   4.325   5.837
13877SOL     OW90469   5.987   6.478   8.093
13877SOL    HW190470   5.921   6.523   8.034
13877SOL    HW290471   6.051   6.424   8.038
13878SOL     OW90472   0.700  12.249   2.221
13878SOL    HW190473   0.603  12.227   2.224
13878SOL    HW290474   0.729  12.282   2.311
13879SOL     OW90475   1.151   2.132   0.447
13879SOL    HW190476   1.149   2.163   0.352
13879SOL    HW290477   1.216   2.188   0.498
13880SOL     OW90478  12.844   2.274   0.468
13880SOL    HW190479  12.800   2.330   0.538
13880SOL    HW290480  12.818   2.178   0.481
13881SOL     OW90481   1.368  11.330   0.443
13881SOL    HW190482   1.452  11.382   0.426
13881SOL    HW290483   1.389  11.249   0.497
13882SOL     OW90484   3.213   6.335   7.253
13882SOL    HW190485   3.293   6.375   7.296
13882SOL    HW290486   3.130   6.368   7.298
13883SOL     OW90487  15.083   7.379   6.451
13883SOL    HW190488  15.020   7.440   6.500
13883SOL    HW290489  15.031   7.307   6.407
13884SOL     OW90490  12.462   9.711   7.983
13884SOL    HW190491  12.547   9.666   7.958
13884SOL    HW290492  12.420   9.663   8.061
13885SOL     OW90493  10.471  14.922   2.036
13885SOL    HW190494  10.503  14.975   2.115
13885SOL    HW290495  10.490  14.825   2.052
13886SOL     OW90496   4.566   3.521   0.033
13886SOL    HW190497   4.510   3.604   0.022
13886SOL    HW290498   4.642   3.524   8.422
13887SOL     OW90499   0.895   9.201   0.442
13887SOL    HW190500   0.907   9.179   0.345
13887SOL    HW290501   0.977   9.175   0.492
13888SOL     OW90502   1.146   0.390   7.238
13888SOL    HW190503   1.120   0.310   7.183
13888SOL    HW290504   1.144   0.472   7.181
13889SOL     OW90505  15.844  11.969   7.995
13889SOL    HW190506  15.864  11.873   7.978
13889SOL    HW290507  15.889  12.026   7.926
13890SOL     OW90508  14.240   3.931   7.267
13890SOL    HW190509  14.256   4.011   7.325
13890SOL    HW290510  14.156   3.945   7.214
13891SOL     OW90511  15.795  15.570   6.678
13891SOL    HW190512  15.827  15.486   6.636
13891SOL    HW290513  15.809  15.566   6.777
13892SOL     OW90514   6.057   9.674   1.545
13892SOL    HW190515   6.073   9.665   1.447
13892SOL    HW290516   6.102   9.598   1.593
13893SOL     OW90517   8.921   6.874   6.912
13893SOL    HW190518   8.915   6.783   6.871
13893SOL    HW290519   8.926   6.943   6.840
13894SOL     OW90520   4.687   9.155   6.895
13894SOL    HW190521   4.743   9.161   6.812
13894SOL    HW290522   4.591   9.159   6.870
13895SOL     OW90523  13.523   5.345   7.986
13895SOL    HW190524  13.540   5.383   7.895
13895SOL    HW290525  13.425   5.347   8.005
13896SOL     OW90526   9.394   9.854   6.194
13896SOL    HW190527   9.299   9.865   6.162
13896SOL    HW290528   9.448   9.811   6.122
13897SOL     OW90529  12.089   3.953   6.649
13897SOL    HW190530  12.181   3.925   6.678
13897SOL    HW290531  12.029   3.955   6.729
13898SOL     OW90532   5.552   7.166   8.301
13898SOL    HW190533   5.645   7.132   8.311
13898SOL    HW290534   5.492   7.092   8.270
13899SOL     OW90535  12.234  16.017   6.303
13899SOL    HW190536  12.314  16.059   6.346
13899SOL    HW290537  12.247  16.016   6.204
13900SOL     OW90538   7.029  15.378   1.039
13900SOL    HW190539   6.971  15.324   0.977
13900SOL    HW290540   7.004  15.358   1.133
13901SOL     OW90541   1.930   9.118   0.015
13901SOL    HW190542   1.988   9.074   8.400
13901SOL    HW290543   1.846   9.150   8.425
13902SOL     OW90544   7.279   2.992   7.280
13902SOL    HW190545   7.312   3.036   7.197
13902SOL    HW290546   7.336   3.020   7.358
13903SOL     OW90547  16.619   7.242   0.154
13903SOL    HW190548  16.614   7.145   0.177
13903SOL    HW290549  16.550   7.264   0.086
13904SOL     OW90550   8.928  12.959   7.156
13904SOL    HW190551   8.952  13.056   7.154
13904SOL    HW290552   8.889  12.936   7.246
13905SOL     OW90553   7.907  13.400   7.101
13905SOL    HW190554   7.952  13.444   7.024
13905SOL    HW290555   7.915  13.300   7.092
13906SOL     OW90556   0.380   2.469   8.395
13906SOL    HW190557   0.392   2.537   0.014
13906SOL    HW290558   0.288   2.478   8.357
13907SOL     OW90559   1.670   4.596   8.278
13907SOL    HW190560   1.576   4.562   8.267
13907SOL    HW290561   1.693   4.655   8.200
13908SOL     OW90562   7.202   0.417   0.653
13908SOL    HW190563   7.167   0.393   0.744
13908SOL    HW290564   7.230   0.334   0.605
13909SOL     OW90565   5.915   7.360   6.927
13909SOL    HW190566   5.994   7.377   6.869
13909SOL    HW290567   5.915   7.424   7.004
13910SOL     OW90568   2.935   4.346   8.420
13910SOL    HW190569   2.844   4.321   8.388
13910SOL    HW290570   2.940   4.335   0.066
13911SOL     OW90571   1.407   7.483   1.056
13911SOL    HW190572   1.316   7.516   1.081
13911SOL    HW290573   1.465   7.560   1.031
13912SOL     OW90574   2.978   0.193   1.470
13912SOL    HW190575   2.964   0.292   1.476
13912SOL    HW290576   2.894   0.146   1.497
13913SOL     OW90577   0.689   6.318   7.229
13913SOL    HW190578   0.715   6.332   7.324
13913SOL    HW290579   0.705   6.222   7.204
13914SOL     OW90580  15.342  10.757   6.401
13914SOL    HW190581  15.413  10.732   6.335
13914SOL    HW290582  15.253  10.753   6.356
13915SOL     OW90583   1.854   0.651   6.900
13915SOL    HW190584   1.931   0.655   6.837
13915SOL    HW290585   1.884   0.617   6.989
13916SOL     OW90586   4.074   5.108   1.158
13916SOL    HW190587   4.002   5.178   1.159
13916SOL    HW290588   4.163   5.152   1.170
13917SOL     OW90589   0.932  15.671   0.899
13917SOL    HW190590   0.838  15.649   0.925
13917SOL    HW290591   0.993  15.599   0.933
13918SOL     OW90592   9.121   9.331   0.983
13918SOL    HW190593   9.057   9.255   0.995
13918SOL    HW290594   9.148   9.336   0.887
13919SOL     OW90595  13.051   8.737   6.189
13919SOL    HW190596  13.032   8.663   6.253
13919SOL    HW290597  12.967   8.786   6.168
13920SOL     OW90598  12.317   4.934   7.171
13920SOL    HW190599  12.385   4.974   7.110
13920SOL    HW290600  12.312   4.836   7.156
13921SOL     OW90601   3.998   3.059   1.686
13921SOL    HW190602   4.086   3.100   1.663
13921SOL    HW290603   3.971   3.089   1.778
13922SOL     OW90604  16.224   3.211   0.363
13922SOL    HW190605  16.208   3.221   0.265
13922SOL    HW290606  16.268   3.123   0.381
13923SOL     OW90607   3.932   2.897   0.355
13923SOL    HW190608   3.894   2.839   0.283
13923SOL    HW290609   4.011   2.947   0.319
13924SOL     OW90610   0.752   0.582   6.808
13924SOL    HW190611   0.725   0.508   6.746
13924SOL    HW290612   0.768   0.665   6.754
13925SOL     OW90613  12.743  16.059   7.097
13925SOL    HW190614  12.820  16.073   7.158
13925SOL    HW290615  12.742  16.131   7.027
13926SOL     OW90616   7.713  10.665   1.961
13926SOL    HW190617   7.754  10.734   1.902
13926SOL    HW290618   7.784  10.625   2.020
13927SOL     OW90619   6.611   1.949   1.854
13927SOL    HW190620   6.560   2.019   1.804
13927SOL    HW290621   6.670   1.994   1.922
13928SOL     OW90622  15.545  16.836   0.616
13928SOL    HW190623  15.622  16.879   0.662
13928SOL    HW290624  15.460  16.883   0.641
13929SOL     OW90625   8.728  15.532   0.793
13929SOL    HW190626   8.743  15.479   0.877
13929SOL    HW290627   8.791  15.500   0.722
13930SOL     OW90628   5.195   1.724   1.677
13930SOL    HW190629   5.096   1.737   1.684
13930SOL    HW290630   5.235   1.799   1.624
13931SOL     OW90631   0.929   5.371   1.914
13931SOL    HW190632   0.961   5.279   1.935
13931SOL    HW290633   0.904   5.418   1.999
13932SOL     OW90634  16.526   5.375   7.069
13932SOL    HW190635  16.491   5.292   7.028
13932SOL    HW290636  16.619   5.393   7.035
13933SOL     OW90637  16.009  11.238   6.325
13933SOL    HW190638  16.087  11.177   6.314
13933SOL    HW290639  15.997  11.293   6.243
13934SOL     OW90640  13.245   5.386   8.049
13934SOL    HW190641  13.182   5.389   8.127
13934SOL    HW290642  13.193   5.394   7.964
13935SOL     OW90643   3.074   1.106   7.851
13935SOL    HW190644   3.104   1.030   7.793
13935SOL    HW290645   2.976   1.118   7.842
13936SOL     OW90646   2.278   6.433   7.171
13936SOL    HW190647   2.375   6.451   7.152
13936SOL    HW290648   2.251   6.482   7.253
13937SOL     OW90649   7.067   1.695   1.606
13937SOL    HW190650   7.058   1.762   1.680
13937SOL    HW290651   7.028   1.733   1.522
13938SOL     OW90652  16.748  15.479   7.644
13938SOL    HW190653  16.784  15.496   7.552
13938SOL    HW290654  16.753  15.563   7.698
13939SOL     OW90655  15.913   9.136   1.480
13939SOL    HW190656  15.972   9.073   1.529
13939SOL    HW290657  15.824   9.140   1.525
13940SOL     OW90658   8.358  15.798   0.057
13940SOL    HW190659   8.318  15.803   0.148
13940SOL    HW290660   8.353  15.704   0.024
13941SOL     OW90661   2.670   1.874   0.805
13941SOL    HW190662   2.663   1.843   0.711
13941SOL    HW290663   2.629   1.806   0.866
13942SOL     OW90664   0.328  10.142   7.511
13942SOL    HW190665   0.415  10.183   7.484
13942SOL    HW290666   0.332  10.043   7.497
13943SOL     OW90667  15.892  16.100   6.321
13943SOL    HW190668  15.893  16.004   6.292
13943SOL    HW290669  15.858  16.157   6.246
13944SOL     OW90670   6.283   8.139   0.317
13944SOL    HW190671   6.267   8.055   0.265
13944SOL    HW290672   6.334   8.204   0.261
13945SOL     OW90673  12.333   8.553   0.073
13945SOL    HW190674  12.406   8.548   0.142
13945SOL    HW290675  12.255   8.602   0.111
13946SOL     OW90676   0.326   0.063   2.265
13946SOL    HW190677   0.292   0.148   2.304
13946SOL    HW290678   0.425   0.059   2.276
13947SOL     OW90679   8.110  16.800   8.052
13947SOL    HW190680   8.083  16.836   7.963
13947SOL    HW290681   8.031  16.758   8.096
13948SOL     OW90682  16.116  13.527   7.438
13948SOL    HW190683  16.073  13.464   7.373
13948SOL    HW290684  16.199  13.565   7.397
13949SOL     OW90685  14.794   9.990   0.764
13949SOL    HW190686  14.758   9.965   0.854
13949SOL    HW290687  14.720   9.994   0.698
13950SOL     OW90688   4.446   6.731   6.988
13950SOL    HW190689   4.470   6.756   7.082
13950SOL    HW290690   4.515   6.667   6.953
13951SOL     OW90691   2.660  10.447   1.705
13951SOL    HW190692   2.721  10.412   1.776
13951SOL    HW290693   2.713  10.465   1.622
13952SOL     OW90694  11.853  16.815   6.118
13952SOL    HW190695  11.860  16.884   6.047
13952SOL    HW290696  11.815  16.731   6.079
13953SOL     OW90697  16.101   7.691   0.042
13953SOL    HW190698  16.190   7.654   0.069
13953SOL    HW290699  16.102   7.716   8.400
13954SOL     OW90700  14.353  14.748   1.091
13954SOL    HW190701  14.396  14.812   1.026
13954SOL    HW290702  14.341  14.794   1.179
13955SOL     OW90703   1.943   9.108   7.897
13955SOL    HW190704   1.871   9.102   7.828
13955SOL    HW290705   1.974   9.203   7.904
13956SOL     OW90706  15.598   0.282   0.335
13956SOL    HW190707  15.561   0.242   0.420
13956SOL    HW290708  15.624   0.377   0.352
13957SOL     OW90709  16.980   5.969   0.391
13957SOL    HW190710   0.050   5.950   0.309
13957SOL    HW290711   0.057   6.007   0.462
13958SOL     OW90712  15.749  10.377   1.063
13958SOL    HW190713  15.715  10.391   1.156
13958SOL    HW290714  15.833  10.325   1.066
13959SOL     OW90715   2.815  10.819   0.437
13959SOL    HW190716   2.914  10.832   0.439
13959SOL    HW290717   2.771  10.896   0.391
13960SOL     OW90718  16.441   7.277   1.560
13960SOL    HW190719  16.402   7.360   1.521
13960SOL    HW290720  16.419   7.272   1.657
13961SOL     OW90721  16.891   7.952   0.389
13961SOL    HW190722  16.976   7.999   0.412
13961SOL    HW290723  16.822   7.974   0.458
13962SOL     OW90724   7.288   7.844   0.061
13962SOL    HW190725   7.328   7.799   0.141
13962SOL    HW290726   7.205   7.795   0.033
13963SOL     OW90727  15.389   0.557   8.405
13963SOL    HW190728  15.353   0.625   8.342
13963SOL    HW290729  15.314   0.504   8.444
13964SOL     OW90730   7.903  15.454   7.266
13964SOL    HW190731   7.832  15.422   7.203
13964SOL    HW290732   7.904  15.397   7.348
13965SOL     OW90733  15.954   6.281   1.046
13965SOL    HW190734  16.017   6.225   0.992
13965SOL    HW290735  15.896   6.222   1.102
13966SOL     OW90736  12.244   2.127   6.400
13966SOL    HW190737  12.326   2.132   6.343
13966SOL    HW290738  12.163   2.128   6.341
13967SOL     OW90739   5.370  10.048   0.078
13967SOL    HW190740   5.449  10.002   0.038
13967SOL    HW290741   5.286  10.008   0.042
13968SOL     OW90742  15.388  16.342   1.599
13968SOL    HW190743  15.451  16.316   1.671
13968SOL    HW290744  15.296  16.352   1.637
13969SOL     OW90745   7.017   1.251   6.742
13969SOL    HW190746   7.107   1.259   6.699
13969SOL    HW290747   7.021   1.183   6.816
13970SOL     OW90748   0.387  10.046   8.281
13970SOL    HW190749   0.462  10.104   8.250
13970SOL    HW290750   0.423   9.970   8.334
13971SOL     OW90751   8.680   5.621   7.590
13971SOL    HW190752   8.729   5.535   7.607
13971SOL    HW290753   8.636   5.617   7.501
13972SOL     OW90754  12.058  16.280   7.995
13972SOL    HW190755  12.102  16.239   8.075
13972SOL    HW290756  11.959  16.265   8.000
13973SOL     OW90757   4.736   2.951   7.704
13973SOL    HW190758   4.719   2.909   7.793
13973SOL    HW290759   4.731   2.881   7.633
13974SOL     OW90760   7.604   0.220   7.332
13974SOL    HW190761   7.543   0.211   7.411
13974SOL    HW290762   7.597   0.313   7.295
13975SOL     OW90763  15.668  13.822   1.837
13975SOL    HW190764  15.716  13.746   1.881
13975SOL    HW290765  15.583  13.789   1.797
13976SOL     OW90766   5.294   4.217   7.641
13976SOL    HW190767   5.300   4.316   7.654
13976SOL    HW290768   5.376   4.174   7.680
13977SOL     OW90769   2.137   8.919   7.969
13977SOL    HW190770   2.072   8.993   7.953
13977SOL    HW290771   2.120   8.879   8.059
13978SOL     OW90772   6.290  12.501   8.092
13978SOL    HW190773   6.271  12.596   8.118
13978SOL    HW290774   6.329  12.452   8.169
13979SOL     OW90775   6.334  11.317   0.247
13979SOL    HW190776   6.320  11.225   0.209
13979SOL    HW290777   6.248  11.368   0.242
13980SOL     OW90778   0.836   4.615   0.738
13980SOL    HW190779   0.880   4.525   0.737
13980SOL    HW290780   0.904   4.686   0.719
13981SOL     OW90781  12.662  16.443   1.243
13981SOL    HW190782  12.613  16.424   1.158
13981SOL    HW290783  12.598  16.440   1.320
13982SOL     OW90784   0.487   4.997   0.193
13982SOL    HW190785   0.411   4.934   0.210
13982SOL    HW290786   0.505   5.049   0.275
13983SOL     OW90787  11.291   3.589   6.536
13983SOL    HW190788  11.327   3.674   6.572
13983SOL    HW290789  11.309   3.515   6.600
13984SOL     OW90790  11.736  13.318   6.597
13984SOL    HW190791  11.725  13.271   6.510
13984SOL    HW290792  11.688  13.268   6.669
13985SOL     OW90793  13.925  14.761   0.584
13985SOL    HW190794  13.861  14.798   0.651
13985SOL    HW290795  13.943  14.830   0.513
13986SOL     OW90796  10.039  14.547   8.157
13986SOL    HW190797   9.957  14.492   8.143
13986SOL    HW290798  10.033  14.631   8.102
13987SOL     OW90799  16.359  14.951   6.965
13987SOL    HW190800  16.316  14.990   6.884
13987SOL    HW290801  16.294  14.891   7.012
13988SOL     OW90802  12.809  15.117   6.949
13988SOL    HW190803  12.767  15.183   7.011
13988SOL    HW290804  12.762  15.119   6.861
13989SOL     OW90805   2.932   9.249   7.143
13989SOL    HW190806   2.981   9.233   7.228
13989SOL    HW290807   2.937   9.347   7.120
13990SOL     OW90808   5.247   4.432   0.759
13990SOL    HW190809   5.247   4.496   0.682
13990SOL    HW290810   5.263   4.339   0.724
13991SOL     OW90811   9.836   0.657   6.987
13991SOL    HW190812   9.798   0.623   7.073
13991SOL    HW290813   9.831   0.756   6.985
13992SOL     OW90814   7.838   3.073   7.026
13992SOL    HW190815   7.792   3.029   7.104
13992SOL    HW290816   7.828   3.016   6.945
13993SOL     OW90817   3.764   8.510   1.576
13993SOL    HW190818   3.677   8.465   1.598
13993SOL    HW290819   3.746   8.588   1.516
13994SOL     OW90820  16.434  12.014   7.646
13994SOL    HW190821  16.397  11.977   7.561
13994SOL    HW290822  16.417  11.949   7.721
13995SOL     OW90823   2.323   1.992   2.351
13995SOL    HW190824   2.403   1.968   2.406
13995SOL    HW290825   2.257   2.041   2.408
13996SOL     OW90826   5.242   8.314   7.994
13996SOL    HW190827   5.322   8.355   7.951
13996SOL    HW290828   5.218   8.229   7.946
13997SOL     OW90829  15.078   7.875   6.875
13997SOL    HW190830  15.175   7.899   6.883
13997SOL    HW290831  15.033   7.886   6.964
13998SOL     OW90832   7.026   4.355   0.620
13998SOL    HW190833   7.104   4.413   0.644
13998SOL    HW290834   6.952   4.369   0.686
13999SOL     OW90835   5.568  12.173   1.111
13999SOL    HW190836   5.543  12.169   1.015
13999SOL    HW290837   5.496  12.129   1.166
14000SOL     OW90838  16.821  13.265   6.854
14000SOL    HW190839  16.776  13.263   6.765
14000SOL    HW290840  16.907  13.215   6.849
14001SOL     OW90841   4.833   7.457   1.666
14001SOL    HW190842   4.852   7.391   1.594
14001SOL    HW290843   4.901   7.448   1.739
14002SOL     OW90844   9.080  16.937   1.403
14002SOL    HW190845   9.102  16.840   1.392
14002SOL    HW290846   9.069  16.979   1.313
14003SOL     OW90847  15.252  11.910   1.297
14003SOL    HW190848  15.300  11.934   1.381
14003SOL    HW290849  15.273  11.815   1.272
14004SOL     OW90850   3.023  15.390   8.194
14004SOL    HW190851   2.975  15.351   8.272
14004SOL    HW290852   2.961  15.451   8.144
14005SOL     OW90853  15.512   4.107   7.232
14005SOL    HW190854  15.443   4.141   7.296
14005SOL    HW290855  15.470   4.091   7.143
14006SOL     OW90856   6.131  11.561   1.084
14006SOL    HW190857   6.041  11.595   1.111
14006SOL    HW290858   6.190  11.638   1.061
14007SOL     OW90859   1.439   5.660   0.327
14007SOL    HW190860   1.420   5.571   0.285
14007SOL    HW290861   1.534   5.664   0.357
14008SOL     OW90862  13.607   0.317   0.676
14008SOL    HW190863  13.558   0.237   0.710
14008SOL    HW290864  13.674   0.346   0.744
14009SOL     OW90865   4.320   6.397   0.566
14009SOL    HW190866   4.387   6.463   0.600
14009SOL    HW290867   4.233   6.410   0.613
14010SOL     OW90868   1.513   0.842   0.584
14010SOL    HW190869   1.443   0.783   0.545
14010SOL    HW290870   1.597   0.789   0.597
14011SOL     OW90871   7.828  10.714   8.388
14011SOL    HW190872   7.854  10.810   8.380
14011SOL    HW290873   7.748  10.695   8.332
14012SOL     OW90874   2.506   0.057   2.694
14012SOL    HW190875   2.463   0.135   2.740
14012SOL    HW290876   2.437   0.009   2.640
14013SOL     OW90877  15.561  15.405   1.244
14013SOL    HW190878  15.462  15.419   1.252
14013SOL    HW290879  15.585  15.390   1.148
14014SOL     OW90880  15.330   6.876   1.197
14014SOL    HW190881  15.356   6.967   1.229
14014SOL    HW290882  15.399   6.844   1.131
14015SOL     OW90883   2.289  10.986   0.386
14015SOL    HW190884   2.313  11.034   0.470
14015SOL    HW290885   2.202  11.022   0.351
14016SOL     OW90886  14.687   0.794   1.231
14016SOL    HW190887  14.591   0.820   1.224
14016SOL    HW290888  14.706   0.762   1.324
14017SOL     OW90889  10.358  15.561   7.748
14017SOL    HW190890  10.308  15.647   7.748
14017SOL    HW290891  10.299  15.488   7.784
14018SOL     OW90892   0.406   1.974   1.713
14018SOL    HW190893   0.430   2.044   1.781
14018SOL    HW290894   0.419   1.883   1.754
14019SOL     OW90895  12.825   8.233   1.666
14019SOL    HW190896  12.806   8.178   1.747
14019SOL    HW290897  12.923   8.251   1.659
14020SOL     OW90898   8.030   1.883   0.180
14020SOL    HW190899   7.963   1.950   0.212
14020SOL    HW290900   7.993   1.791   0.192
14021SOL     OW90901  10.334  13.524   1.269
14021SOL    HW190902  10.373  13.440   1.308
14021SOL    HW290903  10.409  13.581   1.235
14022SOL     OW90904   3.882   0.798   7.158
14022SOL    HW190905   3.925   0.734   7.094
14022SOL    HW290906   3.842   0.874   7.106
14023SOL     OW90907  10.489  13.976   1.634
14023SOL    HW190908  10.571  13.988   1.578
14023SOL    HW290909  10.430  13.907   1.594
14024SOL     OW90910   2.069   7.045   0.793
14024SOL    HW190911   2.129   7.052   0.713
14024SOL    HW290912   2.106   7.101   0.867
14025SOL     OW90913  11.824  14.769   7.930
14025SOL    HW190914  11.818  14.795   7.834
14025SOL    HW290915  11.735  14.734   7.961
14026SOL     OW90916  16.014  14.234   0.431
14026SOL    HW190917  16.060  14.157   0.386
14026SOL    HW290918  15.986  14.302   0.363
14027SOL     OW90919  14.397   7.420   1.222
14027SOL    HW190920  14.404   7.322   1.235
14027SOL    HW290921  14.367   7.464   1.307
14028SOL     OW90922  11.589   6.359   8.204
14028SOL    HW190923  11.507   6.322   8.160
14028SOL    HW290924  11.574   6.455   8.226
14029SOL     OW90925   3.335   4.805   7.000
14029SOL    HW190926   3.354   4.711   7.029
14029SOL    HW290927   3.419   4.847   6.967
14030SOL     OW90928  11.654   3.239   7.863
14030SOL    HW190929  11.705   3.221   7.947
14030SOL    HW290930  11.624   3.152   7.824
14031SOL     OW90931   2.695   7.438   7.555
14031SOL    HW190932   2.755   7.515   7.579
14031SOL    HW290933   2.687   7.377   7.634
14032SOL     OW90934   9.704   0.111   7.624
14032SOL    HW190935   9.703   0.120   7.524
14032SOL    HW290936   9.677   0.198   7.666
14033SOL     OW90937   5.452   4.556   7.109
14033SOL    HW190938   5.380   4.588   7.170
14033SOL    HW290939   5.515   4.632   7.088
14034SOL     OW90940  14.959   5.427   0.987
14034SOL    HW190941  15.021   5.500   1.017
14034SOL    HW290942  14.927   5.377   1.067
14035SOL     OW90943   4.286   9.555   6.453
14035SOL    HW190944   4.366   9.562   6.394
14035SOL    HW290945   4.290   9.626   6.523
14036SOL     OW90946  12.256  13.069   5.957
14036SOL    HW190947  12.356  13.076   5.952
14036SOL    HW290948  12.220  13.148   6.008
14037SOL     OW90949   5.962   3.666   6.556
14037SOL    HW190950   5.872   3.678   6.515
14037SOL    HW290951   6.021   3.742   6.530
14038SOL     OW90952   0.055   3.689   7.010
14038SOL    HW190953  16.963   3.629   6.983
14038SOL    HW290954   0.081   3.669   7.105
14039SOL     OW90955   5.535   2.478   6.271
14039SOL    HW190956   5.502   2.551   6.211
14039SOL    HW290957   5.500   2.390   6.238
14040SOL     OW90958  11.741   3.248   8.145
14040SOL    HW190959  11.693   3.306   8.211
14040SOL    HW290960  11.837   3.238   8.173
14041SOL     OW90961   7.766   5.639   7.739
14041SOL    HW190962   7.714   5.694   7.674
14041SOL    HW290963   7.842   5.595   7.692
14042SOL     OW90964   8.922  12.478   0.607
14042SOL    HW190965   8.985  12.556   0.608
14042SOL    HW290966   8.895  12.459   0.513
14043SOL     OW90967   7.356   4.559   6.749
14043SOL    HW190968   7.343   4.640   6.806
14043SOL    HW290969   7.454   4.545   6.733
14044SOL     OW90970   9.173  14.751   0.130
14044SOL    HW190971   9.120  14.804   0.064
14044SOL    HW290972   9.243  14.698   0.082
14045SOL     OW90973   3.217  11.481   7.482
14045SOL    HW190974   3.257  11.542   7.414
14045SOL    HW290975   3.220  11.387   7.449
14046SOL     OW90976   3.331   5.192   0.584
14046SOL    HW190977   3.423   5.206   0.622
14046SOL    HW290978   3.315   5.258   0.510
14047SOL     OW90979   2.275  16.655   0.055
14047SOL    HW190980   2.272  16.721   0.131
14047SOL    HW290981   2.330  16.576   0.082
14048SOL     OW90982   4.428   2.243   2.461
14048SOL    HW190983   4.389   2.152   2.477
14048SOL    HW290984   4.426   2.295   2.546
14049SOL     OW90985  14.508   6.085   6.953
14049SOL    HW190986  14.497   5.994   6.913
14049SOL    HW290987  14.426   6.140   6.936
14050SOL     OW90988  10.930   3.197   2.101
14050SOL    HW190989  10.841   3.183   2.145
14050SOL    HW290990  10.967   3.286   2.128
14051SOL     OW90991   5.021  15.180   8.047
14051SOL    HW190992   5.094  15.188   7.979
14051SOL    HW290993   5.060  15.152   8.135
14052SOL     OW90994   8.655   8.934   6.307
14052SOL    HW190995   8.571   8.936   6.252
14052SOL    HW290996   8.712   9.012   6.282
14053SOL     OW90997   9.707  15.759   0.145
14053SOL    HW190998   9.726  15.662   0.130
14053SOL    HW290999   9.739  15.786   0.236
14054SOL     OW91000  13.474   2.251   5.489
14054SOL    HW191001  13.543   2.270   5.419
14054SOL    HW291002  13.461   2.152   5.496
14055SOL     OW91003  12.051  14.037   7.377
14055SOL    HW191004  12.066  13.941   7.354
14055SOL    HW291005  11.983  14.044   7.450
14056SOL     OW91006   7.076  14.946   8.374
14056SOL    HW191007   7.157  14.960   8.316
14056SOL    HW291008   7.036  15.034   8.397
14057SOL     OW91009   6.056   0.488   7.255
14057SOL    HW191010   6.037   0.390   7.244
14057SOL    HW291011   6.153   0.505   7.236
14058SOL     OW91012   5.006   5.004   1.496
14058SOL    HW191013   5.050   5.034   1.411
14058SOL    HW291014   4.920   5.055   1.509
14059SOL     OW91015  11.178  13.057   1.186
14059SOL    HW191016  11.209  13.031   1.278
14059SOL    HW291017  11.199  13.153   1.170
14060SOL     OW91018  15.033   9.076   0.658
14060SOL    HW191019  15.073   9.014   0.726
14060SOL    HW291020  15.055   9.170   0.682
14061SOL     OW91021   7.941  15.361   1.543
14061SOL    HW191022   7.899  15.292   1.602
14061SOL    HW291023   7.874  15.390   1.475
14062SOL     OW91024   9.071   8.682   7.180
14062SOL    HW191025   9.038   8.657   7.271
14062SOL    HW291026   8.997   8.671   7.113
14063SOL     OW91027   3.400   6.413   8.168
14063SOL    HW191028   3.477   6.476   8.159
14063SOL    HW291029   3.354   6.404   8.080
14064SOL     OW91030   6.973   2.923   1.298
14064SOL    HW191031   7.003   2.849   1.238
14064SOL    HW291032   7.031   2.925   1.380
14065SOL     OW91033   6.683   3.986   1.183
14065SOL    HW191034   6.720   4.006   1.273
14065SOL    HW291035   6.583   3.984   1.188
14066SOL     OW91036   7.999  16.254   8.060
14066SOL    HW191037   7.949  16.339   8.046
14066SOL    HW291038   7.955  16.200   8.131
14067SOL     OW91039  11.456   4.175   0.604
14067SOL    HW191040  11.448   4.223   0.517
14067SOL    HW291041  11.449   4.077   0.590
14068SOL     OW91042  13.113   3.814   7.345
14068SOL    HW191043  13.147   3.755   7.272
14068SOL    HW291044  13.052   3.762   7.405
14069SOL     OW91045   2.942   1.390   8.082
14069SOL    HW191046   2.925   1.298   8.048
14069SOL    HW291047   2.917   1.396   8.178
14070SOL     OW91048  15.299  14.069   2.002
14070SOL    HW191049  15.266  14.090   2.095
14070SOL    HW291050  15.398  14.055   2.005
14071SOL     OW91051   1.838  10.976   7.079
14071SOL    HW191052   1.740  10.971   7.098
14071SOL    HW291053   1.854  11.038   7.002
14072SOL     OW91054   3.488   9.228   1.840
14072SOL    HW191055   3.562   9.181   1.888
14072SOL    HW291056   3.435   9.283   1.904
14073SOL     OW91057   6.884  14.470   0.373
14073SOL    HW191058   6.876  14.378   0.410
14073SOL    HW291059   6.961  14.474   0.309
14074SOL     OW91060   3.694  11.286   1.659
14074SOL    HW191061   3.603  11.300   1.698
14074SOL    HW291062   3.753  11.364   1.682
14075SOL     OW91063   5.384  11.644   2.407
14075SOL    HW191064   5.421  11.720   2.461
14075SOL    HW291065   5.393  11.559   2.459
14076SOL     OW91066   9.903   4.065   0.970
14076SOL    HW191067   9.860   4.007   0.900
14076SOL    HW291068   9.946   4.144   0.926
14077SOL     OW91069  15.401   2.161   6.887
14077SOL    HW191070  15.358   2.247   6.916
14077SOL    HW291071  15.368   2.136   6.796
14078SOL     OW91072  11.700  15.643   7.227
14078SOL    HW191073  11.645  15.572   7.271
14078SOL    HW291074  11.663  15.733   7.250
14079SOL     OW91075  14.759   3.308   6.905
14079SOL    HW191076  14.680   3.289   6.846
14079SOL    HW291077  14.738   3.385   6.966
14080SOL     OW91078  14.794   8.749   6.931
14080SOL    HW191079  14.887   8.784   6.916
14080SOL    HW291080  14.749   8.806   7.000
14081SOL     OW91081  16.874  11.572   7.857
14081SOL    HW191082  16.868  11.627   7.941
14081SOL    HW291083  16.830  11.622   7.783
14082SOL     OW91084   6.517   5.385   8.053
14082SOL    HW191085   6.459   5.303   8.052
14082SOL    HW291086   6.610   5.360   8.025
14083SOL     OW91087   4.939  13.934   7.481
14083SOL    HW191088   5.026  13.909   7.439
14083SOL    HW291089   4.866  13.933   7.412
14084SOL     OW91090   6.875   7.108   1.112
14084SOL    HW191091   6.930   7.125   1.031
14084SOL    HW291092   6.784   7.149   1.100
14085SOL     OW91093   0.902  14.333   7.227
14085SOL    HW191094   0.843  14.413   7.216
14085SOL    HW291095   0.915  14.288   7.138
14086SOL     OW91096   7.932  15.724   7.188
14086SOL    HW191097   7.979  15.721   7.100
14086SOL    HW291098   7.907  15.631   7.215
14087SOL     OW91099   8.275   2.092   7.915
14087SOL    HW191100   8.336   2.090   7.994
14087SOL    HW291101   8.185   2.125   7.944
14088SOL     OW91102  13.317   4.003   8.048
14088SOL    HW191103  13.330   4.022   7.950
14088SOL    HW291104  13.406   4.009   8.094
14089SOL     OW91105  14.343   0.270   6.663
14089SOL    HW191106  14.248   0.244   6.679
14089SOL    HW291107  14.373   0.333   6.734
14090SOL     OW91108   8.303   2.394   6.456
14090SOL    HW191109   8.308   2.394   6.556
14090SOL    HW291110   8.236   2.326   6.426
14091SOL     OW91111  15.312  11.469   7.363
14091SOL    HW191112  15.339  11.485   7.268
14091SOL    HW291113  15.256  11.546   7.395
14092SOL     OW91114   1.225  10.378   0.473
14092SOL    HW191115   1.133  10.409   0.448
14092SOL    HW291116   1.289  10.454   0.464
14093SOL     OW91117  16.701   1.674   1.845
14093SOL    HW191118  16.618   1.665   1.901
14093SOL    HW291119  16.705   1.766   1.807
14094SOL     OW91120   0.928  14.426   0.129
14094SOL    HW191121   0.942  14.524   0.123
14094SOL    HW291122   0.928  14.397   0.224
14095SOL     OW91123   0.421  15.098   2.189
14095SOL    HW191124   0.378  15.159   2.123
14095SOL    HW291125   0.508  15.065   2.153
14096SOL     OW91126  12.363   0.175   7.423
14096SOL    HW191127  12.408   0.173   7.512
14096SOL    HW291128  12.334   0.269   7.403
14097SOL     OW91129   1.618  15.832   8.214
14097SOL    HW191130   1.602  15.925   8.180
14097SOL    HW291131   1.645  15.774   8.137
14098SOL     OW91132  15.752  10.913   8.414
14098SOL    HW191133  15.658  10.917   8.382
14098SOL    HW291134  15.775  10.819   8.439
14099SOL     OW91135   4.398   9.407   0.814
14099SOL    HW191136   4.456   9.408   0.895
14099SOL    HW291137   4.306   9.377   0.840
14100SOL     OW91138  15.314  13.148   6.311
14100SOL    HW191139  15.396  13.200   6.284
14100SOL    HW291140  15.340  13.055   6.335
14101SOL     OW91141   0.340   3.138   0.579
14101SOL    HW191142   0.333   3.206   0.652
14101SOL    HW291143   0.384   3.055   0.615
14102SOL     OW91144  11.457   2.271   0.134
14102SOL    HW191145  11.395   2.345   0.160
14102SOL    HW291146  11.480   2.280   0.037
14103SOL     OW91147   1.780   8.942   8.059
14103SOL    HW191148   1.752   8.885   7.981
14103SOL    HW291149   1.841   9.014   8.027
14104SOL     OW91150   1.355   9.197   1.179
14104SOL    HW191151   1.327   9.286   1.213
14104SOL    HW291152   1.317   9.125   1.238
14105SOL     OW91153  11.858   8.380   0.683
14105SOL    HW191154  11.876   8.463   0.630
14105SOL    HW291155  11.885   8.394   0.778
14106SOL     OW91156   2.394   2.461   1.360
14106SOL    HW191157   2.415   2.450   1.263
14106SOL    HW291158   2.398   2.371   1.406
14107SOL     OW91159   1.759   6.048   5.927
14107SOL    HW191160   1.746   5.955   5.961
14107SOL    HW291161   1.854   6.060   5.899
14108SOL     OW91162   9.839   5.137   6.794
14108SOL    HW191163   9.757   5.158   6.848
14108SOL    HW291164   9.881   5.054   6.830
14109SOL     OW91165   2.619  12.752   1.967
14109SOL    HW191166   2.666  12.819   1.910
14109SOL    HW291167   2.681  12.721   2.040
14110SOL     OW91168   5.046   5.185   8.355
14110SOL    HW191169   5.134   5.144   8.328
14110SOL    HW291170   5.026   5.160   8.450
14111SOL     OW91171   6.603   2.339   0.627
14111SOL    HW191172   6.633   2.349   0.722
14111SOL    HW291173   6.537   2.264   0.621
14112SOL     OW91174   4.985  12.714   7.297
14112SOL    HW191175   5.038  12.631   7.317
14112SOL    HW291176   5.003  12.783   7.367
14113SOL     OW91177   0.169  12.318   0.325
14113SOL    HW191178   0.114  12.236   0.340
14113SOL    HW291179   0.242  12.297   0.260
14114SOL     OW91180  13.868   0.306   8.019
14114SOL    HW191181  13.959   0.279   8.049
14114SOL    HW291182  13.807   0.315   8.098
14115SOL     OW91183  12.341   8.757   2.205
14115SOL    HW191184  12.333   8.853   2.234
14115SOL    HW291185  12.308   8.697   2.278
14116SOL     OW91186  11.995  11.611   8.145
14116SOL    HW191187  11.984  11.704   8.178
14116SOL    HW291188  12.034  11.612   8.053
14117SOL     OW91189  15.528  15.009   7.343
14117SOL    HW191190  15.524  14.911   7.321
14117SOL    HW291191  15.437  15.040   7.373
14118SOL     OW91192  14.770  13.214   0.295
14118SOL    HW191193  14.791  13.133   0.240
14118SOL    HW291194  14.683  13.200   0.343
14119SOL     OW91195  10.521  16.543   8.398
14119SOL    HW191196  10.574  16.560   0.027
14119SOL    HW291197  10.488  16.630   8.361
14120SOL     OW91198   5.096  11.063   0.882
14120SOL    HW191199   5.058  11.150   0.851
14120SOL    HW291200   5.182  11.045   0.833
14121SOL     OW91201   8.791   9.945   7.636
14121SOL    HW191202   8.798   9.945   7.536
14121SOL    HW291203   8.876   9.979   7.675
14122SOL     OW91204   4.220   3.998   0.207
14122SOL    HW191205   4.284   3.952   0.269
14122SOL    HW291206   4.271   4.048   0.138
14123SOL     OW91207  16.467   9.840   0.319
14123SOL    HW191208  16.464   9.741   0.335
14123SOL    HW291209  16.376   9.873   0.296
14124SOL     OW91210  12.998  12.331   7.882
14124SOL    HW191211  13.044  12.410   7.921
14124SOL    HW291212  12.921  12.304   7.940
14125SOL     OW91213  14.005   6.114   2.047
14125SOL    HW191214  14.049   6.046   2.106
14125SOL    HW291215  13.932   6.070   1.995
14126SOL     OW91216   5.614  14.529   0.195
14126SOL    HW191217   5.535  14.503   0.251
14126SOL    HW291218   5.630  14.459   0.125
14127SOL     OW91219   8.245  10.028   7.692
14127SOL    HW191220   8.338  10.063   7.706
14127SOL    HW291221   8.250   9.934   7.657
14128SOL     OW91222   8.552   0.360   6.127
14128SOL    HW191223   8.476   0.331   6.069
14128SOL    HW291224   8.639   0.332   6.085
14129SOL     OW91225  15.202  13.331   0.607
14129SOL    HW191226  15.214  13.266   0.682
14129SOL    HW291227  15.110  13.320   0.568
14130SOL     OW91228  12.223  13.707   1.827
14130SOL    HW191229  12.154  13.725   1.758
14130SOL    HW291230  12.180  13.699   1.917
14131SOL     OW91231  11.512   2.758   7.856
14131SOL    HW191232  11.562   2.739   7.771
14131SOL    HW291233  11.517   2.679   7.916
14132SOL     OW91234   9.786  10.451   7.147
14132SOL    HW191235   9.815  10.493   7.233
14132SOL    HW291236   9.688  10.431   7.152
14133SOL     OW91237   0.727  13.156   7.570
14133SOL    HW191238   0.709  13.163   7.668
14133SOL    HW291239   0.799  13.220   7.544
14134SOL     OW91240   0.911  12.183   6.848
14134SOL    HW191241   0.855  12.224   6.776
14134SOL    HW291242   0.938  12.091   6.821
14135SOL     OW91243   3.345  10.247   7.217
14135SOL    HW191244   3.330  10.236   7.118
14135SOL    HW291245   3.262  10.222   7.266
14136SOL     OW91246   7.192   9.301   8.028
14136SOL    HW191247   7.249   9.340   8.100
14136SOL    HW291248   7.096   9.323   8.046
14137SOL     OW91249  10.927   7.198   2.031
14137SOL    HW191250  10.897   7.283   2.073
14137SOL    HW291251  10.903   7.121   2.090
14138SOL     OW91252   1.014   2.756   0.446
14138SOL    HW191253   0.953   2.828   0.413
14138SOL    HW291254   1.109   2.789   0.444
14139SOL     OW91255   6.478  10.355   0.004
14139SOL    HW191256   6.424  10.369   0.087
14139SOL    HW291257   6.545  10.282   0.020
14140SOL     OW91258  14.727   5.616   6.959
14140SOL    HW191259  14.724   5.537   6.897
14140SOL    HW291260  14.685   5.592   7.046
14141SOL     OW91261   4.398   1.529   7.143
14141SOL    HW191262   4.398   1.593   7.066
14141SOL    HW291263   4.482   1.540   7.196
14142SOL     OW91264   4.555   5.922   0.524
14142SOL    HW191265   4.570   5.889   0.616
14142SOL    HW291266   4.642   5.948   0.482
14143SOL     OW91267   1.725  16.232   2.251
14143SOL    HW191268   1.724  16.226   2.351
14143SOL    HW291269   1.707  16.141   2.212
14144SOL     OW91270   4.911   7.555   1.275
14144SOL    HW191271   4.876   7.611   1.350
14144SOL    HW291272   4.990   7.503   1.306
14145SOL     OW91273   2.990  15.296   1.941
14145SOL    HW191274   3.010  15.377   1.885
14145SOL    HW291275   2.999  15.214   1.885
14146SOL     OW91276   8.254   0.179   6.495
14146SOL    HW191277   8.198   0.254   6.460
14146SOL    HW291278   8.347   0.186   6.457
14147SOL     OW91279  16.185  12.075   7.993
14147SOL    HW191280  16.277  12.113   7.996
14147SOL    HW291281  16.189  11.975   7.999
14148SOL     OW91282   2.986  11.623   8.299
14148SOL    HW191283   3.056  11.563   8.337
14148SOL    HW291284   2.924  11.569   8.241
14149SOL     OW91285  16.102   8.338   0.645
14149SOL    HW191286  16.033   8.379   0.704
14149SOL    HW291287  16.154   8.410   0.599
14150SOL     OW91288   8.450   8.730   8.111
14150SOL    HW191289   8.528   8.693   8.161
14150SOL    HW291290   8.468   8.824   8.084
14151SOL     OW91291   8.458  16.540   1.594
14151SOL    HW191292   8.476  16.616   1.658
14151SOL    HW291293   8.490  16.455   1.635
14152SOL     OW91294  11.122  13.550   7.501
14152SOL    HW191295  11.104  13.513   7.592
14152SOL    HW291296  11.159  13.643   7.509
14153SOL     OW91297  13.291   3.722   0.129
14153SOL    HW191298  13.322   3.701   0.037
14153SOL    HW291299  13.229   3.651   0.161
14154SOL     OW91300  15.635   3.455   7.266
14154SOL    HW191301  15.581   3.372   7.278
14154SOL    HW291302  15.703   3.462   7.339
14155SOL     OW91303  10.878  13.031   0.362
14155SOL    HW191304  10.844  13.105   0.303
14155SOL    HW291305  10.815  12.953   0.358
14156SOL     OW91306   6.193   7.644   1.142
14156SOL    HW191307   6.104   7.619   1.180
14156SOL    HW291308   6.259   7.571   1.161
14157SOL     OW91309   8.553   0.291   0.173
14157SOL    HW191310   8.567   0.210   0.117
14157SOL    HW291311   8.608   0.366   0.136
14158SOL     OW91312  10.201  11.010   0.876
14158SOL    HW191313  10.144  10.929   0.889
14158SOL    HW291314  10.187  11.046   0.784
14159SOL     OW91315   7.293   6.472   1.132
14159SOL    HW191316   7.357   6.432   1.198
14159SOL    HW291317   7.238   6.542   1.177
14160SOL     OW91318   7.456   4.754   7.603
14160SOL    HW191319   7.525   4.681   7.595
14160SOL    HW291320   7.366   4.717   7.579
14161SOL     OW91321  14.991   3.510   1.570
14161SOL    HW191322  15.038   3.585   1.616
14161SOL    HW291323  14.909   3.546   1.524
14162SOL     OW91324  16.509   3.140   8.003
14162SOL    HW191325  16.433   3.194   8.040
14162SOL    HW291326  16.508   3.145   7.903
14163SOL     OW91327   9.795   1.680   1.377
14163SOL    HW191328   9.849   1.691   1.294
14163SOL    HW291329   9.853   1.644   1.450
14164SOL     OW91330   4.626   4.792   1.758
14164SOL    HW191331   4.594   4.721   1.696
14164SOL    HW291332   4.548   4.847   1.789
14165SOL     OW91333   7.274   2.549   8.232
14165SOL    HW191334   7.273   2.534   8.133
14165SOL    HW291335   7.352   2.607   8.256
14166SOL     OW91336   7.550  11.004   0.125
14166SOL    HW191337   7.472  11.040   0.177
14166SOL    HW291338   7.605  11.081   0.092
14167SOL     OW91339   2.367  14.104   1.606
14167SOL    HW191340   2.334  14.028   1.663
14167SOL    HW291341   2.310  14.111   1.524
14168SOL     OW91342  11.805   3.566   0.644
14168SOL    HW191343  11.784   3.608   0.732
14168SOL    HW291344  11.881   3.502   0.655
14169SOL     OW91345   2.452   4.334   1.141
14169SOL    HW191346   2.541   4.355   1.182
14169SOL    HW291347   2.381   4.386   1.189
14170SOL     OW91348   1.078  12.663   7.328
14170SOL    HW191349   1.074  12.633   7.423
14170SOL    HW291350   1.169  12.644   7.290
14171SOL     OW91351  16.962  15.133   8.072
14171SOL    HW191352   0.062  15.122   8.127
14171SOL    HW291353  16.893  15.181   8.126
14172SOL     OW91354   4.684  12.039   7.298
14172SOL    HW191355   4.728  12.128   7.289
14172SOL    HW291356   4.664  12.002   7.208
14173SOL     OW91357   7.178   6.350   0.639
14173SOL    HW191358   7.163   6.415   0.565
14173SOL    HW291359   7.110   6.365   0.711
14174SOL     OW91360  14.144  13.670   0.826
14174SOL    HW191361  14.057  13.710   0.856
14174SOL    HW291362  14.215  13.690   0.894
14175SOL     OW91363  13.860  14.727   1.024
14175SOL    HW191364  13.943  14.673   1.020
14175SOL    HW291365  13.866  14.793   1.099
14176SOL     OW91366  16.489  15.590   1.187
14176SOL    HW191367  16.548  15.654   1.138
14176SOL    HW291368  16.539  15.553   1.266
14177SOL     OW91369   0.229  11.175   1.760
14177SOL    HW191370   0.202  11.254   1.816
14177SOL    HW291371   0.220  11.092   1.814
14178SOL     OW91372   3.963  10.980   7.932
14178SOL    HW191373   3.871  10.944   7.949
14178SOL    HW291374   3.958  11.059   7.871
14179SOL     OW91375   4.917  11.882   6.850
14179SOL    HW191376   4.885  11.976   6.840
14179SOL    HW291377   5.014  11.877   6.825
14180SOL     OW91378   4.946  16.850   1.359
14180SOL    HW191379   4.858  16.811   1.335
14180SOL    HW291380   4.933  16.929   1.420
14181SOL     OW91381   7.156   8.490   6.580
14181SOL    HW191382   7.179   8.585   6.600
14181SOL    HW291383   7.161   8.474   6.482
14182SOL     OW91384   7.711   3.466   1.392
14182SOL    HW191385   7.722   3.552   1.440
14182SOL    HW291386   7.728   3.390   1.455
14183SOL     OW91387   8.333  14.756   0.288
14183SOL    HW191388   8.239  14.723   0.293
14183SOL    HW291389   8.391  14.686   0.245
14184SOL     OW91390   6.503  15.939   0.117
14184SOL    HW191391   6.422  15.924   0.061
14184SOL    HW291392   6.585  15.913   0.066
14185SOL     OW91393  14.662   5.840   8.314
14185SOL    HW191394  14.695   5.882   8.398
14185SOL    HW291395  14.707   5.882   8.235
14186SOL     OW91396   3.843  15.914   2.050
14186SOL    HW191397   3.922  15.907   2.110
14186SOL    HW291398   3.857  15.858   1.969
14187SOL     OW91399  14.084   1.834   7.051
14187SOL    HW191400  14.146   1.908   7.080
14187SOL    HW291401  14.033   1.801   7.130
14188SOL     OW91402  16.269   5.718   1.248
14188SOL    HW191403  16.252   5.786   1.177
14188SOL    HW291404  16.190   5.714   1.309
14189SOL     OW91405   9.000   9.874   6.891
14189SOL    HW191406   8.917   9.819   6.878
14189SOL    HW291407   9.080   9.816   6.875
14190SOL     OW91408   6.783  13.220   8.188
14190SOL    HW191409   6.719  13.149   8.214
14190SOL    HW291410   6.865  13.179   8.149
14191SOL     OW91411  13.880   6.801   1.740
14191SOL    HW191412  13.920   6.727   1.686
14191SOL    HW291413  13.933   6.814   1.824
14192SOL     OW91414  13.382  15.969   0.404
14192SOL    HW191415  13.294  16.003   0.371
14192SOL    HW291416  13.405  15.884   0.356
14193SOL     OW91417  10.452   7.493   6.854
14193SOL    HW191418  10.528   7.558   6.850
14193SOL    HW291419  10.487   7.403   6.877
14194SOL     OW91420  10.831  15.910   0.120
14194SOL    HW191421  10.810  15.943   0.028
14194SOL    HW291422  10.774  15.957   0.186
14195SOL     OW91423   5.512   5.025   0.719
14195SOL    HW191424   5.608   5.047   0.703
14195SOL    HW291425   5.456   5.106   0.699
14196SOL     OW91426   6.497   0.048   8.009
14196SOL    HW191427   6.542   0.105   8.077
14196SOL    HW291428   6.553   0.042   7.927
14197SOL     OW91429   3.028   1.271   0.137
14197SOL    HW191430   2.930   1.293   0.139
14197SOL    HW291431   3.056   1.255   0.042
14198SOL     OW91432   4.156  15.973   1.296
14198SOL    HW191433   4.219  15.957   1.220
14198SOL    HW291434   4.167  15.900   1.364
14199SOL     OW91435   8.726   5.731   0.072
14199SOL    HW191436   8.703   5.681   0.156
14199SOL    HW291437   8.818   5.769   0.080
14200SOL     OW91438   1.584   2.118   8.013
14200SOL    HW191439   1.598   2.024   7.982
14200SOL    HW291440   1.650   2.178   7.968
14201SOL     OW91441  13.766  16.839   0.661
14201SOL    HW191442  13.833  16.885   0.603
14201SOL    HW291443  13.695  16.798   0.603
14202SOL     OW91444   2.186   8.887   7.482
14202SOL    HW191445   2.219   8.876   7.576
14202SOL    HW291446   2.111   8.953   7.481
14203SOL     OW91447  13.385  14.494   8.247
14203SOL    HW191448  13.328  14.411   8.239
14203SOL    HW291449  13.463  14.486   8.185
14204SOL     OW91450   9.053   9.175   1.276
14204SOL    HW191451   8.975   9.194   1.336
14204SOL    HW291452   9.020   9.162   1.183
14205SOL     OW91453   7.258   7.593   0.887
14205SOL    HW191454   7.240   7.668   0.951
14205SOL    HW291455   7.222   7.618   0.797
14206SOL     OW91456   6.250  13.315   6.497
14206SOL    HW191457   6.203  13.330   6.411
14206SOL    HW291458   6.204  13.243   6.549
14207SOL     OW91459  10.429   8.704   6.842
14207SOL    HW191460  10.383   8.615   6.850
14207SOL    HW291461  10.368   8.769   6.797
14208SOL     OW91462   1.457   5.542   0.923
14208SOL    HW191463   1.553   5.556   0.946
14208SOL    HW291464   1.449   5.520   0.826
14209SOL     OW91465  15.775  11.152   7.663
14209SOL    HW191466  15.864  11.161   7.618
14209SOL    HW291467  15.778  11.197   7.752
14210SOL     OW91468   8.025  16.602   8.346
14210SOL    HW191469   7.975  16.562   8.423
14210SOL    HW291470   8.099  16.540   8.319
14211SOL     OW91471   3.884  16.662   8.129
14211SOL    HW191472   3.824  16.632   8.204
14211SOL    HW291473   3.839  16.735   8.078
14212SOL     OW91474   6.684  14.606   0.241
14212SOL    HW191475   6.756  14.557   0.289
14212SOL    HW291476   6.719  14.640   0.153
14213SOL     OW91477   6.684   6.554   7.592
14213SOL    HW191478   6.679   6.603   7.679
14213SOL    HW291479   6.780   6.534   7.571
14214SOL     OW91480   8.692   7.169   5.801
14214SOL    HW191481   8.610   7.117   5.775
14214SOL    HW291482   8.773   7.120   5.770
14215SOL     OW91483  12.088   3.348   6.646
14215SOL    HW191484  12.121   3.357   6.552
14215SOL    HW291485  12.035   3.429   6.671
14216SOL     OW91486   6.939  14.875   0.356
14216SOL    HW191487   6.951  14.805   0.426
14216SOL    HW291488   6.993  14.851   0.275
14217SOL     OW91489   1.199   8.184   0.763
14217SOL    HW191490   1.227   8.245   0.689
14217SOL    HW291491   1.193   8.236   0.848
14218SOL     OW91492   0.721  15.523   0.364
14218SOL    HW191493   0.714  15.571   0.276
14218SOL    HW291494   0.689  15.429   0.353
14219SOL     OW91495   9.539  10.049   7.438
14219SOL    HW191496   9.627  10.051   7.486
14219SOL    HW291497   9.467  10.085   7.498
14220SOL     OW91498  16.574  13.450   0.403
14220SOL    HW191499  16.502  13.513   0.431
14220SOL    HW291500  16.533  13.367   0.366
14221SOL     OW91501  11.723   2.713   0.924
14221SOL    HW191502  11.639   2.732   0.975
14221SOL    HW291503  11.766   2.630   0.960
14222SOL     OW91504   9.781   3.294   1.165
14222SOL    HW191505   9.756   3.321   1.258
14222SOL    HW291506   9.808   3.376   1.114
14223SOL     OW91507  11.373   5.311   7.627
14223SOL    HW191508  11.389   5.252   7.547
14223SOL    HW291509  11.285   5.358   7.616
14224SOL     OW91510  12.993  16.885   1.337
14224SOL    HW191511  12.898  16.916   1.335
14224SOL    HW291512  13.042  16.922   1.258
14225SOL     OW91513  15.317   1.263   1.308
14225SOL    HW191514  15.391   1.236   1.247
14225SOL    HW291515  15.292   1.185   1.366
14226SOL     OW91516   6.081   7.840   0.416
14226SOL    HW191517   6.049   7.745   0.412
14226SOL    HW291518   6.148   7.855   0.343
14227SOL     OW91519   6.446   6.154   8.276
14227SOL    HW191520   6.349   6.173   8.263
14227SOL    HW291521   6.458   6.063   8.315
14228SOL     OW91522   5.255  11.422   6.925
14228SOL    HW191523   5.346  11.435   6.887
14228SOL    HW291524   5.190  11.482   6.877
14229SOL     OW91525  12.231  16.738   0.032
14229SOL    HW191526  12.147  16.731   8.432
14229SOL    HW291527  12.307  16.700   8.434
14230SOL     OW91528   2.580   9.084   8.303
14230SOL    HW191529   2.626   9.161   8.258
14230SOL    HW291530   2.578   9.100   8.401
14231SOL     OW91531  15.439  10.109   1.181
14231SOL    HW191532  15.344  10.076   1.174
14231SOL    HW291533  15.454  10.147   1.272
14232SOL     OW91534  11.857   7.585   1.711
14232SOL    HW191535  11.760   7.573   1.733
14232SOL    HW291536  11.909   7.598   1.795
14233SOL     OW91537   2.766   7.493   2.447
14233SOL    HW191538   2.854   7.445   2.447
14233SOL    HW291539   2.695   7.432   2.484
14234SOL     OW91540  12.042   4.740   6.949
14234SOL    HW191541  12.105   4.746   6.872
14234SOL    HW291542  12.061   4.656   7.001
14235SOL     OW91543   5.516   6.490   8.347
14235SOL    HW191544   5.583   6.459   8.415
14235SOL    HW291545   5.475   6.411   8.302
14236SOL     OW91546  13.187  15.917   1.935
14236SOL    HW191547  13.127  15.913   2.015
14236SOL    HW291548  13.271  15.965   1.959
14237SOL     OW91549  15.197   9.911   7.791
14237SOL    HW191550  15.281   9.887   7.840
14237SOL    HW291551  15.141   9.829   7.781
14238SOL     OW91552   3.163  10.604   6.858
14238SOL    HW191553   3.210  10.609   6.770
14238SOL    HW291554   3.230  10.607   6.933
14239SOL     OW91555   5.557  13.945   1.253
14239SOL    HW191556   5.476  14.002   1.265
14239SOL    HW291557   5.611  13.945   1.337
14240SOL     OW91558  12.288   7.988   7.289
14240SOL    HW191559  12.354   7.916   7.270
14240SOL    HW291560  12.243   7.969   7.377
14241SOL     OW91561   3.822   9.091   0.177
14241SOL    HW191562   3.803   8.998   0.147
14241SOL    HW291563   3.820   9.153   0.098
14242SOL     OW91564  13.546   8.937   7.009
14242SOL    HW191565  13.496   8.850   7.005
14242SOL    HW291566  13.578   8.952   7.103
14243SOL     OW91567  15.737  14.595   8.320
14243SOL    HW191568  15.787  14.509   8.307
14243SOL    HW291569  15.773  14.642   8.401
14244SOL     OW91570   7.556   4.593   7.123
14244SOL    HW191571   7.550   4.661   7.197
14244SOL    HW291572   7.603   4.633   7.044
14245SOL     OW91573  11.954   3.662   6.956
14245SOL    HW191574  11.970   3.623   6.865
14245SOL    HW291575  11.871   3.622   6.996
14246SOL     OW91576  10.902  10.721   0.700
14246SOL    HW191577  10.861  10.799   0.653
14246SOL    HW291578  10.953  10.753   0.780
14247SOL     OW91579   7.158   7.698   6.835
14247SOL    HW191580   7.201   7.614   6.801
14247SOL    HW291581   7.228   7.756   6.876
14248SOL     OW91582  16.324   2.948   6.769
14248SOL    HW191583  16.359   3.037   6.798
14248SOL    HW291584  16.224   2.952   6.761
14249SOL     OW91585  13.741  16.708   8.357
14249SOL    HW191586  13.791  16.787   8.322
14249SOL    HW291587  13.738  16.711   0.003
14250SOL     OW91588   6.301  12.967   6.296
14250SOL    HW191589   6.209  13.007   6.299
14250SOL    HW291590   6.346  12.994   6.212
14251SOL     OW91591   5.981   8.907   8.399
14251SOL    HW191592   5.892   8.917   8.353
14251SOL    HW291593   5.967   8.876   0.039
14252SOL     OW91594  15.243  15.570   1.694
14252SOL    HW191595  15.154  15.595   1.656
14252SOL    HW291596  15.242  15.584   1.793
14253SOL     OW91597  15.327  11.354   8.044
14253SOL    HW191598  15.392  11.426   8.068
14253SOL    HW291599  15.367  11.265   8.066
14254SOL     OW91600   7.949   4.682   7.704
14254SOL    HW191601   8.019   4.753   7.704
14254SOL    HW291602   7.981   4.602   7.654
14255SOL     OW91603  13.005   4.040   6.647
14255SOL    HW191604  13.030   4.023   6.742
14255SOL    HW291605  13.021   3.958   6.593
14256SOL     OW91606  10.391  10.397   7.443
14256SOL    HW191607  10.424  10.307   7.414
14256SOL    HW291608  10.394  10.402   7.542
14257SOL     OW91609   5.605   4.908   6.657
14257SOL    HW191610   5.645   4.817   6.667
14257SOL    HW291611   5.510   4.900   6.626
14258SOL     OW91612  11.454  16.577   8.155
14258SOL    HW191613  11.543  16.589   8.199
14258SOL    HW291614  11.409  16.666   8.145
14259SOL     OW91615   7.022  15.545   7.360
14259SOL    HW191616   7.042  15.453   7.394
14259SOL    HW291617   7.107  15.588   7.329
14260SOL     OW91618   7.422   2.204   0.041
14260SOL    HW191619   7.464   2.259   0.113
14260SOL    HW291620   7.486   2.196   8.418
14261SOL     OW91621   7.361  12.817   1.635
14261SOL    HW191622   7.368  12.916   1.647
14261SOL    HW291623   7.274  12.795   1.591
14262SOL     OW91624   1.813  10.661   7.523
14262SOL    HW191625   1.844  10.567   7.535
14262SOL    HW291626   1.871  10.707   7.456
14263SOL     OW91627   7.776  11.740   0.275
14263SOL    HW191628   7.718  11.717   0.197
14263SOL    HW291629   7.767  11.671   0.346
14264SOL     OW91630  11.297   5.010   8.223
14264SOL    HW191631  11.200   5.002   8.199
14264SOL    HW291632  11.350   5.034   8.142
14265SOL     OW91633   4.191  15.057   1.890
14265SOL    HW191634   4.207  15.138   1.832
14265SOL    HW291635   4.093  15.040   1.896
14266SOL     OW91636  14.366  15.465   6.701
14266SOL    HW191637  14.318  15.538   6.751
14266SOL    HW291638  14.390  15.498   6.610
14267SOL     OW91639  13.850   7.198   7.124
14267SOL    HW191640  13.803   7.285   7.135
14267SOL    HW291641  13.784   7.123   7.134
14268SOL     OW91642   7.792  12.912   1.640
14268SOL    HW191643   7.743  12.993   1.607
14268SOL    HW291644   7.868  12.891   1.578
14269SOL     OW91645   1.177   3.576   8.319
14269SOL    HW191646   1.241   3.523   8.375
14269SOL    HW291647   1.228   3.639   8.262
14270SOL     OW91648  16.758  14.575   0.994
14270SOL    HW191649  16.698  14.507   0.953
14270SOL    HW291650  16.704  14.647   1.037
14271SOL     OW91651   5.232   5.182   0.506
14271SOL    HW191652   5.261   5.218   0.417
14271SOL    HW291653   5.142   5.219   0.529
14272SOL     OW91654  11.899  10.882   6.551
14272SOL    HW191655  11.927  10.968   6.509
14272SOL    HW291656  11.951  10.807   6.509
14273SOL     OW91657  15.154   3.622   0.798
14273SOL    HW191658  15.187   3.555   0.864
14273SOL    HW291659  15.106   3.574   0.724
14274SOL     OW91660   7.085   6.435   2.007
14274SOL    HW191661   7.034   6.516   2.034
14274SOL    HW291662   7.172   6.462   1.967
14275SOL     OW91663  15.787  13.168   8.018
14275SOL    HW191664  15.694  13.161   7.983
14275SOL    HW291665  15.788  13.226   8.099
14276SOL     OW91666  11.307   5.265   0.560
14276SOL    HW191667  11.310   5.250   0.461
14276SOL    HW291668  11.399   5.288   0.593
14277SOL     OW91669   8.714   3.214   7.185
14277SOL    HW191670   8.729   3.284   7.116
14277SOL    HW291671   8.649   3.146   7.149
14278SOL     OW91672   4.058   3.135   7.714
14278SOL    HW191673   3.973   3.087   7.693
14278SOL    HW291674   4.066   3.149   7.812
14279SOL     OW91675  12.359  15.898   7.049
14279SOL    HW191676  12.270  15.937   7.072
14279SOL    HW291677  12.390  15.840   7.125
14280SOL     OW91678   8.483   7.083   0.381
14280SOL    HW191679   8.417   7.156   0.397
14280SOL    HW291680   8.505   7.039   0.468
14281SOL     OW91681   3.878  14.330   1.624
14281SOL    HW191682   3.950  14.310   1.690
14281SOL    HW291683   3.906  14.300   1.533
14282SOL     OW91684  10.877   3.767   6.343
14282SOL    HW191685  10.869   3.775   6.442
14282SOL    HW291686  10.828   3.686   6.312
14283SOL     OW91687  14.484   9.426   1.780
14283SOL    HW191688  14.546   9.485   1.729
14283SOL    HW291689  14.426   9.481   1.840
14284SOL     OW91690   0.345  10.540   1.661
14284SOL    HW191691   0.421  10.603   1.646
14284SOL    HW291692   0.360  10.489   1.746
14285SOL     OW91693  16.821  10.490   0.680
14285SOL    HW191694  16.733  10.494   0.634
14285SOL    HW291695  16.869  10.576   0.668
14286SOL     OW91696   2.560   1.694   0.982
14286SOL    HW191697   2.527   1.725   1.072
14286SOL    HW291698   2.632   1.626   0.995
14287SOL     OW91699  13.677   0.807   1.408
14287SOL    HW191700  13.699   0.765   1.320
14287SOL    HW291701  13.581   0.788   1.431
14288SOL     OW91702  12.810   0.745   1.717
14288SOL    HW191703  12.794   0.831   1.668
14288SOL    HW291704  12.749   0.740   1.796
14289SOL     OW91705   2.297   0.642   8.058
14289SOL    HW191706   2.235   0.677   7.988
14289SOL    HW291707   2.276   0.685   8.146
14290SOL     OW91708  12.447   8.997   6.972
14290SOL    HW191709  12.546   8.990   6.988
14290SOL    HW291710  12.431   9.055   6.892
14291SOL     OW91711  11.635  13.287   8.162
14291SOL    HW191712  11.539  13.307   8.178
14291SOL    HW291713  11.679  13.263   8.249
14292SOL     OW91714   5.654   5.173   7.558
14292SOL    HW191715   5.744   5.147   7.593
14292SOL    HW291716   5.655   5.169   7.458
14293SOL     OW91717   1.890  12.885   1.280
14293SOL    HW191718   1.853  12.867   1.189
14293SOL    HW291719   1.819  12.871   1.348
14294SOL     OW91720   5.492   7.711   7.080
14294SOL    HW191721   5.543   7.663   7.152
14294SOL    HW291722   5.477   7.648   7.003
14295SOL     OW91723   5.677  10.443   7.284
14295SOL    HW191724   5.761  10.443   7.339
14295SOL    HW291725   5.598  10.453   7.344
14296SOL     OW91726   3.533   0.616   0.125
14296SOL    HW191727   3.499   0.671   0.048
14296SOL    HW291728   3.464   0.548   0.149
14297SOL     OW91729   8.143   3.330   0.188
14297SOL    HW191730   8.098   3.277   0.116
14297SOL    HW291731   8.235   3.354   0.160
14298SOL     OW91732   0.692   5.397   0.585
14298SOL    HW191733   0.720   5.493   0.575
14298SOL    HW291734   0.749   5.352   0.653
14299SOL     OW91735   7.212  13.372   0.042
14299SOL    HW191736   7.136  13.340   0.099
14299SOL    HW291737   7.263  13.293   0.007
14300SOL     OW91738   3.706  14.425   1.366
14300SOL    HW191739   3.793  14.377   1.355
14300SOL    HW291740   3.676  14.459   1.277
14301SOL     OW91741   9.031  10.946   1.354
14301SOL    HW191742   8.951  10.895   1.323
14301SOL    HW291743   9.082  10.980   1.275
14302SOL     OW91744  11.803   9.220   0.373
14302SOL    HW191745  11.766   9.239   0.463
14302SOL    HW291746  11.858   9.137   0.376
14303SOL     OW91747   5.651  16.942   7.483
14303SOL    HW191748   5.559  16.945   7.521
14303SOL    HW291749   5.706  16.875   7.532
14304SOL     OW91750   3.547  11.078   7.098
14304SOL    HW191751   3.539  11.115   7.006
14304SOL    HW291752   3.634  11.106   7.138
14305SOL     OW91753   2.063  14.869   0.465
14305SOL    HW191754   2.037  14.877   0.368
14305SOL    HW291755   1.993  14.912   0.522
14306SOL     OW91756   9.996   9.060   7.518
14306SOL    HW191757   9.918   9.122   7.525
14306SOL    HW291758  10.008   9.032   7.423
14307SOL     OW91759   0.234   2.399   6.551
14307SOL    HW191760   0.198   2.379   6.460
14307SOL    HW291761   0.295   2.325   6.580
14308SOL     OW91762  13.957   8.184   6.936
14308SOL    HW191763  13.983   8.190   6.839
14308SOL    HW291764  13.985   8.268   6.983
14309SOL     OW91765  15.362  11.461   0.964
14309SOL    HW191766  15.316  11.389   0.912
14309SOL    HW291767  15.431  11.420   1.023
14310SOL     OW91768   3.902  13.188   7.734
14310SOL    HW191769   3.917  13.252   7.810
14310SOL    HW291770   3.862  13.103   7.769
14311SOL     OW91771   3.857  11.690   1.260
14311SOL    HW191772   3.829  11.785   1.272
14311SOL    HW291773   3.939  11.686   1.202
14312SOL     OW91774  10.418   2.347   6.524
14312SOL    HW191775  10.381   2.327   6.434
14312SOL    HW291776  10.518   2.337   6.522
14313SOL     OW91777   4.839   0.508   7.889
14313SOL    HW191778   4.871   0.495   7.983
14313SOL    HW291779   4.746   0.472   7.881
14314SOL     OW91780   9.885   1.056   0.635
14314SOL    HW191781   9.924   1.031   0.546
14314SOL    HW291782   9.801   1.004   0.650
14315SOL     OW91783  16.631   9.875   1.215
14315SOL    HW191784  16.683   9.953   1.250
14315SOL    HW291785  16.556   9.855   1.277
14316SOL     OW91786   4.440  14.980   1.274
14316SOL    HW191787   4.540  14.981   1.279
14316SOL    HW291788   4.402  14.954   1.363
14317SOL     OW91789  14.642   0.940   0.123
14317SOL    HW191790  14.641   0.843   0.146
14317SOL    HW291791  14.737   0.972   0.119
14318SOL     OW91792   7.067  13.824   0.025
14318SOL    HW191793   7.107  13.875   8.403
14318SOL    HW291794   7.076  13.726   0.008
14319SOL     OW91795   8.436  10.511   8.215
14319SOL    HW191796   8.425  10.542   8.309
14319SOL    HW291797   8.348  10.519   8.167
14320SOL     OW91798   9.231  13.858   1.501
14320SOL    HW191799   9.178  13.931   1.544
14320SOL    HW291800   9.328  13.868   1.525
14321SOL     OW91801   1.617   3.482   7.000
14321SOL    HW191802   1.675   3.401   7.003
14321SOL    HW291803   1.670   3.559   6.964
14322SOL     OW91804   9.403   6.843   8.103
14322SOL    HW191805   9.381   6.920   8.163
14322SOL    HW291806   9.445   6.878   8.019
14323SOL     OW91807   8.646   9.680   6.718
14323SOL    HW191808   8.561   9.680   6.771
14323SOL    HW291809   8.718   9.634   6.771
14324SOL     OW91810  12.926   5.688   7.438
14324SOL    HW191811  12.875   5.718   7.357
14324SOL    HW291812  13.003   5.749   7.453
14325SOL     OW91813  12.116   8.435   6.865
14325SOL    HW191814  12.061   8.455   6.784
14325SOL    HW291815  12.168   8.350   6.850
14326SOL     OW91816  10.611   6.290   7.915
14326SOL    HW191817  10.610   6.310   8.013
14326SOL    HW291818  10.553   6.356   7.867
14327SOL     OW91819   4.083   5.236   0.577
14327SOL    HW191820   4.181   5.224   0.569
14327SOL    HW291821   4.045   5.164   0.635
14328SOL     OW91822  15.105  15.282   1.699
14328SOL    HW191823  15.163  15.316   1.773
14328SOL    HW291824  15.106  15.347   1.623
14329SOL     OW91825   3.651   8.324   8.407
14329SOL    HW191826   3.688   8.240   8.368
14329SOL    HW291827   3.564   8.304   8.451
14330SOL     OW91828  15.380   2.826   8.233
14330SOL    HW191829  15.356   2.847   8.138
14330SOL    HW291830  15.301   2.846   8.292
14331SOL     OW91831   4.209  16.617   7.813
14331SOL    HW191832   4.276  16.634   7.885
14331SOL    HW291833   4.132  16.565   7.850
14332SOL     OW91834   2.642  15.444   1.784
14332SOL    HW191835   2.549  15.457   1.751
14332SOL    HW291836   2.672  15.525   1.834
14333SOL     OW91837   0.985   3.177   7.512
14333SOL    HW191838   0.915   3.148   7.447
14333SOL    HW291839   0.941   3.217   7.592
14334SOL     OW91840   3.788  16.839   0.492
14334SOL    HW191841   3.814  16.924   0.538
14334SOL    HW291842   3.764  16.859   0.397
14335SOL     OW91843   5.917   2.525   2.101
14335SOL    HW191844   5.938   2.495   2.194
14335SOL    HW291845   5.875   2.616   2.104
14336SOL     OW91846  11.520  16.327   1.673
14336SOL    HW191847  11.422  16.343   1.665
14336SOL    HW291848  11.561  16.398   1.731
14337SOL     OW91849  11.862   5.511   1.094
14337SOL    HW191850  11.907   5.433   1.137
14337SOL    HW291851  11.788   5.544   1.153
14338SOL     OW91852   4.350   1.018   8.126
14338SOL    HW191853   4.363   0.991   8.221
14338SOL    HW291854   4.380   0.944   8.066
14339SOL     OW91855   8.636   8.419   8.322
14339SOL    HW191856   8.645   8.515   8.298
14339SOL    HW291857   8.695   8.364   8.263
14340SOL     OW91858   0.283   6.416   7.990
14340SOL    HW191859   0.187   6.402   8.013
14340SOL    HW291860   0.295   6.413   7.891
14341SOL     OW91861  15.881   4.632   0.544
14341SOL    HW191862  15.817   4.558   0.568
14341SOL    HW291863  15.886   4.697   0.619
14342SOL     OW91864  14.616  16.573   7.820
14342SOL    HW191865  14.687  16.510   7.851
14342SOL    HW291866  14.658  16.659   7.791
14343SOL     OW91867   1.853   1.053   8.343
14343SOL    HW191868   1.827   1.053   8.439
14343SOL    HW291869   1.865   0.959   8.311
14344SOL     OW91870   0.155  12.573   7.397
14344SOL    HW191871   0.229  12.562   7.330
14344SOL    HW291872   0.067  12.566   7.351
14345SOL     OW91873   4.512   4.848   0.969
14345SOL    HW191874   4.585   4.782   0.954
14345SOL    HW291875   4.550   4.940   0.970
14346SOL     OW91876  13.434   2.126   1.586
14346SOL    HW191877  13.350   2.178   1.570
14346SOL    HW291878  13.499   2.182   1.638
14347SOL     OW91879   0.252   1.085   2.311
14347SOL    HW191880   0.186   1.015   2.337
14347SOL    HW291881   0.343   1.059   2.344
14348SOL     OW91882  15.067   7.781   1.363
14348SOL    HW191883  15.051   7.838   1.282
14348SOL    HW291884  15.000   7.803   1.434
14349SOL     OW91885   7.928  14.777   2.417
14349SOL    HW191886   7.900  14.873   2.407
14349SOL    HW291887   7.935  14.735   2.326
14350SOL     OW91888   0.388   1.481   7.928
14350SOL    HW191889   0.429   1.518   8.011
14350SOL    HW291890   0.359   1.386   7.945
14351SOL     OW91891   9.093   4.948   7.298
14351SOL    HW191892   9.188   4.959   7.271
14351SOL    HW291893   9.085   4.871   7.362
14352SOL     OW91894  15.851   3.222   7.617
14352SOL    HW191895  15.780   3.153   7.604
14352SOL    HW291896  15.830   3.303   7.561
14353SOL     OW91897   1.400   1.489   0.316
14353SOL    HW191898   1.302   1.500   0.332
14353SOL    HW291899   1.419   1.496   0.218
14354SOL     OW91900   9.972   1.563   1.556
14354SOL    HW191901   9.920   1.494   1.606
14354SOL    HW291902  10.060   1.524   1.527
14355SOL     OW91903  14.401   9.556   6.448
14355SOL    HW191904  14.465   9.633   6.453
14355SOL    HW291905  14.344   9.564   6.367
14356SOL     OW91906  15.514   9.374   7.386
14356SOL    HW191907  15.515   9.318   7.302
14356SOL    HW291908  15.572   9.454   7.373
14357SOL     OW91909   2.458  12.690   7.128
14357SOL    HW191910   2.401  12.771   7.114
14357SOL    HW291911   2.548  12.718   7.161
14358SOL     OW91912  11.087   0.989   7.785
14358SOL    HW191913  11.000   1.011   7.828
14358SOL    HW291914  11.083   0.898   7.745
14359SOL     OW91915   1.672  16.903   2.006
14359SOL    HW191916   1.584  16.905   1.959
14359SOL    HW291917   1.658  16.884   2.103
14360SOL     OW91918  11.961   1.179   7.148
14360SOL    HW191919  11.982   1.119   7.226
14360SOL    HW291920  11.977   1.274   7.174
14361SOL     OW91921   4.405   1.718   6.942
14361SOL    HW191922   4.432   1.684   6.852
14361SOL    HW291923   4.339   1.793   6.932
14362SOL     OW91924   4.008   9.241   1.114
14362SOL    HW191925   3.963   9.152   1.113
14362SOL    HW291926   3.949   9.308   1.159
14363SOL     OW91927  11.688   4.228   6.541
14363SOL    HW191928  11.716   4.166   6.614
14363SOL    HW291929  11.599   4.200   6.506
14364SOL     OW91930   1.858   1.313   1.027
14364SOL    HW191931   1.867   1.217   0.999
14364SOL    HW291932   1.925   1.368   0.978
14365SOL     OW91933   7.781   9.110   7.513
14365SOL    HW191934   7.703   9.126   7.453
14365SOL    HW291935   7.858   9.168   7.484
14366SOL     OW91936   6.788  12.294   7.903
14366SOL    HW191937   6.796  12.195   7.912
14366SOL    HW291938   6.835  12.324   7.820
14367SOL     OW91939  11.125   0.355   8.206
14367SOL    HW191940  11.133   0.258   8.228
14367SOL    HW291941  11.210   0.387   8.164
14368SOL     OW91942   9.900   8.529   0.402
14368SOL    HW191943   9.805   8.551   0.379
14368SOL    HW291944   9.938   8.601   0.460
14369SOL     OW91945  13.031   4.538   7.672
14369SOL    HW191946  13.077   4.527   7.760
14369SOL    HW291947  13.084   4.490   7.601
14370SOL     OW91948  14.314   4.114   5.617
14370SOL    HW191949  14.299   4.209   5.589
14370SOL    HW291950  14.242   4.056   5.579
14371SOL     OW91951   8.035  13.028   6.854
14371SOL    HW191952   8.122  13.078   6.850
14371SOL    HW291953   8.043  12.942   6.804
14372SOL     OW91954   2.940  10.181   7.110
14372SOL    HW191955   2.880  10.111   7.072
14372SOL    HW291956   2.960  10.250   7.040
14373SOL     OW91957  12.071   6.940   1.377
14373SOL    HW191958  12.099   6.898   1.463
14373SOL    HW291959  11.996   7.004   1.394
14374SOL     OW91960   9.604  12.790   7.933
14374SOL    HW191961   9.637  12.804   8.027
14374SOL    HW291962   9.596  12.692   7.915
14375SOL     OW91963   1.096   7.224   6.511
14375SOL    HW191964   1.151   7.216   6.428
14375SOL    HW291965   1.141   7.174   6.585
14376SOL     OW91966  10.090  10.725   8.263
14376SOL    HW191967   9.995  10.754   8.276
14376SOL    HW291968  10.127  10.693   8.351
14377SOL     OW91969   3.491   6.249   2.288
14377SOL    HW191970   3.526   6.166   2.331
14377SOL    HW291971   3.556   6.324   2.301
14378SOL     OW91972  11.242  16.327   1.364
14378SOL    HW191973  11.248  16.325   1.464
14378SOL    HW291974  11.282  16.244   1.327
14379SOL     OW91975  16.297   2.039   7.061
14379SOL    HW191976  16.200   2.053   7.079
14379SOL    HW291977  16.326   1.953   7.103
14380SOL     OW91978   9.719  13.106   8.061
14380SOL    HW191979   9.772  13.081   8.142
14380SOL    HW291980   9.774  13.091   7.979
14381SOL     OW91981   5.940  15.985   7.615
14381SOL    HW191982   6.024  15.958   7.661
14381SOL    HW291983   5.875  15.908   7.616
14382SOL     OW91984   7.697   6.113   1.403
14382SOL    HW191985   7.717   6.043   1.471
14382SOL    HW291986   7.600   6.111   1.380
14383SOL     OW91987  10.582  14.499   6.397
14383SOL    HW191988  10.632  14.586   6.393
14383SOL    HW291989  10.574  14.461   6.305
14384SOL     OW91990  16.374   3.588   5.893
14384SOL    HW191991  16.360   3.663   5.829
14384SOL    HW291992  16.345   3.502   5.850
14385SOL     OW91993   7.382  15.967   6.134
14385SOL    HW191994   7.458  16.029   6.116
14385SOL    HW291995   7.418  15.875   6.151
14386SOL     OW91996  11.065   7.504   0.096
14386SOL    HW191997  11.127   7.575   0.062
14386SOL    HW291998  11.047   7.520   0.193
14387SOL     OW91999   4.849  12.622   1.587
14387SOL    HW192000   4.928  12.669   1.627
14387SOL    HW292001   4.781  12.690   1.559
14388SOL     OW92002  16.239  15.294   7.875
14388SOL    HW192003  16.232  15.391   7.853
14388SOL    HW292004  16.148  15.258   7.893
14389SOL     OW92005   4.095  12.413   6.803
14389SOL    HW192006   4.129  12.483   6.740
14389SOL    HW292007   4.006  12.440   6.839
14390SOL     OW92008   2.289   5.106   7.444
14390SOL    HW192009   2.297   5.136   7.349
14390SOL    HW292010   2.363   5.146   7.498
14391SOL     OW92011   3.621  12.072   8.360
14391SOL    HW192012   3.582  11.983   8.336
14391SOL    HW292013   3.640  12.124   8.276
14392SOL     OW92014   3.839   6.210   8.160
14392SOL    HW192015   3.785   6.173   8.084
14392SOL    HW292016   3.843   6.310   8.152
14393SOL     OW92017   6.973  14.282   1.300
14393SOL    HW192018   6.923  14.219   1.359
14393SOL    HW292019   7.050  14.320   1.351
14394SOL     OW92020   5.115  13.703   1.217
14394SOL    HW192021   5.039  13.767   1.223
14394SOL    HW292022   5.086  13.621   1.168
14395SOL     OW92023   5.559  12.764   6.396
14395SOL    HW192024   5.560  12.725   6.488
14395SOL    HW292025   5.464  12.779   6.368
14396SOL     OW92026  14.177  16.893   1.164
14396SOL    HW192027  14.101  16.895   1.099
14396SOL    HW292028  14.142  16.894   1.257
14397SOL     OW92029  10.728   4.935   0.364
14397SOL    HW192030  10.676   5.019   0.375
14397SOL    HW292031  10.742   4.917   0.266
14398SOL     OW92032  12.319  11.889   0.900
14398SOL    HW192033  12.244  11.944   0.862
14398SOL    HW292034  12.294  11.857   0.991
14399SOL     OW92035  11.116   3.728   7.252
14399SOL    HW192036  11.113   3.823   7.283
14399SOL    HW292037  11.190   3.717   7.186
14400SOL     OW92038  10.663  13.892   1.110
14400SOL    HW192039  10.746  13.941   1.082
14400SOL    HW292040  10.611  13.949   1.173
14401SOL     OW92041   7.900   9.630   6.569
14401SOL    HW192042   7.984   9.612   6.519
14401SOL    HW292043   7.823   9.587   6.521
14402SOL     OW92044  12.247   8.877   7.389
14402SOL    HW192045  12.192   8.842   7.314
14402SOL    HW292046  12.245   8.813   7.465
14403SOL     OW92047   4.782   1.348   1.041
14403SOL    HW192048   4.791   1.445   1.061
14403SOL    HW292049   4.821   1.295   1.116
14404SOL     OW92050  13.418   6.347   7.845
14404SOL    HW192051  13.333   6.397   7.828
14404SOL    HW292052  13.451   6.366   7.937
14405SOL     OW92053   2.334   4.761   0.583
14405SOL    HW192054   2.250   4.710   0.566
14405SOL    HW292055   2.373   4.792   0.496
14406SOL     OW92056   0.718   2.961   0.646
14406SOL    HW192057   0.619   2.965   0.661
14406SOL    HW292058   0.754   3.053   0.631
14407SOL     OW92059  14.815  13.915   0.048
14407SOL    HW192060  14.912  13.940   0.052
14407SOL    HW292061  14.804  13.819   0.075
14408SOL     OW92062   9.368   3.621   6.945
14408SOL    HW192063   9.321   3.594   7.028
14408SOL    HW292064   9.378   3.541   6.885
14409SOL     OW92065   4.356  14.560   1.255
14409SOL    HW192066   4.304  14.626   1.201
14409SOL    HW292067   4.397  14.606   1.334
14410SOL     OW92068   3.327  11.354   2.619
14410SOL    HW192069   3.380  11.282   2.573
14410SOL    HW292070   3.347  11.352   2.717
14411SOL     OW92071   1.879  14.193   0.525
14411SOL    HW192072   1.839  14.234   0.607
14411SOL    HW292073   1.807  14.178   0.456
14412SOL     OW92074  11.160   1.792   6.267
14412SOL    HW192075  11.104   1.873   6.284
14412SOL    HW292076  11.101   1.712   6.255
14413SOL     OW92077  11.521   9.355   6.644
14413SOL    HW192078  11.507   9.409   6.561
14413SOL    HW292079  11.435   9.310   6.669
14414SOL     OW92080   4.935   6.224   2.127
14414SOL    HW192081   4.959   6.278   2.046
14414SOL    HW292082   4.961   6.275   2.209
14415SOL     OW92083  15.501   1.166   1.123
14415SOL    HW192084  15.591   1.175   1.165
14415SOL    HW292085  15.494   1.077   1.077
14416SOL     OW92086   8.548  14.548   6.996
14416SOL    HW192087   8.561  14.612   6.921
14416SOL    HW292088   8.519  14.597   7.078
14417SOL     OW92089  11.858  14.328   0.882
14417SOL    HW192090  11.879  14.292   0.791
14417SOL    HW292091  11.806  14.413   0.873
14418SOL     OW92092  16.061   4.048   8.190
14418SOL    HW192093  16.101   4.051   8.099
14418SOL    HW292094  16.024   4.137   8.214
14419SOL     OW92095  12.036   3.115   1.341
14419SOL    HW192096  11.953   3.070   1.310
14419SOL    HW292097  12.077   3.062   1.415
14420SOL     OW92098   3.957  11.751   0.401
14420SOL    HW192099   3.986  11.842   0.431
14420SOL    HW292100   4.033  11.686   0.414
14421SOL     OW92101  10.685   6.983   7.730
14421SOL    HW192102  10.731   7.039   7.799
14421SOL    HW292103  10.648   7.043   7.659
14422SOL     OW92104  14.371   3.469   6.483
14422SOL    HW192105  14.294   3.418   6.444
14422SOL    HW292106  14.395   3.430   6.572
14423SOL     OW92107  12.010   5.861   8.172
14423SOL    HW192108  12.105   5.853   8.201
14423SOL    HW292109  11.975   5.771   8.147
14424SOL     OW92110  13.773   9.162   0.767
14424SOL    HW192111  13.745   9.107   0.846
14424SOL    HW292112  13.820   9.103   0.701
14425SOL     OW92113  11.952   2.115   7.202
14425SOL    HW192114  11.872   2.060   7.180
14425SOL    HW292115  11.939   2.159   7.291
14426SOL     OW92116   2.103   0.793   0.705
14426SOL    HW192117   2.072   0.848   0.628
14426SOL    HW292118   2.023   0.757   0.754
14427SOL     OW92119   9.728   3.611   7.679
14427SOL    HW192120   9.781   3.586   7.760
14427SOL    HW292121   9.786   3.604   7.597
14428SOL     OW92122  10.103   9.487   8.248
14428SOL    HW192123  10.152   9.466   8.333
14428SOL    HW292124  10.047   9.409   8.222
14429SOL     OW92125  13.362   5.995   7.597
14429SOL    HW192126  13.441   5.956   7.646
14429SOL    HW292127  13.309   6.053   7.660
14430SOL     OW92128   8.610   9.948   7.069
14430SOL    HW192129   8.636  10.024   7.009
14430SOL    HW292130   8.665   9.868   7.045
14431SOL     OW92131   0.306   3.829   0.045
14431SOL    HW192132   0.249   3.903   0.010
14431SOL    HW292133   0.325   3.764   8.426
14432SOL     OW92134  12.267  11.150   0.940
14432SOL    HW192135  12.358  11.110   0.941
14432SOL    HW292136  12.233  11.152   0.846
14433SOL     OW92137   7.427   3.123   1.754
14433SOL    HW192138   7.410   3.220   1.768
14433SOL    HW292139   7.463   3.082   1.838
14434SOL     OW92140   2.567   1.674   8.300
14434SOL    HW192141   2.483   1.697   8.349
14434SOL    HW292142   2.646   1.711   8.348
14435SOL     OW92143   1.135  15.107   8.278
14435SOL    HW192144   1.195  15.099   8.198
14435SOL    HW292145   1.040  15.110   8.247
14436SOL     OW92146  12.811   1.700   0.036
14436SOL    HW192147  12.718   1.707   0.071
14436SOL    HW292148  12.821   1.760   8.410
14437SOL     OW92149  12.398   7.086   1.156
14437SOL    HW192150  12.497   7.089   1.161
14437SOL    HW292151  12.364   7.003   1.200
14438SOL     OW92152  13.331   8.735   6.256
14438SOL    HW192153  13.241   8.776   6.244
14438SOL    HW292154  13.347   8.667   6.184
14439SOL     OW92155   1.489   0.989   7.376
14439SOL    HW192156   1.500   1.071   7.432
14439SOL    HW292157   1.567   0.929   7.390
14440SOL     OW92158  11.303   5.742   8.200
14440SOL    HW192159  11.308   5.737   8.300
14440SOL    HW292160  11.214   5.778   8.173
14441SOL     OW92161  14.943  14.735   1.920
14441SOL    HW192162  14.921  14.638   1.920
14441SOL    HW292163  14.895  14.779   1.844
14442SOL     OW92164   6.663  16.272   6.696
14442SOL    HW192165   6.576  16.249   6.651
14442SOL    HW292166   6.679  16.370   6.690
14443SOL     OW92167   7.895  14.733   7.124
14443SOL    HW192168   7.946  14.818   7.137
14443SOL    HW292169   7.797  14.754   7.112
14444SOL     OW92170  11.949   9.027   1.537
14444SOL    HW192171  12.026   8.979   1.579
14444SOL    HW292172  11.917   9.100   1.599
14445SOL     OW92173   9.290   0.670   6.586
14445SOL    HW192174   9.287   0.769   6.571
14445SOL    HW292175   9.299   0.624   6.498
14446SOL     OW92176   7.536   1.124   7.238
14446SOL    HW192177   7.445   1.102   7.275
14446SOL    HW292178   7.598   1.047   7.255
14447SOL     OW92179   9.801   3.131   0.808
14447SOL    HW192180   9.788   3.090   0.899
14447SOL    HW292181   9.892   3.171   0.802
14448SOL     OW92182   9.955  10.419   2.064
14448SOL    HW192183   9.993  10.329   2.044
14448SOL    HW292184  10.011  10.464   2.134
14449SOL     OW92185  12.916   1.190   8.066
14449SOL    HW192186  12.821   1.219   8.068
14449SOL    HW292187  12.921   1.091   8.050
14450SOL     OW92188  11.909   8.815   0.049
14450SOL    HW192189  11.839   8.886   0.061
14450SOL    HW292190  11.864   8.726   0.043
14451SOL     OW92191   6.336  10.207   7.794
14451SOL    HW192192   6.424  10.180   7.833
14451SOL    HW292193   6.283  10.125   7.771
14452SOL     OW92194  13.176   2.178   0.319
14452SOL    HW192195  13.144   2.245   0.385
14452SOL    HW292196  13.238   2.221   0.253
14453SOL     OW92197  10.418   9.074   7.459
14453SOL    HW192198  10.417   8.974   7.459
14453SOL    HW292199  10.412   9.107   7.365
14454SOL     OW92200  13.045   7.988   1.747
14454SOL    HW192201  13.074   7.921   1.679
14454SOL    HW292202  13.107   7.985   1.826
14455SOL     OW92203  11.033  16.935   6.247
14455SOL    HW192204  11.099   0.010   6.200
14455SOL    HW292205  10.982  16.881   6.180
14456SOL     OW92206  10.482  10.743   7.674
14456SOL    HW192207  10.435  10.723   7.760
14456SOL    HW292208  10.425  10.714   7.597
14457SOL     OW92209  13.138   3.833   7.896
14457SOL    HW192210  13.197   3.884   7.958
14457SOL    HW292211  13.078   3.896   7.846
14458SOL     OW92212  13.339  13.337   0.159
14458SOL    HW192213  13.347  13.246   0.198
14458SOL    HW292214  13.244  13.367   0.163
14459SOL     OW92215  12.464   6.756   7.927
14459SOL    HW192216  12.394   6.693   7.958
14459SOL    HW292217  12.553   6.712   7.929
14460SOL     OW92218  11.631   9.401   7.248
14460SOL    HW192219  11.568   9.415   7.171
14460SOL    HW292220  11.725   9.401   7.213
14461SOL     OW92221   0.608  16.291   1.492
14461SOL    HW192222   0.622  16.196   1.465
14461SOL    HW292223   0.679  16.318   1.557
14462SOL     OW92224   3.266   5.356   1.633
14462SOL    HW192225   3.281   5.335   1.536
14462SOL    HW292226   3.183   5.309   1.664
14463SOL     OW92227   2.780   0.326   2.484
14463SOL    HW192228   2.765   0.368   2.574
14463SOL    HW292229   2.725   0.373   2.415
14464SOL     OW92230  14.999   7.888   8.223
14464SOL    HW192231  14.947   7.883   8.308
14464SOL    HW292232  14.936   7.886   8.145
14465SOL     OW92233   2.053   9.308   6.893
14465SOL    HW192234   2.139   9.277   6.851
14465SOL    HW292235   2.009   9.374   6.832
14466SOL     OW92236   2.326   7.576   8.334
14466SOL    HW192237   2.308   7.615   8.424
14466SOL    HW292238   2.253   7.512   8.311
14467SOL     OW92239   6.001  12.184   6.236
14467SOL    HW192240   5.953  12.097   6.224
14467SOL    HW292241   6.048  12.208   6.151
14468SOL     OW92242   3.661   2.965   1.021
14468SOL    HW192243   3.640   2.869   1.039
14468SOL    HW292244   3.602   3.024   1.076
14469SOL     OW92245   7.872   1.002   7.707
14469SOL    HW192246   7.876   0.904   7.723
14469SOL    HW292247   7.788   1.039   7.747
14470SOL     OW92248  13.879   6.003   0.556
14470SOL    HW192249  13.808   6.028   0.622
14470SOL    HW292250  13.848   5.925   0.501
14471SOL     OW92251  15.351   1.567   8.374
14471SOL    HW192252  15.330   1.598   0.012
14471SOL    HW292253  15.397   1.478   8.379
14472SOL     OW92254  10.647   2.420   7.556
14472SOL    HW192255  10.590   2.398   7.477
14472SOL    HW292256  10.666   2.336   7.608
14473SOL     OW92257  14.096  16.032   1.562
14473SOL    HW192258  14.045  16.068   1.640
14473SOL    HW292259  14.159  16.102   1.528
14474SOL     OW92260  12.907   5.185   7.955
14474SOL    HW192261  12.836   5.235   8.005
14474SOL    HW292262  12.865   5.118   7.894
14475SOL     OW92263   6.125  11.336   1.246
14475SOL    HW192264   6.135  11.418   1.190
14475SOL    HW292265   6.028  11.312   1.252
14476SOL     OW92266  10.952  13.773   0.027
14476SOL    HW192267  11.047  13.805   0.023
14476SOL    HW292268  10.910  13.802   0.112
14477SOL     OW92269  16.304   1.514   8.439
14477SOL    HW192270  16.347   1.426   0.003
14477SOL    HW292271  16.287   1.524   8.341
14478SOL     OW92272  10.732   3.555   6.235
14478SOL    HW192273  10.699   3.579   6.144
14478SOL    HW292274  10.691   3.468   6.263
14479SOL     OW92275   6.829  11.164   6.579
14479SOL    HW192276   6.749  11.104   6.582
14479SOL    HW292277   6.912  11.109   6.576
14480SOL     OW92278   0.325   1.354   8.395
14480SOL    HW192279   0.301   1.257   8.401
14480SOL    HW292280   0.242   1.409   8.388
14481SOL     OW92281   8.005  10.007   7.828
14481SOL    HW192282   7.929   9.999   7.763
14481SOL    HW292283   8.091  10.019   7.779
14482SOL     OW92284  14.046  16.524   0.079
14482SOL    HW192285  14.048  16.495   0.174
14482SOL    HW292286  14.131  16.496   0.034
14483SOL     OW92287   5.672  15.870   1.262
14483SOL    HW192288   5.609  15.792   1.271
14483SOL    HW292289   5.632  15.950   1.307
14484SOL     OW92290   9.583  13.155   0.516
14484SOL    HW192291   9.669  13.205   0.515
14484SOL    HW292292   9.573  13.107   0.604
14485SOL     OW92293   0.152  15.654   0.260
14485SOL    HW192294   0.229  15.670   0.321
14485SOL    HW292295   0.134  15.736   0.206
14486SOL     OW92296   0.024   0.482   7.708
14486SOL    HW192297   0.092   0.511   7.775
14486SOL    HW292298  16.960   0.562   7.671
14487SOL     OW92299  11.276  13.620   2.025
14487SOL    HW192300  11.290  13.703   2.079
14487SOL    HW292301  11.262  13.645   1.929
14488SOL     OW92302  15.344  12.006   7.586
14488SOL    HW192303  15.430  11.963   7.613
14488SOL    HW292304  15.327  11.989   7.489
14489SOL     OW92305  13.513  13.034   7.108
14489SOL    HW192306  13.420  13.001   7.089
14489SOL    HW292307  13.512  13.134   7.112
14490SOL     OW92308  10.863  11.649   7.993
14490SOL    HW192309  10.876  11.696   7.906
14490SOL    HW292310  10.934  11.581   8.006
14491SOL     OW92311   6.555   2.990   6.885
14491SOL    HW192312   6.590   3.059   6.949
14491SOL    HW292313   6.457   3.002   6.873
14492SOL     OW92314  16.461  14.396   1.584
14492SOL    HW192315  16.541  14.455   1.576
14492SOL    HW292316  16.380  14.444   1.549
14493SOL     OW92317   3.118  16.643   0.869
14493SOL    HW192318   3.154  16.623   0.778
14493SOL    HW292319   3.116  16.559   0.923
14494SOL     OW92320   5.799   5.273   8.120
14494SOL    HW192321   5.805   5.276   8.020
14494SOL    HW292322   5.762   5.184   8.148
14495SOL     OW92323   4.255   5.945   0.699
14495SOL    HW192324   4.302   5.863   0.667
14495SOL    HW292325   4.206   5.987   0.623
14496SOL     OW92326   5.120  11.185   1.712
14496SOL    HW192327   5.142  11.202   1.808
14496SOL    HW292328   5.051  11.113   1.706
14497SOL     OW92329  10.306   3.279   0.035
14497SOL    HW192330  10.400   3.255   0.058
14497SOL    HW292331  10.286   3.371   0.069
14498SOL     OW92332  11.235   9.906   7.837
14498SOL    HW192333  11.165   9.854   7.885
14498SOL    HW292334  11.218  10.004   7.849
14499SOL     OW92335  15.767  11.472   1.462
14499SOL    HW192336  15.854  11.519   1.476
14499SOL    HW292337  15.741  11.480   1.365
14500SOL     OW92338  14.282   2.335   0.384
14500SOL    HW192339  14.313   2.293   0.469
14500SOL    HW292340  14.195   2.381   0.400
14501SOL     OW92341   9.441   3.251   7.033
14501SOL    HW192342   9.375   3.225   7.103
14501SOL    HW292343   9.394   3.298   6.958
14502SOL     OW92344  14.134   2.343   5.985
14502SOL    HW192345  14.197   2.420   5.987
14502SOL    HW292346  14.083   2.343   5.899
14503SOL     OW92347   9.956   6.027   0.244
14503SOL    HW192348   9.900   6.093   0.194
14503SOL    HW292349   9.897   5.961   0.290
14504SOL     OW92350   8.145  12.680   7.424
14504SOL    HW192351   8.219  12.661   7.359
14504SOL    HW292352   8.057  12.654   7.384
14505SOL     OW92353   2.744   8.551   1.216
14505SOL    HW192354   2.757   8.642   1.257
14505SOL    HW292355   2.787   8.549   1.127
14506SOL     OW92356  13.329   8.564   1.536
14506SOL    HW192357  13.321   8.507   1.618
14506SOL    HW292358  13.421   8.556   1.498
14507SOL     OW92359  11.007  15.914   0.524
14507SOL    HW192360  10.925  15.856   0.517
14507SOL    HW292361  11.034  15.944   0.432
14508SOL     OW92362   4.476   9.309   7.323
14508SOL    HW192363   4.401   9.343   7.380
14508SOL    HW292364   4.526   9.387   7.285
14509SOL     OW92365   9.921   5.964   6.710
14509SOL    HW192366  10.018   5.977   6.688
14509SOL    HW292367   9.902   5.998   6.802
14510SOL     OW92368   9.757  10.335   1.714
14510SOL    HW192369   9.737  10.279   1.794
14510SOL    HW292370   9.851  10.319   1.685
14511SOL     OW92371  14.623   2.156   0.181
14511SOL    HW192372  14.524   2.169   0.184
14511SOL    HW292373  14.644   2.069   0.136
14512SOL     OW92374  14.803   0.375   5.854
14512SOL    HW192375  14.840   0.294   5.899
14512SOL    HW292376  14.875   0.417   5.798
14513SOL     OW92377  16.912   1.215   6.816
14513SOL    HW192378  16.920   1.172   6.726
14513SOL    HW292379  16.862   1.155   6.878
14514SOL     OW92380  15.779   9.056   0.476
14514SOL    HW192381  15.716   8.980   0.461
14514SOL    HW292382  15.729   9.142   0.476
14515SOL     OW92383   0.908  13.365   0.416
14515SOL    HW192384   0.964  13.319   0.486
14515SOL    HW292385   0.829  13.407   0.460
14516SOL     OW92386  10.672  16.027   0.315
14516SOL    HW192387  10.607  15.951   0.319
14516SOL    HW292388  10.696  16.055   0.408
14517SOL     OW92389   6.220  12.424   6.859
14517SOL    HW192390   6.264  12.476   6.786
14517SOL    HW292391   6.215  12.327   6.833
14518SOL     OW92392   9.178  16.387   7.000
14518SOL    HW192393   9.198  16.469   6.945
14518SOL    HW292394   9.249  16.318   6.983
14519SOL     OW92395   5.327  15.492   0.455
14519SOL    HW192396   5.306  15.410   0.508
14519SOL    HW292397   5.422  15.519   0.471
14520SOL     OW92398  14.206  11.514   1.478
14520SOL    HW192399  14.164  11.446   1.417
14520SOL    HW292400  14.218  11.600   1.429
14521SOL     OW92401   8.856   1.967   0.324
14521SOL    HW192402   8.778   1.950   0.263
14521SOL    HW292403   8.940   1.937   0.280
14522SOL     OW92404   6.475   4.366   2.208
14522SOL    HW192405   6.514   4.285   2.164
14522SOL    HW292406   6.393   4.340   2.260
14523SOL     OW92407   6.694   9.045   8.020
14523SOL    HW192408   6.662   9.026   7.928
14523SOL    HW292409   6.626   9.101   8.068
14524SOL     OW92410   2.288  15.545   6.710
14524SOL    HW192411   2.211  15.498   6.752
14524SOL    HW292412   2.255  15.627   6.662
14525SOL     OW92413   5.782   7.732   8.070
14525SOL    HW192414   5.848   7.799   8.105
14525SOL    HW292415   5.818   7.691   7.986
14526SOL     OW92416   3.122   0.343   1.718
14526SOL    HW192417   3.079   0.386   1.638
14526SOL    HW292418   3.164   0.257   1.691
14527SOL     OW92419   4.190   7.530   8.197
14527SOL    HW192420   4.254   7.480   8.256
14527SOL    HW292421   4.216   7.516   8.102
14528SOL     OW92422   5.537   7.613   2.038
14528SOL    HW192423   5.559   7.610   2.135
14528SOL    HW292424   5.549   7.706   2.003
14529SOL     OW92425   6.065   4.755   6.719
14529SOL    HW192426   6.061   4.807   6.634
14529SOL    HW292427   6.154   4.771   6.763
14530SOL     OW92428  15.435   6.490   6.914
14530SOL    HW192429  15.446   6.394   6.892
14530SOL    HW292430  15.471   6.546   6.839
14531SOL     OW92431  11.337   4.811   0.090
14531SOL    HW192432  11.402   4.806   0.014
14531SOL    HW292433  11.304   4.905   0.099
14532SOL     OW92434  13.158   0.474   6.384
14532SOL    HW192435  13.236   0.420   6.413
14532SOL    HW292436  13.178   0.519   6.297
14533SOL     OW92437   9.270   4.061   1.164
14533SOL    HW192438   9.365   4.084   1.140
14533SOL    HW292439   9.208   4.125   1.119
14534SOL     OW92440   9.954   7.101   1.040
14534SOL    HW192441   9.964   7.005   1.012
14534SOL    HW292442   9.984   7.111   1.135
14535SOL     OW92443   1.602  15.956   0.061
14535SOL    HW192444   1.624  15.882   0.124
14535SOL    HW292445   1.504  15.978   0.068
14536SOL     OW92446   9.203   1.760   7.349
14536SOL    HW192447   9.280   1.767   7.286
14536SOL    HW292448   9.179   1.663   7.360
14537SOL     OW92449  12.779   4.428   6.708
14537SOL    HW192450  12.786   4.331   6.685
14537SOL    HW292451  12.682   4.453   6.718
14538SOL     OW92452  16.142   5.105   6.936
14538SOL    HW192453  16.239   5.115   6.959
14538SOL    HW292454  16.132   5.040   6.860
14539SOL     OW92455   4.369   0.951   0.250
14539SOL    HW192456   4.304   0.876   0.266
14539SOL    HW292457   4.388   0.958   0.152
14540SOL     OW92458   4.141   8.393   0.781
14540SOL    HW192459   4.059   8.337   0.770
14540SOL    HW292460   4.195   8.359   0.858
14541SOL     OW92461   6.010  13.460   7.305
14541SOL    HW192462   5.980  13.448   7.211
14541SOL    HW292463   6.102  13.422   7.315
14542SOL     OW92464  11.351   1.918   8.414
14542SOL    HW192465  11.364   1.963   0.049
14542SOL    HW292466  11.282   1.969   8.362
14543SOL     OW92467  10.357   1.328   0.628
14543SOL    HW192468  10.443   1.357   0.669
14543SOL    HW292469  10.375   1.275   0.545
14544SOL     OW92470   2.191   1.881   0.302
14544SOL    HW192471   2.237   1.949   0.244
14544SOL    HW292472   2.110   1.846   0.254
14545SOL     OW92473  11.973  15.450   1.786
14545SOL    HW192474  11.891  15.416   1.832
14545SOL    HW292475  11.971  15.550   1.784
14546SOL     OW92476   6.006   7.577   0.345
14546SOL    HW192477   6.069   7.588   0.268
14546SOL    HW292478   5.913   7.564   0.310
14547SOL     OW92479   8.415   0.199   2.047
14547SOL    HW192480   8.331   0.159   2.083
14547SOL    HW292481   8.422   0.294   2.075
14548SOL     OW92482  11.264   0.161   0.292
14548SOL    HW192483  11.248   0.128   0.385
14548SOL    HW292484  11.294   0.257   0.295
14549SOL     OW92485   0.702   4.092   6.084
14549SOL    HW192486   0.683   4.122   5.990
14549SOL    HW292487   0.753   4.006   6.082
14550SOL     OW92488   7.561   1.402   7.281
14550SOL    HW192489   7.554   1.302   7.269
14550SOL    HW292490   7.562   1.423   7.379
14551SOL     OW92491   5.418   9.174   1.565
14551SOL    HW192492   5.417   9.235   1.644
14551SOL    HW292493   5.444   9.082   1.594
14552SOL     OW92494   9.931   4.569   7.424
14552SOL    HW192495   9.887   4.484   7.453
14552SOL    HW292496   9.912   4.641   7.491
14553SOL     OW92497  13.287   3.341   0.098
14553SOL    HW192498  13.231   3.409   0.145
14553SOL    HW292499  13.369   3.320   0.152
14554SOL     OW92500   4.848   6.495   1.339
14554SOL    HW192501   4.839   6.573   1.400
14554SOL    HW292502   4.915   6.430   1.378
14555SOL     OW92503   1.831   7.754   8.379
14555SOL    HW192504   1.772   7.769   8.299
14555SOL    HW292505   1.786   7.789   0.007
14556SOL     OW92506  12.821  13.004   1.664
14556SOL    HW192507  12.801  12.976   1.571
14556SOL    HW292508  12.804  13.102   1.674
14557SOL     OW92509  15.177  15.322   0.979
14557SOL    HW192510  15.231  15.264   0.918
14557SOL    HW292511  15.113  15.266   1.032
14558SOL     OW92512   1.773   7.496   7.387
14558SOL    HW192513   1.717   7.422   7.425
14558SOL    HW292514   1.869   7.478   7.407
14559SOL     OW92515   9.686  14.297   1.414
14559SOL    HW192516   9.763  14.262   1.468
14559SOL    HW292517   9.692  14.397   1.409
14560SOL     OW92518   3.236   1.174   1.699
14560SOL    HW192519   3.192   1.209   1.782
14560SOL    HW292520   3.167   1.158   1.629
14561SOL     OW92521   5.795  12.919   0.679
14561SOL    HW192522   5.894  12.928   0.692
14561SOL    HW292523   5.751  12.897   0.766
14562SOL     OW92524   6.149   4.642   2.159
14562SOL    HW192525   6.142   4.544   2.141
14562SOL    HW292526   6.081   4.691   2.104
14563SOL     OW92527   3.710   4.778   6.600
14563SOL    HW192528   3.715   4.729   6.687
14563SOL    HW292529   3.798   4.772   6.552
14564SOL     OW92530   1.655  11.533   1.695
14564SOL    HW192531   1.630  11.468   1.623
14564SOL    HW292532   1.699  11.613   1.653
14565SOL     OW92533   7.577  12.553   6.930
14565SOL    HW192534   7.607  12.477   6.988
14565SOL    HW292535   7.653  12.616   6.917
14566SOL     OW92536  14.637   9.971   7.841
14566SOL    HW192537  14.677  10.062   7.837
14566SOL    HW292538  14.637   9.931   7.749
14567SOL     OW92539   0.511   4.444   6.556
14567SOL    HW192540   0.498   4.348   6.531
14567SOL    HW292541   0.518   4.452   6.655
14568SOL     OW92542  11.451  10.978   6.689
14568SOL    HW192543  11.539  10.931   6.690
14568SOL    HW292544  11.388  10.930   6.628
14569SOL     OW92545  10.423  16.109   7.438
14569SOL    HW192546  10.513  16.078   7.408
14569SOL    HW292547  10.356  16.036   7.426
14570SOL     OW92548  12.968   5.427   0.662
14570SOL    HW192549  12.924   5.431   0.752
14570SOL    HW292550  12.912   5.372   0.600
14571SOL     OW92551   2.950   9.473   0.224
14571SOL    HW192552   3.035   9.481   0.277
14571SOL    HW292553   2.877   9.442   0.285
14572SOL     OW92554   8.148  11.616   2.249
14572SOL    HW192555   8.099  11.585   2.330
14572SOL    HW292556   8.244  11.634   2.273
14573SOL     OW92557   9.550  14.867   1.858
14573SOL    HW192558   9.588  14.927   1.789
14573SOL    HW292559   9.597  14.882   1.946
14574SOL     OW92560  10.599  11.321   7.158
14574SOL    HW192561  10.693  11.331   7.126
14574SOL    HW292562  10.537  11.317   7.079
14575SOL     OW92563  10.510  14.050   1.274
14575SOL    HW192564  10.486  14.140   1.239
14575SOL    HW292565  10.568  14.061   1.355
14576SOL     OW92566   0.812   6.689   0.512
14576SOL    HW192567   0.712   6.694   0.501
14576SOL    HW292568   0.834   6.689   0.610
14577SOL     OW92569   8.296  16.890   1.094
14577SOL    HW192570   8.324  16.957   1.163
14577SOL    HW292571   8.257  16.810   1.139
14578SOL     OW92572  12.002   1.827   6.198
14578SOL    HW192573  11.909   1.799   6.178
14578SOL    HW292574  12.043   1.763   6.263
14579SOL     OW92575   4.816  15.808   1.043
14579SOL    HW192576   4.821  15.894   0.992
14579SOL    HW292577   4.826  15.827   1.141
14580SOL     OW92578   2.872   9.145   0.147
14580SOL    HW192579   2.939   9.072   0.133
14580SOL    HW292580   2.897   9.225   0.093
14581SOL     OW92581   4.718  11.915   0.996
14581SOL    HW192582   4.675  11.951   1.079
14581SOL    HW292583   4.719  11.986   0.926
14582SOL     OW92584   0.053   4.256   6.618
14582SOL    HW192585   0.119   4.282   6.548
14582SOL    HW292586   0.040   4.332   6.681
14583SOL     OW92587  12.071   5.885   7.350
14583SOL    HW192588  12.096   5.791   7.372
14583SOL    HW292589  12.114   5.912   7.264
14584SOL     OW92590   4.480  10.409   0.315
14584SOL    HW192591   4.506  10.499   0.282
14584SOL    HW292592   4.385  10.390   0.290
14585SOL     OW92593  15.891  11.004   8.190
14585SOL    HW192594  15.841  10.985   8.275
14585SOL    HW292595  15.858  10.943   8.118
14586SOL     OW92596   4.382   7.233   7.676
14586SOL    HW192597   4.367   7.331   7.675
14586SOL    HW292598   4.478   7.214   7.699
14587SOL     OW92599   2.915  14.579   7.388
14587SOL    HW192600   2.834  14.552   7.337
14587SOL    HW292601   2.933  14.512   7.460
14588SOL     OW92602  13.388  11.528   8.127
14588SOL    HW192603  13.409  11.479   8.212
14588SOL    HW292604  13.408  11.625   8.139
14589SOL     OW92605   0.638   1.338   1.450
14589SOL    HW192606   0.597   1.254   1.483
14589SOL    HW292607   0.639   1.338   1.350
14590SOL     OW92608   9.718   0.543   7.208
14590SOL    HW192609   9.625   0.572   7.188
14590SOL    HW292610   9.726   0.521   7.305
14591SOL     OW92611  14.497  11.671   0.666
14591SOL    HW192612  14.546  11.584   0.665
14591SOL    HW292613  14.404  11.657   0.701
14592SOL     OW92614   7.650   9.276   2.192
14592SOL    HW192615   7.568   9.242   2.239
14592SOL    HW292616   7.648   9.376   2.192
14593SOL     OW92617   5.058   2.841   0.168
14593SOL    HW192618   4.970   2.878   0.198
14593SOL    HW292619   5.044   2.749   0.131
14594SOL     OW92620   8.206   2.948   7.512
14594SOL    HW192621   8.197   2.865   7.567
14594SOL    HW292622   8.288   2.998   7.541
14595SOL     OW92623  11.649   1.538   7.469
14595SOL    HW192624  11.663   1.627   7.512
14595SOL    HW292625  11.554   1.511   7.478
14596SOL     OW92626   4.269   5.534   7.121
14596SOL    HW192627   4.358   5.570   7.092
14596SOL    HW292628   4.277   5.495   7.213
14597SOL     OW92629   4.811   0.086   2.467
14597SOL    HW192630   4.794  16.979   2.507
14597SOL    HW292631   4.870   0.139   2.528
14598SOL     OW92632   4.686   0.791   0.933
14598SOL    HW192633   4.610   0.854   0.951
14598SOL    HW292634   4.650   0.704   0.900
14599SOL     OW92635  14.334   6.670   0.104
14599SOL    HW192636  14.400   6.632   0.039
14599SOL    HW292637  14.249   6.693   0.056
14600SOL     OW92638   0.173   7.648   7.889
14600SOL    HW192639   0.163   7.712   7.965
14600SOL    HW292640   0.083   7.629   7.849
14601SOL     OW92641   8.669   1.476   1.366
14601SOL    HW192642   8.723   1.491   1.449
14601SOL    HW292643   8.584   1.428   1.389
14602SOL     OW92644  13.333  13.098   0.303
14602SOL    HW192645  13.334  13.042   0.385
14602SOL    HW292646  13.364  13.044   0.225
14603SOL     OW92647  11.246   4.844   7.143
14603SOL    HW192648  11.225   4.876   7.235
14603SOL    HW292649  11.241   4.920   7.079
14604SOL     OW92650  11.954  14.620   1.108
14604SOL    HW192651  12.015  14.637   1.031
14604SOL    HW292652  11.910  14.706   1.135
14605SOL     OW92653  13.891   4.874   5.571
14605SOL    HW192654  13.911   4.970   5.595
14605SOL    HW292655  13.843   4.871   5.484
14606SOL     OW92656   6.370  16.747   0.251
14606SOL    HW192657   6.454  16.801   0.256
14606SOL    HW292658   6.343  16.719   0.343
14607SOL     OW92659   6.557   1.098   7.061
14607SOL    HW192660   6.573   1.094   6.962
14607SOL    HW292661   6.640   1.131   7.107
14608SOL     OW92662   0.611  10.308   1.641
14608SOL    HW192663   0.657  10.324   1.554
14608SOL    HW292664   0.656  10.361   1.713
14609SOL     OW92665  15.260  11.196   7.374
14609SOL    HW192666  15.264  11.295   7.383
14609SOL    HW292667  15.345  11.163   7.333
14610SOL     OW92668  11.268   6.582   0.443
14610SOL    HW192669  11.351   6.581   0.499
14610SOL    HW292670  11.276   6.652   0.372
14611SOL     OW92671  11.175   2.222   5.803
14611SOL    HW192672  11.103   2.257   5.742
14611SOL    HW292673  11.239   2.166   5.750
14612SOL     OW92674   1.016   1.488   7.844
14612SOL    HW192675   0.952   1.412   7.856
14612SOL    HW292676   1.068   1.501   7.929
14613SOL     OW92677   1.231  16.980   0.253
14613SOL    HW192678   1.273   0.002   0.343
14613SOL    HW292679   1.293  16.934   0.189
14614SOL     OW92680  13.317   6.150   8.421
14614SOL    HW192681  13.247   6.209   8.381
14614SOL    HW292682  13.380   6.205   0.022
14615SOL     OW92683   4.644  13.211   0.219
14615SOL    HW192684   4.605  13.230   0.309
14615SOL    HW292685   4.732  13.257   0.210
14616SOL     OW92686   6.090   5.440   6.732
14616SOL    HW192687   6.021   5.504   6.765
14616SOL    HW292688   6.075   5.422   6.635
14617SOL     OW92689   0.030  10.239   7.946
14617SOL    HW192690   0.030  10.193   7.857
14617SOL    HW292691   0.095  10.194   8.007
14618SOL     OW92692   0.056  14.556   7.146
14618SOL    HW192693   0.007  14.643   7.139
14618SOL    HW292694   0.063  14.514   7.056
14619SOL     OW92695   4.139   5.658   6.849
14619SOL    HW192696   4.184   5.685   6.764
14619SOL    HW292697   4.149   5.559   6.862
14620SOL     OW92698  15.176   2.871   8.402
14620SOL    HW192699  15.176   2.822   0.035
14620SOL    HW292700  15.089   2.920   8.391
14621SOL     OW92701   9.783   0.561   0.559
14621SOL    HW192702   9.878   0.588   0.542
14621SOL    HW292703   9.722   0.635   0.531
14622SOL     OW92704   7.455  11.801   7.218
14622SOL    HW192705   7.434  11.854   7.135
14622SOL    HW292706   7.547  11.763   7.210
14623SOL     OW92707   7.772  15.526   7.713
14623SOL    HW192708   7.690  15.469   7.719
14623SOL    HW292709   7.854  15.469   7.725
14624SOL     OW92710  12.780   1.109   7.301
14624SOL    HW192711  12.698   1.099   7.246
14624SOL    HW292712  12.846   1.038   7.278
14625SOL     OW92713   4.534   3.216   1.460
14625SOL    HW192714   4.584   3.258   1.536
14625SOL    HW292715   4.453   3.270   1.438
14626SOL     OW92716   7.975  13.999   7.149
14626SOL    HW192717   8.075  13.994   7.149
14626SOL    HW292718   7.947  14.089   7.182
14627SOL     OW92719  10.153   6.967   0.691
14627SOL    HW192720  10.143   6.869   0.704
14627SOL    HW292721  10.247   6.988   0.663
14628SOL     OW92722   6.861   2.775   0.385
14628SOL    HW192723   6.942   2.760   0.442
14628SOL    HW292724   6.869   2.863   0.338
14629SOL     OW92725   9.054  16.260   7.453
14629SOL    HW192726   8.970  16.234   7.500
14629SOL    HW292727   9.121  16.187   7.461
14630SOL     OW92728   1.576  11.353   2.097
14630SOL    HW192729   1.675  11.364   2.099
14630SOL    HW292730   1.543  11.333   2.190
14631SOL     OW92731  12.108  10.117   0.036
14631SOL    HW192732  12.058  10.128   8.404
14631SOL    HW292733  12.139  10.023   0.044
14632SOL     OW92734  11.528  15.710   6.001
14632SOL    HW192735  11.615  15.748   5.970
14632SOL    HW292736  11.458  15.727   5.931
14633SOL     OW92737   0.845   8.467   0.513
14633SOL    HW192738   0.926   8.426   0.470
14633SOL    HW292739   0.849   8.567   0.502
14634SOL     OW92740   8.120  13.686   0.337
14634SOL    HW192741   8.147  13.590   0.324
14634SOL    HW292742   8.030  13.689   0.381
14635SOL     OW92743  16.279   1.515   8.161
14635SOL    HW192744  16.193   1.513   8.112
14635SOL    HW292745  16.324   1.426   8.154
14636SOL     OW92746   2.588  15.655   6.887
14636SOL    HW192747   2.571  15.572   6.834
14636SOL    HW292748   2.512  15.719   6.873
14637SOL     OW92749   1.592   4.045   7.905
14637SOL    HW192750   1.675   4.006   7.865
14637SOL    HW292751   1.518   4.039   7.838
14638SOL     OW92752   7.925  13.046   2.281
14638SOL    HW192753   7.976  13.103   2.346
14638SOL    HW292754   7.884  12.969   2.329
14639SOL     OW92755   6.553   4.397   6.944
14639SOL    HW192756   6.567   4.471   6.878
14639SOL    HW292757   6.642   4.358   6.970
14640SOL     OW92758   1.188  16.945   6.975
14640SOL    HW192759   1.240  16.941   7.060
14640SOL    HW292760   1.100  16.898   6.988
14641SOL     OW92761  14.861   6.816   7.363
14641SOL    HW192762  14.767   6.832   7.393
14641SOL    HW292763  14.861   6.746   7.291
14642SOL     OW92764   6.227   0.392   0.078
14642SOL    HW192765   6.215   0.368   8.435
14642SOL    HW292766   6.309   0.448   0.088
14643SOL     OW92767   1.824   5.734   6.879
14643SOL    HW192768   1.921   5.748   6.856
14643SOL    HW292769   1.769   5.746   6.796
14644SOL     OW92770   0.938   2.565   0.257
14644SOL    HW192771   1.010   2.586   0.190
14644SOL    HW292772   0.953   2.618   0.340
14645SOL     OW92773   4.780  11.168   1.585
14645SOL    HW192774   4.790  11.256   1.633
14645SOL    HW292775   4.829  11.097   1.636
14646SOL     OW92776  13.500   3.797   0.815
14646SOL    HW192777  13.465   3.710   0.849
14646SOL    HW292778  13.535   3.785   0.722
14647SOL     OW92779  14.025  14.611   7.151
14647SOL    HW192780  14.037  14.677   7.226
14647SOL    HW292781  14.049  14.520   7.182
14648SOL     OW92782   2.225   2.501   7.063
14648SOL    HW192783   2.319   2.514   7.033
14648SOL    HW292784   2.181   2.430   7.008
14649SOL     OW92785   2.726  13.446   7.808
14649SOL    HW192786   2.696  13.364   7.760
14649SOL    HW292787   2.683  13.526   7.767
14650SOL     OW92788   0.785  11.567   7.770
14650SOL    HW192789   0.823  11.535   7.683
14650SOL    HW292790   0.715  11.503   7.801
14651SOL     OW92791   9.026  10.781   8.166
14651SOL    HW192792   9.100  10.794   8.233
14651SOL    HW292793   9.057  10.811   8.076
14652SOL     OW92794   9.058   6.337   7.610
14652SOL    HW192795   9.118   6.257   7.598
14652SOL    HW292796   9.045   6.354   7.707
14653SOL     OW92797   5.572  12.102   6.752
14653SOL    HW192798   5.573  12.018   6.699
14653SOL    HW292799   5.637  12.167   6.713
14654SOL     OW92800  10.320  15.232   1.315
14654SOL    HW192801  10.237  15.288   1.313
14654SOL    HW292802  10.398  15.287   1.345
14655SOL     OW92803   4.706   9.044   7.488
14655SOL    HW192804   4.624   9.086   7.528
14655SOL    HW292805   4.693   8.945   7.481
14656SOL     OW92806  13.768  10.504   7.056
14656SOL    HW192807  13.867  10.501   7.069
14656SOL    HW292808  13.734  10.594   7.081
14657SOL     OW92809   1.303   1.938   1.676
14657SOL    HW192810   1.255   1.936   1.588
14657SOL    HW292811   1.326   2.032   1.699
14658SOL     OW92812   1.056  11.049   8.157
14658SOL    HW192813   1.121  10.973   8.166
14658SOL    HW292814   1.102  11.135   8.181
14659SOL     OW92815   6.738  13.323   1.828
14659SOL    HW192816   6.759  13.371   1.913
14659SOL    HW292817   6.750  13.225   1.841
14660SOL     OW92818   1.848  15.674   7.235
14660SOL    HW192819   1.919  15.724   7.284
14660SOL    HW292820   1.798  15.736   7.175
14661SOL     OW92821  12.153  11.954   0.645
14661SOL    HW192822  12.074  11.996   0.599
14661SOL    HW292823  12.184  11.875   0.592
14662SOL     OW92824   9.996  10.930   6.944
14662SOL    HW192825   9.991  10.949   6.846
14662SOL    HW292826   9.944  10.848   6.965
14663SOL     OW92827   1.068   2.889   0.858
14663SOL    HW192828   0.999   2.842   0.804
14663SOL    HW292829   1.064   2.987   0.839
14664SOL     OW92830   7.891   0.576   1.488
14664SOL    HW192831   7.921   0.488   1.526
14664SOL    HW292832   7.865   0.564   1.393
14665SOL     OW92833  14.878   5.317   1.229
14665SOL    HW192834  14.835   5.382   1.291
14665SOL    HW292835  14.842   5.225   1.245
14666SOL     OW92836   1.733   8.226   1.700
14666SOL    HW192837   1.654   8.261   1.750
14666SOL    HW292838   1.727   8.126   1.695
14667SOL     OW92839  13.401   5.605   1.672
14667SOL    HW192840  13.425   5.510   1.657
14667SOL    HW292841  13.439   5.637   1.759
14668SOL     OW92842  16.897  15.593   1.764
14668SOL    HW192843  16.920  15.551   1.852
14668SOL    HW292844  16.814  15.648   1.774
14669SOL     OW92845  11.071   7.337   6.776
14669SOL    HW192846  11.109   7.345   6.684
14669SOL    HW292847  11.144   7.344   6.844
14670SOL     OW92848   5.203   6.187   2.286
14670SOL    HW192849   5.128   6.243   2.321
14670SOL    HW292850   5.234   6.124   2.357
14671SOL     OW92851  11.759  16.797   2.141
14671SOL    HW192852  11.757  16.786   2.240
14671SOL    HW292853  11.767  16.707   2.097
14672SOL     OW92854   3.009  14.377   0.900
14672SOL    HW192855   2.959  14.400   0.817
14672SOL    HW292856   3.087  14.438   0.910
14673SOL     OW92857   6.977   1.811   1.374
14673SOL    HW192858   6.925   1.895   1.387
14673SOL    HW292859   6.938   1.760   1.297
14674SOL     OW92860   8.550  16.493   0.942
14674SOL    HW192861   8.622  16.453   0.885
14674SOL    HW292862   8.590  16.559   1.005
14675SOL     OW92863   6.420  15.284   1.494
14675SOL    HW192864   6.407  15.185   1.496
14675SOL    HW292865   6.372  15.326   1.571
14676SOL     OW92866   2.652   3.847   1.682
14676SOL    HW192867   2.559   3.816   1.700
14676SOL    HW292868   2.669   3.931   1.734
14677SOL     OW92869   5.095  11.993   0.467
14677SOL    HW192870   5.191  11.964   0.466
14677SOL    HW292871   5.038  11.920   0.429
14678SOL     OW92872   8.536   2.482   1.196
14678SOL    HW192873   8.522   2.491   1.295
14678SOL    HW292874   8.491   2.399   1.164
14679SOL     OW92875  13.994  12.500   0.474
14679SOL    HW192876  13.950  12.435   0.536
14679SOL    HW292877  14.025  12.580   0.527
14680SOL     OW92878  11.123   6.859   0.076
14680SOL    HW192879  11.093   6.951   0.102
14680SOL    HW292880  11.074   6.791   0.129
14681SOL     OW92881   9.909   2.790   0.841
14681SOL    HW192882   9.882   2.854   0.913
14681SOL    HW292883   9.858   2.811   0.757
14682SOL     OW92884   8.460   1.734   8.387
14682SOL    HW192885   8.463   1.686   0.021
14682SOL    HW292886   8.429   1.828   8.402
14683SOL     OW92887   9.523  13.119   1.273
14683SOL    HW192888   9.494  13.187   1.205
14683SOL    HW292889   9.604  13.151   1.321
14684SOL     OW92890   5.122  10.673   7.712
14684SOL    HW192891   5.118  10.715   7.802
14684SOL    HW292892   5.206  10.701   7.666
14685SOL     OW92893   2.431  13.023   0.468
14685SOL    HW192894   2.353  13.000   0.526
14685SOL    HW292895   2.448  13.121   0.473
14686SOL     OW92896  15.010  11.088   1.894
14686SOL    HW192897  14.986  11.017   1.829
14686SOL    HW292898  15.031  11.173   1.845
14687SOL     OW92899  11.358   0.825   0.367
14687SOL    HW192900  11.368   0.917   0.329
14687SOL    HW292901  11.327   0.762   0.295
14688SOL     OW92902   8.036  16.200   1.071
14688SOL    HW192903   7.962  16.232   1.012
14688SOL    HW292904   8.084  16.278   1.110
14689SOL     OW92905  14.929   5.588   0.206
14689SOL    HW192906  15.008   5.559   0.153
14689SOL    HW292907  14.848   5.591   0.147
14690SOL     OW92908   9.985   8.938   0.240
14690SOL    HW192909   9.947   8.919   0.149
14690SOL    HW292910  10.072   8.890   0.251
14691SOL     OW92911  10.241   8.224   8.085
14691SOL    HW192912  10.187   8.182   8.158
14691SOL    HW292913  10.338   8.211   8.103
14692SOL     OW92914   6.020   6.444   1.070
14692SOL    HW192915   6.116   6.438   1.099
14692SOL    HW292916   5.960   6.422   1.147
14693SOL     OW92917   5.005   8.375   1.271
14693SOL    HW192918   4.935   8.422   1.216
14693SOL    HW292919   5.082   8.436   1.285
14694SOL     OW92920   7.571   7.951   6.024
14694SOL    HW192921   7.631   7.894   5.967
14694SOL    HW292922   7.576   8.045   5.992
14695SOL     OW92923  13.047  15.931   8.189
14695SOL    HW192924  13.146  15.923   8.195
14695SOL    HW292925  13.005  15.844   8.217
14696SOL     OW92926   3.257  14.058   7.455
14696SOL    HW192927   3.323  13.989   7.484
14696SOL    HW292928   3.213  14.099   7.535
14697SOL     OW92929  12.066  12.624   8.295
14697SOL    HW192930  12.077  12.708   8.348
14697SOL    HW292931  11.996  12.567   8.337
14698SOL     OW92932   6.392   1.214   0.422
14698SOL    HW192933   6.396   1.141   0.354
14698SOL    HW292934   6.409   1.302   0.378
14699SOL     OW92935  15.567   9.899   6.988
14699SOL    HW192936  15.667   9.897   6.982
14699SOL    HW292937  15.538   9.847   7.068
14700SOL     OW92938  15.354   8.250   1.149
14700SOL    HW192939  15.358   8.292   1.239
14700SOL    HW292940  15.447   8.227   1.119
14701SOL     OW92941   5.858   4.276   0.548
14701SOL    HW192942   5.855   4.184   0.508
14701SOL    HW292943   5.948   4.292   0.589
14702SOL     OW92944  10.157   2.679   8.309
14702SOL    HW192945  10.153   2.605   8.376
14702SOL    HW292946  10.067   2.721   8.301
14703SOL     OW92947   2.713   4.436   7.278
14703SOL    HW192948   2.758   4.415   7.364
14703SOL    HW292949   2.618   4.462   7.296
14704SOL     OW92950  15.864  16.017   2.153
14704SOL    HW192951  15.886  16.072   2.233
14704SOL    HW292952  15.774  15.975   2.165
14705SOL     OW92953   6.546   0.917   1.068
14705SOL    HW192954   6.485   0.910   0.989
14705SOL    HW292955   6.494   0.903   1.152
14706SOL     OW92956   0.125   9.532   2.303
14706SOL    HW192957   0.041   9.511   2.253
14706SOL    HW292958   0.104   9.544   2.400
14707SOL     OW92959   7.939   7.228   8.265
14707SOL    HW192960   7.879   7.307   8.282
14707SOL    HW292961   8.014   7.229   8.331
14708SOL     OW92962   4.651  10.893   6.715
14708SOL    HW192963   4.575  10.938   6.762
14708SOL    HW292964   4.619  10.807   6.675
14709SOL     OW92965   8.648   4.733   1.507
14709SOL    HW192966   8.704   4.654   1.483
14709SOL    HW292967   8.560   4.726   1.461
14710SOL     OW92968   3.486   7.426   7.577
14710SOL    HW192969   3.524   7.360   7.512
14710SOL    HW292970   3.386   7.420   7.575
14711SOL     OW92971   5.641  15.336   6.550
14711SOL    HW192972   5.724  15.367   6.503
14711SOL    HW292973   5.652  15.242   6.579
14712SOL     OW92974  10.404  13.061   0.013
14712SOL    HW192975  10.386  13.123   8.390
14712SOL    HW292976  10.483  13.004   8.446
14713SOL     OW92977   9.110   5.200   1.177
14713SOL    HW192978   9.118   5.239   1.086
14713SOL    HW292979   9.084   5.103   1.170
14714SOL     OW92980   6.250   7.123   7.306
14714SOL    HW192981   6.275   7.060   7.379
14714SOL    HW292982   6.213   7.207   7.345
14715SOL     OW92983  12.630   2.949   8.077
14715SOL    HW192984  12.534   2.959   8.049
14715SOL    HW292985  12.689   2.951   7.997
14716SOL     OW92986  14.138  10.321   1.626
14716SOL    HW192987  14.086  10.274   1.698
14716SOL    HW292988  14.140  10.419   1.645
14717SOL     OW92989   7.634   2.395   7.124
14717SOL    HW192990   7.713   2.345   7.158
14717SOL    HW292991   7.663   2.482   7.084
14718SOL     OW92992  13.942   6.750   7.256
14718SOL    HW192993  14.028   6.700   7.250
14718SOL    HW292994  13.916   6.785   7.166
14719SOL     OW92995  15.126  13.725   1.163
14719SOL    HW192996  15.162  13.776   1.085
14719SOL    HW292997  15.135  13.627   1.146
14720SOL     OW92998  14.845  13.720   1.620
14720SOL    HW192999  14.899  13.639   1.595
14720SOL    HW293000  14.748  13.700   1.608
14721SOL     OW93001   9.635   1.767   0.471
14721SOL    HW193002   9.595   1.857   0.455
14721SOL    HW293003   9.709   1.775   0.538
14722SOL     OW93004  16.778  12.513   7.510
14722SOL    HW193005  16.779  12.601   7.558
14722SOL    HW293006  16.823  12.523   7.422
14723SOL     OW93007   6.171   3.206   7.939
14723SOL    HW193008   6.267   3.188   7.964
14723SOL    HW293009   6.168   3.252   7.850
14724SOL     OW93010  15.213   7.768   6.348
14724SOL    HW193011  15.251   7.845   6.398
14724SOL    HW293012  15.253   7.683   6.383
14725SOL     OW93013  15.175  14.342   0.916
14725SOL    HW193014  15.266  14.321   0.879
14725SOL    HW293015  15.166  14.441   0.929
14726SOL     OW93016  12.292   0.669   0.262
14726SOL    HW193017  12.269   0.661   0.165
14726SOL    HW293018  12.209   0.667   0.317
14727SOL     OW93019  15.086   0.278   8.291
14727SOL    HW193020  14.987   0.290   8.293
14727SOL    HW293021  15.126   0.345   8.228
14728SOL     OW93022  16.513   8.211   0.563
14728SOL    HW193023  16.446   8.143   0.532
14728SOL    HW293024  16.522   8.282   0.493
14729SOL     OW93025   2.223   1.463   0.383
14729SOL    HW193026   2.132   1.448   0.345
14729SOL    HW293027   2.219   1.533   0.454
14730SOL     OW93028  15.163   6.660   6.090
14730SOL    HW193029  15.121   6.741   6.050
14730SOL    HW293030  15.216   6.611   6.021
14731SOL     OW93031   0.376   1.186   7.987
14731SOL    HW193032   0.441   1.207   8.059
14731SOL    HW293033   0.319   1.108   8.013
14732SOL     OW93034   7.328   9.551   1.708
14732SOL    HW193035   7.327   9.452   1.699
14732SOL    HW293036   7.237   9.588   1.686
14733SOL     OW93037  15.506  13.994   8.049
14733SOL    HW193038  15.451  14.058   8.103
14733SOL    HW293039  15.517  14.030   7.956
14734SOL     OW93040   4.933   5.835   6.766
14734SOL    HW193041   5.017   5.857   6.817
14734SOL    HW293042   4.954   5.833   6.668
14735SOL     OW93043  12.293  10.567   7.897
14735SOL    HW193044  12.266  10.569   7.801
14735SOL    HW293045  12.244  10.493   7.943
14736SOL     OW93046  12.672   7.831   8.281
14736SOL    HW193047  12.765   7.797   8.300
14736SOL    HW293048  12.677   7.906   8.215
14737SOL     OW93049   0.842   3.606   0.613
14737SOL    HW193050   0.827   3.675   0.543
14737SOL    HW293051   0.758   3.590   0.664
14738SOL     OW93052  10.598   2.408   1.020
14738SOL    HW193053  10.553   2.386   0.934
14738SOL    HW293054  10.545   2.478   1.068
14739SOL     OW93055  11.672  14.006   7.786
14739SOL    HW193056  11.676  13.910   7.761
14739SOL    HW293057  11.581  14.042   7.765
14740SOL     OW93058  16.897   9.557   7.618
14740SOL    HW193059  16.830   9.614   7.571
14740SOL    HW293060  16.874   9.461   7.606
14741SOL     OW93061  13.087   3.166   0.371
14741SOL    HW193062  13.120   3.117   0.290
14741SOL    HW293063  12.987   3.166   0.371
14742SOL     OW93064   0.402   8.808   7.153
14742SOL    HW193065   0.472   8.800   7.224
14742SOL    HW293066   0.317   8.766   7.185
14743SOL     OW93067   3.244   1.457   0.720
14743SOL    HW193068   3.262   1.489   0.627
14743SOL    HW293069   3.209   1.363   0.717
14744SOL     OW93070  12.855   5.375   7.077
14744SOL    HW193071  12.905   5.410   7.156
14744SOL    HW293072  12.779   5.319   7.108
14745SOL     OW93073  11.649  15.983   1.476
14745SOL    HW193074  11.646  16.031   1.388
14745SOL    HW293075  11.629  15.886   1.461
14746SOL     OW93076  14.112  13.863   1.258
14746SOL    HW193077  14.179  13.832   1.325
14746SOL    HW293078  14.067  13.783   1.217
14747SOL     OW93079  11.644  11.535   7.887
14747SOL    HW193080  11.688  11.446   7.897
14747SOL    HW293081  11.628  11.574   7.978
14748SOL     OW93082  15.005  13.580   8.164
14748SOL    HW193083  15.001  13.560   8.262
14748SOL    HW293084  15.047  13.669   8.149
14749SOL     OW93085   4.237  11.761   6.441
14749SOL    HW193086   4.311  11.698   6.417
14749SOL    HW293087   4.221  11.824   6.365
14750SOL     OW93088  13.185   4.697   0.122
14750SOL    HW193089  13.087   4.680   0.106
14750SOL    HW293090  13.217   4.765   0.057
14751SOL     OW93091  13.878   5.197   2.032
14751SOL    HW193092  13.787   5.155   2.028
14751SOL    HW293093  13.903   5.214   2.127
14752SOL     OW93094   9.159  13.886   5.962
14752SOL    HW193095   9.080  13.834   5.931
14752SOL    HW293096   9.241  13.829   5.957
14753SOL     OW93097   4.746   8.654   7.236
14753SOL    HW193098   4.844   8.671   7.233
14753SOL    HW293099   4.700   8.710   7.167
14754SOL     OW93100  11.862  14.076   7.585
14754SOL    HW193101  11.812  14.128   7.515
14754SOL    HW293102  11.800  14.054   7.660
14755SOL     OW93103  10.405   2.761   7.571
14755SOL    HW193104  10.379   2.671   7.605
14755SOL    HW293105  10.349   2.784   7.492
14756SOL     OW93106  11.539  12.898   7.614
14756SOL    HW193107  11.527  12.872   7.710
14756SOL    HW293108  11.622  12.953   7.605
14757SOL     OW93109  15.891   6.800   5.809
14757SOL    HW193110  15.967   6.846   5.854
14757SOL    HW293111  15.919   6.770   5.718
14758SOL     OW93112  16.596  16.257   7.594
14758SOL    HW193113  16.540  16.189   7.548
14758SOL    HW293114  16.538  16.329   7.631
14759SOL     OW93115  15.910   9.295   8.084
14759SOL    HW193116  15.899   9.394   8.073
14759SOL    HW293117  16.000   9.267   8.052
14760SOL     OW93118   3.863   1.451   0.956
14760SOL    HW193119   3.768   1.442   0.926
14760SOL    HW293120   3.918   1.379   0.914
14761SOL     OW93121  14.971  15.087   0.572
14761SOL    HW193122  14.897  15.048   0.518
14761SOL    HW293123  15.059  15.066   0.528
14762SOL     OW93124  16.389  16.348   1.275
14762SOL    HW193125  16.291  16.369   1.272
14762SOL    HW293126  16.442  16.429   1.252
14763SOL     OW93127   0.232  15.738   6.921
14763SOL    HW193128   0.169  15.756   6.996
14763SOL    HW293129   0.326  15.757   6.950
14764SOL     OW93130   0.035  15.899   8.133
14764SOL    HW193131   0.110  15.856   8.183
14764SOL    HW293132   0.040  15.875   8.036
14765SOL     OW93133  14.232   8.843   6.442
14765SOL    HW193134  14.181   8.759   6.424
14765SOL    HW293135  14.289   8.864   6.362
14766SOL     OW93136   8.931   9.412   0.715
14766SOL    HW193137   8.902   9.437   0.623
14766SOL    HW293138   9.006   9.346   0.710
14767SOL     OW93139   0.788   7.714   0.508
14767SOL    HW193140   0.859   7.751   0.568
14767SOL    HW293141   0.818   7.720   0.413
14768SOL     OW93142  16.247  13.625   6.408
14768SOL    HW193143  16.279  13.642   6.315
14768SOL    HW293144  16.154  13.589   6.405
14769SOL     OW93145   7.251   5.713   0.747
14769SOL    HW193146   7.155   5.715   0.719
14769SOL    HW293147   7.310   5.724   0.666
14770SOL     OW93148  15.232  12.139   1.131
14770SOL    HW193149  15.143  12.142   1.086
14770SOL    HW293150  15.243  12.052   1.179
14771SOL     OW93151   3.266  15.647   0.201
14771SOL    HW193152   3.203  15.678   0.272
14771SOL    HW293153   3.217  15.589   0.136
14772SOL     OW93154   0.169   3.084   1.470
14772SOL    HW193155   0.145   2.992   1.499
14772SOL    HW293156   0.086   3.137   1.454
14773SOL     OW93157  11.416   8.980   7.732
14773SOL    HW193158  11.468   8.894   7.728
14773SOL    HW293159  11.347   8.980   7.660
14774SOL     OW93160   2.048  12.344   7.682
14774SOL    HW193161   2.086  12.287   7.610
14774SOL    HW293162   2.117  12.358   7.754
14775SOL     OW93163   8.050   0.780   1.220
14775SOL    HW193164   8.139   0.757   1.257
14775SOL    HW293165   8.045   0.879   1.203
14776SOL     OW93166   2.026  11.277   7.624
14776SOL    HW193167   2.028  11.192   7.677
14776SOL    HW293168   2.118  11.317   7.622
14777SOL     OW93169  16.351   9.493   7.774
14777SOL    HW193170  16.395   9.561   7.716
14777SOL    HW293171  16.264   9.528   7.808
14778SOL     OW93172   4.457   2.733   7.264
14778SOL    HW193173   4.431   2.642   7.234
14778SOL    HW293174   4.375   2.787   7.283
14779SOL     OW93175   9.586  14.646   6.534
14779SOL    HW193176   9.515  14.711   6.506
14779SOL    HW293177   9.548  14.554   6.536
14780SOL     OW93178  14.521   1.745   6.953
14780SOL    HW193179  14.545   1.651   6.973
14780SOL    HW293180  14.471   1.749   6.866
14781SOL     OW93181  15.204  11.225   2.494
14781SOL    HW193182  15.179  11.192   2.585
14781SOL    HW293183  15.193  11.324   2.490
14782SOL     OW93184   4.103  12.667   7.251
14782SOL    HW193185   4.092  12.716   7.338
14782SOL    HW293186   4.012  12.647   7.213
14783SOL     OW93187   6.136  15.891   0.328
14783SOL    HW193188   6.228  15.918   0.356
14783SOL    HW293189   6.093  15.966   0.279
14784SOL     OW93190  14.271   8.405   7.398
14784SOL    HW193191  14.243   8.471   7.468
14784SOL    HW293192  14.353   8.438   7.352
14785SOL     OW93193   5.857   5.313   0.850
14785SOL    HW193194   5.827   5.266   0.933
14785SOL    HW293195   5.828   5.261   0.770
14786SOL     OW93196   9.624   5.745   7.013
14786SOL    HW193197   9.583   5.830   6.979
14786SOL    HW293198   9.672   5.699   6.939
14787SOL     OW93199   0.043  16.139   7.838
14787SOL    HW193200   0.096  16.177   7.762
14787SOL    HW293201  16.929  16.152   7.820
14788SOL     OW93202  16.872   8.293   0.061
14788SOL    HW193203  16.902   8.313   0.155
14788SOL    HW293204  16.903   8.202   0.035
14789SOL     OW93205   6.908  11.295   2.049
14789SOL    HW193206   6.967  11.364   2.007
14789SOL    HW293207   6.864  11.333   2.130
14790SOL     OW93208   9.687   0.681   8.244
14790SOL    HW193209   9.668   0.700   8.341
14790SOL    HW293210   9.672   0.764   8.190
14791SOL     OW93211   9.295   0.656   8.376
14791SOL    HW193212   9.235   0.686   8.451
14791SOL    HW293213   9.370   0.602   8.414
14792SOL     OW93214   1.640  14.074   6.919
14792SOL    HW193215   1.575  14.013   6.873
14792SOL    HW293216   1.640  14.163   6.873
14793SOL     OW93217   5.877  10.667   8.197
14793SOL    HW193218   5.959  10.722   8.175
14793SOL    HW293219   5.905  10.575   8.223
14794SOL     OW93220   7.949   5.908   6.498
14794SOL    HW193221   7.983   5.836   6.437
14794SOL    HW293222   8.026   5.962   6.532
14795SOL     OW93223  13.708   8.406   7.753
14795SOL    HW193224  13.670   8.472   7.818
14795SOL    HW293225  13.795   8.441   7.717
14796SOL     OW93226  12.710   6.582   0.591
14796SOL    HW193227  12.762   6.662   0.560
14796SOL    HW293228  12.738   6.502   0.538
14797SOL     OW93229   9.760   0.446   0.119
14797SOL    HW193230   9.727   0.539   0.100
14797SOL    HW293231   9.756   0.392   0.035
14798SOL     OW93232   7.608  14.787   8.051
14798SOL    HW193233   7.525  14.742   8.085
14798SOL    HW293234   7.688  14.732   8.075
14799SOL     OW93235   6.197   6.053   1.102
14799SOL    HW193236   6.279   6.012   1.062
14799SOL    HW293237   6.191   6.027   1.198
14800SOL     OW93238   3.346  13.000   7.486
14800SOL    HW193239   3.366  12.908   7.519
14800SOL    HW293240   3.324  12.997   7.388
14801SOL     OW93241  13.203   5.826   2.043
14801SOL    HW193242  13.124   5.885   2.061
14801SOL    HW293243  13.182   5.732   2.070
14802SOL     OW93244   8.323  13.271   7.828
14802SOL    HW193245   8.324  13.178   7.791
14802SOL    HW293246   8.329  13.336   7.753
14803SOL     OW93247   4.531   4.197   7.503
14803SOL    HW193248   4.479   4.161   7.580
14803SOL    HW293249   4.627   4.170   7.513
14804SOL     OW93250  13.978   7.169   7.995
14804SOL    HW193251  13.997   7.158   7.897
14804SOL    HW293252  13.879   7.171   8.009
14805SOL     OW93253   7.810  11.182   1.510
14805SOL    HW193254   7.894  11.137   1.479
14805SOL    HW293255   7.829  11.277   1.533
14806SOL     OW93256  13.970   1.502   5.976
14806SOL    HW193257  14.022   1.585   5.960
14806SOL    HW293258  13.932   1.469   5.889
14807SOL     OW93259   7.273   9.127   0.190
14807SOL    HW193260   7.344   9.082   0.136
14807SOL    HW293261   7.238   9.206   0.140
14808SOL     OW93262  10.514  14.890   6.581
14808SOL    HW193263  10.512  14.828   6.659
14808SOL    HW293264  10.553  14.843   6.502
14809SOL     OW93265   5.197  15.489   6.641
14809SOL    HW193266   5.138  15.552   6.692
14809SOL    HW293267   5.211  15.525   6.549
14810SOL     OW93268   1.225  10.872   0.010
14810SOL    HW193269   1.183  10.958   0.040
14810SOL    HW293270   1.298  10.847   0.074
14811SOL     OW93271   2.588   4.969   8.340
14811SOL    HW193272   2.557   5.050   8.291
14811SOL    HW293273   2.688   4.963   8.334
14812SOL     OW93274   8.392  15.542   7.586
14812SOL    HW193275   8.353  15.547   7.494
14812SOL    HW293276   8.489  15.519   7.580
14813SOL     OW93277  13.848  16.535   1.200
14813SOL    HW193278  13.904  16.580   1.269
14813SOL    HW293279  13.813  16.449   1.236
14814SOL     OW93280   6.062  15.861   7.391
14814SOL    HW193281   6.023  15.923   7.459
14814SOL    HW293282   6.004  15.861   7.309
14815SOL     OW93283  10.832   2.538   1.081
14815SOL    HW193284  10.915   2.500   1.040
14815SOL    HW293285  10.752   2.490   1.044
14816SOL     OW93286   1.631   3.443   1.709
14816SOL    HW193287   1.714   3.390   1.728
14816SOL    HW293288   1.642   3.536   1.743
14817SOL     OW93289  15.500  12.614   6.217
14817SOL    HW193290  15.415  12.623   6.164
14817SOL    HW293291  15.550  12.701   6.215
14818SOL     OW93292   2.667   6.072   7.717
14818SOL    HW193293   2.677   6.095   7.813
14818SOL    HW293294   2.747   6.104   7.666
14819SOL     OW93295   2.798   6.617   8.263
14819SOL    HW193296   2.854   6.575   8.191
14819SOL    HW293297   2.775   6.547   8.331
14820SOL     OW93298   8.488   6.876   6.835
14820SOL    HW193299   8.546   6.803   6.800
14820SOL    HW293300   8.489   6.953   6.772
14821SOL     OW93301   6.752   6.266   1.252
14821SOL    HW193302   6.798   6.283   1.339
14821SOL    HW293303   6.791   6.326   1.182
14822SOL     OW93304  11.632   6.199   8.435
14822SOL    HW193305  11.626   6.260   8.356
14822SOL    HW293306  11.546   6.199   0.031
14823SOL     OW93307  14.822  15.131   1.354
14823SOL    HW193308  14.731  15.091   1.369
14823SOL    HW293309  14.892  15.061   1.371
14824SOL     OW93310   7.552   5.249   1.732
14824SOL    HW193311   7.635   5.305   1.740
14824SOL    HW293312   7.577   5.152   1.735
14825SOL     OW93313   4.054   2.657   7.833
14825SOL    HW193314   4.123   2.658   7.760
14825SOL    HW293315   3.975   2.604   7.804
14826SOL     OW93316  16.156   3.814   6.592
14826SOL    HW193317  16.084   3.748   6.569
14826SOL    HW293318  16.215   3.827   6.513
14827SOL     OW93319   9.611  15.666   8.287
14827SOL    HW193320   9.706  15.692   8.305
14827SOL    HW293321   9.609  15.570   8.256
14828SOL     OW93322  13.278   7.257   7.791
14828SOL    HW193323  13.240   7.187   7.730
14828SOL    HW293324  13.301   7.338   7.738
14829SOL     OW93325  10.564   5.039   6.562
14829SOL    HW193326  10.646   4.984   6.547
14829SOL    HW293327  10.498   4.986   6.615
14830SOL     OW93328   7.190  14.883   2.197
14830SOL    HW193329   7.219  14.972   2.231
14830SOL    HW293330   7.165  14.824   2.274
14831SOL     OW93331  14.604   4.861   1.301
14831SOL    HW193332  14.536   4.839   1.371
14831SOL    HW293333  14.618   4.781   1.242
14832SOL     OW93334   5.372   3.126   0.993
14832SOL    HW193335   5.380   3.054   1.062
14832SOL    HW293336   5.450   3.119   0.929
14833SOL     OW93337   6.893  15.434   7.699
14833SOL    HW193338   6.835  15.442   7.618
14833SOL    HW293339   6.977  15.385   7.675
14834SOL     OW93340   7.624   9.344   8.221
14834SOL    HW193341   7.637   9.245   8.208
14834SOL    HW293342   7.625   9.365   8.318
14835SOL     OW93343   8.933   4.014   1.521
14835SOL    HW193344   8.983   4.097   1.547
14835SOL    HW293345   8.962   3.985   1.430
14836SOL     OW93346  15.483  14.085   7.239
14836SOL    HW193347  15.464  14.181   7.217
14836SOL    HW293348  15.477  14.029   7.156
14837SOL     OW93349   4.691   0.164   2.233
14837SOL    HW193350   4.736   0.134   2.317
14837SOL    HW293351   4.619   0.230   2.256
14838SOL     OW93352   8.239   9.504   1.452
14838SOL    HW193353   8.200   9.440   1.517
14838SOL    HW293354   8.203   9.596   1.470
14839SOL     OW93355   6.688   2.945   8.130
14839SOL    HW193356   6.776   2.975   8.092
14839SOL    HW293357   6.633   2.905   8.057
14840SOL     OW93358   3.355  12.784   0.472
14840SOL    HW193359   3.423  12.767   0.401
14840SOL    HW293360   3.376  12.730   0.553
14841SOL     OW93361   7.806   9.816   0.143
14841SOL    HW193362   7.795   9.725   0.103
14841SOL    HW293363   7.763   9.818   0.233
14842SOL     OW93364  10.619   6.970   0.075
14842SOL    HW193365  10.703   7.011   0.040
14842SOL    HW293366  10.561   7.041   0.115
14843SOL     OW93367   3.290   0.747   1.326
14843SOL    HW193368   3.336   0.667   1.364
14843SOL    HW293369   3.352   0.796   1.265
14844SOL     OW93370   2.066   5.265   7.479
14844SOL    HW193371   2.142   5.201   7.465
14844SOL    HW293372   1.981   5.214   7.491
14845SOL     OW93373   9.816   2.422   7.504
14845SOL    HW193374   9.717   2.412   7.514
14845SOL    HW293375   9.836   2.486   7.430
14846SOL     OW93376   6.705   9.081   1.379
14846SOL    HW193377   6.611   9.047   1.368
14846SOL    HW293378   6.767   9.003   1.386
14847SOL     OW93379   5.227  16.512   1.085
14847SOL    HW193380   5.241  16.512   1.184
14847SOL    HW293381   5.138  16.472   1.064
14848SOL     OW93382  13.854  11.840   6.829
14848SOL    HW193383  13.839  11.925   6.777
14848SOL    HW293384  13.854  11.762   6.766
14849SOL     OW93385   7.625   0.827   7.535
14849SOL    HW193386   7.693   0.756   7.552
14849SOL    HW293387   7.628   0.852   7.438
14850SOL     OW93388   2.688   4.237   8.335
14850SOL    HW193389   2.677   4.179   8.254
14850SOL    HW293390   2.603   4.286   8.353
14851SOL     OW93391   5.918   7.087   6.970
14851SOL    HW193392   5.832   7.065   7.016
14851SOL    HW293393   5.919   7.185   6.948
14852SOL     OW93394   0.456   2.978   8.272
14852SOL    HW193395   0.436   2.891   8.226
14852SOL    HW293396   0.496   3.042   8.207
14853SOL     OW93397   0.462   0.389   8.368
14853SOL    HW193398   0.550   0.350   8.395
14853SOL    HW293399   0.460   0.486   8.392
14854SOL     OW93400  11.725   7.193   1.235
14854SOL    HW193401  11.774   7.150   1.311
14854SOL    HW293402  11.750   7.290   1.229
14855SOL     OW93403   2.550   4.253   6.528
14855SOL    HW193404   2.493   4.206   6.461
14855SOL    HW293405   2.492   4.286   6.603
14856SOL     OW93406  15.741   1.214   1.253
14856SOL    HW193407  15.763   1.150   1.327
14856SOL    HW293408  15.824   1.235   1.201
14857SOL     OW93409  13.934   2.373   6.614
14857SOL    HW193410  13.955   2.305   6.544
14857SOL    HW293411  14.016   2.426   6.636
14858SOL     OW93412   4.872  14.553   0.819
14858SOL    HW193413   4.891  14.650   0.805
14858SOL    HW293414   4.954  14.506   0.853
14859SOL     OW93415  11.369  14.420   6.405
14859SOL    HW193416  11.424  14.503   6.413
14859SOL    HW293417  11.290  14.437   6.347
14860SOL     OW93418   7.674  11.250   0.044
14860SOL    HW193419   7.675  11.299   0.131
14860SOL    HW293420   7.593  11.277   8.446
14861SOL     OW93421  15.171   3.102   7.834
14861SOL    HW193422  15.239   3.090   7.762
14861SOL    HW293423  15.156   3.200   7.850
14862SOL     OW93424  16.113  13.094   7.202
14862SOL    HW193425  16.126  13.004   7.242
14862SOL    HW293426  16.082  13.085   7.108
14863SOL     OW93427   1.622   1.243   0.600
14863SOL    HW193428   1.703   1.198   0.638
14863SOL    HW293429   1.582   1.185   0.529
14864SOL     OW93430   4.598   9.259   0.022
14864SOL    HW193431   4.604   9.358   0.035
14864SOL    HW293432   4.544   9.219   0.096
14865SOL     OW93433   9.041   5.636   6.531
14865SOL    HW193434   9.031   5.731   6.504
14865SOL    HW293435   9.017   5.576   6.455
14866SOL     OW93436   1.390   4.872   1.450
14866SOL    HW193437   1.440   4.955   1.473
14866SOL    HW293438   1.358   4.877   1.355
14867SOL     OW93439   2.708  14.139   7.291
14867SOL    HW193440   2.764  14.074   7.240
14867SOL    HW293441   2.614  14.136   7.258
14868SOL     OW93442   9.700   3.104   8.143
14868SOL    HW193443   9.755   3.056   8.074
14868SOL    HW293444   9.606   3.070   8.140
14869SOL     OW93445   3.669   6.754   7.152
14869SOL    HW193446   3.617   6.672   7.126
14869SOL    HW293447   3.670   6.763   7.252
14870SOL     OW93448   1.499   3.572   7.532
14870SOL    HW193449   1.433   3.500   7.549
14870SOL    HW293450   1.509   3.586   7.433
14871SOL     OW93451   2.598  16.702   0.003
14871SOL    HW193452   2.511  16.657   8.434
14871SOL    HW293453   2.674  16.642   8.430
14872SOL     OW93454   0.640   7.236   7.660
14872SOL    HW193455   0.624   7.161   7.725
14872SOL    HW293456   0.619   7.205   7.568
14873SOL     OW93457  14.433  15.405   2.272
14873SOL    HW193458  14.430  15.498   2.234
14873SOL    HW293459  14.362  15.396   2.342
14874SOL     OW93460   0.389  14.172   0.829
14874SOL    HW193461   0.412  14.082   0.793
14874SOL    HW293462   0.291  14.189   0.814
14875SOL     OW93463   9.128   6.346   7.133
14875SOL    HW193464   9.179   6.392   7.205
14875SOL    HW293465   9.049   6.402   7.107
14876SOL     OW93466  10.121   9.117   0.422
14876SOL    HW193467  10.217   9.090   0.408
14876SOL    HW293468  10.064   9.068   0.356
14877SOL     OW93469  16.757   2.099   7.074
14877SOL    HW193470  16.764   2.002   7.098
14877SOL    HW293471  16.678   2.113   7.014
14878SOL     OW93472  14.391   8.600   7.050
14878SOL    HW193473  14.433   8.544   7.122
14878SOL    HW293474  14.393   8.696   7.077
14879SOL     OW93475   1.896  12.694   8.171
14879SOL    HW193476   1.805  12.675   8.135
14879SOL    HW293477   1.963  12.692   8.096
14880SOL     OW93478   7.658  14.223   1.997
14880SOL    HW193479   7.624  14.275   2.075
14880SOL    HW293480   7.682  14.286   1.923
14881SOL     OW93481   7.715  10.488   7.382
14881SOL    HW193482   7.658  10.512   7.304
14881SOL    HW293483   7.802  10.450   7.349
14882SOL     OW93484   0.831   4.852   7.095
14882SOL    HW193485   0.782   4.826   7.012
14882SOL    HW293486   0.779   4.921   7.145
14883SOL     OW93487   6.379   4.186   6.880
14883SOL    HW193488   6.287   4.223   6.867
14883SOL    HW293489   6.441   4.261   6.906
14884SOL     OW93490   5.293   1.949   1.554
14884SOL    HW193491   5.386   1.977   1.532
14884SOL    HW293492   5.234   1.962   1.474
14885SOL     OW93493   0.905  15.579   0.558
14885SOL    HW193494   0.925  15.498   0.612
14885SOL    HW293495   0.839  15.556   0.486
14886SOL     OW93496   2.869   4.024   8.413
14886SOL    HW193497   2.801   4.097   8.405
14886SOL    HW293498   2.858   3.960   8.337
14887SOL     OW93499  16.114   5.675   6.679
14887SOL    HW193500  16.114   5.774   6.693
14887SOL    HW293501  16.076   5.654   6.589
14888SOL     OW93502   6.122   0.648   7.481
14888SOL    HW193503   6.097   0.583   7.410
14888SOL    HW293504   6.048   0.653   7.549
14889SOL     OW93505   5.726  11.862   2.153
14889SOL    HW193506   5.739  11.938   2.216
14889SOL    HW293507   5.814  11.836   2.113
14890SOL     OW93508   4.624   8.554   8.453
14890SOL    HW193509   4.690   8.497   0.048
14890SOL    HW293510   4.532   8.538   0.034
14891SOL     OW93511   8.269  15.565   6.314
14891SOL    HW193512   8.297  15.544   6.220
14891SOL    HW293513   8.278  15.663   6.330
14892SOL     OW93514  12.091   1.713   7.934
14892SOL    HW193515  12.182   1.693   7.899
14892SOL    HW293516  12.035   1.630   7.934
14893SOL     OW93517   4.394  10.461   6.499
14893SOL    HW193518   4.299  10.477   6.473
14893SOL    HW293519   4.433  10.389   6.442
14894SOL     OW93520   5.876   9.898   1.920
14894SOL    HW193521   5.859   9.860   1.829
14894SOL    HW293522   5.974   9.892   1.941
14895SOL     OW93523  13.600   3.263   7.692
14895SOL    HW193524  13.520   3.321   7.676
14895SOL    HW293525  13.671   3.316   7.739
14896SOL     OW93526   1.588   8.974   6.910
14896SOL    HW193527   1.654   9.039   6.946
14896SOL    HW293528   1.631   8.920   6.837
14897SOL     OW93529   5.235  15.434   7.501
14897SOL    HW193530   5.265  15.440   7.596
14897SOL    HW293531   5.243  15.523   7.457
14898SOL     OW93532  11.590   0.026   6.502
14898SOL    HW193533  11.531   0.037   6.422
14898SOL    HW293534  11.535   0.000   6.581
14899SOL     OW93535  16.875  15.227   7.599
14899SOL    HW193536  16.828  15.309   7.632
14899SOL    HW293537  16.890  15.235   7.501
14900SOL     OW93538  12.324  11.192   0.030
14900SOL    HW193539  12.396  11.171   0.096
14900SOL    HW293540  12.360  11.253   8.414
14901SOL     OW93541   6.115  10.776   8.113
14901SOL    HW193542   6.199  10.782   8.168
14901SOL    HW293543   6.139  10.783   8.016
14902SOL     OW93544  12.893   9.045   1.068
14902SOL    HW193545  12.977   9.098   1.078
14902SOL    HW293546  12.912   8.949   1.084
14903SOL     OW93547   9.162   9.743   1.032
14903SOL    HW193548   9.149   9.676   1.105
14903SOL    HW293549   9.146   9.835   1.068
14904SOL     OW93550  12.128  14.310   8.206
14904SOL    HW193551  12.061  14.296   8.279
14904SOL    HW293552  12.099  14.259   8.124
14905SOL     OW93553  13.667  14.481   0.154
14905SOL    HW193554  13.635  14.394   0.190
14905SOL    HW293555  13.591  14.530   0.111
14906SOL     OW93556  13.073   8.230   2.062
14906SOL    HW193557  12.987   8.201   2.103
14906SOL    HW293558  13.118   8.152   2.018
14907SOL     OW93559  10.587   9.135   0.739
14907SOL    HW193560  10.605   9.213   0.800
14907SOL    HW293561  10.552   9.168   0.652
14908SOL     OW93562   2.948   0.929   0.537
14908SOL    HW193563   2.899   1.005   0.579
14908SOL    HW293564   3.044   0.933   0.564
14909SOL     OW93565   6.378  16.703   8.434
14909SOL    HW193566   6.388  16.604   8.419
14909SOL    HW293567   6.372  16.721   0.078
14910SOL     OW93568  11.226   7.024   7.296
14910SOL    HW193569  11.322   7.013   7.321
14910SOL    HW293570  11.168   7.015   7.377
14911SOL     OW93571   8.752   6.788   1.392
14911SOL    HW193572   8.743   6.690   1.371
14911SOL    HW293573   8.843   6.819   1.366
14912SOL     OW93574   7.517   4.870   7.873
14912SOL    HW193575   7.504   4.841   7.778
14912SOL    HW293576   7.518   4.790   7.933
14913SOL     OW93577  10.119   5.690   7.159
14913SOL    HW193578  10.162   5.736   7.081
14913SOL    HW293579  10.020   5.688   7.147
14914SOL     OW93580   0.177   0.845   7.143
14914SOL    HW193581   0.170   0.831   7.242
14914SOL    HW293582   0.169   0.943   7.122
14915SOL     OW93583   1.491  15.147   0.864
14915SOL    HW193584   1.413  15.185   0.913
14915SOL    HW293585   1.501  15.050   0.888
14916SOL     OW93586   2.446   8.033   0.494
14916SOL    HW193587   2.360   7.997   0.457
14916SOL    HW293588   2.520   7.970   0.472
14917SOL     OW93589   8.689   9.416   8.269
14917SOL    HW193590   8.639   9.337   8.304
14917SOL    HW293591   8.673   9.494   8.330
14918SOL     OW93592   8.573   0.269   1.633
14918SOL    HW193593   8.513   0.344   1.660
14918SOL    HW293594   8.593   0.276   1.535
14919SOL     OW93595  12.076  12.217   7.294
14919SOL    HW193596  12.140  12.224   7.218
14919SOL    HW293597  12.016  12.137   7.281
14920SOL     OW93598   4.941   8.054   0.362
14920SOL    HW193599   4.962   7.979   0.299
14920SOL    HW293600   4.858   8.101   0.331
14921SOL     OW93601  14.610   0.518   0.076
14921SOL    HW193602  14.645   0.424   0.082
14921SOL    HW293603  14.512   0.517   0.057
14922SOL     OW93604  15.820   7.109   8.169
14922SOL    HW193605  15.805   7.017   8.133
14922SOL    HW293606  15.732   7.155   8.179
14923SOL     OW93607   6.230  13.515   6.692
14923SOL    HW193608   6.249  13.478   6.783
14923SOL    HW293609   6.236  13.442   6.624
14924SOL     OW93610   8.539   8.715   0.111
14924SOL    HW193611   8.561   8.634   0.058
14924SOL    HW293612   8.486   8.690   0.191
14925SOL     OW93613  16.973  13.032   1.038
14925SOL    HW193614   0.012  12.991   0.950
14925SOL    HW293615  16.890  12.990   1.074
14926SOL     OW93616  11.516   5.116   6.097
14926SOL    HW193617  11.571   5.184   6.050
14926SOL    HW293618  11.493   5.149   6.188
14927SOL     OW93619   6.070  15.206   1.936
14927SOL    HW193620   6.039  15.271   2.006
14927SOL    HW293621   6.170  15.210   1.929
14928SOL     OW93622   0.796   2.355   8.362
14928SOL    HW193623   0.837   2.328   8.449
14928SOL    HW293624   0.851   2.427   8.320
14929SOL     OW93625   2.012  11.240   2.557
14929SOL    HW193626   2.058  11.155   2.584
14929SOL    HW293627   1.921  11.242   2.599
14930SOL     OW93628  11.336   7.485   8.188
14930SOL    HW193629  11.295   7.574   8.210
14930SOL    HW293630  11.376   7.488   8.097
14931SOL     OW93631   2.758   1.482   0.997
14931SOL    HW193632   2.791   1.453   0.907
14931SOL    HW293633   2.832   1.477   1.063
14932SOL     OW93634   8.645  10.238   0.431
14932SOL    HW193635   8.657  10.227   0.332
14932SOL    HW293636   8.600  10.325   0.449
14933SOL     OW93637  14.284   1.905   6.171
14933SOL    HW193638  14.282   1.839   6.095
14933SOL    HW293639  14.297   1.997   6.135
14934SOL     OW93640  16.225   8.138   7.592
14934SOL    HW193641  16.144   8.136   7.650
14934SOL    HW293642  16.226   8.056   7.534
14935SOL     OW93643   7.487   4.518   0.569
14935SOL    HW193644   7.523   4.516   0.662
14935SOL    HW293645   7.544   4.462   0.509
14936SOL     OW93646  14.297  13.099   0.290
14936SOL    HW193647  14.367  13.146   0.344
14936SOL    HW293648  14.273  13.012   0.334
14937SOL     OW93649   9.998   3.534   1.410
14937SOL    HW193650   9.909   3.559   1.447
14937SOL    HW293651  10.054   3.616   1.398
14938SOL     OW93652   9.542  13.550   7.314
14938SOL    HW193653   9.575  13.495   7.391
14938SOL    HW293654   9.469  13.500   7.267
14939SOL     OW93655  14.002   9.154   2.342
14939SOL    HW193656  14.043   9.065   2.361
14939SOL    HW293657  13.902   9.144   2.335
14940SOL     OW93658   3.855   5.760   0.640
14940SOL    HW193659   3.801   5.680   0.666
14940SOL    HW293660   3.913   5.738   0.562
14941SOL     OW93661  13.109   8.941   0.577
14941SOL    HW193662  13.191   8.892   0.608
14941SOL    HW293663  13.098   8.928   0.479
14942SOL     OW93664   3.343  14.184   1.793
14942SOL    HW193665   3.346  14.111   1.725
14942SOL    HW293666   3.369  14.147   1.882
14943SOL     OW93667   9.204  10.599   1.601
14943SOL    HW193668   9.163  10.690   1.598
14943SOL    HW293669   9.279  10.593   1.536
14944SOL     OW93670  15.365  14.534   7.636
14944SOL    HW193671  15.377  14.554   7.733
14944SOL    HW293672  15.336  14.439   7.625
14945SOL     OW93673  11.747   7.044   7.946
14945SOL    HW193674  11.757   6.983   8.024
14945SOL    HW293675  11.829   7.041   7.889
14946SOL     OW93676   6.410   5.240   6.781
14946SOL    HW193677   6.332   5.268   6.836
14946SOL    HW293678   6.439   5.149   6.809
14947SOL     OW93679  14.765   1.810   0.757
14947SOL    HW193680  14.799   1.819   0.851
14947SOL    HW293681  14.771   1.899   0.711
14948SOL     OW93682   3.473  13.210   1.094
14948SOL    HW193683   3.381  13.173   1.084
14948SOL    HW293684   3.501  13.255   1.009
14949SOL     OW93685   1.912   7.778   0.666
14949SOL    HW193686   1.966   7.700   0.635
14949SOL    HW293687   1.873   7.758   0.756
14950SOL     OW93688   1.014   9.440   1.403
14950SOL    HW193689   0.921   9.474   1.391
14950SOL    HW293690   1.017   9.341   1.390
14951SOL     OW93691  13.460   3.348   8.326
14951SOL    HW193692  13.415   3.373   8.240
14951SOL    HW293693  13.396   3.361   8.402
14952SOL     OW93694   0.222   0.331   8.243
14952SOL    HW193695   0.159   0.313   8.318
14952SOL    HW293696   0.313   0.349   8.280
14953SOL     OW93697   5.248   0.808   0.455
14953SOL    HW193698   5.199   0.895   0.445
14953SOL    HW293699   5.323   0.819   0.519
14954SOL     OW93700  16.714   1.057   1.243
14954SOL    HW193701  16.758   1.136   1.200
14954SOL    HW293702  16.705   0.984   1.176
14955SOL     OW93703   0.345  15.046   6.188
14955SOL    HW193704   0.441  15.071   6.177
14955SOL    HW293705   0.297  15.056   6.100
14956SOL     OW93706   8.188  15.685   7.722
14956SOL    HW193707   8.254  15.646   7.659
14956SOL    HW293708   8.192  15.785   7.717
14957SOL     OW93709   4.339  16.042   0.024
14957SOL    HW193710   4.302  16.078   0.110
14957SOL    HW293711   4.273  16.056   8.404
14958SOL     OW93712  15.220   1.685   1.462
14958SOL    HW193713  15.235   1.712   1.366
14958SOL    HW293714  15.291   1.621   1.490
14959SOL     OW93715  14.577  14.375   7.789
14959SOL    HW193716  14.495  14.428   7.765
14959SOL    HW293717  14.623  14.347   7.705
14960SOL     OW93718  16.046   1.015   6.278
14960SOL    HW193719  16.145   1.001   6.284
14960SOL    HW293720  16.026   1.070   6.197
14961SOL     OW93721   5.653   8.570   6.729
14961SOL    HW193722   5.653   8.627   6.811
14961SOL    HW293723   5.579   8.598   6.668
14962SOL     OW93724  12.976   6.272   6.315
14962SOL    HW193725  13.022   6.248   6.229
14962SOL    HW293726  13.033   6.242   6.392
14963SOL     OW93727   4.409  14.312   1.153
14963SOL    HW193728   4.418  14.260   1.237
14963SOL    HW293729   4.401  14.410   1.174
14964SOL     OW93730  13.812   3.306   1.086
14964SOL    HW193731  13.775   3.214   1.070
14964SOL    HW293732  13.762   3.372   1.030
14965SOL     OW93733   3.807  12.491   0.046
14965SOL    HW193734   3.829  12.561   0.113
14965SOL    HW293735   3.718  12.450   0.067
14966SOL     OW93736   9.611   5.333   7.633
14966SOL    HW193737   9.582   5.303   7.542
14966SOL    HW293738   9.628   5.431   7.632
14967SOL     OW93739  14.240  15.391   2.461
14967SOL    HW193740  14.206  15.483   2.482
14967SOL    HW293741  14.190  15.323   2.514
14968SOL     OW93742   4.381  10.988   2.038
14968SOL    HW193743   4.316  11.044   1.987
14968SOL    HW293744   4.403  11.033   2.125
14969SOL     OW93745   1.298   4.988   0.381
14969SOL    HW193746   1.339   5.005   0.470
14969SOL    HW293747   1.311   4.892   0.356
14970SOL     OW93748   7.615   4.483   6.681
14970SOL    HW193749   7.682   4.465   6.609
14970SOL    HW293750   7.618   4.410   6.749
14971SOL     OW93751  14.325   4.390   7.855
14971SOL    HW193752  14.296   4.372   7.949
14971SOL    HW293753  14.323   4.489   7.839
14972SOL     OW93754   6.816  11.936   5.727
14972SOL    HW193755   6.756  11.868   5.685
14972SOL    HW293756   6.791  12.027   5.693
14973SOL     OW93757  16.529  10.826   6.856
14973SOL    HW193758  16.495  10.909   6.813
14973SOL    HW293759  16.556  10.761   6.785
14974SOL     OW93760   2.480  14.462   7.388
14974SOL    HW193761   2.406  14.470   7.321
14974SOL    HW293762   2.519  14.552   7.407
14975SOL     OW93763   3.314   2.006   1.803
14975SOL    HW193764   3.403   2.051   1.797
14975SOL    HW293765   3.309   1.934   1.734
14976SOL     OW93766   5.363  13.442   8.406
14976SOL    HW193767   5.346  13.347   8.383
14976SOL    HW293768   5.439  13.477   8.351
14977SOL     OW93769   4.471   5.653   7.468
14977SOL    HW193770   4.494   5.587   7.539
14977SOL    HW293771   4.543   5.722   7.461
14978SOL     OW93772   7.219   1.996   6.163
14978SOL    HW193773   7.154   2.064   6.130
14978SOL    HW293774   7.240   1.932   6.089
14979SOL     OW93775  16.290  14.357   6.644
14979SOL    HW193776  16.302  14.454   6.667
14979SOL    HW293777  16.369  14.325   6.592
14980SOL     OW93778   0.955  12.696   2.045
14980SOL    HW193779   0.901  12.616   2.069
14980SOL    HW293780   1.022  12.672   1.975
14981SOL     OW93781  10.313  15.307   2.005
14981SOL    HW193782  10.240  15.298   2.073
14981SOL    HW293783  10.401  15.310   2.052
14982SOL     OW93784  12.277   6.567   8.002
14982SOL    HW193785  12.293   6.513   7.919
14982SOL    HW293786  12.182   6.559   8.029
14983SOL     OW93787  10.342   4.203   0.729
14983SOL    HW193788  10.360   4.203   0.827
14983SOL    HW293789  10.332   4.109   0.697
14984SOL     OW93790   2.000   2.882   7.435
14984SOL    HW193791   1.953   2.813   7.491
14984SOL    HW293792   1.947   2.898   7.351
14985SOL     OW93793  11.487  15.515   6.982
14985SOL    HW193794  11.511  15.438   7.040
14985SOL    HW293795  11.486  15.487   6.886
14986SOL     OW93796   7.370   5.249   7.208
14986SOL    HW193797   7.299   5.235   7.277
14986SOL    HW293798   7.423   5.165   7.195
14987SOL     OW93799   0.127   6.125   7.767
14987SOL    HW193800   0.176   6.048   7.807
14987SOL    HW293801   0.048   6.147   7.824
14988SOL     OW93802  12.038   8.834   8.257
14988SOL    HW193803  11.992   8.831   8.346
14988SOL    HW293804  12.059   8.929   8.234
14989SOL     OW93805   8.683   2.072   6.410
14989SOL    HW193806   8.590   2.088   6.376
14989SOL    HW293807   8.748   2.080   6.334
14990SOL     OW93808   8.651   6.372   7.056
14990SOL    HW193809   8.672   6.295   6.996
14990SOL    HW293810   8.557   6.401   7.041
14991SOL     OW93811   8.017   5.639   1.090
14991SOL    HW193812   7.955   5.671   1.161
14991SOL    HW293813   8.095   5.701   1.083
14992SOL     OW93814  10.185   8.774   1.626
14992SOL    HW193815  10.253   8.820   1.569
14992SOL    HW293816  10.135   8.841   1.680
14993SOL     OW93817  15.218   1.042   1.432
14993SOL    HW193818  15.206   0.962   1.490
14993SOL    HW293819  15.141   1.049   1.368
14994SOL     OW93820  13.904   4.764   6.964
14994SOL    HW193821  13.883   4.695   7.033
14994SOL    HW293822  13.893   4.724   6.873
14995SOL     OW93823   0.969  10.874   0.460
14995SOL    HW193824   0.971  10.974   0.446
14995SOL    HW293825   1.051  10.833   0.420
14996SOL     OW93826   9.314   6.451   7.313
14996SOL    HW193827   9.384   6.513   7.277
14996SOL    HW293828   9.356   6.387   7.377
14997SOL     OW93829   7.075  12.970   7.074
14997SOL    HW193830   7.118  13.059   7.088
14997SOL    HW293831   7.126  12.918   7.005
14998SOL     OW93832   2.152   1.270   7.265
14998SOL    HW193833   2.168   1.305   7.173
14998SOL    HW293834   2.161   1.171   7.266
14999SOL     OW93835   5.401   5.102   7.625
14999SOL    HW193836   5.415   5.025   7.688
14999SOL    HW293837   5.490   5.136   7.595
15000SOL     OW93838  12.599   0.125   0.890
15000SOL    HW193839  12.506   0.123   0.927
15000SOL    HW293840  12.652   0.051   0.930
15001SOL     OW93841   8.503   6.127   0.745
15001SOL    HW193842   8.455   6.048   0.707
15001SOL    HW293843   8.520   6.194   0.673
15002SOL     OW93844   8.153  13.785   7.335
15002SOL    HW193845   8.114  13.846   7.403
15002SOL    HW293846   8.193  13.839   7.261
15003SOL     OW93847   4.506  13.859   1.231
15003SOL    HW193848   4.504  13.887   1.135
15003SOL    HW293849   4.560  13.925   1.283
15004SOL     OW93850   0.913   6.942   6.655
15004SOL    HW193851   0.870   7.019   6.703
15004SOL    HW293852   1.003   6.923   6.695
15005SOL     OW93853   1.486   7.024   7.623
15005SOL    HW193854   1.506   7.016   7.721
15005SOL    HW293855   1.391   6.998   7.606
15006SOL     OW93856   0.784  11.028   8.189
15006SOL    HW193857   0.884  11.034   8.189
15006SOL    HW293858   0.757  10.934   8.168
15007SOL     OW93859  16.109  12.902   1.107
15007SOL    HW193860  16.094  12.936   1.014
15007SOL    HW293861  16.112  12.979   1.170
15008SOL     OW93862  12.224  13.713   2.478
15008SOL    HW193863  12.190  13.796   2.522
15008SOL    HW293864  12.314  13.691   2.514
15009SOL     OW93865   6.368  12.932   8.434
15009SOL    HW193866   6.279  12.961   8.401
15009SOL    HW293867   6.375  12.832   8.428
15010SOL     OW93868   8.302   9.453   7.548
15010SOL    HW193869   8.363   9.504   7.609
15010SOL    HW293870   8.349   9.372   7.513
15011SOL     OW93871   7.583   8.680   1.813
15011SOL    HW193872   7.647   8.712   1.884
15011SOL    HW293873   7.490   8.679   1.850
15012SOL     OW93874  16.174  11.763   6.283
15012SOL    HW193875  16.191  11.682   6.226
15012SOL    HW293876  16.208  11.844   6.235
15013SOL     OW93877   5.584  16.101   1.368
15013SOL    HW193878   5.674  16.144   1.361
15013SOL    HW293879   5.515  16.159   1.325
15014SOL     OW93880   0.108   9.500   1.113
15014SOL    HW193881   0.089   9.596   1.093
15014SOL    HW293882   0.115   9.448   1.028
15015SOL     OW93883  12.052  14.825   7.260
15015SOL    HW193884  12.036  14.855   7.166
15015SOL    HW293885  12.150  14.830   7.280
15016SOL     OW93886  11.668   6.572   6.226
15016SOL    HW193887  11.626   6.486   6.257
15016SOL    HW293888  11.649   6.583   6.128
15017SOL     OW93889   4.231   0.705   0.276
15017SOL    HW193890   4.322   0.678   0.247
15017SOL    HW293891   4.179   0.624   0.305
15018SOL     OW93892   8.133   9.045   8.166
15018SOL    HW193893   8.069   9.028   8.091
15018SOL    HW293894   8.158   8.957   8.208
15019SOL     OW93895  16.417   6.073   0.157
15019SOL    HW193896  16.373   6.163   0.165
15019SOL    HW293897  16.457   6.048   0.246
15020SOL     OW93898  12.880  10.132   7.615
15020SOL    HW193899  12.890  10.205   7.682
15020SOL    HW293900  12.785  10.126   7.586
15021SOL     OW93901   2.501   9.726   7.874
15021SOL    HW193902   2.429   9.699   7.938
15021SOL    HW293903   2.463   9.729   7.782
15022SOL     OW93904   2.456  13.055   2.884
15022SOL    HW193905   2.482  13.144   2.847
15022SOL    HW293906   2.514  13.035   2.964
15023SOL     OW93907  13.161  15.874   7.101
15023SOL    HW193908  13.163  15.961   7.052
15023SOL    HW293909  13.191  15.801   7.039
15024SOL     OW93910  14.398   0.227   0.618
15024SOL    HW193911  14.452   0.269   0.691
15024SOL    HW293912  14.312   0.277   0.607
15025SOL     OW93913   0.382   6.979   8.359
15025SOL    HW193914   0.326   7.061   8.345
15025SOL    HW293915   0.395   6.932   8.272
15026SOL     OW93916  12.801  16.859   8.181
15026SOL    HW193917  12.802  16.887   8.277
15026SOL    HW293918  12.887  16.888   8.137
15027SOL     OW93919  14.447  11.674   2.633
15027SOL    HW193920  14.437  11.595   2.694
15027SOL    HW293921  14.535  11.718   2.651
15028SOL     OW93922   8.400   7.040   1.394
15028SOL    HW193923   8.349   6.961   1.360
15028SOL    HW293924   8.395   7.043   1.494
15029SOL     OW93925   8.333   9.315   2.240
15029SOL    HW193926   8.280   9.359   2.313
15029SOL    HW293927   8.390   9.243   2.279
15030SOL     OW93928   0.066  10.991   0.896
15030SOL    HW193929   0.124  11.002   0.816
15030SOL    HW293930   0.120  10.959   0.974
15031SOL     OW93931  13.099   2.523   6.709
15031SOL    HW193932  13.088   2.490   6.803
15031SOL    HW293933  13.093   2.622   6.707
15032SOL     OW93934   2.540  10.358   0.195
15032SOL    HW193935   2.556  10.456   0.192
15032SOL    HW293936   2.623  10.311   0.224
15033SOL     OW93937  13.256   6.132   1.542
15033SOL    HW193938  13.324   6.084   1.598
15033SOL    HW293939  13.287   6.225   1.523
15034SOL     OW93940   7.788   6.419   1.171
15034SOL    HW193941   7.887   6.435   1.176
15034SOL    HW293942   7.751   6.415   1.263
15035SOL     OW93943   8.280  13.024   0.943
15035SOL    HW193944   8.182  13.030   0.927
15035SOL    HW293945   8.300  12.955   1.012
15036SOL     OW93946   6.444   4.198   1.003
15036SOL    HW193947   6.510   4.179   0.930
15036SOL    HW293948   6.439   4.119   1.064
15037SOL     OW93949   5.793  13.463   1.814
15037SOL    HW193950   5.806  13.458   1.913
15037SOL    HW293951   5.716  13.403   1.788
15038SOL     OW93952   8.976   9.506   1.145
15038SOL    HW193953   8.890   9.460   1.171
15038SOL    HW293954   9.036   9.440   1.099
15039SOL     OW93955   3.380  14.857   6.279
15039SOL    HW193956   3.291  14.903   6.270
15039SOL    HW293957   3.404  14.813   6.193
15040SOL     OW93958   2.694  11.391   1.437
15040SOL    HW193959   2.785  11.429   1.425
15040SOL    HW293960   2.642  11.448   1.501
15041SOL     OW93961  16.714  11.373   8.137
15041SOL    HW193962  16.647  11.350   8.207
15041SOL    HW293963  16.714  11.472   8.122
15042SOL     OW93964   2.644  14.872   7.168
15042SOL    HW193965   2.636  14.821   7.254
15042SOL    HW293966   2.611  14.814   7.093
15043SOL     OW93967  12.355  11.882   7.926
15043SOL    HW193968  12.394  11.969   7.954
15043SOL    HW293969  12.383  11.861   7.832
15044SOL     OW93970  15.752   4.472   8.007
15044SOL    HW193971  15.743   4.570   8.024
15044SOL    HW293972  15.726   4.422   8.090
15045SOL     OW93973   7.072  12.632   0.284
15045SOL    HW193974   7.124  12.710   0.250
15045SOL    HW293975   6.989  12.620   0.228
15046SOL     OW93976   8.136  11.974   6.665
15046SOL    HW193977   8.049  11.961   6.618
15046SOL    HW293978   8.168  11.886   6.700
15047SOL     OW93979  13.199   7.545   7.395
15047SOL    HW193980  13.268   7.520   7.327
15047SOL    HW293981  13.118   7.489   7.382
15048SOL     OW93982   9.783   5.162   6.005
15048SOL    HW193983   9.731   5.130   6.084
15048SOL    HW293984   9.812   5.257   6.021
15049SOL     OW93985   2.019   9.671   8.295
15049SOL    HW193986   1.940   9.653   8.354
15049SOL    HW293987   2.048   9.766   8.306
15050SOL     OW93988   4.524   9.553   6.327
15050SOL    HW193989   4.540   9.454   6.328
15050SOL    HW293990   4.609   9.600   6.308
15051SOL     OW93991   3.396   1.845   7.395
15051SOL    HW193992   3.425   1.771   7.455
15051SOL    HW293993   3.298   1.860   7.404
15052SOL     OW93994   4.617   3.723   1.425
15052SOL    HW193995   4.670   3.673   1.493
15052SOL    HW293996   4.609   3.818   1.452
15053SOL     OW93997   1.880  15.300   1.256
15053SOL    HW193998   1.889  15.231   1.184
15053SOL    HW293999   1.784  15.327   1.264
15054SOL     OW94000   7.790  11.419   1.075
15054SOL    HW194001   7.816  11.482   1.148
15054SOL    HW294002   7.690  11.413   1.070
15055SOL     OW94003   9.234   8.748   7.484
15055SOL    HW194004   9.147   8.704   7.461
15055SOL    HW294005   9.305   8.716   7.422
15056SOL     OW94006  13.607  15.043   7.157
15056SOL    HW194007  13.598  14.945   7.136
15056SOL    HW294008  13.541  15.094   7.102
15057SOL     OW94009   9.361   3.405   0.505
15057SOL    HW194010   9.279   3.426   0.453
15057SOL    HW294011   9.440   3.403   0.444
15058SOL     OW94012  11.417   1.421   8.330
15058SOL    HW194013  11.459   1.388   8.245
15058SOL    HW294014  11.414   1.521   8.329
15059SOL     OW94015  14.034   8.959   0.096
15059SOL    HW194016  13.975   8.986   0.172
15059SOL    HW294017  14.093   9.036   0.072
15060SOL     OW94018   7.942   5.333   6.480
15060SOL    HW194019   7.931   5.426   6.515
15060SOL    HW294020   7.911   5.329   6.385
15061SOL     OW94021  11.004   7.995   1.432
15061SOL    HW194022  10.911   8.018   1.403
15061SOL    HW294023  11.043   8.072   1.483
15062SOL     OW94024  15.418   8.383   7.046
15062SOL    HW194025  15.342   8.328   7.011
15062SOL    HW294026  15.487   8.323   7.085
15063SOL     OW94027   1.849   1.641   0.358
15063SOL    HW194028   1.899   1.681   0.435
15063SOL    HW294029   1.751   1.645   0.376
15064SOL     OW94030  13.497   0.463   7.978
15064SOL    HW194031  13.563   0.533   8.004
15064SOL    HW294032  13.542   0.395   7.919
15065SOL     OW94033   0.603   0.936   7.563
15065SOL    HW194034   0.536   0.980   7.504
15065SOL    HW294035   0.695   0.965   7.535
15066SOL     OW94036   2.030   6.831   7.296
15066SOL    HW194037   2.002   6.927   7.299
15066SOL    HW294038   1.973   6.782   7.229
15067SOL     OW94039   4.488  12.444   0.962
15067SOL    HW194040   4.499  12.490   1.050
15067SOL    HW294041   4.575  12.404   0.933
15068SOL     OW94042   2.236   7.124   7.358
15068SOL    HW194043   2.138   7.127   7.341
15068SOL    HW294044   2.281   7.195   7.304
15069SOL     OW94045  10.244   8.822   7.101
15069SOL    HW194046  10.305   8.754   7.142
15069SOL    HW294047  10.155   8.780   7.081
15070SOL     OW94048   2.746  12.204   7.812
15070SOL    HW194049   2.767  12.291   7.858
15070SOL    HW294050   2.823  12.178   7.754
15071SOL     OW94051   3.208   9.226   1.570
15071SOL    HW194052   3.167   9.215   1.661
15071SOL    HW294053   3.295   9.178   1.567
15072SOL     OW94054  14.935  11.612   7.993
15072SOL    HW194055  14.993  11.690   8.018
15072SOL    HW294056  14.842  11.644   7.975
15073SOL     OW94057  13.814   2.386   1.256
15073SOL    HW194058  13.840   2.314   1.321
15073SOL    HW294059  13.729   2.428   1.287
15074SOL     OW94060   9.221   9.864   8.384
15074SOL    HW194061   9.253   9.859   8.290
15074SOL    HW294062   9.211   9.772   8.421
15075SOL     OW94063   8.944   2.789   0.805
15075SOL    HW194064   9.003   2.714   0.834
15075SOL    HW294065   8.999   2.860   0.762
15076SOL     OW94066   7.158   4.526   0.182
15076SOL    HW194067   7.234   4.558   0.239
15076SOL    HW294068   7.078   4.508   0.238
15077SOL     OW94069   1.034  13.538   0.221
15077SOL    HW194070   1.047  13.615   0.283
15077SOL    HW294071   0.992  13.462   0.270
15078SOL     OW94072  14.838  10.116   1.267
15078SOL    HW194073  14.882  10.161   1.189
15078SOL    HW294074  14.905  10.107   1.341
15079SOL     OW94075  14.210   0.409   7.910
15079SOL    HW194076  14.174   0.383   7.820
15079SOL    HW294077  14.302   0.446   7.900
15080SOL     OW94078  15.215   6.207   0.013
15080SOL    HW194079  15.287   6.223   0.080
15080SOL    HW294080  15.131   6.181   0.060
15081SOL     OW94081   5.131  16.684   0.203
15081SOL    HW194082   5.225  16.654   0.183
15081SOL    HW294083   5.095  16.733   0.124
15082SOL     OW94084  15.314   9.024   6.825
15082SOL    HW194085  15.266   9.096   6.876
15082SOL    HW294086  15.289   9.029   6.729
15083SOL     OW94087   0.467  13.996   1.483
15083SOL    HW194088   0.369  13.980   1.474
15083SOL    HW294089   0.484  14.093   1.500
15084SOL     OW94090   0.158  13.840   0.907
15084SOL    HW194091   0.203  13.820   0.994
15084SOL    HW294092   0.207  13.794   0.833
15085SOL     OW94093   5.798  12.495   7.493
15085SOL    HW194094   5.808  12.415   7.552
15085SOL    HW294095   5.701  12.521   7.489
15086SOL     OW94096   5.695   7.621   6.649
15086SOL    HW194097   5.670   7.541   6.702
15086SOL    HW294098   5.613   7.662   6.609
15087SOL     OW94099  15.256  12.796   7.607
15087SOL    HW194100  15.215  12.718   7.559
15087SOL    HW294101  15.285  12.864   7.540
15088SOL     OW94102   6.395  11.693   0.197
15088SOL    HW194103   6.491  11.670   0.182
15088SOL    HW294104   6.388  11.785   0.235
15089SOL     OW94105  14.904  16.149   5.671
15089SOL    HW194106  14.930  16.056   5.696
15089SOL    HW294107  14.964  16.181   5.597
15090SOL     OW94108   3.533   2.159   1.489
15090SOL    HW194109   3.573   2.076   1.450
15090SOL    HW294110   3.450   2.183   1.438
15091SOL     OW94111  12.161  10.959   0.518
15091SOL    HW194112  12.176  10.982   0.422
15091SOL    HW294113  12.170  11.042   0.573
15092SOL     OW94114   0.166   1.131   7.381
15092SOL    HW194115   0.182   1.225   7.409
15092SOL    HW294116   0.078   1.100   7.418
15093SOL     OW94117  12.637   2.583   5.693
15093SOL    HW194118  12.594   2.670   5.668
15093SOL    HW294119  12.626   2.518   5.618
15094SOL     OW94120   3.099  10.340   1.915
15094SOL    HW194121   2.999  10.334   1.910
15094SOL    HW294122   3.138  10.251   1.893
15095SOL     OW94123   1.851  11.381   2.113
15095SOL    HW194124   1.858  11.385   2.013
15095SOL    HW294125   1.927  11.326   2.149
15096SOL     OW94126   7.498  15.702   1.540
15096SOL    HW194127   7.575  15.750   1.582
15096SOL    HW294128   7.475  15.622   1.595
15097SOL     OW94129  11.923   1.511   6.121
15097SOL    HW194130  11.965   1.519   6.211
15097SOL    HW294131  11.861   1.588   6.106
15098SOL     OW94132   5.817  15.895   0.393
15098SOL    HW194133   5.864  15.808   0.376
15098SOL    HW294134   5.748  15.882   0.464
15099SOL     OW94135   0.480   9.295   0.454
15099SOL    HW194136   0.459   9.283   0.356
15099SOL    HW294137   0.395   9.290   0.507
15100SOL     OW94138   9.328   4.218   1.622
15100SOL    HW194139   9.363   4.240   1.714
15100SOL    HW294140   9.402   4.179   1.567
15101SOL     OW94141   5.717   5.389   1.382
15101SOL    HW194142   5.698   5.402   1.284
15101SOL    HW294143   5.670   5.458   1.435
15102SOL     OW94144   4.916  16.100   6.292
15102SOL    HW194145   4.900  16.179   6.233
15102SOL    HW294146   4.828  16.056   6.314
15103SOL     OW94147   7.270   5.663   7.698
15103SOL    HW194148   7.269   5.565   7.715
15103SOL    HW294149   7.335   5.708   7.759
15104SOL     OW94150   8.541   4.108   6.285
15104SOL    HW194151   8.477   4.085   6.212
15104SOL    HW294152   8.624   4.053   6.275
15105SOL     OW94153  12.008   7.314   7.824
15105SOL    HW194154  12.071   7.364   7.883
15105SOL    HW294155  12.031   7.332   7.728
15106SOL     OW94156   1.133  10.215   0.907
15106SOL    HW194157   1.131  10.293   0.844
15106SOL    HW294158   1.051  10.159   0.892
15107SOL     OW94159   6.717  15.578   6.820
15107SOL    HW194160   6.638  15.627   6.783
15107SOL    HW294161   6.743  15.505   6.757
15108SOL     OW94162  15.575  12.428   6.400
15108SOL    HW194163  15.551  12.498   6.332
15108SOL    HW294164  15.518  12.348   6.387
15109SOL     OW94165  15.690   6.106   6.476
15109SOL    HW194166  15.736   6.168   6.540
15109SOL    HW294167  15.736   6.018   6.475
15110SOL     OW94168   5.743   1.850   1.222
15110SOL    HW194169   5.789   1.763   1.203
15110SOL    HW294170   5.754   1.873   1.319
15111SOL     OW94171   5.168   5.890   6.914
15111SOL    HW194172   5.145   5.876   7.010
15111SOL    HW294173   5.256   5.847   6.894
15112SOL     OW94174  10.652  14.790   6.362
15112SOL    HW194175  10.616  14.741   6.282
15112SOL    HW294176  10.683  14.881   6.334
15113SOL     OW94177  14.474   4.454   0.168
15113SOL    HW194178  14.478   4.545   0.210
15113SOL    HW294179  14.393   4.448   0.109
15114SOL     OW94180  10.330   1.889   6.084
15114SOL    HW194181  10.241   1.932   6.069
15114SOL    HW294182  10.382   1.889   5.999
15115SOL     OW94183   6.127   4.369   2.137
15115SOL    HW194184   6.180   4.338   2.215
15115SOL    HW294185   6.030   4.359   2.156
15116SOL     OW94186  16.351  10.956   1.779
15116SOL    HW194187  16.381  11.050   1.766
15116SOL    HW294188  16.405  10.914   1.852
15117SOL     OW94189  11.533   7.422   6.655
15117SOL    HW194190  11.497   7.412   6.562
15117SOL    HW294191  11.619   7.372   6.662
15118SOL     OW94192   9.290   0.555   7.973
15118SOL    HW194193   9.214   0.495   7.995
15118SOL    HW294194   9.372   0.525   8.021
15119SOL     OW94195   7.821   7.215   7.301
15119SOL    HW194196   7.864   7.127   7.317
15119SOL    HW294197   7.831   7.273   7.382
15120SOL     OW94198  16.462   1.174   1.233
15120SOL    HW194199  16.552   1.135   1.249
15120SOL    HW294200  16.406   1.108   1.181
15121SOL     OW94201   8.670   9.575   7.428
15121SOL    HW194202   8.669   9.476   7.441
15121SOL    HW294203   8.663   9.620   7.518
15122SOL     OW94204   5.293  10.273   1.893
15122SOL    HW194205   5.214  10.247   1.948
15122SOL    HW294206   5.346  10.192   1.868
15123SOL     OW94207   4.685   9.703   0.309
15123SOL    HW194208   4.618   9.776   0.320
15123SOL    HW294209   4.751   9.729   0.238
15124SOL     OW94210   3.525  10.895   0.669
15124SOL    HW194211   3.524  10.797   0.690
15124SOL    HW294212   3.555  10.909   0.575
15125SOL     OW94213  12.694   4.447   6.324
15125SOL    HW194214  12.659   4.540   6.339
15125SOL    HW294215  12.762   4.448   6.252
15126SOL     OW94216  10.936  15.698   7.475
15126SOL    HW194217  11.025  15.739   7.456
15126SOL    HW294218  10.882  15.760   7.533
15127SOL     OW94219  14.167  13.762   6.835
15127SOL    HW194220  14.111  13.840   6.806
15127SOL    HW294221  14.188  13.704   6.756
15128SOL     OW94222   0.142  15.098   6.798
15128SOL    HW194223   0.102  15.142   6.718
15128SOL    HW294224   0.170  15.169   6.864
15129SOL     OW94225   1.579  16.184   7.405
15129SOL    HW194226   1.582  16.156   7.309
15129SOL    HW294227   1.523  16.120   7.456
15130SOL     OW94228   2.179   2.011   1.743
15130SOL    HW194229   2.206   1.916   1.760
15130SOL    HW294230   2.094   2.030   1.791
15131SOL     OW94231   7.255   2.754   7.684
15131SOL    HW194232   7.212   2.667   7.709
15131SOL    HW294233   7.254   2.764   7.585
15132SOL     OW94234   4.939   0.955   1.508
15132SOL    HW194235   4.897   0.977   1.420
15132SOL    HW294236   4.982   1.037   1.546
15133SOL     OW94237   9.491   6.089   1.149
15133SOL    HW194238   9.521   6.158   1.215
15133SOL    HW294239   9.527   6.000   1.177
15134SOL     OW94240  14.077   3.743   0.670
15134SOL    HW194241  14.174   3.754   0.692
15134SOL    HW294242  14.068   3.702   0.579
15135SOL     OW94243   3.719   4.800   0.282
15135SOL    HW194244   3.624   4.805   0.314
15135SOL    HW294245   3.781   4.820   0.358
15136SOL     OW94246   7.829   6.686   6.862
15136SOL    HW194247   7.781   6.599   6.850
15136SOL    HW294248   7.763   6.759   6.880
15137SOL     OW94249   6.195   5.303   6.943
15137SOL    HW194250   6.148   5.348   6.867
15137SOL    HW294251   6.196   5.363   7.022
15138SOL     OW94252  10.457  11.662   1.447
15138SOL    HW194253  10.457  11.636   1.350
15138SOL    HW294254  10.366  11.695   1.472
15139SOL     OW94255  14.244  15.240   1.525
15139SOL    HW194256  14.186  15.177   1.576
15139SOL    HW294257  14.287  15.191   1.448
15140SOL     OW94258  11.533   4.189   8.085
15140SOL    HW194259  11.631   4.206   8.087
15140SOL    HW294260  11.511   4.127   8.010
15141SOL     OW94261   9.667  11.811   0.658
15141SOL    HW194262   9.568  11.798   0.665
15141SOL    HW294263   9.700  11.768   0.574
15142SOL     OW94264   0.677  16.029   1.436
15142SOL    HW194265   0.766  15.985   1.446
15142SOL    HW294266   0.605  15.968   1.469
15143SOL     OW94267   5.201  13.826   6.571
15143SOL    HW194268   5.229  13.739   6.530
15143SOL    HW294269   5.102  13.837   6.565
15144SOL     OW94270   1.100  16.279   0.331
15144SOL    HW194271   1.086  16.372   0.364
15144SOL    HW294272   1.054  16.268   0.243
15145SOL     OW94273   6.067   8.312   0.357
15145SOL    HW194274   6.142   8.247   0.347
15145SOL    HW294275   6.093   8.382   0.424
15146SOL     OW94276   0.406   7.489   8.168
15146SOL    HW194277   0.358   7.408   8.137
15146SOL    HW294278   0.463   7.525   8.094
15147SOL     OW94279  14.063   1.762   0.431
15147SOL    HW194280  14.125   1.712   0.370
15147SOL    HW294281  13.970   1.757   0.395
15148SOL     OW94282  16.454  13.683   0.201
15148SOL    HW194283  16.552  13.665   0.198
15148SOL    HW294284  16.419  13.661   0.292
15149SOL     OW94285   4.513  12.043   1.696
15149SOL    HW194286   4.503  11.971   1.764
15149SOL    HW294287   4.585  12.106   1.724
15150SOL     OW94288   4.772  16.129   7.741
15150SOL    HW194289   4.862  16.147   7.781
15150SOL    HW294290   4.780  16.056   7.673
15151SOL     OW94291  16.739  10.741   1.534
15151SOL    HW194292  16.821  10.794   1.514
15151SOL    HW294293  16.740  10.710   1.629
15152SOL     OW94294  12.663  11.927   6.812
15152SOL    HW194295  12.640  11.864   6.738
15152SOL    HW294296  12.636  11.888   6.900
15153SOL     OW94297  11.022   7.910   7.602
15153SOL    HW194298  10.947   7.848   7.579
15153SOL    HW294299  11.085   7.914   7.525
15154SOL     OW94300  13.869   8.999   0.325
15154SOL    HW194301  13.850   8.901   0.311
15154SOL    HW294302  13.841   9.025   0.418
15155SOL     OW94303  11.099   0.236   1.094
15155SOL    HW194304  11.080   0.138   1.082
15155SOL    HW294305  11.146   0.250   1.181
15156SOL     OW94306   8.749   3.148   7.961
15156SOL    HW194307   8.740   3.103   7.872
15156SOL    HW294308   8.829   3.113   8.008
15157SOL     OW94309   8.552  12.038   8.259
15157SOL    HW194310   8.628  11.994   8.211
15157SOL    HW294311   8.583  12.126   8.294
15158SOL     OW94312  15.101   6.647   8.357
15158SOL    HW194313  15.082   6.556   8.321
15158SOL    HW294314  15.132   6.707   8.282
15159SOL     OW94315   5.996  10.266   7.860
15159SOL    HW194316   6.013  10.364   7.866
15159SOL    HW294317   6.047  10.228   7.783
15160SOL     OW94318   9.306   0.876   6.063
15160SOL    HW194319   9.276   0.788   6.025
15160SOL    HW294320   9.391   0.863   6.114
15161SOL     OW94321  10.713   1.372   8.355
15161SOL    HW194322  10.807   1.385   8.322
15161SOL    HW294323  10.699   1.428   8.437
15162SOL     OW94324   5.009   6.142   7.182
15162SOL    HW194325   5.018   6.140   7.282
15162SOL    HW294326   4.913   6.127   7.157
15163SOL     OW94327   7.328  10.144   7.777
15163SOL    HW194328   7.366  10.204   7.847
15163SOL    HW294329   7.285  10.065   7.820
15164SOL     OW94330   0.252  12.376   1.848
15164SOL    HW194331   0.156  12.400   1.861
15164SOL    HW294332   0.261  12.313   1.771
15165SOL     OW94333   5.745   5.695   1.048
15165SOL    HW194334   5.743   5.750   1.132
15165SOL    HW294335   5.683   5.733   0.981
15166SOL     OW94336  15.667  12.920   0.014
15166SOL    HW194337  15.634  12.992   8.407
15166SOL    HW294338  15.640  12.942   0.108
15167SOL     OW94339  15.913   7.387   8.450
15167SOL    HW194340  15.883   7.453   0.065
15167SOL    HW294341  15.861   7.302   0.007
15168SOL     OW94342   1.574   0.881   1.441
15168SOL    HW194343   1.479   0.865   1.413
15168SOL    HW294344   1.584   0.975   1.472
15169SOL     OW94345   5.875  12.942   7.346
15169SOL    HW194346   5.775  12.951   7.351
15169SOL    HW294347   5.913  12.943   7.438
15170SOL     OW94348   0.345   0.686   1.356
15170SOL    HW194349   0.427   0.675   1.412
15170SOL    HW294350   0.313   0.596   1.326
15171SOL     OW94351  13.834   5.116   0.982
15171SOL    HW194352  13.878   5.192   0.934
15171SOL    HW294353  13.883   5.031   0.962
15172SOL     OW94354  10.589   4.458   6.653
15172SOL    HW194355  10.687   4.481   6.647
15172SOL    HW294356  10.570   4.418   6.743
15173SOL     OW94357   2.246   4.465   1.289
15173SOL    HW194358   2.261   4.399   1.363
15173SOL    HW294359   2.178   4.533   1.319
15174SOL     OW94360   8.752   7.621   0.053
15174SOL    HW194361   8.674   7.629   8.444
15174SOL    HW294362   8.721   7.640   0.147
15175SOL     OW94363  16.340   0.258   0.571
15175SOL    HW194364  16.308   0.275   0.665
15175SOL    HW294365  16.375   0.165   0.564
15176SOL     OW94366   8.834   4.468   6.752
15176SOL    HW194367   8.744   4.454   6.709
15176SOL    HW294368   8.821   4.509   6.842
15177SOL     OW94369   3.358   8.519   1.054
15177SOL    HW194370   3.366   8.531   1.153
15177SOL    HW294371   3.330   8.425   1.034
15178SOL     OW94372  11.304   3.362   1.017
15178SOL    HW194373  11.376   3.400   1.076
15178SOL    HW294374  11.344   3.296   0.954
15179SOL     OW94375   3.180   4.437   1.382
15179SOL    HW194376   3.157   4.439   1.479
15179SOL    HW294377   3.157   4.347   1.344
15180SOL     OW94378   7.515  14.964   7.300
15180SOL    HW194379   7.573  14.956   7.381
15180SOL    HW294380   7.425  14.925   7.320
15181SOL     OW94381   3.020   3.226   7.022
15181SOL    HW194382   3.101   3.178   6.989
15181SOL    HW294383   2.938   3.183   6.985
15182SOL     OW94384   1.820  11.392   7.497
15182SOL    HW194385   1.899  11.345   7.536
15182SOL    HW294386   1.738  11.337   7.513
15183SOL     OW94387  11.475   0.663   0.845
15183SOL    HW194388  11.487   0.730   0.918
15183SOL    HW294389  11.437   0.709   0.764
15184SOL     OW94390   3.540  16.304   7.075
15184SOL    HW194391   3.640  16.301   7.079
15184SOL    HW294392   3.510  16.283   6.982
15185SOL     OW94393  16.393   6.247   7.863
15185SOL    HW194394  16.399   6.162   7.811
15185SOL    HW294395  16.463   6.311   7.832
15186SOL     OW94396  15.781  14.750   6.846
15186SOL    HW194397  15.771  14.701   6.759
15186SOL    HW294398  15.862  14.809   6.842
15187SOL     OW94399   4.227   7.053   0.001
15187SOL    HW194400   4.195   7.055   8.360
15187SOL    HW294401   4.208   7.141   0.044
15188SOL     OW94402   6.454   3.899   7.905
15188SOL    HW194403   6.523   3.917   7.835
15188SOL    HW294404   6.458   3.802   7.931
15189SOL     OW94405   3.006  13.732   1.264
15189SOL    HW194406   3.094  13.732   1.313
15189SOL    HW294407   3.017  13.779   1.177
15190SOL     OW94408   8.670   7.261   7.590
15190SOL    HW194409   8.763   7.232   7.610
15190SOL    HW294410   8.633   7.312   7.668
15191SOL     OW94411   5.098   3.813   8.020
15191SOL    HW194412   5.081   3.726   7.974
15191SOL    HW294413   5.188   3.810   8.064
15192SOL     OW94414  15.003  10.691   7.303
15192SOL    HW194415  15.065  10.614   7.287
15192SOL    HW294416  14.981  10.696   7.400
15193SOL     OW94417   1.282  13.096   0.921
15193SOL    HW194418   1.262  13.192   0.939
15193SOL    HW294419   1.380  13.084   0.908
15194SOL     OW94420   0.875  16.876   1.162
15194SOL    HW194421   0.917  16.908   1.078
15194SOL    HW294422   0.825  16.791   1.144
15195SOL     OW94423   9.191   8.262   7.937
15195SOL    HW194424   9.103   8.310   7.939
15195SOL    HW294425   9.265   8.327   7.952
15196SOL     OW94426  16.787  16.963   8.184
15196SOL    HW194427  16.736   0.035   8.250
15196SOL    HW294428  16.821   0.039   8.110
15197SOL     OW94429   1.898  12.376   6.935
15197SOL    HW194430   1.989  12.348   6.904
15197SOL    HW294431   1.836  12.381   6.856
15198SOL     OW94432   2.201   5.027   1.093
15198SOL    HW194433   2.170   5.113   1.051
15198SOL    HW294434   2.188   4.952   1.029
15199SOL     OW94435  11.903   1.113   7.716
15199SOL    HW194436  11.876   1.194   7.664
15199SOL    HW294437  11.888   1.129   7.813
15200SOL     OW94438  14.167  15.666   7.822
15200SOL    HW194439  14.236  15.596   7.807
15200SOL    HW294440  14.129  15.656   7.914
15201SOL     OW94441   1.975  11.612   1.744
15201SOL    HW194442   1.910  11.660   1.686
15201SOL    HW294443   1.929  11.536   1.791
15202SOL     OW94444   6.756   5.667   6.698
15202SOL    HW194445   6.819   5.630   6.766
15202SOL    HW294446   6.761   5.767   6.699
15203SOL     OW94447   0.118   5.813   7.380
15203SOL    HW194448   0.121   5.905   7.421
15203SOL    HW294449   0.023   5.785   7.369
15204SOL     OW94450   2.332   8.603   2.048
15204SOL    HW194451   2.423   8.579   2.080
15204SOL    HW294452   2.265   8.579   2.119
15205SOL     OW94453  10.431   1.202   0.396
15205SOL    HW194454  10.449   1.110   0.430
15205SOL    HW294455  10.478   1.215   0.309
15206SOL     OW94456  14.311   4.143   6.919
15206SOL    HW194457  14.379   4.210   6.889
15206SOL    HW294458  14.357   4.068   6.967
15207SOL     OW94459   6.107  15.348   0.293
15207SOL    HW194460   6.172  15.275   0.311
15207SOL    HW294461   6.049  15.362   0.374
15208SOL     OW94462  10.520   6.159   6.268
15208SOL    HW194463  10.596   6.163   6.203
15208SOL    HW294464  10.484   6.066   6.271
15209SOL     OW94465   8.375   5.733   2.276
15209SOL    HW194466   8.405   5.688   2.361
15209SOL    HW294467   8.450   5.788   2.240
15210SOL     OW94468   0.960   4.121   7.170
15210SOL    HW194469   1.013   4.057   7.225
15210SOL    HW294470   0.876   4.076   7.139
15211SOL     OW94471   8.513   6.388   0.045
15211SOL    HW194472   8.416   6.377   0.068
15211SOL    HW294473   8.523   6.392   8.400
15212SOL     OW94474   8.358  12.623   7.255
15212SOL    HW194475   8.315  12.537   7.229
15212SOL    HW294476   8.433  12.605   7.319
15213SOL     OW94477   0.364  12.233   0.156
15213SOL    HW194478   0.430  12.284   0.100
15213SOL    HW294479   0.365  12.137   0.129
15214SOL     OW94480  12.985   2.226   6.050
15214SOL    HW194481  13.008   2.322   6.036
15214SOL    HW294482  12.969   2.182   5.961
15215SOL     OW94483   5.642   1.785   7.381
15215SOL    HW194484   5.607   1.710   7.325
15215SOL    HW294485   5.579   1.863   7.375
15216SOL     OW94486   1.225  11.235   8.346
15216SOL    HW194487   1.307  11.264   8.394
15216SOL    HW294488   1.170  11.175   8.405
15217SOL     OW94489   5.390   3.059   1.503
15217SOL    HW194490   5.419   2.971   1.540
15217SOL    HW294491   5.293   3.053   1.476
15218SOL     OW94492   9.004   4.133   7.947
15218SOL    HW194493   8.977   4.136   8.043
15218SOL    HW294494   9.011   4.038   7.917
15219SOL     OW94495   7.984   6.621   7.209
15219SOL    HW194496   7.920   6.698   7.203
15219SOL    HW294497   7.944   6.542   7.164
15220SOL     OW94498   9.258  16.121   6.139
15220SOL    HW194499   9.280  16.152   6.231
15220SOL    HW294500   9.269  16.197   6.075
15221SOL     OW94501   3.248   3.712   0.445
15221SOL    HW194502   3.328   3.714   0.505
15221SOL    HW294503   3.277   3.726   0.350
15222SOL     OW94504   9.359  13.492   1.670
15222SOL    HW194505   9.320  13.537   1.750
15222SOL    HW294506   9.309  13.520   1.588
15223SOL     OW94507  12.764   5.144   6.397
15223SOL    HW194508  12.699   5.194   6.454
15223SOL    HW294509  12.847   5.125   6.450
15224SOL     OW94510  14.526  13.110   1.406
15224SOL    HW194511  14.574  13.182   1.457
15224SOL    HW294512  14.545  13.021   1.447
15225SOL     OW94513  11.973  15.715   0.134
15225SOL    HW194514  11.935  15.797   0.177
15225SOL    HW294515  12.070  15.731   0.113
15226SOL     OW94516  11.380   8.497   1.404
15226SOL    HW194517  11.419   8.588   1.417
15226SOL    HW294518  11.288   8.495   1.444
15227SOL     OW94519   4.638  13.405   6.376
15227SOL    HW194520   4.583  13.322   6.380
15227SOL    HW294521   4.728  13.384   6.337
15228SOL     OW94522  10.327  10.852   0.146
15228SOL    HW194523  10.279  10.778   0.099
15228SOL    HW294524  10.383  10.814   0.219
15229SOL     OW94525   0.855  13.427   2.113
15229SOL    HW194526   0.911  13.451   2.034
15229SOL    HW294527   0.906  13.367   2.173
15230SOL     OW94528   5.773   5.641   0.397
15230SOL    HW194529   5.834   5.561   0.392
15230SOL    HW294530   5.746   5.657   0.492
15231SOL     OW94531   0.661  16.871   8.326
15231SOL    HW194532   0.717  16.793   8.297
15231SOL    HW294533   0.613  16.909   8.247
15232SOL     OW94534   3.866  11.478   8.033
15232SOL    HW194535   3.832  11.570   8.056
15232SOL    HW294536   3.944  11.456   8.091
15233SOL     OW94537  16.618  11.288   7.635
15233SOL    HW194538  16.714  11.293   7.607
15233SOL    HW294539  16.613  11.268   7.733
15234SOL     OW94540   3.859   0.675   7.896
15234SOL    HW194541   3.928   0.732   7.940
15234SOL    HW294542   3.866   0.686   7.797
15235SOL     OW94543   1.132  15.136   1.202
15235SOL    HW194544   1.082  15.072   1.260
15235SOL    HW294545   1.106  15.230   1.226
15236SOL     OW94546   7.023   3.158   1.564
15236SOL    HW194547   7.071   3.073   1.544
15236SOL    HW294548   7.084   3.236   1.546
15237SOL     OW94549   5.032   6.382   8.200
15237SOL    HW194550   5.106   6.340   8.148
15237SOL    HW294551   5.049   6.480   8.209
15238SOL     OW94552  15.867  13.215   0.048
15238SOL    HW194553  15.878  13.309   0.080
15238SOL    HW294554  15.807  13.164   0.110
15239SOL     OW94555   5.221   9.772   6.941
15239SOL    HW194556   5.294   9.781   7.008
15239SOL    HW294557   5.257   9.785   6.849
15240SOL     OW94558   5.591   3.422   8.346
15240SOL    HW194559   5.652   3.353   8.307
15240SOL    HW294560   5.541   3.384   8.424
15241SOL     OW94561  10.478  14.568   7.966
15241SOL    HW194562  10.389  14.524   7.976
15241SOL    HW294563  10.524  14.531   7.885
15242SOL     OW94564  11.118   6.881   6.328
15242SOL    HW194565  11.151   6.809   6.268
15242SOL    HW294566  11.175   6.963   6.317
15243SOL     OW94567   9.681   7.133   1.019
15243SOL    HW194568   9.781   7.130   1.025
15243SOL    HW294569   9.643   7.045   1.048
15244SOL     OW94570  14.441   2.560   0.375
15244SOL    HW194571  14.467   2.581   0.281
15244SOL    HW294572  14.387   2.476   0.377
15245SOL     OW94573   6.703   4.138   0.546
15245SOL    HW194574   6.644   4.201   0.496
15245SOL    HW294575   6.790   4.128   0.498
15246SOL     OW94576   9.625  16.458   0.372
15246SOL    HW194577   9.630  16.364   0.337
15246SOL    HW294578   9.604  16.521   0.297
15247SOL     OW94579  16.068   4.147   6.503
15247SOL    HW194580  16.151   4.091   6.493
15247SOL    HW294581  16.088   4.225   6.562
15248SOL     OW94582   0.016   2.572   6.270
15248SOL    HW194583   0.074   2.620   6.204
15248SOL    HW294584   0.054   2.482   6.288
15249SOL     OW94585  11.775  16.486   7.780
15249SOL    HW194586  11.768  16.540   7.696
15249SOL    HW294587  11.685  16.483   7.825
15250SOL     OW94588  15.135   1.495   7.278
15250SOL    HW194589  15.060   1.430   7.290
15250SOL    HW294590  15.221   1.453   7.308
15251SOL     OW94591   7.485   7.871   7.197
15251SOL    HW194592   7.580   7.904   7.197
15251SOL    HW294593   7.435   7.913   7.273
15252SOL     OW94594   2.133   6.726   2.044
15252SOL    HW194595   2.109   6.814   2.085
15252SOL    HW294596   2.185   6.672   2.111
15253SOL     OW94597   2.451   2.027   6.640
15253SOL    HW194598   2.384   2.099   6.624
15253SOL    HW294599   2.485   1.993   6.553
15254SOL     OW94600   7.909   1.981   2.120
15254SOL    HW194601   7.895   1.966   2.023
15254SOL    HW294602   7.934   1.895   2.165
15255SOL     OW94603   8.224   8.782   6.081
15255SOL    HW194604   8.209   8.698   6.029
15255SOL    HW294605   8.154   8.849   6.058
15256SOL     OW94606  15.537  12.240   7.053
15256SOL    HW194607  15.499  12.150   7.072
15256SOL    HW294608  15.564  12.283   7.139
15257SOL     OW94609  12.685   4.925   7.550
15257SOL    HW194610  12.762   4.863   7.533
15257SOL    HW294611  12.604   4.890   7.504
15258SOL     OW94612  16.492   1.360   1.031
15258SOL    HW194613  16.478   1.298   1.108
15258SOL    HW294614  16.528   1.448   1.064
15259SOL     OW94615  11.873   0.420   7.975
15259SOL    HW194616  11.897   0.513   8.003
15259SOL    HW294617  11.956   0.367   7.959
15260SOL     OW94618  12.317  12.925   7.012
15260SOL    HW194619  12.324  13.024   7.002
15260SOL    HW294620  12.222  12.898   7.023
15261SOL     OW94621   4.309   3.322   0.722
15261SOL    HW194622   4.316   3.256   0.648
15261SOL    HW294623   4.259   3.282   0.799
15262SOL     OW94624   9.511  15.773   7.690
15262SOL    HW194625   9.588  15.798   7.750
15262SOL    HW294626   9.491  15.850   7.630
15263SOL     OW94627  15.989   0.278   7.345
15263SOL    HW194628  15.958   0.202   7.402
15263SOL    HW294629  15.938   0.360   7.370
15264SOL     OW94630   4.994   2.326   7.813
15264SOL    HW194631   4.999   2.391   7.737
15264SOL    HW294632   4.901   2.324   7.850
15265SOL     OW94633  16.174  15.334   0.222
15265SOL    HW194634  16.264  15.336   0.265
15265SOL    HW294635  16.180  15.284   0.135
15266SOL     OW94636  16.765  16.693   0.759
15266SOL    HW194637  16.818  16.777   0.771
15266SOL    HW294638  16.736  16.685   0.664
15267SOL     OW94639  10.756   6.039   0.722
15267SOL    HW194640  10.696   6.075   0.651
15267SOL    HW294641  10.746   5.940   0.729
15268SOL     OW94642  13.823   8.715   7.633
15268SOL    HW194643  13.884   8.637   7.639
15268SOL    HW294644  13.875   8.797   7.609
15269SOL     OW94645  11.554  15.290   7.139
15269SOL    HW194646  11.646  15.251   7.132
15269SOL    HW294647  11.487  15.221   7.111
15270SOL     OW94648   9.553   7.040   0.098
15270SOL    HW194649   9.456   7.059   0.083
15270SOL    HW294650   9.605   7.126   0.098
15271SOL     OW94651   4.951  14.303   7.070
15271SOL    HW194652   4.935  14.205   7.058
15271SOL    HW294653   4.959  14.324   7.167
15272SOL     OW94654   4.828  14.725   7.443
15272SOL    HW194655   4.833  14.769   7.354
15272SOL    HW294656   4.918  14.728   7.486
15273SOL     OW94657   9.105  14.350   0.083
15273SOL    HW194658   9.147  14.369   0.172
15273SOL    HW294659   9.082  14.253   0.077
15274SOL     OW94660  14.449   6.327   1.388
15274SOL    HW194661  14.483   6.278   1.469
15274SOL    HW294662  14.455   6.267   1.308
15275SOL     OW94663   6.041  13.927   2.447
15275SOL    HW194664   6.031  13.994   2.520
15275SOL    HW294665   6.117  13.866   2.468
15276SOL     OW94666  11.836  16.449   6.515
15276SOL    HW194667  11.922  16.470   6.561
15276SOL    HW294668  11.818  16.518   6.445
15277SOL     OW94669  12.329   9.962   0.227
15277SOL    HW194670  12.421   9.982   0.194
15277SOL    HW294671  12.277   9.915   0.156
15278SOL     OW94672  13.028  13.690   7.437
15278SOL    HW194673  13.005  13.730   7.526
15278SOL    HW294674  13.109  13.736   7.400
15279SOL     OW94675  14.158  11.996   1.906
15279SOL    HW194676  14.247  12.036   1.889
15279SOL    HW294677  14.164  11.933   1.984
15280SOL     OW94678   5.087   7.289   8.087
15280SOL    HW194679   5.132   7.270   8.000
15280SOL    HW294680   4.990   7.307   8.071
15281SOL     OW94681  11.142   8.810   7.891
15281SOL    HW194682  11.148   8.717   7.854
15281SOL    HW294683  11.047   8.831   7.915
15282SOL     OW94684  13.778   9.818   8.350
15282SOL    HW194685  13.684   9.839   8.376
15282SOL    HW294686  13.781   9.726   8.309
15283SOL     OW94687  16.374   4.694   7.162
15283SOL    HW194688  16.404   4.600   7.145
15283SOL    HW294689  16.339   4.702   7.255
15284SOL     OW94690   2.938  15.799   8.146
15284SOL    HW194691   3.016  15.831   8.092
15284SOL    HW294692   2.910  15.709   8.112
15285SOL     OW94693   4.576   2.008   8.025
15285SOL    HW194694   4.556   2.058   7.941
15285SOL    HW294695   4.657   1.950   8.012
15286SOL     OW94696  12.711  11.326   0.201
15286SOL    HW194697  12.771  11.255   0.163
15286SOL    HW294698  12.755  11.415   0.191
15287SOL     OW94699   8.637   1.894   0.161
15287SOL    HW194700   8.637   1.794   0.161
15287SOL    HW294701   8.640   1.928   0.067
15288SOL     OW94702   9.511   1.217   7.961
15288SOL    HW194703   9.442   1.147   7.980
15288SOL    HW294704   9.557   1.195   7.875
15289SOL     OW94705  15.133   8.928   7.142
15289SOL    HW194706  15.052   8.982   7.123
15289SOL    HW294707  15.183   8.967   7.220
15290SOL     OW94708  16.941   6.186   6.494
15290SOL    HW194709  16.851   6.140   6.496
15290SOL    HW294710   0.029   6.117   6.480
15291SOL     OW94711   2.557   8.730   6.552
15291SOL    HW194712   2.593   8.683   6.632
15291SOL    HW294713   2.576   8.677   6.469
15292SOL     OW94714   0.559  10.700   1.653
15292SOL    HW194715   0.525  10.793   1.633
15292SOL    HW294716   0.652  10.691   1.619
15293SOL     OW94717   1.530   1.562   0.936
15293SOL    HW194718   1.530   1.533   0.840
15293SOL    HW294719   1.619   1.601   0.959
15294SOL     OW94720   4.241   6.963   1.317
15294SOL    HW194721   4.256   6.956   1.415
15294SOL    HW294722   4.185   6.887   1.285
15295SOL     OW94723  12.617   8.406   1.287
15295SOL    HW194724  12.582   8.314   1.271
15295SOL    HW294725  12.639   8.416   1.384
15296SOL     OW94726   2.303  12.441   1.774
15296SOL    HW194727   2.393  12.449   1.817
15296SOL    HW294728   2.311  12.389   1.689
15297SOL     OW94729  15.743  12.551   6.942
15297SOL    HW194730  15.644  12.556   6.953
15297SOL    HW294731  15.775  12.459   6.965
15298SOL     OW94732  12.300   7.978   8.021
15298SOL    HW194733  12.358   8.036   8.078
15298SOL    HW294734  12.205   7.985   8.052
15299SOL     OW94735   2.935   2.723   8.269
15299SOL    HW194736   2.978   2.794   8.214
15299SOL    HW294737   2.935   2.637   8.218
15300SOL     OW94738   3.171  14.794   2.052
15300SOL    HW194739   3.190  14.891   2.043
15300SOL    HW294740   3.195  14.763   2.144
15301SOL     OW94741  12.994  14.891   0.072
15301SOL    HW194742  12.929  14.949   0.023
15301SOL    HW294743  12.944  14.818   0.119
15302SOL     OW94744  10.917   5.289   7.487
15302SOL    HW194745  10.916   5.191   7.506
15302SOL    HW294746  10.833   5.331   7.521
15303SOL     OW94747   1.702  14.981   1.471
15303SOL    HW194748   1.796  14.961   1.496
15303SOL    HW294749   1.684  15.079   1.486
15304SOL     OW94750   1.991   0.859   1.337
15304SOL    HW194751   1.998   0.776   1.392
15304SOL    HW294752   1.944   0.931   1.389
15305SOL     OW94753   8.004   0.665   0.977
15305SOL    HW194754   8.018   0.700   1.070
15305SOL    HW294755   7.907   0.650   0.961
15306SOL     OW94756  11.666  16.748   0.419
15306SOL    HW194757  11.594  16.678   0.413
15306SOL    HW294758  11.676  16.793   0.331
15307SOL     OW94759  14.251   2.052   7.087
15307SOL    HW194760  14.281   2.087   6.999
15307SOL    HW294761  14.220   2.128   7.145
15308SOL     OW94762  15.355  16.101   7.086
15308SOL    HW194763  15.322  16.138   7.173
15308SOL    HW294764  15.371  16.003   7.096
15309SOL     OW94765   0.020  14.873   2.002
15309SOL    HW194766  16.965  14.918   2.083
15309SOL    HW294767  16.953  14.788   1.984
15310SOL     OW94768   8.977  11.401   1.372
15310SOL    HW194769   8.902  11.412   1.438
15310SOL    HW294770   8.939  11.394   1.280
15311SOL     OW94771   2.752   5.637   6.580
15311SOL    HW194772   2.828   5.671   6.524
15311SOL    HW294773   2.675   5.612   6.521
15312SOL     OW94774   0.457  13.927   0.726
15312SOL    HW194775   0.551  13.896   0.708
15312SOL    HW294776   0.394  13.850   0.718
15313SOL     OW94777   9.754   4.364   0.528
15313SOL    HW194778   9.810   4.428   0.475
15313SOL    HW294779   9.761   4.388   0.625
15314SOL     OW94780   0.791  16.470   0.175
15314SOL    HW194781   0.745  16.555   0.200
15314SOL    HW294782   0.889  16.487   0.165
15315SOL     OW94783  14.980   3.119   0.381
15315SOL    HW194784  15.074   3.152   0.391
15315SOL    HW294785  14.978   3.047   0.311
15316SOL     OW94786  13.786   2.277   7.690
15316SOL    HW194787  13.820   2.194   7.735
15316SOL    HW294788  13.862   2.341   7.678
15317SOL     OW94789   0.887   0.462   7.018
15317SOL    HW194790   0.966   0.520   7.039
15317SOL    HW294791   0.831   0.507   6.948
15318SOL     OW94792   6.891  14.887   1.122
15318SOL    HW194793   6.854  14.883   1.214
15318SOL    HW294794   6.822  14.923   1.059
15319SOL     OW94795   6.192   1.438   7.077
15319SOL    HW194796   6.140   1.465   7.158
15319SOL    HW294797   6.277   1.394   7.105
15320SOL     OW94798   2.484   5.801   0.650
15320SOL    HW194799   2.507   5.898   0.656
15320SOL    HW294800   2.568   5.747   0.639
15321SOL     OW94801  12.802  16.653   1.126
15321SOL    HW194802  12.748  16.587   1.178
15321SOL    HW294803  12.887  16.611   1.097
15322SOL     OW94804  13.046   9.387   2.311
15322SOL    HW194805  12.956   9.411   2.348
15322SOL    HW294806  13.115   9.399   2.383
15323SOL     OW94807   3.167   0.946   6.432
15323SOL    HW194808   3.252   0.913   6.473
15323SOL    HW294809   3.179   0.956   6.333
15324SOL     OW94810   1.246  12.782   2.065
15324SOL    HW194811   1.165  12.758   2.118
15324SOL    HW294812   1.221  12.851   1.996
15325SOL     OW94813  13.527   0.209   6.947
15325SOL    HW194814  13.536   0.233   6.850
15325SOL    HW294815  13.526   0.109   6.956
15326SOL     OW94816   9.240  12.967   7.854
15326SOL    HW194817   9.221  13.060   7.822
15326SOL    HW294818   9.167  12.936   7.914
15327SOL     OW94819  15.955   5.987   0.036
15327SOL    HW194820  15.911   5.943   8.411
15327SOL    HW294821  16.040   6.030   0.006
15328SOL     OW94822   3.231   8.298   7.560
15328SOL    HW194823   3.193   8.235   7.628
15328SOL    HW294824   3.253   8.385   7.604
15329SOL     OW94825   6.253   4.291   1.617
15329SOL    HW194826   6.185   4.341   1.563
15329SOL    HW294827   6.246   4.319   1.713
15330SOL     OW94828  15.690  11.189   2.063
15330SOL    HW194829  15.664  11.197   1.967
15330SOL    HW294830  15.745  11.107   2.076
15331SOL     OW94831  14.656   4.123   8.015
15331SOL    HW194832  14.677   4.027   7.995
15331SOL    HW294833  14.734   4.164   8.062
15332SOL     OW94834   8.517   5.345   7.485
15332SOL    HW194835   8.511   5.259   7.536
15332SOL    HW294836   8.567   5.330   7.400
15333SOL     OW94837   0.515  12.406   7.618
15333SOL    HW194838   0.561  12.319   7.633
15333SOL    HW294839   0.583  12.479   7.611
15334SOL     OW94840  10.063  15.060   1.783
15334SOL    HW194841  10.106  15.001   1.852
15334SOL    HW294842  10.125  15.134   1.760
15335SOL     OW94843  12.181   4.129   8.386
15335SOL    HW194844  12.229   4.213   8.413
15335SOL    HW294845  12.248   4.058   8.365
15336SOL     OW94846  11.991   1.436   8.315
15336SOL    HW194847  12.012   1.365   8.382
15336SOL    HW294848  11.896   1.466   8.327
15337SOL     OW94849  12.555   9.144   0.705
15337SOL    HW194850  12.651   9.127   0.729
15337SOL    HW294851  12.526   9.231   0.744
15338SOL     OW94852   8.312  10.232   1.608
15338SOL    HW194853   8.368  10.193   1.681
15338SOL    HW294854   8.337  10.188   1.521
15339SOL     OW94855  16.427  15.548   1.594
15339SOL    HW194856  16.422  15.626   1.656
15339SOL    HW294857  16.508  15.556   1.536
15340SOL     OW94858   0.794   8.948   8.426
15340SOL    HW194859   0.733   8.936   0.050
15340SOL    HW294860   0.745   8.927   8.341
15341SOL     OW94861  11.152   8.081   8.316
15341SOL    HW194862  11.240   8.118   8.287
15341SOL    HW294863  11.113   8.025   8.243
15342SOL     OW94864  15.885   2.738   7.804
15342SOL    HW194865  15.873   2.658   7.744
15342SOL    HW294866  15.950   2.801   7.762
15343SOL     OW94867  16.515  13.370   2.152
15343SOL    HW194868  16.430  13.330   2.186
15343SOL    HW294869  16.567  13.408   2.229
15344SOL     OW94870  14.258  10.137   7.590
15344SOL    HW194871  14.308  10.068   7.537
15344SOL    HW294872  14.215  10.202   7.528
15345SOL     OW94873   9.863  11.478   1.786
15345SOL    HW194874   9.840  11.384   1.807
15345SOL    HW294875   9.870  11.530   1.871
15346SOL     OW94876  12.703   2.371   7.962
15346SOL    HW194877  12.624   2.413   7.917
15346SOL    HW294878  12.672   2.309   8.033
15347SOL     OW94879   4.123  15.023   2.340
15347SOL    HW194880   4.184  15.044   2.416
15347SOL    HW294881   4.110  14.924   2.335
15348SOL     OW94882  14.112   7.540   8.176
15348SOL    HW194883  14.035   7.589   8.135
15348SOL    HW294884  14.145   7.470   8.113
15349SOL     OW94885   3.736  11.839   7.296
15349SOL    HW194886   3.693  11.928   7.280
15349SOL    HW294887   3.810  11.825   7.232
15350SOL     OW94888   0.140  12.481   0.553
15350SOL    HW194889   0.138  12.572   0.512
15350SOL    HW294890   0.150  12.413   0.481
15351SOL     OW94891  12.447   9.071   0.421
15351SOL    HW194892  12.437   9.114   0.510
15351SOL    HW294893  12.434   9.139   0.349
15352SOL     OW94894   5.743   7.455   1.954
15352SOL    HW194895   5.658   7.507   1.968
15352SOL    HW294896   5.821   7.508   1.986
15353SOL     OW94897  14.546   8.880   1.368
15353SOL    HW194898  14.558   8.978   1.383
15353SOL    HW294899  14.452   8.854   1.393
15354SOL     OW94900  16.856  14.807   1.560
15354SOL    HW194901  16.807  14.833   1.643
15354SOL    HW294902  16.937  14.752   1.584
15355SOL     OW94903   2.146   4.638   7.281
15355SOL    HW194904   2.182   4.714   7.334
15355SOL    HW294905   2.207   4.619   7.204
15356SOL     OW94906   5.736   7.818   1.281
15356SOL    HW194907   5.665   7.795   1.216
15356SOL    HW294908   5.708   7.898   1.334
15357SOL     OW94909   2.700  12.368   7.409
15357SOL    HW194910   2.736  12.450   7.454
15357SOL    HW294911   2.617  12.339   7.456
15358SOL     OW94912   7.813  10.919   7.605
15358SOL    HW194913   7.905  10.935   7.639
15358SOL    HW294914   7.793  10.821   7.607
15359SOL     OW94915   9.817   2.288   1.881
15359SOL    HW194916   9.783   2.366   1.933
15359SOL    HW294917   9.915   2.297   1.867
15360SOL     OW94918  11.772  16.816   6.593
15360SOL    HW194919  11.706  16.886   6.566
15360SOL    HW294920  11.795  16.760   6.513
15361SOL     OW94921  10.326  15.543   6.488
15361SOL    HW194922  10.271  15.626   6.486
15361SOL    HW294923  10.409  15.557   6.435
15362SOL     OW94924  16.108  14.258   7.270
15362SOL    HW194925  16.025  14.245   7.325
15362SOL    HW294926  16.164  14.330   7.311
15363SOL     OW94927   1.686  12.037   0.686
15363SOL    HW194928   1.758  12.086   0.636
15363SOL    HW294929   1.622  12.103   0.726
15364SOL     OW94930  10.107   7.679   7.625
15364SOL    HW194931  10.012   7.675   7.592
15364SOL    HW294932  10.148   7.765   7.596
15365SOL     OW94933  11.723  16.290   5.845
15365SOL    HW194934  11.801  16.352   5.849
15365SOL    HW294935  11.647  16.327   5.898
15366SOL     OW94936   6.510   6.259   1.748
15366SOL    HW194937   6.496   6.349   1.706
15366SOL    HW294938   6.426   6.228   1.791
15367SOL     OW94939   6.272   6.982   2.372
15367SOL    HW194940   6.327   7.046   2.425
15367SOL    HW294941   6.232   6.914   2.433
15368SOL     OW94942   3.073   3.300   7.283
15368SOL    HW194943   3.135   3.240   7.334
15368SOL    HW294944   3.064   3.266   7.190
15369SOL     OW94945   9.177   2.134   6.401
15369SOL    HW194946   9.237   2.136   6.321
15369SOL    HW294947   9.114   2.056   6.393
15370SOL     OW94948   0.294   4.730   5.954
15370SOL    HW194949   0.324   4.782   5.874
15370SOL    HW294950   0.277   4.794   6.029
15371SOL     OW94951   8.975  15.984   6.522
15371SOL    HW194952   8.915  15.963   6.444
15371SOL    HW294953   9.065  15.943   6.507
15372SOL     OW94954   2.489   9.274   6.420
15372SOL    HW194955   2.430   9.341   6.376
15372SOL    HW294956   2.461   9.182   6.394
15373SOL     OW94957   7.870   3.622   8.221
15373SOL    HW194958   7.858   3.711   8.265
15373SOL    HW294959   7.919   3.560   8.282
15374SOL     OW94960   6.866  12.073   0.465
15374SOL    HW194961   6.947  12.021   0.488
15374SOL    HW294962   6.877  12.116   0.376
15375SOL     OW94963  10.989   5.173   0.414
15375SOL    HW194964  10.982   5.074   0.402
15375SOL    HW294965  11.078   5.205   0.381
15376SOL     OW94966   8.739  11.666   1.290
15376SOL    HW194967   8.700  11.602   1.224
15376SOL    HW294968   8.666  11.712   1.339
15377SOL     OW94969   3.326  16.324   2.344
15377SOL    HW194970   3.361  16.231   2.332
15377SOL    HW294971   3.248  16.339   2.283
15378SOL     OW94972  12.952   1.831   6.553
15378SOL    HW194973  12.931   1.793   6.643
15378SOL    HW294974  12.869   1.830   6.496
15379SOL     OW94975   8.699  15.491   8.398
15379SOL    HW194976   8.693  15.565   8.331
15379SOL    HW294977   8.794  15.468   8.415
15380SOL     OW94978   7.863   4.964   0.251
15380SOL    HW194979   7.811   5.002   0.174
15380SOL    HW294980   7.800   4.926   0.318
15381SOL     OW94981  16.124   5.775   7.354
15381SOL    HW194982  16.033   5.815   7.357
15381SOL    HW294983  16.192   5.848   7.346
15382SOL     OW94984  11.682  11.584   7.059
15382SOL    HW194985  11.656  11.647   7.132
15382SOL    HW294986  11.602  11.531   7.031
15383SOL     OW94987   5.877  10.408   1.346
15383SOL    HW194988   5.867  10.409   1.247
15383SOL    HW294989   5.903  10.316   1.376
15384SOL     OW94990   9.082  14.115   8.231
15384SOL    HW194991   9.168  14.165   8.219
15384SOL    HW294992   9.070  14.051   8.155
15385SOL     OW94993  10.901   7.521   7.554
15385SOL    HW194994  10.892   7.447   7.620
15385SOL    HW294995  10.865   7.493   7.466
15386SOL     OW94996   3.125   0.807   6.801
15386SOL    HW194997   3.191   0.881   6.795
15386SOL    HW294998   3.173   0.720   6.808
15387SOL     OW94999  14.934  11.404   7.822
15387SOL    HW195000  15.027  11.367   7.814
15387SOL    HW295001  14.936  11.486   7.880
15388SOL     OW95002   4.521  15.431   0.340
15388SOL    HW195003   4.475  15.484   0.411
15388SOL    HW295004   4.453  15.400   0.273
15389SOL     OW95005   9.139   2.814   7.586
15389SOL    HW195006   9.177   2.731   7.546
15389SOL    HW295007   9.212   2.881   7.601
15390SOL     OW95008  14.920  14.273   8.394
15390SOL    HW195009  14.843  14.338   8.397
15390SOL    HW295010  14.901  14.203   8.325
15391SOL     OW95011   4.530   4.610   1.577
15391SOL    HW195012   4.600   4.570   1.517
15391SOL    HW295013   4.473   4.536   1.614
15392SOL     OW95014   1.791   9.395   2.082
15392SOL    HW195015   1.760   9.303   2.106
15392SOL    HW295016   1.874   9.417   2.134
15393SOL     OW95017  11.690   3.817   5.847
15393SOL    HW195018  11.782   3.818   5.809
15393SOL    HW295019  11.628   3.866   5.784
15394SOL     OW95020   5.745  12.982   8.275
15394SOL    HW195021   5.777  12.918   8.205
15394SOL    HW295022   5.714  12.931   8.356
15395SOL     OW95023   6.108   4.420   7.503
15395SOL    HW195024   6.031   4.429   7.440
15395SOL    HW295025   6.075   4.383   7.590
15396SOL     OW95026   5.248  16.483   1.354
15396SOL    HW195027   5.175  16.533   1.400
15396SOL    HW295028   5.312  16.447   1.423
15397SOL     OW95029   7.094   5.070   6.746
15397SOL    HW195030   7.090   5.155   6.798
15397SOL    HW295031   7.187   5.057   6.710
15398SOL     OW95032  12.545   0.740   6.216
15398SOL    HW195033  12.538   0.715   6.120
15398SOL    HW295034  12.460   0.717   6.263
15399SOL     OW95035   5.790  10.043   2.162
15399SOL    HW195036   5.815   9.985   2.085
15399SOL    HW295037   5.852  10.026   2.239
15400SOL     OW95038   5.171   9.139   1.786
15400SOL    HW195039   5.148   9.108   1.694
15400SOL    HW295040   5.238   9.213   1.781
15401SOL     OW95041   2.181  16.587   7.050
15401SOL    HW195042   2.280  16.592   7.034
15401SOL    HW295043   2.156  16.494   7.077
15402SOL     OW95044   0.438   2.625   5.737
15402SOL    HW195045   0.517   2.675   5.774
15402SOL    HW295046   0.369   2.690   5.705
15403SOL     OW95047  16.410  14.342   0.426
15403SOL    HW195048  16.417  14.289   0.341
15403SOL    HW295049  16.389  14.437   0.404
15404SOL     OW95050  13.870  14.087   7.812
15404SOL    HW195051  13.906  14.024   7.881
15404SOL    HW295052  13.777  14.060   7.787
15405SOL     OW95053   8.916   7.963   8.006
15405SOL    HW195054   9.007   7.987   8.040
15405SOL    HW295055   8.924   7.928   7.912
15406SOL     OW95056   5.764   2.431   0.984
15406SOL    HW195057   5.800   2.378   0.907
15406SOL    HW295058   5.664   2.436   0.976
15407SOL     OW95059   1.853   7.078   0.615
15407SOL    HW195060   1.913   7.056   0.691
15407SOL    HW295061   1.771   7.125   0.649
15408SOL     OW95062   3.207   6.820   0.998
15408SOL    HW195063   3.221   6.913   0.963
15408SOL    HW295064   3.119   6.813   1.044
15409SOL     OW95065   4.089  11.681   1.108
15409SOL    HW195066   4.132  11.765   1.142
15409SOL    HW295067   4.044  11.700   1.021
15410SOL     OW95068  11.418   2.905   0.066
15410SOL    HW195069  11.423   3.004   0.082
15410SOL    HW295070  11.325   2.873   0.084
15411SOL     OW95071   8.883   9.571   6.832
15411SOL    HW195072   8.926   9.495   6.880
15411SOL    HW295073   8.911   9.571   6.736
15412SOL     OW95074  15.157  13.140   0.354
15412SOL    HW195075  15.182  13.192   0.273
15412SOL    HW295076  15.084  13.187   0.403
15413SOL     OW95077   3.902   5.284   0.903
15413SOL    HW195078   3.884   5.287   1.001
15413SOL    HW295079   3.979   5.343   0.881
15414SOL     OW95080  12.975   2.238   6.339
15414SOL    HW195081  12.883   2.201   6.355
15414SOL    HW295082  12.994   2.236   6.241
15415SOL     OW95083  14.924   0.926   0.150
15415SOL    HW195084  14.875   0.840   0.166
15415SOL    HW295085  15.021   0.907   0.138
15416SOL     OW95086  16.330   8.398   8.218
15416SOL    HW195087  16.329   8.301   8.193
15416SOL    HW295088  16.418   8.438   8.194
15417SOL     OW95089   2.386   6.614   0.116
15417SOL    HW195090   2.371   6.598   0.214
15417SOL    HW295091   2.432   6.534   0.077
15418SOL     OW95092  15.194  14.115   2.246
15418SOL    HW195093  15.113  14.139   2.299
15418SOL    HW295094  15.251  14.052   2.298
15419SOL     OW95095   5.688  10.953   0.986
15419SOL    HW195096   5.666  10.966   1.082
15419SOL    HW295097   5.757  10.881   0.978
15420SOL     OW95098  13.396  15.280   1.813
15420SOL    HW195099  13.385  15.222   1.893
15420SOL    HW295100  13.461  15.237   1.750
15421SOL     OW95101  11.929   8.325   7.235
15421SOL    HW195102  11.975   8.299   7.320
15421SOL    HW295103  11.953   8.259   7.164
15422SOL     OW95104  10.054   8.972   7.262
15422SOL    HW195105  10.148   8.958   7.232
15422SOL    HW295106  10.001   8.889   7.242
15423SOL     OW95107  16.654  14.588   7.300
15423SOL    HW195108  16.730  14.553   7.354
15423SOL    HW295109  16.667  14.686   7.285
15424SOL     OW95110   0.699  14.924   1.629
15424SOL    HW195111   0.689  14.988   1.705
15424SOL    HW295112   0.723  14.974   1.546
15425SOL     OW95113  14.548   9.933   6.779
15425SOL    HW195114  14.634   9.914   6.731
15425SOL    HW295115  14.480   9.966   6.714
15426SOL     OW95116   8.066   4.070   6.953
15426SOL    HW195117   7.994   4.016   6.909
15426SOL    HW295118   8.122   4.114   6.883
15427SOL     OW95119  10.128  16.423   8.066
15427SOL    HW195120  10.195  16.368   8.016
15427SOL    HW295121  10.091  16.371   8.142
15428SOL     OW95122   7.970  13.028   0.458
15428SOL    HW195123   7.991  13.063   0.367
15428SOL    HW295124   7.929  12.937   0.451
15429SOL     OW95125   6.398   3.178   0.377
15429SOL    HW195126   6.440   3.268   0.392
15429SOL    HW295127   6.316   3.170   0.434
15430SOL     OW95128   5.527  15.658   8.166
15430SOL    HW195129   5.589  15.581   8.154
15430SOL    HW295130   5.573  15.731   8.216
15431SOL     OW95131   5.299   1.560   1.382
15431SOL    HW195132   5.208   1.585   1.413
15431SOL    HW295133   5.302   1.462   1.363
15432SOL     OW95134   0.208  10.193   2.398
15432SOL    HW195135   0.283  10.138   2.360
15432SOL    HW295136   0.216  10.196   2.497
15433SOL     OW95137  14.395  13.465   7.499
15433SOL    HW195138  14.387  13.550   7.551
15433SOL    HW295139  14.457  13.402   7.546
15434SOL     OW95140  13.516   9.868   0.032
15434SOL    HW195141  13.476   9.953   0.067
15434SOL    HW295142  13.449   9.820   8.430
15435SOL     OW95143  10.431  14.865   0.878
15435SOL    HW195144  10.406  14.921   0.957
15435SOL    HW295145  10.360  14.796   0.863
15436SOL     OW95146  14.180  11.044   7.786
15436SOL    HW195147  14.271  11.027   7.748
15436SOL    HW295148  14.187  11.063   7.884
15437SOL     OW95149   7.758  14.027   0.984
15437SOL    HW195150   7.739  14.122   1.009
15437SOL    HW295151   7.812  13.983   1.055
15438SOL     OW95152   4.187  14.050   7.656
15438SOL    HW195153   4.188  14.031   7.754
15438SOL    HW295154   4.108  14.105   7.633
15439SOL     OW95155   9.659  11.233   0.533
15439SOL    HW195156   9.702  11.316   0.568
15439SOL    HW295157   9.585  11.257   0.469
15440SOL     OW95158  11.296   2.983   1.067
15440SOL    HW195159  11.224   2.929   1.111
15440SOL    HW295160  11.364   3.010   1.136
15441SOL     OW95161   0.910  15.994   1.063
15441SOL    HW195162   0.885  16.009   0.968
15441SOL    HW295163   0.932  16.081   1.106
15442SOL     OW95164   8.784  14.487   1.169
15442SOL    HW195165   8.722  14.563   1.150
15442SOL    HW295166   8.804  14.486   1.267
15443SOL     OW95167  14.248  11.041   8.048
15443SOL    HW195168  14.245  11.064   8.145
15443SOL    HW295169  14.313  10.967   8.033
15444SOL     OW95170   1.911   9.822   1.901
15444SOL    HW195171   1.897   9.918   1.927
15444SOL    HW295172   1.840   9.765   1.944
15445SOL     OW95173  14.776  10.204   7.790
15445SOL    HW195174  14.873  10.181   7.802
15445SOL    HW295175  14.754  10.283   7.848
15446SOL     OW95176  11.476   5.983   6.591
15446SOL    HW195177  11.517   6.020   6.507
15446SOL    HW295178  11.389   5.938   6.569
15447SOL     OW95179   6.571   6.910   1.318
15447SOL    HW195180   6.651   6.856   1.345
15447SOL    HW295181   6.588   7.006   1.338
15448SOL     OW95182  16.556  11.902   7.244
15448SOL    HW195183  16.552  11.841   7.165
15448SOL    HW295184  16.539  11.996   7.214
15449SOL     OW95185   2.443   3.257   1.074
15449SOL    HW195186   2.484   3.193   1.009
15449SOL    HW295187   2.415   3.340   1.025
15450SOL     OW95188   1.114   5.348   0.161
15450SOL    HW195189   1.113   5.264   0.107
15450SOL    HW295190   1.067   5.420   0.111
15451SOL     OW95191   1.096  14.370   7.815
15451SOL    HW195192   1.069  14.301   7.748
15451SOL    HW295193   1.092  14.461   7.773
15452SOL     OW95194  15.688   6.104   0.373
15452SOL    HW195195  15.631   6.027   0.405
15452SOL    HW295196  15.658   6.188   0.418
15453SOL     OW95197   1.147   0.775   1.000
15453SOL    HW195198   1.127   0.831   1.080
15453SOL    HW295199   1.213   0.822   0.942
15454SOL     OW95200  13.270  15.258   1.060
15454SOL    HW195201  13.364  15.232   1.080
15454SOL    HW295202  13.208  15.190   1.100
15455SOL     OW95203  12.716   7.509   0.697
15455SOL    HW195204  12.724   7.607   0.718
15455SOL    HW295205  12.775   7.457   0.760
15456SOL     OW95206   2.496  10.849   0.295
15456SOL    HW195207   2.575  10.910   0.302
15456SOL    HW295208   2.414  10.897   0.326
15457SOL     OW95209  15.526   5.388   7.374
15457SOL    HW195210  15.580   5.340   7.443
15457SOL    HW295211  15.479   5.322   7.316
15458SOL     OW95212   6.408  16.277   7.928
15458SOL    HW195213   6.485  16.223   7.962
15458SOL    HW295214   6.390  16.352   7.991
15459SOL     OW95215   4.665   7.200   7.714
15459SOL    HW195216   4.715   7.148   7.784
15459SOL    HW295217   4.676   7.156   7.625
15460SOL     OW95218   1.086   0.748   7.812
15460SOL    HW195219   1.157   0.691   7.769
15460SOL    HW295220   1.055   0.704   7.897
15461SOL     OW95221  12.490   7.781   0.874
15461SOL    HW195222  12.582   7.771   0.837
15461SOL    HW295223  12.466   7.699   0.926
15462SOL     OW95224  16.436   4.195   7.434
15462SOL    HW195225  16.469   4.115   7.385
15462SOL    HW295226  16.351   4.172   7.483
15463SOL     OW95227  12.099  14.606   8.366
15463SOL    HW195228  12.129  14.693   8.326
15463SOL    HW295229  12.176  14.542   8.368
15464SOL     OW95230  16.339   1.993   6.582
15464SOL    HW195231  16.277   2.071   6.581
15464SOL    HW295232  16.290   1.912   6.548
15465SOL     OW95233   5.883   9.418   1.731
15465SOL    HW195234   5.977   9.433   1.701
15465SOL    HW295235   5.822   9.482   1.684
15466SOL     OW95236   9.096   1.635   0.258
15466SOL    HW195237   9.109   1.733   0.240
15466SOL    HW295238   9.106   1.619   0.356
15467SOL     OW95239  10.460   7.379   7.614
15467SOL    HW195240  10.507   7.441   7.676
15467SOL    HW295241  10.394   7.431   7.559
15468SOL     OW95242  13.410   1.318   6.070
15468SOL    HW195243  13.474   1.296   5.997
15468SOL    HW295244  13.432   1.265   6.152
15469SOL     OW95245  14.922   8.824   1.425
15469SOL    HW195246  14.912   8.831   1.524
15469SOL    HW295247  14.909   8.913   1.383
15470SOL     OW95248   8.147   5.158   6.562
15470SOL    HW195249   8.196   5.124   6.482
15470SOL    HW295250   8.079   5.225   6.533
15471SOL     OW95251   4.572   8.217   6.766
15471SOL    HW195252   4.524   8.290   6.717
15471SOL    HW295253   4.632   8.258   6.835
15472SOL     OW95254   6.105   4.866   5.696
15472SOL    HW195255   6.070   4.944   5.748
15472SOL    HW295256   6.164   4.811   5.756
15473SOL     OW95257  11.441   9.007   6.769
15473SOL    HW195258  11.360   8.952   6.788
15473SOL    HW295259  11.468   9.056   6.852
15474SOL     OW95260  14.093  15.068   0.634
15474SOL    HW195261  14.137  14.998   0.691
15474SOL    HW295262  14.062  15.026   0.549
15475SOL     OW95263  16.003   7.371   7.750
15475SOL    HW195264  15.956   7.456   7.771
15475SOL    HW295265  16.089   7.390   7.703
15476SOL     OW95266  14.234   3.283   8.124
15476SOL    HW195267  14.202   3.338   8.201
15476SOL    HW295268  14.192   3.315   8.040
15477SOL     OW95269  12.569  11.137   0.780
15477SOL    HW195270  12.609  11.045   0.779
15477SOL    HW295271  12.635  11.201   0.820
15478SOL     OW95272   8.018  15.554   1.824
15478SOL    HW195273   8.039  15.571   1.727
15478SOL    HW295274   7.951  15.620   1.856
15479SOL     OW95275  12.399  13.960   7.345
15479SOL    HW195276  12.378  13.866   7.318
15479SOL    HW295277  12.380  13.973   7.442
15480SOL     OW95278   0.973  11.626   7.963
15480SOL    HW195279   1.061  11.594   7.927
15480SOL    HW295280   0.903  11.620   7.892
15481SOL     OW95281   9.593   1.270   6.207
15481SOL    HW195282   9.497   1.293   6.226
15481SOL    HW295283   9.631   1.337   6.143
15482SOL     OW95284   2.935  13.028   7.265
15482SOL    HW195285   2.991  13.072   7.195
15482SOL    HW295286   2.976  12.940   7.290
15483SOL     OW95287  15.233   0.735   6.649
15483SOL    HW195288  15.179   0.767   6.571
15483SOL    HW295289  15.326   0.771   6.643
15484SOL     OW95290  12.409  13.708   7.688
15484SOL    HW195291  12.370  13.696   7.780
15484SOL    HW295292  12.392  13.801   7.656
15485SOL     OW95293   9.819  13.384   6.740
15485SOL    HW195294   9.891  13.390   6.670
15485SOL    HW295295   9.735  13.351   6.698
15486SOL     OW95296   5.210   7.201   2.006
15486SOL    HW195297   5.265   7.283   1.988
15486SOL    HW295298   5.144   7.221   2.079
15487SOL     OW95299   6.374  16.184   1.479
15487SOL    HW195300   6.365  16.138   1.567
15487SOL    HW295301   6.284  16.194   1.436
15488SOL     OW95302  15.323  16.449   0.975
15488SOL    HW195303  15.241  16.455   0.917
15488SOL    HW295304  15.336  16.354   1.005
15489SOL     OW95305  10.409   3.008   7.303
15489SOL    HW195306  10.497   2.992   7.349
15489SOL    HW295307  10.387   3.105   7.305
15490SOL     OW95308   3.150   2.168   7.532
15490SOL    HW195309   3.244   2.198   7.550
15490SOL    HW295310   3.113   2.221   7.456
15491SOL     OW95311  16.825  16.251   0.360
15491SOL    HW195312  16.818  16.313   0.438
15491SOL    HW295313  16.916  16.210   0.358
15492SOL     OW95314   1.832   3.387   1.255
15492SOL    HW195315   1.932   3.390   1.268
15492SOL    HW295316   1.789   3.447   1.322
15493SOL     OW95317   7.206  12.519   7.396
15493SOL    HW195318   7.206  12.461   7.478
15493SOL    HW295319   7.133  12.587   7.403
15494SOL     OW95320   8.324   1.644   7.764
15494SOL    HW195321   8.371   1.603   7.686
15494SOL    HW295322   8.311   1.575   7.835
15495SOL     OW95323   2.503  10.992   0.822
15495SOL    HW195324   2.560  10.925   0.776
15495SOL    HW295325   2.481  10.960   0.914
15496SOL     OW95326  11.767  16.645   1.608
15496SOL    HW195327  11.720  16.596   1.682
15496SOL    HW295328  11.780  16.741   1.634
15497SOL     OW95329   8.007  11.260   1.153
15497SOL    HW195330   7.920  11.295   1.117
15497SOL    HW295331   8.021  11.297   1.245
15498SOL     OW95332   7.580   1.324   1.130
15498SOL    HW195333   7.640   1.385   1.181
15498SOL    HW295334   7.635   1.266   1.070
15499SOL     OW95335   9.511  16.321   1.256
15499SOL    HW195336   9.432  16.263   1.276
15499SOL    HW295337   9.487  16.385   1.183
15500SOL     OW95338   4.097  16.857   7.738
15500SOL    HW195339   4.051  16.884   7.823
15500SOL    HW295340   4.144  16.770   7.753
15501SOL     OW95341   7.728   7.335   0.158
15501SOL    HW195342   7.683   7.391   0.227
15501SOL    HW295343   7.753   7.246   0.198
15502SOL     OW95344  16.554   3.787   8.097
15502SOL    HW195345  16.596   3.848   8.164
15502SOL    HW295346  16.480   3.736   8.140
15503SOL     OW95347   6.477   2.053   7.577
15503SOL    HW195348   6.415   2.117   7.532
15503SOL    HW295349   6.546   2.104   7.628
15504SOL     OW95350   6.390   9.444   2.224
15504SOL    HW195351   6.410   9.541   2.213
15504SOL    HW295352   6.471   9.396   2.257
15505SOL     OW95353   7.779   9.389   7.299
15505SOL    HW195354   7.738   9.410   7.388
15505SOL    HW295355   7.719   9.328   7.248
15506SOL     OW95356   6.968   3.744   7.195
15506SOL    HW195357   6.951   3.719   7.100
15506SOL    HW295358   6.982   3.661   7.249
15507SOL     OW95359   2.255   0.516   6.625
15507SOL    HW195360   2.232   0.423   6.596
15507SOL    HW295361   2.298   0.565   6.549
15508SOL     OW95362   3.153  15.909   8.002
15508SOL    HW195363   3.242  15.895   7.960
15508SOL    HW295364   3.112  15.993   7.966
15509SOL     OW95365  15.619   7.312   7.921
15509SOL    HW195366  15.546   7.380   7.922
15509SOL    HW295367  15.591   7.232   7.975
15510SOL     OW95368   2.143  14.223   0.442
15510SOL    HW195369   2.050  14.223   0.480
15510SOL    HW295370   2.141  14.184   0.350
15511SOL     OW95371  12.384   0.929   0.253
15511SOL    HW195372  12.366   0.831   0.254
15511SOL    HW295373  12.482   0.945   0.264
15512SOL     OW95374   9.496   0.285   7.016
15512SOL    HW195375   9.419   0.327   7.063
15512SOL    HW295376   9.578   0.291   7.073
15513SOL     OW95377   1.955   9.300   7.142
15513SOL    HW195378   2.024   9.281   7.212
15513SOL    HW295379   1.999   9.301   7.052
15514SOL     OW95380  11.850   8.826   7.846
15514SOL    HW195381  11.819   8.741   7.803
15514SOL    HW295382  11.935   8.809   7.896
15515SOL     OW95383   1.343   0.004   1.788
15515SOL    HW195384   1.349  16.955   1.883
15515SOL    HW295385   1.433   0.035   1.757
15516SOL     OW95386  16.358   2.047   1.794
15516SOL    HW195387  16.402   2.000   1.870
15516SOL    HW295388  16.266   2.075   1.821
15517SOL     OW95389   4.578  10.916   1.852
15517SOL    HW195390   4.509  10.941   1.920
15517SOL    HW295391   4.545  10.938   1.760
15518SOL     OW95392   7.582   0.686   1.384
15518SOL    HW195393   7.543   0.719   1.471
15518SOL    HW295394   7.570   0.587   1.378
15519SOL     OW95395  16.819   8.093   7.732
15519SOL    HW195396  16.836   8.059   7.825
15519SOL    HW295397  16.755   8.032   7.685
15520SOL     OW95398  16.603  10.657   6.661
15520SOL    HW195399  16.572  10.576   6.610
15520SOL    HW295400  16.696  10.680   6.631
15521SOL     OW95401  13.072  15.873   7.356
15521SOL    HW195402  13.105  15.866   7.262
15521SOL    HW295403  13.142  15.840   7.418
15522SOL     OW95404  15.959  12.171   6.568
15522SOL    HW195405  16.023  12.181   6.645
15522SOL    HW295406  16.011  12.152   6.484
15523SOL     OW95407   5.227  13.476   1.787
15523SOL    HW195408   5.265  13.435   1.870
15523SOL    HW295409   5.141  13.430   1.763
15524SOL     OW95410  10.497  16.501   0.360
15524SOL    HW195411  10.554  16.504   0.442
15524SOL    HW295412  10.510  16.413   0.314
15525SOL     OW95413   1.031  11.732   1.625
15525SOL    HW195414   1.053  11.812   1.680
15525SOL    HW295415   1.098  11.660   1.643
15526SOL     OW95416  11.182   6.334   0.352
15526SOL    HW195417  11.147   6.365   0.264
15526SOL    HW295418  11.211   6.414   0.406
15527SOL     OW95419   4.764   9.333   7.818
15527SOL    HW195420   4.682   9.363   7.867
15527SOL    HW295421   4.742   9.318   7.722
15528SOL     OW95422   6.545   2.046   7.151
15528SOL    HW195423   6.523   2.089   7.064
15528SOL    HW295424   6.460   2.018   7.196
15529SOL     OW95425  16.594   0.412   8.176
15529SOL    HW195426  16.598   0.420   8.276
15529SOL    HW295427  16.622   0.320   8.149
15530SOL     OW95428   9.454  16.048   1.448
15530SOL    HW195429   9.388  16.076   1.378
15530SOL    HW295430   9.478  16.126   1.505
15531SOL     OW95431   2.807   9.667   0.100
15531SOL    HW195432   2.773   9.734   0.166
15531SOL    HW295433   2.858   9.596   0.149
15532SOL     OW95434   9.570   5.830   1.192
15532SOL    HW195435   9.520   5.751   1.157
15532SOL    HW295436   9.657   5.800   1.232
15533SOL     OW95437   6.898   8.606   0.564
15533SOL    HW195438   6.983   8.615   0.615
15533SOL    HW295439   6.917   8.575   0.471
15534SOL     OW95440   5.402   4.391   7.928
15534SOL    HW195441   5.486   4.337   7.920
15534SOL    HW295442   5.376   4.425   7.838
15535SOL     OW95443   8.665  13.161   0.992
15535SOL    HW195444   8.728  13.232   0.963
15535SOL    HW295445   8.659  13.160   1.092
15536SOL     OW95446   6.127   9.939   6.908
15536SOL    HW195447   6.093  10.023   6.865
15536SOL    HW295448   6.203   9.903   6.855
15537SOL     OW95449  16.910  11.407   1.183
15537SOL    HW195450  16.834  11.344   1.168
15537SOL    HW295451  16.930  11.411   1.281
15538SOL     OW95452   6.516   9.840   1.544
15538SOL    HW195453   6.612   9.813   1.535
15538SOL    HW295454   6.486   9.883   1.459
15539SOL     OW95455   9.880   3.029   7.017
15539SOL    HW195456   9.870   2.930   7.005
15539SOL    HW295457   9.801   3.075   6.977
15540SOL     OW95458   1.607   6.696   6.665
15540SOL    HW195459   1.531   6.761   6.656
15540SOL    HW295460   1.571   6.604   6.679
15541SOL     OW95461   5.340   7.918   2.073
15541SOL    HW195462   5.326   8.010   2.110
15541SOL    HW295463   5.288   7.853   2.129
15542SOL     OW95464  16.585   7.731   1.198
15542SOL    HW195465  16.521   7.685   1.137
15542SOL    HW295466  16.544   7.739   1.289
15543SOL     OW95467  15.951  11.589   1.766
15543SOL    HW195468  15.972  11.503   1.813
15543SOL    HW295469  15.979  11.582   1.670
15544SOL     OW95470   1.956  12.209   1.929
15544SOL    HW195471   1.923  12.263   1.851
15544SOL    HW295472   1.911  12.120   1.929
15545SOL     OW95473   4.669  15.773   7.738
15545SOL    HW195474   4.727  15.830   7.680
15545SOL    HW295475   4.638  15.825   7.817
15546SOL     OW95476  12.679   7.070   5.878
15546SOL    HW195477  12.731   7.111   5.803
15546SOL    HW295478  12.641   6.982   5.849
15547SOL     OW95479  16.408  16.553   0.096
15547SOL    HW195480  16.388  16.599   0.010
15547SOL    HW295481  16.331  16.495   0.122
15548SOL     OW95482  16.564  11.343   1.944
15548SOL    HW195483  16.529  11.357   2.036
15548SOL    HW295484  16.591  11.431   1.905
15549SOL     OW95485  11.824  14.865   1.153
15549SOL    HW195486  11.726  14.879   1.137
15549SOL    HW295487  11.847  14.893   1.246
15550SOL     OW95488   9.391  10.195   0.645
15550SOL    HW195489   9.348  10.258   0.581
15550SOL    HW295490   9.382  10.101   0.611
15551SOL     OW95491   4.381  10.560   1.918
15551SOL    HW195492   4.394  10.627   1.991
15551SOL    HW295493   4.452  10.572   1.849
15552SOL     OW95494  14.311   2.144   6.823
15552SOL    HW195495  14.319   2.243   6.834
15552SOL    HW295496  14.347   2.117   6.733
15553SOL     OW95497  16.664  15.992   6.902
15553SOL    HW195498  16.574  16.026   6.928
15553SOL    HW295499  16.675  15.997   6.803
15554SOL     OW95500   4.025   7.133   6.750
15554SOL    HW195501   4.056   7.065   6.685
15554SOL    HW295502   3.946   7.183   6.713
15555SOL     OW95503   4.964  15.076   1.269
15555SOL    HW195504   5.014  15.117   1.345
15555SOL    HW295505   5.021  15.007   1.225
15556SOL     OW95506  16.432   3.370   7.300
15556SOL    HW195507  16.348   3.324   7.330
15556SOL    HW295508  16.418   3.469   7.303
15557SOL     OW95509  14.652   5.889   0.301
15557SOL    HW195510  14.598   5.808   0.277
15557SOL    HW295511  14.701   5.872   0.386
15558SOL     OW95512   9.616   0.417   1.612
15558SOL    HW195513   9.561   0.424   1.695
15558SOL    HW295514   9.713   0.418   1.637
15559SOL     OW95515  16.343   5.992   7.312
15559SOL    HW195516  16.293   6.063   7.361
15559SOL    HW295517  16.429   5.972   7.360
15560SOL     OW95518  16.692  13.199   0.111
15560SOL    HW195519  16.638  13.259   0.052
15560SOL    HW295520  16.668  13.104   0.091
15561SOL     OW95521  15.521  15.530   6.888
15561SOL    HW195522  15.580  15.609   6.902
15561SOL    HW295523  15.575  15.446   6.897
15562SOL     OW95524   8.644   6.928   0.773
15562SOL    HW195525   8.551   6.895   0.759
15562SOL    HW295526   8.685   6.953   0.685
15563SOL     OW95527  11.260   4.137   5.994
15563SOL    HW195528  11.285   4.041   5.998
15563SOL    HW295529  11.316   4.183   5.925
15564SOL     OW95530  10.129   6.112   7.127
15564SOL    HW195531  10.057   6.147   7.187
15564SOL    HW295532  10.087   6.070   7.047
15565SOL     OW95533  12.235   2.840   0.913
15565SOL    HW195534  12.311   2.816   0.973
15565SOL    HW295535  12.151   2.800   0.950
15566SOL     OW95536   7.236   9.197   7.103
15566SOL    HW195537   7.157   9.184   7.042
15566SOL    HW295538   7.317   9.156   7.062
15567SOL     OW95539  15.606   6.271   1.260
15567SOL    HW195540  15.656   6.352   1.289
15567SOL    HW295541  15.671   6.200   1.233
15568SOL     OW95542   0.729   9.925   8.238
15568SOL    HW195543   0.701  10.018   8.214
15568SOL    HW295544   0.659   9.883   8.297
15569SOL     OW95545   4.012  10.035   1.467
15569SOL    HW195546   4.024  10.126   1.506
15569SOL    HW295547   4.076   9.971   1.510
15570SOL     OW95548   9.743  12.558   6.605
15570SOL    HW195549   9.790  12.515   6.682
15570SOL    HW295550   9.811  12.593   6.540
15571SOL     OW95551  12.405  11.308   0.626
15571SOL    HW195552  12.459  11.361   0.560
15571SOL    HW295553  12.466  11.247   0.677
15572SOL     OW95554  15.494  11.596   2.115
15572SOL    HW195555  15.567  11.636   2.170
15572SOL    HW295556  15.500  11.631   2.022
15573SOL     OW95557   4.723  14.623   0.115
15573SOL    HW195558   4.651  14.612   0.184
15573SOL    HW295559   4.686  14.606   0.024
15574SOL     OW95560   4.384  13.333   7.694
15574SOL    HW195561   4.483  13.341   7.704
15574SOL    HW295562   4.355  13.244   7.730
15575SOL     OW95563   3.159  15.210   0.628
15575SOL    HW195564   3.069  15.237   0.661
15575SOL    HW295565   3.183  15.120   0.664
15576SOL     OW95566   4.784  15.273   0.794
15576SOL    HW195567   4.701  15.284   0.848
15576SOL    HW295568   4.796  15.176   0.770
15577SOL     OW95569   0.036  14.361   7.836
15577SOL    HW195570  16.931  14.390   7.871
15577SOL    HW295571   0.090  14.441   7.811
15578SOL     OW95572  13.121  13.897   1.916
15578SOL    HW195573  13.099  13.947   2.000
15578SOL    HW295574  13.215  13.917   1.889
15579SOL     OW95575   7.661  15.442   6.434
15579SOL    HW195576   7.641  15.530   6.478
15579SOL    HW295577   7.596  15.373   6.466
15580SOL     OW95578   0.132  12.616   1.513
15580SOL    HW195579   0.109  12.664   1.428
15580SOL    HW295580   0.231  12.616   1.525
15581SOL     OW95581  11.370  12.040   1.522
15581SOL    HW195582  11.442  11.994   1.470
15581SOL    HW295583  11.406  12.124   1.563
15582SOL     OW95584  11.759   3.291   7.586
15582SOL    HW195585  11.782   3.384   7.558
15582SOL    HW295586  11.720   3.293   7.679
15583SOL     OW95587   4.698   5.253   7.741
15583SOL    HW195588   4.640   5.180   7.777
15583SOL    HW295589   4.739   5.224   7.655
15584SOL     OW95590   7.492   8.980   7.732
15584SOL    HW195591   7.575   9.033   7.754
15584SOL    HW295592   7.518   8.896   7.685
15585SOL     OW95593   5.825   1.820   6.965
15585SOL    HW195594   5.750   1.756   6.986
15585SOL    HW295595   5.892   1.775   6.906
15586SOL     OW95596   4.907   8.748   7.636
15586SOL    HW195597   4.892   8.720   7.731
15586SOL    HW295598   4.940   8.669   7.583
15587SOL     OW95599  16.635   4.942   1.318
15587SOL    HW195600  16.590   5.026   1.347
15587SOL    HW295601  16.598   4.865   1.371
15588SOL     OW95602  14.417   1.602   7.323
15588SOL    HW195603  14.407   1.691   7.278
15588SOL    HW295604  14.507   1.564   7.302
15589SOL     OW95605   5.321  12.839   0.997
15589SOL    HW195606   5.301  12.932   1.028
15589SOL    HW295607   5.236  12.793   0.971
15590SOL     OW95608  14.456   7.824   1.294
15590SOL    HW195609  14.364   7.852   1.266
15590SOL    HW295610  14.517   7.823   1.215
15591SOL     OW95611   8.461   2.920   7.855
15591SOL    HW195612   8.481   2.961   7.766
15591SOL    HW295613   8.516   2.837   7.865
15592SOL     OW95614   3.060   0.610   8.023
15592SOL    HW195615   3.099   0.576   7.938
15592SOL    HW295616   3.002   0.540   8.064
15593SOL     OW95617   4.146   2.438   0.701
15593SOL    HW195618   4.092   2.423   0.618
15593SOL    HW295619   4.086   2.441   0.781
15594SOL     OW95620   5.931  10.827   7.055
15594SOL    HW195621   5.908  10.901   7.118
15594SOL    HW295622   6.030  10.813   7.054
15595SOL     OW95623   3.924  12.771   1.336
15595SOL    HW195624   3.924  12.865   1.369
15595SOL    HW295625   3.866  12.715   1.396
15596SOL     OW95626   5.663  10.708   8.364
15596SOL    HW195627   5.575  10.710   8.316
15596SOL    HW295628   5.737  10.709   8.297
15597SOL     OW95629   3.924  10.734   7.617
15597SOL    HW195630   3.973  10.746   7.531
15597SOL    HW295631   3.826  10.739   7.600
15598SOL     OW95632  15.409  11.920   0.094
15598SOL    HW195633  15.470  11.899   0.171
15598SOL    HW295634  15.384  11.835   0.047
15599SOL     OW95635   1.567  14.371   8.380
15599SOL    HW195636   1.657  14.414   8.370
15599SOL    HW295637   1.496  14.441   8.386
15600SOL     OW95638   5.376   1.790   6.540
15600SOL    HW195639   5.312   1.850   6.494
15600SOL    HW295640   5.406   1.718   6.478
15601SOL     OW95641   9.877   4.444   2.012
15601SOL    HW195642   9.852   4.404   2.101
15601SOL    HW295643   9.975   4.466   2.013
15602SOL     OW95644  13.424   4.498   7.364
15602SOL    HW195645  13.459   4.591   7.347
15602SOL    HW295646  13.381   4.464   7.280
15603SOL     OW95647  13.757   5.005   6.445
15603SOL    HW195648  13.776   5.059   6.527
15603SOL    HW295649  13.663   5.022   6.416
15604SOL     OW95650  14.738   4.188   7.763
15604SOL    HW195651  14.761   4.106   7.710
15604SOL    HW295652  14.699   4.161   7.851
15605SOL     OW95653  14.590   0.524   0.445
15605SOL    HW195654  14.503   0.513   0.398
15605SOL    HW295655  14.604   0.620   0.468
15606SOL     OW95656   4.080   9.834   8.440
15606SOL    HW195657   4.009   9.880   8.386
15606SOL    HW295658   4.074   9.865   0.081
15607SOL     OW95659   1.728   9.665   2.048
15607SOL    HW195660   1.644   9.673   2.102
15607SOL    HW295661   1.760   9.570   2.051
15608SOL     OW95662  16.002  11.544   0.321
15608SOL    HW195663  15.968  11.561   0.414
15608SOL    HW295664  15.964  11.612   0.259
15609SOL     OW95665   9.678  10.491   1.228
15609SOL    HW195666   9.599  10.512   1.171
15609SOL    HW295667   9.749  10.560   1.213
15610SOL     OW95668  14.712  14.461   8.405
15610SOL    HW195669  14.628  14.420   8.440
15610SOL    HW295670  14.735  14.542   0.006
15611SOL     OW95671   6.002   6.923   0.286
15611SOL    HW195672   6.018   6.832   0.324
15611SOL    HW295673   6.071   6.942   0.216
15612SOL     OW95674   2.244  15.098   2.251
15612SOL    HW195675   2.315  15.127   2.186
15612SOL    HW295676   2.199  15.179   2.289
15613SOL     OW95677  13.750   3.942   7.148
15613SOL    HW195678  13.714   3.984   7.065
15613SOL    HW295679  13.759   3.844   7.134
15614SOL     OW95680  15.420  10.723   2.062
15614SOL    HW195681  15.494  10.674   2.108
15614SOL    HW295682  15.366  10.773   2.130
15615SOL     OW95683  12.258   0.601   0.613
15615SOL    HW195684  12.331   0.599   0.680
15615SOL    HW295685  12.243   0.509   0.576
15616SOL     OW95686   2.402  13.301   7.657
15616SOL    HW195687   2.491  13.263   7.681
15616SOL    HW295688   2.412  13.369   7.585
15617SOL     OW95689   5.304   9.372   7.252
15617SOL    HW195690   5.401   9.379   7.227
15617SOL    HW295691   5.249   9.428   7.190
15618SOL     OW95692  12.829  14.321   7.834
15618SOL    HW195693  12.921  14.291   7.861
15618SOL    HW295694  12.801  14.271   7.752
15619SOL     OW95695  16.325   6.786   1.616
15619SOL    HW195696  16.242   6.841   1.618
15619SOL    HW295697  16.387   6.821   1.545
15620SOL     OW95698  15.883   4.106   0.104
15620SOL    HW195699  15.785   4.108   0.126
15620SOL    HW295700  15.901   4.037   0.035
15621SOL     OW95701  11.152   6.216   6.023
15621SOL    HW195702  11.207   6.275   5.965
15621SOL    HW295703  11.137   6.128   5.977
15622SOL     OW95704  12.514   6.906   6.089
15622SOL    HW195705  12.549   6.865   6.005
15622SOL    HW295706  12.460   6.987   6.067
15623SOL     OW95707   0.946  16.267   6.795
15623SOL    HW195708   0.927  16.345   6.855
15623SOL    HW295709   0.963  16.299   6.702
15624SOL     OW95710   7.263  16.048   6.539
15624SOL    HW195711   7.323  15.969   6.546
15624SOL    HW295712   7.221  16.050   6.448
15625SOL     OW95713   7.703  12.583   2.312
15625SOL    HW195714   7.632  12.524   2.352
15625SOL    HW295715   7.749  12.533   2.238
15626SOL     OW95716   6.413  15.513   7.234
15626SOL    HW195717   6.322  15.471   7.235
15626SOL    HW295718   6.466  15.476   7.158
15627SOL     OW95719   5.527  15.760   7.302
15627SOL    HW195720   5.440  15.719   7.329
15627SOL    HW295721   5.541  15.845   7.353
15628SOL     OW95722   8.285   2.304   0.613
15628SOL    HW195723   8.209   2.255   0.571
15628SOL    HW295724   8.357   2.319   0.546
15629SOL     OW95725  12.273  10.730   0.620
15629SOL    HW195726  12.235  10.819   0.597
15629SOL    HW295727  12.253  10.708   0.716
15630SOL     OW95728   2.087  11.209   2.182
15630SOL    HW195729   2.124  11.258   2.103
15630SOL    HW295730   2.153  11.214   2.258
15631SOL     OW95731   7.016   9.595   6.619
15631SOL    HW195732   7.000   9.692   6.602
15631SOL    HW295733   7.114   9.576   6.615
15632SOL     OW95734  14.840   0.052   0.661
15632SOL    HW195735  14.840  16.937   0.641
15632SOL    HW295736  14.874   0.102   0.581
15633SOL     OW95737  11.901   3.667   7.710
15633SOL    HW195738  11.939   3.617   7.788
15633SOL    HW295739  11.887   3.605   7.634
15634SOL     OW95740   3.484   3.763   7.464
15634SOL    HW195741   3.540   3.698   7.514
15634SOL    HW295742   3.441   3.827   7.528
15635SOL     OW95743   3.354   8.231   1.289
15635SOL    HW195744   3.350   8.135   1.317
15635SOL    HW295745   3.449   8.257   1.271
15636SOL     OW95746   8.385  10.482   2.028
15636SOL    HW195747   8.483  10.501   2.029
15636SOL    HW295748   8.353  10.473   2.122
15637SOL     OW95749  13.037   7.383   5.726
15637SOL    HW195750  13.076   7.446   5.659
15637SOL    HW295751  13.110   7.348   5.785
15638SOL     OW95752  16.128   0.329   0.230
15638SOL    HW195753  16.124   0.266   0.307
15638SOL    HW295754  16.214   0.317   0.181
15639SOL     OW95755   8.569   4.231   0.430
15639SOL    HW195756   8.564   4.258   0.526
15639SOL    HW295757   8.517   4.147   0.416
15640SOL     OW95758  11.309  10.602   8.031
15640SOL    HW195759  11.229  10.593   8.090
15640SOL    HW295760  11.380  10.539   8.062
15641SOL     OW95761  15.158  12.485   2.043
15641SOL    HW195762  15.119  12.575   2.061
15641SOL    HW295763  15.245  12.477   2.092
15642SOL     OW95764   8.401  13.322   2.220
15642SOL    HW195765   8.471  13.385   2.254
15642SOL    HW295766   8.361  13.273   2.297
15643SOL     OW95767   0.709   7.218   1.291
15643SOL    HW195768   0.701   7.188   1.386
15643SOL    HW295769   0.659   7.304   1.278
15644SOL     OW95770   5.942  14.871   1.398
15644SOL    HW195771   5.851  14.901   1.426
15644SOL    HW295772   5.991  14.947   1.357
15645SOL     OW95773  10.137   7.230   1.568
15645SOL    HW195774  10.189   7.315   1.580
15645SOL    HW295775  10.141   7.176   1.652
15646SOL     OW95776  14.314   2.377   5.707
15646SOL    HW195777  14.335   2.280   5.703
15646SOL    HW295778  14.348   2.422   5.625
15647SOL     OW95779  13.522   0.065   7.927
15647SOL    HW195780  13.435   0.020   7.907
15647SOL    HW295781  13.548   0.048   8.022
15648SOL     OW95782  11.713  11.242   0.315
15648SOL    HW195783  11.665  11.258   0.229
15648SOL    HW295784  11.802  11.200   0.296
15649SOL     OW95785   1.157  13.064   2.367
15649SOL    HW195786   1.145  12.979   2.419
15649SOL    HW295787   1.237  13.113   2.403
15650SOL     OW95788   2.640  11.254   7.389
15650SOL    HW195789   2.737  11.245   7.413
15650SOL    HW295790   2.623  11.345   7.353
15651SOL     OW95791   8.170   9.289   0.134
15651SOL    HW195792   8.224   9.217   0.177
15651SOL    HW295793   8.124   9.252   0.053
15652SOL     OW95794  13.770  16.674   7.880
15652SOL    HW195795  13.725  16.677   7.791
15652SOL    HW295796  13.835  16.750   7.888
15653SOL     OW95797   1.518  15.857   7.322
15653SOL    HW195798   1.543  15.926   7.254
15653SOL    HW295799   1.495  15.772   7.275
15654SOL     OW95800  10.328  13.788   1.525
15654SOL    HW195801  10.345  13.691   1.544
15654SOL    HW295802  10.311  13.801   1.428
15655SOL     OW95803   0.455   2.270   6.872
15655SOL    HW195804   0.376   2.331   6.874
15655SOL    HW295805   0.466   2.232   6.780
15656SOL     OW95806   2.155  15.085   7.974
15656SOL    HW195807   2.131  14.994   7.940
15656SOL    HW295808   2.117  15.155   7.914
15657SOL     OW95809  13.774   1.388   7.653
15657SOL    HW195810  13.802   1.302   7.697
15657SOL    HW295811  13.848   1.421   7.595
15658SOL     OW95812   5.198   8.645   7.086
15658SOL    HW195813   5.131   8.666   7.157
15658SOL    HW295814   5.162   8.671   6.997
15659SOL     OW95815   7.148   3.704   7.502
15659SOL    HW195816   7.102   3.632   7.450
15659SOL    HW295817   7.080   3.758   7.552
15660SOL     OW95818  16.068   6.768   7.547
15660SOL    HW195819  16.087   6.774   7.449
15660SOL    HW295820  16.146   6.729   7.594
15661SOL     OW95821  14.302  11.356   2.020
15661SOL    HW195822  14.372  11.353   1.950
15661SOL    HW295823  14.342  11.333   2.109
15662SOL     OW95824  13.582   7.432   0.432
15662SOL    HW195825  13.663   7.373   0.435
15662SOL    HW295826  13.580   7.489   0.514
15663SOL     OW95827  16.891  11.724   0.589
15663SOL    HW195828  16.826  11.666   0.638
15663SOL    HW295829  16.974  11.672   0.568
15664SOL     OW95830   5.159   1.653   0.979
15664SOL    HW195831   5.141   1.555   0.969
15664SOL    HW295832   5.175   1.693   0.889
15665SOL     OW95833  11.014   1.894   1.300
15665SOL    HW195834  11.045   1.973   1.246
15665SOL    HW295835  11.085   1.824   1.299
15666SOL     OW95836   7.828   8.492   0.967
15666SOL    HW195837   7.802   8.407   0.920
15666SOL    HW295838   7.923   8.514   0.947
15667SOL     OW95839  14.523  14.453   0.684
15667SOL    HW195840  14.573  14.539   0.679
15667SOL    HW295841  14.563  14.388   0.618
15668SOL     OW95842  12.671  15.138   0.808
15668SOL    HW195843  12.748  15.156   0.747
15668SOL    HW295844  12.631  15.224   0.837
15669SOL     OW95845  10.460   4.445   6.186
15669SOL    HW195846  10.484   4.397   6.271
15669SOL    HW295847  10.539   4.498   6.154
15670SOL     OW95848  10.800  15.328   7.802
15670SOL    HW195849  10.722  15.364   7.751
15670SOL    HW295850  10.865  15.402   7.821
15671SOL     OW95851   3.445  12.330   7.996
15671SOL    HW195852   3.413  12.278   7.916
15671SOL    HW295853   3.514  12.396   7.967
15672SOL     OW95854   7.580   1.508   7.546
15672SOL    HW195855   7.611   1.602   7.563
15672SOL    HW295856   7.652   1.444   7.574
15673SOL     OW95857  11.089  11.315   1.942
15673SOL    HW195858  10.990  11.322   1.933
15673SOL    HW295859  11.116  11.332   2.037
15674SOL     OW95860   5.638  16.521   0.856
15674SOL    HW195861   5.585  16.464   0.793
15674SOL    HW295862   5.635  16.616   0.824
15675SOL     OW95863   0.212  14.585   7.799
15675SOL    HW195864   0.130  14.629   7.836
15675SOL    HW295865   0.267  14.549   7.875
15676SOL     OW95866  11.211  15.115   1.115
15676SOL    HW195867  11.173  15.167   1.038
15676SOL    HW295868  11.254  15.178   1.179
15677SOL     OW95869   0.931  10.107   1.795
15677SOL    HW195870   0.869  10.052   1.739
15677SOL    HW295871   0.916  10.086   1.892
15678SOL     OW95872   5.356  14.099   0.018
15678SOL    HW195873   5.409  14.118   0.101
15678SOL    HW295874   5.260  14.122   0.034
15679SOL     OW95875   2.309  11.178   1.177
15679SOL    HW195876   2.365  11.115   1.123
15679SOL    HW295877   2.252  11.232   1.116
15680SOL     OW95878   1.227  12.715   7.824
15680SOL    HW195879   1.272  12.802   7.845
15680SOL    HW295880   1.208  12.709   7.726
15681SOL     OW95881   4.323   2.772   1.419
15681SOL    HW195882   4.383   2.838   1.464
15681SOL    HW295883   4.231   2.810   1.411
15682SOL     OW95884  12.682  11.611   0.807
15682SOL    HW195885  12.719  11.561   0.729
15682SOL    HW295886  12.588  11.640   0.787
15683SOL     OW95887  14.721   0.503   7.452
15683SOL    HW195888  14.637   0.460   7.482
15683SOL    HW295889  14.742   0.474   7.359
15684SOL     OW95890   9.132   3.979   7.635
15684SOL    HW195891   9.074   3.948   7.560
15684SOL    HW295892   9.106   3.933   7.719
15685SOL     OW95893  16.599  14.842   0.825
15685SOL    HW195894  16.592  14.942   0.826
15685SOL    HW295895  16.596  14.807   0.919
15686SOL     OW95896   9.569  14.373   1.019
15686SOL    HW195897   9.497  14.327   0.968
15686SOL    HW295898   9.625  14.305   1.067
15687SOL     OW95899   2.351   9.456   6.961
15687SOL    HW195900   2.304   9.395   6.897
15687SOL    HW295901   2.424   9.405   7.008
15688SOL     OW95902   9.065   5.499   6.765
15688SOL    HW195903   9.115   5.416   6.741
15688SOL    HW295904   9.055   5.557   6.684
15689SOL     OW95905   6.728  12.322   0.497
15689SOL    HW195906   6.786  12.366   0.565
15689SOL    HW295907   6.767  12.233   0.474
15690SOL     OW95908  15.908  16.096   0.999
15690SOL    HW195909  15.835  16.164   1.003
15690SOL    HW295910  15.900  16.043   0.914
15691SOL     OW95911   0.017  16.937   7.720
15691SOL    HW195912  16.928  16.873   7.744
15691SOL    HW295913   0.008  16.963   7.624
15692SOL     OW95914   2.379  12.084   0.535
15692SOL    HW195915   2.473  12.068   0.507
15692SOL    HW295916   2.377  12.142   0.616
15693SOL     OW95917  16.892   3.448   8.450
15693SOL    HW195918  16.824   3.441   0.069
15693SOL    HW295919  16.979   3.479   0.035
15694SOL     OW95920   4.381  13.830   8.349
15694SOL    HW195921   4.301  13.888   8.336
15694SOL    HW295922   4.407  13.788   8.262
15695SOL     OW95923   9.135  12.584   1.622
15695SOL    HW195924   9.195  12.505   1.631
15695SOL    HW295925   9.189  12.668   1.629
15696SOL     OW95926   3.448   7.004   1.514
15696SOL    HW195927   3.451   6.956   1.427
15696SOL    HW295928   3.431   7.102   1.498
15697SOL     OW95929  13.072  11.834   0.263
15697SOL    HW195930  12.998  11.799   0.321
15697SOL    HW295931  13.043  11.921   0.223
15698SOL     OW95932   1.334   7.540   0.040
15698SOL    HW195933   1.321   7.446   0.073
15698SOL    HW295934   1.408   7.583   0.092
15699SOL     OW95935  13.960   4.005   0.425
15699SOL    HW195936  14.003   3.941   0.361
15699SOL    HW295937  13.976   4.099   0.394
15700SOL     OW95938   4.445  14.408   2.691
15700SOL    HW195939   4.439  14.354   2.775
15700SOL    HW295940   4.393  14.362   2.618
15701SOL     OW95941  14.225  14.641   1.950
15701SOL    HW195942  14.231  14.541   1.956
15701SOL    HW295943  14.243  14.681   2.039
15702SOL     OW95944   3.481   7.911   7.771
15702SOL    HW195945   3.388   7.874   7.764
15702SOL    HW295946   3.533   7.858   7.837
15703SOL     OW95947   3.290   5.416   2.032
15703SOL    HW195948   3.220   5.476   1.994
15703SOL    HW295949   3.246   5.336   2.073
15704SOL     OW95950  14.192   6.435   8.364
15704SOL    HW195951  14.161   6.367   8.297
15704SOL    HW295952  14.198   6.392   0.000
15705SOL     OW95953   6.609   1.917   8.188
15705SOL    HW195954   6.652   1.867   8.112
15705SOL    HW295955   6.647   1.885   8.274
15706SOL     OW95956  13.205  15.321   0.798
15706SOL    HW195957  13.241  15.301   0.889
15706SOL    HW295958  13.106  15.338   0.803
15707SOL     OW95959  15.655   8.402   0.883
15707SOL    HW195960  15.621   8.315   0.918
15707SOL    HW295961  15.602   8.429   0.803
15708SOL     OW95962   5.860  15.680   1.311
15708SOL    HW195963   5.807  15.762   1.290
15708SOL    HW295964   5.837  15.608   1.245
15709SOL     OW95965   6.061  15.098   1.304
15709SOL    HW195966   6.090  15.159   1.378
15709SOL    HW295967   6.136  15.087   1.238
15710SOL     OW95968   2.374   8.151   6.579
15710SOL    HW195969   2.371   8.062   6.533
15710SOL    HW295970   2.308   8.213   6.535
15711SOL     OW95971  16.280  12.577   7.927
15711SOL    HW195972  16.273  12.666   7.973
15711SOL    HW295973  16.193  12.555   7.883
15712SOL     OW95974   5.363   5.780   7.574
15712SOL    HW195975   5.461   5.779   7.594
15712SOL    HW295976   5.347   5.735   7.486
15713SOL     OW95977   6.740   4.085   6.422
15713SOL    HW195978   6.697   4.170   6.392
15713SOL    HW295979   6.809   4.058   6.355
15714SOL     OW95980  11.361   7.845   0.418
15714SOL    HW195981  11.322   7.757   0.443
15714SOL    HW295982  11.449   7.831   0.372
15715SOL     OW95983   9.560   6.332   1.592
15715SOL    HW195984   9.650   6.336   1.637
15715SOL    HW295985   9.504   6.409   1.622
15716SOL     OW95986   9.777   0.268   8.361
15716SOL    HW195987   9.785   0.187   8.420
15716SOL    HW295988   9.856   0.273   8.300
15717SOL     OW95989   0.313   6.177   0.265
15717SOL    HW195990   0.303   6.176   0.364
15717SOL    HW295991   0.405   6.209   0.241
15718SOL     OW95992   5.467   2.288   0.161
15718SOL    HW195993   5.515   2.218   0.213
15718SOL    HW295994   5.533   2.346   0.114
15719SOL     OW95995  16.294   7.682   8.124
15719SOL    HW195996  16.256   7.760   8.175
15719SOL    HW295997  16.219   7.623   8.094
15720SOL     OW95998   3.627   0.851   7.608
15720SOL    HW195999   3.580   0.764   7.590
15720SOL    HW296000   3.705   0.860   7.546
15721SOL     OW96001   2.268   3.932   7.311
15721SOL    HW196002   2.256   3.940   7.409
15721SOL    HW296003   2.204   3.864   7.275
15722SOL     OW96004   6.323  12.723   7.216
15722SOL    HW196005   6.226  12.738   7.234
15722SOL    HW296006   6.335  12.640   7.162
15723SOL     OW96007   1.784   6.611   0.481
15723SOL    HW196008   1.798   6.524   0.528
15723SOL    HW296009   1.872   6.651   0.455
15724SOL     OW96010  11.340  11.594   7.957
15724SOL    HW196011  11.249  11.560   7.983
15724SOL    HW296012  11.375  11.540   7.880
15725SOL     OW96013  10.373  13.195   8.227
15725SOL    HW196014  10.315  13.208   8.146
15725SOL    HW296015  10.447  13.262   8.227
15726SOL     OW96016  10.222  16.283   7.527
15726SOL    HW196017  10.261  16.335   7.603
15726SOL    HW296018  10.292  16.221   7.491
15727SOL     OW96019   9.206  15.640   0.525
15727SOL    HW196020   9.301  15.607   0.523
15727SOL    HW296021   9.153  15.593   0.456
15728SOL     OW96022  11.084  12.563   6.681
15728SOL    HW196023  10.996  12.562   6.729
15728SOL    HW296024  11.072  12.528   6.588
15729SOL     OW96025   0.116  11.748   7.647
15729SOL    HW196026   0.050  11.797   7.705
15729SOL    HW296027   0.101  11.773   7.552
15730SOL     OW96028   4.184  14.844   2.633
15730SOL    HW196029   4.098  14.797   2.614
15730SOL    HW296030   4.257  14.777   2.649
15731SOL     OW96031  14.512   9.511   6.703
15731SOL    HW196032  14.469   9.533   6.615
15731SOL    HW296033  14.601   9.556   6.708
15732SOL     OW96034   3.524  11.906   1.346
15732SOL    HW196035   3.599  11.943   1.290
15732SOL    HW296036   3.466  11.980   1.378
15733SOL     OW96037   9.662   8.239   6.800
15733SOL    HW196038   9.695   8.316   6.745
15733SOL    HW296039   9.722   8.228   6.880
15734SOL     OW96040   1.616   5.355   6.895
15734SOL    HW196041   1.637   5.273   6.949
15734SOL    HW296042   1.543   5.334   6.830
15735SOL     OW96043  11.458  11.887   7.684
15735SOL    HW196044  11.385  11.902   7.617
15735SOL    HW296045  11.419  11.887   7.776
15736SOL     OW96046  10.293  10.458   6.103
15736SOL    HW196047  10.301  10.508   6.017
15736SOL    HW296048  10.211  10.401   6.100
15737SOL     OW96049  11.605  12.750   0.680
15737SOL    HW196050  11.636  12.655   0.685
15737SOL    HW296051  11.613  12.792   0.770
15738SOL     OW96052   2.491   2.675   0.952
15738SOL    HW196053   2.480   2.721   1.040
15738SOL    HW296054   2.457   2.734   0.879
15739SOL     OW96055   8.227  16.051   0.819
15739SOL    HW196056   8.169  16.069   0.899
15739SOL    HW296057   8.257  15.956   0.820
15740SOL     OW96058  12.570   3.637   6.197
15740SOL    HW196059  12.533   3.581   6.123
15740SOL    HW296060  12.583   3.731   6.164
15741SOL     OW96061   0.766  14.624   2.307
15741SOL    HW196062   0.742  14.713   2.345
15741SOL    HW296063   0.754  14.553   2.376
15742SOL     OW96064  10.606  14.659   8.194
15742SOL    HW196065  10.534  14.694   8.254
15742SOL    HW296066  10.565  14.622   8.110
15743SOL     OW96067   9.326   2.738   8.092
15743SOL    HW196068   9.350   2.787   8.008
15743SOL    HW296069   9.287   2.802   8.158
15744SOL     OW96070  10.204   9.486   0.845
15744SOL    HW196071  10.235   9.564   0.898
15744SOL    HW296072  10.110   9.462   0.872
15745SOL     OW96073   2.031  16.473   1.342
15745SOL    HW196074   1.963  16.540   1.372
15745SOL    HW296075   2.047  16.483   1.244
15746SOL     OW96076  13.524   6.625   1.126
15746SOL    HW196077  13.495   6.534   1.156
15746SOL    HW296078  13.532   6.626   1.026
15747SOL     OW96079   0.798  16.283   1.703
15747SOL    HW196080   0.716  16.238   1.736
15747SOL    HW296081   0.862  16.297   1.779
15748SOL     OW96082   3.943  14.266   1.368
15748SOL    HW196083   3.930  14.185   1.311
15748SOL    HW296084   4.033  14.305   1.350
15749SOL     OW96085   3.890  11.902   7.507
15749SOL    HW196086   3.958  11.831   7.524
15749SOL    HW296087   3.830  11.873   7.432
15750SOL     OW96088   1.133  12.206   1.172
15750SOL    HW196089   1.155  12.111   1.193
15750SOL    HW296090   1.145  12.262   1.254
15751SOL     OW96091   2.198  13.635   1.958
15751SOL    HW196092   2.160  13.653   1.867
15751SOL    HW296093   2.177  13.711   2.019
15752SOL     OW96094   9.093  10.028   7.519
15752SOL    HW196095   9.126  10.118   7.546
15752SOL    HW296096   9.084  10.024   7.419
15753SOL     OW96097   3.854  16.422   0.273
15753SOL    HW196098   3.833  16.396   0.367
15753SOL    HW296099   3.953  16.418   0.258
15754SOL     OW96100   7.555   2.953   0.329
15754SOL    HW196101   7.502   2.918   0.406
15754SOL    HW296102   7.578   2.877   0.268
15755SOL     OW96103  16.886   1.121   1.711
15755SOL    HW196104  16.928   1.198   1.758
15755SOL    HW296105  16.818   1.078   1.771
15756SOL     OW96106   6.712   2.234   1.567
15756SOL    HW196107   6.784   2.214   1.633
15756SOL    HW296108   6.624   2.202   1.603
15757SOL     OW96109  10.302   0.444   1.177
15757SOL    HW196110  10.287   0.522   1.237
15757SOL    HW296111  10.383   0.461   1.120
15758SOL     OW96112   0.785  15.961   0.174
15758SOL    HW196113   0.881  15.966   0.147
15758SOL    HW296114   0.755  16.051   0.207
15759SOL     OW96115  11.931   4.918   7.362
15759SOL    HW196116  11.927   4.827   7.404
15759SOL    HW296117  11.905   4.912   7.266
15760SOL     OW96118   2.946   3.108   1.063
15760SOL    HW196119   2.861   3.055   1.062
15760SOL    HW296120   2.932   3.194   1.015
15761SOL     OW96121  16.178   8.647   1.625
15761SOL    HW196122  16.219   8.624   1.713
15761SOL    HW296123  16.124   8.731   1.635
15762SOL     OW96124   4.200  15.938   7.088
15762SOL    HW196125   4.276  15.888   7.129
15762SOL    HW296126   4.194  15.918   6.990
15763SOL     OW96127  16.330  10.154   8.120
15763SOL    HW196128  16.287  10.079   8.168
15763SOL    HW296129  16.398  10.198   8.179
15764SOL     OW96130  14.936  16.699   0.899
15764SOL    HW196131  14.844  16.661   0.895
15764SOL    HW296132  14.946  16.755   0.981
15765SOL     OW96133  11.451   2.204   1.923
15765SOL    HW196134  11.393   2.286   1.927
15765SOL    HW296135  11.406   2.129   1.971
15766SOL     OW96136   3.786   7.060   7.206
15766SOL    HW196137   3.688   7.066   7.186
15766SOL    HW296138   3.836   7.044   7.121
15767SOL     OW96139   0.826  12.848   0.758
15767SOL    HW196140   0.919  12.884   0.761
15767SOL    HW296141   0.827  12.757   0.716
15768SOL     OW96142  13.445  12.206   0.253
15768SOL    HW196143  13.391  12.159   0.183
15768SOL    HW296144  13.384  12.241   0.324
15769SOL     OW96145  14.686   8.879   7.172
15769SOL    HW196146  14.593   8.849   7.148
15769SOL    HW296147  14.680   8.957   7.235
15770SOL     OW96148   8.809  15.147   6.576
15770SOL    HW196149   8.871  15.100   6.638
15770SOL    HW296150   8.863  15.196   6.507
15771SOL     OW96151   0.751   0.243   1.454
15771SOL    HW196152   0.798   0.209   1.536
15771SOL    HW296153   0.761   0.342   1.449
15772SOL     OW96154  16.838  16.690   7.504
15772SOL    HW196155  16.843  16.593   7.482
15772SOL    HW296156  16.840  16.702   7.603
15773SOL     OW96157  16.798   2.181   7.554
15773SOL    HW196158  16.838   2.200   7.643
15773SOL    HW296159  16.862   2.127   7.500
15774SOL     OW96160   7.775   5.546   0.030
15774SOL    HW196161   7.854   5.602   0.056
15774SOL    HW296162   7.795   5.450   0.048
15775SOL     OW96163  13.274   8.227   7.395
15775SOL    HW196164  13.324   8.291   7.337
15775SOL    HW296165  13.335   8.153   7.423
15776SOL     OW96166   2.666  11.781   8.114
15776SOL    HW196167   2.575  11.763   8.077
15776SOL    HW296168   2.693  11.875   8.093
15777SOL     OW96169  10.286   4.286   6.556
15777SOL    HW196170  10.229   4.285   6.474
15777SOL    HW296171  10.248   4.351   6.622
15778SOL     OW96172   7.447   5.040   0.690
15778SOL    HW196173   7.455   4.956   0.637
15778SOL    HW296174   7.458   5.019   0.787
15779SOL     OW96175   3.873   2.234   7.541
15779SOL    HW196176   3.871   2.281   7.453
15779SOL    HW296177   3.831   2.144   7.532
15780SOL     OW96178   4.462  13.333   1.202
15780SOL    HW196179   4.442  13.425   1.238
15780SOL    HW296180   4.457  13.267   1.277
15781SOL     OW96181   1.133   8.388   8.374
15781SOL    HW196182   1.089   8.437   8.299
15781SOL    HW296183   1.189   8.451   8.427
15782SOL     OW96184   7.991  11.439   0.578
15782SOL    HW196185   7.969  11.417   0.672
15782SOL    HW296186   8.064  11.508   0.576
15783SOL     OW96187   8.841   1.127   1.201
15783SOL    HW196188   8.755   1.118   1.250
15783SOL    HW296189   8.916   1.089   1.256
15784SOL     OW96190   5.586  11.650   7.980
15784SOL    HW196191   5.670  11.692   8.014
15784SOL    HW296192   5.508  11.682   8.033
15785SOL     OW96193  13.331   1.089   6.781
15785SOL    HW196194  13.293   1.004   6.817
15785SOL    HW296195  13.382   1.071   6.697
15786SOL     OW96196  15.990   0.172   6.904
15786SOL    HW196197  15.915   0.143   6.844
15786SOL    HW296198  16.071   0.192   6.849
15787SOL     OW96199   2.789  14.521   1.798
15787SOL    HW196200   2.825  14.549   1.708
15787SOL    HW296201   2.865  14.496   1.858
15788SOL     OW96202  12.490   0.644   5.956
15788SOL    HW196203  12.439   0.660   5.871
15788SOL    HW296204  12.473   0.550   5.988
15789SOL     OW96205   8.508  13.511   1.055
15789SOL    HW196206   8.520  13.513   1.154
15789SOL    HW296207   8.468  13.424   1.027
15790SOL     OW96208  11.035   2.226   7.808
15790SOL    HW196209  11.085   2.192   7.729
15790SOL    HW296210  11.049   2.325   7.817
15791SOL     OW96211   1.276   2.377   0.004
15791SOL    HW196212   1.217   2.424   8.392
15791SOL    HW296213   1.346   2.441   0.037
15792SOL     OW96214   2.614  15.578   7.152
15792SOL    HW196215   2.710  15.560   7.173
15792SOL    HW296216   2.605  15.600   7.054
15793SOL     OW96217  11.409   0.547   7.394
15793SOL    HW196218  11.473   0.474   7.419
15793SOL    HW296219  11.330   0.545   7.454
15794SOL     OW96220   4.690   7.092   7.467
15794SOL    HW196221   4.664   7.000   7.497
15794SOL    HW296222   4.747   7.085   7.385
15795SOL     OW96223  12.838   5.030   1.549
15795SOL    HW196224  12.800   5.003   1.460
15795SOL    HW296225  12.808   5.123   1.571
15796SOL     OW96226   6.684  15.797   2.152
15796SOL    HW196227   6.744  15.854   2.208
15796SOL    HW296228   6.616  15.753   2.211
15797SOL     OW96229   5.637   6.437   1.157
15797SOL    HW196230   5.715   6.411   1.213
15797SOL    HW296231   5.668   6.457   1.064
15798SOL     OW96232   3.308  15.925   0.169
15798SOL    HW196233   3.304  15.825   0.168
15798SOL    HW296234   3.387  15.955   0.116
15799SOL     OW96235  13.573   3.744   0.554
15799SOL    HW196236  13.647   3.680   0.533
15799SOL    HW296237  13.485   3.701   0.533
15800SOL     OW96238  10.131  11.279   0.061
15800SOL    HW196239  10.058  11.212   0.065
15800SOL    HW296240  10.213  11.242   0.104
15801SOL     OW96241   5.762  12.189   0.659
15801SOL    HW196242   5.826  12.232   0.594
15801SOL    HW296243   5.765  12.090   0.648
15802SOL     OW96244  16.958   9.368   1.314
15802SOL    HW196245  16.952   9.435   1.388
15802SOL    HW296246   0.023   9.408   1.236
15803SOL     OW96247  12.228   4.783   8.087
15803SOL    HW196248  12.200   4.792   7.991
15803SOL    HW296249  12.232   4.686   8.111
15804SOL     OW96250   2.062   7.071   6.476
15804SOL    HW196251   2.140   7.012   6.456
15804SOL    HW296252   2.068   7.153   6.420
15805SOL     OW96253   4.777   5.651   1.610
15805SOL    HW196254   4.723   5.675   1.530
15805SOL    HW296255   4.752   5.559   1.641
15806SOL     OW96256   7.496   1.853   7.991
15806SOL    HW196257   7.433   1.906   8.048
15806SOL    HW296258   7.569   1.816   8.049
15807SOL     OW96259  16.971   5.534   7.142
15807SOL    HW196260  16.882   5.539   7.187
15807SOL    HW296261   0.060   5.539   7.211
15808SOL     OW96262  11.819   7.132   1.824
15808SOL    HW196263  11.725   7.150   1.852
15808SOL    HW296264  11.868   7.087   1.898
15809SOL     OW96265   3.305  16.728   0.388
15809SOL    HW196266   3.333  16.692   0.299
15809SOL    HW296267   3.387  16.742   0.445
15810SOL     OW96268  15.577  12.799   7.381
15810SOL    HW196269  15.675  12.788   7.368
15810SOL    HW296270  15.548  12.748   7.462
15811SOL     OW96271   3.103  10.790   7.574
15811SOL    HW196272   3.128  10.708   7.522
15811SOL    HW296273   3.007  10.785   7.600
15812SOL     OW96274   7.769  12.841   2.365
15812SOL    HW196275   7.756  12.742   2.359
15812SOL    HW296276   7.681  12.886   2.380
15813SOL     OW96277  16.168   6.321   5.483
15813SOL    HW196278  16.141   6.285   5.394
15813SOL    HW296279  16.261   6.357   5.477
15814SOL     OW96280  14.593  12.067   1.080
15814SOL    HW196281  14.576  12.148   1.135
15814SOL    HW296282  14.509  12.042   1.031
15815SOL     OW96283  15.682   6.636   1.230
15815SOL    HW196284  15.610   6.657   1.296
15815SOL    HW296285  15.746   6.570   1.269
15816SOL     OW96286   6.133  13.767   6.647
15816SOL    HW196287   6.160  13.673   6.671
15816SOL    HW296288   6.183  13.831   6.705
15817SOL     OW96289  14.244  16.610   8.144
15817SOL    HW196290  14.216  16.689   8.199
15817SOL    HW296291  14.163  16.556   8.120
15818SOL     OW96292   0.761  11.617   8.364
15818SOL    HW196293   0.797  11.568   8.285
15818SOL    HW296294   0.759  11.557   8.444
15819SOL     OW96295   6.558   1.363   1.969
15819SOL    HW196296   6.492   1.428   1.930
15819SOL    HW296297   6.530   1.339   2.062
15820SOL     OW96298  15.337   5.472   1.547
15820SOL    HW196299  15.332   5.401   1.617
15820SOL    HW296300  15.395   5.441   1.472
15821SOL     OW96301   0.434   1.733   1.858
15821SOL    HW196302   0.510   1.695   1.911
15821SOL    HW296303   0.347   1.708   1.900
15822SOL     OW96304   6.776   0.176   7.293
15822SOL    HW196305   6.835   0.198   7.215
15822SOL    HW296306   6.743   0.082   7.285
15823SOL     OW96307   8.750  11.737   0.819
15823SOL    HW196308   8.661  11.771   0.851
15823SOL    HW296309   8.823  11.786   0.865
15824SOL     OW96310  10.211   2.058   6.464
15824SOL    HW196311  10.232   2.130   6.398
15824SOL    HW296312  10.261   2.075   6.549
15825SOL     OW96313  12.565   0.845   5.620
15825SOL    HW196314  12.483   0.792   5.641
15825SOL    HW296315  12.540   0.925   5.567
15826SOL     OW96316  11.336  14.064   8.010
15826SOL    HW196317  11.363  14.089   7.917
15826SOL    HW296318  11.331  13.964   8.019
15827SOL     OW96319   4.993  16.057   1.986
15827SOL    HW196320   4.947  16.117   2.050
15827SOL    HW296321   5.079  16.025   2.026
15828SOL     OW96322  12.654   4.367   0.098
15828SOL    HW196323  12.688   4.339   0.188
15828SOL    HW296324  12.640   4.285   0.041
15829SOL     OW96325   5.621  11.982   0.403
15829SOL    HW196326   5.685  11.953   0.332
15829SOL    HW296327   5.660  11.963   0.493
15830SOL     OW96328   9.072  13.523   2.358
15830SOL    HW196329   8.981  13.529   2.399
15830SOL    HW296330   9.127  13.456   2.408
15831SOL     OW96331  12.422  14.341   0.414
15831SOL    HW196332  12.346  14.286   0.380
15831SOL    HW296333  12.425  14.428   0.364
15832SOL     OW96334   8.481   5.697   7.765
15832SOL    HW196335   8.445   5.618   7.816
15832SOL    HW296336   8.552   5.667   7.702
15833SOL     OW96337  12.843  11.944   8.417
15833SOL    HW196338  12.892  11.994   0.035
15833SOL    HW296339  12.784  11.875   0.006
15834SOL     OW96340  10.953   9.753   2.028
15834SOL    HW196341  10.894   9.686   2.072
15834SOL    HW296342  11.046   9.744   2.065
15835SOL     OW96343   4.687   2.792   7.938
15835SOL    HW196344   4.643   2.764   8.023
15835SOL    HW296345   4.784   2.808   7.954
15836SOL     OW96346  12.891  12.816   0.812
15836SOL    HW196347  12.830  12.893   0.792
15836SOL    HW296348  12.853  12.763   0.888
15837SOL     OW96349   6.346   3.456   0.041
15837SOL    HW196350   6.434   3.411   0.024
15837SOL    HW296351   6.325   3.516   8.417
15838SOL     OW96352   5.296   4.977   7.239
15838SOL    HW196353   5.247   4.985   7.326
15838SOL    HW296354   5.340   5.064   7.218
15839SOL     OW96355   4.410   4.007   7.326
15839SOL    HW196356   4.378   4.054   7.244
15839SOL    HW296357   4.453   4.072   7.387
15840SOL     OW96358  13.121  16.752   0.045
15840SOL    HW196359  13.192  16.817   0.073
15840SOL    HW296360  13.033  16.799   0.042
15841SOL     OW96361   3.922   0.233   2.060
15841SOL    HW196362   3.900   0.214   1.965
15841SOL    HW296363   3.850   0.291   2.100
15842SOL     OW96364  13.903   4.201   7.842
15842SOL    HW196365  13.896   4.298   7.823
15842SOL    HW296366  13.983   4.184   7.900
15843SOL     OW96367   4.214   5.328   0.206
15843SOL    HW196368   4.131   5.277   0.185
15843SOL    HW296369   4.292   5.265   0.204
15844SOL     OW96370  11.733   5.997   1.077
15844SOL    HW196371  11.739   6.027   1.172
15844SOL    HW296372  11.789   5.915   1.065
15845SOL     OW96373   8.401  10.822   6.928
15845SOL    HW196374   8.301  10.828   6.929
15845SOL    HW296375   8.440  10.904   6.970
15846SOL     OW96376  11.455   4.811   0.638
15846SOL    HW196377  11.421   4.736   0.696
15846SOL    HW296378  11.379   4.873   0.617
15847SOL     OW96379   3.802  12.381   0.875
15847SOL    HW196380   3.728  12.419   0.930
15847SOL    HW296381   3.810  12.433   0.790
15848SOL     OW96382   9.616   7.096   6.641
15848SOL    HW196383   9.678   7.158   6.690
15848SOL    HW296384   9.656   7.005   6.638
15849SOL     OW96385   2.939   9.958   1.385
15849SOL    HW196386   3.009   9.989   1.450
15849SOL    HW296387   2.896  10.038   1.342
15850SOL     OW96388   6.185  10.984   6.815
15850SOL    HW196389   6.202  10.906   6.754
15850SOL    HW296390   6.263  10.996   6.876
15851SOL     OW96391  12.815  13.274   7.566
15851SOL    HW196392  12.796  13.234   7.476
15851SOL    HW296393  12.760  13.228   7.635
15852SOL     OW96394   0.233  12.788   7.551
15852SOL    HW196395   0.203  12.722   7.482
15852SOL    HW296396   0.177  12.778   7.634
15853SOL     OW96397   3.162   6.861   1.327
15853SOL    HW196398   3.091   6.839   1.261
15853SOL    HW296399   3.122   6.912   1.403
15854SOL     OW96400  13.640   8.384   1.200
15854SOL    HW196401  13.659   8.458   1.136
15854SOL    HW296402  13.559   8.334   1.170
15855SOL     OW96403   4.255   2.452   6.600
15855SOL    HW196404   4.210   2.479   6.685
15855SOL    HW296405   4.191   2.458   6.524
15856SOL     OW96406   1.050  10.889   7.390
15856SOL    HW196407   1.101  10.815   7.434
15856SOL    HW296408   1.008  10.854   7.306
15857SOL     OW96409   1.810   2.928   6.833
15857SOL    HW196410   1.882   2.976   6.782
15857SOL    HW296411   1.844   2.840   6.865
15858SOL     OW96412   0.256  15.742   1.845
15858SOL    HW196413   0.279  15.836   1.871
15858SOL    HW296414   0.198  15.744   1.763
15859SOL     OW96415   3.372   0.341   1.077
15859SOL    HW196416   3.418   0.293   1.152
15859SOL    HW296417   3.436   0.404   1.033
15860SOL     OW96418   9.927  13.048   0.422
15860SOL    HW196419   9.893  13.023   0.331
15860SOL    HW296420   9.877  13.129   0.454
15861SOL     OW96421  16.526  12.408   6.495
15861SOL    HW196422  16.509  12.427   6.399
15861SOL    HW296423  16.550  12.492   6.542
15862SOL     OW96424  11.854  15.901   0.506
15862SOL    HW196425  11.800  15.980   0.534
15862SOL    HW296426  11.879  15.910   0.409
15863SOL     OW96427  15.508   6.135   0.840
15863SOL    HW196428  15.584   6.192   0.810
15863SOL    HW296429  15.425   6.163   0.791
15864SOL     OW96430  11.949  16.876   1.225
15864SOL    HW196431  12.009  16.836   1.294
15864SOL    HW296432  11.998  16.883   1.138
15865SOL     OW96433   1.505  14.923   7.815
15865SOL    HW196434   1.460  14.862   7.880
15865SOL    HW296435   1.571  14.871   7.761
15866SOL     OW96436  16.264   8.986   2.005
15866SOL    HW196437  16.193   8.919   2.025
15866SOL    HW296438  16.330   8.988   2.080
15867SOL     OW96439  10.309   6.331   6.330
15867SOL    HW196440  10.385   6.272   6.301
15867SOL    HW296441  10.337   6.426   6.327
15868SOL     OW96442   1.625   8.353   0.722
15868SOL    HW196443   1.591   8.446   0.735
15868SOL    HW296444   1.604   8.322   0.630
15869SOL     OW96445   9.931  15.212   0.623
15869SOL    HW196446   9.976  15.125   0.603
15869SOL    HW296447   9.852  15.197   0.682
15870SOL     OW96448   8.881   4.038   0.837
15870SOL    HW196449   8.950   4.110   0.842
15870SOL    HW296450   8.903   3.976   0.761
15871SOL     OW96451  16.708  16.684   7.005
15871SOL    HW196452  16.717  16.663   6.908
15871SOL    HW296453  16.783  16.642   7.056
15872SOL     OW96454   6.239  13.178   7.057
15872SOL    HW196455   6.148  13.153   7.089
15872SOL    HW296456   6.305  13.109   7.087
15873SOL     OW96457   3.002  16.818   1.037
15873SOL    HW196458   3.047  16.819   1.127
15873SOL    HW296459   3.049  16.752   0.978
15874SOL     OW96460  13.519   3.462   6.060
15874SOL    HW196461  13.469   3.509   5.987
15874SOL    HW296462  13.453   3.426   6.127
15875SOL     OW96463  12.805   9.785   6.931
15875SOL    HW196464  12.816   9.709   6.867
15875SOL    HW296465  12.895   9.822   6.954
15876SOL     OW96466  14.519  13.147   7.143
15876SOL    HW196467  14.456  13.104   7.208
15876SOL    HW296468  14.467  13.201   7.077
15877SOL     OW96469  11.928  15.013   7.993
15877SOL    HW196470  11.899  14.919   7.975
15877SOL    HW296471  11.909  15.037   8.088
15878SOL     OW96472  11.015  14.187   7.881
15878SOL    HW196473  11.000  14.255   7.953
15878SOL    HW296474  10.982  14.098   7.912
15879SOL     OW96475   8.418  14.855   8.315
15879SOL    HW196476   8.474  14.902   8.384
15879SOL    HW296477   8.412  14.758   8.338
15880SOL     OW96478   8.624  14.156   8.363
15880SOL    HW196479   8.662  14.160   0.001
15880SOL    HW296480   8.697  14.174   8.296
15881SOL     OW96481  16.653  10.604   7.736
15881SOL    HW196482  16.700  10.627   7.651
15881SOL    HW296483  16.560  10.639   7.734
15882SOL     OW96484  11.518   2.044   7.300
15882SOL    HW196485  11.449   1.971   7.308
15882SOL    HW296486  11.600   2.007   7.256
15883SOL     OW96487   5.625   0.525   1.035
15883SOL    HW196488   5.581   0.498   0.950
15883SOL    HW296489   5.653   0.621   1.029
15884SOL     OW96490  10.573  13.048   7.124
15884SOL    HW196491  10.497  13.031   7.186
15884SOL    HW296492  10.641  12.975   7.133
15885SOL     OW96493   6.563  14.982   0.188
15885SOL    HW196494   6.585  14.956   0.094
15885SOL    HW296495   6.546  15.081   0.192
15886SOL     OW96496   7.390   7.508   1.570
15886SOL    HW196497   7.333   7.439   1.525
15886SOL    HW296498   7.381   7.497   1.669
15887SOL     OW96499   5.697   6.659   8.208
15887SOL    HW196500   5.779   6.677   8.262
15887SOL    HW296501   5.640   6.592   8.255
15888SOL     OW96502  15.518  11.140   1.489
15888SOL    HW196503  15.607  11.162   1.529
15888SOL    HW296504  15.527  11.138   1.389
15889SOL     OW96505  16.154  12.593   6.594
15889SOL    HW196506  16.191  12.686   6.599
15889SOL    HW296507  16.063  12.592   6.637
15890SOL     OW96508  10.026  10.696   6.732
15890SOL    HW196509   9.967  10.772   6.707
15890SOL    HW296510  10.119  10.712   6.698
15891SOL     OW96511  16.372   4.993   1.081
15891SOL    HW196512  16.443   4.958   1.020
15891SOL    HW296513  16.398   5.085   1.112
15892SOL     OW96514   4.556   1.469   1.769
15892SOL    HW196515   4.533   1.393   1.709
15892SOL    HW296516   4.616   1.437   1.842
15893SOL     OW96517  12.073  16.733   7.594
15893SOL    HW196518  12.129  16.657   7.626
15893SOL    HW296519  12.127  16.792   7.534
15894SOL     OW96520  13.548  13.788   2.212
15894SOL    HW196521  13.499  13.701   2.206
15894SOL    HW296522  13.536  13.827   2.304
15895SOL     OW96523   7.425   2.508   7.356
15895SOL    HW196524   7.448   2.412   7.373
15895SOL    HW296525   7.451   2.533   7.263
15896SOL     OW96526  16.392   3.178   1.845
15896SOL    HW196527  16.385   3.101   1.909
15896SOL    HW296528  16.343   3.257   1.882
15897SOL     OW96529  12.620   1.119   0.699
15897SOL    HW196530  12.602   1.181   0.776
15897SOL    HW296531  12.676   1.166   0.631
15898SOL     OW96532  10.090  15.412   6.764
15898SOL    HW196533  10.186  15.396   6.742
15898SOL    HW296534  10.080  15.422   6.863
15899SOL     OW96535  10.461  16.698   0.917
15899SOL    HW196536  10.434  16.677   1.011
15899SOL    HW296537  10.478  16.613   0.867
15900SOL     OW96538   0.780   2.395   7.394
15900SOL    HW196539   0.715   2.451   7.445
15900SOL    HW296540   0.754   2.299   7.399
15901SOL     OW96541  15.279  10.962   0.709
15901SOL    HW196542  15.331  10.969   0.624
15901SOL    HW296543  15.182  10.978   0.690
15902SOL     OW96544   3.152   2.008   8.199
15902SOL    HW196545   3.056   1.980   8.205
15902SOL    HW296546   3.163   2.076   8.126
15903SOL     OW96547   5.866  10.823   0.141
15903SOL    HW196548   5.795  10.773   0.091
15903SOL    HW296549   5.869  10.918   0.109
15904SOL     OW96550  16.494   9.578   1.630
15904SOL    HW196551  16.442   9.494   1.617
15904SOL    HW296552  16.473   9.617   1.720
15905SOL     OW96553   1.042   2.349   7.323
15905SOL    HW196554   0.950   2.374   7.353
15905SOL    HW296555   1.036   2.271   7.260
15906SOL     OW96556  13.941   0.122   0.814
15906SOL    HW196557  13.880   0.201   0.822
15906SOL    HW296558  13.928   0.080   0.724
15907SOL     OW96559  12.241   8.929   0.021
15907SOL    HW196560  12.203   8.871   8.403
15907SOL    HW296561  12.336   8.901   0.038
15908SOL     OW96562   7.469  15.272   8.345
15908SOL    HW196563   7.446  15.200   8.410
15908SOL    HW296564   7.408  15.266   8.266
15909SOL     OW96565   5.958   5.777   0.879
15909SOL    HW196566   5.900   5.751   0.956
15909SOL    HW296567   5.955   5.705   0.810
15910SOL     OW96568   8.355  13.601   2.089
15910SOL    HW196569   8.384  13.683   2.138
15910SOL    HW296570   8.386  13.520   2.138
15911SOL     OW96571   2.753   5.831   7.026
15911SOL    HW196572   2.774   5.928   7.041
15911SOL    HW296573   2.827   5.775   7.065
15912SOL     OW96574  11.561  14.667   2.100
15912SOL    HW196575  11.656  14.678   2.071
15912SOL    HW296576  11.558  14.660   2.200
15913SOL     OW96577  10.440   7.188   7.303
15913SOL    HW196578  10.342   7.208   7.313
15913SOL    HW296579  10.479   7.168   7.393
15914SOL     OW96580   8.105  11.423   2.060
15914SOL    HW196581   8.105  11.502   2.121
15914SOL    HW296582   8.114  11.339   2.114
15915SOL     OW96583   0.793   0.232   7.138
15915SOL    HW196584   0.830   0.310   7.087
15915SOL    HW296585   0.720   0.263   7.198
15916SOL     OW96586   3.465  12.303   7.110
15916SOL    HW196587   3.556  12.281   7.073
15916SOL    HW296588   3.416  12.218   7.129
15917SOL     OW96589  16.892  12.992   8.374
15917SOL    HW196590  16.951  12.912   8.389
15917SOL    HW296591  16.813  12.986   8.435
15918SOL     OW96592   3.338  14.371   0.304
15918SOL    HW196593   3.420  14.428   0.293
15918SOL    HW296594   3.357  14.278   0.275
15919SOL     OW96595   6.781   8.472   7.666
15919SOL    HW196596   6.859   8.476   7.728
15919SOL    HW296597   6.800   8.405   7.594
15920SOL     OW96598  10.936   9.235   7.804
15920SOL    HW196599  11.010   9.177   7.839
15920SOL    HW296600  10.956   9.262   7.710
15921SOL     OW96601  12.218  10.950   7.490
15921SOL    HW196602  12.167  11.004   7.424
15921SOL    HW296603  12.180  10.964   7.582
15922SOL     OW96604  15.943   4.851   8.350
15922SOL    HW196605  15.974   4.901   8.431
15922SOL    HW296606  15.855   4.807   8.370
15923SOL     OW96607  14.357   9.403   6.891
15923SOL    HW196608  14.263   9.426   6.868
15923SOL    HW296609  14.419   9.442   6.822
15924SOL     OW96610   1.645   6.764   7.833
15924SOL    HW196611   1.711   6.792   7.764
15924SOL    HW296612   1.596   6.844   7.868
15925SOL     OW96613  15.383  15.375   7.263
15925SOL    HW196614  15.483  15.364   7.258
15925SOL    HW296615  15.345  15.300   7.318
15926SOL     OW96616   2.746  15.655   1.989
15926SOL    HW196617   2.810  15.718   2.033
15926SOL    HW296618   2.757  15.564   2.027
15927SOL     OW96619  15.613   0.536   7.256
15927SOL    HW196620  15.654   0.583   7.178
15927SOL    HW296621  15.578   0.604   7.320
15928SOL     OW96622  16.388  12.268   7.742
15928SOL    HW196623  16.402  12.249   7.839
15928SOL    HW296624  16.401  12.185   7.688
15929SOL     OW96625   8.445   2.617   0.965
15929SOL    HW196626   8.500   2.580   0.890
15929SOL    HW296627   8.484   2.585   1.052
15930SOL     OW96628   3.238  15.110   1.110
15930SOL    HW196629   3.298  15.186   1.134
15930SOL    HW296630   3.143  15.141   1.111
15931SOL     OW96631  14.892  12.025   1.989
15931SOL    HW196632  14.953  11.959   2.032
15931SOL    HW296633  14.798  12.005   2.014
15932SOL     OW96634  16.292  12.724   0.084
15932SOL    HW196635  16.349  12.645   0.104
15932SOL    HW296636  16.273  12.774   0.169
15933SOL     OW96637  16.201  13.959   7.552
15933SOL    HW196638  16.204  13.915   7.462
15933SOL    HW296639  16.278  14.023   7.560
15934SOL     OW96640   1.187   0.399   1.904
15934SOL    HW196641   1.103   0.414   1.955
15934SOL    HW296642   1.265   0.431   1.957
15935SOL     OW96643   2.087  10.687   0.532
15935SOL    HW196644   2.037  10.773   0.520
15935SOL    HW296645   2.028  10.621   0.579
15936SOL     OW96646   7.854  13.013   7.321
15936SOL    HW196647   7.796  12.932   7.317
15936SOL    HW296648   7.863  13.052   7.229
15937SOL     OW96649   5.548   9.463   1.478
15937SOL    HW196650   5.609   9.523   1.427
15937SOL    HW296651   5.550   9.372   1.438
15938SOL     OW96652  11.711   4.683   7.851
15938SOL    HW196653  11.716   4.781   7.831
15938SOL    HW296654  11.803   4.646   7.860
15939SOL     OW96655   1.397  10.160   8.203
15939SOL    HW196656   1.339  10.241   8.202
15939SOL    HW296657   1.481  10.180   8.152
15940SOL     OW96658   1.372   2.323   2.018
15940SOL    HW196659   1.425   2.370   2.088
15940SOL    HW296660   1.285   2.369   2.005
15941SOL     OW96661   9.518  12.506   7.228
15941SOL    HW196662   9.555  12.457   7.148
15941SOL    HW296663   9.445  12.567   7.198
15942SOL     OW96664   1.245   7.145   8.374
15942SOL    HW196665   1.322   7.168   8.314
15942SOL    HW296666   1.245   7.205   8.454
15943SOL     OW96667   8.066   1.707   8.038
15943SOL    HW196668   8.049   1.745   7.947
15943SOL    HW296669   8.164   1.707   8.056
15944SOL     OW96670   6.369  13.920   2.128
15944SOL    HW196671   6.432  13.995   2.109
15944SOL    HW296672   6.420  13.835   2.138
15945SOL     OW96673   5.966   5.760   8.057
15945SOL    HW196674   5.930   5.674   8.095
15945SOL    HW296675   5.958   5.759   7.957
15946SOL     OW96676   1.261   8.050   8.015
15946SOL    HW196677   1.167   8.021   8.030
15946SOL    HW296678   1.281   8.051   7.917
15947SOL     OW96679   0.413   5.402   6.740
15947SOL    HW196680   0.419   5.496   6.772
15947SOL    HW296681   0.457   5.394   6.651
15948SOL     OW96682   3.249  11.961   0.711
15948SOL    HW196683   3.246  11.962   0.811
15948SOL    HW296684   3.194  11.885   0.676
15949SOL     OW96685  16.338  10.467   7.020
15949SOL    HW196686  16.434  10.494   7.028
15949SOL    HW296687  16.317  10.448   6.924
15950SOL     OW96688  11.045   0.159   7.092
15950SOL    HW196689  11.024   0.062   7.101
15950SOL    HW296690  11.104   0.187   7.168
15951SOL     OW96691   8.752   0.187   8.336
15951SOL    HW196692   8.676   0.142   8.381
15951SOL    HW296693   8.731   0.200   8.239
15952SOL     OW96694   7.274   6.028   7.482
15952SOL    HW196695   7.311   6.034   7.575
15952SOL    HW296696   7.181   6.066   7.480
15953SOL     OW96697  13.574  13.429   0.274
15953SOL    HW196698  13.486  13.399   0.238
15953SOL    HW296699  13.634  13.454   0.198
15954SOL     OW96700  12.504   1.255   7.795
15954SOL    HW196701  12.460   1.166   7.802
15954SOL    HW296702  12.453   1.322   7.849
15955SOL     OW96703  10.399  13.529   0.613
15955SOL    HW196704  10.330  13.476   0.661
15955SOL    HW296705  10.446  13.472   0.546
15956SOL     OW96706  16.758   8.728   7.053
15956SOL    HW196707  16.746   8.705   7.149
15956SOL    HW296708  16.834   8.676   7.015
15957SOL     OW96709   0.563   2.140   7.077
15957SOL    HW196710   0.657   2.110   7.058
15957SOL    HW296711   0.528   2.190   6.998
15958SOL     OW96712   3.161   6.455   8.386
15958SOL    HW196713   3.144   6.435   8.290
15958SOL    HW296714   3.074   6.467   8.434
15959SOL     OW96715  16.702   3.431   0.196
15959SOL    HW196716  16.688   3.527   0.173
15959SOL    HW296717  16.699   3.420   0.296
15960SOL     OW96718  15.402   7.435   7.338
15960SOL    HW196719  15.474   7.372   7.368
15960SOL    HW296720  15.316   7.411   7.383
15961SOL     OW96721  10.454   7.952   0.321
15961SOL    HW196722  10.457   8.018   0.396
15961SOL    HW296723  10.452   7.860   0.358
15962SOL     OW96724  13.554   4.641   7.073
15962SOL    HW196725  13.490   4.706   7.031
15962SOL    HW296726  13.554   4.555   7.022
15963SOL     OW96727  13.001   7.623   6.385
15963SOL    HW196728  13.059   7.562   6.439
15963SOL    HW296729  13.057   7.694   6.344
15964SOL     OW96730   9.291   5.380   5.773
15964SOL    HW196731   9.391   5.368   5.775
15964SOL    HW296732   9.249   5.300   5.731
15965SOL     OW96733  16.622   0.865   1.418
15965SOL    HW196734  16.655   0.941   1.361
15965SOL    HW296735  16.680   0.857   1.499
15966SOL     OW96736  11.732   4.169   0.626
15966SOL    HW196737  11.741   4.081   0.672
15966SOL    HW296738  11.635   4.189   0.611
15967SOL     OW96739   8.519   3.474   7.528
15967SOL    HW196740   8.527   3.386   7.480
15967SOL    HW296741   8.423   3.499   7.537
15968SOL     OW96742   5.604   0.774   0.317
15968SOL    HW196743   5.574   0.793   0.410
15968SOL    HW296744   5.651   0.855   0.280
15969SOL     OW96745  13.659   7.855   6.722
15969SOL    HW196746  13.724   7.888   6.653
15969SOL    HW296747  13.625   7.932   6.776
15970SOL     OW96748   5.907  13.877   8.019
15970SOL    HW196749   5.897  13.933   8.102
15970SOL    HW296750   5.901  13.780   8.044
15971SOL     OW96751   9.189  11.939   0.754
15971SOL    HW196752   9.162  12.001   0.680
15971SOL    HW296753   9.108  11.913   0.807
15972SOL     OW96754   5.064  13.142   7.426
15972SOL    HW196755   5.112  13.058   7.450
15972SOL    HW296756   4.965  13.128   7.435
15973SOL     OW96757   7.387  14.597   0.962
15973SOL    HW196758   7.289  14.601   0.940
15973SOL    HW296759   7.423  14.690   0.972
15974SOL     OW96760  11.956   1.787   7.119
15974SOL    HW196761  11.960   1.803   7.218
15974SOL    HW296762  12.019   1.714   7.094
15975SOL     OW96763   0.831   6.713   1.446
15975SOL    HW196764   0.837   6.720   1.545
15975SOL    HW296765   0.832   6.804   1.405
15976SOL     OW96766  10.466   1.694   7.659
15976SOL    HW196767  10.494   1.629   7.589
15976SOL    HW296768  10.412   1.647   7.729
15977SOL     OW96769  12.521   5.171   0.822
15977SOL    HW196770  12.485   5.258   0.790
15977SOL    HW296771  12.453   5.126   0.880
15978SOL     OW96772   8.423   3.883   7.515
15978SOL    HW196773   8.513   3.850   7.546
15978SOL    HW296774   8.376   3.810   7.466
15979SOL     OW96775   1.125  12.370   7.246
15979SOL    HW196776   1.210  12.421   7.233
15979SOL    HW296777   1.055  12.431   7.282
15980SOL     OW96778  15.063   5.480   7.574
15980SOL    HW196779  15.152   5.436   7.563
15980SOL    HW296780  15.009   5.431   7.642
15981SOL     OW96781  13.935  13.719   6.599
15981SOL    HW196782  13.890  13.807   6.589
15981SOL    HW296783  13.877  13.658   6.653
15982SOL     OW96784  16.343   1.072   8.352
15982SOL    HW196785  16.333   0.982   8.311
15982SOL    HW296786  16.434   1.081   8.393
15983SOL     OW96787  13.363  16.041   1.657
15983SOL    HW196788  13.351  15.943   1.674
15983SOL    HW296789  13.445  16.055   1.602
15984SOL     OW96790   7.549   3.340   7.057
15984SOL    HW196791   7.642   3.339   7.021
15984SOL    HW296792   7.533   3.427   7.104
15985SOL     OW96793   9.746   0.041   0.099
15985SOL    HW196794   9.754  16.957   0.172
15985SOL    HW296795   9.651   0.045   0.069
15986SOL     OW96796  16.044  14.348   6.974
15986SOL    HW196797  16.030  14.341   6.875
15986SOL    HW296798  16.070  14.258   7.010
15987SOL     OW96799   0.443   0.350   6.838
15987SOL    HW196800   0.412   0.394   6.754
15987SOL    HW296801   0.509   0.278   6.816
15988SOL     OW96802   7.014  13.117   8.055
15988SOL    HW196803   6.976  13.036   8.010
15988SOL    HW296804   7.047  13.181   7.987
15989SOL     OW96805  10.943   0.546   0.201
15989SOL    HW196806  10.993   0.538   0.114
15989SOL    HW296807  10.848   0.570   0.182
15990SOL     OW96808   2.567   6.033   1.691
15990SOL    HW196809   2.621   5.970   1.748
15990SOL    HW296810   2.480   6.052   1.736
15991SOL     OW96811   7.852   8.507   0.111
15991SOL    HW196812   7.763   8.527   0.152
15991SOL    HW296813   7.843   8.431   0.047
15992SOL     OW96814  13.531   5.025   0.458
15992SOL    HW196815  13.457   5.088   0.436
15992SOL    HW296816  13.542   4.958   0.385
15993SOL     OW96817   3.282  15.965   8.242
15993SOL    HW196818   3.331  15.879   8.260
15993SOL    HW296819   3.222  15.953   8.163
15994SOL     OW96820  14.896  14.005   2.197
15994SOL    HW196821  14.936  14.059   2.271
15994SOL    HW296822  14.806  14.041   2.174
15995SOL     OW96823  11.272   1.588   0.133
15995SOL    HW196824  11.324   1.567   0.215
15995SOL    HW296825  11.244   1.503   0.088
15996SOL     OW96826   7.310   4.322   7.272
15996SOL    HW196827   7.378   4.304   7.201
15996SOL    HW296828   7.225   4.273   7.250
15997SOL     OW96829   6.865   5.527   2.053
15997SOL    HW196830   6.850   5.622   2.080
15997SOL    HW296831   6.940   5.488   2.107
15998SOL     OW96832  11.542   2.112   0.678
15998SOL    HW196833  11.584   2.022   0.694
15998SOL    HW296834  11.614   2.181   0.675
15999SOL     OW96835   9.292  11.186   7.576
15999SOL    HW196836   9.306  11.209   7.480
15999SOL    HW296837   9.320  11.263   7.633
16000SOL     OW96838   9.499   7.956   8.360
16000SOL    HW196839   9.511   7.992   8.453
16000SOL    HW296840   9.585   7.964   8.310
16001SOL     OW96841   6.108   7.889   1.509
16001SOL    HW196842   6.063   7.902   1.421
16001SOL    HW296843   6.054   7.932   1.581
16002SOL     OW96844   7.755  16.638   0.854
16002SOL    HW196845   7.799  16.634   0.764
16002SOL    HW296846   7.747  16.733   0.883
16003SOL     OW96847   0.760  14.840   0.113
16003SOL    HW196848   0.800  14.926   0.079
16003SOL    HW296849   0.674  14.823   0.065
16004SOL     OW96850  10.222   7.982   1.123
16004SOL    HW196851  10.131   8.022   1.131
16004SOL    HW296852  10.275   8.031   1.054
16005SOL     OW96853  15.348  15.347   2.371
16005SOL    HW196854  15.383  15.277   2.433
16005SOL    HW296855  15.321  15.428   2.423
16006SOL     OW96856  11.640   5.002   6.478
16006SOL    HW196857  11.574   4.993   6.553
16006SOL    HW296858  11.651   4.913   6.433
16007SOL     OW96859   6.449   9.475   0.543
16007SOL    HW196860   6.356   9.512   0.541
16007SOL    HW296861   6.470   9.444   0.635
16008SOL     OW96862   5.932   8.674   1.678
16008SOL    HW196863   5.910   8.614   1.756
16008SOL    HW296864   6.030   8.696   1.680
16009SOL     OW96865  14.476  14.875   0.657
16009SOL    HW196866  14.520  14.963   0.638
16009SOL    HW296867  14.546  14.804   0.665
16010SOL     OW96868   2.466   8.285   1.514
16010SOL    HW196869   2.484   8.370   1.464
16010SOL    HW296870   2.506   8.208   1.463
16011SOL     OW96871   6.986   7.228   8.092
16011SOL    HW196872   7.001   7.323   8.064
16011SOL    HW296873   6.914   7.225   8.162
16012SOL     OW96874   3.551  14.831   7.997
16012SOL    HW196875   3.569  14.760   8.065
16012SOL    HW296876   3.510  14.910   8.042
16013SOL     OW96877   9.421   5.868   7.853
16013SOL    HW196878   9.501   5.911   7.896
16013SOL    HW296879   9.357   5.839   7.924
16014SOL     OW96880   2.326   2.640   0.488
16014SOL    HW196881   2.282   2.583   0.556
16014SOL    HW296882   2.286   2.731   0.489
16015SOL     OW96883   1.088   3.646   6.362
16015SOL    HW196884   0.994   3.676   6.374
16015SOL    HW296885   1.116   3.659   6.266
16016SOL     OW96886  14.433   2.813   8.196
16016SOL    HW196887  14.422   2.853   8.105
16016SOL    HW296888  14.506   2.745   8.194
16017SOL     OW96889  15.417  13.441   0.974
16017SOL    HW196890  15.470  13.504   1.031
16017SOL    HW296891  15.452  13.348   0.985
16018SOL     OW96892  12.123  12.802   0.583
16018SOL    HW196893  12.045  12.826   0.525
16018SOL    HW296894  12.166  12.885   0.617
16019SOL     OW96895   3.341   2.855   6.335
16019SOL    HW196896   3.409   2.929   6.333
16019SOL    HW296897   3.386   2.769   6.312
16020SOL     OW96898   1.092   1.287   0.158
16020SOL    HW196899   0.993   1.275   0.150
16020SOL    HW296900   1.136   1.197   0.159
16021SOL     OW96901  10.184   1.519   0.084
16021SOL    HW196902  10.235   1.497   0.167
16021SOL    HW296903  10.248   1.545   0.011
16022SOL     OW96904  10.270  14.248   7.099
16022SOL    HW196905  10.269  14.158   7.143
16022SOL    HW296906  10.365  14.274   7.080
16023SOL     OW96907  12.115   4.122   5.841
16023SOL    HW196908  12.169   4.039   5.830
16023SOL    HW296909  12.043   4.125   5.772
16024SOL     OW96910   9.241   6.088   8.056
16024SOL    HW196911   9.274   6.120   7.968
16024SOL    HW296912   9.243   5.988   8.058
16025SOL     OW96913   6.554  14.574   1.014
16025SOL    HW196914   6.651  14.600   1.014
16025SOL    HW296915   6.507  14.625   0.942
16026SOL     OW96916   0.093   3.025   0.538
16026SOL    HW196917   0.184   3.064   0.553
16026SOL    HW296918   0.059   3.052   0.448
16027SOL     OW96919   9.059   0.411   8.021
16027SOL    HW196920   9.057   0.314   7.999
16027SOL    HW296921   9.002   0.428   8.101
16028SOL     OW96922  16.972   7.185   2.094
16028SOL    HW196923   0.025   7.095   2.070
16028SOL    HW296924  16.901   7.174   2.164
16029SOL     OW96925  14.158   7.971   6.640
16029SOL    HW196926  14.110   7.977   6.553
16029SOL    HW296927  14.175   8.063   6.675
16030SOL     OW96928   5.079   1.750   0.478
16030SOL    HW196929   4.981   1.733   0.489
16030SOL    HW296930   5.111   1.705   0.394
16031SOL     OW96931   7.610  13.316   1.215
16031SOL    HW196932   7.585  13.220   1.227
16031SOL    HW296933   7.659  13.327   1.128
16032SOL     OW96934   0.450   7.920   0.595
16032SOL    HW196935   0.509   7.972   0.533
16032SOL    HW296936   0.388   7.862   0.542
16033SOL     OW96937  10.756   9.781   7.491
16033SOL    HW196938  10.739   9.830   7.577
16033SOL    HW296939  10.853   9.759   7.484
16034SOL     OW96940   3.228   0.051   8.080
16034SOL    HW196941   3.283   0.133   8.095
16034SOL    HW296942   3.162   0.068   8.006
16035SOL     OW96943   9.790   5.388   0.931
16035SOL    HW196944   9.856   5.315   0.916
16035SOL    HW296945   9.824   5.472   0.888
16036SOL     OW96946  14.750   9.639   0.848
16036SOL    HW196947  14.845   9.628   0.816
16036SOL    HW296948  14.688   9.601   0.779
16037SOL     OW96949  16.654   7.236   6.423
16037SOL    HW196950  16.722   7.166   6.445
16037SOL    HW296951  16.564   7.206   6.455
16038SOL     OW96952  11.590   0.224   1.749
16038SOL    HW196953  11.569   0.293   1.680
16038SOL    HW296954  11.581   0.264   1.841
16039SOL     OW96955   4.752   6.198   7.623
16039SOL    HW196956   4.833   6.210   7.680
16039SOL    HW296957   4.743   6.276   7.561
16040SOL     OW96958   1.733  16.142   8.369
16040SOL    HW196959   1.713  16.225   8.420
16040SOL    HW296960   1.700  16.062   8.420
16041SOL     OW96961   5.966  12.631   1.436
16041SOL    HW196962   6.022  12.650   1.517
16041SOL    HW296963   6.016  12.573   1.373
16042SOL     OW96964  15.626   7.714   1.164
16042SOL    HW196965  15.543   7.690   1.214
16042SOL    HW296966  15.636   7.653   1.085
16043SOL     OW96967   0.958   5.218   7.047
16043SOL    HW196968   0.966   5.150   6.974
16043SOL    HW296969   1.013   5.190   7.125
16044SOL     OW96970   4.933   0.743   6.959
16044SOL    HW196971   4.989   0.793   6.894
16044SOL    HW296972   4.839   0.779   6.958
16045SOL     OW96973   0.388  14.704   1.360
16045SOL    HW196974   0.455  14.661   1.299
16045SOL    HW296975   0.342  14.779   1.312
16046SOL     OW96976  15.720  12.164   7.430
16046SOL    HW196977  15.799  12.160   7.367
16046SOL    HW296978  15.652  12.227   7.394
16047SOL     OW96979   9.663   8.386   1.463
16047SOL    HW196980   9.746   8.427   1.502
16047SOL    HW296981   9.623   8.449   1.397
16048SOL     OW96982   6.254   9.443   1.158
16048SOL    HW196983   6.285   9.348   1.154
16048SOL    HW296984   6.332   9.504   1.164
16049SOL     OW96985  12.252  16.615   7.143
16049SOL    HW196986  12.325  16.575   7.198
16049SOL    HW296987  12.251  16.714   7.157
16050SOL     OW96988   8.022  13.492   0.944
16050SOL    HW196989   8.024  13.519   0.848
16050SOL    HW296990   7.935  13.446   0.964
16051SOL     OW96991   0.610   3.819   8.115
16051SOL    HW196992   0.661   3.768   8.185
16051SOL    HW296993   0.583   3.907   8.153
16052SOL     OW96994  14.959   5.506   8.011
16052SOL    HW196995  14.969   5.482   8.108
16052SOL    HW296996  14.891   5.579   8.002
16053SOL     OW96997  16.948   3.754   0.075
16053SOL    HW196998  16.855   3.741   0.109
16053SOL    HW296999  16.945   3.790   8.436
16054SOL     OW97000  10.641   3.588   5.981
16054SOL    HW197001  10.555   3.579   5.931
16054SOL    HW297002  10.717   3.556   5.925
16055SOL     OW97003  10.534   0.144   0.995
16055SOL    HW197004  10.601   0.202   1.042
16055SOL    HW297005  10.443   0.186   1.002
16056SOL     OW97006   6.922  12.367   7.661
16056SOL    HW197007   7.019  12.376   7.636
16056SOL    HW297008   6.867  12.422   7.599
16057SOL     OW97009   2.485   4.363   0.866
16057SOL    HW197010   2.474   4.351   0.964
16057SOL    HW297011   2.469   4.459   0.842
16058SOL     OW97012  16.970   8.145   8.183
16058SOL    HW197013  16.968   8.112   8.278
16058SOL    HW297014  16.934   8.238   8.180
16059SOL     OW97015   3.554  13.351   0.869
16059SOL    HW197016   3.474  13.409   0.850
16059SOL    HW297017   3.588  13.313   0.783
16060SOL     OW97018   4.318  15.092   7.449
16060SOL    HW197019   4.376  15.028   7.399
16060SOL    HW297020   4.222  15.076   7.425
16061SOL     OW97021  11.641  14.581   0.659
16061SOL    HW197022  11.627  14.664   0.713
16061SOL    HW297023  11.611  14.501   0.712
16062SOL     OW97024   8.054  16.007   0.594
16062SOL    HW197025   8.113  16.034   0.670
16062SOL    HW297026   8.036  16.086   0.536
16063SOL     OW97027  13.520   1.501   7.301
16063SOL    HW197028  13.524   1.473   7.205
16063SOL    HW297029  13.453   1.575   7.311
16064SOL     OW97030   2.293  12.433   2.239
16064SOL    HW197031   2.360  12.363   2.264
16064SOL    HW297032   2.257  12.414   2.148
16065SOL     OW97033   9.786   3.491   6.956
16065SOL    HW197034   9.802   3.582   6.917
16065SOL    HW297035   9.715   3.497   7.026
16066SOL     OW97036   4.544   3.367   0.259
16066SOL    HW197037   4.550   3.422   0.176
16066SOL    HW297038   4.572   3.423   0.337
16067SOL     OW97039   1.043   2.014   1.212
16067SOL    HW197040   0.978   1.950   1.171
16067SOL    HW297041   0.998   2.101   1.230
16068SOL     OW97042  15.307   3.586   8.403
16068SOL    HW197043  15.237   3.571   0.020
16068SOL    HW297044  15.306   3.510   8.339
16069SOL     OW97045   7.292   1.072   7.354
16069SOL    HW197046   7.243   1.159   7.354
16069SOL    HW297047   7.345   1.063   7.438
16070SOL     OW97048   7.739   8.155   7.528
16070SOL    HW197049   7.738   8.056   7.515
16070SOL    HW297050   7.822   8.182   7.577
16071SOL     OW97051   6.463   8.052   0.692
16071SOL    HW197052   6.457   8.032   0.790
16071SOL    HW297053   6.371   8.052   0.653
16072SOL     OW97054   2.748   9.445   7.539
16072SOL    HW197055   2.668   9.418   7.593
16072SOL    HW297056   2.804   9.365   7.520
16073SOL     OW97057  10.189  14.322   0.513
16073SOL    HW197058  10.159  14.265   0.436
16073SOL    HW297059  10.164  14.278   0.599
16074SOL     OW97060  12.540   2.998   7.463
16074SOL    HW197061  12.506   2.923   7.520
16074SOL    HW297062  12.609   3.050   7.514
16075SOL     OW97063  15.534   1.840   1.208
16075SOL    HW197064  15.574   1.881   1.290
16075SOL    HW297065  15.553   1.897   1.128
16076SOL     OW97066  13.543   2.414   1.078
16076SOL    HW197067  13.555   2.453   1.169
16076SOL    HW297068  13.445   2.402   1.059
16077SOL     OW97069  13.510   2.537   0.657
16077SOL    HW197070  13.572   2.513   0.732
16077SOL    HW297071  13.452   2.458   0.635
16078SOL     OW97072   1.399  15.466   1.776
16078SOL    HW197073   1.453  15.506   1.851
16078SOL    HW297074   1.303  15.458   1.805
16079SOL     OW97075  15.788   9.689   0.234
16079SOL    HW197076  15.735   9.736   0.163
16079SOL    HW297077  15.885   9.692   0.211
16080SOL     OW97078  15.373   4.805   0.280
16080SOL    HW197079  15.433   4.750   0.338
16080SOL    HW297080  15.412   4.896   0.268
16081SOL     OW97081  14.399   9.816   2.389
16081SOL    HW197082  14.347   9.757   2.450
16081SOL    HW297083  14.387   9.912   2.417
16082SOL     OW97084   2.492   0.462   8.133
16082SOL    HW197085   2.576   0.512   8.153
16082SOL    HW297086   2.421   0.526   8.103
16083SOL     OW97087  11.323  12.908   7.167
16083SOL    HW197088  11.373  12.880   7.248
16083SOL    HW297089  11.293  12.827   7.117
16084SOL     OW97090   6.977   6.222   7.809
16084SOL    HW197091   7.072   6.220   7.841
16084SOL    HW297092   6.939   6.313   7.821
16085SOL     OW97093   4.755  12.442   1.393
16085SOL    HW197094   4.681  12.392   1.438
16085SOL    HW297095   4.803  12.499   1.459
16086SOL     OW97096   5.870  11.743   8.344
16086SOL    HW197097   5.833  11.652   8.366
16086SOL    HW297098   5.952  11.760   8.398
16087SOL     OW97099  14.289   1.245   7.610
16087SOL    HW197100  14.386   1.253   7.634
16087SOL    HW297101  14.265   1.148   7.599
16088SOL     OW97102  11.239  10.174   6.994
16088SOL    HW197103  11.272  10.249   6.937
16088SOL    HW297104  11.157  10.203   7.044
16089SOL     OW97105   3.091   4.978   1.149
16089SOL    HW197106   3.049   4.910   1.088
16089SOL    HW297107   3.038   5.062   1.146
16090SOL     OW97108   8.129   2.968   6.774
16090SOL    HW197109   8.068   2.991   6.699
16090SOL    HW297110   8.075   2.942   6.854
16091SOL     OW97111  15.483   4.107   8.204
16091SOL    HW197112  15.461   4.114   8.301
16091SOL    HW297113  15.458   4.016   8.170
16092SOL     OW97114   9.502   5.866   8.175
16092SOL    HW197115   9.552   5.927   8.115
16092SOL    HW297116   9.406   5.863   8.148
16093SOL     OW97117  11.296  16.497   6.621
16093SOL    HW197118  11.312  16.590   6.587
16093SOL    HW297119  11.306  16.431   6.547
16094SOL     OW97120  13.830   4.131   7.463
16094SOL    HW197121  13.888   4.064   7.510
16094SOL    HW297122  13.747   4.086   7.430
16095SOL     OW97123   1.202  16.427   8.069
16095SOL    HW197124   1.275  16.367   8.035
16095SOL    HW297125   1.136  16.373   8.120
16096SOL     OW97126  16.873   1.670   1.104
16096SOL    HW197127  16.938   1.617   1.158
16096SOL    HW297128  16.900   1.668   1.007
16097SOL     OW97129   7.638   3.833   7.111
16097SOL    HW197130   7.609   3.841   7.016
16097SOL    HW297131   7.621   3.919   7.159
16098SOL     OW97132  12.334   1.071   0.747
16098SOL    HW197133  12.427   1.074   0.712
16098SOL    HW297134  12.284   0.997   0.702
16099SOL     OW97135   8.263  16.828   0.185
16099SOL    HW197136   8.256  16.907   0.124
16099SOL    HW297137   8.320  16.758   0.142
16100SOL     OW97138   3.673   8.998   1.488
16100SOL    HW197139   3.724   8.932   1.432
16100SOL    HW297140   3.734   9.038   1.557
16101SOL     OW97141  16.437  12.013   6.915
16101SOL    HW197142  16.340  11.997   6.893
16101SOL    HW297143  16.443  12.061   7.002
16102SOL     OW97144  11.538   8.279   1.459
16102SOL    HW197145  11.478   8.352   1.428
16102SOL    HW297146  11.512   8.251   1.552
16103SOL     OW97147  11.823  13.809   1.021
16103SOL    HW197148  11.910  13.769   1.050
16103SOL    HW297149  11.839  13.876   0.949
16104SOL     OW97150  14.022   3.679   7.525
16104SOL    HW197151  14.118   3.686   7.498
16104SOL    HW297152  13.988   3.770   7.549
16105SOL     OW97153   7.259   6.383   5.782
16105SOL    HW197154   7.241   6.472   5.742
16105SOL    HW297155   7.177   6.326   5.775
16106SOL     OW97156  12.553  13.838   1.548
16106SOL    HW197157  12.503  13.766   1.501
16106SOL    HW297158  12.649  13.811   1.557
16107SOL     OW97159   7.373   3.024   8.142
16107SOL    HW197160   7.411   3.111   8.112
16107SOL    HW297161   7.366   2.961   8.064
16108SOL     OW97162   4.506  15.287   1.762
16108SOL    HW197163   4.406  15.292   1.756
16108SOL    HW297164   4.545  15.371   1.724
16109SOL     OW97165   9.298   2.833   0.306
16109SOL    HW197166   9.389   2.798   0.282
16109SOL    HW297167   9.293   2.849   0.404
16110SOL     OW97168   0.176   6.742   7.247
16110SOL    HW197169   0.174   6.645   7.222
16110SOL    HW297170   0.143   6.752   7.341
16111SOL     OW97171  14.942  10.031   8.444
16111SOL    HW197172  14.979   9.989   0.073
16111SOL    HW297173  14.899  10.118   0.014
16112SOL     OW97174   4.145   7.866   0.202
16112SOL    HW197175   4.166   7.826   0.113
16112SOL    HW297176   4.199   7.949   0.215
16113SOL     OW97177   8.107   3.055   7.070
16113SOL    HW197178   8.008   3.062   7.060
16113SOL    HW297179   8.150   3.142   7.044
16114SOL     OW97180   9.981   6.193   1.591
16114SOL    HW197181   9.909   6.243   1.637
16114SOL    HW297182   9.978   6.096   1.618
16115SOL     OW97183  15.954   6.503   0.415
16115SOL    HW197184  16.005   6.588   0.399
16115SOL    HW297185  15.981   6.435   0.347
16116SOL     OW97186  16.356   6.206   7.091
16116SOL    HW197187  16.359   6.267   7.171
16116SOL    HW297188  16.376   6.113   7.119
16117SOL     OW97189   1.722   0.716   7.649
16117SOL    HW197190   1.739   0.770   7.567
16117SOL    HW297191   1.734   0.619   7.628
16118SOL     OW97192  16.643  14.913   6.556
16118SOL    HW197193  16.731  14.954   6.579
16118SOL    HW297194  16.627  14.834   6.615
16119SOL     OW97195   1.731  14.776   8.007
16119SOL    HW197196   1.677  14.734   8.079
16119SOL    HW297197   1.694  14.750   7.917
16120SOL     OW97198   5.300  13.090   1.119
16120SOL    HW197199   5.351  13.145   1.053
16120SOL    HW297200   5.341  13.101   1.209
16121SOL     OW97201   7.525  12.966   0.082
16121SOL    HW197202   7.615  12.953   0.124
16121SOL    HW297203   7.511  12.897   0.010
16122SOL     OW97204   9.357  13.036   0.752
16122SOL    HW197205   9.374  13.133   0.771
16122SOL    HW297206   9.430  12.980   0.791
16123SOL     OW97207   3.803   0.302   7.866
16123SOL    HW197208   3.783   0.361   7.787
16123SOL    HW297209   3.873   0.346   7.923
16124SOL     OW97210   7.741   3.322   0.648
16124SOL    HW197211   7.673   3.306   0.577
16124SOL    HW297212   7.825   3.271   0.626
16125SOL     OW97213   0.122   2.510   8.306
16125SOL    HW197214   0.106   2.545   8.214
16125SOL    HW297215   0.067   2.428   8.321
16126SOL     OW97216   4.125   7.111   7.736
16126SOL    HW197217   4.082   7.143   7.821
16126SOL    HW297218   4.219   7.146   7.731
16127SOL     OW97219  12.416  13.349   8.315
16127SOL    HW197220  12.404  13.434   8.366
16127SOL    HW297221  12.513  13.328   8.308
16128SOL     OW97222   3.124   2.207   1.513
16128SOL    HW197223   3.113   2.191   1.611
16128SOL    HW297224   3.044   2.171   1.465
16129SOL     OW97225   2.728   3.835   1.380
16129SOL    HW197226   2.696   3.929   1.379
16129SOL    HW297227   2.714   3.795   1.471
16130SOL     OW97228   3.861   6.592   0.649
16130SOL    HW197229   3.948   6.548   0.669
16130SOL    HW297230   3.799   6.583   0.727
16131SOL     OW97231   2.555   7.537   0.380
16131SOL    HW197232   2.590   7.570   0.468
16131SOL    HW297233   2.524   7.614   0.325
16132SOL     OW97234   5.620   9.840   0.950
16132SOL    HW197235   5.712   9.879   0.961
16132SOL    HW297236   5.557   9.912   0.921
16133SOL     OW97237   2.371  16.674   7.618
16133SOL    HW197238   2.334  16.608   7.553
16133SOL    HW297239   2.459  16.642   7.653
16134SOL     OW97240   3.136   6.591   7.551
16134SOL    HW197241   3.065   6.644   7.598
16134SOL    HW297242   3.216   6.648   7.535
16135SOL     OW97243   3.159   5.514   7.754
16135SOL    HW197244   3.113   5.481   7.837
16135SOL    HW297245   3.251   5.476   7.750
16136SOL     OW97246  12.430   3.705   1.288
16136SOL    HW197247  12.492   3.632   1.315
16136SOL    HW297248  12.482   3.789   1.272
16137SOL     OW97249   0.077   5.421   7.802
16137SOL    HW197250  16.980   5.425   7.743
16137SOL    HW297251   0.148   5.366   7.757
16138SOL     OW97252   1.497  12.828   0.963
16138SOL    HW197253   1.524  12.921   0.939
16138SOL    HW297254   1.403  12.827   0.996
16139SOL     OW97255   6.757   4.968   1.142
16139SOL    HW197256   6.762   5.064   1.115
16139SOL    HW297257   6.808   4.912   1.077
16140SOL     OW97258   9.819   8.743   7.410
16140SOL    HW197259   9.751   8.812   7.386
16140SOL    HW297260   9.813   8.722   7.507
16141SOL     OW97261   5.572  13.267   1.853
16141SOL    HW197262   5.628  13.223   1.923
16141SOL    HW297263   5.492  13.308   1.895
16142SOL     OW97264   6.232  14.322   0.796
16142SOL    HW197265   6.268  14.406   0.753
16142SOL    HW297266   6.134  14.331   0.809
16143SOL     OW97267  11.463   7.553   7.337
16143SOL    HW197268  11.381   7.548   7.394
16143SOL    HW297269  11.438   7.558   7.241
16144SOL     OW97270  14.776   0.753   2.009
16144SOL    HW197271  14.771   0.653   2.000
16144SOL    HW297272  14.718   0.782   2.085
16145SOL     OW97273  12.247   5.174   5.456
16145SOL    HW197274  12.291   5.251   5.410
16145SOL    HW297275  12.187   5.208   5.529
16146SOL     OW97276  12.873   6.262   8.380
16146SOL    HW197277  12.843   6.207   0.004
16146SOL    HW297278  12.800   6.266   8.312
16147SOL     OW97279   0.534  13.753   2.761
16147SOL    HW197280   0.559  13.850   2.757
16147SOL    HW297281   0.452  13.741   2.816
16148SOL     OW97282   5.110   3.328   1.416
16148SOL    HW197283   5.159   3.338   1.329
16148SOL    HW297284   5.039   3.398   1.422
16149SOL     OW97285  11.259   5.948   0.859
16149SOL    HW197286  11.348   5.991   0.870
16149SOL    HW297287  11.199   6.009   0.807
16150SOL     OW97288  16.501   6.604   1.750
16150SOL    HW197289  16.498   6.505   1.737
16150SOL    HW297290  16.425   6.646   1.701
16151SOL     OW97291   8.879  14.850   6.359
16151SOL    HW197292   8.867  14.931   6.303
16151SOL    HW297293   8.827  14.774   6.318
16152SOL     OW97294  16.469   9.137   0.868
16152SOL    HW197295  16.508   9.056   0.912
16152SOL    HW297296  16.370   9.136   0.877
16153SOL     OW97297   8.360   9.829   0.779
16153SOL    HW197298   8.337   9.832   0.681
16153SOL    HW297299   8.352   9.735   0.812
16154SOL     OW97300  10.384   3.484   6.565
16154SOL    HW197301  10.421   3.394   6.541
16154SOL    HW297302  10.425   3.553   6.506
16155SOL     OW97303   2.610   2.169   0.498
16155SOL    HW197304   2.631   2.164   0.596
16155SOL    HW297305   2.695   2.186   0.447
16156SOL     OW97306   3.645   4.306   0.875
16156SOL    HW197307   3.656   4.402   0.900
16156SOL    HW297308   3.728   4.256   0.900
16157SOL     OW97309  14.732  11.960   6.662
16157SOL    HW197310  14.729  11.903   6.580
16157SOL    HW297311  14.650  11.944   6.716
16158SOL     OW97312  12.482   5.187   0.006
16158SOL    HW197313  12.448   5.280   8.451
16158SOL    HW297314  12.534   5.178   0.091
16159SOL     OW97315   7.164  14.766   0.697
16159SOL    HW197316   7.094  14.746   0.629
16159SOL    HW297317   7.149  14.709   0.778
16160SOL     OW97318   1.292   4.468   0.085
16160SOL    HW197319   1.317   4.554   0.130
16160SOL    HW297320   1.358   4.397   0.110
16161SOL     OW97321   0.551  13.913   1.150
16161SOL    HW197322   0.619  13.930   1.221
16161SOL    HW297323   0.499  13.997   1.132
16162SOL     OW97324  10.981  13.080   0.616
16162SOL    HW197325  10.947  13.065   0.523
16162SOL    HW297326  11.069  13.034   0.627
16163SOL     OW97327  12.413  15.599   7.910
16163SOL    HW197328  12.482  15.540   7.867
16163SOL    HW297329  12.347  15.628   7.842
16164SOL     OW97330   8.911   5.760   7.673
16164SOL    HW197331   8.964   5.772   7.590
16164SOL    HW297332   8.823   5.718   7.651
16165SOL     OW97333   2.094  15.161   7.445
16165SOL    HW197334   2.057  15.177   7.536
16165SOL    HW297335   2.133  15.247   7.410
16166SOL     OW97336   1.715  15.360   8.310
16166SOL    HW197337   1.810  15.389   8.312
16166SOL    HW297338   1.711  15.260   8.311
16167SOL     OW97339   8.893  12.375   7.627
16167SOL    HW197340   8.839  12.453   7.660
16167SOL    HW297341   8.983  12.377   7.670
16168SOL     OW97342  16.012   5.363   6.009
16168SOL    HW197343  16.003   5.459   5.982
16168SOL    HW297344  15.980   5.304   5.935
16169SOL     OW97345  11.359  16.103   1.254
16169SOL    HW197346  11.315  16.094   1.165
16169SOL    HW297347  11.459  16.098   1.242
16170SOL     OW97348   8.810  11.235   7.657
16170SOL    HW197349   8.883  11.269   7.717
16170SOL    HW297350   8.801  11.136   7.669
16171SOL     OW97351  13.439  11.979   1.617
16171SOL    HW197352  13.502  11.920   1.666
16171SOL    HW297353  13.377  12.024   1.681
16172SOL     OW97354   3.287   4.969   1.636
16172SOL    HW197355   3.207   4.994   1.691
16172SOL    HW297356   3.262   4.970   1.539
16173SOL     OW97357   4.714   8.129   1.826
16173SOL    HW197358   4.772   8.192   1.775
16173SOL    HW297359   4.716   8.152   1.923
16174SOL     OW97360   0.664   1.908   7.817
16174SOL    HW197361   0.705   1.998   7.803
16174SOL    HW297362   0.708   1.862   7.894
16175SOL     OW97363  11.747  14.483   1.858
16175SOL    HW197364  11.748  14.583   1.865
16175SOL    HW297365  11.754  14.443   1.949
16176SOL     OW97366   1.984   2.537   7.343
16176SOL    HW197367   1.923   2.457   7.334
16176SOL    HW297368   1.994   2.581   7.254
16177SOL     OW97369   2.849  15.214   7.616
16177SOL    HW197370   2.856  15.218   7.715
16177SOL    HW297371   2.753  15.223   7.589
16178SOL     OW97372  12.793   2.639   0.271
16178SOL    HW197373  12.891   2.623   0.278
16178SOL    HW297374  12.777   2.737   0.257
16179SOL     OW97375   5.720   3.921   1.093
16179SOL    HW197376   5.705   4.015   1.124
16179SOL    HW297377   5.817   3.900   1.093
16180SOL     OW97378  16.797   7.863   1.085
16180SOL    HW197379  16.871   7.894   1.145
16180SOL    HW297380  16.728   7.815   1.139
16181SOL     OW97381  16.178  10.533   7.935
16181SOL    HW197382  16.246  10.517   8.006
16181SOL    HW297383  16.185  10.628   7.903
16182SOL     OW97384   7.128   5.828   1.348
16182SOL    HW197385   7.189   5.751   1.367
16182SOL    HW297386   7.034   5.800   1.365
16183SOL     OW97387   4.321   0.642   1.559
16183SOL    HW197388   4.402   0.698   1.538
16183SOL    HW297389   4.323   0.560   1.502
16184SOL     OW97390   4.111   9.383   6.332
16184SOL    HW197391   4.054   9.432   6.266
16184SOL    HW297392   4.174   9.447   6.376
16185SOL     OW97393  15.237   4.328   8.350
16185SOL    HW197394  15.219   4.423   8.374
16185SOL    HW297395  15.278   4.324   8.259
16186SOL     OW97396  12.736   5.294   1.958
16186SOL    HW197397  12.713   5.384   1.922
16186SOL    HW297398  12.654   5.251   1.995
16187SOL     OW97399   3.236   6.286   0.148
16187SOL    HW197400   3.184   6.343   0.210
16187SOL    HW297401   3.243   6.331   0.059
16188SOL     OW97402   5.909  14.191   7.830
16188SOL    HW197403   5.899  14.210   7.733
16188SOL    HW297404   5.966  14.110   7.843
16189SOL     OW97405   9.990  15.182   0.075
16189SOL    HW197406  10.088  15.180   0.056
16189SOL    HW297407   9.972  15.143   0.165
16190SOL     OW97408  13.335  10.617   1.774
16190SOL    HW197409  13.238  10.592   1.779
16190SOL    HW297410  13.366  10.648   1.863
16191SOL     OW97411  15.347   4.423   1.271
16191SOL    HW197412  15.357   4.462   1.179
16191SOL    HW297413  15.251   4.404   1.289
16192SOL     OW97414  12.426  12.351   6.657
16192SOL    HW197415  12.470  12.431   6.615
16192SOL    HW297416  12.389  12.292   6.585
16193SOL     OW97417   6.940   0.998   7.205
16193SOL    HW197418   6.992   1.011   7.289
16193SOL    HW297419   6.862   0.938   7.223
16194SOL     OW97420  10.067   7.775   0.964
16194SOL    HW197421  10.147   7.796   1.020
16194SOL    HW297422   9.985   7.809   1.010
16195SOL     OW97423  15.034   8.378   1.649
16195SOL    HW197424  15.003   8.341   1.561
16195SOL    HW297425  14.998   8.321   1.723
16196SOL     OW97426   9.145   3.909   6.209
16196SOL    HW197427   9.116   3.950   6.296
16196SOL    HW297428   9.239   3.877   6.217
16197SOL     OW97429  11.586   8.784   7.156
16197SOL    HW197430  11.651   8.760   7.084
16197SOL    HW297431  11.496   8.747   7.134
16198SOL     OW97432   6.787  10.245   7.243
16198SOL    HW197433   6.826  10.295   7.319
16198SOL    HW297434   6.858  10.222   7.177
16199SOL     OW97435  10.573   0.348   7.282
16199SOL    HW197436  10.544   0.307   7.369
16199SOL    HW297437  10.655   0.303   7.249
16200SOL     OW97438  16.304  10.192   7.546
16200SOL    HW197439  16.254  10.115   7.585
16200SOL    HW297440  16.402  10.177   7.556
16201SOL     OW97441  16.406  16.116   6.933
16201SOL    HW197442  16.415  16.210   6.900
16201SOL    HW297443  16.342  16.066   6.874
16202SOL     OW97444  15.524  10.704   1.648
16202SOL    HW197445  15.512  10.764   1.727
16202SOL    HW297446  15.617  10.666   1.648
16203SOL     OW97447  16.692   6.052   7.964
16203SOL    HW197448  16.689   6.096   7.874
16203SOL    HW297449  16.749   6.107   8.025
16204SOL     OW97450   2.505  12.953   1.352
16204SOL    HW197451   2.483  12.861   1.318
16204SOL    HW297452   2.422  13.008   1.354
16205SOL     OW97453   6.403   0.872   1.302
16205SOL    HW197454   6.453   0.893   1.385
16205SOL    HW297455   6.412   0.775   1.281
16206SOL     OW97456   3.517   8.471   6.716
16206SOL    HW197457   3.436   8.489   6.662
16206SOL    HW297458   3.599   8.500   6.666
16207SOL     OW97459   6.616  15.471   2.203
16207SOL    HW197460   6.605  15.542   2.273
16207SOL    HW297461   6.713  15.446   2.196
16208SOL     OW97462   5.739  13.965   1.478
16208SOL    HW197463   5.828  13.930   1.506
16208SOL    HW297464   5.746  14.063   1.458
16209SOL     OW97465  10.921  11.562   7.210
16209SOL    HW197466  10.980  11.611   7.146
16209SOL    HW297467  10.885  11.479   7.165
16210SOL     OW97468   3.158  11.612   6.974
16210SOL    HW197469   3.061  11.609   6.949
16210SOL    HW297470   3.196  11.519   6.970
16211SOL     OW97471  10.430  14.466   6.833
16211SOL    HW197472  10.489  14.432   6.760
16211SOL    HW297473  10.334  14.456   6.806
16212SOL     OW97474  11.960  13.392   8.401
16212SOL    HW197475  11.882  13.329   8.399
16212SOL    HW297476  11.943  13.468   8.337
16213SOL     OW97477   8.341   2.709   1.474
16213SOL    HW197478   8.391   2.793   1.496
16213SOL    HW297479   8.406   2.634   1.464
16214SOL     OW97480   4.336  16.800   0.663
16214SOL    HW197481   4.282  16.719   0.687
16214SOL    HW297482   4.275  16.873   0.631
16215SOL     OW97483  16.480  12.479   6.239
16215SOL    HW197484  16.481  12.568   6.193
16215SOL    HW297485  16.559  12.426   6.211
16216SOL     OW97486   5.425   2.466   0.610
16216SOL    HW197487   5.373   2.543   0.648
16216SOL    HW297488   5.422   2.471   0.510
16217SOL     OW97489   3.327  10.693   1.665
16217SOL    HW197490   3.305  10.746   1.747
16217SOL    HW297491   3.423  10.666   1.668
16218SOL     OW97492   7.041  13.358   1.901
16218SOL    HW197493   7.052  13.259   1.914
16218SOL    HW297494   6.967  13.391   1.960
16219SOL     OW97495  12.588   0.012   8.070
16219SOL    HW197496  12.666  16.944   8.103
16219SOL    HW297497  12.617   0.104   8.043
16220SOL     OW97498   6.064  12.015   0.834
16220SOL    HW197499   6.058  11.984   0.739
16220SOL    HW297500   6.160  12.020   0.861
16221SOL     OW97501   7.738   2.552   0.292
16221SOL    HW197502   7.825   2.552   0.243
16221SOL    HW297503   7.754   2.527   0.388
16222SOL     OW97504  15.055   1.361   0.360
16222SOL    HW197505  14.994   1.285   0.339
16222SOL    HW297506  15.006   1.447   0.347
16223SOL     OW97507  15.700   9.596   7.392
16223SOL    HW197508  15.715   9.580   7.490
16223SOL    HW297509  15.787   9.587   7.344
16224SOL     OW97510  13.786   7.210   6.692
16224SOL    HW197511  13.748   7.269   6.620
16224SOL    HW297512  13.835   7.267   6.758
16225SOL     OW97513   5.942   7.587   1.244
16225SOL    HW197514   5.912   7.497   1.215
16225SOL    HW297515   5.864   7.640   1.276
16226SOL     OW97516   3.082   6.467   0.287
16226SOL    HW197517   3.122   6.558   0.300
16226SOL    HW297518   3.016   6.470   0.212
16227SOL     OW97519   8.730   3.551   6.445
16227SOL    HW197520   8.728   3.650   6.456
16227SOL    HW297521   8.643   3.520   6.407
16228SOL     OW97522  15.208   9.301   0.481
16228SOL    HW197523  15.163   9.306   0.570
16228SOL    HW297524  15.238   9.393   0.453
16229SOL     OW97525  11.824   1.146   8.005
16229SOL    HW197526  11.825   1.124   8.103
16229SOL    HW297527  11.730   1.142   7.971
16230SOL     OW97528  10.780   6.094   7.595
16230SOL    HW197529  10.688   6.089   7.635
16230SOL    HW297530  10.775   6.080   7.497
16231SOL     OW97531   1.549   8.226   2.252
16231SOL    HW197532   1.504   8.137   2.246
16231SOL    HW297533   1.479   8.298   2.254
16232SOL     OW97534   1.778  16.040   7.772
16232SOL    HW197535   1.682  16.065   7.772
16232SOL    HW297536   1.815  16.047   7.865
16233SOL     OW97537   4.369   6.207   0.370
16233SOL    HW197538   4.372   6.112   0.400
16233SOL    HW297539   4.348   6.266   0.448
16234SOL     OW97540  15.224  16.910   0.396
16234SOL    HW197541  15.302  16.856   0.364
16234SOL    HW297542  15.142  16.853   0.396
16235SOL     OW97543  10.452   0.921   0.837
16235SOL    HW197544  10.420   0.867   0.760
16235SOL    HW297545  10.375   0.972   0.877
16236SOL     OW97546  16.583  13.349   1.889
16236SOL    HW197547  16.665  13.404   1.874
16236SOL    HW297548  16.552  13.362   1.983
16237SOL     OW97549   6.736   5.353   1.385
16237SOL    HW197550   6.802   5.363   1.459
16237SOL    HW297551   6.651   5.317   1.422
16238SOL     OW97552  15.042  13.596   2.014
16238SOL    HW197553  15.011  13.627   2.104
16238SOL    HW297554  15.015  13.663   1.945
16239SOL     OW97555   3.328  11.622   0.256
16239SOL    HW197556   3.365  11.625   0.349
16239SOL    HW297557   3.297  11.713   0.228
16240SOL     OW97558   0.463   7.368   6.923
16240SOL    HW197559   0.438   7.464   6.931
16240SOL    HW297560   0.533   7.357   6.853
16241SOL     OW97561  16.735  12.241   6.575
16241SOL    HW197562  16.666  12.289   6.520
16241SOL    HW297563  16.807  12.207   6.515
16242SOL     OW97564   9.684   6.419   6.399
16242SOL    HW197565   9.715   6.349   6.335
16242SOL    HW297566   9.681   6.507   6.352
16243SOL     OW97567  14.593  16.466   0.688
16243SOL    HW197568  14.494  16.470   0.675
16243SOL    HW297569  14.621  16.535   0.754
16244SOL     OW97570   7.768   6.941   0.162
16244SOL    HW197571   7.856   6.917   0.120
16244SOL    HW297572   7.781   7.015   0.228
16245SOL     OW97573   0.719   7.324   7.202
16245SOL    HW197574   0.623   7.302   7.187
16245SOL    HW297575   0.730   7.422   7.216
16246SOL     OW97576   7.151  13.644   0.329
16246SOL    HW197577   7.240  13.634   0.285
16246SOL    HW297578   7.159  13.627   0.427
16247SOL     OW97579   7.068   4.202   7.227
16247SOL    HW197580   6.971   4.211   7.246
16247SOL    HW297581   7.093   4.105   7.226
16248SOL     OW97582   0.140  15.957   0.954
16248SOL    HW197583   0.113  16.053   0.963
16248SOL    HW297584   0.237  15.952   0.933
16249SOL     OW97585  14.705   8.943   0.813
16249SOL    HW197586  14.641   8.987   0.877
16249SOL    HW297587  14.725   9.007   0.738
16250SOL     OW97588   1.860   7.245   7.084
16250SOL    HW197589   1.785   7.231   7.019
16250SOL    HW297590   1.885   7.341   7.086
16251SOL     OW97591  13.895   0.499   6.152
16251SOL    HW197592  13.897   0.598   6.165
16251SOL    HW297593  13.846   0.478   6.067
16252SOL     OW97594  10.297   7.445   1.607
16252SOL    HW197595  10.357   7.462   1.685
16252SOL    HW297596  10.332   7.491   1.526
16253SOL     OW97597  16.191   2.264   7.315
16253SOL    HW197598  16.147   2.183   7.355
16253SOL    HW297599  16.286   2.244   7.295
16254SOL     OW97600   8.500  14.839   6.161
16254SOL    HW197601   8.425  14.905   6.163
16254SOL    HW297602   8.561  14.861   6.085
16255SOL     OW97603  12.217  16.884   7.166
16255SOL    HW197604  12.299  16.941   7.167
16255SOL    HW297605  12.172  16.892   7.077
16256SOL     OW97606   7.460   5.685   6.710
16256SOL    HW197607   7.397   5.685   6.788
16256SOL    HW297608   7.433   5.755   6.645
16257SOL     OW97609  11.752  10.692   7.323
16257SOL    HW197610  11.664  10.731   7.350
16257SOL    HW297611  11.746  10.592   7.319
16258SOL     OW97612   5.952   1.462   7.733
16258SOL    HW197613   5.948   1.401   7.812
16258SOL    HW297614   5.942   1.557   7.764
16259SOL     OW97615  11.942  12.055   0.519
16259SOL    HW197616  11.853  12.014   0.539
16259SOL    HW297617  11.934  12.114   0.439
16260SOL     OW97618   1.189  10.700   7.548
16260SOL    HW197619   1.233  10.611   7.545
16260SOL    HW297620   1.244  10.763   7.603
16261SOL     OW97621  15.263   8.842   8.438
16261SOL    HW197622  15.311   8.773   0.039
16261SOL    HW297623  15.277   8.932   0.024
16262SOL     OW97624  12.158  15.551   1.229
16262SOL    HW197625  12.236  15.606   1.200
16262SOL    HW297626  12.166  15.532   1.327
16263SOL     OW97627  12.831   6.819   5.701
16263SOL    HW197628  12.735   6.821   5.729
16263SOL    HW297629  12.848   6.896   5.638
16264SOL     OW97630   4.572   0.762   1.504
16264SOL    HW197631   4.623   0.805   1.579
16264SOL    HW297632   4.628   0.690   1.463
16265SOL     OW97633   2.475   7.362   2.292
16265SOL    HW197634   2.509   7.336   2.382
16265SOL    HW297635   2.521   7.445   2.262
16266SOL     OW97636   7.165  10.239   8.170
16266SOL    HW197637   7.159  10.232   8.270
16266SOL    HW297638   7.104  10.171   8.129
16267SOL     OW97639   3.315  15.305   7.536
16267SOL    HW197640   3.283  15.259   7.453
16267SOL    HW297641   3.260  15.387   7.552
16268SOL     OW97642   5.871   2.057   1.107
16268SOL    HW197643   5.834   2.144   1.142
16268SOL    HW297644   5.821   1.981   1.148
16269SOL     OW97645  11.802   9.496   8.436
16269SOL    HW197646  11.787   9.431   8.362
16269SOL    HW297647  11.756   9.463   0.065
16270SOL     OW97648  12.784  14.166   7.605
16270SOL    HW197649  12.878  14.192   7.582
16270SOL    HW297650  12.775  14.066   7.598
16271SOL     OW97651   6.246   9.472   7.197
16271SOL    HW197652   6.289   9.392   7.238
16271SOL    HW297653   6.308   9.515   7.132
16272SOL     OW97654  12.651   1.530   1.021
16272SOL    HW197655  12.570   1.534   1.080
16272SOL    HW297656  12.701   1.616   1.027
16273SOL     OW97657   2.426   6.191   5.917
16273SOL    HW197658   2.390   6.121   5.979
16273SOL    HW297659   2.352   6.227   5.861
16274SOL     OW97660   6.434  16.178   1.969
16274SOL    HW197661   6.424  16.096   2.026
16274SOL    HW297662   6.485  16.247   2.020
16275SOL     OW97663   2.151  15.000   6.953
16275SOL    HW197664   2.212  14.943   7.008
16275SOL    HW297665   2.182  14.999   6.858
16276SOL     OW97666   9.241  12.504   8.428
16276SOL    HW197667   9.300  12.548   8.360
16276SOL    HW297668   9.294  12.437   0.026
16277SOL     OW97669   5.839   8.092   1.130
16277SOL    HW197670   5.911   8.034   1.167
16277SOL    HW297671   5.820   8.167   1.193
16278SOL     OW97672   3.963   8.163   8.210
16278SOL    HW197673   3.864   8.159   8.223
16278SOL    HW297674   3.998   8.072   8.190
16279SOL     OW97675  14.654   8.387   0.075
16279SOL    HW197676  14.609   8.477   0.081
16279SOL    HW297677  14.677   8.356   0.168
16280SOL     OW97678   2.755   4.310   0.794
16280SOL    HW197679   2.767   4.227   0.740
16280SOL    HW297680   2.658   4.324   0.813
16281SOL     OW97681   1.229   9.937   7.810
16281SOL    HW197682   1.143   9.885   7.812
16281SOL    HW297683   1.209  10.033   7.791
16282SOL     OW97684   4.747   2.054   2.526
16282SOL    HW197685   4.666   2.030   2.473
16282SOL    HW297686   4.723   2.121   2.596
16283SOL     OW97687   0.763   3.669   8.294
16283SOL    HW197688   0.825   3.712   8.360
16283SOL    HW297689   0.805   3.585   8.259
16284SOL     OW97690   8.243  13.945   0.523
16284SOL    HW197691   8.299  13.900   0.453
16284SOL    HW297692   8.208  13.877   0.587
16285SOL     OW97693  15.879  11.753   1.976
16285SOL    HW197694  15.918  11.702   2.052
16285SOL    HW297695  15.889  11.699   1.892
16286SOL     OW97696  10.587  12.229   0.057
16286SOL    HW197697  10.645  12.293   0.006
16286SOL    HW297698  10.516  12.193   8.450
16287SOL     OW97699  14.158   9.770   7.655
16287SOL    HW197700  14.173   9.844   7.721
16287SOL    HW297701  14.163   9.682   7.702
16288SOL     OW97702   5.109   6.587   2.511
16288SOL    HW197703   5.098   6.684   2.489
16288SOL    HW297704   5.197   6.572   2.555
16289SOL     OW97705   7.276   5.711   7.211
16289SOL    HW197706   7.185   5.722   7.172
16289SOL    HW297707   7.317   5.801   7.226
16290SOL     OW97708   0.860   4.854   0.442
16290SOL    HW197709   0.764   4.869   0.465
16290SOL    HW297710   0.867   4.783   0.372
16291SOL     OW97711   5.585   6.210   6.275
16291SOL    HW197712   5.519   6.154   6.225
16291SOL    HW297713   5.638   6.265   6.211
16292SOL     OW97714   1.024   5.361   0.967
16292SOL    HW197715   0.930   5.356   0.932
16292SOL    HW297716   1.042   5.454   1.001
16293SOL     OW97717  14.269   1.500   1.273
16293SOL    HW197718  14.272   1.403   1.248
16293SOL    HW297719  14.218   1.511   1.358
16294SOL     OW97720  13.946   7.968   1.155
16294SOL    HW197721  13.858   7.949   1.199
16294SOL    HW297722  13.955   7.913   1.072
16295SOL     OW97723   4.147   0.716   1.974
16295SOL    HW197724   4.130   0.684   1.881
16295SOL    HW297725   4.217   0.660   2.016
16296SOL     OW97726  12.671   7.595   0.160
16296SOL    HW197727  12.728   7.547   0.094
16296SOL    HW297728  12.656   7.689   0.130
16297SOL     OW97729  12.261   0.021   1.487
16297SOL    HW197730  12.300  16.974   1.574
16297SOL    HW297731  12.220  16.926   1.439
16298SOL     OW97732  15.408   7.343   0.913
16298SOL    HW197733  15.386   7.318   0.818
16298SOL    HW297734  15.450   7.265   0.959
16299SOL     OW97735   3.155  16.623   1.899
16299SOL    HW197736   3.227  16.553   1.906
16299SOL    HW297737   3.067  16.578   1.887
16300SOL     OW97738  10.114   8.536   0.715
16300SOL    HW197739  10.074   8.612   0.664
16300SOL    HW297740  10.112   8.556   0.813
16301SOL     OW97741   2.429   3.480   8.114
16301SOL    HW197742   2.368   3.523   8.047
16301SOL    HW297743   2.375   3.452   8.193
16302SOL     OW97744   4.139  14.286   1.125
16302SOL    HW197745   4.238  14.295   1.140
16302SOL    HW297746   4.124  14.227   1.045
16303SOL     OW97747   3.652   0.943   2.142
16303SOL    HW197748   3.597   0.909   2.065
16303SOL    HW297749   3.607   0.919   2.228
16304SOL     OW97750  15.265   1.812   7.561
16304SOL    HW197751  15.269   1.902   7.518
16304SOL    HW297752  15.182   1.765   7.532
16305SOL     OW97753   7.480   7.875   2.180
16305SOL    HW197754   7.499   7.779   2.201
16305SOL    HW297755   7.424   7.914   2.253
16306SOL     OW97756   0.332   9.463   1.263
16306SOL    HW197757   0.363   9.551   1.299
16306SOL    HW297758   0.245   9.476   1.215
16307SOL     OW97759   2.360   7.800   7.180
16307SOL    HW197760   2.316   7.844   7.258
16307SOL    HW297761   2.319   7.709   7.166
16308SOL     OW97762   1.182  14.825   7.545
16308SOL    HW197763   1.186  14.750   7.479
16308SOL    HW297764   1.192  14.912   7.498
16309SOL     OW97765   8.677   3.813   7.615
16309SOL    HW197766   8.718   3.724   7.597
16309SOL    HW297767   8.695   3.840   7.710
16310SOL     OW97768  12.058  15.604   6.226
16310SOL    HW197769  12.018  15.622   6.136
16310SOL    HW297770  12.152  15.570   6.215
16311SOL     OW97771   5.657   5.051   8.211
16311SOL    HW197772   5.613   5.086   8.294
16311SOL    HW297773   5.700   4.964   8.231
16312SOL     OW97774   2.055   9.503   6.252
16312SOL    HW197775   2.052   9.601   6.271
16312SOL    HW297776   1.971   9.474   6.206
16313SOL     OW97777  13.821   2.686   7.849
16313SOL    HW197778  13.920   2.694   7.835
16313SOL    HW297779  13.794   2.738   7.929
16314SOL     OW97780   9.671   4.421   1.839
16314SOL    HW197781   9.743   4.432   1.907
16314SOL    HW297782   9.589   4.383   1.883
16315SOL     OW97783  12.001   5.634   8.449
16315SOL    HW197784  12.014   5.639   8.350
16315SOL    HW297785  12.047   5.711   0.039
16316SOL     OW97786  12.447   5.754   6.632
16316SOL    HW197787  12.415   5.682   6.693
16316SOL    HW297788  12.545   5.742   6.614
16317SOL     OW97789  16.172   4.354   7.172
16317SOL    HW197790  16.261   4.394   7.150
16317SOL    HW297791  16.179   4.254   7.170
16318SOL     OW97792   3.874  11.224   1.460
16318SOL    HW197793   3.907  11.316   1.436
16318SOL    HW297794   3.801  11.232   1.528
16319SOL     OW97795  12.079   5.548   6.022
16319SOL    HW197796  12.010   5.507   5.962
16319SOL    HW297797  12.169   5.515   5.996
16320SOL     OW97798   4.081  16.973   1.197
16320SOL    HW197799   4.137  16.952   1.118
16320SOL    HW297800   4.134  16.959   1.281
16321SOL     OW97801  13.032   3.119   0.955
16321SOL    HW197802  13.117   3.068   0.962
16321SOL    HW297803  12.991   3.128   1.046
16322SOL     OW97804   0.085   4.324   7.438
16322SOL    HW197805   0.048   4.343   7.529
16322SOL    HW297806   0.062   4.231   7.411
16323SOL     OW97807  10.969  10.710   7.835
16323SOL    HW197808  10.875  10.743   7.827
16323SOL    HW297809  11.026  10.756   7.767
16324SOL     OW97810   7.302  10.520   1.011
16324SOL    HW197811   7.330  10.446   1.072
16324SOL    HW297812   7.235  10.486   0.945
16325SOL     OW97813   1.285  16.283   0.820
16325SOL    HW197814   1.365  16.325   0.777
16325SOL    HW297815   1.276  16.189   0.787
16326SOL     OW97816   7.583   4.716   0.184
16326SOL    HW197817   7.557   4.752   0.094
16326SOL    HW297818   7.598   4.793   0.247
16327SOL     OW97819  11.772  13.467   0.801
16327SOL    HW197820  11.703  13.455   0.730
16327SOL    HW297821  11.863  13.470   0.759
16328SOL     OW97822   0.937   0.757   1.388
16328SOL    HW197823   0.996   0.808   1.326
16328SOL    HW297824   0.921   0.812   1.471
16329SOL     OW97825   2.884   4.553   1.673
16329SOL    HW197826   2.979   4.530   1.655
16329SOL    HW297827   2.871   4.570   1.771
16330SOL     OW97828   5.322   8.045   0.098
16330SOL    HW197829   5.389   7.992   0.046
16330SOL    HW297830   5.326   8.018   0.195
16331SOL     OW97831   0.271   6.414   0.688
16331SOL    HW197832   0.271   6.447   0.783
16331SOL    HW297833   0.342   6.462   0.637
16332SOL     OW97834  16.317  15.274   8.142
16332SOL    HW197835  16.344  15.369   8.157
16332SOL    HW297836  16.294  15.261   8.046
16333SOL     OW97837  13.631   1.716   6.971
16333SOL    HW197838  13.596   1.779   6.903
16333SOL    HW297839  13.561   1.648   6.994
16334SOL     OW97840   1.610   4.304   7.491
16334SOL    HW197841   1.676   4.354   7.547
16334SOL    HW297842   1.537   4.366   7.462
16335SOL     OW97843   0.582   8.024   1.881
16335SOL    HW197844   0.523   7.947   1.906
16335SOL    HW297845   0.612   8.070   1.964
16336SOL     OW97846  13.372   8.719   7.027
16336SOL    HW197847  13.335   8.687   7.114
16336SOL    HW297848  13.379   8.642   6.964
16337SOL     OW97849   8.817   0.178   0.877
16337SOL    HW197850   8.781   0.238   0.805
16337SOL    HW297851   8.862   0.100   0.835
16338SOL     OW97852  12.795  11.145   7.732
16338SOL    HW197853  12.808  11.223   7.671
16338SOL    HW297854  12.702  11.111   7.724
16339SOL     OW97855   1.671   9.045   1.481
16339SOL    HW197856   1.640   8.950   1.484
16339SOL    HW297857   1.720   9.060   1.395
16340SOL     OW97858   0.877  14.663   8.087
16340SOL    HW197859   0.894  14.570   8.055
16340SOL    HW297860   0.949  14.691   8.150
16341SOL     OW97861  12.542   9.119   0.019
16341SOL    HW197862  12.637   9.133   8.446
16341SOL    HW297863  12.532   9.028   0.059
16342SOL     OW97864  11.758  14.707   1.479
16342SOL    HW197865  11.772  14.613   1.448
16342SOL    HW297866  11.769  14.712   1.578
16343SOL     OW97867  13.221  13.209   0.843
16343SOL    HW197868  13.294  13.277   0.857
16343SOL    HW297869  13.154  13.245   0.778
16344SOL     OW97870   0.011   3.423   6.446
16344SOL    HW197871   0.080   3.473   6.394
16344SOL    HW297872  16.973   3.474   6.530
16345SOL     OW97873  11.937  10.978   6.815
16345SOL    HW197874  11.917  10.962   6.718
16345SOL    HW297875  11.962  10.891   6.858
16346SOL     OW97876   8.254  10.439   7.560
16346SOL    HW197877   8.345  10.428   7.521
16346SOL    HW297878   8.197  10.493   7.498
16347SOL     OW97879   9.829   8.768   1.780
16347SOL    HW197880   9.907   8.830   1.772
16347SOL    HW297881   9.746   8.821   1.800
16348SOL     OW97882   5.247   3.653   1.203
16348SOL    HW197883   5.160   3.702   1.209
16348SOL    HW297884   5.323   3.719   1.204
16349SOL     OW97885   5.690  15.668   2.083
16349SOL    HW197886   5.685  15.611   2.165
16349SOL    HW297887   5.750  15.746   2.100
16350SOL     OW97888  10.494  16.653   1.910
16350SOL    HW197889  10.454  16.730   1.960
16350SOL    HW297890  10.537  16.590   1.974
16351SOL     OW97891   8.541   9.985   0.503
16351SOL    HW197892   8.615   9.918   0.492
16351SOL    HW297893   8.570  10.073   0.465
16352SOL     OW97894   2.055   1.732   8.363
16352SOL    HW197895   2.021   1.762   8.452
16352SOL    HW297896   2.060   1.811   8.302
16353SOL     OW97897  14.528  12.202   7.865
16353SOL    HW197898  14.431  12.180   7.880
16353SOL    HW297899  14.582  12.118   7.868
16354SOL     OW97900  15.457  12.583   7.006
16354SOL    HW197901  15.443  12.509   6.941
16354SOL    HW297902  15.422  12.555   7.096
16355SOL     OW97903   1.979   1.757   0.574
16355SOL    HW197904   2.062   1.703   0.587
16355SOL    HW297905   1.998   1.853   0.590
16356SOL     OW97906   4.296  13.283   6.894
16356SOL    HW197907   4.335  13.191   6.892
16356SOL    HW297908   4.198  13.276   6.915
16357SOL     OW97909   7.922  11.851   6.523
16357SOL    HW197910   7.911  11.761   6.566
16357SOL    HW297911   7.944  11.839   6.426
16358SOL     OW97912   0.113   1.706   7.602
16358SOL    HW197913   0.200   1.741   7.569
16358SOL    HW297914   0.063   1.778   7.649
16359SOL     OW97915  12.395   0.568   7.612
16359SOL    HW197916  12.493   0.579   7.627
16359SOL    HW297917  12.379   0.535   7.519
16360SOL     OW97918   8.439   2.115   8.149
16360SOL    HW197919   8.409   2.205   8.181
16360SOL    HW297920   8.539   2.109   8.158
16361SOL     OW97921  14.194   8.600   7.582
16361SOL    HW197922  14.229   8.578   7.673
16361SOL    HW297923  14.205   8.698   7.565
16362SOL     OW97924  11.127   7.373   7.861
16362SOL    HW197925  11.132   7.463   7.904
16362SOL    HW297926  11.214   7.325   7.872
16363SOL     OW97927  12.972   5.170   2.001
16363SOL    HW197928  12.974   5.142   2.097
16363SOL    HW297929  12.886   5.216   1.981
16364SOL     OW97930   7.267   9.642   7.476
16364SOL    HW197931   7.202   9.660   7.403
16364SOL    HW297932   7.342   9.585   7.441
16365SOL     OW97933   4.915  14.973   6.677
16365SOL    HW197934   4.872  14.901   6.623
16365SOL    HW297935   4.999  15.002   6.632
16366SOL     OW97936  15.933   2.611   1.031
16366SOL    HW197937  15.873   2.571   1.100
16366SOL    HW297938  16.025   2.624   1.070
16367SOL     OW97939  14.654   2.957   6.375
16367SOL    HW197940  14.555   2.952   6.372
16367SOL    HW297941  14.692   2.910   6.296
16368SOL     OW97942  10.166   3.538   6.716
16368SOL    HW197943  10.243   3.520   6.655
16368SOL    HW297944  10.188   3.507   6.809
16369SOL     OW97945   2.947   9.977   8.350
16369SOL    HW197946   2.889   9.986   8.431
16369SOL    HW297947   2.975   9.881   8.340
16370SOL     OW97948   7.915  15.842   6.764
16370SOL    HW197949   7.858  15.923   6.752
16370SOL    HW297950   7.922  15.793   6.677
16371SOL     OW97951   0.521   8.627   0.717
16371SOL    HW197952   0.458   8.657   0.788
16371SOL    HW297953   0.555   8.707   0.667
16372SOL     OW97954   7.262  15.390   7.180
16372SOL    HW197955   7.337  15.335   7.217
16372SOL    HW297956   7.270  15.484   7.214
16373SOL     OW97957   2.576   8.905   2.433
16373SOL    HW197958   2.523   8.965   2.494
16373SOL    HW297959   2.648   8.859   2.485
16374SOL     OW97960   2.434  12.684   0.240
16374SOL    HW197961   2.484  12.601   0.213
16374SOL    HW297962   2.494  12.763   0.234
16375SOL     OW97963  11.233   6.089   7.279
16375SOL    HW197964  11.279   6.017   7.332
16375SOL    HW297965  11.248   6.072   7.182
16376SOL     OW97966   7.830   4.195   7.288
16376SOL    HW197967   7.745   4.152   7.257
16376SOL    HW297968   7.859   4.154   7.375
16377SOL     OW97969  13.460   0.402   6.162
16377SOL    HW197970  13.453   0.313   6.117
16377SOL    HW297971  13.544   0.405   6.216
16378SOL     OW97972  11.994   8.467   0.267
16378SOL    HW197973  12.041   8.556   0.264
16378SOL    HW297974  12.010   8.418   0.181
16379SOL     OW97975  14.805   0.093   7.069
16379SOL    HW197976  14.882   0.112   7.007
16379SOL    HW297977  14.824   0.010   7.121
16380SOL     OW97978   5.205   0.602   1.589
16380SOL    HW197979   5.174   0.521   1.638
16380SOL    HW297980   5.288   0.637   1.633
16381SOL     OW97981   0.085  15.713   7.512
16381SOL    HW197982   0.142  15.683   7.435
16381SOL    HW297983   0.130  15.691   7.598
16382SOL     OW97984   9.453   5.731   6.727
16382SOL    HW197985   9.499   5.731   6.638
16382SOL    HW297986   9.468   5.818   6.773
16383SOL     OW97987  12.645   6.501   7.750
16383SOL    HW197988  12.577   6.474   7.682
16383SOL    HW297989  12.670   6.422   7.806
16384SOL     OW97990   5.835   7.470   0.892
16384SOL    HW197991   5.785   7.541   0.843
16384SOL    HW297992   5.927   7.461   0.853
16385SOL     OW97993  15.889  13.010   7.479
16385SOL    HW197994  15.888  13.098   7.431
16385SOL    HW297995  15.805  12.999   7.531
16386SOL     OW97996   2.466   7.354   1.088
16386SOL    HW197997   2.414   7.435   1.059
16386SOL    HW297998   2.549   7.347   1.033
16387SOL     OW97999   3.460  15.311   8.071
16387SOL    HW198000   3.391  15.380   8.093
16387SOL    HW298001   3.448  15.283   7.976
16388SOL     OW98002   1.299   9.963   0.411
16388SOL    HW198003   1.267   9.869   0.396
16388SOL    HW298004   1.244  10.026   0.356
16389SOL     OW98005   4.123   0.461   7.467
16389SOL    HW198006   4.161   0.428   7.381
16389SOL    HW298007   4.059   0.394   7.504
16390SOL     OW98008  15.138  13.793   6.700
16390SOL    HW198009  15.194  13.710   6.698
16390SOL    HW298010  15.043  13.769   6.679
16391SOL     OW98011   4.506  14.204   0.922
16391SOL    HW198012   4.471  14.249   1.004
16391SOL    HW298013   4.503  14.104   0.934
16392SOL     OW98014   5.037   4.759   7.407
16392SOL    HW198015   5.091   4.834   7.443
16392SOL    HW298016   4.948   4.794   7.376
16393SOL     OW98017   8.833  10.597   8.218
16393SOL    HW198018   8.909  10.657   8.191
16393SOL    HW298019   8.844  10.570   8.314
16394SOL     OW98020   0.534   0.368   8.067
16394SOL    HW198021   0.492   0.371   8.158
16394SOL    HW298022   0.607   0.436   8.062
16395SOL     OW98023   8.978   2.120   6.673
16395SOL    HW198024   8.992   2.202   6.617
16395SOL    HW298025   8.926   2.144   6.754
16396SOL     OW98026   0.139   5.750   0.609
16396SOL    HW198027   0.059   5.716   0.560
16396SOL    HW298028   0.111   5.811   0.683
16397SOL     OW98029  14.098   1.417   6.209
16397SOL    HW198030  14.044   1.448   6.130
16397SOL    HW298031  14.058   1.455   6.293
16398SOL     OW98032  10.229   8.835   0.279
16398SOL    HW198033  10.295   8.910   0.286
16398SOL    HW298034  10.261   8.757   0.333
16399SOL     OW98035   7.399  11.736   8.290
16399SOL    HW198036   7.379  11.673   8.215
16399SOL    HW298037   7.329  11.807   8.294
16400SOL     OW98038  11.293  11.957   0.923
16400SOL    HW198039  11.313  11.898   0.845
16400SOL    HW298040  11.331  11.918   1.006
16401SOL     OW98041   2.381   7.338   6.541
16401SOL    HW198042   2.457   7.390   6.503
16401SOL    HW298043   2.386   7.244   6.508
16402SOL     OW98044   0.816   3.094   7.306
16402SOL    HW198045   0.785   3.168   7.247
16402SOL    HW298046   0.871   3.029   7.252
16403SOL     OW98047  10.389   3.660   1.292
16403SOL    HW198048  10.310   3.711   1.325
16403SOL    HW298049  10.440   3.716   1.226
16404SOL     OW98050   4.287  14.739   8.088
16404SOL    HW198051   4.271  14.643   8.066
16404SOL    HW298052   4.203  14.791   8.074
16405SOL     OW98053   5.904   4.018   0.470
16405SOL    HW198054   5.987   4.008   0.416
16405SOL    HW298055   5.921   3.984   0.563
16406SOL     OW98056  11.006   5.810   6.914
16406SOL    HW198057  10.951   5.842   6.991
16406SOL    HW298058  11.100   5.796   6.943
16407SOL     OW98059   1.134   4.057   8.043
16407SOL    HW198060   1.157   4.093   8.133
16407SOL    HW298061   1.174   4.116   7.973
16408SOL     OW98062   7.100   1.874   0.275
16408SOL    HW198063   7.182   1.901   0.326
16408SOL    HW298064   7.022   1.925   0.309
16409SOL     OW98065  14.531  12.281   1.274
16409SOL    HW198066  14.513  12.378   1.284
16409SOL    HW298067  14.452  12.229   1.307
16410SOL     OW98068   6.169  14.869   1.571
16410SOL    HW198069   6.082  14.864   1.522
16410SOL    HW298070   6.155  14.845   1.667
16411SOL     OW98071   2.226   4.297   1.514
16411SOL    HW198072   2.128   4.314   1.515
16411SOL    HW298073   2.265   4.320   1.603
16412SOL     OW98074  14.732   5.115   1.530
16412SOL    HW198075  14.760   5.093   1.437
16412SOL    HW298076  14.639   5.150   1.530
16413SOL     OW98077   3.748  16.751   1.715
16413SOL    HW198078   3.748  16.688   1.793
16413SOL    HW298079   3.691  16.715   1.642
16414SOL     OW98080   0.028  13.523   1.684
16414SOL    HW198081   0.025  13.594   1.614
16414SOL    HW298082   0.016  13.433   1.642
16415SOL     OW98083  14.487   5.818   7.136
16415SOL    HW198084  14.485   5.826   7.036
16415SOL    HW298085  14.579   5.839   7.169
16416SOL     OW98086  16.133   2.879   7.706
16416SOL    HW198087  16.113   2.885   7.608
16416SOL    HW298088  16.134   2.970   7.745
16417SOL     OW98089   8.831   6.714   0.858
16417SOL    HW198090   8.895   6.705   0.782
16417SOL    HW298091   8.764   6.785   0.837
16418SOL     OW98092   5.688   3.095   1.973
16418SOL    HW198093   5.605   3.082   2.028
16418SOL    HW298094   5.768   3.063   2.023
16419SOL     OW98095   2.804   7.096   1.080
16419SOL    HW198096   2.799   7.005   1.038
16419SOL    HW298097   2.837   7.087   1.174
16420SOL     OW98098  11.729   0.780   7.094
16420SOL    HW198099  11.732   0.875   7.061
16420SOL    HW298100  11.677   0.777   7.180
16421SOL     OW98101   5.350  12.274   6.851
16421SOL    HW198102   5.251  12.264   6.856
16421SOL    HW298103   5.390  12.187   6.820
16422SOL     OW98104   4.202   6.554   6.252
16422SOL    HW198105   4.282   6.505   6.215
16422SOL    HW298106   4.124   6.540   6.192
16423SOL     OW98107  16.568   3.579   7.907
16423SOL    HW198108  16.556   3.644   7.983
16423SOL    HW298109  16.661   3.543   7.910
16424SOL     OW98110  14.618   9.265   2.577
16424SOL    HW198111  14.693   9.307   2.628
16424SOL    HW298112  14.535   9.318   2.592
16425SOL     OW98113  16.168   4.976   7.403
16425SOL    HW198114  16.135   5.029   7.481
16425SOL    HW298115  16.111   4.996   7.323
16426SOL     OW98116   1.132   1.481   0.345
16426SOL    HW198117   1.112   1.413   0.276
16426SOL    HW298118   1.077   1.563   0.328
16427SOL     OW98119  12.363  13.342   8.030
16427SOL    HW198120  12.405  13.352   8.120
16427SOL    HW298121  12.431  13.360   7.959
16428SOL     OW98122   9.199   7.724   7.812
16428SOL    HW198123   9.200   7.645   7.751
16428SOL    HW298124   9.119   7.780   7.793
16429SOL     OW98125   1.267   9.183   7.821
16429SOL    HW198126   1.212   9.263   7.849
16429SOL    HW298127   1.219   9.100   7.848
16430SOL     OW98128   8.148   7.270   8.436
16430SOL    HW198129   8.218   7.200   8.452
16430SOL    HW298130   8.183   7.337   8.370
16431SOL     OW98131   2.740  14.257   1.574
16431SOL    HW198132   2.831  14.292   1.595
16431SOL    HW298133   2.738  14.222   1.481
16432SOL     OW98134   0.488  15.606   6.134
16432SOL    HW198135   0.567  15.651   6.092
16432SOL    HW298136   0.512  15.512   6.158
16433SOL     OW98137   3.271   7.232   0.197
16433SOL    HW198138   3.203   7.164   0.224
16433SOL    HW298139   3.321   7.200   0.116
16434SOL     OW98140  15.207  11.552   1.435
16434SOL    HW198141  15.228  11.465   1.480
16434SOL    HW298142  15.272  11.568   1.360
16435SOL     OW98143  11.061   5.428   0.219
16435SOL    HW198144  11.024   5.521   0.208
16435SOL    HW298145  11.030   5.371   0.142
16436SOL     OW98146   8.397   3.613   1.516
16436SOL    HW198147   8.477   3.622   1.456
16436SOL    HW298148   8.426   3.580   1.606
16437SOL     OW98149   4.508  16.918   1.385
16437SOL    HW198150   4.554  16.978   1.452
16437SOL    HW298151   4.569  16.841   1.363
16438SOL     OW98152  14.118  13.182   0.093
16438SOL    HW198153  14.158  13.158   0.004
16438SOL    HW298154  14.176  13.144   0.166
16439SOL     OW98155  13.359  10.846   1.088
16439SOL    HW198156  13.278  10.900   1.069
16439SOL    HW298157  13.404  10.881   1.170
16440SOL     OW98158   9.198  10.495   1.855
16440SOL    HW198159   9.210  10.531   1.763
16440SOL    HW298160   9.247  10.409   1.863
16441SOL     OW98161   0.416   5.595   8.071
16441SOL    HW198162   0.474   5.676   8.067
16441SOL    HW298163   0.356   5.601   8.151
16442SOL     OW98164   1.867  10.136   7.524
16442SOL    HW198165   1.814  10.073   7.467
16442SOL    HW298166   1.963  10.134   7.495
16443SOL     OW98167  11.771   1.939   8.296
16443SOL    HW198168  11.746   1.913   8.203
16443SOL    HW298169  11.730   1.875   8.361
16444SOL     OW98170  11.828   2.243   1.641
16444SOL    HW198171  11.783   2.331   1.652
16444SOL    HW298172  11.898   2.232   1.712
16445SOL     OW98173   7.744   5.149   6.544
16445SOL    HW198174   7.686   5.156   6.463
16445SOL    HW298175   7.821   5.212   6.536
16446SOL     OW98176  14.115   3.884   0.215
16446SOL    HW198177  14.138   3.921   0.125
16446SOL    HW298178  14.187   3.906   0.280
16447SOL     OW98179  11.310   7.006   0.410
16447SOL    HW198180  11.341   7.088   0.361
16447SOL    HW298181  11.354   7.001   0.499
16448SOL     OW98182  13.033  12.916   7.024
16448SOL    HW198183  12.940  12.897   7.057
16448SOL    HW298184  13.098  12.899   7.097
16449SOL     OW98185  10.829   8.019   8.023
16449SOL    HW198186  10.743   7.968   8.023
16449SOL    HW298187  10.854   8.043   7.930
16450SOL     OW98188   1.851  13.656   6.717
16450SOL    HW198189   1.756  13.685   6.719
16450SOL    HW298190   1.856  13.556   6.712
16451SOL     OW98191   0.651  11.378   1.888
16451SOL    HW198192   0.642  11.366   1.987
16451SOL    HW298193   0.622  11.470   1.863
16452SOL     OW98194  12.904   9.958   2.182
16452SOL    HW198195  12.814   9.914   2.172
16452SOL    HW298196  12.933   9.952   2.277
16453SOL     OW98197  10.723   0.085   8.153
16453SOL    HW198198  10.750  16.973   8.144
16453SOL    HW298199  10.743   0.134   8.068
16454SOL     OW98200  13.064   9.519   1.369
16454SOL    HW198201  12.995   9.568   1.422
16454SOL    HW298202  13.129   9.585   1.331
16455SOL     OW98203   5.260   9.475   6.766
16455SOL    HW198204   5.213   9.404   6.818
16455SOL    HW298205   5.193   9.528   6.714
16456SOL     OW98206   1.424   9.140   1.846
16456SOL    HW198207   1.436   9.173   1.939
16456SOL    HW298208   1.463   9.048   1.837
16457SOL     OW98209   9.220  16.476   0.411
16457SOL    HW198210   9.254  16.409   0.476
16457SOL    HW298211   9.161  16.542   0.458
16458SOL     OW98212   3.969   3.940   8.259
16458SOL    HW198213   3.976   3.956   8.358
16458SOL    HW298214   4.054   3.899   8.226
16459SOL     OW98215   4.253   9.817   1.839
16459SOL    HW198216   4.336   9.828   1.894
16459SOL    HW298217   4.177   9.867   1.881
16460SOL     OW98218   3.589   7.492   7.824
16460SOL    HW198219   3.541   7.476   7.738
16460SOL    HW298220   3.679   7.447   7.821
16461SOL     OW98221   0.089  16.222   0.972
16461SOL    HW198222  16.981  16.215   0.932
16461SOL    HW298223   0.150  16.270   0.909
16462SOL     OW98224  13.197  15.511   7.572
16462SOL    HW198225  13.266  15.467   7.629
16462SOL    HW298226  13.213  15.609   7.569
16463SOL     OW98227  10.959   4.463   7.744
16463SOL    HW198228  11.007   4.443   7.829
16463SOL    HW298229  10.890   4.534   7.760
16464SOL     OW98230  15.728  12.105   7.695
16464SOL    HW198231  15.726  12.131   7.599
16464SOL    HW298232  15.820  12.122   7.732
16465SOL     OW98233  13.729   5.347   1.111
16465SOL    HW198234  13.766   5.270   1.057
16465SOL    HW298235  13.804   5.394   1.157
16466SOL     OW98236   1.910   4.915   1.598
16466SOL    HW198237   1.997   4.864   1.599
16466SOL    HW298238   1.914   4.985   1.527
16467SOL     OW98239   1.075   0.198   7.064
16467SOL    HW198240   1.112   0.114   7.024
16467SOL    HW298241   0.975   0.189   7.073
16468SOL     OW98242   6.931  11.315   7.235
16468SOL    HW198243   6.966  11.322   7.328
16468SOL    HW298244   6.848  11.370   7.226
16469SOL     OW98245  10.071   8.177   0.101
16469SOL    HW198246  10.094   8.153   0.007
16469SOL    HW298247   9.976   8.209   0.105
16470SOL     OW98248   5.962  13.160   0.909
16470SOL    HW198249   5.983  13.075   0.861
16470SOL    HW298250   6.026  13.172   0.985
16471SOL     OW98251   1.788   2.797   0.584
16471SOL    HW198252   1.788   2.837   0.492
16471SOL    HW298253   1.696   2.803   0.623
16472SOL     OW98254   7.869  10.034   6.908
16472SOL    HW198255   7.795  10.015   6.843
16472SOL    HW298256   7.895   9.949   6.955
16473SOL     OW98257   9.426   0.381   1.412
16473SOL    HW198258   9.360   0.331   1.467
16473SOL    HW298259   9.506   0.404   1.469
16474SOL     OW98260   4.503   5.620   6.774
16474SOL    HW198261   4.532   5.696   6.717
16474SOL    HW298262   4.454   5.553   6.719
16475SOL     OW98263  11.277   6.905   7.724
16475SOL    HW198264  11.221   6.876   7.802
16475SOL    HW298265  11.355   6.958   7.756
16476SOL     OW98266  11.611  12.020   8.273
16476SOL    HW198267  11.677  12.094   8.283
16476SOL    HW298268  11.615  11.983   8.181
16477SOL     OW98269   3.113  13.869   0.417
16477SOL    HW198270   3.158  13.780   0.428
16477SOL    HW298271   3.148  13.914   0.335
16478SOL     OW98272   6.384   7.315   6.208
16478SOL    HW198273   6.317   7.282   6.142
16478SOL    HW298274   6.433   7.237   6.247
16479SOL     OW98275  12.281   9.787   0.433
16479SOL    HW198276  12.312   9.848   0.360
16479SOL    HW298277  12.342   9.707   0.436
16480SOL     OW98278   3.505  11.175   7.497
16480SOL    HW198279   3.416  11.217   7.475
16480SOL    HW298280   3.518  11.093   7.441
16481SOL     OW98281  11.308  14.390   0.383
16481SOL    HW198282  11.301  14.446   0.466
16481SOL    HW298283  11.239  14.318   0.386
16482SOL     OW98284   9.085  11.381   1.701
16482SOL    HW198285   8.997  11.355   1.739
16482SOL    HW298286   9.114  11.312   1.634
16483SOL     OW98287   9.187   4.409   7.383
16483SOL    HW198288   9.100   4.374   7.347
16483SOL    HW298289   9.254   4.335   7.383
16484SOL     OW98290   8.732   6.888   7.523
16484SOL    HW198291   8.649   6.944   7.522
16484SOL    HW298292   8.715   6.801   7.476
16485SOL     OW98293   2.790   1.518   2.133
16485SOL    HW198294   2.709   1.532   2.075
16485SOL    HW298295   2.809   1.601   2.185
16486SOL     OW98296  11.191   9.898   7.566
16486SOL    HW198297  11.197   9.902   7.666
16486SOL    HW298298  11.115   9.839   7.540
16487SOL     OW98299   7.248   6.905   1.233
16487SOL    HW198300   7.193   6.961   1.294
16487SOL    HW298301   7.233   6.808   1.254
16488SOL     OW98302   3.097   6.496   1.509
16488SOL    HW198303   3.185   6.536   1.485
16488SOL    HW298304   3.074   6.520   1.604
16489SOL     OW98305   8.749   1.127   0.938
16489SOL    HW198306   8.797   1.124   1.026
16489SOL    HW298307   8.651   1.122   0.953
16490SOL     OW98308  10.011   5.298   1.424
16490SOL    HW198309   9.934   5.281   1.486
16490SOL    HW298310  10.096   5.296   1.476
16491SOL     OW98311   8.240   1.899   7.703
16491SOL    HW198312   8.278   1.811   7.733
16491SOL    HW298313   8.264   1.970   7.768
16492SOL     OW98314   9.102   6.824   5.932
16492SOL    HW198315   9.155   6.744   5.905
16492SOL    HW298316   9.114   6.898   5.865
16493SOL     OW98317   3.561   7.849   1.422
16493SOL    HW198318   3.593   7.883   1.510
16493SOL    HW298319   3.480   7.900   1.394
16494SOL     OW98320   4.679   3.472   7.788
16494SOL    HW198321   4.707   3.381   7.755
16494SOL    HW298322   4.589   3.466   7.831
16495SOL     OW98323   7.334  11.269   0.715
16495SOL    HW198324   7.301  11.210   0.788
16495SOL    HW298325   7.422  11.308   0.740
16496SOL     OW98326   2.407   3.383   1.523
16496SOL    HW198327   2.446   3.309   1.578
16496SOL    HW298328   2.357   3.344   1.445
16497SOL     OW98329   9.649   1.165   1.025
16497SOL    HW198330   9.704   1.086   1.050
16497SOL    HW298331   9.624   1.160   0.929
16498SOL     OW98332  16.186   9.147   0.885
16498SOL    HW198333  16.144   9.236   0.901
16498SOL    HW298334  16.120   9.086   0.840
16499SOL     OW98335  15.054   7.457   6.989
16499SOL    HW198336  15.135   7.496   7.032
16499SOL    HW298337  14.999   7.410   7.059
16500SOL     OW98338   5.696  15.082   6.644
16500SOL    HW198339   5.778  15.073   6.588
16500SOL    HW298340   5.723  15.094   6.740
16501SOL     OW98341   2.710   8.832   0.026
16501SOL    HW198342   2.730   8.928   0.045
16501SOL    HW298343   2.611   8.821   0.013
16502SOL     OW98344   3.403  16.618   0.160
16502SOL    HW198345   3.502  16.628   0.153
16502SOL    HW298346   3.381  16.523   0.185
16503SOL     OW98347   1.471   9.505   0.048
16503SOL    HW198348   1.430   9.595   0.062
16503SOL    HW298349   1.559   9.501   0.097
16504SOL     OW98350  14.513   5.100   0.848
16504SOL    HW198351  14.417   5.123   0.833
16504SOL    HW298352  14.528   5.080   0.944
16505SOL     OW98353   0.703  10.328   1.372
16505SOL    HW198354   0.649  10.404   1.336
16505SOL    HW298355   0.800  10.352   1.371
16506SOL     OW98356   5.441   5.710   0.500
16506SOL    HW198357   5.464   5.797   0.456
16506SOL    HW298358   5.383   5.656   0.439
16507SOL     OW98359  13.999   3.586   7.794
16507SOL    HW198360  14.007   3.619   7.700
16507SOL    HW298361  14.031   3.656   7.857
16508SOL     OW98362  10.344  14.317   0.197
16508SOL    HW198363  10.277  14.252   0.234
16508SOL    HW298364  10.431  14.270   0.182
16509SOL     OW98365   9.483   0.005   0.026
16509SOL    HW198366   9.518  16.900   8.449
16509SOL    HW298367   9.397   0.026   8.433
16510SOL     OW98368   7.283   2.638   0.396
16510SOL    HW198369   7.300   2.542   0.416
16510SOL    HW298370   7.247   2.648   0.304
16511SOL     OW98371   1.136  10.149   0.292
16511SOL    HW198372   1.112  10.168   0.197
16511SOL    HW298373   1.168  10.233   0.337
16512SOL     OW98374   6.480  11.622   1.334
16512SOL    HW198375   6.451  11.531   1.363
16512SOL    HW298376   6.502  11.677   1.414
16513SOL     OW98377   4.399   3.013   0.517
16513SOL    HW198378   4.317   2.961   0.540
16513SOL    HW298379   4.375   3.085   0.451
16514SOL     OW98380  10.875   3.108   0.260
16514SOL    HW198381  10.873   3.152   0.171
16514SOL    HW298382  10.940   3.156   0.320
16515SOL     OW98383   4.594  12.965   7.316
16515SOL    HW198384   4.529  12.891   7.296
16515SOL    HW298385   4.644  12.989   7.233
16516SOL     OW98386   0.465   6.885   0.356
16516SOL    HW198387   0.409   6.838   0.425
16516SOL    HW298388   0.415   6.888   0.269
16517SOL     OW98389  13.791   3.575   1.503
16517SOL    HW198390  13.876   3.566   1.451
16517SOL    HW298391  13.812   3.578   1.600
16518SOL     OW98392   1.144  11.717   1.358
16518SOL    HW198393   1.096  11.729   1.445
16518SOL    HW298394   1.180  11.624   1.353
16519SOL     OW98395   6.133  15.735   0.555
16519SOL    HW198396   6.200  15.664   0.531
16519SOL    HW298397   6.108  15.786   0.473
16520SOL     OW98398   3.972  13.726   1.534
16520SOL    HW198399   3.965  13.653   1.466
16520SOL    HW298400   3.887  13.730   1.587
16521SOL     OW98401   1.439   8.832   7.491
16521SOL    HW198402   1.397   8.833   7.582
16521SOL    HW298403   1.391   8.767   7.432
16522SOL     OW98404   9.123  13.258   6.475
16522SOL    HW198405   9.079  13.272   6.564
16522SOL    HW298406   9.214  13.218   6.489
16523SOL     OW98407  13.423  12.866   6.704
16523SOL    HW198408  13.323  12.872   6.705
16523SOL    HW298409  13.451  12.788   6.648
16524SOL     OW98410  14.418  14.880   8.164
16524SOL    HW198411  14.518  14.881   8.154
16524SOL    HW298412  14.393  14.909   8.257
16525SOL     OW98413  12.321   5.077   0.983
16525SOL    HW198414  12.264   5.155   0.956
16525SOL    HW298415  12.313   5.062   1.081
16526SOL     OW98416  13.062   9.912   6.964
16526SOL    HW198417  13.065   9.865   6.876
16526SOL    HW298418  13.154   9.927   6.998
16527SOL     OW98419   5.652  16.775   6.478
16527SOL    HW198420   5.665  16.869   6.511
16527SOL    HW298421   5.735  16.745   6.430
16528SOL     OW98422   6.003   4.994   0.994
16528SOL    HW198423   6.017   4.905   0.950
16528SOL    HW298424   6.070   5.059   0.959
16529SOL     OW98425   0.454  10.862   0.251
16529SOL    HW198426   0.478  10.875   0.155
16529SOL    HW298427   0.409  10.944   0.286
16530SOL     OW98428   3.292  13.773   0.917
16530SOL    HW198429   3.319  13.738   1.006
16530SOL    HW298430   3.207  13.730   0.888
16531SOL     OW98431  11.994  11.208   7.892
16531SOL    HW198432  12.040  11.294   7.871
16531SOL    HW298433  12.052  11.154   7.953
16532SOL     OW98434   5.678  13.565   7.695
16532SOL    HW198435   5.721  13.654   7.708
16532SOL    HW298436   5.736  13.509   7.636
16533SOL     OW98437  16.022  14.037   0.832
16533SOL    HW198438  15.991  13.967   0.767
16533SOL    HW298439  16.079  13.994   0.902
16534SOL     OW98440  14.279  14.913   7.425
16534SOL    HW198441  14.287  15.005   7.385
16534SOL    HW298442  14.197  14.868   7.389
16535SOL     OW98443  14.814   8.054   0.736
16535SOL    HW198444  14.788   8.129   0.796
16535SOL    HW298445  14.900   8.014   0.768
16536SOL     OW98446   3.990   3.634   8.308
16536SOL    HW198447   4.052   3.615   8.232
16536SOL    HW298448   3.896   3.641   8.274
16537SOL     OW98449  12.739   1.362   7.689
16537SOL    HW198450  12.658   1.341   7.744
16537SOL    HW298451  12.774   1.277   7.649
16538SOL     OW98452  15.804   2.275   0.571
16538SOL    HW198453  15.738   2.344   0.544
16538SOL    HW298454  15.865   2.313   0.641
16539SOL     OW98455  10.672  16.928   6.361
16539SOL    HW198456  10.695  16.955   6.268
16539SOL    HW298457  10.637  16.835   6.362
16540SOL     OW98458   6.042  14.704   0.624
16540SOL    HW198459   6.044  14.661   0.534
16540SOL    HW298460   6.058  14.802   0.616
16541SOL     OW98461   8.219  14.807   7.064
16541SOL    HW198462   8.160  14.878   7.103
16541SOL    HW298463   8.293  14.849   7.012
16542SOL     OW98464  14.933   4.923   1.051
16542SOL    HW198465  14.871   4.910   0.974
16542SOL    HW298466  15.021   4.879   1.031
16543SOL     OW98467   0.355   6.280   8.414
16543SOL    HW198468   0.418   6.295   0.037
16543SOL    HW298469   0.261   6.280   8.448
16544SOL     OW98470   1.952  14.512   1.616
16544SOL    HW198471   1.907  14.500   1.705
16544SOL    HW298472   2.007  14.596   1.619
16545SOL     OW98473   4.269   8.310   7.689
16545SOL    HW198474   4.227   8.394   7.655
16545SOL    HW298475   4.197   8.248   7.723
16546SOL     OW98476   6.560   7.209   8.140
16546SOL    HW198477   6.537   7.112   8.139
16546SOL    HW298478   6.564   7.243   8.046
16547SOL     OW98479  12.545  10.759   0.383
16547SOL    HW198480  12.509  10.682   0.436
16547SOL    HW298481  12.582  10.828   0.445
16548SOL     OW98482  12.810   6.236   7.623
16548SOL    HW198483  12.762   6.292   7.555
16548SOL    HW298484  12.770   6.251   7.714
16549SOL     OW98485  12.128  13.521   2.310
16549SOL    HW198486  12.110  13.434   2.356
16549SOL    HW298487  12.152  13.590   2.377
16550SOL     OW98488  15.960  15.904   6.704
16550SOL    HW198489  15.880  15.962   6.693
16550SOL    HW298490  15.960  15.833   6.634
16551SOL     OW98491   9.472  11.532   1.616
16551SOL    HW198492   9.396  11.563   1.559
16551SOL    HW298493   9.482  11.594   1.694
16552SOL     OW98494   0.250  11.970   0.504
16552SOL    HW198495   0.319  12.032   0.543
16552SOL    HW298496   0.292  11.883   0.480
16553SOL     OW98497   0.586   5.811   8.029
16553SOL    HW198498   0.579   5.901   8.071
16553SOL    HW298499   0.620   5.819   7.935
16554SOL     OW98500   8.319   1.080   8.093
16554SOL    HW198501   8.315   1.146   8.017
16554SOL    HW298502   8.377   1.003   8.068
16555SOL     OW98503  11.570  12.117   6.956
16555SOL    HW198504  11.607  12.037   7.003
16555SOL    HW298505  11.642  12.162   6.904
16556SOL     OW98506   2.333   3.008   1.475
16556SOL    HW198507   2.254   2.947   1.473
16556SOL    HW298508   2.319   3.083   1.410
16557SOL     OW98509  15.380  11.588   1.218
16557SOL    HW198510  15.334  11.588   1.129
16557SOL    HW298511  15.437  11.506   1.226
16558SOL     OW98512  14.558   8.519   7.914
16558SOL    HW198513  14.649   8.486   7.893
16558SOL    HW298514  14.526   8.480   8.000
16559SOL     OW98515   5.246  11.991   0.825
16559SOL    HW198516   5.286  12.048   0.754
16559SOL    HW298517   5.193  12.049   0.888
16560SOL     OW98518   7.915   7.326   7.060
16560SOL    HW198519   7.875   7.283   7.141
16560SOL    HW298520   7.946   7.254   6.997
16561SOL     OW98521  10.036  10.289   1.389
16561SOL    HW198522  10.128  10.259   1.364
16561SOL    HW298523  10.023  10.281   1.487
16562SOL     OW98524   8.409  14.365   1.169
16562SOL    HW198525   8.332  14.303   1.183
16562SOL    HW298526   8.465  14.332   1.093
16563SOL     OW98527  13.497   3.823   6.783
16563SOL    HW198528  13.559   3.745   6.785
16563SOL    HW298529  13.405   3.794   6.807
16564SOL     OW98530  16.044   4.148   6.861
16564SOL    HW198531  16.030   4.055   6.827
16564SOL    HW298532  15.956   4.194   6.868
16565SOL     OW98533  12.743  12.119   7.611
16565SOL    HW198534  12.709  12.089   7.522
16565SOL    HW298535  12.671  12.171   7.658
16566SOL     OW98536  10.337   9.745   0.371
16566SOL    HW198537  10.308   9.786   0.285
16566SOL    HW298538  10.257   9.727   0.428
16567SOL     OW98539   5.660   0.634   6.995
16567SOL    HW198540   5.665   0.613   6.898
16567SOL    HW298541   5.588   0.579   7.038
16568SOL     OW98542  12.823   4.517   1.139
16568SOL    HW198543  12.891   4.580   1.178
16568SOL    HW298544  12.756   4.493   1.209
16569SOL     OW98545   3.481   2.015   7.608
16569SOL    HW198546   3.450   1.954   7.537
16569SOL    HW298547   3.442   1.988   7.696
16570SOL     OW98548  12.949   8.725   0.824
16570SOL    HW198549  13.007   8.722   0.742
16570SOL    HW298550  12.857   8.757   0.798
16571SOL     OW98551   3.411  16.780   1.146
16571SOL    HW198552   3.419  16.818   1.238
16571SOL    HW298553   3.374  16.687   1.152
16572SOL     OW98554   5.241  14.566   2.295
16572SOL    HW198555   5.319  14.607   2.343
16572SOL    HW298556   5.213  14.626   2.220
16573SOL     OW98557   9.580   3.382   0.329
16573SOL    HW198558   9.656   3.374   0.393
16573SOL    HW298559   9.542   3.291   0.310
16574SOL     OW98560  15.035   8.955   8.276
16574SOL    HW198561  15.107   8.891   8.302
16574SOL    HW298562  15.032   9.030   8.342
16575SOL     OW98563   7.577   6.890   7.299
16575SOL    HW198564   7.509   6.856   7.233
16575SOL    HW298565   7.665   6.899   7.253
16576SOL     OW98566  13.322   2.376   7.291
16576SOL    HW198567  13.301   2.336   7.380
16576SOL    HW298568  13.276   2.323   7.219
16577SOL     OW98569   3.980   1.605   0.067
16577SOL    HW198570   4.050   1.675   0.059
16577SOL    HW298571   3.932   1.594   8.434
16578SOL     OW98572  15.803   2.994   0.865
16578SOL    HW198573  15.723   3.033   0.910
16578SOL    HW298574  15.789   2.896   0.851
16579SOL     OW98575   4.395  16.673   8.009
16579SOL    HW198576   4.444  16.756   7.983
16579SOL    HW298577   4.394  16.665   8.109
16580SOL     OW98578  13.963   0.807   7.019
16580SOL    HW198579  13.929   0.714   7.034
16580SOL    HW298580  14.044   0.803   6.959
16581SOL     OW98581   8.589   9.910   8.098
16581SOL    HW198582   8.493   9.884   8.109
16581SOL    HW298583   8.645   9.828   8.092
16582SOL     OW98584  16.601  16.802   7.435
16582SOL    HW198585  16.563  16.846   7.517
16582SOL    HW298586  16.693  16.768   7.455
16583SOL     OW98587  11.451   3.528   8.106
16583SOL    HW198588  11.402   3.444   8.129
16583SOL    HW298589  11.490   3.520   8.015
16584SOL     OW98590   2.018  14.389   8.246
16584SOL    HW198591   2.037  14.430   8.156
16584SOL    HW298592   2.066  14.302   8.253
16585SOL     OW98593  13.566   8.727   0.265
16585SOL    HW198594  13.556   8.815   0.219
16585SOL    HW298595  13.662   8.714   0.291
16586SOL     OW98596   0.461   6.337   7.547
16586SOL    HW198597   0.555   6.367   7.533
16586SOL    HW298598   0.434   6.275   7.473
16587SOL     OW98599   7.828   9.681   7.240
16587SOL    HW198600   7.835   9.582   7.249
16587SOL    HW298601   7.734   9.710   7.255
16588SOL     OW98602   9.907   0.333   1.017
16588SOL    HW198603   9.971   0.260   1.040
16588SOL    HW298604   9.814   0.297   1.017
16589SOL     OW98605   8.527  13.585   0.774
16589SOL    HW198606   8.496  13.521   0.704
16589SOL    HW298607   8.522  13.541   0.864
16590SOL     OW98608  14.190   7.360   7.986
16590SOL    HW198609  14.174   7.409   7.901
16590SOL    HW298610  14.123   7.286   7.995
16591SOL     OW98611  11.439   3.767   6.691
16591SOL    HW198612  11.519   3.795   6.637
16591SOL    HW298613  11.470   3.717   6.772
16592SOL     OW98614  12.943   6.136   7.122
16592SOL    HW198615  12.984   6.045   7.128
16592SOL    HW298616  13.015   6.205   7.120
16593SOL     OW98617   3.743  16.577   1.937
16593SOL    HW198618   3.667  16.561   2.000
16593SOL    HW298619   3.800  16.652   1.973
16594SOL     OW98620  13.367   5.686   6.113
16594SOL    HW198621  13.436   5.665   6.182
16594SOL    HW298622  13.363   5.785   6.098
16595SOL     OW98623  12.425   9.317   8.088
16595SOL    HW198624  12.519   9.324   8.056
16595SOL    HW298625  12.412   9.231   8.136
16596SOL     OW98626  12.866   5.408   1.383
16596SOL    HW198627  12.810   5.478   1.338
16596SOL    HW298628  12.890   5.336   1.318
16597SOL     OW98629  13.696   5.063   1.232
16597SOL    HW198630  13.702   5.152   1.277
16597SOL    HW298631  13.753   5.063   1.149
16598SOL     OW98632   1.935  11.023   7.337
16598SOL    HW198633   1.898  11.041   7.247
16598SOL    HW298634   1.955  10.925   7.346
16599SOL     OW98635   3.620  11.445   7.558
16599SOL    HW198636   3.687  11.455   7.631
16599SOL    HW298637   3.591  11.350   7.552
16600SOL     OW98638  14.152  11.832   2.128
16600SOL    HW198639  14.105  11.868   2.209
16600SOL    HW298640  14.144  11.733   2.126
16601SOL     OW98641   8.960  15.831   8.202
16601SOL    HW198642   8.970  15.847   8.300
16601SOL    HW298643   8.932  15.916   8.157
16602SOL     OW98644   6.951   6.517   7.522
16602SOL    HW198645   6.992   6.559   7.603
16602SOL    HW298646   6.975   6.570   7.441
16603SOL     OW98647  15.935  12.591   1.478
16603SOL    HW198648  15.947  12.595   1.378
16603SOL    HW298649  15.957  12.499   1.510
16604SOL     OW98650  12.960  11.308   0.816
16604SOL    HW198651  13.036  11.372   0.812
16604SOL    HW298652  12.991  11.218   0.785
16605SOL     OW98653  15.495   4.506   5.981
16605SOL    HW198654  15.494   4.598   5.941
16605SOL    HW298655  15.479   4.438   5.909
16606SOL     OW98656  10.395  11.739   7.654
16606SOL    HW198657  10.299  11.765   7.641
16606SOL    HW298658  10.400  11.644   7.684
16607SOL     OW98659  15.810   2.308   8.445
16607SOL    HW198660  15.755   2.385   8.412
16607SOL    HW298661  15.889   2.343   0.041
16608SOL     OW98662   8.136   1.587   7.376
16608SOL    HW198663   8.195   1.511   7.400
16608SOL    HW298664   8.041   1.564   7.397
16609SOL     OW98665   8.207  15.291   0.861
16609SOL    HW198666   8.298  15.311   0.897
16609SOL    HW298667   8.209  15.292   0.761
16610SOL     OW98668  16.741   6.689   1.659
16610SOL    HW198669  16.813   6.634   1.702
16610SOL    HW298670  16.653   6.667   1.701
16611SOL     OW98671  11.928  12.067   1.261
16611SOL    HW198672  11.956  12.144   1.319
16611SOL    HW298673  11.836  12.038   1.287
16612SOL     OW98674   0.981   5.109   6.736
16612SOL    HW198675   0.987   5.010   6.735
16612SOL    HW298676   1.007   5.146   6.647
16613SOL     OW98677   0.655   4.250   7.784
16613SOL    HW198678   0.672   4.239   7.882
16613SOL    HW298679   0.579   4.314   7.770
16614SOL     OW98680  14.305   7.676   6.309
16614SOL    HW198681  14.376   7.611   6.335
16614SOL    HW298682  14.341   7.739   6.240
16615SOL     OW98683   6.433  14.307   0.396
16615SOL    HW198684   6.495  14.310   0.475
16615SOL    HW298685   6.424  14.399   0.357
16616SOL     OW98686  16.327   7.508   1.454
16616SOL    HW198687  16.348   7.541   1.546
16616SOL    HW298688  16.294   7.584   1.398
16617SOL     OW98689   2.786   3.251   0.159
16617SOL    HW198690   2.875   3.216   0.127
16617SOL    HW298691   2.791   3.268   0.258
16618SOL     OW98692  13.911  13.271   0.795
16618SOL    HW198693  13.959  13.184   0.779
16618SOL    HW298694  13.977  13.345   0.799
16619SOL     OW98695   0.876   5.983   7.261
16619SOL    HW198696   0.924   6.062   7.222
16619SOL    HW298697   0.792   5.967   7.208
16620SOL     OW98698  16.777   9.649   1.152
16620SOL    HW198699  16.871   9.683   1.144
16620SOL    HW298700  16.717   9.725   1.175
16621SOL     OW98701  14.485   6.385   6.835
16621SOL    HW198702  14.496   6.427   6.744
16621SOL    HW298703  14.401   6.330   6.836
16622SOL     OW98704   6.742   8.829   0.603
16622SOL    HW198705   6.669   8.819   0.535
16622SOL    HW298706   6.807   8.753   0.593
16623SOL     OW98707   4.071   1.224   1.976
16623SOL    HW198708   4.045   1.128   1.987
16623SOL    HW298709   4.133   1.249   2.050
16624SOL     OW98710   2.933   7.946   8.210
16624SOL    HW198711   2.898   7.873   8.268
16624SOL    HW298712   2.902   8.035   8.244
16625SOL     OW98713   1.878   2.450   8.046
16625SOL    HW198714   1.863   2.466   8.144
16625SOL    HW298715   1.817   2.508   7.993
16626SOL     OW98716   6.155   3.984   0.355
16626SOL    HW198717   6.229   4.002   0.290
16626SOL    HW298718   6.125   3.889   0.347
16627SOL     OW98719   2.547   2.684   7.790
16627SOL    HW198720   2.549   2.628   7.873
16627SOL    HW298721   2.487   2.763   7.804
16628SOL     OW98722  14.909  16.228   7.232
16628SOL    HW198723  14.904  16.131   7.255
16628SOL    HW298724  14.940  16.279   7.312
16629SOL     OW98725  16.734   0.257   0.145
16629SOL    HW198726  16.801   0.322   0.182
16629SOL    HW298727  16.745   0.169   0.191
16630SOL     OW98728  12.630  10.870   1.843
16630SOL    HW198729  12.530  10.880   1.844
16630SOL    HW298730  12.653  10.773   1.839
16631SOL     OW98731  11.810   1.366   6.955
16631SOL    HW198732  11.844   1.284   7.001
16631SOL    HW298733  11.766   1.426   7.022
16632SOL     OW98734   4.526  13.021   8.286
16632SOL    HW198735   4.599  12.969   8.331
16632SOL    HW298736   4.462  12.958   8.243
16633SOL     OW98737   5.342   8.071   6.759
16633SOL    HW198738   5.433   8.031   6.745
16633SOL    HW298739   5.294   8.073   6.671
16634SOL     OW98740   6.473   5.024   7.123
16634SOL    HW198741   6.520   4.939   7.147
16634SOL    HW298742   6.504   5.098   7.183
16635SOL     OW98743  11.207  12.384   1.693
16635SOL    HW198744  11.131  12.376   1.629
16635SOL    HW298745  11.180  12.443   1.769
16636SOL     OW98746   5.422  11.135   8.232
16636SOL    HW198747   5.491  11.077   8.187
16636SOL    HW298748   5.389  11.088   8.314
16637SOL     OW98749   6.245   7.665   6.506
16637SOL    HW198750   6.298   7.632   6.427
16637SOL    HW298751   6.157   7.701   6.474
16638SOL     OW98752   0.218   2.965   7.058
16638SOL    HW198753   0.296   3.014   7.097
16638SOL    HW298754   0.134   3.017   7.075
16639SOL     OW98755  15.739   6.415   1.600
16639SOL    HW198756  15.740   6.510   1.567
16639SOL    HW298757  15.781   6.411   1.691
16640SOL     OW98758  15.267   6.348   7.263
16640SOL    HW198759  15.248   6.418   7.194
16640SOL    HW298760  15.267   6.389   7.354
16641SOL     OW98761  13.392  12.069   0.753
16641SOL    HW198762  13.392  12.145   0.817
16641SOL    HW298763  13.332  12.090   0.676
16642SOL     OW98764  13.750  15.357   7.097
16642SOL    HW198765  13.660  15.357   7.054
16642SOL    HW298766  13.800  15.274   7.070
16643SOL     OW98767  13.041  11.317   6.911
16643SOL    HW198768  12.960  11.283   6.958
16643SOL    HW298769  13.066  11.253   6.838
16644SOL     OW98770   4.327   3.143   6.938
16644SOL    HW198771   4.310   3.223   6.881
16644SOL    HW298772   4.357   3.067   6.881
16645SOL     OW98773  14.374  14.388   0.331
16645SOL    HW198774  14.282  14.363   0.361
16645SOL    HW298775  14.441  14.329   0.376
16646SOL     OW98776   7.060   8.261   7.304
16646SOL    HW198777   7.030   8.167   7.322
16646SOL    HW298778   7.157   8.261   7.280
16647SOL     OW98779  14.766  15.372   6.343
16647SOL    HW198780  14.812  15.294   6.384
16647SOL    HW298781  14.670  15.350   6.326
16648SOL     OW98782   3.039   3.665   7.201
16648SOL    HW198783   3.121   3.654   7.258
16648SOL    HW298784   3.042   3.600   7.125
16649SOL     OW98785   0.949  11.234   6.630
16649SOL    HW198786   1.035  11.252   6.583
16649SOL    HW298787   0.890  11.177   6.573
16650SOL     OW98788  14.258  12.142   7.893
16650SOL    HW198789  14.190  12.194   7.842
16650SOL    HW298790  14.217  12.055   7.923
16651SOL     OW98791   7.952   9.131   7.908
16651SOL    HW198792   7.985   9.224   7.923
16651SOL    HW298793   7.859   9.134   7.870
16652SOL     OW98794   2.155  11.574   7.974
16652SOL    HW198795   2.074  11.521   8.001
16652SOL    HW298796   2.237  11.521   7.994
16653SOL     OW98797  13.992  14.777   1.874
16653SOL    HW198798  13.906  14.746   1.915
16653SOL    HW298799  14.065  14.714   1.900
16654SOL     OW98800  13.213   2.084   6.101
16654SOL    HW198801  13.127   2.132   6.084
16654SOL    HW298802  13.264   2.132   6.172
16655SOL     OW98803  10.280   9.839   0.115
16655SOL    HW198804  10.316   9.932   0.111
16655SOL    HW298805  10.239   9.815   0.028
16656SOL     OW98806   1.346   3.748   8.158
16656SOL    HW198807   1.417   3.712   8.098
16656SOL    HW298808   1.262   3.762   8.106
16657SOL     OW98809   6.828   1.007   6.507
16657SOL    HW198810   6.740   1.046   6.477
16657SOL    HW298811   6.822   0.984   6.604
16658SOL     OW98812  13.300  11.420   6.959
16658SOL    HW198813  13.292  11.514   6.993
16658SOL    HW298814  13.209  11.383   6.943
16659SOL     OW98815  11.408   9.646   7.184
16659SOL    HW198816  11.424   9.571   7.120
16659SOL    HW298817  11.486   9.709   7.182
16660SOL     OW98818   2.603  14.941   0.302
16660SOL    HW198819   2.700  14.918   0.288
16660SOL    HW298820   2.550  14.857   0.313
16661SOL     OW98821   0.939  15.691   8.435
16661SOL    HW198822   0.922  15.709   8.338
16661SOL    HW298823   0.851  15.685   0.029
16662SOL     OW98824   3.977   4.540   6.321
16662SOL    HW198825   3.896   4.489   6.292
16662SOL    HW298826   4.032   4.562   6.241
16663SOL     OW98827  13.207   7.837   0.597
16663SOL    HW198828  13.153   7.767   0.643
16663SOL    HW298829  13.304   7.822   0.617
16664SOL     OW98830   4.145  16.080   8.296
16664SOL    HW198831   4.163  16.086   8.197
16664SOL    HW298832   4.078  16.149   8.322
16665SOL     OW98833   8.683  13.124   7.492
16665SOL    HW198834   8.642  13.053   7.549
16665SOL    HW298835   8.625  13.206   7.494
16666SOL     OW98836   8.410  12.327   0.853
16666SOL    HW198837   8.437  12.374   0.769
16666SOL    HW298838   8.310  12.322   0.857
16667SOL     OW98839   2.124  14.473   7.496
16667SOL    HW198840   2.153  14.384   7.531
16667SOL    HW298841   2.185  14.502   7.423
16668SOL     OW98842   0.267  11.158   6.840
16668SOL    HW198843   0.249  11.082   6.903
16668SOL    HW298844   0.268  11.244   6.891
16669SOL     OW98845  14.573   9.172   2.105
16669SOL    HW198846  14.664   9.137   2.083
16669SOL    HW298847  14.581   9.243   2.174
16670SOL     OW98848  11.253   7.492   1.206
16670SOL    HW198849  11.158   7.480   1.233
16670SOL    HW298850  11.302   7.543   1.277
16671SOL     OW98851  13.205   6.311   5.845
16671SOL    HW198852  13.203   6.244   5.770
16671SOL    HW298853  13.247   6.396   5.812
16672SOL     OW98854  12.785   1.246   0.511
16672SOL    HW198855  12.813   1.328   0.462
16672SOL    HW298856  12.863   1.183   0.518
16673SOL     OW98857   6.287  15.383   1.707
16673SOL    HW198858   6.239  15.470   1.716
16673SOL    HW298859   6.295  15.340   1.796
16674SOL     OW98860   2.615   8.182   8.097
16674SOL    HW198861   2.565   8.246   8.154
16674SOL    HW298862   2.702   8.222   8.069
16675SOL     OW98863   7.561  11.884   1.372
16675SOL    HW198864   7.550  11.965   1.316
16675SOL    HW298865   7.626  11.903   1.446
16676SOL     OW98866  14.681   7.501   0.733
16676SOL    HW198867  14.748   7.510   0.807
16676SOL    HW298868  14.726   7.461   0.653
16677SOL     OW98869  16.797  15.684   6.941
16677SOL    HW198870  16.776  15.761   7.001
16677SOL    HW298871  16.713  15.649   6.900
16678SOL     OW98872   0.520  14.794   8.442
16678SOL    HW198873   0.510  14.793   8.343
16678SOL    HW298874   0.505  14.702   0.024
16679SOL     OW98875  14.031  13.007   1.243
16679SOL    HW198876  14.111  13.056   1.277
16679SOL    HW298877  13.949  13.059   1.265
16680SOL     OW98878  14.549   7.410   7.592
16680SOL    HW198879  14.531   7.496   7.640
16680SOL    HW298880  14.644   7.383   7.608
16681SOL     OW98881  15.300  15.424   0.629
16681SOL    HW198882  15.378  15.445   0.688
16681SOL    HW298883  15.332  15.403   0.537
16682SOL     OW98884   9.614   7.189   7.160
16682SOL    HW198885   9.702   7.191   7.112
16682SOL    HW298886   9.549   7.248   7.114
16683SOL     OW98887   1.306   4.407   0.481
16683SOL    HW198888   1.317   4.358   0.395
16683SOL    HW298889   1.396   4.420   0.523
16684SOL     OW98890   6.748  16.806   7.009
16684SOL    HW198891   6.665  16.834   6.962
16684SOL    HW298892   6.781  16.720   6.970
16685SOL     OW98893  10.846  15.381   0.307
16685SOL    HW198894  10.872  15.300   0.254
16685SOL    HW298895  10.866  15.463   0.253
16686SOL     OW98896  16.821   1.832   7.129
16686SOL    HW198897  16.766   1.751   7.110
16686SOL    HW298898  16.899   1.835   7.067
16687SOL     OW98899   7.780  12.475   8.086
16687SOL    HW198900   7.698  12.508   8.039
16687SOL    HW298901   7.796  12.528   8.169
16688SOL     OW98902   7.889   7.172   7.789
16688SOL    HW198903   7.954   7.199   7.860
16688SOL    HW298904   7.900   7.230   7.708
16689SOL     OW98905   7.811   6.481   0.186
16689SOL    HW198906   7.850   6.498   0.276
16689SOL    HW298907   7.714   6.505   0.186
16690SOL     OW98908   1.611   2.756   0.000
16690SOL    HW198909   1.599   2.661   8.426
16690SOL    HW298910   1.705   2.771   0.031
16691SOL     OW98911  14.627  15.664   0.177
16691SOL    HW198912  14.536  15.694   0.206
16691SOL    HW298913  14.618  15.600   0.101
16692SOL     OW98914   8.249  13.969   7.145
16692SOL    HW198915   8.318  14.041   7.153
16692SOL    HW298916   8.258  13.924   7.056
16693SOL     OW98917  15.704   5.648   7.738
16693SOL    HW198918  15.644   5.712   7.691
16693SOL    HW298919  15.655   5.563   7.756
16694SOL     OW98920   9.555   9.621   1.345
16694SOL    HW198921   9.463   9.636   1.309
16694SOL    HW298922   9.566   9.524   1.369
16695SOL     OW98923  15.172   0.846   0.706
16695SOL    HW198924  15.145   0.909   0.780
16695SOL    HW298925  15.098   0.842   0.639
16696SOL     OW98926   1.756   3.412   7.389
16696SOL    HW198927   1.666   3.449   7.366
16696SOL    HW298928   1.749   3.313   7.404
16697SOL     OW98929   2.659  13.208   7.682
16697SOL    HW198930   2.687  13.179   7.591
16697SOL    HW298931   2.714  13.160   7.750
16698SOL     OW98932  11.411  12.545   0.505
16698SOL    HW198933  11.324  12.539   0.555
16698SOL    HW298934  11.427  12.639   0.477
16699SOL     OW98935  15.782  11.023   0.930
16699SOL    HW198936  15.714  10.961   0.969
16699SOL    HW298937  15.848  11.049   1.001
16700SOL     OW98938   6.989  12.681   8.192
16700SOL    HW198939   6.974  12.594   8.240
16700SOL    HW298940   7.045  12.741   8.249
16701SOL     OW98941   9.716   5.413   0.536
16701SOL    HW198942   9.813   5.405   0.562
16701SOL    HW298943   9.660   5.363   0.603
16702SOL     OW98944   8.746  10.584   7.935
16702SOL    HW198945   8.775  10.565   8.029
16702SOL    HW298946   8.689  10.508   7.902
16703SOL     OW98947   7.389  14.700   0.550
16703SOL    HW198948   7.311  14.734   0.602
16703SOL    HW298949   7.433  14.775   0.503
16704SOL     OW98950   0.574  13.917   7.074
16704SOL    HW198951   0.645  13.912   7.144
16704SOL    HW298952   0.578  14.005   7.028
16705SOL     OW98953   8.507   0.175   6.384
16705SOL    HW198954   8.528   0.272   6.372
16705SOL    HW298955   8.516   0.127   6.297
16706SOL     OW98956  13.215  14.166   0.046
16706SOL    HW198957  13.147  14.100   0.079
16706SOL    HW298958  13.191  14.257   0.080
16707SOL     OW98959   4.322   8.081   1.369
16707SOL    HW198960   4.224   8.088   1.386
16707SOL    HW298961   4.364   8.027   1.442
16708SOL     OW98962  12.709  14.814   1.156
16708SOL    HW198963  12.804  14.827   1.185
16708SOL    HW298964  12.659  14.900   1.166
16709SOL     OW98965   8.147  14.287   1.602
16709SOL    HW198966   8.213  14.318   1.671
16709SOL    HW298967   8.057  14.277   1.645
16710SOL     OW98968   2.910   2.260   0.633
16710SOL    HW198969   2.953   2.194   0.571
16710SOL    HW298970   2.840   2.214   0.688
16711SOL     OW98971   0.268   1.617   0.318
16711SOL    HW198972   0.314   1.617   0.229
16711SOL    HW298973   0.283   1.704   0.364
16712SOL     OW98974   1.794   7.770   7.435
16712SOL    HW198975   1.776   7.679   7.399
16712SOL    HW298976   1.853   7.764   7.515
16713SOL     OW98977  10.174   0.788   8.177
16713SOL    HW198978  10.151   0.864   8.116
16713SOL    HW298979  10.100   0.721   8.177
16714SOL     OW98980  11.934  11.333   1.324
16714SOL    HW198981  11.922  11.429   1.298
16714SOL    HW298982  11.859  11.279   1.285
16715SOL     OW98983  11.488   6.409   1.242
16715SOL    HW198984  11.587   6.408   1.229
16715SOL    HW298985  11.443   6.365   1.165
16716SOL     OW98986   0.091  11.013   8.215
16716SOL    HW198987   0.051  11.105   8.209
16716SOL    HW298988   0.030  10.948   8.171
16717SOL     OW98989   1.184   6.572   7.738
16717SOL    HW198990   1.163   6.549   7.643
16717SOL    HW298991   1.283   6.578   7.749
16718SOL     OW98992   9.551  15.346   0.150
16718SOL    HW198993   9.595  15.271   0.102
16718SOL    HW298994   9.483  15.310   0.214
16719SOL     OW98995  16.566   7.407   0.384
16719SOL    HW198996  16.476   7.437   0.353
16719SOL    HW298997  16.599   7.333   0.326
16720SOL     OW98998   0.300   8.230   0.562
16720SOL    HW198999   0.311   8.325   0.532
16720SOL    HW299000   0.380   8.201   0.613
16721SOL     OW99001   4.362  13.967   2.042
16721SOL    HW199002   4.416  14.045   2.009
16721SOL    HW299003   4.416  13.883   2.033
16722SOL     OW99004  15.863   5.617   0.568
16722SOL    HW199005  15.836   5.539   0.624
16722SOL    HW299006  15.801   5.693   0.585
16723SOL     OW99007   2.985  10.403   6.927
16723SOL    HW199008   3.049  10.476   6.901
16723SOL    HW299009   2.933  10.373   6.847
16724SOL     OW99010   1.121   9.703   1.390
16724SOL    HW199011   1.079   9.613   1.384
16724SOL    HW299012   1.081   9.753   1.468
16725SOL     OW99013   0.467  13.625   1.794
16725SOL    HW199014   0.448  13.713   1.838
16725SOL    HW299015   0.529  13.572   1.851
16726SOL     OW99016   6.713  15.447   1.073
16726SOL    HW199017   6.752  15.366   1.029
16726SOL    HW299018   6.685  15.423   1.166
16727SOL     OW99019  12.136   2.961   1.550
16727SOL    HW199020  12.206   2.904   1.593
16727SOL    HW299021  12.097   3.024   1.617
16728SOL     OW99022   5.665   9.655   7.082
16728SOL    HW199023   5.603   9.621   7.012
16728SOL    HW299024   5.729   9.720   7.041
16729SOL     OW99025  16.902   9.291   8.207
16729SOL    HW199026  16.865   9.309   8.116
16729SOL    HW299027  16.833   9.246   8.264
16730SOL     OW99028  11.304   3.043   7.553
16730SOL    HW199029  11.301   3.113   7.482
16730SOL    HW299030  11.262   3.077   7.637
16731SOL     OW99031   3.397  13.495   7.414
16731SOL    HW199032   3.395  13.414   7.355
16731SOL    HW299033   3.491  13.523   7.429
16732SOL     OW99034   7.326   9.649   0.937
16732SOL    HW199035   7.416   9.691   0.922
16732SOL    HW299036   7.263   9.680   0.866
16733SOL     OW99037  11.915  14.920   1.408
16733SOL    HW199038  11.851  14.850   1.438
16733SOL    HW299039  12.007  14.897   1.439
16734SOL     OW99040   9.220   8.387   7.508
16734SOL    HW199041   9.244   8.319   7.439
16734SOL    HW299042   9.125   8.375   7.535
16735SOL     OW99043   0.282  15.910   6.709
16735SOL    HW199044   0.264  15.850   6.787
16735SOL    HW299045   0.208  15.901   6.643
16736SOL     OW99046   6.452   2.289   6.417
16736SOL    HW199047   6.547   2.265   6.436
16736SOL    HW299048   6.396   2.207   6.419
16737SOL     OW99049  10.367   5.308   1.115
16737SOL    HW199050  10.307   5.383   1.089
16737SOL    HW299051  10.404   5.265   1.032
16738SOL     OW99052   3.764  14.819   1.698
16738SOL    HW199053   3.862  14.805   1.707
16738SOL    HW299054   3.719  14.733   1.677
16739SOL     OW99055   4.279   5.022   7.673
16739SOL    HW199056   4.241   5.063   7.756
16739SOL    HW299057   4.225   4.941   7.648
16740SOL     OW99058   3.172   0.254   7.357
16740SOL    HW199059   3.110   0.332   7.365
16740SOL    HW299060   3.262   0.278   7.391
16741SOL     OW99061  12.563   0.133   8.449
16741SOL    HW199062  12.513   0.169   8.370
16741SOL    HW299063  12.650   0.182   0.003
16742SOL     OW99064   8.916   5.429   8.270
16742SOL    HW199065   8.900   5.337   8.305
16742SOL    HW299066   8.959   5.424   8.180
16743SOL     OW99067  12.333   0.137   0.351
16743SOL    HW199068  12.426   0.120   0.382
16743SOL    HW299069  12.322   0.102   0.258
16744SOL     OW99070   2.827  16.149   0.256
16744SOL    HW199071   2.911  16.116   0.214
16744SOL    HW299072   2.840  16.157   0.355
16745SOL     OW99073   8.317  16.706   7.085
16745SOL    HW199074   8.409  16.679   7.113
16745SOL    HW299075   8.280  16.771   7.151
16746SOL     OW99076   9.753   0.419   7.953
16746SOL    HW199077   9.802   0.503   7.932
16746SOL    HW299078   9.813   0.357   8.003
16747SOL     OW99079   1.900  16.445   1.650
16747SOL    HW199080   1.884  16.512   1.578
16747SOL    HW299081   1.814  16.431   1.701
16748SOL     OW99082   6.371  14.289   1.683
16748SOL    HW199083   6.417  14.209   1.720
16748SOL    HW299084   6.276  14.267   1.663
16749SOL     OW99085  10.998   8.644   8.188
16749SOL    HW199086  10.907   8.671   8.157
16749SOL    HW299087  11.056   8.725   8.196
16750SOL     OW99088   6.906   5.946   7.856
16750SOL    HW199089   6.817   5.947   7.900
16750SOL    HW299090   6.932   6.039   7.831
16751SOL     OW99091   5.934   5.750   7.786
16751SOL    HW199092   6.028   5.743   7.753
16751SOL    HW299093   5.879   5.678   7.744
16752SOL     OW99094   8.386   0.634   0.530
16752SOL    HW199095   8.410   0.604   0.622
16752SOL    HW299096   8.426   0.724   0.513
16753SOL     OW99097   2.918  12.657   0.757
16753SOL    HW199098   2.941  12.747   0.794
16753SOL    HW299099   2.830  12.662   0.711
16754SOL     OW99100   8.457  10.758   0.404
16754SOL    HW199101   8.366  10.765   0.363
16754SOL    HW299102   8.469  10.829   0.473
16755SOL     OW99103   2.529   9.364   7.668
16755SOL    HW199104   2.478   9.295   7.618
16755SOL    HW299105   2.480   9.388   7.752
16756SOL     OW99106   1.508  10.658   0.435
16756SOL    HW199107   1.491  10.724   0.361
16756SOL    HW299108   1.595  10.611   0.418
16757SOL     OW99109  15.725   9.087   0.017
16757SOL    HW199110  15.790   9.092   8.395
16757SOL    HW299111  15.717   8.992   0.047
16758SOL     OW99112  15.934  11.708   7.925
16758SOL    HW199113  15.916  11.693   7.828
16758SOL    HW299114  15.908  11.627   7.977
16759SOL     OW99115   6.816   0.171   0.803
16759SOL    HW199116   6.877   0.155   0.726
16759SOL    HW299117   6.855   0.130   0.886
16760SOL     OW99118   8.954  14.067   1.137
16760SOL    HW199119   8.942  14.125   1.218
16760SOL    HW299120   9.010  13.988   1.161
16761SOL     OW99121  16.351   2.959   0.323
16761SOL    HW199122  16.448   2.960   0.346
16761SOL    HW299123  16.339   2.929   0.229
16762SOL     OW99124   3.328   5.404   0.413
16762SOL    HW199125   3.397   5.458   0.461
16762SOL    HW299126   3.300   5.452   0.330
16763SOL     OW99127  16.575   9.857   2.050
16763SOL    HW199128  16.634   9.817   2.120
16763SOL    HW299129  16.507   9.916   2.095
16764SOL     OW99130   6.103  10.250   0.054
16764SOL    HW199131   6.012  10.267   0.093
16764SOL    HW299132   6.145  10.336   0.028
16765SOL     OW99133  10.580   7.057   2.225
16765SOL    HW199134  10.672   7.076   2.259
16765SOL    HW299135  10.523   7.138   2.238
16766SOL     OW99136   1.261   2.438   1.253
16766SOL    HW199137   1.169   2.446   1.291
16766SOL    HW299138   1.282   2.341   1.239
16767SOL     OW99139   5.989  15.605   0.084
16767SOL    HW199140   5.991  15.509   0.055
16767SOL    HW299141   6.082  15.636   0.100
16768SOL     OW99142   7.412   4.363   8.326
16768SOL    HW199143   7.331   4.397   8.277
16768SOL    HW299144   7.430   4.269   8.299
16769SOL     OW99145  11.642  16.098   7.790
16769SOL    HW199146  11.722  16.152   7.763
16769SOL    HW299147  11.606  16.050   7.711
16770SOL     OW99148   2.963   1.024   1.884
16770SOL    HW199149   2.997   0.940   1.926
16770SOL    HW299150   3.024   1.100   1.908
16771SOL     OW99151  15.831   4.208   6.388
16771SOL    HW199152  15.921   4.180   6.421
16771SOL    HW299153  15.775   4.127   6.373
16772SOL     OW99154   9.048   9.590   0.298
16772SOL    HW199155   9.109   9.629   0.367
16772SOL    HW299156   8.991   9.520   0.340
16773SOL     OW99157   4.898  14.215   8.308
16773SOL    HW199158   4.948  14.201   8.223
16773SOL    HW299159   4.801  14.193   8.293
16774SOL     OW99160  10.055  14.552   7.238
16774SOL    HW199161  10.037  14.477   7.301
16774SOL    HW299162  10.071  14.514   7.146
16775SOL     OW99163   9.715   3.066   0.449
16775SOL    HW199164   9.742   3.155   0.486
16775SOL    HW299165   9.628   3.076   0.401
16776SOL     OW99166   4.820   7.319   8.029
16776SOL    HW199167   4.736   7.347   8.076
16776SOL    HW299168   4.807   7.229   7.987
16777SOL     OW99169   4.487   9.723   7.140
16777SOL    HW199170   4.463   9.800   7.199
16777SOL    HW299171   4.421   9.716   7.066
16778SOL     OW99172   4.667   5.392   0.169
16778SOL    HW199173   4.722   5.338   0.233
16778SOL    HW299174   4.619   5.331   0.106
16779SOL     OW99175  15.303   4.665   6.937
16779SOL    HW199176  15.214   4.621   6.930
16779SOL    HW299177  15.375   4.596   6.935
16780SOL     OW99178  16.797  14.159   1.802
16780SOL    HW199179  16.845  14.236   1.842
16780SOL    HW299180  16.724  14.130   1.863
16781SOL     OW99181   3.932   7.420   8.200
16781SOL    HW199182   3.921   7.365   8.283
16781SOL    HW299183   4.021   7.466   8.202
16782SOL     OW99184   9.161   3.513   8.069
16782SOL    HW199185   9.255   3.535   8.093
16782SOL    HW299186   9.140   3.548   7.978
16783SOL     OW99187  16.356  16.128   7.204
16783SOL    HW199188  16.379  16.123   7.106
16783SOL    HW299189  16.347  16.224   7.231
16784SOL     OW99190  15.860   6.986   0.623
16784SOL    HW199191  15.916   6.994   0.540
16784SOL    HW299192  15.832   6.891   0.636
16785SOL     OW99193   4.409  13.086   2.214
16785SOL    HW199194   4.352  13.006   2.236
16785SOL    HW299195   4.358  13.170   2.232
16786SOL     OW99196  14.700  16.620   1.290
16786SOL    HW199197  14.688  16.719   1.301
16786SOL    HW299198  14.722  16.579   1.378
16787SOL     OW99199  14.076   3.260   6.963
16787SOL    HW199200  14.073   3.175   7.016
16787SOL    HW299201  14.045   3.336   7.019
16788SOL     OW99202  12.957   0.133   6.571
16788SOL    HW199203  12.941   0.219   6.522
16788SOL    HW299204  13.056   0.118   6.579
16789SOL     OW99205  11.094  14.761   2.630
16789SOL    HW199206  11.117  14.664   2.620
16789SOL    HW299207  11.108  14.807   2.542
16790SOL     OW99208  11.154   4.962   7.898
16790SOL    HW199209  11.148   5.014   7.813
16790SOL    HW299210  11.249   4.952   7.925
16791SOL     OW99211  10.119   5.467   1.781
16791SOL    HW199212  10.192   5.512   1.833
16791SOL    HW299213  10.057   5.537   1.745
16792SOL     OW99214   7.885  15.344   6.564
16792SOL    HW199215   7.961  15.344   6.499
16792SOL    HW299216   7.804  15.384   6.520
16793SOL     OW99217   7.786   9.594   8.430
16793SOL    HW199218   7.727   9.517   0.002
16793SOL    HW299219   7.870   9.559   8.389
16794SOL     OW99220   9.764  11.508   1.064
16794SOL    HW199221   9.788  11.419   1.027
16794SOL    HW299222   9.665  11.520   1.061
16795SOL     OW99223   2.228   6.118   7.685
16795SOL    HW199224   2.185   6.208   7.694
16795SOL    HW299225   2.257   6.085   7.775
16796SOL     OW99226   3.458  12.826   7.079
16796SOL    HW199227   3.478  12.826   6.981
16796SOL    HW299228   3.435  12.733   7.109
16797SOL     OW99229   4.796  13.443   1.339
16797SOL    HW199230   4.745  13.513   1.391
16797SOL    HW299231   4.884  13.426   1.384
16798SOL     OW99232  14.854   8.364   8.323
16798SOL    HW199233  14.790   8.401   8.390
16798SOL    HW299234  14.895   8.439   8.271
16799SOL     OW99235  10.082   8.518   8.276
16799SOL    HW199236  10.153   8.539   8.344
16799SOL    HW299237  10.120   8.526   8.184
16800SOL     OW99238   2.329   9.701   7.081
16800SOL    HW199239   2.241   9.747   7.066
16800SOL    HW299240   2.327   9.610   7.040
16801SOL     OW99241  10.278   1.648   5.852
16801SOL    HW199242  10.222   1.691   5.781
16801SOL    HW299243  10.362   1.612   5.811
16802SOL     OW99244  15.041  16.398   7.051
16802SOL    HW199245  15.005  16.394   6.958
16802SOL    HW299246  14.995  16.330   7.108
16803SOL     OW99247   7.642   6.284   7.156
16803SOL    HW199248   7.657   6.236   7.242
16803SOL    HW299249   7.638   6.218   7.081
16804SOL     OW99250   7.352  15.764   0.845
16804SOL    HW199251   7.284  15.793   0.912
16804SOL    HW299252   7.332  15.806   0.756
16805SOL     OW99253   6.802   6.845   8.012
16805SOL    HW199254   6.895   6.876   8.032
16805SOL    HW299255   6.757   6.819   8.098
16806SOL     OW99256   2.278   8.453   1.825
16806SOL    HW199257   2.298   8.496   1.737
16806SOL    HW299258   2.316   8.508   1.899
16807SOL     OW99259   5.092  12.692   6.378
16807SOL    HW199260   5.174  12.740   6.346
16807SOL    HW299261   5.021  12.698   6.308
16808SOL     OW99262  16.181   6.987   7.870
16808SOL    HW199263  16.095   6.955   7.829
16808SOL    HW299264  16.169   7.079   7.906
16809SOL     OW99265  13.155  10.287   1.223
16809SOL    HW199266  13.213  10.359   1.261
16809SOL    HW299267  13.209  10.227   1.165
16810SOL     OW99268   8.486   1.043   7.334
16810SOL    HW199269   8.518   0.959   7.289
16810SOL    HW299270   8.407   1.079   7.285
16811SOL     OW99271   1.929  14.037   2.819
16811SOL    HW199272   1.897  14.131   2.805
16811SOL    HW299273   1.852  13.979   2.846
16812SOL     OW99274   2.970   3.438   0.562
16812SOL    HW199275   3.043   3.434   0.493
16812SOL    HW299276   2.886   3.398   0.524
16813SOL     OW99277  14.568  15.212   7.288
16813SOL    HW199278  14.601  15.218   7.194
16813SOL    HW299279  14.586  15.298   7.336
16814SOL     OW99280   6.506   9.548   1.234
16814SOL    HW199281   6.481   9.563   1.330
16814SOL    HW299282   6.556   9.461   1.226
16815SOL     OW99283   1.952  13.764   8.371
16815SOL    HW199284   1.859  13.739   8.343
16815SOL    HW299285   1.948  13.847   8.427
16816SOL     OW99286   1.702   6.530   7.990
16816SOL    HW199287   1.681   6.616   7.942
16816SOL    HW299288   1.620   6.497   8.036
16817SOL     OW99289   4.839  13.684   0.398
16817SOL    HW199290   4.775  13.756   0.370
16817SOL    HW299291   4.793  13.621   0.461
16818SOL     OW99292  15.912  16.462   6.003
16818SOL    HW199293  15.901  16.419   5.914
16818SOL    HW299294  16.010  16.471   6.023
16819SOL     OW99295   8.293   4.989   1.632
16819SOL    HW199296   8.288   5.088   1.620
16819SOL    HW299297   8.345   4.968   1.715
16820SOL     OW99298   5.824   2.381   7.493
16820SOL    HW199299   5.822   2.422   7.401
16820SOL    HW299300   5.892   2.308   7.495
16821SOL     OW99301   5.716  12.439   8.234
16821SOL    HW199302   5.732  12.367   8.300
16821SOL    HW299303   5.619  12.438   8.206
16822SOL     OW99304   8.258   7.592   0.729
16822SOL    HW199305   8.245   7.591   0.828
16822SOL    HW299306   8.264   7.498   0.695
16823SOL     OW99307   9.539   0.800   5.658
16823SOL    HW199308   9.572   0.878   5.605
16823SOL    HW299309   9.458   0.762   5.614
16824SOL     OW99310   3.087   7.272   0.947
16824SOL    HW199311   2.992   7.248   0.930
16824SOL    HW299312   3.146   7.194   0.929
16825SOL     OW99313  12.494   6.642   7.113
16825SOL    HW199314  12.566   6.680   7.172
16825SOL    HW299315  12.532   6.566   7.060
16826SOL     OW99316   0.392  13.176   2.359
16826SOL    HW199317   0.320  13.110   2.381
16826SOL    HW299318   0.368  13.266   2.397
16827SOL     OW99319   6.435   9.318   7.856
16827SOL    HW199320   6.373   9.263   7.911
16827SOL    HW299321   6.414   9.415   7.868
16828SOL     OW99322  13.219   0.848   6.882
16828SOL    HW199323  13.277   0.768   6.894
16828SOL    HW299324  13.169   0.840   6.796
16829SOL     OW99325   9.137  11.125   0.512
16829SOL    HW199326   9.169  11.110   0.605
16829SOL    HW299327   9.202  11.087   0.447
16830SOL     OW99328   5.309   8.856   7.995
16830SOL    HW199329   5.224   8.892   8.034
16830SOL    HW299330   5.333   8.909   7.913
16831SOL     OW99331  11.353  16.530   1.214
16831SOL    HW199332  11.305  16.463   1.271
16831SOL    HW299333  11.381  16.607   1.269
16832SOL     OW99334  14.889   8.078   6.064
16832SOL    HW199335  14.847   8.125   5.986
16832SOL    HW299336  14.943   8.144   6.117
16833SOL     OW99337  13.056  15.860   1.394
16833SOL    HW199338  13.082  15.947   1.437
16833SOL    HW299339  13.089  15.858   1.300
16834SOL     OW99340   2.337   6.071   7.942
16834SOL    HW199341   2.344   6.062   8.041
16834SOL    HW299342   2.358   6.165   7.916
16835SOL     OW99343   4.898  10.433   6.644
16835SOL    HW199344   4.954  10.381   6.579
16835SOL    HW299345   4.847  10.504   6.595
16836SOL     OW99346   5.166   2.836   6.902
16836SOL    HW199347   5.078   2.875   6.930
16836SOL    HW299348   5.178   2.849   6.804
16837SOL     OW99349   8.733   2.836   8.153
16837SOL    HW199350   8.636   2.817   8.171
16837SOL    HW299351   8.750   2.836   8.055
16838SOL     OW99352   6.641   8.836   8.190
16838SOL    HW199353   6.678   8.904   8.127
16838SOL    HW299354   6.639   8.873   8.282
16839SOL     OW99355  11.916   2.202   5.924
16839SOL    HW199356  11.950   2.154   5.843
16839SOL    HW299357  11.910   2.300   5.905
16840SOL     OW99358   4.110   4.926   0.949
16840SOL    HW199359   4.100   4.978   1.034
16840SOL    HW299360   4.056   4.969   0.877
16841SOL     OW99361   3.330  11.229   8.316
16841SOL    HW199362   3.397  11.252   8.246
16841SOL    HW299363   3.376  11.216   8.404
16842SOL     OW99364   0.158  14.168   1.243
16842SOL    HW199365   0.117  14.132   1.158
16842SOL    HW299366   0.117  14.256   1.264
16843SOL     OW99367   0.450   3.589   8.061
16843SOL    HW199368   0.411   3.596   8.152
16843SOL    HW299369   0.513   3.666   8.046
16844SOL     OW99370  11.159  13.708   7.027
16844SOL    HW199371  11.068  13.687   7.062
16844SOL    HW299372  11.175  13.655   6.944
16845SOL     OW99373   2.308  15.679   1.568
16845SOL    HW199374   2.231  15.663   1.506
16845SOL    HW299375   2.327  15.596   1.620
16846SOL     OW99376   9.049  15.567   0.307
16846SOL    HW199377   8.971  15.628   0.321
16846SOL    HW299378   9.095  15.592   0.222
16847SOL     OW99379   2.132  11.534   1.215
16847SOL    HW199380   2.204  11.494   1.272
16847SOL    HW299381   2.119  11.477   1.134
16848SOL     OW99382  13.604   9.971   8.095
16848SOL    HW199383  13.661   9.920   8.030
16848SOL    HW299384  13.637  10.065   8.101
16849SOL     OW99385  11.019   3.183   6.401
16849SOL    HW199386  11.004   3.214   6.494
16849SOL    HW299387  11.001   3.258   6.337
16850SOL     OW99388  16.704   2.082   1.527
16850SOL    HW199389  16.634   2.153   1.520
16850SOL    HW299390  16.782   2.106   1.469
16851SOL     OW99391   7.830   4.381   1.108
16851SOL    HW199392   7.848   4.399   1.011
16851SOL    HW299393   7.779   4.296   1.117
16852SOL     OW99394  16.637   8.310   8.118
16852SOL    HW199395  16.729   8.349   8.107
16852SOL    HW299396  16.621   8.287   8.214
16853SOL     OW99397   5.414  10.887   0.960
16853SOL    HW199398   5.514  10.889   0.958
16853SOL    HW299399   5.379  10.926   0.874
16854SOL     OW99400   3.965   4.979   8.032
16854SOL    HW199401   3.998   4.935   8.115
16854SOL    HW299402   3.893   5.045   8.055
16855SOL     OW99403   6.980   6.025   0.797
16855SOL    HW199404   6.903   5.965   0.780
16855SOL    HW299405   7.034   6.035   0.713
16856SOL     OW99406   1.718  12.024   7.018
16856SOL    HW199407   1.800  11.999   6.967
16856SOL    HW299408   1.678  12.106   6.978
16857SOL     OW99409   9.508  15.998   1.055
16857SOL    HW199410   9.426  16.028   1.006
16857SOL    HW299411   9.515  16.049   1.141
16858SOL     OW99412   3.692  15.204   6.341
16858SOL    HW199413   3.664  15.285   6.290
16858SOL    HW299414   3.786  15.215   6.373
16859SOL     OW99415   0.280   7.431   7.342
16859SOL    HW199416   0.332   7.433   7.427
16859SOL    HW299417   0.249   7.338   7.324
16860SOL     OW99418   5.038  13.162   8.251
16860SOL    HW199419   5.011  13.257   8.270
16860SOL    HW299420   5.009  13.137   8.159
16861SOL     OW99421   9.042   3.034   8.074
16861SOL    HW199422   9.104   3.112   8.066
16861SOL    HW299423   9.072   2.974   8.148
16862SOL     OW99424  14.847   0.683   6.916
16862SOL    HW199425  14.777   0.701   6.846
16862SOL    HW299426  14.806   0.689   7.007
16863SOL     OW99427   9.136   8.076   0.861
16863SOL    HW199428   9.151   8.045   0.955
16863SOL    HW299429   9.221   8.112   0.824
16864SOL     OW99430   0.296   6.874   0.141
16864SOL    HW199431   0.328   6.909   0.053
16864SOL    HW299432   0.206   6.913   0.161
16865SOL     OW99433   4.547   1.958   2.341
16865SOL    HW199434   4.520   1.885   2.278
16865SOL    HW299435   4.469   1.982   2.400
16866SOL     OW99436  12.010  14.660   7.611
16866SOL    HW199437  12.009  14.756   7.585
16866SOL    HW299438  11.918  14.622   7.606
16867SOL     OW99439  15.728  12.527   8.327
16867SOL    HW199440  15.728  12.478   8.415
16867SOL    HW299441  15.706  12.463   8.253
16868SOL     OW99442   5.412  15.311   1.063
16868SOL    HW199443   5.487  15.247   1.079
16868SOL    HW299444   5.347  15.272   0.998
16869SOL     OW99445   6.493   7.639   0.440
16869SOL    HW199446   6.490   7.739   0.442
16869SOL    HW299447   6.476   7.603   0.532
16870SOL     OW99448   1.519   7.671   0.191
16870SOL    HW199449   1.575   7.748   0.162
16870SOL    HW299450   1.534   7.653   0.288
16871SOL     OW99451  16.379  14.618   8.270
16871SOL    HW199452  16.472  14.618   8.306
16871SOL    HW299453  16.381  14.651   8.175
16872SOL     OW99454  11.870  15.189   1.332
16872SOL    HW199455  11.776  15.183   1.297
16872SOL    HW299456  11.897  15.100   1.368
16873SOL     OW99457   0.323   6.603   0.191
16873SOL    HW199458   0.411   6.584   0.235
16873SOL    HW299459   0.316   6.701   0.171
16874SOL     OW99460   1.535  10.985   2.062
16874SOL    HW199461   1.580  10.926   1.994
16874SOL    HW299462   1.498  11.065   2.016
16875SOL     OW99463  15.342   3.059   0.895
16875SOL    HW199464  15.292   2.973   0.895
16875SOL    HW299465  15.277   3.135   0.885
16876SOL     OW99466   2.470   2.472   7.629
16876SOL    HW199467   2.497   2.555   7.678
16876SOL    HW299468   2.408   2.496   7.555
16877SOL     OW99469   3.719   1.085   0.618
16877SOL    HW199470   3.697   0.987   0.616
16877SOL    HW299471   3.728   1.115   0.713
16878SOL     OW99472   8.848   9.449   0.446
16878SOL    HW199473   8.773   9.496   0.492
16878SOL    HW299474   8.811   9.379   0.384
16879SOL     OW99475   3.362  11.429   7.945
16879SOL    HW199476   3.382  11.470   7.856
16879SOL    HW299477   3.264  11.410   7.952
16880SOL     OW99478  12.536   4.574   0.593
16880SOL    HW199479  12.579   4.487   0.615
16880SOL    HW299480  12.547   4.594   0.496
16881SOL     OW99481  12.556   8.281   7.668
16881SOL    HW199482  12.611   8.321   7.594
16881SOL    HW299483  12.613   8.217   7.721
16882SOL     OW99484   9.298   4.643   1.564
16882SOL    HW199485   9.286   4.568   1.630
16882SOL    HW299486   9.364   4.709   1.599
16883SOL     OW99487  15.218   4.071   1.440
16883SOL    HW199488  15.269   4.124   1.508
16883SOL    HW299489  15.261   3.982   1.428
16884SOL     OW99490   1.516   9.961   1.340
16884SOL    HW199491   1.585   9.891   1.323
16884SOL    HW299492   1.466   9.940   1.423
16885SOL     OW99493   6.412  15.748   0.833
16885SOL    HW199494   6.492  15.807   0.850
16885SOL    HW299495   6.433  15.654   0.858
16886SOL     OW99496   0.790  13.019   1.669
16886SOL    HW199497   0.813  13.098   1.726
16886SOL    HW299498   0.695  12.992   1.687
16887SOL     OW99499  12.206   5.362   0.169
16887SOL    HW199500  12.171   5.306   0.094
16887SOL    HW299501  12.144   5.356   0.247
16888SOL     OW99502  10.165  11.789   1.217
16888SOL    HW199503  10.075  11.759   1.187
16888SOL    HW299504  10.204  11.852   1.150
16889SOL     OW99505   9.337  15.042   1.098
16889SOL    HW199506   9.324  15.132   1.056
16889SOL    HW299507   9.300  14.971   1.037
16890SOL     OW99508   7.579  11.871   8.091
16890SOL    HW199509   7.541  11.814   8.164
16890SOL    HW299510   7.674  11.845   8.075
16891SOL     OW99511  16.652  13.706   1.810
16891SOL    HW199512  16.706  13.627   1.840
16891SOL    HW299513  16.624  13.693   1.715
16892SOL     OW99514   2.306   8.962   1.300
16892SOL    HW199515   2.229   8.907   1.270
16892SOL    HW299516   2.287   9.000   1.391
16893SOL     OW99517   2.770   8.306   1.348
16893SOL    HW199518   2.762   8.390   1.294
16893SOL    HW299519   2.844   8.316   1.415
16894SOL     OW99520   3.836  13.781   7.824
16894SOL    HW199521   3.790  13.782   7.736
16894SOL    HW299522   3.905  13.709   7.825
16895SOL     OW99523   5.739  15.342   7.468
16895SOL    HW199524   5.687  15.376   7.390
16895SOL    HW299525   5.735  15.242   7.469
16896SOL     OW99526   9.236   5.862   1.442
16896SOL    HW199527   9.170   5.816   1.382
16896SOL    HW299528   9.241   5.959   1.419
16897SOL     OW99529  15.200   0.398   0.061
16897SOL    HW199530  15.266   0.336   0.103
16897SOL    HW299531  15.150   0.350   8.442
16898SOL     OW99532   3.199  12.367   8.433
16898SOL    HW199533   3.109  12.340   8.399
16898SOL    HW299534   3.195  12.461   0.013
16899SOL     OW99535   9.860  12.603   0.738
16899SOL    HW199536   9.784  12.667   0.731
16899SOL    HW299537   9.878  12.582   0.834
16900SOL     OW99538   9.464  14.501   1.618
16900SOL    HW199539   9.555  14.540   1.629
16900SOL    HW299540   9.450  14.428   1.684
16901SOL     OW99541  15.935  11.602   6.591
16901SOL    HW199542  15.968  11.595   6.685
16901SOL    HW299543  15.965  11.688   6.551
16902SOL     OW99544   0.300  11.989   7.835
16902SOL    HW199545   0.280  12.048   7.757
16902SOL    HW299546   0.340  11.903   7.802
16903SOL     OW99547  15.308   5.355   0.202
16903SOL    HW199548  15.326   5.278   0.141
16903SOL    HW299549  15.282   5.321   0.292
16904SOL     OW99550   6.316  10.282   2.214
16904SOL    HW199551   6.383  10.274   2.288
16904SOL    HW299552   6.224  10.274   2.252
16905SOL     OW99553   8.875  16.078   8.102
16905SOL    HW199554   8.958  16.130   8.080
16905SOL    HW299555   8.796  16.123   8.060
16906SOL     OW99556   0.888   2.942   1.537
16906SOL    HW199557   0.809   2.922   1.595
16906SOL    HW299558   0.858   2.987   1.453
16907SOL     OW99559   5.010  14.469   1.831
16907SOL    HW199560   4.985  14.412   1.754
16907SOL    HW299561   5.083  14.425   1.884
16908SOL     OW99562   0.063  10.248   0.237
16908SOL    HW199563  16.953  10.242   0.201
16908SOL    HW299564   0.094  10.157   0.263
16909SOL     OW99565   8.737   2.387   0.394
16909SOL    HW199566   8.751   2.348   0.303
16909SOL    HW299567   8.791   2.471   0.401
16910SOL     OW99568   6.200  12.152   6.773
16910SOL    HW199569   6.266  12.080   6.795
16910SOL    HW299570   6.185  12.154   6.674
16911SOL     OW99571   0.650  14.952   7.001
16911SOL    HW199572   0.601  15.002   6.930
16911SOL    HW299573   0.748  14.948   6.978
16912SOL     OW99574  11.412   1.964   6.698
16912SOL    HW199575  11.389   1.867   6.696
16912SOL    HW299576  11.436   1.994   6.605
16913SOL     OW99577   5.793   5.146   6.889
16913SOL    HW199578   5.779   5.167   6.793
16913SOL    HW299579   5.862   5.073   6.898
16914SOL     OW99580  13.657   3.080   8.100
16914SOL    HW199581  13.694   3.173   8.107
16914SOL    HW299582  13.591   3.065   8.174
16915SOL     OW99583  11.458   6.508   7.364
16915SOL    HW199584  11.375   6.466   7.327
16915SOL    HW299585  11.433   6.581   7.428
16916SOL     OW99586   6.645   9.412   6.969
16916SOL    HW199587   6.621   9.364   6.885
16916SOL    HW299588   6.744   9.429   6.971
16917SOL     OW99589  12.136   3.793   7.641
16917SOL    HW199590  12.046   3.754   7.661
16917SOL    HW299591  12.207   3.734   7.678
16918SOL     OW99592   4.911   8.762   8.114
16918SOL    HW199593   4.952   8.692   8.172
16918SOL    HW299594   4.976   8.837   8.101
16919SOL     OW99595  13.618   2.148   6.733
16919SOL    HW199596  13.688   2.201   6.780
16919SOL    HW299597  13.620   2.169   6.635
16920SOL     OW99598   4.366  11.219   1.597
16920SOL    HW199599   4.269  11.196   1.612
16920SOL    HW299600   4.374  11.278   1.517
16921SOL     OW99601   3.303   5.601   1.747
16921SOL    HW199602   3.306   5.514   1.699
16921SOL    HW299603   3.235   5.597   1.820
16922SOL     OW99604  16.017   6.930   7.240
16922SOL    HW199605  16.053   6.837   7.235
16922SOL    HW299606  15.927   6.929   7.283
16923SOL     OW99607  13.743  11.481   0.069
16923SOL    HW199608  13.791  11.544   0.008
16923SOL    HW299609  13.709  11.532   0.148
16924SOL     OW99610  12.577   0.507   8.084
16924SOL    HW199611  12.484   0.541   8.074
16924SOL    HW299612  12.638   0.559   8.024
16925SOL     OW99613  14.506  10.703   0.423
16925SOL    HW199614  14.543  10.642   0.493
16925SOL    HW299615  14.579  10.763   0.389
16926SOL     OW99616  10.174  11.964   8.364
16926SOL    HW199617  10.078  11.994   8.362
16926SOL    HW299618  10.201  11.946   0.004
16927SOL     OW99619   9.151  16.687   1.361
16927SOL    HW199620   9.118  16.596   1.386
16927SOL    HW299621   9.228  16.678   1.297
16928SOL     OW99622  13.050  14.402   0.115
16928SOL    HW199623  12.979  14.353   0.165
16928SOL    HW299624  13.069  14.489   0.160
16929SOL     OW99625  15.225   1.604   0.991
16929SOL    HW199626  15.136   1.578   1.028
16929SOL    HW299627  15.287   1.526   0.995
16930SOL     OW99628   5.661   6.186   0.572
16930SOL    HW199629   5.594   6.191   0.497
16930SOL    HW299630   5.695   6.092   0.578
16931SOL     OW99631   4.118   0.462   0.377
16931SOL    HW199632   4.108   0.365   0.357
16931SOL    HW299633   4.176   0.473   0.457
16932SOL     OW99634  16.092  10.316   0.011
16932SOL    HW199635  16.013  10.307   0.071
16932SOL    HW299636  16.174  10.335   0.066
16933SOL     OW99637   3.853   5.662   1.268
16933SOL    HW199638   3.867   5.571   1.308
16933SOL    HW299639   3.856   5.655   1.168
16934SOL     OW99640   7.148   9.820   6.829
16934SOL    HW199641   7.063   9.855   6.868
16934SOL    HW299642   7.157   9.723   6.852
16935SOL     OW99643   5.385   0.546   0.437
16935SOL    HW199644   5.331   0.464   0.419
16935SOL    HW299645   5.332   0.627   0.412
16936SOL     OW99646  11.653  16.523   1.824
16936SOL    HW199647  11.559  16.555   1.837
16936SOL    HW299648  11.700  16.521   1.912
16937SOL     OW99649   7.430   0.588   7.048
16937SOL    HW199650   7.339   0.625   7.067
16937SOL    HW299651   7.424   0.515   6.980
16938SOL     OW99652  15.981  16.189   7.909
16938SOL    HW199653  16.057  16.143   7.955
16938SOL    HW299654  15.917  16.225   7.977
16939SOL     OW99655   1.899  14.439   1.165
16939SOL    HW199656   1.848  14.459   1.249
16939SOL    HW299657   1.990  14.404   1.190
16940SOL     OW99658  11.824   6.871   6.892
16940SOL    HW199659  11.768   6.809   6.838
16940SOL    HW299660  11.830   6.838   6.986
16941SOL     OW99661   9.875  14.843   6.068
16941SOL    HW199662   9.848  14.859   5.973
16941SOL    HW299663   9.835  14.757   6.101
16942SOL     OW99664  12.640   7.115   6.450
16942SOL    HW199665  12.582   7.186   6.489
16942SOL    HW299666  12.583   7.047   6.403
16943SOL     OW99667   8.186  11.759   7.196
16943SOL    HW199668   8.170  11.840   7.139
16943SOL    HW299669   8.121  11.759   7.272
16944SOL     OW99670  12.803   7.560   7.700
16944SOL    HW199671  12.745   7.521   7.628
16944SOL    HW299672  12.849   7.485   7.749
16945SOL     OW99673   7.359   4.744   2.060
16945SOL    HW199674   7.272   4.780   2.094
16945SOL    HW299675   7.405   4.695   2.134
16946SOL     OW99676   1.342   8.522   8.063
16946SOL    HW199677   1.261   8.519   8.005
16946SOL    HW299678   1.361   8.430   8.097
16947SOL     OW99679   4.260   5.579   0.335
16947SOL    HW199680   4.231   5.487   0.309
16947SOL    HW299681   4.358   5.589   0.316
16948SOL     OW99682   6.407   0.982   1.996
16948SOL    HW199683   6.334   0.943   2.051
16948SOL    HW299684   6.485   0.918   1.994
16949SOL     OW99685   1.077  15.275   0.268
16949SOL    HW199686   1.128  15.267   0.182
16949SOL    HW299687   1.138  15.307   0.340
16950SOL     OW99688   9.021  14.049   7.372
16950SOL    HW199689   9.108  14.037   7.325
16950SOL    HW299690   8.958  14.100   7.313
16951SOL     OW99691   7.776  10.484   7.830
16951SOL    HW199692   7.737  10.460   7.919
16951SOL    HW299693   7.739  10.423   7.760
16952SOL     OW99694  10.005   4.164   7.202
16952SOL    HW199695  10.030   4.109   7.122
16952SOL    HW299696   9.951   4.243   7.173
16953SOL     OW99697  14.534   2.168   7.972
16953SOL    HW199698  14.605   2.101   7.993
16953SOL    HW299699  14.565   2.226   7.896
16954SOL     OW99700   4.893  13.341   0.188
16954SOL    HW199701   4.948  13.420   0.214
16954SOL    HW299702   4.940  13.257   0.214
16955SOL     OW99703   4.394   9.983   0.075
16955SOL    HW199704   4.472  10.034   0.038
16955SOL    HW299705   4.311  10.039   0.069
16956SOL     OW99706   5.109   5.862   7.182
16956SOL    HW199707   5.074   5.955   7.195
16956SOL    HW299708   5.038   5.796   7.208
16957SOL     OW99709   3.511  12.344   7.389
16957SOL    HW199710   3.482  12.341   7.293
16957SOL    HW299711   3.437  12.378   7.446
16958SOL     OW99712   8.643  14.754   2.462
16958SOL    HW199713   8.717  14.818   2.480
16958SOL    HW299714   8.560  14.804   2.437
16959SOL     OW99715  15.047  10.583   8.393
16959SOL    HW199716  15.018  10.521   0.011
16959SOL    HW299717  14.967  10.633   8.357
16960SOL     OW99718   9.912  14.982   1.570
16960SOL    HW199719   9.968  15.003   1.651
16960SOL    HW299720   9.938  14.892   1.535
16961SOL     OW99721  13.582  14.967   1.413
16961SOL    HW199722  13.622  14.882   1.448
16961SOL    HW299723  13.637  15.001   1.338
16962SOL     OW99724  13.842  11.671   8.340
16962SOL    HW199725  13.790  11.738   8.288
16962SOL    HW299726  13.937  11.702   8.349
16963SOL     OW99727   1.846   0.785   8.248
16963SOL    HW199728   1.865   0.690   8.223
16963SOL    HW299729   1.787   0.826   8.179
16964SOL     OW99730   7.414  10.108   0.702
16964SOL    HW199731   7.421  10.055   0.617
16964SOL    HW299732   7.497  10.163   0.714
16965SOL     OW99733   0.746  13.225   2.647
16965SOL    HW199734   0.658  13.212   2.693
16965SOL    HW299735   0.806  13.281   2.704
16966SOL     OW99736   6.592  14.617   6.746
16966SOL    HW199737   6.664  14.580   6.687
16966SOL    HW299738   6.538  14.542   6.784
16967SOL     OW99739  11.029   6.195   1.428
16967SOL    HW199740  11.092   6.226   1.357
16967SOL    HW299741  11.015   6.269   1.494
16968SOL     OW99742   9.300  15.284   0.991
16968SOL    HW199743   9.362  15.309   0.917
16968SOL    HW299744   9.244  15.363   1.016
16969SOL     OW99745   3.541  10.462   6.954
16969SOL    HW199746   3.640  10.463   6.967
16969SOL    HW299747   3.516  10.390   6.890
16970SOL     OW99748   9.115  14.038   6.771
16970SOL    HW199749   9.120  13.993   6.682
16970SOL    HW299750   9.163  14.125   6.768
16971SOL     OW99751  13.849   2.888   0.307
16971SOL    HW199752  13.858   2.952   0.231
16971SOL    HW299753  13.899   2.804   0.286
16972SOL     OW99754   6.141  14.547   1.384
16972SOL    HW199755   6.185  14.626   1.427
16972SOL    HW299756   6.157  14.550   1.286
16973SOL     OW99757   7.269   4.882   1.307
16973SOL    HW199758   7.359   4.839   1.296
16973SOL    HW299759   7.209   4.822   1.359
16974SOL     OW99760  11.763  10.725   0.186
16974SOL    HW199761  11.788  10.811   0.141
16974SOL    HW299762  11.822  10.711   0.266
16975SOL     OW99763  14.418  11.718   1.688
16975SOL    HW199764  14.486  11.769   1.741
16975SOL    HW299765  14.332  11.768   1.687
16976SOL     OW99766  12.300   3.012   7.081
16976SOL    HW199767  12.359   2.940   7.117
16976SOL    HW299768  12.299   3.090   7.144
16977SOL     OW99769   2.699  10.937   1.170
16977SOL    HW199770   2.697  10.951   1.269
16977SOL    HW299771   2.767  10.999   1.130
16978SOL     OW99772   3.955  11.577   0.150
16978SOL    HW199773   4.032  11.583   0.087
16978SOL    HW299774   3.960  11.652   0.216
16979SOL     OW99775   4.033  16.805   1.737
16979SOL    HW199776   4.056  16.896   1.702
16979SOL    HW299777   3.935  16.788   1.725
16980SOL     OW99778   4.137   3.511   7.811
16980SOL    HW199779   4.133   3.452   7.730
16980SOL    HW299780   4.069   3.583   7.803
16981SOL     OW99781   4.398   2.625   6.919
16981SOL    HW199782   4.361   2.586   7.004
16981SOL    HW299783   4.325   2.636   6.853
16982SOL     OW99784  11.633   0.833   6.472
16982SOL    HW199785  11.665   0.848   6.378
16982SOL    HW299786  11.707   0.792   6.525
16983SOL     OW99787   4.211   0.861   6.491
16983SOL    HW199788   4.223   0.772   6.447
16983SOL    HW299789   4.139   0.912   6.444
16984SOL     OW99790  16.499   1.978   8.313
16984SOL    HW199791  16.452   2.060   8.281
16984SOL    HW299792  16.440   1.927   8.375
16985SOL     OW99793  14.045   7.150   7.310
16985SOL    HW199794  14.007   7.079   7.369
16985SOL    HW299795  13.982   7.167   7.234
16986SOL     OW99796  13.615   9.876   0.963
16986SOL    HW199797  13.559   9.815   0.907
16986SOL    HW299798  13.677   9.927   0.904
16987SOL     OW99799   2.559   7.448   8.260
16987SOL    HW199800   2.482   7.494   8.304
16987SOL    HW299801   2.642   7.464   8.315
16988SOL     OW99802   3.294   8.054   1.883
16988SOL    HW199803   3.240   7.980   1.923
16988SOL    HW299804   3.297   8.131   1.947
16989SOL     OW99805   0.996  10.004   8.271
16989SOL    HW199806   0.900   9.978   8.257
16989SOL    HW299807   1.040   9.938   8.331
16990SOL     OW99808   3.172  12.451   1.733
16990SOL    HW199809   3.244  12.510   1.695
16990SOL    HW299810   3.086  12.501   1.733
16991SOL     OW99811   7.729  13.720   1.283
16991SOL    HW199812   7.632  13.721   1.305
16991SOL    HW299813   7.779  13.669   1.353
16992SOL     OW99814   3.295  13.952   1.624
16992SOL    HW199815   3.237  14.011   1.567
16992SOL    HW299816   3.238  13.899   1.686
16993SOL     OW99817   3.826   8.152   7.888
16993SOL    HW199818   3.919   8.168   7.853
16993SOL    HW299819   3.760   8.196   7.827
16994SOL     OW99820  13.747  14.500   1.351
16994SOL    HW199821  13.650  14.508   1.329
16994SOL    HW299822  13.761  14.418   1.408
16995SOL     OW99823   4.121   0.957   0.852
16995SOL    HW199824   4.215   0.923   0.859
16995SOL    HW299825   4.059   0.895   0.899
16996SOL     OW99826  16.348   3.800   5.728
16996SOL    HW199827  16.268   3.811   5.669
16996SOL    HW299828  16.423   3.857   5.694
16997SOL     OW99829   0.085  15.674   1.400
16997SOL    HW199830   0.089  15.750   1.335
16997SOL    HW299831   0.083  15.711   1.493
16998SOL     OW99832   8.064   1.965   0.891
16998SOL    HW199833   8.043   1.867   0.889
16998SOL    HW299834   8.162   1.978   0.905
16999SOL     OW99835   8.810   7.280   6.421
16999SOL    HW199836   8.888   7.338   6.396
16999SOL    HW299837   8.836   7.184   6.409
17000SOL     OW99838  14.506  13.991   1.546
17000SOL    HW199839  14.512  14.036   1.634
17000SOL    HW299840  14.410  13.977   1.522
17001SOL     OW99841  10.307   4.412   0.566
17001SOL    HW199842  10.324   4.500   0.610
17001SOL    HW299843  10.324   4.338   0.631
17002SOL     OW99844   7.261   7.310   0.866
17002SOL    HW199845   7.319   7.261   0.932
17002SOL    HW299846   7.264   7.408   0.885
17003SOL     OW99847  12.377   2.204   7.908
17003SOL    HW199848  12.404   2.300   7.901
17003SOL    HW299849  12.456   2.145   7.894
17004SOL     OW99850   4.570   7.333   7.367
17004SOL    HW199851   4.612   7.252   7.409
17004SOL    HW299852   4.489   7.307   7.315
17005SOL     OW99853   2.309  14.460   8.038
17005SOL    HW199854   2.338  14.417   8.124
17005SOL    HW299855   2.386  14.464   7.975
17006SOL     OW99856  14.384  12.027   7.480
17006SOL    HW199857  14.481  12.049   7.477
17006SOL    HW299858  14.332  12.097   7.431
17007SOL     OW99859  12.331   5.718   1.258
17007SOL    HW199860  12.242   5.764   1.255
17007SOL    HW299861  12.368   5.723   1.351
17008SOL     OW99862   5.116  16.075   8.356
17008SOL    HW199863   5.041  16.010   8.345
17008SOL    HW299864   5.092  16.143   8.425
17009SOL     OW99865  14.964   6.503   6.951
17009SOL    HW199866  14.892   6.436   6.929
17009SOL    HW299867  15.003   6.539   6.866
17010SOL     OW99868  13.731  13.887   1.741
17010SOL    HW199869  13.810  13.934   1.779
17010SOL    HW299870  13.670  13.953   1.696
17011SOL     OW99871   1.344  15.523   2.176
17011SOL    HW199872   1.380  15.553   2.265
17011SOL    HW299873   1.251  15.556   2.165
17012SOL     OW99874   6.681   6.587   1.806
17012SOL    HW199875   6.688   6.620   1.900
17012SOL    HW299876   6.773   6.568   1.771
17013SOL     OW99877  14.414   4.902   6.434
17013SOL    HW199878  14.393   4.807   6.412
17013SOL    HW299879  14.513   4.915   6.434
17014SOL     OW99880   1.050  11.428   0.556
17014SOL    HW199881   1.148  11.416   0.545
17014SOL    HW299882   1.011  11.346   0.597
17015SOL     OW99883   8.603   8.372   0.409
17015SOL    HW199884   8.538   8.376   0.333
17015SOL    HW299885   8.563   8.318   0.484
17016SOL     OW99886   8.429   4.570   7.943
17016SOL    HW199887   8.402   4.489   7.890
17016SOL    HW299888   8.424   4.549   8.041
17017SOL     OW99889   4.709   1.820   7.321
17017SOL    HW199890   4.751   1.907   7.347
17017SOL    HW299891   4.668   1.829   7.230
17018SOL     OW99892   2.602   2.488   0.185
17018SOL    HW199893   2.618   2.526   0.276
17018SOL    HW299894   2.609   2.560   0.117
17019SOL     OW99895  11.386  13.077   0.005
17019SOL    HW199896  11.370  13.018   8.380
17019SOL    HW299897  11.302  13.126   0.028
17020SOL     OW99898   1.008   2.503   7.891
17020SOL    HW199899   1.006   2.565   7.970
17020SOL    HW299900   0.915   2.474   7.868
17021SOL     OW99901  11.002   3.709   6.842
17021SOL    HW199902  11.032   3.613   6.846
17021SOL    HW299903  10.937   3.726   6.917
17022SOL     OW99904  12.831   9.081   1.429
17022SOL    HW199905  12.771   9.004   1.407
17022SOL    HW299906  12.922   9.063   1.392
17023SOL     OW99907  10.429  11.756   0.383
17023SOL    HW199908  10.472  11.812   0.313
17023SOL    HW299909  10.484  11.759   0.467
17024SOL     OW99910   6.015   6.004   8.414
17024SOL    HW199911   6.085   5.938   8.442
17024SOL    HW299912   5.967   6.037   0.041
17025SOL     OW99913   2.503   8.953   0.311
17025SOL    HW199914   2.428   8.890   0.291
17025SOL    HW299915   2.520   8.952   0.410
17026SOL     OW99916  16.640  11.132   2.520
17026SOL    HW199917  16.612  11.222   2.554
17026SOL    HW299918  16.730  11.110   2.558
17027SOL     OW99919   4.395   0.041   0.338
17027SOL    HW199920   4.395  16.927   0.314
17027SOL    HW299921   4.394   0.095   0.254
17028SOL     OW99922   6.374   3.292   1.286
17028SOL    HW199923   6.435   3.214   1.274
17028SOL    HW299924   6.298   3.267   1.345
17029SOL     OW99925   4.960   0.151   7.844
17029SOL    HW199926   4.951   0.105   7.755
17029SOL    HW299927   5.008   0.238   7.832
17030SOL     OW99928   9.038   5.040   1.601
17030SOL    HW199929   8.997   4.960   1.645
17030SOL    HW299930   9.073   5.103   1.671
17031SOL     OW99931  16.307   6.941   7.276
17031SOL    HW199932  16.209   6.955   7.288
17031SOL    HW299933  16.334   6.967   7.183
17032SOL     OW99934  14.112   7.748   7.898
17032SOL    HW199935  14.034   7.727   7.957
17032SOL    HW299936  14.140   7.665   7.850
17033SOL     OW99937  15.698  14.843   0.980
17033SOL    HW199938  15.771  14.800   1.031
17033SOL    HW299939  15.707  14.942   0.986
17034SOL     OW99940  15.990   5.488   0.362
17034SOL    HW199941  16.033   5.410   0.407
17034SOL    HW299942  15.943   5.544   0.430
17035SOL     OW99943   8.041   0.106   5.916
17035SOL    HW199944   8.106   0.067   5.851
17035SOL    HW299945   8.004   0.032   5.974
17036SOL     OW99946   6.702   5.766   7.639
17036SOL    HW199947   6.788   5.802   7.675
17036SOL    HW299948   6.719   5.678   7.595
17037SOL     OW99949   2.496   7.975   1.130
17037SOL    HW199950   2.415   8.015   1.086
17037SOL    HW299951   2.518   7.888   1.086
17038SOL     OW99952   5.797   6.738   7.104
17038SOL    HW199953   5.741   6.763   7.183
17038SOL    HW299954   5.885   6.784   7.108
17039SOL     OW99955   4.337   5.868   0.372
17039SOL    HW199956   4.419   5.884   0.426
17039SOL    HW299957   4.314   5.770   0.373
17040SOL     OW99958   8.911   4.836   1.731
17040SOL    HW199959   8.940   4.818   1.825
17040SOL    HW299960   8.813   4.856   1.729
17041SOL     OW99961   5.544   5.163   8.436
17041SOL    HW199962   5.473   5.115   0.034
17041SOL    HW299963   5.606   5.209   0.045
17042SOL     OW99964   8.854   5.622   1.150
17042SOL    HW199965   8.928   5.689   1.144
17042SOL    HW299966   8.885   5.542   1.201
17043SOL     OW99967  12.206  12.909   0.294
17043SOL    HW199968  12.118  12.866   0.276
17043SOL    HW299969  12.193  13.008   0.305
17044SOL     OW99970   7.218   4.655   7.511
17044SOL    HW199971   7.129   4.636   7.553
17044SOL    HW299972   7.204   4.693   7.420
17045SOL     OW99973   6.808  16.145   0.304
17045SOL    HW199974   6.849  16.144   0.395
17045SOL    HW299975   6.826  16.234   0.261
17046SOL     OW99976  15.081   8.226   1.163
17046SOL    HW199977  15.029   8.294   1.112
17046SOL    HW299978  15.179   8.245   1.155
17047SOL     OW99979   2.558   2.524   8.013
17047SOL    HW199980   2.571   2.569   8.101
17047SOL    HW299981   2.621   2.446   8.006
17048SOL     OW99982  10.966   1.520   1.193
17048SOL    HW199983  10.936   1.565   1.277
17048SOL    HW299984  11.063   1.537   1.179
17049SOL     OW99985   8.633   1.798   6.379
17049SOL    HW199986   8.664   1.892   6.396
17049SOL    HW299987   8.684   1.759   6.302
17050SOL     OW99988  10.534   4.826   8.107
17050SOL    HW199989  10.621   4.870   8.129
17050SOL    HW299990  10.551   4.747   8.049
17051SOL     OW99991  10.709   4.902   0.812
17051SOL    HW199992  10.677   4.985   0.767
17051SOL    HW299993  10.758   4.846   0.745
17052SOL     OW99994   7.073   5.724   8.410
17052SOL    HW199995   6.993   5.723   8.351
17052SOL    HW299996   7.104   5.818   8.424
17053SOL     OW99997  10.518  11.925   1.553
17053SOL    HW199998  10.503  11.833   1.515
17053SOL    HW299999  10.538  11.988   1.479
17054SOL     OW    0  16.198   4.199   5.758
17054SOL    HW1    1  16.275   4.258   5.785
17054SOL    HW2    2  16.181   4.210   5.660
17055SOL     OW    3  12.690   4.237   7.826
17055SOL    HW1    4  12.670   4.153   7.775
17055SOL    HW2    5  12.724   4.214   7.917
17056SOL     OW    6   9.649   5.602   7.599
17056SOL    HW1    7   9.667   5.648   7.686
17056SOL    HW2    8   9.553   5.614   7.574
17057SOL     OW    9  10.950   8.220   8.432
17057SOL    HW1   10  10.968   8.318   8.427
17057SOL    HW2   11  11.028   8.169   8.395
17058SOL     OW   12  11.063  15.195   7.496
17058SOL    HW1   13  10.964  15.187   7.484
17058SOL    HW2   14  11.091  15.291   7.486
17059SOL     OW   15  15.440  13.688   2.166
17059SOL    HW1   16  15.373  13.684   2.239
17059SOL    HW2   17  15.400  13.733   2.086
17060SOL     OW   18  15.397   7.582   1.265
17060SOL    HW1   19  15.338   7.521   1.213
17060SOL    HW2   20  15.459   7.528   1.322
17061SOL     OW   21  15.765  14.713   2.202
17061SOL    HW1   22  15.826  14.636   2.220
17061SOL    HW2   23  15.814  14.799   2.219
17062SOL     OW   24  10.333   2.624   6.358
17062SOL    HW1   25  10.400   2.695   6.379
17062SOL    HW2   26  10.267   2.617   6.433
17063SOL     OW   27  14.673   3.044   0.026
17063SOL    HW1   28  14.692   3.104   0.104
17063SOL    HW2   29  14.576   3.050   0.002
17064SOL     OW   30   6.490   6.170   1.258
17064SOL    HW1   31   6.582   6.209   1.265
17064SOL    HW2   32   6.490   6.099   1.187
17065SOL     OW   33   2.959   7.699   1.810
17065SOL    HW1   34   2.963   7.760   1.889
17065SOL    HW2   35   3.047   7.700   1.763
17066SOL     OW   36  13.537   9.449   8.187
17066SOL    HW1   37  13.525   9.352   8.207
17066SOL    HW2   38  13.509   9.467   8.092
17067SOL     OW   39   5.898  14.468   1.091
17067SOL    HW1   40   5.816  14.479   1.034
17067SOL    HW2   41   5.882  14.509   1.181
17068SOL     OW   42  10.278   2.252   7.660
17068SOL    HW1   43  10.193   2.250   7.713
17068SOL    HW2   44  10.346   2.194   7.703
17069SOL     OW   45   7.682   1.765   8.178
17069SOL    HW1   46   7.776   1.794   8.195
17069SOL    HW2   47   7.677   1.665   8.176
17070SOL     OW   48  14.133   7.963   6.927
17070SOL    HW1   49  14.061   8.031   6.941
17070SOL    HW2   50  14.140   7.941   6.830
17071SOL     OW   51  10.126   9.244   1.186
17071SOL    HW1   52  10.054   9.297   1.232
17071SOL    HW2   53  10.200   9.304   1.159
17072SOL     OW   54   7.388   9.400   1.046
17072SOL    HW1   55   7.372   9.487   1.000
17072SOL    HW2   56   7.486   9.380   1.047
17073SOL     OW   57   3.404   3.986   0.273
17073SOL    HW1   58   3.503   3.993   0.255
17073SOL    HW2   59   3.372   3.895   0.248
17074SOL     OW   60  13.491   8.489   7.595
17074SOL    HW1   61  13.528   8.559   7.535
17074SOL    HW2   62  13.565   8.447   7.647
17075SOL     OW   63   9.611  10.615   7.355
17075SOL    HW1   64   9.585  10.678   7.281
17075SOL    HW2   65   9.709  10.623   7.373
17076SOL     OW   66  14.419  10.554   8.060
17076SOL    HW1   67  14.408  10.635   8.003
17076SOL    HW2   68  14.426  10.582   8.156
17077SOL     OW   69  16.983   3.967   6.964
17077SOL    HW1   70   0.025   3.871   6.981
17077SOL    HW2   71   0.069   4.009   6.905
17078SOL     OW   72  12.528   9.648   8.351
17078SOL    HW1   73  12.619   9.676   8.320
17078SOL    HW2   74  12.522   9.661   8.450
17079SOL     OW   75   2.957  14.713   0.894
17079SOL    HW1   76   3.017  14.664   0.957
17079SOL    HW2   77   2.869  14.729   0.938
17080SOL     OW   78   3.051   4.248   8.183
17080SOL    HW1   79   3.151   4.260   8.185
17080SOL    HW2   80   3.012   4.275   8.271
17081SOL     OW   81  16.737   9.782   8.451
17081SOL    HW1   82  16.793   9.714   0.045
17081SOL    HW2   83  16.779   9.804   8.364
17082SOL     OW   84   6.686   1.870   7.521
17082SOL    HW1   85   6.608   1.930   7.540
17082SOL    HW2   86   6.674   1.783   7.571
17083SOL     OW   87  16.148   4.385   0.924
17083SOL    HW1   88  16.190   4.459   0.871
17083SOL    HW2   89  16.127   4.308   0.864
17084SOL     OW   90   9.311   1.845   0.844
17084SOL    HW1   91   9.408   1.822   0.849
17084SOL    HW2   92   9.297   1.937   0.882
17085SOL     OW   93   7.944   1.483   6.557
17085SOL    HW1   94   7.866   1.526   6.601
17085SOL    HW2   95   7.912   1.420   6.486
17086SOL     OW   96   0.815   1.797   8.018
17086SOL    HW1   97   0.888   1.838   8.072
17086SOL    HW2   98   0.762   1.733   8.074
17087SOL     OW   99  16.916  13.513   2.138
17087SOL    HW1  100  16.855  13.566   2.195
17087SOL    HW2  101   0.005  13.473   2.194
17088SOL     OW  102   9.320  11.536   2.267
17088SOL    HW1  103   9.418  11.521   2.260
17088SOL    HW2  104   9.299  11.575   2.357
17089SOL     OW  105   4.245   1.300   2.173
17089SOL    HW1  106   4.291   1.389   2.165
17089SOL    HW2  107   4.223   1.283   2.269
17090SOL     OW  108   2.421   4.125   6.327
17090SOL    HW1  109   2.334   4.117   6.376
17090SOL    HW2  110   2.403   4.145   6.230
17091SOL     OW  111  10.015   6.890   1.841
17091SOL    HW1  112  10.085   6.960   1.827
17091SOL    HW2  113  10.039   6.809   1.788
17092SOL     OW  114   7.436  13.726   1.973
17092SOL    HW1  115   7.441  13.675   2.059
17092SOL    HW2  116   7.474  13.817   1.986
17093SOL     OW  117   8.268   3.862   7.933
17093SOL    HW1  118   8.277   3.772   7.892
17093SOL    HW2  119   8.195   3.860   8.002
17094SOL     OW  120  15.510  14.258   2.246
17094SOL    HW1  121  15.518  14.328   2.317
17094SOL    HW2  122  15.521  14.167   2.286
17095SOL     OW  123  13.078   3.982   0.634
17095SOL    HW1  124  13.024   3.903   0.664
17095SOL    HW2  125  13.164   3.985   0.685
17096SOL     OW  126   9.992  11.703   2.244
17096SOL    HW1  127  10.014  11.609   2.268
17096SOL    HW2  128   9.951  11.749   2.323
17097SOL     OW  129   4.444   1.123   7.451
17097SOL    HW1  130   4.362   1.107   7.506
17097SOL    HW2  131   4.419   1.161   7.362
17098SOL     OW  132  15.178   3.544   6.108
17098SOL    HW1  133  15.121   3.545   6.026
17098SOL    HW2  134  15.274   3.557   6.082
17099SOL     OW  135   1.959   2.770   8.266
17099SOL    HW1  136   2.056   2.758   8.248
17099SOL    HW2  137   1.920   2.832   8.198
17100SOL     OW  138  12.533  15.999   6.873
17100SOL    HW1  139  12.464  15.958   6.933
17100SOL    HW2  140  12.621  16.000   6.919
17101SOL     OW  141  11.955   1.834   7.386
17101SOL    HW1  142  12.012   1.789   7.454
17101SOL    HW2  143  11.889   1.894   7.431
17102SOL     OW  144  11.943  11.954   1.591
17102SOL    HW1  145  12.034  11.992   1.575
17102SOL    HW2  146  11.874  12.026   1.581
17103SOL     OW  147  15.550  10.919   7.920
17103SOL    HW1  148  15.528  10.837   7.867
17103SOL    HW2  149  15.633  10.903   7.974
17104SOL     OW  150   5.250   2.691   0.663
17104SOL    HW1  151   5.218   2.680   0.569
17104SOL    HW2  152   5.211   2.774   0.702
17105SOL     OW  153   8.013   3.487   8.408
17105SOL    HW1  154   7.940   3.495   0.022
17105SOL    HW2  155   8.044   3.392   8.405
17106SOL     OW  156   9.772   4.677   6.192
17106SOL    HW1  157   9.865   4.710   6.206
17106SOL    HW2  158   9.760   4.589   6.238
17107SOL     OW  159  13.190   4.405   7.491
17107SOL    HW1  160  13.274   4.449   7.461
17107SOL    HW2  161  13.184   4.313   7.451
17108SOL     OW  162   3.303   8.850   8.138
17108SOL    HW1  163   3.389   8.900   8.140
17108SOL    HW2  164   3.308   8.773   8.201
17109SOL     OW  165  15.884   3.058   0.608
17109SOL    HW1  166  15.856   3.040   0.702
17109SOL    HW2  167  15.804   3.056   0.548
17110SOL     OW  168   8.704  16.833   6.975
17110SOL    HW1  169   8.803  16.819   6.974
17110SOL    HW2  170   8.666  16.809   6.885
17111SOL     OW  171   2.164   3.611   7.596
17111SOL    HW1  172   2.145   3.694   7.650
17111SOL    HW2  173   2.081   3.555   7.592
17112SOL     OW  174  10.807   4.183   6.119
17112SOL    HW1  175  10.902   4.187   6.150
17112SOL    HW2  176  10.796   4.241   6.038
17113SOL     OW  177   9.116  10.771   6.868
17113SOL    HW1  178   9.201  10.744   6.912
17113SOL    HW2  179   9.052  10.804   6.938
17114SOL     OW  180  15.773  15.629   1.613
17114SOL    HW1  181  15.725  15.552   1.654
17114SOL    HW2  182  15.846  15.660   1.674
17115SOL     OW  183   0.765   3.977   6.470
17115SOL    HW1  184   0.800   4.065   6.441
17115SOL    HW2  185   0.804   3.953   6.559
17116SOL     OW  186   9.494   6.538   0.055
17116SOL    HW1  187   9.434   6.463   0.028
17116SOL    HW2  188   9.506   6.600   8.432
17117SOL     OW  189   3.095   4.350   0.450
17117SOL    HW1  190   3.165   4.392   0.392
17117SOL    HW2  191   3.137   4.316   0.534
17118SOL     OW  192   8.772   9.820   0.487
17118SOL    HW1  193   8.857   9.865   0.514
17118SOL    HW2  194   8.779   9.788   0.393
17119SOL     OW  195  15.145   2.531   1.607
17119SOL    HW1  196  15.178   2.514   1.700
17119SOL    HW2  197  15.070   2.469   1.586
17120SOL     OW  198  10.370  15.363   6.229
17120SOL    HW1  199  10.428  15.437   6.263
17120SOL    HW2  200  10.360  15.294   6.301
17121SOL     OW  201  10.903   5.031   7.111
17121SOL    HW1  202  10.828   5.087   7.076
17121SOL    HW2  203  10.889   4.936   7.083
17122SOL     OW  204  16.070   3.662   6.317
17122SOL    HW1  205  16.032   3.747   6.282
17122SOL    HW2  206  16.021   3.636   6.400
17123SOL     OW  207   2.684   6.117   7.991
17123SOL    HW1  208   2.673   6.032   8.043
17123SOL    HW2  209   2.621   6.186   8.026
17124SOL     OW  210   1.462   5.173   1.191
17124SOL    HW1  211   1.520   5.161   1.111
17124SOL    HW2  212   1.418   5.263   1.187
17125SOL     OW  213  14.944   0.531   1.537
17125SOL    HW1  214  14.940   0.546   1.636
17125SOL    HW2  215  15.018   0.467   1.516
17126SOL     OW  216   2.319  13.438   0.359
17126SOL    HW1  217   2.377  13.381   0.417
17126SOL    HW2  218   2.287  13.517   0.411
17127SOL     OW  219  11.383  11.559   0.140
17127SOL    HW1  220  11.360  11.474   0.094
17127SOL    HW2  221  11.449  11.611   0.085
17128SOL     OW  222  12.098  10.602   2.113
17128SOL    HW1  223  12.052  10.664   2.176
17128SOL    HW2  224  12.174  10.558   2.159
17129SOL     OW  225   6.262   9.208   7.391
17129SOL    HW1  226   6.359   9.184   7.395
17129SOL    HW2  227   6.210   9.149   7.453
17130SOL     OW  228   9.803   5.624   6.840
17130SOL    HW1  229   9.884   5.662   6.794
17130SOL    HW2  230   9.831   5.549   6.900
17131SOL     OW  231   5.611   8.810   0.035
17131SOL    HW1  232   5.666   8.730   0.056
17131SOL    HW2  233   5.656   8.864   8.418
17132SOL     OW  234   4.231  12.040   7.598
17132SOL    HW1  235   4.319  12.038   7.550
17132SOL    HW2  236   4.157  12.050   7.531
17133SOL     OW  237  11.937   6.138   7.282
17133SOL    HW1  238  11.967   6.045   7.302
17133SOL    HW2  239  11.961   6.198   7.359
17134SOL     OW  240   1.709   6.283   7.298
17134SOL    HW1  241   1.785   6.241   7.347
17134SOL    HW2  242   1.623   6.249   7.336
17135SOL     OW  243  14.440   3.974   7.837
17135SOL    HW1  244  14.534   3.941   7.850
17135SOL    HW2  245  14.407   4.014   7.923
17136SOL     OW  246   0.123   4.745   7.359
17136SOL    HW1  247   0.029   4.752   7.325
17136SOL    HW2  248   0.180   4.816   7.317
17137SOL     OW  249   9.114   4.206   1.000
17137SOL    HW1  250   9.083   4.301   0.995
17137SOL    HW2  251   9.141   4.175   0.909
17138SOL     OW  252   2.576  15.731   0.491
17138SOL    HW1  253   2.580  15.728   0.591
17138SOL    HW2  254   2.492  15.686   0.461
17139SOL     OW  255  13.648  10.807   1.319
17139SOL    HW1  256  13.729  10.782   1.265
17139SOL    HW2  257  13.608  10.724   1.359
17140SOL     OW  258  10.555  12.110   1.335
17140SOL    HW1  259  10.518  12.178   1.399
17140SOL    HW2  260  10.511  12.120   1.246
17141SOL     OW  261   1.605   5.122   0.962
17141SOL    HW1  262   1.679   5.189   0.958
17141SOL    HW2  263   1.636   5.035   0.923
17142SOL     OW  264   8.174   8.056   6.772
17142SOL    HW1  265   8.188   8.058   6.673
17142SOL    HW2  266   8.075   8.055   6.791
17143SOL     OW  267   8.424  11.918   7.909
17143SOL    HW1  268   8.455  12.002   7.865
17143SOL    HW2  269   8.438  11.840   7.847
17144SOL     OW  270  12.453   4.376   7.820
17144SOL    HW1  271  12.475   4.473   7.833
17144SOL    HW2  272  12.537   4.322   7.828
17145SOL     OW  273  15.296   8.439   0.049
17145SOL    HW1  274  15.202   8.425   0.077
17145SOL    HW2  275  15.330   8.524   0.089
17146SOL     OW  276   6.941  12.458   8.342
17146SOL    HW1  277   6.868  12.413   8.290
17146SOL    HW2  278   6.903  12.497   8.426
17147SOL     OW  279   8.340   9.352   7.852
17147SOL    HW1  280   8.358   9.443   7.817
17147SOL    HW2  281   8.426   9.302   7.863
17148SOL     OW  282  10.059   4.879   8.019
17148SOL    HW1  283  10.008   4.950   7.971
17148SOL    HW2  284  10.038   4.790   7.979
17149SOL     OW  285   4.763   4.894   1.971
17149SOL    HW1  286   4.700   4.895   2.048
17149SOL    HW2  287   4.721   4.845   1.894
17150SOL     OW  288  10.247   5.760   8.393
17150SOL    HW1  289  10.325   5.747   0.000
17150SOL    HW2  290  10.280   5.769   8.299
17151SOL     OW  291  12.455  13.456   7.561
17151SOL    HW1  292  12.445  13.552   7.585
17151SOL    HW2  293  12.505  13.447   7.475
17152SOL     OW  294   1.168   8.356   0.970
17152SOL    HW1  295   1.078   8.399   0.959
17152SOL    HW2  296   1.239   8.427   0.968
17153SOL     OW  297  13.206  14.233   0.941
17153SOL    HW1  298  13.229  14.182   0.857
17153SOL    HW2  299  13.290  14.257   0.989
17154SOL     OW  300  12.501  14.271   1.008
17154SOL    HW1  301  12.437  14.281   1.085
17154SOL    HW2  302  12.472  14.194   0.951
17155SOL     OW  303   4.294  12.528   1.223
17155SOL    HW1  304   4.393  12.540   1.232
17155SOL    HW2  305   4.274  12.433   1.198
17156SOL     OW  306   4.516  16.560   7.180
17156SOL    HW1  307   4.486  16.474   7.224
17156SOL    HW2  308   4.601  16.590   7.222
17157SOL     OW  309  15.471   9.278   7.632
17157SOL    HW1  310  15.485   9.316   7.541
17157SOL    HW2  311  15.421   9.344   7.688
17158SOL     OW  312   6.027  14.565   8.289
17158SOL    HW1  313   6.126  14.566   8.284
17158SOL    HW2  314   5.989  14.624   8.217
17159SOL     OW  315  14.369   0.923   1.817
17159SOL    HW1  316  14.440   0.974   1.865
17159SOL    HW2  317  14.392   0.825   1.818
17160SOL     OW  318   0.796   8.550   7.683
17160SOL    HW1  319   0.753   8.630   7.724
17160SOL    HW2  320   0.893   8.569   7.667
17161SOL     OW  321   9.778   4.158   6.801
17161SOL    HW1  322   9.766   4.083   6.866
17161SOL    HW2  323   9.763   4.123   6.708
17162SOL     OW  324  14.461   5.489   5.799
17162SOL    HW1  325  14.394   5.436   5.746
17162SOL    HW2  326  14.535   5.518   5.739
17163SOL     OW  327   7.596   6.734   8.245
17163SOL    HW1  328   7.604   6.817   8.301
17163SOL    HW2  329   7.540   6.753   8.165
17164SOL     OW  330   8.299   8.458   7.388
17164SOL    HW1  331   8.232   8.385   7.404
17164SOL    HW2  332   8.257   8.528   7.330
17165SOL     OW  333  15.147   1.706   7.106
17165SOL    HW1  334  15.138   1.623   7.161
17165SOL    HW2  335  15.102   1.692   7.018
17166SOL     OW  336  15.488   0.202   0.585
17166SOL    HW1  337  15.443   0.279   0.629
17166SOL    HW2  338  15.435   0.119   0.602
17167SOL     OW  339  12.063   6.022   7.587
17167SOL    HW1  340  12.001   5.981   7.654
17167SOL    HW2  341  12.065   5.965   7.505
17168SOL     OW  342   2.309  16.487   7.416
17168SOL    HW1  343   2.380  16.435   7.463
17168SOL    HW2  344   2.352  16.552   7.353
17169SOL     OW  345   4.056  12.085   7.386
17169SOL    HW1  346   3.985  12.024   7.421
17169SOL    HW2  347   4.023  12.180   7.389
17170SOL     OW  348   1.639   9.836   8.115
17170SOL    HW1  349   1.580   9.846   8.035
17170SOL    HW2  350   1.728   9.801   8.087
17171SOL     OW  351  15.628  10.847   0.335
17171SOL    HW1  352  15.679  10.933   0.339
17171SOL    HW2  353  15.684  10.773   0.373
17172SOL     OW  354  12.919   0.523   5.806
17172SOL    HW1  355  12.865   0.455   5.756
17172SOL    HW2  356  12.858   0.586   5.854
17173SOL     OW  357  12.028   0.227   6.675
17173SOL    HW1  358  11.974   0.231   6.758
17173SOL    HW2  359  11.971   0.198   6.598
17174SOL     OW  360   8.230   4.197   6.772
17174SOL    HW1  361   8.281   4.121   6.731
17174SOL    HW2  362   8.188   4.252   6.699
17175SOL     OW  363   8.479   0.661   7.512
17175SOL    HW1  364   8.505   0.647   7.608
17175SOL    HW2  365   8.390   0.706   7.508
17176SOL     OW  366  16.175   1.682   1.266
17176SOL    HW1  367  16.154   1.592   1.305
17176SOL    HW2  368  16.106   1.706   1.198
17177SOL     OW  369   2.511  16.198   6.718
17177SOL    HW1  370   2.493  16.159   6.808
17177SOL    HW2  371   2.566  16.281   6.727
17178SOL     OW  372   4.433   6.523   0.102
17178SOL    HW1  373   4.494   6.601   0.085
17178SOL    HW2  374   4.378   6.541   0.183
17179SOL     OW  375   1.483   3.416   1.040
17179SOL    HW1  376   1.482   3.415   1.140
17179SOL    HW2  377   1.464   3.325   1.005
17180SOL     OW  378   1.008  16.898   0.409
17180SOL    HW1  379   0.920  16.941   0.391
17180SOL    HW2  380   1.074  16.925   0.339
17181SOL     OW  381  16.246   3.402   1.918
17181SOL    HW1  382  16.265   3.495   1.949
17181SOL    HW2  383  16.151   3.396   1.888
17182SOL     OW  384  13.423   5.372   7.276
17182SOL    HW1  385  13.352   5.336   7.215
17182SOL    HW2  386  13.486   5.429   7.224
17183SOL     OW  387  16.945   6.687   8.402
17183SOL    HW1  388  16.868   6.635   8.363
17183SOL    HW2  389  16.983   6.637   0.026
17184SOL     OW  390  16.938   3.279   7.919
17184SOL    HW1  391  16.877   3.210   7.958
17184SOL    HW2  392   0.049   3.260   7.945
17185SOL     OW  393  11.716   9.165   6.669
17185SOL    HW1  394  11.641   9.228   6.651
17185SOL    HW2  395  11.798   9.197   6.623
17186SOL     OW  396   1.187   3.650   7.037
17186SOL    HW1  397   1.265   3.652   6.973
17186SOL    HW2  398   1.174   3.557   7.071
17187SOL     OW  399   3.045  15.520   1.782
17187SOL    HW1  400   3.034  15.614   1.750
17187SOL    HW2  401   3.142  15.501   1.796
17188SOL     OW  402  16.118  11.801   2.276
17188SOL    HW1  403  16.183  11.769   2.345
17188SOL    HW2  404  16.087  11.724   2.221
17189SOL     OW  405  11.157   4.252   1.139
17189SOL    HW1  406  11.219   4.174   1.130
17189SOL    HW2  407  11.169   4.293   1.230
17190SOL     OW  408  11.526   4.101   6.909
17190SOL    HW1  409  11.576   4.123   6.993
17190SOL    HW2  410  11.428   4.112   6.925
17191SOL     OW  411   2.768  11.954   7.106
17191SOL    HW1  412   2.778  12.051   7.124
17191SOL    HW2  413   2.812  11.931   7.018
17192SOL     OW  414   0.931   7.746   8.232
17192SOL    HW1  415   0.994   7.672   8.258
17192SOL    HW2  416   0.981   7.816   8.181
17193SOL     OW  417   5.859  16.116   7.155
17193SOL    HW1  418   5.830  16.149   7.245
17193SOL    HW2  419   5.788  16.137   7.088
17194SOL     OW  420   8.331  10.313   7.069
17194SOL    HW1  421   8.249  10.353   7.027
17194SOL    HW2  422   8.376  10.381   7.127
17195SOL     OW  423  10.330  15.068   1.539
17195SOL    HW1  424  10.307  15.124   1.618
17195SOL    HW2  425  10.322  15.122   1.455
17196SOL     OW  426   1.217   5.666   1.270
17196SOL    HW1  427   1.188   5.662   1.365
17196SOL    HW2  428   1.142   5.637   1.210
17197SOL     OW  429  12.860  15.863   0.019
17197SOL    HW1  430  12.890  15.798   8.403
17197SOL    HW2  431  12.761  15.858   0.029
17198SOL     OW  432   2.755   1.287   1.557
17198SOL    HW1  433   2.807   1.357   1.606
17198SOL    HW2  434   2.782   1.197   1.589
17199SOL     OW  435   7.949  11.170   0.498
17199SOL    HW1  436   7.855  11.138   0.511
17199SOL    HW2  437   7.953  11.269   0.511
17200SOL     OW  438   8.006   9.259   0.878
17200SOL    HW1  439   7.990   9.280   0.975
17200SOL    HW2  440   7.937   9.194   0.847
17201SOL     OW  441   2.611  13.086   1.129
17201SOL    HW1  442   2.582  13.030   1.207
17201SOL    HW2  443   2.580  13.180   1.143
17202SOL     OW  444   1.799   2.338   7.326
17202SOL    HW1  445   1.721   2.363   7.269
17202SOL    HW2  446   1.767   2.280   7.402
17203SOL     OW  447   5.103   2.290   2.214
17203SOL    HW1  448   5.083   2.383   2.243
17203SOL    HW2  449   5.127   2.235   2.294
17204SOL     OW  450  14.166  10.319   7.411
17204SOL    HW1  451  14.221  10.402   7.420
17204SOL    HW2  452  14.164  10.291   7.315
17205SOL     OW  453  13.665  10.098   1.542
17205SOL    HW1  454  13.744  10.037   1.554
17205SOL    HW2  455  13.645  10.144   1.628
17206SOL     OW  456  12.444  16.700   7.507
17206SOL    HW1  457  12.379  16.772   7.483
17206SOL    HW2  458  12.523  16.740   7.554
17207SOL     OW  459   1.067  10.204   8.058
17207SOL    HW1  460   1.058  10.120   8.112
17207SOL    HW2  461   1.097  10.181   7.966
17208SOL     OW  462   7.245  10.723   7.090
17208SOL    HW1  463   7.225  10.821   7.089
17208SOL    HW2  464   7.181  10.677   7.151
17209SOL     OW  465   8.318   7.972   0.089
17209SOL    HW1  466   8.292   7.950   0.183
17209SOL    HW2  467   8.418   7.971   0.081
17210SOL     OW  468   6.824  10.252   1.207
17210SOL    HW1  469   6.886  10.183   1.245
17210SOL    HW2  470   6.730  10.218   1.210
17211SOL     OW  471  11.676   2.163   6.408
17211SOL    HW1  472  11.707   2.167   6.313
17211SOL    HW2  473  11.599   2.099   6.416
17212SOL     OW  474   2.725   5.439   0.106
17212SOL    HW1  475   2.643   5.385   0.123
17212SOL    HW2  476   2.790   5.425   0.181
17213SOL     OW  477   9.435  14.466   7.829
17213SOL    HW1  478   9.509  14.509   7.777
17213SOL    HW2  479   9.391  14.395   7.774
17214SOL     OW  480   8.831  16.117   7.574
17214SOL    HW1  481   8.896  16.069   7.633
17214SOL    HW2  482   8.767  16.050   7.534
17215SOL     OW  483  15.002  16.948   2.168
17215SOL    HW1  484  15.099  16.938   2.147
17215SOL    HW2  485  14.969  16.864   2.212
17216SOL     OW  486   3.289   7.472   0.564
17216SOL    HW1  487   3.279   7.469   0.663
17216SOL    HW2  488   3.356   7.542   0.539
17217SOL     OW  489   1.271   7.368   0.524
17217SOL    HW1  490   1.208   7.442   0.499
17217SOL    HW2  491   1.334   7.401   0.594
17218SOL     OW  492   9.204  16.346   0.837
17218SOL    HW1  493   9.204  16.443   0.812
17218SOL    HW2  494   9.110  16.310   0.829
17219SOL     OW  495   4.534   9.179   1.727
17219SOL    HW1  496   4.474   9.111   1.683
17219SOL    HW2  497   4.584   9.136   1.802
17220SOL     OW  498   4.305   9.414   1.504
17220SOL    HW1  499   4.396   9.373   1.492
17220SOL    HW2  500   4.313   9.497   1.559
17221SOL     OW  501  14.455   0.533   7.867
17221SOL    HW1  502  14.439   0.621   7.823
17221SOL    HW2  503  14.534   0.489   7.824
17222SOL     OW  504   9.355   3.231   1.170
17222SOL    HW1  505   9.268   3.207   1.127
17222SOL    HW2  506   9.409   3.288   1.108
17223SOL     OW  507  11.747   0.856   0.803
17223SOL    HW1  508  11.688   0.916   0.750
17223SOL    HW2  509  11.694   0.816   0.878
17224SOL     OW  510   9.763   8.459   0.687
17224SOL    HW1  511   9.689   8.422   0.632
17224SOL    HW2  512   9.845   8.402   0.676
17225SOL     OW  513   8.964  15.983   6.796
17225SOL    HW1  514   8.872  15.980   6.835
17225SOL    HW2  515   8.957  15.976   6.696
17226SOL     OW  516  14.637   0.742   6.485
17226SOL    HW1  517  14.612   0.663   6.429
17226SOL    HW2  518  14.662   0.818   6.425
17227SOL     OW  519   8.838   5.177   6.707
17227SOL    HW1  520   8.756   5.216   6.664
17227SOL    HW2  521   8.917   5.195   6.649
17228SOL     OW  522   9.122   1.784   8.389
17228SOL    HW1  523   9.206   1.734   8.412
17228SOL    HW2  524   9.048   1.718   8.373
17229SOL     OW  525  15.775  13.388   7.679
17229SOL    HW1  526  15.756  13.472   7.730
17229SOL    HW2  527  15.873  13.372   7.676
17230SOL     OW  528   3.845  12.685   0.246
17230SOL    HW1  529   3.889  12.760   0.197
17230SOL    HW2  530   3.849  12.703   0.345
17231SOL     OW  531   6.201   4.475   0.272
17231SOL    HW1  532   6.243   4.520   0.193
17231SOL    HW2  533   6.256   4.492   0.353
17232SOL     OW  534   4.581   5.806   6.181
17232SOL    HW1  535   4.575   5.741   6.105
17232SOL    HW2  536   4.648   5.774   6.247
17233SOL     OW  537   3.243   7.279   8.246
17233SOL    HW1  538   3.251   7.232   8.158
17233SOL    HW2  539   3.306   7.237   8.312
17234SOL     OW  540   9.573   1.085   8.244
17234SOL    HW1  541   9.610   1.172   8.212
17234SOL    HW2  542   9.584   1.015   8.173
17235SOL     OW  543   1.708   5.641   0.724
17235SOL    HW1  544   1.704   5.546   0.692
17235SOL    HW2  545   1.717   5.643   0.823
17236SOL     OW  546  10.189   2.722   0.326
17236SOL    HW1  547  10.193   2.771   0.239
17236SOL    HW2  548  10.242   2.638   0.321
17237SOL     OW  549  15.863   3.312   7.876
17237SOL    HW1  550  15.860   3.280   7.781
17237SOL    HW2  551  15.948   3.363   7.890
17238SOL     OW  552  15.999   3.600   0.459
17238SOL    HW1  553  15.954   3.559   0.539
17238SOL    HW2  554  15.985   3.542   0.379
17239SOL     OW  555  11.966   7.272   7.533
17239SOL    HW1  556  11.940   7.175   7.536
17239SOL    HW2  557  12.005   7.292   7.443
17240SOL     OW  558   5.193   2.677   1.569
17240SOL    HW1  559   5.145   2.676   1.481
17240SOL    HW2  560   5.275   2.733   1.561
17241SOL     OW  561   8.118   0.311   7.479
17241SOL    HW1  562   8.171   0.251   7.539
17241SOL    HW2  563   8.027   0.274   7.466
17242SOL     OW  564  14.279   7.582   7.520
17242SOL    HW1  565  14.229   7.512   7.469
17242SOL    HW2  566  14.312   7.651   7.456
17243SOL     OW  567   7.770  14.805   0.349
17243SOL    HW1  568   7.845  14.871   0.351
17243SOL    HW2  569   7.768  14.753   0.434
17244SOL     OW  570   7.211   8.592   8.103
17244SOL    HW1  571   7.289   8.531   8.116
17244SOL    HW2  572   7.216   8.635   8.014
17245SOL     OW  573   9.506  16.784   8.109
17245SOL    HW1  574   9.493  16.884   8.107
17245SOL    HW2  575   9.434  16.741   8.054
17246SOL     OW  576   0.832   4.485   1.424
17246SOL    HW1  577   0.746   4.504   1.472
17246SOL    HW2  578   0.906   4.472   1.491
17247SOL     OW  579   4.303  14.188   0.727
17247SOL    HW1  580   4.234  14.159   0.793
17247SOL    HW2  581   4.391  14.200   0.774
17248SOL     OW  582  14.987   1.096   6.768
17248SOL    HW1  583  15.005   1.004   6.803
17248SOL    HW2  584  15.067   1.128   6.717
17249SOL     OW  585   9.582   3.953   5.780
17249SOL    HW1  586   9.510   3.938   5.848
17249SOL    HW2  587   9.579   3.881   5.712
17250SOL     OW  588   9.682  14.994   1.106
17250SOL    HW1  589   9.583  14.997   1.097
17250SOL    HW2  590   9.721  15.081   1.076
17251SOL     OW  591   1.521  12.321   0.514
17251SOL    HW1  592   1.498  12.291   0.606
17251SOL    HW2  593   1.610  12.366   0.514
17252SOL     OW  594  14.623   0.027   0.200
17252SOL    HW1  595  14.573  16.962   0.128
17252SOL    HW2  596  14.565   0.036   0.281
17253SOL     OW  597   6.537   8.185   8.396
17253SOL    HW1  598   6.483   8.189   8.312
17253SOL    HW2  599   6.622   8.237   8.383
17254SOL     OW  600   8.807   0.311   6.023
17254SOL    HW1  601   8.857   0.259   5.954
17254SOL    HW2  602   8.856   0.308   6.110
17255SOL     OW  603   7.009   9.046   1.568
17255SOL    HW1  604   6.958   8.981   1.512
17255SOL    HW2  605   7.097   9.065   1.524
17256SOL     OW  606  16.919   8.774   1.930
17256SOL    HW1  607  16.983   8.774   2.007
17256SOL    HW2  608  16.889   8.680   1.912
17257SOL     OW  609  13.658   3.609   6.763
17257SOL    HW1  610  13.607   3.564   6.689
17257SOL    HW2  611  13.698   3.539   6.822
17258SOL     OW  612  15.617  10.245   7.316
17258SOL    HW1  613  15.579  10.285   7.233
17258SOL    HW2  614  15.684  10.175   7.293
17259SOL     OW  615   7.647  14.247   7.554
17259SOL    HW1  616   7.632  14.244   7.455
17259SOL    HW2  617   7.584  14.182   7.599
17260SOL     OW  618   5.649   7.181   0.717
17260SOL    HW1  619   5.580   7.194   0.788
17260SOL    HW2  620   5.649   7.086   0.687
17261SOL     OW  621  15.666  15.298   6.929
17261SOL    HW1  622  15.646  15.235   7.004
17261SOL    HW2  623  15.700  15.247   6.850
17262SOL     OW  624   9.096  11.107   8.120
17262SOL    HW1  625   9.130  11.025   8.074
17262SOL    HW2  626   9.057  11.170   8.052
17263SOL     OW  627   9.347   8.833   2.206
17263SOL    HW1  628   9.386   8.780   2.282
17263SOL    HW2  629   9.322   8.924   2.239
17264SOL     OW  630  11.952   5.924   5.839
17264SOL    HW1  631  11.975   5.895   5.747
17264SOL    HW2  632  11.982   6.018   5.853
17265SOL     OW  633  12.681   5.181   7.421
17265SOL    HW1  634  12.678   5.088   7.457
17265SOL    HW2  635  12.777   5.212   7.418
17266SOL     OW  636   4.744   9.884   8.357
17266SOL    HW1  637   4.685   9.861   8.279
17266SOL    HW2  638   4.705   9.962   8.407
17267SOL     OW  639   7.639  13.240   8.147
17267SOL    HW1  640   7.609  13.335   8.156
17267SOL    HW2  641   7.714  13.235   8.081
17268SOL     OW  642  12.215   0.834   1.041
17268SOL    HW1  643  12.202   0.886   1.125
17268SOL    HW2  644  12.141   0.854   0.977
17269SOL     OW  645  10.676  16.535   0.566
17269SOL    HW1  646  10.695  16.632   0.580
17269SOL    HW2  647  10.762  16.486   0.552
17270SOL     OW  648   9.469   5.700   1.471
17270SOL    HW1  649   9.389   5.759   1.463
17270SOL    HW2  650   9.457   5.619   1.413
17271SOL     OW  651  11.492   1.598   0.743
17271SOL    HW1  652  11.432   1.672   0.714
17271SOL    HW2  653  11.473   1.516   0.689
17272SOL     OW  654   2.719   0.193   0.003
17272SOL    HW1  655   2.777   0.123   8.414
17272SOL    HW2  656   2.777   0.258   0.052
17273SOL     OW  657  16.142   3.683   7.426
17273SOL    HW1  658  16.044   3.703   7.432
17273SOL    HW2  659  16.162   3.600   7.478
17274SOL     OW  660   3.273  13.479   1.486
17274SOL    HW1  661   3.256  13.576   1.466
17274SOL    HW2  662   3.345  13.445   1.426
17275SOL     OW  663   5.043   8.606   1.946
17275SOL    HW1  664   5.054   8.516   1.905
17275SOL    HW2  665   5.098   8.612   2.029
17276SOL     OW  666  12.094  15.168   0.931
17276SOL    HW1  667  12.085  15.074   0.965
17276SOL    HW2  668  12.060  15.232   0.999
17277SOL     OW  669  13.540  12.432   7.941
17277SOL    HW1  670  13.557  12.514   7.887
17277SOL    HW2  671  13.590  12.355   7.902
17278SOL     OW  672  11.425   1.804   8.023
17278SOL    HW1  673  11.356   1.736   7.997
17278SOL    HW2  674  11.392   1.895   7.999
17279SOL     OW  675  12.349   8.943   1.786
17279SOL    HW1  676  12.393   8.877   1.847
17279SOL    HW2  677  12.262   8.972   1.826
17280SOL     OW  678  14.525  12.527   0.123
17280SOL    HW1  679  14.593  12.511   0.052
17280SOL    HW2  680  14.497  12.440   0.163
17281SOL     OW  681  14.874   9.061   1.307
17281SOL    HW1  682  14.881   9.137   1.372
17281SOL    HW2  683  14.842   9.096   1.219
17282SOL     OW  684  12.182  14.052   0.585
17282SOL    HW1  685  12.198  13.956   0.607
17282SOL    HW2  686  12.250  14.109   0.631
17283SOL     OW  687   7.468   4.187   0.292
17283SOL    HW1  688   7.403   4.230   0.230
17283SOL    HW2  689   7.518   4.257   0.342
17284SOL     OW  690  14.889  11.561   0.811
17284SOL    HW1  691  14.927  11.572   0.719
17284SOL    HW2  692  14.858  11.650   0.844
17285SOL     OW  693  15.876   6.766   0.168
17285SOL    HW1  694  15.786   6.783   0.209
17285SOL    HW2  695  15.944   6.758   0.241
17286SOL     OW  696  13.824  15.113   0.694
17286SOL    HW1  697  13.921  15.107   0.671
17286SOL    HW2  698  13.795  15.029   0.739
17287SOL     OW  699   8.623  13.372   5.904
17287SOL    HW1  700   8.670  13.284   5.900
17287SOL    HW2  701   8.691  13.446   5.906
17288SOL     OW  702   2.383  16.468   6.557
17288SOL    HW1  703   2.333  16.435   6.476
17288SOL    HW2  704   2.336  16.437   6.640
17289SOL     OW  705   7.238  13.796   2.414
17289SOL    HW1  706   7.255  13.842   2.501
17289SOL    HW2  707   7.240  13.697   2.427
17290SOL     OW  708   6.837  16.709   1.093
17290SOL    HW1  709   6.880  16.670   1.012
17290SOL    HW2  710   6.754  16.758   1.067
17291SOL     OW  711  16.821  16.036   8.256
17291SOL    HW1  712  16.894  15.991   8.204
17291SOL    HW2  713  16.847  16.130   8.277
17292SOL     OW  714   5.598   5.902   7.038
17292SOL    HW1  715   5.603   6.000   7.061
17292SOL    HW2  716   5.574   5.850   7.120
17293SOL     OW  717   6.108  14.462   7.213
17293SOL    HW1  718   6.076  14.484   7.121
17293SOL    HW2  719   6.205  14.488   7.222
17294SOL     OW  720   0.049   1.530   1.290
17294SOL    HW1  721   0.108   1.595   1.338
17294SOL    HW2  722  16.962   1.497   1.352
17295SOL     OW  723  10.801   7.759   7.294
17295SOL    HW1  724  10.792   7.781   7.391
17295SOL    HW2  725  10.795   7.660   7.282
17296SOL     OW  726  12.393   8.165   0.345
17296SOL    HW1  727  12.488   8.163   0.314
17296SOL    HW2  728  12.388   8.212   0.434
17297SOL     OW  729  15.103  13.140   1.411
17297SOL    HW1  730  15.165  13.163   1.486
17297SOL    HW2  731  15.082  13.042   1.413
17298SOL     OW  732  16.191   5.702   8.353
17298SOL    HW1  733  16.286   5.687   8.326
17298SOL    HW2  734  16.183   5.694   8.453
17299SOL     OW  735   2.731   3.619   2.410
17299SOL    HW1  736   2.754   3.706   2.453
17299SOL    HW2  737   2.735   3.546   2.478
17300SOL     OW  738  12.813   5.388   0.054
17300SOL    HW1  739  12.827   5.289   0.057
17300SOL    HW2  740  12.873   5.432   0.120
17301SOL     OW  741  10.998   0.518   1.637
17301SOL    HW1  742  10.938   0.474   1.705
17301SOL    HW2  743  11.027   0.607   1.671
17302SOL     OW  744   1.275   6.738   0.780
17302SOL    HW1  745   1.310   6.815   0.834
17302SOL    HW2  746   1.226   6.773   0.700
17303SOL     OW  747   4.807  12.157   2.226
17303SOL    HW1  748   4.750  12.085   2.265
17303SOL    HW2  749   4.855  12.205   2.300
17304SOL     OW  750  12.345   5.308   7.036
17304SOL    HW1  751  12.430   5.287   7.083
17304SOL    HW2  752  12.300   5.385   7.082
17305SOL     OW  753  12.540  10.478   7.597
17305SOL    HW1  754  12.635  10.490   7.626
17305SOL    HW2  755  12.490  10.563   7.613
17306SOL     OW  756   2.017  16.883   2.096
17306SOL    HW1  757   2.011  16.804   2.158
17306SOL    HW2  758   2.026  16.967   2.149
17307SOL     OW  759   8.438   9.732   1.789
17307SOL    HW1  760   8.435   9.636   1.760
17307SOL    HW2  761   8.372   9.746   1.863
17308SOL     OW  762   2.648   2.103   6.805
17308SOL    HW1  763   2.584   2.062   6.741
17308SOL    HW2  764   2.734   2.125   6.758
17309SOL     OW  765   1.920   6.811   1.324
17309SOL    HW1  766   2.007   6.815   1.274
17309SOL    HW2  767   1.851   6.865   1.276
17310SOL     OW  768  12.227   7.696   8.080
17310SOL    HW1  769  12.258   7.781   8.037
17310SOL    HW2  770  12.219   7.710   8.179
17311SOL     OW  771   6.601   9.245   7.650
17311SOL    HW1  772   6.532   9.271   7.718
17311SOL    HW2  773   6.692   9.260   7.688
17312SOL     OW  774   8.183  14.181   0.930
17312SOL    HW1  775   8.226  14.171   0.840
17312SOL    HW2  776   8.150  14.091   0.961
17313SOL     OW  777   7.589   4.077   7.234
17313SOL    HW1  778   7.546   4.155   7.189
17313SOL    HW2  779   7.527   4.040   7.303
17314SOL     OW  780   5.744   4.889   7.316
17314SOL    HW1  781   5.827   4.934   7.350
17314SOL    HW2  782   5.729   4.804   7.367
17315SOL     OW  783   6.206   1.792   0.641
17315SOL    HW1  784   6.139   1.853   0.598
17315SOL    HW2  785   6.191   1.790   0.740
17316SOL     OW  786   3.791  11.732   8.095
17316SOL    HW1  787   3.846  11.788   8.033
17316SOL    HW2  788   3.821  11.748   8.189
17317SOL     OW  789   4.167  13.528   0.476
17317SOL    HW1  790   4.127  13.437   0.470
17317SOL    HW2  791   4.266  13.521   0.482
17318SOL     OW  792  10.162  12.309   8.354
17318SOL    HW1  793  10.248  12.259   8.364
17318SOL    HW2  794  10.110  12.271   8.277
17319SOL     OW  795  11.186   1.336   0.005
17319SOL    HW1  796  11.182   1.238   0.021
17319SOL    HW2  797  11.267   1.358   8.404
17320SOL     OW  798   3.146   5.245   0.774
17320SOL    HW1  799   3.218   5.224   0.708
17320SOL    HW2  800   3.108   5.160   0.811
17321SOL     OW  801   1.743   0.670   0.600
17321SOL    HW1  802   1.809   0.671   0.525
17321SOL    HW2  803   1.789   0.690   0.686
17322SOL     OW  804   2.379   5.970   0.230
17322SOL    HW1  805   2.459   5.962   0.171
17322SOL    HW2  806   2.332   5.881   0.234
17323SOL     OW  807   6.183  12.106   0.480
17323SOL    HW1  808   6.189  12.169   0.402
17323SOL    HW2  809   6.276  12.081   0.509
17324SOL     OW  810   1.867   7.867   2.176
17324SOL    HW1  811   1.915   7.788   2.141
17324SOL    HW2  812   1.776   7.840   2.208
17325SOL     OW  813  12.535   0.896   7.369
17325SOL    HW1  814  12.441   0.863   7.364
17325SOL    HW2  815  12.557   0.945   7.284
17326SOL     OW  816   9.381  10.923   7.525
17326SOL    HW1  817   9.302  10.874   7.486
17326SOL    HW2  818   9.352  11.015   7.552
17327SOL     OW  819  14.530   9.048   0.996
17327SOL    HW1  820  14.476   9.127   1.024
17327SOL    HW2  821  14.476   8.964   1.006
17328SOL     OW  822   7.621  16.890   0.236
17328SOL    HW1  823   7.688  16.886   0.311
17328SOL    HW2  824   7.548  16.824   0.253
17329SOL     OW  825   7.779   8.499   8.210
17329SOL    HW1  826   7.846   8.567   8.179
17329SOL    HW2  827   7.824   8.435   8.272
17330SOL     OW  828   0.365  10.125   7.866
17330SOL    HW1  829   0.388  10.223   7.862
17330SOL    HW2  830   0.310  10.108   7.948
17331SOL     OW  831  14.716  12.279   0.770
17331SOL    HW1  832  14.736  12.184   0.793
17331SOL    HW2  833  14.721  12.336   0.852
17332SOL     OW  834   4.234  16.896   0.984
17332SOL    HW1  835   4.276  16.810   1.015
17332SOL    HW2  836   4.162  16.876   0.918
17333SOL     OW  837   2.276  13.594   7.888
17333SOL    HW1  838   2.327  13.508   7.892
17333SOL    HW2  839   2.317  13.652   7.817
17334SOL     OW  840  11.456   6.107   6.834
17334SOL    HW1  841  11.539   6.158   6.852
17334SOL    HW2  842  11.466   6.056   6.749
17335SOL     OW  843  10.760  14.956   2.585
17335SOL    HW1  844  10.731  15.046   2.618
17335SOL    HW2  845  10.816  14.912   2.654
17336SOL     OW  846  13.979   1.232   6.971
17336SOL    HW1  847  13.914   1.270   6.905
17336SOL    HW2  848  14.035   1.163   6.926
17337SOL     OW  849  16.813  11.925   0.409
17337SOL    HW1  850  16.840  11.860   0.479
17337SOL    HW2  851  16.764  12.001   0.451
17338SOL     OW  852  16.556   2.932   6.234
17338SOL    HW1  853  16.520   2.842   6.209
17338SOL    HW2  854  16.572   2.986   6.152
17339SOL     OW  855   8.093   8.117   0.010
17339SOL    HW1  856   8.181   8.075   0.032
17339SOL    HW2  857   8.021   8.074   0.064
17340SOL     OW  858   7.832   7.519   1.094
17340SOL    HW1  859   7.905   7.587   1.095
17340SOL    HW2  860   7.837   7.463   1.176
17341SOL     OW  861  14.369   6.976   8.365
17341SOL    HW1  862  14.309   6.896   8.364
17341SOL    HW2  863  14.390   7.001   0.005
17342SOL     OW  864  14.001  14.053   0.487
17342SOL    HW1  865  13.982  13.997   0.407
17342SOL    HW2  866  13.918  14.062   0.542
17343SOL     OW  867  16.443   3.808   0.046
17343SOL    HW1  868  16.395   3.750   0.112
17343SOL    HW2  869  16.383   3.828   8.423
17344SOL     OW  870   8.705   0.338   7.824
17344SOL    HW1  871   8.739   0.297   7.740
17344SOL    HW2  872   8.605   0.347   7.819
17345SOL     OW  873   5.694  15.199   1.581
17345SOL    HW1  874   5.784  15.221   1.620
17345SOL    HW2  875   5.631  15.174   1.654
17346SOL     OW  876   0.828   3.596   7.730
17346SOL    HW1  877   0.903   3.614   7.666
17346SOL    HW2  878   0.743   3.629   7.691
17347SOL     OW  879   2.435  13.243   0.771
17347SOL    HW1  880   2.336  13.253   0.779
17347SOL    HW2  881   2.464  13.157   0.813
17348SOL     OW  882   9.945  12.305   1.647
17348SOL    HW1  883   9.924  12.396   1.681
17348SOL    HW2  884   9.874  12.277   1.582
17349SOL     OW  885   6.500   7.059   6.259
17349SOL    HW1  886   6.548   7.010   6.187
17349SOL    HW2  887   6.422   7.004   6.290
17350SOL     OW  888  15.551  11.083   1.217
17350SOL    HW1  889  15.526  11.040   1.130
17350SOL    HW2  890  15.616  11.024   1.265
17351SOL     OW  891   3.921  14.449   1.974
17351SOL    HW1  892   3.831  14.489   1.960
17351SOL    HW2  893   3.958  14.479   2.062
17352SOL     OW  894  14.117   7.105   1.823
17352SOL    HW1  895  14.125   7.063   1.733
17352SOL    HW2  896  14.087   7.037   1.889
17353SOL     OW  897   5.832   7.740   1.718
17353SOL    HW1  898   5.739   7.740   1.682
17353SOL    HW2  899   5.871   7.831   1.711
17354SOL     OW  900  11.670   4.895   8.116
17354SOL    HW1  901  11.752   4.947   8.090
17354SOL    HW2  902  11.596   4.916   8.053
17355SOL     OW  903   9.145   1.860   0.620
17355SOL    HW1  904   9.113   1.772   0.584
17355SOL    HW2  905   9.207   1.844   0.697
17356SOL     OW  906   6.309   5.377   7.631
17356SOL    HW1  907   6.362   5.292   7.637
17356SOL    HW2  908   6.327   5.434   7.711
17357SOL     OW  909   2.093   9.649   1.791
17357SOL    HW1  910   2.026   9.717   1.819
17357SOL    HW2  911   2.087   9.569   1.851
17358SOL     OW  912   3.850  10.139   7.972
17358SOL    HW1  913   3.931  10.126   7.914
17358SOL    HW2  914   3.800  10.053   7.979
17359SOL     OW  915   4.277   1.898   1.469
17359SOL    HW1  916   4.225   1.865   1.390
17359SOL    HW2  917   4.374   1.876   1.456
17360SOL     OW  918  11.919  15.482   7.681
17360SOL    HW1  919  11.964  15.540   7.748
17360SOL    HW2  920  11.983  15.459   7.607
17361SOL     OW  921  16.087  13.647   0.425
17361SOL    HW1  922  16.067  13.705   0.346
17361SOL    HW2  923  16.018  13.575   0.432
17362SOL     OW  924   7.243  12.819   0.173
17362SOL    HW1  925   7.262  12.909   0.213
17362SOL    HW2  926   7.325  12.762   0.179
17363SOL     OW  927  14.209   0.988   1.292
17363SOL    HW1  928  14.223   0.982   1.391
17363SOL    HW2  929  14.281   0.935   1.245
17364SOL     OW  930   1.347   1.582   6.872
17364SOL    HW1  931   1.272   1.518   6.888
17364SOL    HW2  932   1.310   1.667   6.833
17365SOL     OW  933  12.028   0.851   0.132
17365SOL    HW1  934  12.102   0.804   0.084
17365SOL    HW2  935  11.957   0.785   0.157
17366SOL     OW  936   3.225  14.229   1.219
17366SOL    HW1  937   3.280  14.238   1.135
17366SOL    HW2  938   3.250  14.301   1.283
17367SOL     OW  939   6.144   5.988   8.027
17367SOL    HW1  940   6.110   5.897   8.052
17367SOL    HW2  941   6.075   6.036   7.974
17368SOL     OW  942   4.129  16.433   2.072
17368SOL    HW1  943   4.171  16.468   2.156
17368SOL    HW2  944   4.123  16.333   2.077
17369SOL     OW  945   6.171  16.172   0.604
17369SOL    HW1  946   6.194  16.093   0.660
17369SOL    HW2  947   6.079  16.160   0.566
17370SOL     OW  948  12.304  11.994   0.364
17370SOL    HW1  949  12.300  12.068   0.431
17370SOL    HW2  950  12.285  11.907   0.410
17371SOL     OW  951  15.035  13.805   0.532
17371SOL    HW1  952  15.116  13.774   0.581
17371SOL    HW2  953  15.044  13.781   0.435
17372SOL     OW  954   1.321   3.829   7.220
17372SOL    HW1  955   1.267   3.754   7.181
17372SOL    HW2  956   1.387   3.861   7.152
17373SOL     OW  957   9.953  15.560   0.435
17373SOL    HW1  958   9.992  15.551   0.343
17373SOL    HW2  959  10.013  15.515   0.501
17374SOL     OW  960  13.432   5.008   8.067
17374SOL    HW1  961  13.340   5.047   8.063
17374SOL    HW2  962  13.471   5.005   7.975
17375SOL     OW  963   7.704   5.900   1.575
17375SOL    HW1  964   7.693   5.816   1.521
17375SOL    HW2  965   7.779   5.887   1.640
17376SOL     OW  966   6.195   3.709   1.731
17376SOL    HW1  967   6.282   3.745   1.696
17376SOL    HW2  968   6.140   3.785   1.768
17377SOL     OW  969  14.931   9.347   6.271
17377SOL    HW1  970  14.880   9.282   6.216
17377SOL    HW2  971  14.961   9.423   6.214
17378SOL     OW  972   2.755   6.834   0.995
17378SOL    HW1  973   2.726   6.870   0.906
17378SOL    HW2  974   2.692   6.762   1.024
17379SOL     OW  975  16.300   9.222   1.875
17379SOL    HW1  976  16.287   9.135   1.922
17379SOL    HW2  977  16.212   9.268   1.865
17380SOL     OW  978   8.094  16.051   6.495
17380SOL    HW1  979   8.165  16.109   6.455
17380SOL    HW2  980   8.137  15.982   6.554
17381SOL     OW  981  11.929   8.447   0.929
17381SOL    HW1  982  11.993   8.524   0.932
17381SOL    HW2  983  11.906   8.418   1.022
17382SOL     OW  984   7.749   0.424   7.912
17382SOL    HW1  985   7.702   0.508   7.937
17382SOL    HW2  986   7.682   0.351   7.897
17383SOL     OW  987  11.935  13.105   2.029
17383SOL    HW1  988  11.989  13.021   2.016
17383SOL    HW2  989  11.868  13.091   2.101
17384SOL     OW  990   2.868  14.943   0.544
17384SOL    HW1  991   2.947  14.897   0.584
17384SOL    HW2  992   2.859  14.916   0.448
17385SOL     OW  993  13.831   5.787   7.434
17385SOL    HW1  994  13.816   5.879   7.398
17385SOL    HW2  995  13.886   5.734   7.370
17386SOL     OW  996   4.067   8.141   7.746
17386SOL    HW1  997   4.114   8.059   7.778
17386SOL    HW2  998   4.010   8.118   7.667
17387SOL     OW  999  13.511  12.429   0.106
17387SOL    HW1 1000  13.507  12.355   0.173
17387SOL    HW2 1001  13.559  12.397   0.024
17388SOL     OW 1002  14.558  12.224   8.438
17388SOL    HW1 1003  14.607  12.138   8.423
17388SOL    HW2 1004  14.527  12.228   0.079
17389SOL     OW 1005  15.661   7.732   7.217
17389SOL    HW1 1006  15.672   7.635   7.241
17389SOL    HW2 1007  15.716   7.788   7.279
17390SOL     OW 1008   1.909   3.749   7.983
17390SOL    HW1 1009   1.885   3.653   8.000
17390SOL    HW2 1010   1.878   3.805   8.060
17391SOL     OW 1011  13.055  10.885   7.653
17391SOL    HW1 1012  13.113  10.816   7.696
17391SOL    HW2 1013  13.094  10.910   7.564
17392SOL     OW 1014   4.277   7.293   2.074
17392SOL    HW1 1015   4.267   7.392   2.084
17392SOL    HW2 1016   4.330   7.257   2.151
17393SOL     OW 1017   8.102   7.217   0.852
17393SOL    HW1 1018   8.172   7.245   0.786
17393SOL    HW2 1019   8.133   7.237   0.945
17394SOL     OW 1020   8.170   2.956   8.125
17394SOL    HW1 1021   8.200   2.889   8.057
17394SOL    HW2 1022   8.071   2.970   8.117
17395SOL     OW 1023  12.835   6.816   0.532
17395SOL    HW1 1024  12.835   6.855   0.624
17395SOL    HW2 1025  12.797   6.882   0.468
17396SOL     OW 1026  11.040   0.825   0.058
17396SOL    HW1 1027  10.951   0.840   0.101
17396SOL    HW2 1028  11.027   0.794   8.418
17397SOL     OW 1029  15.285  10.940   7.823
17397SOL    HW1 1030  15.382  10.951   7.848
17397SOL    HW2 1031  15.274  10.957   7.725
17398SOL     OW 1032  14.896  11.765   1.519
17398SOL    HW1 1033  14.848  11.709   1.451
17398SOL    HW2 1034  14.934  11.846   1.475
17399SOL     OW 1035   3.385  11.536   7.692
17399SOL    HW1 1036   3.477  11.525   7.655
17399SOL    HW2 1037   3.317  11.514   7.623
17400SOL     OW 1038   1.214  11.437   1.372
17400SOL    HW1 1039   1.262  11.376   1.310
17400SOL    HW2 1040   1.116  11.413   1.373
17401SOL     OW 1041  15.076   8.998   0.390
17401SOL    HW1 1042  14.989   8.992   0.342
17401SOL    HW2 1043  15.060   9.024   0.486
17402SOL     OW 1044   2.747   0.283   7.694
17402SOL    HW1 1045   2.658   0.318   7.667
17402SOL    HW2 1046   2.751   0.277   7.794
17403SOL     OW 1047   8.994  16.471   1.939
17403SOL    HW1 1048   8.901  16.482   1.904
17403SOL    HW2 1049   8.992  16.472   2.039
17404SOL     OW 1050  12.708   8.443   7.499
17404SOL    HW1 1051  12.795   8.438   7.548
17404SOL    HW2 1052  12.671   8.536   7.507
17405SOL     OW 1053  16.981   8.655   1.603
17405SOL    HW1 1054  16.917   8.606   1.543
17405SOL    HW2 1055   0.041   8.590   1.665
17406SOL     OW 1056  14.580   5.234   8.314
17406SOL    HW1 1057  14.556   5.139   8.291
17406SOL    HW2 1058  14.520   5.267   8.386
17407SOL     OW 1059  12.945  14.968   7.331
17407SOL    HW1 1060  12.848  14.985   7.351
17407SOL    HW2 1061  12.993  14.948   7.416
17408SOL     OW 1062  12.311   7.080   6.379
17408SOL    HW1 1063  12.219   7.062   6.345
17408SOL    HW2 1064  12.367   6.997   6.369
17409SOL     OW 1065   8.970  10.419   0.678
17409SOL    HW1 1066   8.912  10.496   0.651
17409SOL    HW2 1067   9.063  10.453   0.693
17410SOL     OW 1068   3.059   2.885   7.466
17410SOL    HW1 1069   3.086   2.880   7.369
17410SOL    HW2 1070   2.959   2.886   7.473
17411SOL     OW 1071   1.936  12.854   7.724
17411SOL    HW1 1072   2.011  12.795   7.693
17411SOL    HW2 1073   1.965  12.950   7.720
17412SOL     OW 1074  10.624   7.819   0.699
17412SOL    HW1 1075  10.677   7.835   0.616
17412SOL    HW2 1076  10.596   7.723   0.703
17413SOL     OW 1077   4.305  16.286   7.745
17413SOL    HW1 1078   4.363  16.225   7.691
17413SOL    HW2 1079   4.363  16.350   7.796
17414SOL     OW 1080   5.018   9.786   0.508
17414SOL    HW1 1081   5.080   9.772   0.586
17414SOL    HW2 1082   4.971   9.700   0.487
17415SOL     OW 1083  15.616  16.938   1.016
17415SOL    HW1 1084  15.522  16.911   0.994
17415SOL    HW2 1085  15.625  16.948   1.115
17416SOL     OW 1086   5.751  13.842   1.861
17416SOL    HW1 1087   5.738  13.826   1.959
17416SOL    HW2 1088   5.828  13.788   1.828
17417SOL     OW 1089   0.371  16.414   1.544
17417SOL    HW1 1090   0.331  16.360   1.619
17417SOL    HW2 1091   0.461  16.377   1.521
17418SOL     OW 1092   1.203  12.624   0.865
17418SOL    HW1 1093   1.196  12.702   0.928
17418SOL    HW2 1094   1.225  12.658   0.773
17419SOL     OW 1095  16.754   3.305   6.431
17419SOL    HW1 1096  16.844   3.347   6.442
17419SOL    HW2 1097  16.705   3.351   6.357
17420SOL     OW 1098   2.700  16.517   8.107
17420SOL    HW1 1099   2.616  16.565   8.085
17420SOL    HW2 1100   2.741  16.481   8.023
17421SOL     OW 1101  14.164   1.479   7.681
17421SOL    HW1 1102  14.209   1.390   7.671
17421SOL    HW2 1103  14.083   1.482   7.623
17422SOL     OW 1104   3.407   9.368   2.059
17422SOL    HW1 1105   3.436   9.307   2.132
17422SOL    HW2 1106   3.408   9.462   2.092
17423SOL     OW 1107   9.324  11.543   0.637
17423SOL    HW1 1108   9.398  11.495   0.684
17423SOL    HW2 1109   9.346  11.641   0.630
17424SOL     OW 1110  13.739   7.730   0.617
17424SOL    HW1 1111  13.832   7.694   0.610
17424SOL    HW2 1112  13.679   7.658   0.654
17425SOL     OW 1113  16.245  10.931   1.509
17425SOL    HW1 1114  16.258  10.942   1.608
17425SOL    HW2 1115  16.329  10.895   1.468
17426SOL     OW 1116  14.657   1.537   7.675
17426SOL    HW1 1117  14.721   1.581   7.612
17426SOL    HW2 1118  14.565   1.572   7.660
17427SOL     OW 1119  16.243  15.389   6.964
17427SOL    HW1 1120  16.171  15.360   6.901
17427SOL    HW2 1121  16.330  15.395   6.914
17428SOL     OW 1122   1.708   6.823   0.919
17428SOL    HW1 1123   1.658   6.883   0.857
17428SOL    HW2 1124   1.648   6.749   0.949
17429SOL     OW 1125  14.245  14.467   0.653
17429SOL    HW1 1126  14.215  14.404   0.582
17429SOL    HW2 1127  14.344  14.462   0.663
17430SOL     OW 1128   3.376   5.947   7.107
17430SOL    HW1 1129   3.411   5.869   7.158
17430SOL    HW2 1130   3.449   6.015   7.095
17431SOL     OW 1131   9.148   7.489   0.260
17431SOL    HW1 1132   9.111   7.411   0.311
17431SOL    HW2 1133   9.247   7.493   0.274
17432SOL     OW 1134   3.331   1.918   0.602
17432SOL    HW1 1135   3.320   2.017   0.593
17432SOL    HW2 1136   3.353   1.896   0.697
17433SOL     OW 1137  15.546   1.223   7.926
17433SOL    HW1 1138  15.487   1.301   7.908
17433SOL    HW2 1139  15.634   1.235   7.880
17434SOL     OW 1140  11.081   9.333   1.538
17434SOL    HW1 1141  11.042   9.371   1.454
17434SOL    HW2 1142  11.138   9.254   1.516
17435SOL     OW 1143  10.372  15.632   6.999
17435SOL    HW1 1144  10.468  15.660   6.999
17435SOL    HW2 1145  10.365  15.536   7.026
17436SOL     OW 1146  12.042   8.356   0.021
17436SOL    HW1 1147  12.031   8.339   8.377
17436SOL    HW2 1148  12.126   8.313   0.054
17437SOL     OW 1149  13.357   3.654   1.165
17437SOL    HW1 1150  13.379   3.665   1.261
17437SOL    HW2 1151  13.258   3.648   1.154
17438SOL     OW 1152   7.021  14.466   1.667
17438SOL    HW1 1153   7.073  14.428   1.590
17438SOL    HW2 1154   7.084  14.488   1.741
17439SOL     OW 1155   6.891   3.949   7.945
17439SOL    HW1 1156   6.917   4.045   7.953
17439SOL    HW2 1157   6.837   3.922   8.025
17440SOL     OW 1158  10.933  14.031   7.279
17440SOL    HW1 1159  10.893  14.122   7.286
17440SOL    HW2 1160  10.890  13.981   7.204
17441SOL     OW 1161   3.909   9.466   1.639
17441SOL    HW1 1162   3.932   9.526   1.715
17441SOL    HW2 1163   3.814   9.434   1.649
17442SOL     OW 1164  10.883   5.542   1.221
17442SOL    HW1 1165  10.903   5.635   1.251
17442SOL    HW2 1166  10.862   5.542   1.123
17443SOL     OW 1167   7.369  14.091   1.589
17443SOL    HW1 1168   7.425  14.009   1.585
17443SOL    HW2 1169   7.272  14.065   1.588
17444SOL     OW 1170   9.509  10.741   7.694
17444SOL    HW1 1171   9.467  10.802   7.627
17444SOL    HW2 1172   9.605  10.727   7.671
17445SOL     OW 1173  13.794  15.979   7.345
17445SOL    HW1 1174  13.842  16.048   7.291
17445SOL    HW2 1175  13.699  15.974   7.317
17446SOL     OW 1176  12.683   9.632   7.125
17446SOL    HW1 1177  12.585   9.650   7.133
17446SOL    HW2 1178  12.723   9.696   7.059
17447SOL     OW 1179  15.753  16.669   6.858
17447SOL    HW1 1180  15.707  16.580   6.860
17447SOL    HW2 1181  15.850  16.658   6.880
17448SOL     OW 1182  11.459   6.414   0.782
17448SOL    HW1 1183  11.536   6.350   0.788
17448SOL    HW2 1184  11.464   6.466   0.697
17449SOL     OW 1185  13.904   3.574   5.899
17449SOL    HW1 1186  13.842   3.594   5.975
17449SOL    HW2 1187  13.908   3.652   5.837
17450SOL     OW 1188  16.546  15.039   2.124
17450SOL    HW1 1189  16.541  14.967   2.193
17450SOL    HW2 1190  16.611  15.109   2.153
17451SOL     OW 1191  16.938  14.562   0.288
17451SOL    HW1 1192   0.035  14.503   0.283
17451SOL    HW2 1193  16.879  14.531   0.362
17452SOL     OW 1194   7.871  13.117   7.052
17452SOL    HW1 1195   7.797  13.049   7.047
17452SOL    HW2 1196   7.944  13.091   6.988
17453SOL     OW 1197  15.062   8.808   6.902
17453SOL    HW1 1198  15.116   8.868   6.961
17453SOL    HW2 1199  15.075   8.835   6.806
17454SOL     OW 1200  14.960   7.747   0.805
17454SOL    HW1 1201  15.005   7.833   0.829
17454SOL    HW2 1202  15.002   7.709   0.722
17455SOL     OW 1203   5.731  15.770   6.786
17455SOL    HW1 1204   5.758  15.860   6.751
17455SOL    HW2 1205   5.646  15.742   6.743
17456SOL     OW 1206   0.802   0.524   1.488
17456SOL    HW1 1207   0.856   0.591   1.437
17456SOL    HW2 1208   0.842   0.511   1.579
17457SOL     OW 1209   9.077  10.541   7.662
17457SOL    HW1 1210   9.014  10.476   7.705
17457SOL    HW2 1211   9.056  10.548   7.565
17458SOL     OW 1212   0.901  12.294   1.065
17458SOL    HW1 1213   0.985  12.264   1.110
17458SOL    HW2 1214   0.887  12.241   0.982
17459SOL     OW 1215   2.203  15.951   1.170
17459SOL    HW1 1216   2.160  15.979   1.255
17459SOL    HW2 1217   2.275  16.016   1.145
17460SOL     OW 1218   9.195  15.834   7.317
17460SOL    HW1 1219   9.252  15.845   7.235
17460SOL    HW2 1220   9.179  15.737   7.334
17461SOL     OW 1221   2.287  10.391   0.324
17461SOL    HW1 1222   2.300  10.481   0.366
17461SOL    HW2 1223   2.375  10.358   0.288
17462SOL     OW 1224   3.639   4.944   7.711
17462SOL    HW1 1225   3.734   4.919   7.730
17462SOL    HW2 1226   3.633   4.989   7.622
17463SOL     OW 1227   1.087  15.357   1.518
17463SOL    HW1 1228   1.080  15.379   1.421
17463SOL    HW2 1229   1.146  15.425   1.563
17464SOL     OW 1230   6.602   6.841   0.342
17464SOL    HW1 1231   6.655   6.925   0.331
17464SOL    HW2 1232   6.623   6.799   0.431
17465SOL     OW 1233  12.829  12.267   8.324
17465SOL    HW1 1234  12.809  12.169   8.325
17465SOL    HW2 1235  12.920  12.282   8.363
17466SOL     OW 1236   8.948   6.489   1.411
17466SOL    HW1 1237   8.979   6.536   1.329
17466SOL    HW2 1238   8.849   6.479   1.409
17467SOL     OW 1239   7.911  14.631   1.928
17467SOL    HW1 1240   7.888  14.728   1.915
17467SOL    HW2 1241   7.949  14.619   2.020
17468SOL     OW 1242  13.416  16.644   7.082
17468SOL    HW1 1243  13.320  16.613   7.079
17468SOL    HW2 1244  13.443  16.657   7.177
17469SOL     OW 1245   6.390   6.715   0.682
17469SOL    HW1 1246   6.353   6.762   0.602
17469SOL    HW2 1247   6.315   6.693   0.745
17470SOL     OW 1248   6.818   6.216   0.190
17470SOL    HW1 1249   6.848   6.159   0.114
17470SOL    HW2 1250   6.849   6.175   0.276
17471SOL     OW 1251   0.088  14.945   2.441
17471SOL    HW1 1252   0.114  14.868   2.499
17471SOL    HW2 1253   0.160  15.014   2.442
17472SOL     OW 1254   8.663  10.206   0.155
17472SOL    HW1 1255   8.685  10.232   0.061
17472SOL    HW2 1256   8.728  10.138   0.187
17473SOL     OW 1257   6.522  16.917   6.881
17473SOL    HW1 1258   6.499  16.843   6.819
17473SOL    HW2 1259   6.573   0.004   6.832
17474SOL     OW 1260  13.963  11.766   1.332
17474SOL    HW1 1261  13.883  11.739   1.386
17474SOL    HW2 1262  14.043  11.767   1.391
17475SOL     OW 1263  13.368   0.107   1.032
17475SOL    HW1 1264  13.426   0.048   1.089
17475SOL    HW2 1265  13.369   0.200   1.068
17476SOL     OW 1266   8.948   7.193   7.690
17476SOL    HW1 1267   9.043   7.162   7.686
17476SOL    HW2 1268   8.901   7.148   7.766
17477SOL     OW 1269   1.259   7.295   0.149
17477SOL    HW1 1270   1.165   7.316   0.177
17477SOL    HW2 1271   1.308   7.253   0.226
17478SOL     OW 1272   7.096  13.889   0.575
17478SOL    HW1 1273   7.163  13.936   0.519
17478SOL    HW2 1274   7.127  13.795   0.593
17479SOL     OW 1275   0.429  15.568   1.534
17479SOL    HW1 1276   0.459  15.478   1.566
17479SOL    HW2 1277   0.389  15.560   1.443
17480SOL     OW 1278   6.177   3.531   0.473
17480SOL    HW1 1279   6.127   3.446   0.490
17480SOL    HW2 1280   6.251   3.540   0.540
17481SOL     OW 1281   8.207   4.568   0.394
17481SOL    HW1 1282   8.243   4.646   0.343
17481SOL    HW2 1283   8.110   4.584   0.414
17482SOL     OW 1284   7.123   9.681   7.894
17482SOL    HW1 1285   7.125   9.639   7.803
17482SOL    HW2 1286   7.160   9.774   7.888
17483SOL     OW 1287  13.784   4.318   8.407
17483SOL    HW1 1288  13.717   4.315   8.332
17483SOL    HW2 1289  13.742   4.285   0.037
17484SOL     OW 1290   5.526   7.158   1.530
17484SOL    HW1 1291   5.575   7.193   1.449
17484SOL    HW2 1292   5.592   7.140   1.603
17485SOL     OW 1293  10.715   0.431   8.336
17485SOL    HW1 1294  10.769   0.456   8.255
17485SOL    HW2 1295  10.749   0.344   8.372
17486SOL     OW 1296  15.359   5.299   6.460
17486SOL    HW1 1297  15.422   5.279   6.535
17486SOL    HW2 1298  15.337   5.214   6.412
17487SOL     OW 1299   6.312   4.965   7.695
17487SOL    HW1 1300   6.373   5.042   7.678
17487SOL    HW2 1301   6.261   4.944   7.612
17488SOL     OW 1302   9.316   8.001   7.096
17488SOL    HW1 1303   9.244   7.946   7.054
17488SOL    HW2 1304   9.355   8.062   7.027
17489SOL     OW 1305  12.042   0.438   1.487
17489SOL    HW1 1306  12.039   0.347   1.528
17489SOL    HW2 1307  12.117   0.444   1.422
17490SOL     OW 1308   4.224   3.710   0.487
17490SOL    HW1 1309   4.280   3.649   0.543
17490SOL    HW2 1310   4.284   3.773   0.437
17491SOL     OW 1311   7.562   6.733   0.543
17491SOL    HW1 1312   7.568   6.744   0.444
17491SOL    HW2 1313   7.618   6.655   0.571
17492SOL     OW 1314  16.177  13.244   0.248
17492SOL    HW1 1315  16.136  13.157   0.273
17492SOL    HW2 1316  16.143  13.272   0.158
17493SOL     OW 1317   1.787   5.671   7.142
17493SOL    HW1 1318   1.690   5.653   7.161
17493SOL    HW2 1319   1.798   5.694   7.045
17494SOL     OW 1320   4.631  14.520   7.828
17494SOL    HW1 1321   4.723  14.512   7.866
17494SOL    HW2 1322   4.636  14.542   7.731
17495SOL     OW 1323   7.488  16.630   2.049
17495SOL    HW1 1324   7.537  16.663   2.130
17495SOL    HW2 1325   7.555  16.605   1.978
17496SOL     OW 1326   0.771  10.232   0.102
17496SOL    HW1 1327   0.728  10.305   0.155
17496SOL    HW2 1328   0.725  10.146   0.121
17497SOL     OW 1329   7.703  14.874   7.804
17497SOL    HW1 1330   7.662  14.847   7.891
17497SOL    HW2 1331   7.777  14.811   7.781
17498SOL     OW 1332  10.310   1.450   0.317
17498SOL    HW1 1333  10.375   1.375   0.332
17498SOL    HW2 1334  10.231   1.438   0.376
17499SOL     OW 1335   6.693   6.402   0.014
17499SOL    HW1 1336   6.727   6.330   0.075
17499SOL    HW2 1337   6.754   6.481   0.019
17500SOL     OW 1338  14.045  13.817   2.472
17500SOL    HW1 1339  13.965  13.867   2.504
17500SOL    HW2 1340  14.025  13.719   2.472
17501SOL     OW 1341   5.259   7.113   7.536
17501SOL    HW1 1342   5.279   7.205   7.568
17501SOL    HW2 1343   5.201   7.066   7.603
17502SOL     OW 1344   3.595  15.195   7.270
17502SOL    HW1 1345   3.518  15.144   7.233
17502SOL    HW2 1346   3.627  15.261   7.202
17503SOL     OW 1347  16.606   4.260   1.065
17503SOL    HW1 1348  16.630   4.207   1.146
17503SOL    HW2 1349  16.511   4.290   1.071
17504SOL     OW 1350   2.653  11.297   6.860
17504SOL    HW1 1351   2.693  11.336   6.943
17504SOL    HW2 1352   2.723  11.244   6.812
17505SOL     OW 1353   9.046   7.244   8.405
17505SOL    HW1 1354   9.043   7.342   8.429
17505SOL    HW2 1355   8.953   7.207   8.407
17506SOL     OW 1356  16.263   7.716   7.605
17506SOL    HW1 1357  16.220   7.645   7.549
17506SOL    HW2 1358  16.300   7.676   7.688
17507SOL     OW 1359   9.417   2.890   7.866
17507SOL    HW1 1360   9.493   2.837   7.829
17507SOL    HW2 1361   9.371   2.940   7.792
17508SOL     OW 1362   9.795   3.528   2.227
17508SOL    HW1 1363   9.756   3.587   2.298
17508SOL    HW2 1364   9.836   3.585   2.155
17509SOL     OW 1365   0.485  16.731   0.028
17509SOL    HW1 1366   0.554  16.789   8.438
17509SOL    HW2 1367   0.434  16.681   8.412
17510SOL     OW 1368  10.377   2.833   1.366
17510SOL    HW1 1369  10.437   2.900   1.322
17510SOL    HW2 1370  10.319   2.880   1.433
17511SOL     OW 1371   2.637   9.200   1.460
17511SOL    HW1 1372   2.604   9.286   1.421
17511SOL    HW2 1373   2.613   9.124   1.398
17512SOL     OW 1374   7.966  15.704   0.868
17512SOL    HW1 1375   7.984  15.607   0.886
17512SOL    HW2 1376   7.886  15.712   0.807
17513SOL     OW 1377   4.801   4.680   0.155
17513SOL    HW1 1378   4.722   4.634   0.196
17513SOL    HW2 1379   4.789   4.779   0.164
17514SOL     OW 1380   8.618   9.266   1.580
17514SOL    HW1 1381   8.650   9.330   1.650
17514SOL    HW2 1382   8.525   9.237   1.602
17515SOL     OW 1383   2.120   1.610   6.626
17515SOL    HW1 1384   2.200   1.615   6.567
17515SOL    HW2 1385   2.039   1.641   6.576
17516SOL     OW 1386   1.442   7.314   6.646
17516SOL    HW1 1387   1.542   7.305   6.644
17516SOL    HW2 1388   1.417   7.408   6.622
17517SOL     OW 1389  15.292  15.400   1.221
17517SOL    HW1 1390  15.252  15.388   1.130
17517SOL    HW2 1391  15.251  15.335   1.284
17518SOL     OW 1392  13.202   4.506   0.635
17518SOL    HW1 1393  13.242   4.598   0.632
17518SOL    HW2 1394  13.190   4.471   0.543
17519SOL     OW 1395   2.557   3.409   7.870
17519SOL    HW1 1396   2.520   3.466   7.797
17519SOL    HW2 1397   2.523   3.441   7.958
17520SOL     OW 1398   3.181   6.805   0.077
17520SOL    HW1 1399   3.236   6.862   0.017
17520SOL    HW2 1400   3.089   6.796   0.040
17521SOL     OW 1401   3.735   4.257   1.760
17521SOL    HW1 1402   3.718   4.200   1.680
17521SOL    HW2 1403   3.649   4.301   1.788
17522SOL     OW 1404   8.551  15.665   7.040
17522SOL    HW1 1405   8.636  15.636   6.996
17522SOL    HW2 1406   8.567  15.682   7.137
17523SOL     OW 1407  16.932  15.482   2.000
17523SOL    HW1 1408  16.967  15.396   2.039
17523SOL    HW2 1409  16.849  15.509   2.050
17524SOL     OW 1410  11.183  14.357   7.107
17524SOL    HW1 1411  11.267  14.301   7.103
17524SOL    HW2 1412  11.148  14.355   7.201
17525SOL     OW 1413   3.832  16.350   7.765
17525SOL    HW1 1414   3.754  16.294   7.794
17525SOL    HW2 1415   3.806  16.402   7.683
17526SOL     OW 1416   3.259   5.063   7.732
17526SOL    HW1 1417   3.296   5.000   7.663
17526SOL    HW2 1418   3.298   5.154   7.718
17527SOL     OW 1419  13.424   8.455   6.627
17527SOL    HW1 1420  13.497   8.386   6.626
17527SOL    HW2 1421  13.402   8.478   6.721
17528SOL     OW 1422   0.376  11.537   2.029
17528SOL    HW1 1423   0.379  11.630   1.991
17528SOL    HW2 1424   0.411  11.539   2.122
17529SOL     OW 1425   1.759  14.226   7.112
17529SOL    HW1 1426   1.799  14.293   7.050
17529SOL    HW2 1427   1.708  14.158   7.060
17530SOL     OW 1428  16.745   7.663   8.019
17530SOL    HW1 1429  16.738   7.608   8.103
17530SOL    HW2 1430  16.697   7.750   8.031
17531SOL     OW 1431   1.714  14.784   3.072
17531SOL    HW1 1432   1.742  14.789   3.168
17531SOL    HW2 1433   1.621  14.748   3.066
17532SOL     OW 1434   6.893   5.458   0.210
17532SOL    HW1 1435   6.894   5.365   0.247
17532SOL    HW2 1436   6.984   5.499   0.217
17533SOL     OW 1437  12.279   3.648   5.897
17533SOL    HW1 1438  12.348   3.583   5.927
17533SOL    HW2 1439  12.211   3.600   5.841
17534SOL     OW 1440  12.671   0.235   1.681
17534SOL    HW1 1441  12.717   0.324   1.689
17534SOL    HW2 1442  12.667   0.208   1.585
17535SOL     OW 1443   2.904   5.190   1.165
17535SOL    HW1 1444   2.805   5.196   1.176
17535SOL    HW2 1445   2.948   5.219   1.250
17536SOL     OW 1446   1.828  14.586   2.754
17536SOL    HW1 1447   1.845  14.671   2.803
17536SOL    HW2 1448   1.910  14.559   2.704
17537SOL     OW 1449   8.354  15.086   6.402
17537SOL    HW1 1450   8.440  15.045   6.431
17537SOL    HW2 1451   8.331  15.054   6.311
17538SOL     OW 1452  13.176   6.771   8.045
17538SOL    HW1 1453  13.103   6.706   8.067
17538SOL    HW2 1454  13.198   6.826   8.126
17539SOL     OW 1455   8.177  14.221   1.205
17539SOL    HW1 1456   8.102  14.281   1.232
17539SOL    HW2 1457   8.169  14.199   1.108
17540SOL     OW 1458   1.714   9.974   7.352
17540SOL    HW1 1459   1.628   9.938   7.386
17540SOL    HW2 1460   1.754   9.909   7.288
17541SOL     OW 1461   7.513  16.547   1.169
17541SOL    HW1 1462   7.561  16.634   1.156
17541SOL    HW2 1463   7.425  16.550   1.121
17542SOL     OW 1464   4.606   7.317   1.402
17542SOL    HW1 1465   4.569   7.237   1.450
17542SOL    HW2 1466   4.552   7.398   1.426
17543SOL     OW 1467  11.831   7.245   7.213
17543SOL    HW1 1468  11.880   7.157   7.215
17543SOL    HW2 1469  11.801   7.264   7.119
17544SOL     OW 1470   0.849   3.202   0.616
17544SOL    HW1 1471   0.920   3.183   0.683
17544SOL    HW2 1472   0.891   3.216   0.526
17545SOL     OW 1473   7.668  10.347   7.618
17545SOL    HW1 1474   7.683  10.392   7.530
17545SOL    HW2 1475   7.621  10.259   7.604
17546SOL     OW 1476   9.691   7.851   6.907
17546SOL    HW1 1477   9.648   7.770   6.947
17546SOL    HW2 1478   9.691   7.925   6.975
17547SOL     OW 1479  14.016  10.739   1.510
17547SOL    HW1 1480  14.060  10.761   1.424
17547SOL    HW2 1481  14.077  10.680   1.564
17548SOL     OW 1482  11.403   1.563   0.373
17548SOL    HW1 1483  11.471   1.633   0.349
17548SOL    HW2 1484  11.439   1.505   0.446
17549SOL     OW 1485   5.391   0.207   1.255
17549SOL    HW1 1486   5.433   0.170   1.172
17549SOL    HW2 1487   5.408   0.305   1.260
17550SOL     OW 1488   2.786  11.401   7.076
17550SOL    HW1 1489   2.834  11.477   7.030
17550SOL    HW2 1490   2.739  11.436   7.157
17551SOL     OW 1491  16.945   8.943   0.835
17551SOL    HW1 1492  16.876   8.872   0.822
17551SOL    HW2 1493   0.045   8.917   0.786
17552SOL     OW 1494  15.568   9.893   8.124
17552SOL    HW1 1495  15.532   9.882   8.031
17552SOL    HW2 1496  15.607   9.984   8.134
17553SOL     OW 1497   6.561   0.094   0.880
17553SOL    HW1 1498   6.571   0.005   0.925
17553SOL    HW2 1499   6.651   0.130   0.857
17554SOL     OW 1500   8.693  12.540   7.974
17554SOL    HW1 1501   8.773  12.564   8.030
17554SOL    HW2 1502   8.625  12.495   8.031
17555SOL     OW 1503  13.479   0.571   0.626
17555SOL    HW1 1504  13.517   0.479   0.640
17555SOL    HW2 1505  13.511   0.631   0.699
17556SOL     OW 1506   8.971  12.778   7.759
17556SOL    HW1 1507   8.896  12.717   7.737
17556SOL    HW2 1508   9.004  12.821   7.675
17557SOL     OW 1509   6.242  15.704   0.155
17557SOL    HW1 1510   6.263  15.766   0.079
17557SOL    HW2 1511   6.200  15.755   0.230
17558SOL     OW 1512   6.729  14.912   7.560
17558SOL    HW1 1513   6.712  15.000   7.515
17558SOL    HW2 1514   6.793  14.924   7.636
17559SOL     OW 1515   0.747  13.083   8.088
17559SOL    HW1 1516   0.825  13.025   8.064
17559SOL    HW2 1517   0.778  13.176   8.107
17560SOL     OW 1518  16.382  11.160   7.991
17560SOL    HW1 1519  16.306  11.218   7.963
17560SOL    HW2 1520  16.348  11.070   8.017
17561SOL     OW 1521   8.232   6.920   6.641
17561SOL    HW1 1522   8.238   6.996   6.706
17561SOL    HW2 1523   8.278   6.945   6.556
17562SOL     OW 1524   6.187   7.996   8.281
17562SOL    HW1 1525   6.181   8.096   8.292
17562SOL    HW2 1526   6.277   7.972   8.245
17563SOL     OW 1527  15.858  13.815   2.535
17563SOL    HW1 1528  15.873  13.866   2.619
17563SOL    HW2 1529  15.840  13.879   2.460
17564SOL     OW 1530   4.516  13.817   0.562
17564SOL    HW1 1531   4.574  13.832   0.643
17564SOL    HW2 1532   4.432  13.870   0.571
17565SOL     OW 1533   6.341   0.522   1.864
17565SOL    HW1 1534   6.317   0.560   1.954
17565SOL    HW2 1535   6.428   0.561   1.834
17566SOL     OW 1536  12.395   9.147   6.753
17566SOL    HW1 1537  12.457   9.201   6.695
17566SOL    HW2 1538  12.302   9.183   6.746
17567SOL     OW 1539   6.301  15.163   0.357
17567SOL    HW1 1540   6.388  15.194   0.318
17567SOL    HW2 1541   6.305  15.170   0.456
17568SOL     OW 1542   2.522   0.343   6.923
17568SOL    HW1 1543   2.546   0.284   6.846
17568SOL    HW2 1544   2.557   0.303   7.008
17569SOL     OW 1545  13.468   4.063   0.325
17569SOL    HW1 1546  13.412   4.110   0.393
17569SOL    HW2 1547  13.550   4.026   0.369
17570SOL     OW 1548  15.916  13.987   7.540
17570SOL    HW1 1549  15.867  13.956   7.621
17570SOL    HW2 1550  16.014  13.974   7.554
17571SOL     OW 1551   7.026  11.840   7.205
17571SOL    HW1 1552   7.105  11.780   7.215
17571SOL    HW2 1553   6.945  11.786   7.182
17572SOL     OW 1554  12.548  15.350   0.942
17572SOL    HW1 1555  12.475  15.413   0.915
17572SOL    HW2 1556  12.600  15.389   1.018
17573SOL     OW 1557   8.492   0.898   7.989
17573SOL    HW1 1558   8.539   0.812   8.009
17573SOL    HW2 1559   8.560   0.969   7.970
17574SOL     OW 1560  14.559   9.440   7.081
17574SOL    HW1 1561  14.614   9.522   7.064
17574SOL    HW2 1562  14.481   9.439   7.018
17575SOL     OW 1563   6.035   7.022   2.909
17575SOL    HW1 1564   6.108   7.033   2.842
17575SOL    HW2 1565   6.047   7.088   2.983
17576SOL     OW 1566  10.496   6.863   7.897
17576SOL    HW1 1567  10.402   6.864   7.861
17576SOL    HW2 1568  10.557   6.907   7.831
17577SOL     OW 1569  16.972  16.124   0.094
17577SOL    HW1 1570  16.956  16.188   0.019
17577SOL    HW2 1571   0.027  16.172   0.172
17578SOL     OW 1572  12.042   3.770   1.409
17578SOL    HW1 1573  12.058   3.812   1.498
17578SOL    HW2 1574  12.076   3.831   1.337
17579SOL     OW 1575   8.587   2.243   7.870
17579SOL    HW1 1576   8.501   2.284   7.839
17579SOL    HW2 1577   8.592   2.148   7.838
17580SOL     OW 1578  10.881   1.016   1.331
17580SOL    HW1 1579  10.873   1.112   1.307
17580SOL    HW2 1580  10.832   0.960   1.264
17581SOL     OW 1581  11.856   4.605   0.622
17581SOL    HW1 1582  11.936   4.644   0.668
17581SOL    HW2 1583  11.796   4.678   0.592
17582SOL     OW 1584   6.992   9.176   6.614
17582SOL    HW1 1585   6.954   9.147   6.526
17582SOL    HW2 1586   7.091   9.162   6.614
17583SOL     OW 1587  12.794  12.021   8.007
17583SOL    HW1 1588  12.788  12.121   8.003
17583SOL    HW2 1589  12.738  11.988   8.082
17584SOL     OW 1590  12.388  12.736   1.260
17584SOL    HW1 1591  12.384  12.775   1.168
17584SOL    HW2 1592  12.296  12.719   1.294
17585SOL     OW 1593  16.655   9.313   0.984
17585SOL    HW1 1594  16.576   9.260   0.953
17585SOL    HW2 1595  16.637   9.349   1.075
17586SOL     OW 1596   3.233  15.946   0.440
17586SOL    HW1 1597   3.169  15.869   0.434
17586SOL    HW2 1598   3.266  15.969   0.349
17587SOL     OW 1599  15.594   2.880   8.395
17587SOL    HW1 1600  15.558   2.856   0.032
17587SOL    HW2 1601  15.522   2.871   8.327
17588SOL     OW 1602   0.296   7.706   1.231
17588SOL    HW1 1603   0.246   7.759   1.300
17588SOL    HW2 1604   0.395   7.718   1.246
17589SOL     OW 1605   9.389  14.640   8.429
17589SOL    HW1 1606   9.410  14.570   0.044
17589SOL    HW2 1607   9.471  14.695   8.413
17590SOL     OW 1608   4.032  10.374   1.059
17590SOL    HW1 1609   4.050  10.390   0.962
17590SOL    HW2 1610   4.118  10.356   1.107
17591SOL     OW 1611   5.212   1.676   8.208
17591SOL    HW1 1612   5.208   1.593   8.265
17591SOL    HW2 1613   5.298   1.724   8.225
17592SOL     OW 1614   9.578   2.865   7.007
17592SOL    HW1 1615   9.536   2.886   7.096
17592SOL    HW2 1616   9.597   2.951   6.958
17593SOL     OW 1617  10.219  15.696   0.588
17593SOL    HW1 1618  10.196  15.760   0.661
17593SOL    HW2 1619  10.176  15.607   0.606
17594SOL     OW 1620   1.516   6.648   1.022
17594SOL    HW1 1621   1.492   6.699   1.105
17594SOL    HW2 1622   1.448   6.577   1.006
17595SOL     OW 1623  12.271   7.360   7.512
17595SOL    HW1 1624  12.197   7.347   7.445
17595SOL    HW2 1625  12.306   7.271   7.541
17596SOL     OW 1626  16.812   9.481   1.737
17596SOL    HW1 1627  16.778   9.549   1.672
17596SOL    HW2 1628  16.763   9.491   1.823
17597SOL     OW 1629   8.973   3.902   7.430
17597SOL    HW1 1630   8.991   3.854   7.344
17597SOL    HW2 1631   8.892   3.960   7.420
17598SOL     OW 1632  11.556  11.098   7.813
17598SOL    HW1 1633  11.608  11.046   7.745
17598SOL    HW2 1634  11.477  11.140   7.770
17599SOL     OW 1635  12.609   1.903   7.165
17599SOL    HW1 1636  12.524   1.871   7.207
17599SOL    HW2 1637  12.672   1.933   7.236
17600SOL     OW 1638  16.349   0.937   0.521
17600SOL    HW1 1639  16.421   0.924   0.452
17600SOL    HW2 1640  16.299   0.852   0.533
17601SOL     OW 1641   1.909  12.518   7.344
17601SOL    HW1 1642   1.853  12.462   7.283
17601SOL    HW2 1643   1.878  12.507   7.438
17602SOL     OW 1644  11.090   4.843   6.834
17602SOL    HW1 1645  11.147   4.915   6.874
17602SOL    HW2 1646  11.128   4.753   6.858
17603SOL     OW 1647   5.447   1.980   7.391
17603SOL    HW1 1648   5.449   2.051   7.321
17603SOL    HW2 1649   5.404   2.017   7.474
17604SOL     OW 1650   9.294   9.852   8.124
17604SOL    HW1 1651   9.244   9.901   8.052
17604SOL    HW2 1652   9.367   9.798   8.082
17605SOL     OW 1653   2.539   0.824   2.179
17605SOL    HW1 1654   2.602   0.878   2.236
17605SOL    HW2 1655   2.446   0.860   2.188
17606SOL     OW 1656  12.011  10.371   0.359
17606SOL    HW1 1657  12.111  10.365   0.367
17606SOL    HW2 1658  11.976  10.286   0.322
17607SOL     OW 1659   0.902   8.081   2.228
17607SOL    HW1 1660   0.882   7.993   2.271
17607SOL    HW2 1661   1.001   8.098   2.232
17608SOL     OW 1662  12.795  10.206   6.853
17608SOL    HW1 1663  12.748  10.134   6.803
17608SOL    HW2 1664  12.820  10.173   6.944
17609SOL     OW 1665   3.098   4.889   6.887
17609SOL    HW1 1666   3.177   4.850   6.933
17609SOL    HW2 1667   3.033   4.923   6.955
17610SOL     OW 1668  15.173   6.853   6.830
17610SOL    HW1 1669  15.126   6.921   6.773
17610SOL    HW2 1670  15.143   6.761   6.804
17611SOL     OW 1671   9.986   3.984   6.509
17611SOL    HW1 1672  10.016   3.915   6.575
17611SOL    HW2 1673  10.058   4.000   6.442
17612SOL     OW 1674  11.977   3.872   6.240
17612SOL    HW1 1675  12.035   3.954   6.244
17612SOL    HW2 1676  12.007   3.814   6.164
17613SOL     OW 1677   3.113   2.185   0.352
17613SOL    HW1 1678   3.175   2.196   0.429
17613SOL    HW2 1679   3.159   2.131   0.281
17614SOL     OW 1680  11.635  15.837   0.915
17614SOL    HW1 1681  11.547  15.812   0.873
17614SOL    HW2 1682  11.662  15.928   0.885
17615SOL     OW 1683   3.291   0.729   6.182
17615SOL    HW1 1684   3.268   0.826   6.173
17615SOL    HW2 1685   3.231   0.674   6.124
17616SOL     OW 1686  14.898   2.343   6.671
17616SOL    HW1 1687  14.967   2.297   6.614
17616SOL    HW2 1688  14.848   2.276   6.725
17617SOL     OW 1689  12.310  12.180   0.586
17617SOL    HW1 1690  12.304  12.259   0.647
17617SOL    HW2 1691  12.255  12.106   0.623
17618SOL     OW 1692   3.718   1.929   0.553
17618SOL    HW1 1693   3.788   1.990   0.515
17618SOL    HW2 1694   3.640   1.925   0.491
17619SOL     OW 1695  13.748  13.227   0.360
17619SOL    HW1 1696  13.687  13.299   0.327
17619SOL    HW2 1697  13.842  13.259   0.358
17620SOL     OW 1698  10.677  15.185   2.714
17620SOL    HW1 1699  10.585  15.203   2.748
17620SOL    HW2 1700  10.744  15.233   2.770
17621SOL     OW 1701   7.541   1.760   6.800
17621SOL    HW1 1702   7.555   1.667   6.768
17621SOL    HW2 1703   7.459   1.798   6.757
17622SOL     OW 1704  13.683   3.476   0.911
17622SOL    HW1 1705  13.748   3.546   0.881
17622SOL    HW2 1706  13.591   3.515   0.911
17623SOL     OW 1707   4.866  16.327   6.144
17623SOL    HW1 1708   4.915  16.413   6.160
17623SOL    HW2 1709   4.893  16.290   6.055
17624SOL     OW 1710   5.667   5.695   0.656
17624SOL    HW1 1711   5.644   5.738   0.743
17624SOL    HW2 1712   5.584   5.689   0.600
17625SOL     OW 1713  11.445  16.088   0.379
17625SOL    HW1 1714  11.387  16.170   0.377
17625SOL    HW2 1715  11.423  16.034   0.460
17626SOL     OW 1716   7.342   7.866   6.954
17626SOL    HW1 1717   7.390   7.869   7.042
17626SOL    HW2 1718   7.371   7.943   6.897
17627SOL     OW 1719   8.757   6.296   0.382
17627SOL    HW1 1720   8.825   6.237   0.425
17627SOL    HW2 1721   8.714   6.248   0.305
17628SOL     OW 1722  12.784   5.555   6.888
17628SOL    HW1 1723  12.807   5.486   6.956
17628SOL    HW2 1724  12.842   5.636   6.902
17629SOL     OW 1725  11.122   8.238   7.355
17629SOL    HW1 1726  11.120   8.335   7.380
17629SOL    HW2 1727  11.194   8.222   7.288
17630SOL     OW 1728  14.263  12.852   0.419
17630SOL    HW1 1729  14.199  12.807   0.481
17630SOL    HW2 1730  14.277  12.794   0.338
17631SOL     OW 1731   8.827  11.695   7.944
17631SOL    HW1 1732   8.816  11.680   7.846
17631SOL    HW2 1733   8.890  11.627   7.981
17632SOL     OW 1734   5.985  12.263   0.961
17632SOL    HW1 1735   6.006  12.343   0.905
17632SOL    HW2 1736   6.014  12.180   0.913
17633SOL     OW 1737   2.926   4.501   7.893
17633SOL    HW1 1738   2.902   4.424   7.951
17633SOL    HW2 1739   2.969   4.573   7.947
17634SOL     OW 1740  13.136  12.229   0.952
17634SOL    HW1 1741  13.108  12.150   1.006
17634SOL    HW2 1742  13.235  12.243   0.962
17635SOL     OW 1743  12.692   0.628   0.514
17635SOL    HW1 1744  12.669   0.694   0.585
17635SOL    HW2 1745  12.609   0.580   0.484
17636SOL     OW 1746   2.636   1.805   0.541
17636SOL    HW1 1747   2.548   1.842   0.510
17636SOL    HW2 1748   2.709   1.841   0.484
17637SOL     OW 1749   5.992   9.350   1.091
17637SOL    HW1 1750   5.934   9.348   1.172
17637SOL    HW2 1751   6.077   9.398   1.111
17638SOL     OW 1752   0.521   3.688   5.987
17638SOL    HW1 1753   0.497   3.740   5.905
17638SOL    HW2 1754   0.607   3.639   5.971
17639SOL     OW 1755   3.608   8.451   7.361
17639SOL    HW1 1756   3.568   8.452   7.269
17639SOL    HW2 1757   3.617   8.544   7.394
17640SOL     OW 1758  14.762  13.767   0.565
17640SOL    HW1 1759  14.723  13.753   0.475
17640SOL    HW2 1760  14.861  13.779   0.557
17641SOL     OW 1761  15.292   3.698   1.636
17641SOL    HW1 1762  15.314   3.754   1.716
17641SOL    HW2 1763  15.320   3.603   1.653
17642SOL     OW 1764   5.747   3.237   8.222
17642SOL    HW1 1765   5.705   3.197   8.141
17642SOL    HW2 1766   5.841   3.263   8.202
17643SOL     OW 1767   3.600   1.662   0.878
17643SOL    HW1 1768   3.676   1.683   0.817
17643SOL    HW2 1769   3.582   1.563   0.876
17644SOL     OW 1770   9.816   9.684   6.855
17644SOL    HW1 1771   9.752   9.685   6.778
17644SOL    HW2 1772   9.908   9.662   6.822
17645SOL     OW 1773  13.537  13.932   6.842
17645SOL    HW1 1774  13.525  13.840   6.804
17645SOL    HW2 1775  13.549  13.998   6.767
17646SOL     OW 1776   5.936  11.070   7.221
17646SOL    HW1 1777   5.906  11.153   7.267
17646SOL    HW2 1778   5.974  11.093   7.132
17647SOL     OW 1779  10.500  13.050   1.652
17647SOL    HW1 1780  10.430  13.114   1.683
17647SOL    HW2 1781  10.544  13.085   1.569
17648SOL     OW 1782   9.497   9.148   8.057
17648SOL    HW1 1783   9.407   9.173   8.093
17648SOL    HW2 1784   9.492   9.055   8.019
17649SOL     OW 1785   8.808   1.103   0.498
17649SOL    HW1 1786   8.737   1.173   0.504
17649SOL    HW2 1787   8.782   1.034   0.430
17650SOL     OW 1788   6.479  12.339   7.445
17650SOL    HW1 1789   6.460  12.359   7.541
17650SOL    HW2 1790   6.494  12.424   7.395
17651SOL     OW 1791   7.518  10.105   7.574
17651SOL    HW1 1792   7.458  10.127   7.651
17651SOL    HW2 1793   7.486  10.021   7.530
17652SOL     OW 1794  15.997  13.684   1.680
17652SOL    HW1 1795  15.990  13.604   1.740
17652SOL    HW2 1796  16.086  13.729   1.695
17653SOL     OW 1797  12.781   2.561   8.338
17653SOL    HW1 1798  12.722   2.584   8.260
17653SOL    HW2 1799  12.724   2.527   8.413
17654SOL     OW 1800   5.146   2.652   0.403
17654SOL    HW1 1801   5.075   2.584   0.387
17654SOL    HW2 1802   5.125   2.736   0.353
17655SOL     OW 1803   9.564  10.374   8.405
17655SOL    HW1 1804   9.512  10.315   0.012
17655SOL    HW2 1805   9.558  10.468   8.436
17656SOL     OW 1806   1.871  15.842   1.772
17656SOL    HW1 1807   1.781  15.799   1.771
17656SOL    HW2 1808   1.863  15.936   1.804
17657SOL     OW 1809   5.697  10.338   8.333
17657SOL    HW1 1810   5.782  10.364   8.287
17657SOL    HW2 1811   5.679  10.402   8.408
17658SOL     OW 1812  11.446  11.214   7.403
17658SOL    HW1 1813  11.470  11.304   7.440
17658SOL    HW2 1814  11.530  11.167   7.373
17659SOL     OW 1815   9.771   3.337   0.521
17659SOL    HW1 1816   9.870   3.330   0.511
17659SOL    HW2 1817   9.749   3.372   0.612
17660SOL     OW 1818   8.588   2.068   2.050
17660SOL    HW1 1819   8.628   2.160   2.042
17660SOL    HW2 1820   8.661   2.000   2.057
17661SOL     OW 1821   3.720   8.595   8.382
17661SOL    HW1 1822   3.644   8.618   8.321
17661SOL    HW2 1823   3.714   8.499   8.408
17662SOL     OW 1824   1.075   9.784   6.759
17662SOL    HW1 1825   1.116   9.739   6.680
17662SOL    HW2 1826   1.132   9.861   6.787
17663SOL     OW 1827   8.394  12.816   1.108
17663SOL    HW1 1828   8.423  12.792   1.201
17663SOL    HW2 1829   8.474  12.837   1.052
17664SOL     OW 1830   1.447   8.065   0.709
17664SOL    HW1 1831   1.355   8.092   0.736
17664SOL    HW2 1832   1.509   8.077   0.787
17665SOL     OW 1833  10.203  14.657   6.299
17665SOL    HW1 1834  10.235  14.731   6.241
17665SOL    HW2 1835  10.142  14.597   6.247
17666SOL     OW 1836   4.524  10.230   7.963
17666SOL    HW1 1837   4.546  10.326   7.949
17666SOL    HW2 1838   4.607  10.180   7.989
17667SOL     OW 1839  13.699  11.846   8.181
17667SOL    HW1 1840  13.741  11.853   8.090
17667SOL    HW2 1841  13.603  11.821   8.171
17668SOL     OW 1842   6.657  12.129   7.464
17668SOL    HW1 1843   6.594  12.205   7.450
17668SOL    HW2 1844   6.627  12.073   7.541
17669SOL     OW 1845   5.386   6.456   0.220
17669SOL    HW1 1846   5.388   6.554   0.201
17669SOL    HW2 1847   5.331   6.410   0.150
17670SOL     OW 1848  12.101   6.498   0.496
17670SOL    HW1 1849  12.186   6.547   0.517
17670SOL    HW2 1850  12.023   6.555   0.522
17671SOL     OW 1851   9.356  13.106   1.917
17671SOL    HW1 1852   9.283  13.141   1.975
17671SOL    HW2 1853   9.405  13.033   1.967
17672SOL     OW 1854   6.303   5.589   0.926
17672SOL    HW1 1855   6.224   5.535   0.956
17672SOL    HW2 1856   6.358   5.615   1.005
17673SOL     OW 1857   9.204  14.048   0.496
17673SOL    HW1 1858   9.244  14.000   0.418
17673SOL    HW2 1859   9.106  14.059   0.481
17674SOL     OW 1860  12.108   4.308   6.034
17674SOL    HW1 1861  12.125   4.400   5.998
17674SOL    HW2 1862  12.116   4.242   5.960
17675SOL     OW 1863   0.298  15.120   2.431
17675SOL    HW1 1864   0.266  15.213   2.449
17675SOL    HW2 1865   0.345  15.118   2.343
17676SOL     OW 1866  11.192   5.805   0.277
17676SOL    HW1 1867  11.231   5.745   0.347
17676SOL    HW2 1868  11.225   5.898   0.291
17677SOL     OW 1869  16.230   9.888   0.039
17677SOL    HW1 1870  16.323   9.877   0.005
17677SOL    HW2 1871  16.232   9.942   0.123
17678SOL     OW 1872  11.134  12.762   8.387
17678SOL    HW1 1873  11.121  12.673   8.343
17678SOL    HW2 1874  11.169  12.748   0.026
17679SOL     OW 1875   1.870   6.135   7.908
17679SOL    HW1 1876   1.795   6.110   7.969
17679SOL    HW2 1877   1.855   6.226   7.871
17680SOL     OW 1878  13.675  16.843   0.913
17680SOL    HW1 1879  13.669  16.747   0.941
17680SOL    HW2 1880  13.716  16.849   0.822
17681SOL     OW 1881   6.577  10.963   8.339
17681SOL    HW1 1882   6.607  10.970   8.244
17681SOL    HW2 1883   6.655  10.937   8.396
17682SOL     OW 1884   1.278  12.253   7.472
17682SOL    HW1 1885   1.221  12.276   7.393
17682SOL    HW2 1886   1.227  12.269   7.556
17683SOL     OW 1887   8.531   8.209   1.377
17683SOL    HW1 1888   8.469   8.179   1.450
17683SOL    HW2 1889   8.586   8.132   1.347
17684SOL     OW 1890  10.842  12.907   6.551
17684SOL    HW1 1891  10.864  12.940   6.643
17684SOL    HW2 1892  10.794  12.979   6.501
17685SOL     OW 1893   2.217   7.735   7.604
17685SOL    HW1 1894   2.283   7.748   7.678
17685SOL    HW2 1895   2.245   7.657   7.548
17686SOL     OW 1896  16.583   0.330   1.551
17686SOL    HW1 1897  16.563   0.232   1.541
17686SOL    HW2 1898  16.680   0.346   1.532
17687SOL     OW 1899   9.476  15.597   0.508
17687SOL    HW1 1900   9.559  15.543   0.527
17687SOL    HW2 1901   9.503  15.688   0.477
17688SOL     OW 1902   7.177   0.782   1.052
17688SOL    HW1 1903   7.219   0.836   1.125
17688SOL    HW2 1904   7.191   0.829   0.964
17689SOL     OW 1905  16.467   3.276   1.239
17689SOL    HW1 1906  16.457   3.180   1.211
17689SOL    HW2 1907  16.378   3.321   1.235
17690SOL     OW 1908   9.845   9.697   7.121
17690SOL    HW1 1909   9.840   9.692   7.021
17690SOL    HW2 1910   9.865   9.605   7.157
17691SOL     OW 1911  13.883  10.891   1.963
17691SOL    HW1 1912  13.927  10.854   2.045
17691SOL    HW2 1913  13.882  10.991   1.969
17692SOL     OW 1914   3.860  14.963   7.592
17692SOL    HW1 1915   3.919  15.038   7.622
17692SOL    HW2 1916   3.834  14.907   7.671
17693SOL     OW 1917  16.635   4.098   1.275
17693SOL    HW1 1918  16.631   4.004   1.239
17693SOL    HW2 1919  16.593   4.102   1.365
17694SOL     OW 1920   9.662   3.863   8.382
17694SOL    HW1 1921   9.571   3.841   8.346
17694SOL    HW2 1922   9.655   3.887   0.024
17695SOL     OW 1923  11.832   5.137   7.499
17695SOL    HW1 1924  11.915   5.169   7.545
17695SOL    HW2 1925  11.850   5.049   7.456
17696SOL     OW 1926   8.502  13.330   7.497
17696SOL    HW1 1927   8.454  13.390   7.561
17696SOL    HW2 1928   8.436  13.272   7.450
17697SOL     OW 1929  14.199   9.862   0.309
17697SOL    HW1 1930  14.171   9.938   0.367
17697SOL    HW2 1931  14.207   9.779   0.365
17698SOL     OW 1932   9.918  16.506   7.899
17698SOL    HW1 1933   9.856  16.563   7.953
17698SOL    HW2 1934   9.998  16.483   7.954
17699SOL     OW 1935   2.803   7.272   0.515
17699SOL    HW1 1936   2.861   7.341   0.474
17699SOL    HW2 1937   2.856   7.189   0.532
17700SOL     OW 1938  13.999  15.554   8.330
17700SOL    HW1 1939  14.061  15.588   8.400
17700SOL    HW2 1940  14.034  15.468   8.293
17701SOL     OW 1941   9.053   0.958   6.421
17701SOL    HW1 1942   9.060   0.971   6.322
17701SOL    HW2 1943   9.145   0.946   6.459
17702SOL     OW 1944  14.923  15.823   1.149
17702SOL    HW1 1945  15.014  15.781   1.139
17702SOL    HW2 1946  14.885  15.840   1.059
17703SOL     OW 1947   3.691   0.624   2.031
17703SOL    HW1 1948   3.778   0.644   2.076
17703SOL    HW2 1949   3.689   0.666   1.941
17704SOL     OW 1950  14.318  10.068   1.730
17704SOL    HW1 1951  14.417  10.069   1.718
17704SOL    HW2 1952  14.279  10.154   1.697
17705SOL     OW 1953  12.740   3.442   1.116
17705SOL    HW1 1954  12.721   3.499   1.036
17705SOL    HW2 1955  12.839   3.429   1.124
17706SOL     OW 1956   5.898  12.838   1.734
17706SOL    HW1 1957   5.926  12.880   1.820
17706SOL    HW2 1958   5.971  12.777   1.702
17707SOL     OW 1959  11.234   6.667   8.139
17707SOL    HW1 1960  11.194   6.579   8.110
17707SOL    HW2 1961  11.323   6.651   8.182
17708SOL     OW 1962   1.964   1.205   7.653
17708SOL    HW1 1963   1.896   1.180   7.585
17708SOL    HW2 1964   1.960   1.141   7.730
17709SOL     OW 1965   5.661  15.019   7.798
17709SOL    HW1 1966   5.637  15.112   7.772
17709SOL    HW2 1967   5.621  14.999   7.888
17710SOL     OW 1968  16.924  16.293   8.311
17710SOL    HW1 1969   0.029  16.335   8.331
17710SOL    HW2 1970  16.856  16.365   8.297
17711SOL     OW 1971   5.950   7.919   8.160
17711SOL    HW1 1972   5.894   7.994   8.196
17711SOL    HW2 1973   6.045   7.932   8.190
17712SOL     OW 1974   0.649   4.163   5.832
17712SOL    HW1 1975   0.665   4.247   5.780
17712SOL    HW2 1976   0.566   4.118   5.797
17713SOL     OW 1977  16.882   9.043   1.851
17713SOL    HW1 1978  16.867   9.103   1.929
17713SOL    HW2 1979  16.892   8.949   1.883
17714SOL     OW 1980  13.566   1.102   0.941
17714SOL    HW1 1981  13.607   1.033   1.001
17714SOL    HW2 1982  13.632   1.128   0.870
17715SOL     OW 1983  16.511  12.515   7.787
17715SOL    HW1 1984  16.434  12.551   7.839
17715SOL    HW2 1985  16.484  12.429   7.743
17716SOL     OW 1986  13.513  15.160   8.019
17716SOL    HW1 1987  13.543  15.227   7.952
17716SOL    HW2 1988  13.591  15.105   8.049
17717SOL     OW 1989  16.046   0.853   8.290
17717SOL    HW1 1990  16.017   0.909   8.213
17717SOL    HW2 1991  15.990   0.874   8.370
17718SOL     OW 1992   1.785  10.490   0.397
17718SOL    HW1 1993   1.825  10.493   0.488
17718SOL    HW2 1994   1.805  10.402   0.354
17719SOL     OW 1995   5.266   2.780   7.315
17719SOL    HW1 1996   5.251   2.724   7.233
17719SOL    HW2 1997   5.363   2.779   7.338
17720SOL     OW 1998  10.071   0.667   6.052
17720SOL    HW1 1999  10.167   0.691   6.037
17720SOL    HW2 2000  10.013   0.743   6.024
17721SOL     OW 2001  13.753  13.569   6.749
17721SOL    HW1 2002  13.738  13.470   6.746
17721SOL    HW2 2003  13.665  13.616   6.741
17722SOL     OW 2004   3.819   4.899   7.086
17722SOL    HW1 2005   3.835   4.997   7.091
17722SOL    HW2 2006   3.907   4.852   7.075
17723SOL     OW 2007   3.567   1.011   0.212
17723SOL    HW1 2008   3.546   1.059   0.297
17723SOL    HW2 2009   3.530   1.062   0.135
17724SOL     OW 2010   3.083   2.157   1.785
17724SOL    HW1 2011   3.072   2.215   1.865
17724SOL    HW2 2012   3.163   2.098   1.797
17725SOL     OW 2013   7.906  12.203   1.007
17725SOL    HW1 2014   7.925  12.125   1.066
17725SOL    HW2 2015   7.822  12.248   1.038
17726SOL     OW 2016   1.484  11.498   1.121
17726SOL    HW1 2017   1.452  11.535   1.034
17726SOL    HW2 2018   1.432  11.415   1.143
17727SOL     OW 2019   7.889  15.285   7.481
17727SOL    HW1 2020   7.925  15.308   7.572
17727SOL    HW2 2021   7.904  15.188   7.464
17728SOL     OW 2022  10.298   0.188   7.765
17728SOL    HW1 2023  10.234   0.162   7.692
17728SOL    HW2 2024  10.353   0.108   7.790
17729SOL     OW 2025  16.271   2.991   1.385
17729SOL    HW1 2026  16.208   2.914   1.372
17729SOL    HW2 2027  16.257   3.030   1.476
17730SOL     OW 2028   1.433   6.198   7.985
17730SOL    HW1 2029   1.436   6.290   8.024
17730SOL    HW2 2030   1.352   6.150   8.020
17731SOL     OW 2031  16.625   6.940   8.311
17731SOL    HW1 2032  16.717   6.958   8.346
17731SOL    HW2 2033  16.566   6.912   8.387
17732SOL     OW 2034   2.811   0.107   0.962
17732SOL    HW1 2035   2.850   0.053   0.887
17732SOL    HW2 2036   2.787   0.045   1.038
17733SOL     OW 2037  10.772   9.060   7.348
17733SOL    HW1 2038  10.748   9.082   7.443
17733SOL    HW2 2039  10.871   9.073   7.336
17734SOL     OW 2040  12.276  10.143   7.899
17734SOL    HW1 2041  12.261  10.191   7.812
17734SOL    HW2 2042  12.354  10.082   7.891
17735SOL     OW 2043  13.476   5.314   6.961
17735SOL    HW1 2044  13.394   5.300   7.016
17735SOL    HW2 2045  13.526   5.394   6.994
17736SOL     OW 2046  13.791   8.519   6.667
17736SOL    HW1 2047  13.779   8.524   6.568
17736SOL    HW2 2048  13.866   8.579   6.695
17737SOL     OW 2049  15.760  13.355   0.712
17737SOL    HW1 2050  15.761  13.263   0.672
17737SOL    HW2 2051  15.707  13.416   0.652
17738SOL     OW 2052  11.520   9.226   7.793
17738SOL    HW1 2053  11.588   9.246   7.722
17738SOL    HW2 2054  11.479   9.136   7.775
17739SOL     OW 2055   9.568  14.953   6.014
17739SOL    HW1 2056   9.648  14.947   5.954
17739SOL    HW2 2057   9.502  15.018   5.975
17740SOL     OW 2058   1.690   0.141   1.475
17740SOL    HW1 2059   1.789   0.146   1.461
17740SOL    HW2 2060   1.653   0.066   1.420
17741SOL     OW 2061  12.569   5.456   0.533
17741SOL    HW1 2062  12.506   5.468   0.457
17741SOL    HW2 2063  12.517   5.451   0.619
17742SOL     OW 2064   2.420  16.377   2.342
17742SOL    HW1 2065   2.460  16.405   2.430
17742SOL    HW2 2066   2.329  16.418   2.332
17743SOL     OW 2067   8.016  10.993   2.099
17743SOL    HW1 2068   8.063  10.906   2.113
17743SOL    HW2 2069   8.070  11.067   2.139
17744SOL     OW 2070  12.810   3.060   0.799
17744SOL    HW1 2071  12.735   3.124   0.812
17744SOL    HW2 2072  12.892   3.097   0.843
17745SOL     OW 2073  14.545   4.374   6.564
17745SOL    HW1 2074  14.591   4.438   6.502
17745SOL    HW2 2075  14.510   4.296   6.513
17746SOL     OW 2076   2.405  13.513   8.385
17746SOL    HW1 2077   2.474  13.579   8.357
17746SOL    HW2 2078   2.314  13.544   8.355
17747SOL     OW 2079   8.192   1.849   7.434
17747SOL    HW1 2080   8.211   1.862   7.532
17747SOL    HW2 2081   8.178   1.752   7.415
17748SOL     OW 2082   0.760   5.697   7.142
17748SOL    HW1 2083   0.726   5.790   7.127
17748SOL    HW2 2084   0.835   5.678   7.078
17749SOL     OW 2085   0.794   9.523   2.005
17749SOL    HW1 2086   0.758   9.613   2.030
17749SOL    HW2 2087   0.791   9.463   2.084
17750SOL     OW 2088   9.463   2.941   7.244
17750SOL    HW1 2089   9.528   2.947   7.319
17750SOL    HW2 2090   9.402   3.021   7.246
17751SOL     OW 2091   7.616   9.390   0.036
17751SOL    HW1 2092   7.648   9.301   0.067
17751SOL    HW2 2093   7.550   9.427   0.102
17752SOL     OW 2094  15.574   5.892   8.328
17752SOL    HW1 2095  15.595   5.967   8.390
17752SOL    HW2 2096  15.475   5.886   8.315
17753SOL     OW 2097  14.789  14.515   7.893
17753SOL    HW1 2098  14.715  14.462   7.854
17753SOL    HW2 2099  14.877  14.473   7.870
17754SOL     OW 2100  16.406   6.384   6.880
17754SOL    HW1 2101  16.342   6.459   6.895
17754SOL    HW2 2102  16.396   6.317   6.953
17755SOL     OW 2103   8.208  10.456   0.712
17755SOL    HW1 2104   8.304  10.482   0.709
17755SOL    HW2 2105   8.175  10.438   0.620
17756SOL     OW 2106  15.237  15.356   1.934
17756SOL    HW1 2107  15.225  15.305   2.019
17756SOL    HW2 2108  15.227  15.454   1.952
17757SOL     OW 2109   7.232  11.025   7.779
17757SOL    HW1 2110   7.314  11.081   7.783
17757SOL    HW2 2111   7.230  10.963   7.858
17758SOL     OW 2112   4.431  11.650   0.005
17758SOL    HW1 2113   4.492  11.580   0.043
17758SOL    HW2 2114   4.450  11.738   0.048
17759SOL     OW 2115   3.997   2.396   0.475
17759SOL    HW1 2116   3.911   2.446   0.476
17759SOL    HW2 2117   4.049   2.420   0.393
17760SOL     OW 2118  13.785  15.137   7.796
17760SOL    HW1 2119  13.726  15.217   7.811
17760SOL    HW2 2120  13.852  15.131   7.870
17761SOL     OW 2121  14.185   1.331   0.067
17761SOL    HW1 2122  14.213   1.337   0.163
17761SOL    HW2 2123  14.118   1.403   0.047
17762SOL     OW 2124   6.869  13.799   6.871
17762SOL    HW1 2125   6.865  13.714   6.818
17762SOL    HW2 2126   6.855  13.877   6.810
17763SOL     OW 2127   3.236   5.044   6.699
17763SOL    HW1 2128   3.329   5.071   6.725
17763SOL    HW2 2129   3.192   4.998   6.775
17764SOL     OW 2130  14.939  15.213   6.821
17764SOL    HW1 2131  14.949  15.298   6.770
17764SOL    HW2 2132  14.868  15.157   6.778
17765SOL     OW 2133   8.460   7.167   0.824
17765SOL    HW1 2134   8.527   7.096   0.804
17765SOL    HW2 2135   8.438   7.166   0.921
17766SOL     OW 2136   8.332   0.410   0.051
17766SOL    HW1 2137   8.248   0.404   0.105
17766SOL    HW2 2138   8.402   0.352   0.092
17767SOL     OW 2139   4.421  16.014   0.409
17767SOL    HW1 2140   4.420  15.999   0.508
17767SOL    HW2 2141   4.447  15.929   0.362
17768SOL     OW 2142  14.445  10.553   0.782
17768SOL    HW1 2143  14.361  10.536   0.730
17768SOL    HW2 2144  14.521  10.568   0.719
17769SOL     OW 2145   9.958  16.271   1.568
17769SOL    HW1 2146   9.917  16.272   1.659
17769SOL    HW2 2147   9.886  16.276   1.499
17770SOL     OW 2148  16.878   8.338   2.103
17770SOL    HW1 2149  16.789   8.342   2.149
17770SOL    HW2 2150  16.951   8.335   2.172
17771SOL     OW 2151   9.943   7.234   7.812
17771SOL    HW1 2152  10.015   7.268   7.873
17771SOL    HW2 2153   9.921   7.304   7.745
17772SOL     OW 2154   2.927   7.040   8.265
17772SOL    HW1 2155   2.964   7.126   8.300
17772SOL    HW2 2156   2.830   7.051   8.244
17773SOL     OW 2157   6.222  13.574   1.743
17773SOL    HW1 2158   6.164  13.534   1.671
17773SOL    HW2 2159   6.246  13.668   1.718
17774SOL     OW 2160   9.417   1.516   7.591
17774SOL    HW1 2161   9.494   1.541   7.650
17774SOL    HW2 2162   9.451   1.490   7.501
17775SOL     OW 2163  16.460   0.862   7.474
17775SOL    HW1 2164  16.367   0.833   7.497
17775SOL    HW2 2165  16.509   0.786   7.432
17776SOL     OW 2166  11.613  16.596   0.736
17776SOL    HW1 2167  11.534  16.618   0.678
17776SOL    HW2 2168  11.621  16.663   0.809
17777SOL     OW 2169   6.350  13.311   2.078
17777SOL    HW1 2170   6.287  13.237   2.052
17777SOL    HW2 2171   6.336  13.335   2.173
17778SOL     OW 2172  16.390  11.812   7.827
17778SOL    HW1 2173  16.470  11.788   7.882
17778SOL    HW2 2174  16.308  11.810   7.884
17779SOL     OW 2175   6.428  12.759   1.389
17779SOL    HW1 2176   6.338  12.776   1.349
17779SOL    HW2 2177   6.480  12.845   1.392
17780SOL     OW 2178  16.857   9.293   6.827
17780SOL    HW1 2179  16.832   9.269   6.733
17780SOL    HW2 2180  16.777   9.333   6.873
17781SOL     OW 2181  16.438   0.567   6.791
17781SOL    HW1 2182  16.373   0.555   6.866
17781SOL    HW2 2183  16.521   0.610   6.827
17782SOL     OW 2184  15.277   3.801   1.381
17782SOL    HW1 2185  15.363   3.772   1.340
17782SOL    HW2 2186  15.271   3.767   1.475
17783SOL     OW 2187  10.819   0.399   1.804
17783SOL    HW1 2188  10.733   0.441   1.834
17783SOL    HW2 2189  10.855   0.342   1.877
17784SOL     OW 2190   8.842   5.062   2.033
17784SOL    HW1 2191   8.932   5.104   2.046
17784SOL    HW2 2192   8.853   4.967   2.004
17785SOL     OW 2193   4.026   3.098   0.680
17785SOL    HW1 2194   4.080   3.025   0.639
17785SOL    HW2 2195   3.989   3.067   0.767
17786SOL     OW 2196   2.662   6.642   1.410
17786SOL    HW1 2197   2.715   6.598   1.337
17786SOL    HW2 2198   2.581   6.586   1.430
17787SOL     OW 2199  12.227   4.526   8.184
17787SOL    HW1 2200  12.314   4.477   8.183
17787SOL    HW2 2201  12.197   4.539   8.279
17788SOL     OW 2202   1.992   2.133   8.336
17788SOL    HW1 2203   2.031   2.059   8.281
17788SOL    HW2 2204   1.894   2.138   8.320
17789SOL     OW 2205   1.871   8.107   1.060
17789SOL    HW1 2206   1.883   8.190   1.115
17789SOL    HW2 2207   1.793   8.119   0.998
17790SOL     OW 2208  16.128  16.940   0.236
17790SOL    HW1 2209  16.117   0.040   0.290
17790SOL    HW2 2210  16.174  16.871   0.291
17791SOL     OW 2211   9.990   0.372   7.605
17791SOL    HW1 2212  10.023   0.278   7.596
17791SOL    HW2 2213   9.909   0.385   7.548
17792SOL     OW 2214  10.305  11.120   0.211
17792SOL    HW1 2215  10.320  11.024   0.189
17792SOL    HW2 2216  10.390  11.161   0.244
17793SOL     OW 2217   3.507  13.282   1.956
17793SOL    HW1 2218   3.587  13.305   2.011
17793SOL    HW2 2219   3.424  13.297   2.010
17794SOL     OW 2220  11.717  10.423   7.362
17794SOL    HW1 2221  11.718  10.438   7.460
17794SOL    HW2 2222  11.783  10.351   7.338
17795SOL     OW 2223   1.850  12.322   1.702
17795SOL    HW1 2224   1.756  12.292   1.717
17795SOL    HW2 2225   1.853  12.421   1.699
17796SOL     OW 2226   3.508   0.209   1.273
17796SOL    HW1 2227   3.467   0.241   1.358
17796SOL    HW2 2228   3.581   0.143   1.295
17797SOL     OW 2229   7.833   1.044   8.238
17797SOL    HW1 2230   7.926   1.081   8.232
17797SOL    HW2 2231   7.832   0.966   8.301
17798SOL     OW 2232  16.427  14.197   0.185
17798SOL    HW1 2233  16.341  14.195   0.133
17798SOL    HW2 2234  16.496  14.246   0.131
17799SOL     OW 2235   9.454  14.492   6.806
17799SOL    HW1 2236   9.388  14.463   6.876
17799SOL    HW2 2237   9.528  14.542   6.849
17800SOL     OW 2238   8.385  13.673   7.440
17800SOL    HW1 2239   8.297  13.712   7.410
17800SOL    HW2 2240   8.441  13.652   7.361
17801SOL     OW 2241   4.069   7.179   1.340
17801SOL    HW1 2242   3.991   7.142   1.390
17801SOL    HW2 2243   4.133   7.106   1.319
17802SOL     OW 2244  16.847   8.040   1.646
17802SOL    HW1 2245  16.890   8.122   1.608
17802SOL    HW2 2246  16.908   7.998   1.713
17803SOL     OW 2247  12.277   4.602   1.566
17803SOL    HW1 2248  12.251   4.670   1.635
17803SOL    HW2 2249  12.376   4.586   1.572
17804SOL     OW 2250  11.197   1.619   7.367
17804SOL    HW1 2251  11.140   1.597   7.446
17804SOL    HW2 2252  11.141   1.618   7.284
17805SOL     OW 2253   2.519  11.788   2.474
17805SOL    HW1 2254   2.432  11.767   2.518
17805SOL    HW2 2255   2.571  11.703   2.462
17806SOL     OW 2256   8.902   1.595   7.887
17806SOL    HW1 2257   8.944   1.652   7.817
17806SOL    HW2 2258   8.876   1.507   7.848
17807SOL     OW 2259  10.462   3.162   7.660
17807SOL    HW1 2260  10.366   3.138   7.646
17807SOL    HW2 2261  10.483   3.246   7.609
17808SOL     OW 2262  15.844   5.822   7.334
17808SOL    HW1 2263  15.819   5.727   7.352
17808SOL    HW2 2264  15.803   5.851   7.248
17809SOL     OW 2265   9.993  16.163   7.143
17809SOL    HW1 2266   9.994  16.243   7.202
17809SOL    HW2 2267   9.910  16.163   7.087
17810SOL     OW 2268  11.024   2.006   6.860
17810SOL    HW1 2269  11.111   1.955   6.859
17810SOL    HW2 2270  11.013   2.052   6.948
17811SOL     OW 2271   3.160  12.203   2.421
17811SOL    HW1 2272   3.213  12.243   2.496
17811SOL    HW2 2273   3.064  12.229   2.431
17812SOL     OW 2274  10.245   7.253   0.531
17812SOL    HW1 2275  10.236   7.302   0.618
17812SOL    HW2 2276  10.154   7.233   0.494
17813SOL     OW 2277   8.535  16.737   1.768
17813SOL    HW1 2278   8.622  16.697   1.795
17813SOL    HW2 2279   8.549  16.833   1.743
17814SOL     OW 2280  13.832  12.958   2.347
17814SOL    HW1 2281  13.819  13.006   2.434
17814SOL    HW2 2282  13.838  12.859   2.364
17815SOL     OW 2283  12.575   9.989   0.100
17815SOL    HW1 2284  12.670  10.009   0.123
17815SOL    HW2 2285  12.547  10.046   0.022
17816SOL     OW 2286  15.775   8.463   7.425
17816SOL    HW1 2287  15.779   8.490   7.522
17816SOL    HW2 2288  15.849   8.508   7.375
17817SOL     OW 2289  11.730   2.705   6.994
17817SOL    HW1 2290  11.669   2.653   7.054
17817SOL    HW2 2291  11.676   2.749   6.922
17818SOL     OW 2292   9.781   4.291   8.236
17818SOL    HW1 2293   9.830   4.323   8.155
17818SOL    HW2 2294   9.783   4.362   8.307
17819SOL     OW 2295  11.191   7.262   0.109
17819SOL    HW1 2296  11.123   7.193   0.136
17819SOL    HW2 2297  11.147   7.352   0.109
17820SOL     OW 2298   3.500   0.212   1.989
17820SOL    HW1 2299   3.542   0.137   1.937
17820SOL    HW2 2300   3.572   0.264   2.036
17821SOL     OW 2301  14.810  15.774   6.122
17821SOL    HW1 2302  14.719  15.776   6.164
17821SOL    HW2 2303  14.851  15.684   6.136
17822SOL     OW 2304  15.129   9.807   1.468
17822SOL    HW1 2305  15.178   9.789   1.383
17822SOL    HW2 2306  15.169   9.754   1.542
17823SOL     OW 2307   4.118   4.313   0.702
17823SOL    HW1 2308   4.104   4.371   0.622
17823SOL    HW2 2309   4.189   4.352   0.760
17824SOL     OW 2310   7.679   6.045   0.668
17824SOL    HW1 2311   7.704   6.125   0.613
17824SOL    HW2 2312   7.585   6.054   0.699
17825SOL     OW 2313   8.788  16.146   7.124
17825SOL    HW1 2314   8.863  16.200   7.162
17825SOL    HW2 2315   8.725  16.120   7.197
17826SOL     OW 2316   2.095   4.228   0.569
17826SOL    HW1 2317   2.183   4.222   0.617
17826SOL    HW2 2318   2.105   4.287   0.489
17827SOL     OW 2319   1.906  13.990   0.071
17827SOL    HW1 2320   1.838  13.968   0.140
17827SOL    HW2 2321   1.977  14.048   0.110
17828SOL     OW 2322   1.427   2.620   7.949
17828SOL    HW1 2323   1.393   2.711   7.973
17828SOL    HW2 2324   1.438   2.565   8.032
17829SOL     OW 2325  16.640   9.327   7.229
17829SOL    HW1 2326  16.711   9.257   7.224
17829SOL    HW2 2327  16.556   9.292   7.189
17830SOL     OW 2328   9.806  13.861   6.616
17830SOL    HW1 2329   9.790  13.815   6.704
17830SOL    HW2 2330   9.836  13.794   6.549
17831SOL     OW 2331   2.836  15.004   8.296
17831SOL    HW1 2332   2.787  14.925   8.332
17831SOL    HW2 2333   2.793  15.034   8.211
17832SOL     OW 2334  14.576   7.635   1.630
17832SOL    HW1 2335  14.569   7.551   1.683
17832SOL    HW2 2336  14.589   7.712   1.691
17833SOL     OW 2337   9.167  14.728   1.386
17833SOL    HW1 2338   9.120  14.650   1.428
17833SOL    HW2 2339   9.265  14.708   1.381
17834SOL     OW 2340   8.608  10.680   7.049
17834SOL    HW1 2341   8.528  10.730   7.016
17834SOL    HW2 2342   8.680  10.681   6.979
17835SOL     OW 2343   8.593   9.240   7.843
17835SOL    HW1 2344   8.618   9.314   7.905
17835SOL    HW2 2345   8.670   9.219   7.783
17836SOL     OW 2346   6.854   9.689   0.385
17836SOL    HW1 2347   6.774   9.638   0.353
17836SOL    HW2 2348   6.840   9.716   0.480
17837SOL     OW 2349   0.953   6.102   6.851
17837SOL    HW1 2350   0.998   6.188   6.877
17837SOL    HW2 2351   0.858   6.104   6.881
17838SOL     OW 2352   6.083   6.349   0.571
17838SOL    HW1 2353   6.161   6.409   0.551
17838SOL    HW2 2354   6.066   6.347   0.669
17839SOL     OW 2355   2.041   8.120   7.317
17839SOL    HW1 2356   1.972   8.111   7.388
17839SOL    HW2 2357   2.018   8.062   7.240
17840SOL     OW 2358   7.415   0.054   0.736
17840SOL    HW1 2359   7.372  16.948   0.744
17840SOL    HW2 2360   7.513   0.043   0.722
17841SOL     OW 2361   8.359   9.545   6.241
17841SOL    HW1 2362   8.274   9.586   6.207
17841SOL    HW2 2363   8.410   9.612   6.293
17842SOL     OW 2364   8.973   1.009   0.045
17842SOL    HW1 2365   8.932   1.097   0.068
17842SOL    HW2 2366   9.055   0.995   0.101
17843SOL     OW 2367   4.446   1.070   0.697
17843SOL    HW1 2368   4.369   1.124   0.664
17843SOL    HW2 2369   4.531   1.117   0.676
17844SOL     OW 2370  12.400   1.806   0.608
17844SOL    HW1 2371  12.469   1.789   0.678
17844SOL    HW2 2372  12.445   1.822   0.520
17845SOL     OW 2373   9.506  12.677   0.354
17845SOL    HW1 2374   9.459  12.748   0.301
17845SOL    HW2 2375   9.594  12.657   0.312
17846SOL     OW 2376   0.389  14.721   7.383
17846SOL    HW1 2377   0.420  14.708   7.477
17846SOL    HW2 2378   0.300  14.676   7.371
17847SOL     OW 2379  12.737   0.105   0.649
17847SOL    HW1 2380  12.676   0.129   0.725
17847SOL    HW2 2381  12.685   0.100   0.564
17848SOL     OW 2382   7.888  11.719   0.867
17848SOL    HW1 2383   7.946  11.699   0.946
17848SOL    HW2 2384   7.935  11.785   0.807
17849SOL     OW 2385   1.292  14.205   0.113
17849SOL    HW1 2386   1.243  14.128   0.072
17849SOL    HW2 2387   1.390  14.189   0.110
17850SOL     OW 2388  16.660   7.351   7.299
17850SOL    HW1 2389  16.743   7.301   7.273
17850SOL    HW2 2390  16.607   7.372   7.217
17851SOL     OW 2391   5.137  11.986   1.673
17851SOL    HW1 2392   5.175  11.896   1.695
17851SOL    HW2 2393   5.038  11.978   1.662
17852SOL     OW 2394  11.459   3.869   6.334
17852SOL    HW1 2395  11.456   3.953   6.388
17852SOL    HW2 2396  11.552   3.854   6.300
17853SOL     OW 2397   3.480   0.619   2.205
17853SOL    HW1 2398   3.551   0.628   2.136
17853SOL    HW2 2399   3.504   0.545   2.269
17854SOL     OW 2400   3.138  16.778   7.544
17854SOL    HW1 2401   3.225  16.805   7.586
17854SOL    HW2 2402   3.095  16.859   7.503
17855SOL     OW 2403   1.933  10.961   1.534
17855SOL    HW1 2404   2.004  10.917   1.590
17855SOL    HW2 2405   1.871  10.892   1.498
17856SOL     OW 2406   9.684   2.852   1.227
17856SOL    HW1 2407   9.756   2.825   1.291
17856SOL    HW2 2408   9.621   2.915   1.273
17857SOL     OW 2409   6.559   8.732   0.917
17857SOL    HW1 2410   6.643   8.786   0.910
17857SOL    HW2 2411   6.580   8.643   0.958
17858SOL     OW 2412   8.876   0.444   7.471
17858SOL    HW1 2413   8.838   0.364   7.516
17858SOL    HW2 2414   8.852   0.442   7.374
17859SOL     OW 2415   4.366   0.482   7.006
17859SOL    HW1 2416   4.358   0.399   6.951
17859SOL    HW2 2417   4.359   0.563   6.946
17860SOL     OW 2418   4.606   2.358   7.218
17860SOL    HW1 2419   4.583   2.261   7.218
17860SOL    HW2 2420   4.704   2.370   7.204
17861SOL     OW 2421  13.498  10.483   0.373
17861SOL    HW1 2422  13.410  10.442   0.349
17861SOL    HW2 2423  13.548  10.420   0.433
17862SOL     OW 2424   2.942  12.337   8.326
17862SOL    HW1 2425   2.878  12.375   8.394
17862SOL    HW2 2426   2.924  12.239   8.315
17863SOL     OW 2427   2.617  12.820   1.636
17863SOL    HW1 2428   2.672  12.873   1.700
17863SOL    HW2 2429   2.556  12.881   1.585
17864SOL     OW 2430   4.537  10.994   7.772
17864SOL    HW1 2431   4.475  11.041   7.835
17864SOL    HW2 2432   4.592  11.061   7.723
17865SOL     OW 2433   1.769  12.430   0.518
17865SOL    HW1 2434   1.805  12.478   0.598
17865SOL    HW2 2435   1.774  12.491   0.439
17866SOL     OW 2436  13.450   4.940   1.215
17866SOL    HW1 2437  13.538   4.988   1.224
17866SOL    HW2 2438  13.446   4.895   1.126
17867SOL     OW 2439   9.015  12.640   0.030
17867SOL    HW1 2440   9.041  12.736   0.027
17867SOL    HW2 2441   9.096  12.583   0.017
17868SOL     OW 2442   6.554  13.091   8.289
17868SOL    HW1 2443   6.502  13.175   8.275
17868SOL    HW2 2444   6.498  13.025   8.339
17869SOL     OW 2445   1.597   0.419   0.625
17869SOL    HW1 2446   1.597   0.377   0.535
17869SOL    HW2 2447   1.642   0.508   0.620
17870SOL     OW 2448  11.026   3.287   0.412
17870SOL    HW1 2449  11.108   3.325   0.368
17870SOL    HW2 2450  10.957   3.358   0.422
17871SOL     OW 2451  14.938  16.901   8.434
17871SOL    HW1 2452  14.941  16.920   0.078
17871SOL    HW2 2453  14.854  16.850   8.412
17872SOL     OW 2454  11.336  10.193   1.792
17872SOL    HW1 2455  11.374  10.150   1.875
17872SOL    HW2 2456  11.262  10.255   1.818
17873SOL     OW 2457   4.219  10.148   0.774
17873SOL    HW1 2458   4.262  10.115   0.858
17873SOL    HW2 2459   4.196  10.245   0.785
17874SOL     OW 2460  11.044   0.909   7.079
17874SOL    HW1 2461  10.995   0.930   6.994
17874SOL    HW2 2462  11.040   0.811   7.096
17875SOL     OW 2463   0.267   4.521   7.392
17875SOL    HW1 2464   0.209   4.441   7.409
17875SOL    HW2 2465   0.209   4.602   7.385
17876SOL     OW 2466   2.542  13.456   0.902
17876SOL    HW1 2467   2.504  13.379   0.850
17876SOL    HW2 2468   2.642  13.455   0.894
17877SOL     OW 2469   2.457   6.345   8.171
17877SOL    HW1 2470   2.370   6.391   8.190
17877SOL    HW2 2471   2.532   6.396   8.213
17878SOL     OW 2472   1.133   9.425   1.664
17878SOL    HW1 2473   1.092   9.432   1.573
17878SOL    HW2 2474   1.088   9.490   1.725
17879SOL     OW 2475  12.940  10.284   1.045
17879SOL    HW1 2476  13.016  10.294   1.109
17879SOL    HW2 2477  12.953  10.346   0.967
17880SOL     OW 2478  16.000  15.475   7.570
17880SOL    HW1 2479  15.951  15.541   7.514
17880SOL    HW2 2480  16.095  15.470   7.542
17881SOL     OW 2481   6.260   2.748   7.952
17881SOL    HW1 2482   6.202   2.829   7.944
17881SOL    HW2 2483   6.211   2.669   7.915
17882SOL     OW 2484  16.651   2.978   0.710
17882SOL    HW1 2485  16.620   3.059   0.760
17882SOL    HW2 2486  16.750   2.973   0.713
17883SOL     OW 2487   7.718   6.528   0.653
17883SOL    HW1 2488   7.634   6.496   0.695
17883SOL    HW2 2489   7.777   6.571   0.722
17884SOL     OW 2490   8.047  16.393   6.802
17884SOL    HW1 2491   8.066  16.457   6.876
17884SOL    HW2 2492   8.133  16.351   6.771
17885SOL     OW 2493  16.360  10.207   1.540
17885SOL    HW1 2494  16.436  10.268   1.564
17885SOL    HW2 2495  16.354  10.134   1.607
17886SOL     OW 2496  14.969   5.447   1.664
17886SOL    HW1 2497  14.891   5.465   1.725
17886SOL    HW2 2498  14.970   5.516   1.591
17887SOL     OW 2499  11.998  13.100   6.543
17887SOL    HW1 2500  12.041  13.016   6.574
17887SOL    HW2 2501  12.065  13.174   6.543
17888SOL     OW 2502  16.971   4.656   7.692
17888SOL    HW1 2503  16.915   4.700   7.622
17888SOL    HW2 2504  16.969   4.557   7.679
17889SOL     OW 2505   3.835  11.347   0.075
17889SOL    HW1 2506   3.791  11.311   0.158
17889SOL    HW2 2507   3.880  11.434   0.097
17890SOL     OW 2508   5.854   5.980   8.179
17890SOL    HW1 2509   5.889   5.893   8.142
17890SOL    HW2 2510   5.907   6.006   8.259
17891SOL     OW 2511   8.332   5.330   0.215
17891SOL    HW1 2512   8.420   5.353   0.173
17891SOL    HW2 2513   8.269   5.298   0.144
17892SOL     OW 2514  12.630   0.732   1.345
17892SOL    HW1 2515  12.673   0.821   1.361
17892SOL    HW2 2516  12.700   0.661   1.339
17893SOL     OW 2517   8.357   8.994   1.850
17893SOL    HW1 2518   8.295   8.951   1.916
17893SOL    HW2 2519   8.446   9.009   1.893
17894SOL     OW 2520   0.817  12.026   2.114
17894SOL    HW1 2521   0.750  11.952   2.120
17894SOL    HW2 2522   0.777  12.109   2.151
17895SOL     OW 2523   8.064   7.049   6.189
17895SOL    HW1 2524   8.030   7.087   6.103
17895SOL    HW2 2525   8.132   6.978   6.169
17896SOL     OW 2526  12.611  15.843   0.752
17896SOL    HW1 2527  12.691  15.902   0.743
17896SOL    HW2 2528  12.640  15.747   0.753
17897SOL     OW 2529  12.453   0.562   0.815
17897SOL    HW1 2530  12.375   0.547   0.876
17897SOL    HW2 2531  12.526   0.498   0.839
17898SOL     OW 2532  11.279   7.342   6.961
17898SOL    HW1 2533  11.369   7.299   6.966
17898SOL    HW2 2534  11.220   7.302   7.031
17899SOL     OW 2535   3.320   1.507   0.451
17899SOL    HW1 2536   3.381   1.519   0.373
17899SOL    HW2 2537   3.236   1.462   0.421
17900SOL     OW 2538   9.537   4.808   7.098
17900SOL    HW1 2539   9.550   4.713   7.129
17900SOL    HW2 2540   9.520   4.809   7.000
17901SOL     OW 2541   6.867  14.654   7.566
17901SOL    HW1 2542   6.818  14.740   7.551
17901SOL    HW2 2543   6.820  14.580   7.519
17902SOL     OW 2544  15.729  16.302   1.007
17902SOL    HW1 2545  15.658  16.284   0.939
17902SOL    HW2 2546  15.749  16.400   1.008
17903SOL     OW 2547   7.234   7.762   7.733
17903SOL    HW1 2548   7.204   7.796   7.644
17903SOL    HW2 2549   7.190   7.816   7.805
17904SOL     OW 2550   9.591   9.409   7.453
17904SOL    HW1 2551   9.664   9.351   7.489
17904SOL    HW2 2552   9.543   9.362   7.380
17905SOL     OW 2553  11.619   4.901   0.839
17905SOL    HW1 2554  11.660   4.822   0.883
17905SOL    HW2 2555  11.572   4.873   0.755
17906SOL     OW 2556   8.657  15.896   7.486
17906SOL    HW1 2557   8.728  15.843   7.533
17906SOL    HW2 2558   8.586  15.921   7.552
17907SOL     OW 2559   3.209  10.342   0.983
17907SOL    HW1 2560   3.247  10.303   1.066
17907SOL    HW2 2561   3.166  10.430   1.004
17908SOL     OW 2562   3.789   9.422   1.226
17908SOL    HW1 2563   3.810   9.512   1.264
17908SOL    HW2 2564   3.723   9.375   1.285
17909SOL     OW 2565   4.469  12.079   7.907
17909SOL    HW1 2566   4.414  12.000   7.879
17909SOL    HW2 2567   4.410  12.159   7.919
17910SOL     OW 2568   8.903   2.619   0.425
17910SOL    HW1 2569   8.930   2.706   0.384
17910SOL    HW2 2570   8.850   2.637   0.508
17911SOL     OW 2571   6.669  11.674   0.153
17911SOL    HW1 2572   6.697  11.608   0.223
17911SOL    HW2 2573   6.719  11.760   0.166
17912SOL     OW 2574   8.739   6.251   8.067
17912SOL    HW1 2575   8.814   6.195   8.033
17912SOL    HW2 2576   8.681   6.280   7.990
17913SOL     OW 2577  11.055  12.525   8.253
17913SOL    HW1 2578  10.971  12.578   8.267
17913SOL    HW2 2579  11.036  12.449   8.192
17914SOL     OW 2580   7.634   4.993   1.834
17914SOL    HW1 2581   7.703   4.921   1.835
17914SOL    HW2 2582   7.655   5.060   1.906
17915SOL     OW 2583   2.372   2.591   8.384
17915SOL    HW1 2584   2.440   2.645   8.434
17915SOL    HW2 2585   2.408   2.500   8.367
17916SOL     OW 2586   9.390   0.677   7.477
17916SOL    HW1 2587   9.481   0.718   7.480
17916SOL    HW2 2588   9.324   0.743   7.442
17917SOL     OW 2589   3.905   0.587   8.301
17917SOL    HW1 2590   3.879   0.575   8.397
17917SOL    HW2 2591   3.940   0.679   8.287
17918SOL     OW 2592   3.547   3.237   8.003
17918SOL    HW1 2593   3.599   3.232   7.918
17918SOL    HW2 2594   3.609   3.230   8.081
17919SOL     OW 2595  14.469   2.849   7.081
17919SOL    HW1 2596  14.416   2.917   7.132
17919SOL    HW2 2597  14.446   2.758   7.116
17920SOL     OW 2598  11.938   6.049   7.983
17920SOL    HW1 2599  11.901   6.136   8.015
17920SOL    HW2 2600  11.960   5.992   8.062
17921SOL     OW 2601   6.926  11.684   6.437
17921SOL    HW1 2602   6.898  11.617   6.368
17921SOL    HW2 2603   6.996  11.744   6.399
17922SOL     OW 2604  16.309   8.585   1.859
17922SOL    HW1 2605  16.242   8.578   1.933
17922SOL    HW2 2606  16.394   8.540   1.887
17923SOL     OW 2607  13.716  15.006   8.117
17923SOL    HW1 2608  13.787  15.030   8.184
17923SOL    HW2 2609  13.698  14.907   8.122
17924SOL     OW 2610   9.137  15.664   0.061
17924SOL    HW1 2611   9.089  15.749   0.039
17924SOL    HW2 2612   9.235  15.677   0.047
17925SOL     OW 2613   6.026   2.685   7.386
17925SOL    HW1 2614   6.090   2.638   7.447
17925SOL    HW2 2615   5.987   2.764   7.433
17926SOL     OW 2616   4.271  10.307   1.179
17926SOL    HW1 2617   4.355  10.297   1.126
17926SOL    HW2 2618   4.246  10.218   1.218
17927SOL     OW 2619   8.754  13.247   0.536
17927SOL    HW1 2620   8.813  13.173   0.569
17927SOL    HW2 2621   8.658  13.218   0.541
17928SOL     OW 2622  15.286  14.270   7.590
17928SOL    HW1 2623  15.295  14.197   7.523
17928SOL    HW2 2624  15.195  14.309   7.585
17929SOL     OW 2625   9.773   5.646   8.147
17929SOL    HW1 2626   9.751   5.708   8.222
17929SOL    HW2 2627   9.688   5.615   8.103
17930SOL     OW 2628   1.804   7.472   8.028
17930SOL    HW1 2629   1.712   7.472   8.067
17930SOL    HW2 2630   1.864   7.527   8.085
17931SOL     OW 2631   4.271   4.572   1.220
17931SOL    HW1 2632   4.339   4.549   1.150
17931SOL    HW2 2633   4.266   4.498   1.288
17932SOL     OW 2634   3.033   1.653   0.006
17932SOL    HW1 2635   3.133   1.655   0.008
17932SOL    HW2 2636   3.002   1.561   8.439
17933SOL     OW 2637   3.632   7.653   7.509
17933SOL    HW1 2638   3.583   7.571   7.539
17933SOL    HW2 2639   3.587   7.692   7.429
17934SOL     OW 2640   6.678   1.396   8.281
17934SOL    HW1 2641   6.776   1.399   8.261
17934SOL    HW2 2642   6.639   1.487   8.267
17935SOL     OW 2643   1.503   3.495   8.405
17935SOL    HW1 2644   1.564   3.564   8.366
17935SOL    HW2 2645   1.506   3.412   8.350
17936SOL     OW 2646   6.356   8.541   8.448
17936SOL    HW1 2647   6.346   8.503   8.356
17936SOL    HW2 2648   6.305   8.626   0.001
17937SOL     OW 2649   4.634  13.637   7.606
17937SOL    HW1 2650   4.721  13.637   7.556
17937SOL    HW2 2651   4.639  13.703   7.681
17938SOL     OW 2652   9.198   0.858   7.366
17938SOL    HW1 2653   9.115   0.819   7.325
17938SOL    HW2 2654   9.174   0.942   7.414
17939SOL     OW 2655  14.954   3.873   5.995
17939SOL    HW1 2656  15.040   3.857   5.945
17939SOL    HW2 2657  14.877   3.849   5.937
17940SOL     OW 2658   1.983   7.472   1.367
17940SOL    HW1 2659   1.954   7.461   1.462
17940SOL    HW2 2660   2.044   7.397   1.342
17941SOL     OW 2661  11.696   6.244   6.861
17941SOL    HW1 2662  11.747   6.267   6.944
17941SOL    HW2 2663  11.754   6.190   6.800
17942SOL     OW 2664  10.128  14.824   7.664
17942SOL    HW1 2665  10.209  14.879   7.683
17942SOL    HW2 2666  10.150  14.727   7.675
17943SOL     OW 2667  12.970   5.922   6.250
17943SOL    HW1 2668  13.027   5.914   6.168
17943SOL    HW2 2669  12.894   5.985   6.232
17944SOL     OW 2670   9.421   7.498   0.278
17944SOL    HW1 2671   9.474   7.440   0.341
17944SOL    HW2 2672   9.484   7.542   0.213
17945SOL     OW 2673   7.998  14.841   0.093
17945SOL    HW1 2674   8.070  14.886   0.041
17945SOL    HW2 2675   7.922  14.905   0.108
17946SOL     OW 2676  13.597  15.727   7.842
17946SOL    HW1 2677  13.643  15.667   7.777
17946SOL    HW2 2678  13.665  15.776   7.897
17947SOL     OW 2679   4.792   7.219   8.425
17947SOL    HW1 2680   4.788   7.178   0.062
17947SOL    HW2 2681   4.771   7.150   8.356
17948SOL     OW 2682   3.598   6.101   7.062
17948SOL    HW1 2683   3.632   6.036   6.994
17948SOL    HW2 2684   3.603   6.194   7.024
17949SOL     OW 2685  12.900   7.495   8.199
17949SOL    HW1 2686  12.818   7.493   8.141
17949SOL    HW2 2687  12.980   7.466   8.145
17950SOL     OW 2688   3.488  15.467   0.214
17950SOL    HW1 2689   3.552  15.487   0.141
17950SOL    HW2 2690   3.415  15.536   0.214
17951SOL     OW 2691  14.099  10.794   7.888
17951SOL    HW1 2692  14.106  10.712   7.831
17951SOL    HW2 2693  14.118  10.875   7.832
17952SOL     OW 2694   3.342   3.250   0.528
17952SOL    HW1 2695   3.278   3.315   0.486
17952SOL    HW2 2696   3.431   3.294   0.540
17953SOL     OW 2697   1.709  12.512   0.061
17953SOL    HW1 2698   1.634  12.511   8.449
17953SOL    HW2 2699   1.794  12.536   0.014
17954SOL     OW 2700  12.738   0.845   7.544
17954SOL    HW1 2701  12.764   0.935   7.578
17954SOL    HW2 2702  12.663   0.854   7.479
17955SOL     OW 2703   3.931   0.666   2.137
17955SOL    HW1 2704   3.954   0.603   2.212
17955SOL    HW2 2705   4.012   0.681   2.080
17956SOL     OW 2706   3.674  15.475   0.781
17956SOL    HW1 2707   3.622  15.554   0.748
17956SOL    HW2 2708   3.611  15.408   0.822
17957SOL     OW 2709  15.561   2.217   7.108
17957SOL    HW1 2710  15.502   2.190   7.032
17957SOL    HW2 2711  15.585   2.137   7.162
17958SOL     OW 2712   3.807  12.567   6.340
17958SOL    HW1 2713   3.843  12.659   6.329
17958SOL    HW2 2714   3.709  12.567   6.324
17959SOL     OW 2715   2.166  11.008   6.619
17959SOL    HW1 2716   2.150  10.909   6.621
17959SOL    HW2 2717   2.081  11.054   6.592
17960SOL     OW 2718   7.093  12.113   8.156
17960SOL    HW1 2719   7.096  12.040   8.087
17960SOL    HW2 2720   7.086  12.202   8.110
17961SOL     OW 2721   7.753  11.345   2.473
17961SOL    HW1 2722   7.742  11.259   2.523
17961SOL    HW2 2723   7.785  11.415   2.535
17962SOL     OW 2724   0.706   9.957   0.165
17962SOL    HW1 2725   0.654   9.887   0.214
17962SOL    HW2 2726   0.801   9.956   0.196
17963SOL     OW 2727  16.806   4.208   6.480
17963SOL    HW1 2728  16.885   4.225   6.538
17963SOL    HW2 2729  16.779   4.292   6.434
17964SOL     OW 2730   1.480  16.644   0.244
17964SOL    HW1 2731   1.413  16.591   0.191
17964SOL    HW2 2732   1.532  16.583   0.303
17965SOL     OW 2733   9.680   0.169   7.354
17965SOL    HW1 2734   9.716   0.193   7.265
17965SOL    HW2 2735   9.580   0.161   7.349
17966SOL     OW 2736   9.394   0.280   0.480
17966SOL    HW1 2737   9.423   0.249   0.389
17966SOL    HW2 2738   9.453   0.239   0.549
17967SOL     OW 2739   6.172   6.162   8.255
17967SOL    HW1 2740   6.166   6.121   8.163
17967SOL    HW2 2741   6.114   6.110   8.318
17968SOL     OW 2742   5.600   9.450   7.514
17968SOL    HW1 2743   5.638   9.522   7.456
17968SOL    HW2 2744   5.502   9.465   7.525
17969SOL     OW 2745   8.763   3.017   8.355
17969SOL    HW1 2746   8.774   2.963   8.439
17969SOL    HW2 2747   8.754   2.955   8.277
17970SOL     OW 2748  12.888  11.349   1.345
17970SOL    HW1 2749  12.917  11.309   1.258
17970SOL    HW2 2750  12.953  11.419   1.373
17971SOL     OW 2751   7.402  16.712   0.262
17971SOL    HW1 2752   7.449  16.640   0.313
17971SOL    HW2 2753   7.319  16.675   0.220
17972SOL     OW 2754   7.444   6.232   0.506
17972SOL    HW1 2755   7.417   6.189   0.593
17972SOL    HW2 2756   7.543   6.248   0.506
17973SOL     OW 2757   9.924   6.791   0.050
17973SOL    HW1 2758   9.929   6.691   0.050
17973SOL    HW2 2759  10.017   6.829   0.052
17974SOL     OW 2760   6.227   3.373   1.063
17974SOL    HW1 2761   6.290   3.349   1.137
17974SOL    HW2 2762   6.268   3.446   1.006
17975SOL     OW 2763  10.104   9.935   6.856
17975SOL    HW1 2764  10.104   9.924   6.757
17975SOL    HW2 2765  10.030   9.996   6.883
17976SOL     OW 2766   9.015   8.363   0.532
17976SOL    HW1 2767   9.017   8.341   0.630
17976SOL    HW2 2768   8.943   8.431   0.515
17977SOL     OW 2769  15.953  13.537   0.816
17977SOL    HW1 2770  15.876  13.479   0.788
17977SOL    HW2 2771  16.039  13.486   0.804
17978SOL     OW 2772  12.349   7.071   7.203
17978SOL    HW1 2773  12.376   7.007   7.131
17978SOL    HW2 2774  12.277   7.030   7.259
17979SOL     OW 2775  12.074   3.434   7.335
17979SOL    HW1 2776  12.141   3.402   7.402
17979SOL    HW2 2777  12.058   3.362   7.267
17980SOL     OW 2778   1.968   7.739   1.309
17980SOL    HW1 2779   1.976   7.790   1.395
17980SOL    HW2 2780   1.980   7.642   1.328
17981SOL     OW 2781   2.062   4.643   1.380
17981SOL    HW1 2782   1.977   4.600   1.410
17981SOL    HW2 2783   2.101   4.696   1.455
17982SOL     OW 2784   9.276   9.494   7.140
17982SOL    HW1 2785   9.210   9.419   7.152
17982SOL    HW2 2786   9.362   9.470   7.185
17983SOL     OW 2787  12.633  10.104   0.433
17983SOL    HW1 2788  12.547  10.136   0.473
17983SOL    HW2 2789  12.710  10.153   0.475
17984SOL     OW 2790   6.797   2.586   8.319
17984SOL    HW1 2791   6.836   2.555   8.406
17984SOL    HW2 2792   6.870   2.626   8.263
17985SOL     OW 2793   5.702   4.676   0.329
17985SOL    HW1 2794   5.626   4.709   0.384
17985SOL    HW2 2795   5.715   4.578   0.346
17986SOL     OW 2796  10.214  15.069   6.175
17986SOL    HW1 2797  10.296  15.014   6.161
17986SOL    HW2 2798  10.216  15.148   6.113
17987SOL     OW 2799  12.018   7.998   0.818
17987SOL    HW1 2800  12.050   7.915   0.771
17987SOL    HW2 2801  12.016   7.982   0.916
17988SOL     OW 2802  11.556  16.874   6.071
17988SOL    HW1 2803  11.635  16.825   6.033
17988SOL    HW2 2804  11.571  16.972   6.061
17989SOL     OW 2805   3.413  13.147   7.870
17989SOL    HW1 2806   3.477  13.152   7.946
17989SOL    HW2 2807   3.462  13.161   7.784
17990SOL     OW 2808   6.413   7.281   0.743
17990SOL    HW1 2809   6.353   7.276   0.823
17990SOL    HW2 2810   6.399   7.200   0.686
17991SOL     OW 2811  10.522  13.865   0.877
17991SOL    HW1 2812  10.572  13.882   0.961
17991SOL    HW2 2813  10.543  13.773   0.843
17992SOL     OW 2814   0.916   8.469   0.941
17992SOL    HW1 2815   0.866   8.518   1.012
17992SOL    HW2 2816   0.859   8.458   0.860
17993SOL     OW 2817   9.110   9.034   8.048
17993SOL    HW1 2818   9.174   9.095   8.097
17993SOL    HW2 2819   9.041   9.089   8.001
17994SOL     OW 2820  16.485   4.566   1.436
17994SOL    HW1 2821  16.434   4.484   1.411
17994SOL    HW2 2822  16.583   4.550   1.419
17995SOL     OW 2823   3.219  11.340   6.908
17995SOL    HW1 2824   3.173  11.271   6.853
17995SOL    HW2 2825   3.296  11.378   6.856
17996SOL     OW 2826  16.168  16.483   6.096
17996SOL    HW1 2827  16.217  16.399   6.117
17996SOL    HW2 2828  16.218  16.561   6.133
17997SOL     OW 2829   4.234   6.385   8.426
17997SOL    HW1 2830   4.185   6.436   8.355
17997SOL    HW2 2831   4.304   6.442   0.013
17998SOL     OW 2832   2.606  14.629   0.090
17998SOL    HW1 2833   2.528  14.577   0.055
17998SOL    HW2 2834   2.638  14.692   0.020
17999SOL     OW 2835   0.745   5.160   5.890
17999SOL    HW1 2836   0.782   5.252   5.875
17999SOL    HW2 2837   0.819   5.099   5.921
18000SOL     OW 2838   6.284  13.384   7.370
18000SOL    HW1 2839   6.355  13.452   7.352
18000SOL    HW2 2840   6.264  13.381   7.468
18001SOL     OW 2841   2.306   9.641   8.055
18001SOL    HW1 2842   2.304   9.720   8.116
18001SOL    HW2 2843   2.227   9.583   8.074
18002SOL     OW 2844   6.090   5.954   1.463
18002SOL    HW1 2845   6.189   5.968   1.461
18002SOL    HW2 2846   6.059   5.943   1.557
18003SOL     OW 2847  13.819   7.761   5.960
18003SOL    HW1 2848  13.918   7.778   5.963
18003SOL    HW2 2849  13.803   7.666   5.931
18004SOL     OW 2850  15.682  16.067   0.470
18004SOL    HW1 2851  15.593  16.023   0.485
18004SOL    HW2 2852  15.755  15.999   0.475
18005SOL     OW 2853   7.380  11.428   7.314
18005SOL    HW1 2854   7.314  11.498   7.288
18005SOL    HW2 2855   7.439  11.406   7.236
18006SOL     OW 2856   2.388   5.110   1.279
18006SOL    HW1 2857   2.391   5.039   1.350
18006SOL    HW2 2858   2.326   5.081   1.205
18007SOL     OW 2859   2.138   1.537   8.144
18007SOL    HW1 2860   2.203   1.464   8.168
18007SOL    HW2 2861   2.120   1.593   8.225
18008SOL     OW 2862   9.353  10.666   6.973
18008SOL    HW1 2863   9.428  10.688   6.912
18008SOL    HW2 2864   9.316  10.576   6.951
18009SOL     OW 2865   2.951   8.055   2.011
18009SOL    HW1 2866   3.029   7.992   2.020
18009SOL    HW2 2867   2.960   8.129   2.077
18010SOL     OW 2868   6.091  16.647   7.502
18010SOL    HW1 2869   6.104  16.734   7.551
18010SOL    HW2 2870   6.030  16.662   7.424
18011SOL     OW 2871   7.723   2.280   0.735
18011SOL    HW1 2872   7.789   2.206   0.720
18011SOL    HW2 2873   7.632   2.249   0.707
18012SOL     OW 2874  16.080  10.191   2.783
18012SOL    HW1 2875  16.059  10.272   2.837
18012SOL    HW2 2876  16.179  10.176   2.784
18013SOL     OW 2877   9.715  16.689   1.373
18013SOL    HW1 2878   9.644  16.622   1.350
18013SOL    HW2 2879   9.800  16.665   1.324
18014SOL     OW 2880  13.981   7.315   6.908
18014SOL    HW1 2881  13.938   7.263   6.981
18014SOL    HW2 2882  14.062   7.266   6.875
18015SOL     OW 2883   6.536  15.255   0.228
18015SOL    HW1 2884   6.502  15.347   0.207
18015SOL    HW2 2885   6.636  15.255   0.221
18016SOL     OW 2886   8.495   8.836   7.555
18016SOL    HW1 2887   8.479   8.882   7.467
18016SOL    HW2 2888   8.482   8.901   7.629
18017SOL     OW 2889   8.700   8.480   7.135
18017SOL    HW1 2890   8.784   8.443   7.096
18017SOL    HW2 2891   8.663   8.549   7.074
18018SOL     OW 2892   8.094   1.742   0.579
18018SOL    HW1 2893   8.106   1.745   0.678
18018SOL    HW2 2894   8.040   1.662   0.554
18019SOL     OW 2895   7.088   8.464   6.913
18019SOL    HW1 2896   7.137   8.388   6.871
18019SOL    HW2 2897   7.019   8.499   6.848
18020SOL     OW 2898   0.772   1.880   8.388
18020SOL    HW1 2899   0.838   1.956   8.385
18020SOL    HW2 2900   0.683   1.912   8.355
18021SOL     OW 2901   0.580  14.359   8.231
18021SOL    HW1 2902   0.482  14.340   8.233
18021SOL    HW2 2903   0.620  14.338   8.320
18022SOL     OW 2904   8.527   6.291   0.532
18022SOL    HW1 2905   8.461   6.358   0.498
18022SOL    HW2 2906   8.612   6.297   0.479
18023SOL     OW 2907   4.813   8.182   0.959
18023SOL    HW1 2908   4.867   8.178   1.043
18023SOL    HW2 2909   4.853   8.249   0.897
18024SOL     OW 2910   9.254  10.442   7.989
18024SOL    HW1 2911   9.268  10.529   7.941
18024SOL    HW2 2912   9.323  10.432   8.060
18025SOL     OW 2913   5.381  11.078   6.970
18025SOL    HW1 2914   5.305  11.014   6.959
18025SOL    HW2 2915   5.348  11.172   6.965
18026SOL     OW 2916  11.408   7.650   7.688
18026SOL    HW1 2917  11.466   7.571   7.668
18026SOL    HW2 2918  11.456   7.734   7.665
18027SOL     OW 2919  15.154   5.528   1.346
18027SOL    HW1 2920  15.071   5.568   1.384
18027SOL    HW2 2921  15.222   5.517   1.419
18028SOL     OW 2922  14.397   2.213   8.339
18028SOL    HW1 2923  14.379   2.217   8.437
18028SOL    HW2 2924  14.485   2.169   8.323
18029SOL     OW 2925   2.333   7.160   2.163
18029SOL    HW1 2926   2.403   7.091   2.145
18029SOL    HW2 2927   2.371   7.232   2.220
18030SOL     OW 2928   4.234   5.000   5.926
18030SOL    HW1 2929   4.181   5.058   5.988
18030SOL    HW2 2930   4.178   4.980   5.845
18031SOL     OW 2931  12.818   2.871   6.300
18031SOL    HW1 2932  12.781   2.836   6.214
18031SOL    HW2 2933  12.886   2.808   6.336
18032SOL     OW 2934   1.924  13.129   2.011
18032SOL    HW1 2935   1.985  13.137   1.932
18032SOL    HW2 2936   1.973  13.085   2.087
18033SOL     OW 2937   0.026   2.891   0.261
18033SOL    HW1 2938  16.940   2.961   0.273
18033SOL    HW2 2939   0.008   2.840   0.177
18034SOL     OW 2940  13.744   7.132   0.189
18034SOL    HW1 2941  13.817   7.126   0.121
18034SOL    HW2 2942  13.693   7.045   0.190
18035SOL     OW 2943  13.334  14.278   7.765
18035SOL    HW1 2944  13.426  14.317   7.763
18035SOL    HW2 2945  13.331  14.196   7.708
18036SOL     OW 2946  14.462  12.349   0.671
18036SOL    HW1 2947  14.410  12.264   0.663
18036SOL    HW2 2948  14.556  12.328   0.697
18037SOL     OW 2949   8.391   5.645   8.327
18037SOL    HW1 2950   8.483   5.607   8.314
18037SOL    HW2 2951   8.323   5.574   8.310
18038SOL     OW 2952  11.352  16.665   0.642
18038SOL    HW1 2953  11.342  16.722   0.723
18038SOL    HW2 2954  11.290  16.696   0.570
18039SOL     OW 2955   6.262  11.254   7.047
18039SOL    HW1 2956   6.309  11.192   7.111
18039SOL    HW2 2957   6.169  11.222   7.033
18040SOL     OW 2958   5.543   3.940   1.470
18040SOL    HW1 2959   5.576   3.866   1.528
18040SOL    HW2 2960   5.616   4.007   1.455
18041SOL     OW 2961  12.517   6.006   0.241
18041SOL    HW1 2962  12.425   6.043   0.223
18041SOL    HW2 2963  12.538   5.934   0.176
18042SOL     OW 2964   5.349   5.144   1.397
18042SOL    HW1 2965   5.380   5.062   1.348
18042SOL    HW2 2966   5.375   5.225   1.346
18043SOL     OW 2967   8.573   2.082   6.884
18043SOL    HW1 2968   8.601   2.176   6.864
18043SOL    HW2 2969   8.630   2.045   6.957
18044SOL     OW 2970  12.170  16.282   0.315
18044SOL    HW1 2971  12.208  16.196   0.350
18044SOL    HW2 2972  12.141  16.340   0.391
18045SOL     OW 2973   6.617  11.764   5.641
18045SOL    HW1 2974   6.549  11.817   5.591
18045SOL    HW2 2975   6.579  11.674   5.664
18046SOL     OW 2976  11.859  10.414   1.221
18046SOL    HW1 2977  11.870  10.474   1.300
18046SOL    HW2 2978  11.863  10.468   1.137
18047SOL     OW 2979   4.146   4.189   6.571
18047SOL    HW1 2980   4.219   4.172   6.504
18047SOL    HW2 2981   4.127   4.104   6.620
18048SOL     OW 2982  14.695   5.243   6.315
18048SOL    HW1 2983  14.780   5.291   6.291
18048SOL    HW2 2984  14.654   5.207   6.232
18049SOL     OW 2985   9.618  10.081   1.176
18049SOL    HW1 2986   9.687  10.140   1.132
18049SOL    HW2 2987   9.575  10.023   1.107
18050SOL     OW 2988   6.112  13.323   6.260
18050SOL    HW1 2989   6.141  13.344   6.167
18050SOL    HW2 2990   6.086  13.226   6.266
18051SOL     OW 2991  11.985   2.822   6.268
18051SOL    HW1 2992  11.945   2.907   6.233
18051SOL    HW2 2993  11.951   2.744   6.215
18052SOL     OW 2994  13.136   0.143   2.144
18052SOL    HW1 2995  13.046   0.155   2.102
18052SOL    HW2 2996  13.185   0.230   2.144
18053SOL     OW 2997   8.809  12.729   0.923
18053SOL    HW1 2998   8.777  12.646   0.877
18053SOL    HW2 2999   8.735  12.797   0.925
18054SOL     OW 3000  15.884   6.218   6.295
18054SOL    HW1 3001  15.813   6.202   6.363
18054SOL    HW2 3002  15.843   6.257   6.213
18055SOL     OW 3003  12.198   3.754   7.996
18055SOL    HW1 3004  12.286   3.788   8.029
18055SOL    HW2 3005  12.125   3.810   8.033
18056SOL     OW 3006  11.368  13.111   7.586
18056SOL    HW1 3007  11.415  13.023   7.588
18056SOL    HW2 3008  11.412  13.173   7.651
18057SOL     OW 3009  13.359   9.556   1.700
18057SOL    HW1 3010  13.397   9.522   1.614
18057SOL    HW2 3011  13.311   9.642   1.684
18058SOL     OW 3012   3.314   2.476   7.345
18058SOL    HW1 3013   3.257   2.533   7.404
18058SOL    HW2 3014   3.354   2.403   7.399
18059SOL     OW 3015   2.118  13.409   7.143
18059SOL    HW1 3016   2.109  13.424   7.045
18059SOL    HW2 3017   2.076  13.486   7.193
18060SOL     OW 3018  15.718  16.903   8.015
18060SOL    HW1 3019  15.721   0.014   8.049
18060SOL    HW2 3020  15.652  16.851   8.067
18061SOL     OW 3021   3.011   8.351   0.317
18061SOL    HW1 3022   3.097   8.329   0.363
18061SOL    HW2 3023   2.966   8.267   0.288
18062SOL     OW 3024   2.981   5.862   0.079
18062SOL    HW1 3025   2.969   5.815   8.445
18062SOL    HW2 3026   2.999   5.794   0.150
18063SOL     OW 3027  11.670   1.124   0.445
18063SOL    HW1 3028  11.670   1.209   0.392
18063SOL    HW2 3029  11.667   1.045   0.383
18064SOL     OW 3030   0.088   3.808   6.508
18064SOL    HW1 3031   0.077   3.883   6.443
18064SOL    HW2 3032  16.982   3.775   6.537
18065SOL     OW 3033   6.476   4.876   0.750
18065SOL    HW1 3034   6.474   4.820   0.833
18065SOL    HW2 3035   6.562   4.928   0.747
18066SOL     OW 3036  13.442   6.368   1.205
18066SOL    HW1 3037  13.355   6.336   1.168
18066SOL    HW2 3038  13.517   6.317   1.162
18067SOL     OW 3039   5.552   6.376   6.501
18067SOL    HW1 3040   5.564   6.311   6.427
18067SOL    HW2 3041   5.623   6.447   6.495
18068SOL     OW 3042   6.240  15.087   1.092
18068SOL    HW1 3043   6.280  15.178   1.101
18068SOL    HW2 3044   6.166  15.090   1.024
18069SOL     OW 3045   6.789   5.834   0.718
18069SOL    HW1 3046   6.728   5.770   0.763
18069SOL    HW2 3047   6.867   5.784   0.679
18070SOL     OW 3048  10.656   0.335   6.809
18070SOL    HW1 3049  10.673   0.389   6.892
18070SOL    HW2 3050  10.723   0.262   6.802
18071SOL     OW 3051   9.822   4.569   6.631
18071SOL    HW1 3052   9.904   4.554   6.575
18071SOL    HW2 3053   9.779   4.655   6.604
18072SOL     OW 3054   7.471  10.143   0.214
18072SOL    HW1 3055   7.542  10.112   0.151
18072SOL    HW2 3056   7.385  10.155   0.164
18073SOL     OW 3057  16.000  10.974   7.775
18073SOL    HW1 3058  15.927  10.913   7.745
18073SOL    HW2 3059  16.022  11.038   7.702
18074SOL     OW 3060  14.382   1.748   6.706
18074SOL    HW1 3061  14.348   1.840   6.686
18074SOL    HW2 3062  14.314   1.681   6.679
18075SOL     OW 3063   2.397   6.079   8.212
18075SOL    HW1 3064   2.420   6.176   8.204
18075SOL    HW2 3065   2.343   6.064   8.294
18076SOL     OW 3066  16.754   5.802   6.578
18076SOL    HW1 3067  16.816   5.825   6.652
18076SOL    HW2 3068  16.800   5.814   6.490
18077SOL     OW 3069   3.148   5.070   0.156
18077SOL    HW1 3070   3.151   4.991   0.094
18077SOL    HW2 3071   3.231   5.071   0.212
18078SOL     OW 3072   5.785  12.180   2.008
18078SOL    HW1 3073   5.711  12.247   2.008
18078SOL    HW2 3074   5.816  12.164   2.102
18079SOL     OW 3075   0.268   1.158   0.379
18079SOL    HW1 3076   0.222   1.247   0.386
18079SOL    HW2 3077   0.200   1.086   0.369
18080SOL     OW 3078   5.172   2.385   6.579
18080SOL    HW1 3079   5.266   2.358   6.596
18080SOL    HW2 3080   5.125   2.314   6.526
18081SOL     OW 3081   3.340  13.508   0.272
18081SOL    HW1 3082   3.261  13.533   0.217
18081SOL    HW2 3083   3.362  13.411   0.257
18082SOL     OW 3084  13.708   0.309   8.253
18082SOL    HW1 3085  13.790   0.362   8.275
18082SOL    HW2 3086  13.637   0.328   8.322
18083SOL     OW 3087   9.711   7.430   1.678
18083SOL    HW1 3088   9.768   7.475   1.609
18083SOL    HW2 3089   9.629   7.485   1.694
18084SOL     OW 3090  12.730  12.015   0.398
18084SOL    HW1 3091  12.774  12.101   0.374
18084SOL    HW2 3092  12.800  11.944   0.411
18085SOL     OW 3093  12.343   7.257   8.123
18085SOL    HW1 3094  12.399   7.275   8.204
18085SOL    HW2 3095  12.307   7.164   8.128
18086SOL     OW 3096  14.460  11.641   6.851
18086SOL    HW1 3097  14.508  11.594   6.776
18086SOL    HW2 3098  14.525  11.663   6.923
18087SOL     OW 3099   9.217  11.729   8.318
18087SOL    HW1 3100   9.222  11.662   8.244
18087SOL    HW2 3101   9.171  11.687   8.397
18088SOL     OW 3102   7.657   7.383   8.083
18088SOL    HW1 3103   7.623   7.375   8.176
18088SOL    HW2 3104   7.668   7.291   8.044
18089SOL     OW 3105   8.961   7.851   7.752
18089SOL    HW1 3106   8.893   7.778   7.758
18089SOL    HW2 3107   8.951   7.899   7.665
18090SOL     OW 3108   5.897   0.149   1.374
18090SOL    HW1 3109   5.837   0.217   1.418
18090SOL    HW2 3110   5.904   0.068   1.433
18091SOL     OW 3111   5.221  14.719   0.493
18091SOL    HW1 3112   5.255  14.748   0.404
18091SOL    HW2 3113   5.122  14.726   0.495
18092SOL     OW 3114   9.594  11.755   7.294
18092SOL    HW1 3115   9.685  11.735   7.258
18092SOL    HW2 3116   9.595  11.844   7.339
18093SOL     OW 3117   8.777   0.507   6.488
18093SOL    HW1 3118   8.811   0.548   6.572
18093SOL    HW2 3119   8.805   0.563   6.410
18094SOL     OW 3120   9.749  16.347   1.390
18094SOL    HW1 3121   9.728  16.396   1.474
18094SOL    HW2 3122   9.664  16.330   1.340
18095SOL     OW 3123   1.325   5.011   8.408
18095SOL    HW1 3124   1.366   4.951   0.022
18095SOL    HW2 3125   1.396   5.063   8.362
18096SOL     OW 3126   8.436  16.345   7.562
18096SOL    HW1 3127   8.399  16.285   7.491
18096SOL    HW2 3128   8.399  16.437   7.550
18097SOL     OW 3129  14.657   1.191   0.890
18097SOL    HW1 3130  14.697   1.283   0.890
18097SOL    HW2 3131  14.729   1.124   0.908
18098SOL     OW 3132  12.374   5.519   1.078
18098SOL    HW1 3133  12.458   5.540   1.029
18098SOL    HW2 3134  12.349   5.596   1.137
18099SOL     OW 3135   8.726   2.321   6.177
18099SOL    HW1 3136   8.654   2.359   6.235
18099SOL    HW2 3137   8.719   2.359   6.085
18100SOL     OW 3138  12.429  13.639   1.387
18100SOL    HW1 3139  12.490  13.563   1.410
18100SOL    HW2 3140  12.369  13.611   1.312
18101SOL     OW 3141   7.314   0.926   1.239
18101SOL    HW1 3142   7.283   0.890   1.328
18101SOL    HW2 3143   7.351   1.018   1.252
18102SOL     OW 3144   8.647  15.472   7.479
18102SOL    HW1 3145   8.740  15.505   7.495
18102SOL    HW2 3146   8.650  15.389   7.423
18103SOL     OW 3147   4.807  15.007   0.729
18103SOL    HW1 3148   4.862  14.938   0.776
18103SOL    HW2 3149   4.846  15.026   0.639
18104SOL     OW 3150  15.164   7.230   6.871
18104SOL    HW1 3151  15.261   7.242   6.852
18104SOL    HW2 3152  15.123   7.318   6.896
18105SOL     OW 3153  12.469  13.905   8.171
18105SOL    HW1 3154  12.509  13.827   8.122
18105SOL    HW2 3155  12.400  13.949   8.114
18106SOL     OW 3156   8.224   8.809   8.290
18106SOL    HW1 3157   8.291   8.764   8.230
18106SOL    HW2 3158   8.173   8.741   8.341
18107SOL     OW 3159   0.431  13.861   1.916
18107SOL    HW1 3160   0.388  13.923   1.982
18107SOL    HW2 3161   0.518  13.900   1.886
18108SOL     OW 3162  13.511  11.788   1.152
18108SOL    HW1 3163  13.470  11.863   1.204
18108SOL    HW2 3164  13.442  11.745   1.095
18109SOL     OW 3165  14.344   1.045   7.354
18109SOL    HW1 3166  14.246   1.055   7.374
18109SOL    HW2 3167  14.381   0.966   7.403
18110SOL     OW 3168   1.798   8.296   0.373
18110SOL    HW1 3169   1.859   8.374   0.382
18110SOL    HW2 3170   1.707   8.319   0.408
18111SOL     OW 3171   6.137   8.495   7.970
18111SOL    HW1 3172   6.086   8.578   7.996
18111SOL    HW2 3173   6.135   8.486   7.870
18112SOL     OW 3174   9.079   3.743   7.194
18112SOL    HW1 3175   9.135   3.826   7.196
18112SOL    HW2 3176   9.137   3.663   7.184
18113SOL     OW 3177   8.782   5.493   0.914
18113SOL    HW1 3178   8.738   5.410   0.945
18113SOL    HW2 3179   8.798   5.554   0.992
18114SOL     OW 3180  12.613  14.409   7.984
18114SOL    HW1 3181  12.694  14.380   7.932
18114SOL    HW2 3182  12.557  14.469   7.928
18115SOL     OW 3183   6.717   6.671   6.138
18115SOL    HW1 3184   6.661   6.615   6.077
18115SOL    HW2 3185   6.809   6.633   6.143
18116SOL     OW 3186  13.973   2.628   0.660
18116SOL    HW1 3187  13.914   2.700   0.623
18116SOL    HW2 3188  13.945   2.607   0.754
18117SOL     OW 3189   8.073   2.537   6.784
18117SOL    HW1 3190   8.052   2.559   6.879
18117SOL    HW2 3191   7.991   2.547   6.728
18118SOL     OW 3192   4.653   1.121   8.104
18118SOL    HW1 3193   4.606   1.124   8.016
18118SOL    HW2 3194   4.681   1.027   8.123
18119SOL     OW 3195   0.106   7.747   6.033
18119SOL    HW1 3196   0.130   7.840   6.007
18119SOL    HW2 3197   0.189   7.693   6.044
18120SOL     OW 3198   1.229  14.344   0.959
18120SOL    HW1 3199   1.298  14.348   0.887
18120SOL    HW2 3200   1.271  14.368   1.047
18121SOL     OW 3201  16.778   6.112   0.254
18121SOL    HW1 3202  16.788   6.069   0.164
18121SOL    HW2 3203  16.847   6.075   0.317
18122SOL     OW 3204   0.595   2.429   0.328
18122SOL    HW1 3205   0.499   2.428   0.357
18122SOL    HW2 3206   0.613   2.513   0.276
18123SOL     OW 3207   9.014  16.657   8.289
18123SOL    HW1 3208   9.029  16.613   8.201
18123SOL    HW2 3209   8.926  16.627   8.326
18124SOL     OW 3210   4.052   0.923   0.303
18124SOL    HW1 3211   4.100   0.836   0.294
18124SOL    HW2 3212   4.041   0.945   0.400
18125SOL     OW 3213  10.918  15.214   1.514
18125SOL    HW1 3214  10.878  15.134   1.468
18125SOL    HW2 3215  10.968  15.185   1.595
18126SOL     OW 3216   0.338  16.579   7.454
18126SOL    HW1 3217   0.310  16.638   7.378
18126SOL    HW2 3218   0.383  16.497   7.418
18127SOL     OW 3219   0.569   1.477   0.467
18127SOL    HW1 3220   0.561   1.564   0.418
18127SOL    HW2 3221   0.510   1.478   0.547
18128SOL     OW 3222   9.474   4.825   6.408
18128SOL    HW1 3223   9.491   4.815   6.310
18128SOL    HW2 3224   9.560   4.817   6.458
18129SOL     OW 3225  11.710  14.188   7.380
18129SOL    HW1 3226  11.688  14.095   7.353
18129SOL    HW2 3227  11.626  14.243   7.380
18130SOL     OW 3228   2.518   1.495   2.557
18130SOL    HW1 3229   2.580   1.493   2.635
18130SOL    HW2 3230   2.456   1.416   2.562
18131SOL     OW 3231   0.662   8.837   1.352
18131SOL    HW1 3232   0.627   8.918   1.399
18131SOL    HW2 3233   0.698   8.864   1.263
18132SOL     OW 3234   4.081  12.463   1.539
18132SOL    HW1 3235   4.050  12.550   1.576
18132SOL    HW2 3236   4.004  12.415   1.496
18133SOL     OW 3237   3.413   7.275   1.461
18133SOL    HW1 3238   3.428   7.277   1.560
18133SOL    HW2 3239   3.359   7.355   1.435
18134SOL     OW 3240   1.691   4.799   0.535
18134SOL    HW1 3241   1.651   4.740   0.465
18134SOL    HW2 3242   1.742   4.873   0.491
18135SOL     OW 3243  14.375   6.646   0.373
18135SOL    HW1 3244  14.312   6.590   0.427
18135SOL    HW2 3245  14.346   6.645   0.277
18136SOL     OW 3246  15.277   9.550   0.386
18136SOL    HW1 3247  15.199   9.613   0.386
18136SOL    HW2 3248  15.302   9.527   0.292
18137SOL     OW 3249   2.139   6.808   1.158
18137SOL    HW1 3250   2.088   6.790   1.073
18137SOL    HW2 3251   2.191   6.893   1.147
18138SOL     OW 3252   6.613  12.380   2.168
18138SOL    HW1 3253   6.695  12.412   2.121
18138SOL    HW2 3254   6.638  12.337   2.254
18139SOL     OW 3255  11.117  12.235   7.846
18139SOL    HW1 3256  11.184  12.206   7.778
18139SOL    HW2 3257  11.032  12.263   7.801
18140SOL     OW 3258   9.491   2.509   8.095
18140SOL    HW1 3259   9.455   2.458   8.018
18140SOL    HW2 3260   9.439   2.594   8.106
18141SOL     OW 3261   1.109   9.903   2.681
18141SOL    HW1 3262   1.137   9.978   2.622
18141SOL    HW2 3263   1.033   9.933   2.739
18142SOL     OW 3264  13.132   0.789   8.249
18142SOL    HW1 3265  13.130   0.873   8.302
18142SOL    HW2 3266  13.187   0.803   8.167
18143SOL     OW 3267   8.823  13.280   7.863
18143SOL    HW1 3268   8.729  13.280   7.897
18143SOL    HW2 3269   8.831  13.343   7.786
18144SOL     OW 3270  11.501  12.048   6.481
18144SOL    HW1 3271  11.527  11.969   6.425
18144SOL    HW2 3272  11.463  12.120   6.422
18145SOL     OW 3273   9.984  14.546   0.151
18145SOL    HW1 3274   9.987  14.449   0.125
18145SOL    HW2 3275   9.990  14.554   0.250
18146SOL     OW 3276   0.107  16.092   7.059
18146SOL    HW1 3277   0.028  16.031   7.069
18146SOL    HW2 3278   0.103  16.137   6.970
18147SOL     OW 3279   5.576  14.929   8.432
18147SOL    HW1 3280   5.655  14.945   8.373
18147SOL    HW2 3281   5.498  14.982   8.399
18148SOL     OW 3282   8.540  13.078   8.150
18148SOL    HW1 3283   8.552  13.144   8.077
18148SOL    HW2 3284   8.620  13.080   8.211
18149SOL     OW 3285   0.557   5.812   0.364
18149SOL    HW1 3286   0.568   5.873   0.285
18149SOL    HW2 3287   0.468   5.768   0.360
18150SOL     OW 3288  13.935  10.099   0.961
18150SOL    HW1 3289  13.909  10.050   1.045
18150SOL    HW2 3290  14.033  10.119   0.964
18151SOL     OW 3291   1.377   8.808   6.872
18151SOL    HW1 3292   1.297   8.848   6.827
18151SOL    HW2 3293   1.446   8.879   6.886
18152SOL     OW 3294  15.890  12.260   0.276
18152SOL    HW1 3295  15.901  12.206   0.359
18152SOL    HW2 3296  15.949  12.224   0.204
18153SOL     OW 3297   2.723  16.754   0.666
18153SOL    HW1 3298   2.734  16.768   0.568
18153SOL    HW2 3299   2.798  16.799   0.715
18154SOL     OW 3300   7.004   5.701   0.607
18154SOL    HW1 3301   6.981   5.736   0.516
18154SOL    HW2 3302   7.006   5.601   0.604
18155SOL     OW 3303   4.118   1.553   7.187
18155SOL    HW1 3304   4.217   1.562   7.181
18155SOL    HW2 3305   4.078   1.640   7.217
18156SOL     OW 3306   0.981  12.828   1.714
18156SOL    HW1 3307   1.039  12.871   1.783
18156SOL    HW2 3308   0.912  12.893   1.682
18157SOL     OW 3309  11.016  15.549   0.828
18157SOL    HW1 3310  11.062  15.599   0.754
18157SOL    HW2 3311  10.999  15.611   0.904
18158SOL     OW 3312  13.249  14.316   1.569
18158SOL    HW1 3313  13.244  14.410   1.533
18158SOL    HW2 3314  13.234  14.252   1.494
18159SOL     OW 3315  11.064  13.333   0.688
18159SOL    HW1 3316  10.984  13.389   0.666
18159SOL    HW2 3317  11.045  13.237   0.667
18160SOL     OW 3318  15.746  13.896   7.746
18160SOL    HW1 3319  15.737  13.801   7.775
18160SOL    HW2 3320  15.659  13.928   7.707
18161SOL     OW 3321  11.181  16.688   1.056
18161SOL    HW1 3322  11.242  16.633   1.113
18161SOL    HW2 3323  11.108  16.630   1.019
18162SOL     OW 3324  13.801   7.138   2.288
18162SOL    HW1 3325  13.825   7.074   2.361
18162SOL    HW2 3326  13.809   7.093   2.199
18163SOL     OW 3327   1.103  16.060   6.904
18163SOL    HW1 3328   1.175  16.034   6.839
18163SOL    HW2 3329   1.051  16.137   6.867
18164SOL     OW 3330   5.329   6.702   0.862
18164SOL    HW1 3331   5.285   6.703   0.772
18164SOL    HW2 3332   5.296   6.624   0.914
18165SOL     OW 3333  11.099  10.854   0.052
18165SOL    HW1 3334  11.173  10.895   0.106
18165SOL    HW2 3335  11.019  10.914   0.054
18166SOL     OW 3336  10.825   5.571   0.947
18166SOL    HW1 3337  10.802   5.651   0.892
18166SOL    HW2 3338  10.740   5.524   0.974
18167SOL     OW 3339  11.674   5.838   1.420
18167SOL    HW1 3340  11.725   5.919   1.389
18167SOL    HW2 3341  11.688   5.826   1.519
18168SOL     OW 3342  15.703   8.260   0.210
18168SOL    HW1 3343  15.662   8.319   0.141
18168SOL    HW2 3344  15.696   8.303   0.300
18169SOL     OW 3345   9.829  15.132   1.912
18169SOL    HW1 3346   9.916  15.119   1.863
18169SOL    HW2 3347   9.842  15.109   2.008
18170SOL     OW 3348  13.059   2.413   1.307
18170SOL    HW1 3349  12.989   2.400   1.378
18170SOL    HW2 3350  13.149   2.390   1.344
18171SOL     OW 3351  14.268  12.462   1.135
18171SOL    HW1 3352  14.345  12.491   1.192
18171SOL    HW2 3353  14.289  12.478   1.039
18172SOL     OW 3354   2.474   1.379   6.997
18172SOL    HW1 3355   2.525   1.348   7.077
18172SOL    HW2 3356   2.526   1.357   6.914
18173SOL     OW 3357   0.128  12.713   1.939
18173SOL    HW1 3358   0.145  12.726   2.037
18173SOL    HW2 3359   0.164  12.792   1.889
18174SOL     OW 3360  11.087   7.880   1.188
18174SOL    HW1 3361  11.033   7.797   1.176
18174SOL    HW2 3362  11.064   7.924   1.275
18175SOL     OW 3363   1.566   1.924   7.105
18175SOL    HW1 3364   1.550   1.828   7.084
18175SOL    HW2 3365   1.532   1.944   7.197
18176SOL     OW 3366   7.123   3.447   6.349
18176SOL    HW1 3367   7.056   3.516   6.319
18176SOL    HW2 3368   7.145   3.387   6.272
18177SOL     OW 3369  12.536   5.138   1.243
18177SOL    HW1 3370  12.446   5.095   1.244
18177SOL    HW2 3371  12.605   5.072   1.273
18178SOL     OW 3372   1.985   0.777   0.044
18178SOL    HW1 3373   1.959   0.694   0.094
18178SOL    HW2 3374   1.935   0.781   8.412
18179SOL     OW 3375  10.547  13.417   8.212
18179SOL    HW1 3376  10.625  13.468   8.176
18179SOL    HW2 3377  10.464  13.472   8.200
18180SOL     OW 3378   5.416   8.509   6.994
18180SOL    HW1 3379   5.340   8.563   7.030
18180SOL    HW2 3380   5.381   8.423   6.958
18181SOL     OW 3381   6.020   2.821   1.149
18181SOL    HW1 3382   5.959   2.893   1.116
18181SOL    HW2 3383   6.106   2.862   1.181
18182SOL     OW 3384  14.051   0.385   7.152
18182SOL    HW1 3385  14.128   0.331   7.117
18182SOL    HW2 3386  13.999   0.423   7.076
18183SOL     OW 3387   1.989   8.571   8.383
18183SOL    HW1 3388   1.896   8.603   8.401
18183SOL    HW2 3389   1.992   8.472   8.391
18184SOL     OW 3390   4.153  10.897   1.214
18184SOL    HW1 3391   4.091  10.974   1.200
18184SOL    HW2 3392   4.100  10.813   1.224
18185SOL     OW 3393   7.814   1.094   1.341
18185SOL    HW1 3394   7.783   1.004   1.309
18185SOL    HW2 3395   7.873   1.082   1.421
18186SOL     OW 3396   1.336   4.624   1.840
18186SOL    HW1 3397   1.414   4.679   1.871
18186SOL    HW2 3398   1.271   4.613   1.915
18187SOL     OW 3399   0.558   6.836   7.148
18187SOL    HW1 3400   0.558   6.799   7.241
18187SOL    HW2 3401   0.520   6.769   7.085
18188SOL     OW 3402   9.560   9.730   6.019
18188SOL    HW1 3403   9.645   9.691   6.055
18188SOL    HW2 3404   9.572   9.756   5.923
18189SOL     OW 3405   5.195   4.569   8.020
18189SOL    HW1 3406   5.137   4.553   8.099
18189SOL    HW2 3407   5.254   4.490   8.006
18190SOL     OW 3408  11.735   1.511   8.331
18190SOL    HW1 3409  11.704   1.593   8.380
18190SOL    HW2 3410  11.665   1.484   8.265
18191SOL     OW 3411   0.543   5.114   7.621
18191SOL    HW1 3412   0.591   5.027   7.636
18191SOL    HW2 3413   0.462   5.098   7.564
18192SOL     OW 3414   1.646  11.854   0.307
18192SOL    HW1 3415   1.639  11.950   0.335
18192SOL    HW2 3416   1.578  11.836   0.235
18193SOL     OW 3417  13.595   4.823   0.254
18193SOL    HW1 3418  13.688   4.785   0.254
18193SOL    HW2 3419  13.593   4.907   0.200
18194SOL     OW 3420   9.275   0.381   6.016
18194SOL    HW1 3421   9.360   0.367   5.965
18194SOL    HW2 3422   9.235   0.470   5.990
18195SOL     OW 3423  13.419   7.701   0.967
18195SOL    HW1 3424  13.355   7.661   0.901
18195SOL    HW2 3425  13.368   7.759   1.032
18196SOL     OW 3426   6.773  11.878   1.420
18196SOL    HW1 3427   6.813  11.786   1.420
18196SOL    HW2 3428   6.839  11.942   1.458
18197SOL     OW 3429   8.125  16.776   0.639
18197SOL    HW1 3430   8.191  16.743   0.705
18197SOL    HW2 3431   8.100  16.871   0.661
18198SOL     OW 3432   3.989  12.157   6.799
18198SOL    HW1 3433   4.038  12.244   6.795
18198SOL    HW2 3434   3.990  12.114   6.709
18199SOL     OW 3435   2.035   2.149   0.156
18199SOL    HW1 3436   1.952   2.108   0.193
18199SOL    HW2 3437   2.028   2.154   0.056
18200SOL     OW 3438   4.771   6.130   7.007
18200SOL    HW1 3439   4.844   6.176   6.956
18200SOL    HW2 3440   4.730   6.059   6.950
18201SOL     OW 3441   1.319   8.785   1.251
18201SOL    HW1 3442   1.229   8.814   1.218
18201SOL    HW2 3443   1.358   8.856   1.309
18202SOL     OW 3444  11.179   7.234   6.067
18202SOL    HW1 3445  11.090   7.272   6.042
18202SOL    HW2 3446  11.211   7.174   5.993
18203SOL     OW 3447  12.813   9.084   0.807
18203SOL    HW1 3448  12.827   9.076   0.906
18203SOL    HW2 3449  12.900   9.106   0.763
18204SOL     OW 3450   3.575   3.116   0.178
18204SOL    HW1 3451   3.622   3.079   0.098
18204SOL    HW2 3452   3.628   3.097   0.260
18205SOL     OW 3453   3.073  14.202   1.852
18205SOL    HW1 3454   3.172  14.199   1.838
18205SOL    HW2 3455   3.049  14.285   1.901
18206SOL     OW 3456   6.278   7.217   8.159
18206SOL    HW1 3457   6.238   7.252   8.244
18206SOL    HW2 3458   6.378   7.226   8.163
18207SOL     OW 3459   4.960   8.466   6.961
18207SOL    HW1 3460   5.036   8.432   7.016
18207SOL    HW2 3461   4.983   8.557   6.926
18208SOL     OW 3462   5.340   4.893   6.578
18208SOL    HW1 3463   5.374   4.883   6.485
18208SOL    HW2 3464   5.250   4.851   6.586
18209SOL     OW 3465   4.219  15.174   2.138
18209SOL    HW1 3466   4.186  15.118   2.214
18209SOL    HW2 3467   4.220  15.119   2.054
18210SOL     OW 3468  12.858  15.635   1.032
18210SOL    HW1 3469  12.939  15.593   1.073
18210SOL    HW2 3470  12.776  15.609   1.084
18211SOL     OW 3471   8.400   4.306   8.406
18211SOL    HW1 3472   8.417   4.214   8.372
18211SOL    HW2 3473   8.451   4.320   0.037
18212SOL     OW 3474  10.647   9.147   7.587
18212SOL    HW1 3475  10.641   9.236   7.631
18212SOL    HW2 3476  10.559   9.125   7.544
18213SOL     OW 3477  13.728   9.017   7.979
18213SOL    HW1 3478  13.694   9.102   7.939
18213SOL    HW2 3479  13.697   8.939   7.923
18214SOL     OW 3480  12.648  11.067   8.073
18214SOL    HW1 3481  12.721  11.011   8.035
18214SOL    HW2 3482  12.583  11.010   8.123
18215SOL     OW 3483   5.909  14.659   0.063
18215SOL    HW1 3484   5.811  14.647   0.047
18215SOL    HW2 3485   5.960  14.626   8.437
18216SOL     OW 3486   3.690  14.914   7.129
18216SOL    HW1 3487   3.623  14.857   7.083
18216SOL    HW2 3488   3.671  14.918   7.227
18217SOL     OW 3489   9.304   1.880   8.175
18217SOL    HW1 3490   9.383   1.879   8.237
18217SOL    HW2 3491   9.220   1.874   8.229
18218SOL     OW 3492   7.921  10.042   0.385
18218SOL    HW1 3493   7.993  10.032   0.316
18218SOL    HW2 3494   7.880  10.133   0.377
18219SOL     OW 3495   8.703  11.359   8.176
18219SOL    HW1 3496   8.648  11.439   8.155
18219SOL    HW2 3497   8.709  11.300   8.095
18220SOL     OW 3498  12.012   9.122   1.278
18220SOL    HW1 3499  12.027   9.083   1.369
18220SOL    HW2 3500  11.914   9.131   1.261
18221SOL     OW 3501   5.637   2.695   1.307
18221SOL    HW1 3502   5.576   2.672   1.232
18221SOL    HW2 3503   5.644   2.795   1.316
18222SOL     OW 3504  16.171  14.502   0.872
18222SOL    HW1 3505  16.140  14.429   0.811
18222SOL    HW2 3506  16.152  14.591   0.829
18223SOL     OW 3507   6.605   1.068   0.144
18223SOL    HW1 3508   6.527   1.033   0.197
18223SOL    HW2 3509   6.681   1.004   0.151
18224SOL     OW 3510  16.303  13.176   0.919
18224SOL    HW1 3511  16.238  13.102   0.903
18224SOL    HW2 3512  16.391  13.138   0.946
18225SOL     OW 3513  12.353  13.978   7.621
18225SOL    HW1 3514  12.262  14.005   7.653
18225SOL    HW2 3515  12.417  14.055   7.634
18226SOL     OW 3516  14.177  16.660   0.804
18226SOL    HW1 3517  14.146  16.634   0.895
18226SOL    HW2 3518  14.101  16.653   0.740
18227SOL     OW 3519  12.011  13.715   7.582
18227SOL    HW1 3520  12.059  13.746   7.500
18227SOL    HW2 3521  12.050  13.760   7.663
18228SOL     OW 3522   2.277  11.920   0.984
18228SOL    HW1 3523   2.337  11.859   0.932
18228SOL    HW2 3524   2.186  11.920   0.945
18229SOL     OW 3525  14.304   3.059   7.700
18229SOL    HW1 3526  14.337   3.151   7.724
18229SOL    HW2 3527  14.217   3.067   7.652
18230SOL     OW 3528   0.356  13.864   2.445
18230SOL    HW1 3529   0.287  13.791   2.443
18230SOL    HW2 3530   0.345  13.919   2.528
18231SOL     OW 3531  11.207  15.581   7.733
18231SOL    HW1 3532  11.209  15.539   7.642
18231SOL    HW2 3533  11.195  15.680   7.723
18232SOL     OW 3534   7.900   3.276   6.498
18232SOL    HW1 3535   8.000   3.275   6.489
18232SOL    HW2 3536   7.859   3.273   6.407
18233SOL     OW 3537   7.454   2.474   7.776
18233SOL    HW1 3538   7.413   2.395   7.730
18233SOL    HW2 3539   7.392   2.508   7.846
18234SOL     OW 3540   5.429  13.462   7.652
18234SOL    HW1 3541   5.521  13.499   7.665
18234SOL    HW2 3542   5.365  13.511   7.711
18235SOL     OW 3543   5.670  10.432   7.008
18235SOL    HW1 3544   5.576  10.429   6.975
18235SOL    HW2 3545   5.670  10.430   7.108
18236SOL     OW 3546   6.202   0.354   1.178
18236SOL    HW1 3547   6.270   0.333   1.109
18236SOL    HW2 3548   6.168   0.448   1.164
18237SOL     OW 3549  14.587  12.244   1.957
18237SOL    HW1 3550  14.534  12.327   1.975
18237SOL    HW2 3551  14.666  12.266   1.900
18238SOL     OW 3552   4.310  16.595   7.560
18238SOL    HW1 3553   4.256  16.541   7.495
18238SOL    HW2 3554   4.266  16.592   7.650
18239SOL     OW 3555  15.954   9.301   1.266
18239SOL    HW1 3556  16.031   9.361   1.291
18239SOL    HW2 3557  15.936   9.238   1.342
18240SOL     OW 3558   6.564  15.298   6.761
18240SOL    HW1 3559   6.635  15.327   6.697
18240SOL    HW2 3560   6.559  15.198   6.763
18241SOL     OW 3561   8.173  14.965   8.381
18241SOL    HW1 3562   8.109  14.969   8.305
18241SOL    HW2 3563   8.259  14.924   8.350
18242SOL     OW 3564  10.947   7.214   0.671
18242SOL    HW1 3565  10.963   7.169   0.583
18242SOL    HW2 3566  11.030   7.260   0.701
18243SOL     OW 3567   8.435   8.254   0.626
18243SOL    HW1 3568   8.511   8.209   0.673
18243SOL    HW2 3569   8.354   8.195   0.630
18244SOL     OW 3570   0.050  11.893   0.973
18244SOL    HW1 3571   0.026  11.798   0.995
18244SOL    HW2 3572   0.048  11.905   0.874
18245SOL     OW 3573  13.678   3.070   1.549
18245SOL    HW1 3574  13.702   3.064   1.646
18245SOL    HW2 3575  13.646   3.162   1.528
18246SOL     OW 3576   8.467   6.019   7.358
18246SOL    HW1 3577   8.448   5.998   7.454
18246SOL    HW2 3578   8.565   6.018   7.343
18247SOL     OW 3579  13.595  12.381   1.641
18247SOL    HW1 3580  13.534  12.457   1.620
18247SOL    HW2 3581  13.567  12.338   1.727
18248SOL     OW 3582  16.616   6.346   7.219
18248SOL    HW1 3583  16.526   6.367   7.257
18248SOL    HW2 3584  16.659   6.430   7.187
18249SOL     OW 3585  12.188   5.607   0.456
18249SOL    HW1 3586  12.274   5.588   0.409
18249SOL    HW2 3587  12.128   5.527   0.448
18250SOL     OW 3588  16.173  16.779   6.746
18250SOL    HW1 3589  16.223  16.852   6.793
18250SOL    HW2 3590  16.126  16.817   6.666
18251SOL     OW 3591   0.844   0.285   8.204
18251SOL    HW1 3592   0.928   0.271   8.256
18251SOL    HW2 3593   0.838   0.216   8.132
18252SOL     OW 3594   4.378   3.925   1.189
18252SOL    HW1 3595   4.334   3.929   1.279
18252SOL    HW2 3596   4.416   3.834   1.175
18253SOL     OW 3597   9.890   1.220   7.303
18253SOL    HW1 3598   9.980   1.178   7.300
18253SOL    HW2 3599   9.844   1.207   7.215
18254SOL     OW 3600  15.965  11.143   2.751
18254SOL    HW1 3601  16.063  11.145   2.775
18254SOL    HW2 3602  15.912  11.184   2.825
18255SOL     OW 3603  11.008   0.070   1.338
18255SOL    HW1 3604  11.093   0.122   1.353
18255SOL    HW2 3605  11.020   0.008   1.261
18256SOL     OW 3606   5.268  14.566   7.535
18256SOL    HW1 3607   5.291  14.501   7.608
18256SOL    HW2 3608   5.350  14.618   7.510
18257SOL     OW 3609  11.235   4.123   6.939
18257SOL    HW1 3610  11.214   4.190   6.868
18257SOL    HW2 3611  11.233   4.031   6.900
18258SOL     OW 3612  11.457   8.192   6.482
18258SOL    HW1 3613  11.375   8.244   6.460
18258SOL    HW2 3614  11.530   8.254   6.509
18259SOL     OW 3615   7.101  13.789   7.019
18259SOL    HW1 3616   7.117  13.884   7.047
18259SOL    HW2 3617   7.024  13.785   6.956
18260SOL     OW 3618   1.892  13.342   2.184
18260SOL    HW1 3619   1.824  13.411   2.160
18260SOL    HW2 3620   1.890  13.269   2.115
18261SOL     OW 3621   9.207  11.867   7.538
18261SOL    HW1 3622   9.147  11.896   7.613
18261SOL    HW2 3623   9.236  11.947   7.486
18262SOL     OW 3624   0.169   9.092   7.152
18262SOL    HW1 3625   0.112   9.166   7.116
18262SOL    HW2 3626   0.142   9.006   7.111
18263SOL     OW 3627   4.976   5.339   0.814
18263SOL    HW1 3628   4.892   5.384   0.843
18263SOL    HW2 3629   5.055   5.386   0.855
18264SOL     OW 3630   4.343  12.746   8.437
18264SOL    HW1 3631   4.298  12.834   8.452
18264SOL    HW2 3632   4.427  12.742   0.037
18265SOL     OW 3633  12.896  10.000   1.734
18265SOL    HW1 3634  12.925  10.048   1.651
18265SOL    HW2 3635  12.928   9.905   1.730
18266SOL     OW 3636  11.851   9.215   1.722
18266SOL    HW1 3637  11.865   9.138   1.785
18266SOL    HW2 3638  11.807   9.290   1.771
18267SOL     OW 3639   2.752   4.054   0.648
18267SOL    HW1 3640   2.666   4.043   0.696
18267SOL    HW2 3641   2.805   3.970   0.653
18268SOL     OW 3642  10.761   2.936   6.328
18268SOL    HW1 3643  10.766   3.025   6.283
18268SOL    HW2 3644  10.806   2.867   6.271
18269SOL     OW 3645  11.830  11.721   0.029
18269SOL    HW1 3646  11.860  11.809   8.446
18269SOL    HW2 3647  11.904  11.654   0.016
18270SOL     OW 3648   2.353  10.996   1.850
18270SOL    HW1 3649   2.272  11.054   1.842
18270SOL    HW2 3650   2.426  11.045   1.898
18271SOL     OW 3651  11.636  14.723   7.367
18271SOL    HW1 3652  11.613  14.811   7.325
18271SOL    HW2 3653  11.722  14.689   7.327
18272SOL     OW 3654   1.661   8.828   1.199
18272SOL    HW1 3655   1.627   8.800   1.289
18272SOL    HW2 3656   1.649   8.926   1.187
18273SOL     OW 3657   5.170   8.604   1.586
18273SOL    HW1 3658   5.249   8.593   1.647
18273SOL    HW2 3659   5.196   8.577   1.494
18274SOL     OW 3660   4.901   9.860   7.169
18274SOL    HW1 3661   4.963   9.922   7.122
18274SOL    HW2 3662   4.877   9.898   7.259
18275SOL     OW 3663   7.328   8.022   0.862
18275SOL    HW1 3664   7.232   8.007   0.841
18275SOL    HW2 3665   7.344   8.007   0.960
18276SOL     OW 3666  16.526   1.965   6.780
18276SOL    HW1 3667  16.537   2.052   6.829
18276SOL    HW2 3668  16.460   1.977   6.706
18277SOL     OW 3669   8.295   1.174   1.191
18277SOL    HW1 3670   8.360   1.156   1.117
18277SOL    HW2 3671   8.268   1.271   1.189
18278SOL     OW 3672  10.384  14.226   1.662
18278SOL    HW1 3673  10.452  14.291   1.696
18278SOL    HW2 3674  10.425  14.135   1.655
18279SOL     OW 3675   0.865   3.954   0.840
18279SOL    HW1 3676   0.962   3.948   0.818
18279SOL    HW2 3677   0.829   4.042   0.811
18280SOL     OW 3678   9.175  11.530   0.400
18280SOL    HW1 3679   9.239  11.504   0.328
18280SOL    HW2 3680   9.224  11.533   0.488
18281SOL     OW 3681   1.997   0.865   1.695
18281SOL    HW1 3682   2.016   0.781   1.644
18281SOL    HW2 3683   2.052   0.866   1.779
18282SOL     OW 3684  15.001  11.923   7.315
18282SOL    HW1 3685  15.003  11.892   7.220
18282SOL    HW2 3686  14.954  11.855   7.372
18283SOL     OW 3687   6.253   6.015   7.042
18283SOL    HW1 3688   6.348   6.043   7.026
18283SOL    HW2 3689   6.192   6.075   6.991
18284SOL     OW 3690  12.196   0.990   1.277
18284SOL    HW1 3691  12.241   1.027   1.358
18284SOL    HW2 3692  12.163   1.065   1.219
18285SOL     OW 3693  10.418  13.745   7.732
18285SOL    HW1 3694  10.441  13.769   7.638
18285SOL    HW2 3695  10.322  13.766   7.750
18286SOL     OW 3696   1.535   7.717   7.562
18286SOL    HW1 3697   1.613   7.755   7.514
18286SOL    HW2 3698   1.456   7.712   7.500
18287SOL     OW 3699   9.651  13.871   0.539
18287SOL    HW1 3700   9.575  13.920   0.582
18287SOL    HW2 3701   9.736  13.897   0.584
18288SOL     OW 3702  12.264  15.631   1.714
18288SOL    HW1 3703  12.175  15.658   1.748
18288SOL    HW2 3704  12.335  15.665   1.775
18289SOL     OW 3705  12.889   7.316   7.824
18289SOL    HW1 3706  12.970   7.303   7.882
18289SOL    HW2 3707  12.814   7.261   7.860
18290SOL     OW 3708   1.817   1.613   8.277
18290SOL    HW1 3709   1.816   1.602   8.178
18290SOL    HW2 3710   1.902   1.659   8.305
18291SOL     OW 3711   3.162  10.514   0.602
18291SOL    HW1 3712   3.157  10.434   0.542
18291SOL    HW2 3713   3.232  10.577   0.567
18292SOL     OW 3714  15.447   6.167   1.480
18292SOL    HW1 3715  15.488   6.166   1.572
18292SOL    HW2 3716  15.512   6.206   1.415
18293SOL     OW 3717  12.539  14.412   2.321
18293SOL    HW1 3718  12.455  14.416   2.375
18293SOL    HW2 3719  12.595  14.492   2.342
18294SOL     OW 3720   4.933   0.783   6.365
18294SOL    HW1 3721   4.870   0.715   6.329
18294SOL    HW2 3722   5.014   0.786   6.307
18295SOL     OW 3723  12.455   1.202   1.827
18295SOL    HW1 3724  12.493   1.197   1.734
18295SOL    HW2 3725  12.522   1.168   1.892
18296SOL     OW 3726  15.441  10.286   2.033
18296SOL    HW1 3727  15.423  10.193   2.001
18296SOL    HW2 3728  15.424  10.291   2.131
18297SOL     OW 3729   1.874   8.728   1.663
18297SOL    HW1 3730   1.957   8.692   1.707
18297SOL    HW2 3731   1.822   8.782   1.729
18298SOL     OW 3732   7.800  13.963   1.621
18298SOL    HW1 3733   7.710  13.954   1.578
18298SOL    HW2 3734   7.797  13.924   1.713
18299SOL     OW 3735   0.132  13.799   0.011
18299SOL    HW1 3736   0.216  13.751   0.036
18299SOL    HW2 3737   0.118  13.793   8.366
18300SOL     OW 3738  10.506   8.158   8.155
18300SOL    HW1 3739  10.464   8.114   8.234
18300SOL    HW2 3740  10.599   8.185   8.178
18301SOL     OW 3741   8.676  15.264   7.300
18301SOL    HW1 3742   8.584  15.225   7.291
18301SOL    HW2 3743   8.712  15.287   7.210
18302SOL     OW 3744   0.492   1.020   2.414
18302SOL    HW1 3745   0.491   1.078   2.495
18302SOL    HW2 3746   0.555   0.944   2.428
18303SOL     OW 3747  14.898   1.838   1.784
18303SOL    HW1 3748  14.936   1.923   1.821
18303SOL    HW2 3749  14.799   1.836   1.801
18304SOL     OW 3750   4.925   1.762   1.659
18304SOL    HW1 3751   4.892   1.853   1.633
18304SOL    HW2 3752   4.871   1.727   1.735
18305SOL     OW 3753   9.304   3.176   7.268
18305SOL    HW1 3754   9.358   3.198   7.350
18305SOL    HW2 3755   9.208   3.167   7.294
18306SOL     OW 3756  15.640   1.747   7.163
18306SOL    HW1 3757  15.630   1.836   7.207
18306SOL    HW2 3758  15.682   1.758   7.074
18307SOL     OW 3759   5.576  12.431   1.187
18307SOL    HW1 3760   5.648  12.450   1.254
18307SOL    HW2 3761   5.577  12.334   1.164
18308SOL     OW 3762   4.488   2.654   7.803
18308SOL    HW1 3763   4.420   2.626   7.870
18308SOL    HW2 3764   4.557   2.712   7.847
18309SOL     OW 3765   7.185  15.835   7.065
18309SOL    HW1 3766   7.115  15.892   7.109
18309SOL    HW2 3767   7.241  15.892   7.005
18310SOL     OW 3768   0.191   1.452   6.689
18310SOL    HW1 3769   0.126   1.526   6.704
18310SOL    HW2 3770   0.236   1.429   6.775
18311SOL     OW 3771  12.535  10.342   7.365
18311SOL    HW1 3772  12.464  10.381   7.306
18311SOL    HW2 3773  12.529  10.383   7.456
18312SOL     OW 3774   2.247  11.600   0.540
18312SOL    HW1 3775   2.153  11.566   0.546
18312SOL    HW2 3776   2.251  11.695   0.571
18313SOL     OW 3777   2.919   2.350   1.045
18313SOL    HW1 3778   2.993   2.394   0.994
18313SOL    HW2 3779   2.943   2.255   1.064
18314SOL     OW 3780  13.498   8.244   0.860
18314SOL    HW1 3781  13.556   8.166   0.840
18314SOL    HW2 3782  13.475   8.244   0.958
18315SOL     OW 3783  11.315  12.908   8.240
18315SOL    HW1 3784  11.305  12.881   8.144
18315SOL    HW2 3785  11.251  12.856   8.296
18316SOL     OW 3786   0.702   7.144   1.020
18316SOL    HW1 3787   0.694   7.148   1.119
18316SOL    HW2 3788   0.611   7.141   0.978
18317SOL     OW 3789   1.022   7.229   5.917
18317SOL    HW1 3790   0.945   7.209   5.856
18317SOL    HW2 3791   1.106   7.238   5.863
18318SOL     OW 3792  12.541   2.380   6.574
18318SOL    HW1 3793  12.572   2.285   6.569
18318SOL    HW2 3794  12.565   2.426   6.489
18319SOL     OW 3795  15.176  13.461   1.110
18319SOL    HW1 3796  15.260  13.455   1.055
18319SOL    HW2 3797  15.164  13.376   1.162
18320SOL     OW 3798   8.218  14.183   0.166
18320SOL    HW1 3799   8.293  14.228   0.216
18320SOL    HW2 3800   8.254  14.144   0.081
18321SOL     OW 3801   6.151  10.454   0.814
18321SOL    HW1 3802   6.150  10.546   0.852
18321SOL    HW2 3803   6.058  10.417   0.813
18322SOL     OW 3804  15.251   9.060   6.553
18322SOL    HW1 3805  15.343   9.029   6.529
18322SOL    HW2 3806  15.217   9.123   6.483
18323SOL     OW 3807   0.230   9.144   7.416
18323SOL    HW1 3808   0.256   9.055   7.453
18323SOL    HW2 3809   0.198   9.134   7.322
18324SOL     OW 3810  10.314   0.417   7.479
18324SOL    HW1 3811  10.236   0.470   7.511
18324SOL    HW2 3812  10.292   0.375   7.391
18325SOL     OW 3813   2.140  15.344   2.324
18325SOL    HW1 3814   2.200  15.410   2.368
18325SOL    HW2 3815   2.111  15.380   2.235
18326SOL     OW 3816   2.519   8.256   7.424
18326SOL    HW1 3817   2.532   8.158   7.409
18326SOL    HW2 3818   2.431   8.284   7.387
18327SOL     OW 3819   5.448   7.186   0.918
18327SOL    HW1 3820   5.407   7.225   1.001
18327SOL    HW2 3821   5.459   7.087   0.929
18328SOL     OW 3822  16.749   2.700   0.421
18328SOL    HW1 3823  16.706   2.620   0.464
18328SOL    HW2 3824  16.784   2.673   0.331
18329SOL     OW 3825   4.066   2.714   6.490
18329SOL    HW1 3826   4.059   2.623   6.449
18329SOL    HW2 3827   4.032   2.783   6.426
18330SOL     OW 3828   3.239  11.993   0.987
18330SOL    HW1 3829   3.189  12.079   0.996
18330SOL    HW2 3830   3.182  11.918   1.019
18331SOL     OW 3831   0.723   5.626   6.341
18331SOL    HW1 3832   0.735   5.646   6.438
18331SOL    HW2 3833   0.812   5.603   6.301
18332SOL     OW 3834   3.417   0.927   0.790
18332SOL    HW1 3835   3.419   0.850   0.853
18332SOL    HW2 3836   3.395   1.011   0.840
18333SOL     OW 3837   6.385   0.291   0.976
18333SOL    HW1 3838   6.438   0.210   0.949
18333SOL    HW2 3839   6.335   0.326   0.897
18334SOL     OW 3840   2.061  12.323   0.794
18334SOL    HW1 3841   2.043  12.307   0.891
18334SOL    HW2 3842   2.158  12.307   0.776
18335SOL     OW 3843   4.306   5.078   1.417
18335SOL    HW1 3844   4.328   4.982   1.431
18335SOL    HW2 3845   4.328   5.105   1.323
18336SOL     OW 3846   3.688  14.865   1.432
18336SOL    HW1 3847   3.740  14.803   1.373
18336SOL    HW2 3848   3.717  14.853   1.527
18337SOL     OW 3849   3.565   7.481   7.213
18337SOL    HW1 3850   3.530   7.448   7.125
18337SOL    HW2 3851   3.530   7.573   7.230
18338SOL     OW 3852  14.157   4.596   8.295
18338SOL    HW1 3853  14.186   4.691   8.283
18338SOL    HW2 3854  14.057   4.592   8.300
18339SOL     OW 3855  15.428   9.592   0.612
18339SOL    HW1 3856  15.377   9.577   0.527
18339SOL    HW2 3857  15.485   9.512   0.631
18340SOL     OW 3858  16.155   3.504   0.065
18340SOL    HW1 3859  16.222   3.562   0.112
18340SOL    HW2 3860  16.073   3.496   0.122
18341SOL     OW 3861   3.242   3.215   0.792
18341SOL    HW1 3862   3.283   3.214   0.700
18341SOL    HW2 3863   3.194   3.129   0.807
18342SOL     OW 3864   9.070   6.672   1.813
18342SOL    HW1 3865   9.104   6.760   1.847
18342SOL    HW2 3866   9.105   6.598   1.871
18343SOL     OW 3867   2.349   7.272   0.750
18343SOL    HW1 3868   2.437   7.314   0.726
18343SOL    HW2 3869   2.311   7.227   0.669
18344SOL     OW 3870   7.114  13.579   8.329
18344SOL    HW1 3871   7.145  13.503   8.386
18344SOL    HW2 3872   7.187  13.606   8.267
18345SOL     OW 3873  11.178   4.926   7.392
18345SOL    HW1 3874  11.086   4.964   7.404
18345SOL    HW2 3875  11.195   4.857   7.462
18346SOL     OW 3876   9.242  15.872   6.567
18346SOL    HW1 3877   9.323  15.841   6.518
18346SOL    HW2 3878   9.212  15.801   6.631
18347SOL     OW 3879   1.998   0.266   1.607
18347SOL    HW1 3880   2.018   0.351   1.656
18347SOL    HW2 3881   1.964   0.197   1.671
18348SOL     OW 3882   0.167   4.370   0.795
18348SOL    HW1 3883   0.166   4.439   0.722
18348SOL    HW2 3884   0.236   4.300   0.775
18349SOL     OW 3885   4.455   8.955   8.134
18349SOL    HW1 3886   4.428   9.040   8.177
18349SOL    HW2 3887   4.549   8.932   8.160
18350SOL     OW 3888   1.228   0.103   6.745
18350SOL    HW1 3889   1.160   0.069   6.679
18350SOL    HW2 3890   1.216   0.057   6.832
18351SOL     OW 3891  12.570   0.204   6.604
18351SOL    HW1 3892  12.587   0.203   6.702
18351SOL    HW2 3893  12.625   0.133   6.559
18352SOL     OW 3894   5.376   2.967   7.020
18352SOL    HW1 3895   5.300   2.913   6.982
18352SOL    HW2 3896   5.340   3.046   7.069
18353SOL     OW 3897   0.441   9.441   2.563
18353SOL    HW1 3898   0.402   9.525   2.600
18353SOL    HW2 3899   0.408   9.363   2.616
18354SOL     OW 3900   5.393   1.325   7.232
18354SOL    HW1 3901   5.398   1.325   7.132
18354SOL    HW2 3902   5.416   1.233   7.266
18355SOL     OW 3903  13.847   5.146   0.205
18355SOL    HW1 3904  13.873   5.064   0.154
18355SOL    HW2 3905  13.895   5.148   0.292
18356SOL     OW 3906   8.460  13.135   0.580
18356SOL    HW1 3907   8.368  13.109   0.608
18356SOL    HW2 3908   8.526  13.070   0.619
18357SOL     OW 3909  12.549   5.088   5.742
18357SOL    HW1 3910  12.613   5.112   5.669
18357SOL    HW2 3911  12.475   5.155   5.745
18358SOL     OW 3912   1.322   2.890   0.988
18358SOL    HW1 3913   1.227   2.890   0.955
18358SOL    HW2 3914   1.339   2.807   1.041
18359SOL     OW 3915   1.814   3.691   6.622
18359SOL    HW1 3916   1.752   3.690   6.544
18359SOL    HW2 3917   1.905   3.721   6.593
18360SOL     OW 3918  16.827   5.437   7.658
18360SOL    HW1 3919  16.766   5.388   7.596
18360SOL    HW2 3920  16.773   5.484   7.728
18361SOL     OW 3921  11.908   4.671   7.475
18361SOL    HW1 3922  11.959   4.650   7.558
18361SOL    HW2 3923  11.810   4.657   7.492
18362SOL     OW 3924   9.267  15.878   0.399
18362SOL    HW1 3925   9.367  15.874   0.400
18362SOL    HW2 3926   9.230  15.797   0.443
18363SOL     OW 3927   3.455   2.582   0.495
18363SOL    HW1 3928   3.447   2.672   0.537
18363SOL    HW2 3929   3.415   2.513   0.555
18364SOL     OW 3930   5.531  13.757   0.380
18364SOL    HW1 3931   5.521  13.684   0.448
18364SOL    HW2 3932   5.501  13.723   0.291
18365SOL     OW 3933  16.560   4.878   0.623
18365SOL    HW1 3934  16.590   4.804   0.563
18365SOL    HW2 3935  16.607   4.962   0.599
18366SOL     OW 3936  15.371   6.447   1.228
18366SOL    HW1 3937  15.392   6.528   1.284
18366SOL    HW2 3938  15.437   6.375   1.248
18367SOL     OW 3939  11.811   9.747   0.860
18367SOL    HW1 3940  11.846   9.823   0.804
18367SOL    HW2 3941  11.888   9.694   0.895
18368SOL     OW 3942   2.064   8.007   0.608
18368SOL    HW1 3943   2.112   7.984   0.523
18368SOL    HW2 3944   2.002   7.933   0.632
18369SOL     OW 3945   1.194   4.228   0.658
18369SOL    HW1 3946   1.158   4.151   0.605
18369SOL    HW2 3947   1.232   4.296   0.595
18370SOL     OW 3948   6.899   2.651   1.691
18370SOL    HW1 3949   6.847   2.603   1.621
18370SOL    HW2 3950   6.841   2.719   1.735
18371SOL     OW 3951  12.237  11.751   0.471
18371SOL    HW1 3952  12.254  11.678   0.538
18371SOL    HW2 3953  12.203  11.711   0.386
18372SOL     OW 3954  13.915   1.858   6.650
18372SOL    HW1 3955  13.999   1.888   6.695
18372SOL    HW2 3956  13.883   1.774   6.692
18373SOL     OW 3957   1.572   8.786   1.466
18373SOL    HW1 3958   1.629   8.704   1.473
18373SOL    HW2 3959   1.489   8.773   1.521
18374SOL     OW 3960  10.618   9.391   0.299
18374SOL    HW1 3961  10.600   9.481   0.338
18374SOL    HW2 3962  10.704   9.355   0.337
18375SOL     OW 3963   5.261   5.575   0.344
18375SOL    HW1 3964   5.167   5.565   0.378
18375SOL    HW2 3965   5.291   5.488   0.304
18376SOL     OW 3966  15.445   0.403   8.027
18376SOL    HW1 3967  15.451   0.366   8.119
18376SOL    HW2 3968  15.475   0.334   7.961
18377SOL     OW 3969   1.470   9.440   1.475
18377SOL    HW1 3970   1.450   9.350   1.514
18377SOL    HW2 3971   1.569   9.455   1.476
18378SOL     OW 3972   4.929   6.751   6.443
18378SOL    HW1 3973   4.968   6.764   6.534
18378SOL    HW2 3974   4.992   6.787   6.374
18379SOL     OW 3975  11.606   7.052   1.038
18379SOL    HW1 3976  11.657   7.090   1.115
18379SOL    HW2 3977  11.566   7.127   0.984
18380SOL     OW 3978  15.924  15.062   5.996
18380SOL    HW1 3979  15.850  14.995   5.998
18380SOL    HW2 3980  15.901  15.134   5.930
18381SOL     OW 3981  10.252  15.324   0.844
18381SOL    HW1 3982  10.192  15.278   0.910
18381SOL    HW2 3983  10.284  15.257   0.776
18382SOL     OW 3984  11.090   2.678   0.124
18382SOL    HW1 3985  10.997   2.641   0.129
18382SOL    HW2 3986  11.085   2.777   0.108
18383SOL     OW 3987   1.342  13.055   0.457
18383SOL    HW1 3988   1.417  13.032   0.395
18383SOL    HW2 3989   1.262  13.000   0.434
18384SOL     OW 3990   6.391   7.318   6.675
18384SOL    HW1 3991   6.410   7.221   6.656
18384SOL    HW2 3992   6.434   7.374   6.604
18385SOL     OW 3993   2.890   2.125   1.383
18385SOL    HW1 3994   2.848   2.214   1.400
18385SOL    HW2 3995   2.846   2.056   1.440
18386SOL     OW 3996   2.904  10.997   7.849
18386SOL    HW1 3997   2.927  10.900   7.862
18386SOL    HW2 3998   2.983  11.046   7.815
18387SOL     OW 3999   9.141  12.210   8.108
18387SOL    HW1 4000   9.184  12.142   8.167
18387SOL    HW2 4001   9.041  12.203   8.115
18388SOL     OW 4002   7.578  13.966   2.026
18388SOL    HW1 4003   7.572  13.948   2.124
18388SOL    HW2 4004   7.607  14.060   2.011
18389SOL     OW 4005  13.250   0.837   6.192
18389SOL    HW1 4006  13.248   0.738   6.176
18389SOL    HW2 4007  13.164   0.877   6.159
18390SOL     OW 4008   6.765   2.849   1.834
18390SOL    HW1 4009   6.765   2.932   1.777
18390SOL    HW2 4010   6.678   2.843   1.884
18391SOL     OW 4011   3.125   1.257   2.482
18391SOL    HW1 4012   3.103   1.354   2.492
18391SOL    HW2 4013   3.046   1.208   2.447
18392SOL     OW 4014   4.778   6.849   1.751
18392SOL    HW1 4015   4.718   6.924   1.778
18392SOL    HW2 4016   4.874   6.877   1.761
18393SOL     OW 4017   4.027   4.804   0.122
18393SOL    HW1 4018   3.994   4.878   0.181
18393SOL    HW2 4019   4.040   4.721   0.176
18394SOL     OW 4020  16.409  10.411   6.547
18394SOL    HW1 4021  16.432  10.482   6.479
18394SOL    HW2 4022  16.414  10.321   6.504
18395SOL     OW 4023   7.410  12.401   1.008
18395SOL    HW1 4024   7.376  12.364   0.922
18395SOL    HW2 4025   7.341  12.390   1.080
18396SOL     OW 4026   4.482  11.564   1.903
18396SOL    HW1 4027   4.461  11.555   2.001
18396SOL    HW2 4028   4.511  11.475   1.868
18397SOL     OW 4029   2.545   9.411   7.338
18397SOL    HW1 4030   2.618   9.442   7.398
18397SOL    HW2 4031   2.457   9.423   7.383
18398SOL     OW 4032  14.762   9.870   8.320
18398SOL    HW1 4033  14.774   9.872   8.220
18398SOL    HW2 4034  14.834   9.924   8.363
18399SOL     OW 4035   0.141   7.886   7.179
18399SOL    HW1 4036   0.175   7.793   7.165
18399SOL    HW2 4037   0.123   7.901   7.276
18400SOL     OW 4038  12.467  12.764   6.857
18400SOL    HW1 4039  12.414  12.819   6.922
18400SOL    HW2 4040  12.405  12.723   6.790
18401SOL     OW 4041   8.257   0.827   7.848
18401SOL    HW1 4042   8.345   0.852   7.889
18401SOL    HW2 4043   8.190   0.897   7.870
18402SOL     OW 4044  12.958   6.596   8.118
18402SOL    HW1 4045  12.937   6.606   8.215
18402SOL    HW2 4046  12.876   6.615   8.063
18403SOL     OW 4047   4.478   1.259   1.611
18403SOL    HW1 4048   4.402   1.193   1.613
18403SOL    HW2 4049   4.563   1.213   1.637
18404SOL     OW 4050  10.203   1.211   8.028
18404SOL    HW1 4051  10.178   1.253   8.115
18404SOL    HW2 4052  10.157   1.123   8.019
18405SOL     OW 4053  10.232   1.045   0.932
18405SOL    HW1 4054  10.233   1.129   0.986
18405SOL    HW2 4055  10.137   1.013   0.921
18406SOL     OW 4056  16.138  10.447   7.677
18406SOL    HW1 4057  16.161  10.475   7.770
18406SOL    HW2 4058  16.211  10.389   7.641
18407SOL     OW 4059   8.443   8.067   6.838
18407SOL    HW1 4060   8.490   8.136   6.782
18407SOL    HW2 4061   8.348   8.061   6.810
18408SOL     OW 4062   6.943  10.008   7.534
18408SOL    HW1 4063   6.856  10.023   7.487
18408SOL    HW2 4064   6.926   9.962   7.621
18409SOL     OW 4065   8.372  10.630   1.284
18409SOL    HW1 4066   8.380  10.587   1.374
18409SOL    HW2 4067   8.310  10.576   1.227
18410SOL     OW 4068  13.539   8.276   0.326
18410SOL    HW1 4069  13.629   8.319   0.329
18410SOL    HW2 4070  13.507   8.273   0.231
18411SOL     OW 4071   6.991  11.993   1.063
18411SOL    HW1 4072   7.045  11.909   1.064
18411SOL    HW2 4073   6.897  11.972   1.089
18412SOL     OW 4074  14.546  14.593   1.379
18412SOL    HW1 4075  14.597  14.526   1.434
18412SOL    HW2 4076  14.545  14.563   1.284
18413SOL     OW 4077  10.118   3.098   0.117
18413SOL    HW1 4078  10.107   3.103   0.216
18413SOL    HW2 4079  10.186   3.164   0.087
18414SOL     OW 4080   9.739   3.266   7.860
18414SOL    HW1 4081   9.768   3.172   7.878
18414SOL    HW2 4082   9.693   3.302   7.941
18415SOL     OW 4083  11.014   9.915   6.731
18415SOL    HW1 4084  11.063   9.971   6.664
18415SOL    HW2 4085  10.988   9.828   6.689
18416SOL     OW 4086   7.318   0.643   7.525
18416SOL    HW1 4087   7.257   0.563   7.519
18416SOL    HW2 4088   7.412   0.614   7.508
18417SOL     OW 4089   8.925  13.320   8.206
18417SOL    HW1 4090   8.953  13.415   8.189
18417SOL    HW2 4091   8.961  13.261   8.134
18418SOL     OW 4092  14.752   8.147   8.086
18418SOL    HW1 4093  14.832   8.202   8.060
18418SOL    HW2 4094  14.771   8.050   8.070
18419SOL     OW 4095  15.487   5.006   7.340
18419SOL    HW1 4096  15.492   4.906   7.334
18419SOL    HW2 4097  15.449   5.032   7.428
18420SOL     OW 4098  16.731   3.589   7.498
18420SOL    HW1 4099  16.772   3.583   7.407
18420SOL    HW2 4100  16.683   3.677   7.506
18421SOL     OW 4101   6.671  11.738   7.688
18421SOL    HW1 4102   6.706  11.729   7.782
18421SOL    HW2 4103   6.621  11.824   7.680
18422SOL     OW 4104   3.306   4.454   0.308
18422SOL    HW1 4105   3.396   4.458   0.350
18422SOL    HW2 4106   3.282   4.543   0.269
18423SOL     OW 4107   6.517  11.977   7.657
18423SOL    HW1 4108   6.530  11.981   7.757
18423SOL    HW2 4109   6.426  12.010   7.634
18424SOL     OW 4110  12.053  11.132   1.114
18424SOL    HW1 4111  12.123  11.150   1.045
18424SOL    HW2 4112  12.028  11.217   1.160
18425SOL     OW 4113   7.039   7.138   0.888
18425SOL    HW1 4114   6.972   7.164   0.818
18425SOL    HW2 4115   7.118   7.199   0.883
18426SOL     OW 4116  10.182  12.087   0.565
18426SOL    HW1 4117  10.168  12.132   0.477
18426SOL    HW2 4118  10.222  12.153   0.629
18427SOL     OW 4119  14.559  13.632   0.696
18427SOL    HW1 4120  14.470  13.672   0.675
18427SOL    HW2 4121  14.631  13.693   0.663
18428SOL     OW 4122  16.507   6.026   6.227
18428SOL    HW1 4123  16.578   6.049   6.161
18428SOL    HW2 4124  16.474   6.109   6.271
18429SOL     OW 4125   6.621   0.788   7.568
18429SOL    HW1 4126   6.698   0.816   7.626
18429SOL    HW2 4127   6.554   0.862   7.563
18430SOL     OW 4128   4.848   7.379   0.866
18430SOL    HW1 4129   4.810   7.468   0.891
18430SOL    HW2 4130   4.797   7.341   0.789
18431SOL     OW 4131   8.167   2.865   2.244
18431SOL    HW1 4132   8.260   2.844   2.274
18431SOL    HW2 4133   8.130   2.939   2.299
18432SOL     OW 4134  13.349   9.072   6.882
18432SOL    HW1 4135  13.305   9.016   6.812
18432SOL    HW2 4136  13.423   9.020   6.924
18433SOL     OW 4137   2.142   0.837   1.927
18433SOL    HW1 4138   2.141   0.918   1.985
18433SOL    HW2 4139   2.109   0.758   1.979
18434SOL     OW 4140  10.944   5.453   6.822
18434SOL    HW1 4141  10.900   5.453   6.912
18434SOL    HW2 4142  10.933   5.543   6.780
18435SOL     OW 4143  12.962   9.540   0.875
18435SOL    HW1 4144  13.048   9.585   0.896
18435SOL    HW2 4145  12.886   9.604   0.891
18436SOL     OW 4146  15.316   9.439   0.130
18436SOL    HW1 4147  15.236   9.385   0.153
18436SOL    HW2 4148  15.387   9.380   0.092
18437SOL     OW 4149  11.349   0.443   0.717
18437SOL    HW1 4150  11.383   0.514   0.779
18437SOL    HW2 4151  11.269   0.399   0.759
18438SOL     OW 4152  10.584  15.067   1.827
18438SOL    HW1 4153  10.539  15.015   1.900
18438SOL    HW2 4154  10.601  15.007   1.749
18439SOL     OW 4155  14.739   3.899   0.460
18439SOL    HW1 4156  14.824   3.915   0.510
18439SOL    HW2 4157  14.756   3.834   0.386
18440SOL     OW 4158  10.483  11.483   8.219
18440SOL    HW1 4159  10.481  11.521   8.311
18440SOL    HW2 4160  10.547  11.406   8.216
18441SOL     OW 4161   4.617   9.730   0.772
18441SOL    HW1 4162   4.670   9.786   0.709
18441SOL    HW2 4163   4.526   9.713   0.733
18442SOL     OW 4164  12.601   1.677   5.691
18442SOL    HW1 4165  12.684   1.695   5.639
18442SOL    HW2 4166  12.526   1.731   5.653
18443SOL     OW 4167  10.397   5.981   0.556
18443SOL    HW1 4168  10.306   6.011   0.528
18443SOL    HW2 4169  10.464   6.050   0.532
18444SOL     OW 4170  16.500   4.823   8.032
18444SOL    HW1 4171  16.431   4.876   8.081
18444SOL    HW2 4172  16.573   4.884   8.002
18445SOL     OW 4173  13.128   6.644   7.389
18445SOL    HW1 4174  13.207   6.705   7.394
18445SOL    HW2 4175  13.160   6.549   7.383
18446SOL     OW 4176   5.962  10.821   6.130
18446SOL    HW1 4177   5.871  10.836   6.092
18446SOL    HW2 4178   6.017  10.903   6.118
18447SOL     OW 4179   8.444  11.022   7.681
18447SOL    HW1 4180   8.438  10.994   7.586
18447SOL    HW2 4181   8.414  10.947   7.740
18448SOL     OW 4182  11.063   1.655   2.007
18448SOL    HW1 4183  10.968   1.659   1.973
18448SOL    HW2 4184  11.086   1.742   2.051
18449SOL     OW 4185   5.462   5.772   0.113
18449SOL    HW1 4186   5.383   5.794   0.055
18449SOL    HW2 4187   5.467   5.837   0.189
18450SOL     OW 4188   4.853   8.606   2.720
18450SOL    HW1 4189   4.786   8.646   2.782
18450SOL    HW2 4190   4.860   8.507   2.736
18451SOL     OW 4191  10.725  12.180   1.931
18451SOL    HW1 4192  10.778  12.159   2.013
18451SOL    HW2 4193  10.689  12.096   1.891
18452SOL     OW 4194   2.819   0.772   1.178
18452SOL    HW1 4195   2.870   0.702   1.228
18452SOL    HW2 4196   2.742   0.731   1.130
18453SOL     OW 4197   1.632  12.268   2.153
18453SOL    HW1 4198   1.620  12.179   2.110
18453SOL    HW2 4199   1.648  12.256   2.251
18454SOL     OW 4200   0.034   2.227   6.832
18454SOL    HW1 4201  16.955   2.166   6.783
18454SOL    HW2 4202  16.975   2.255   6.919
18455SOL     OW 4203  10.423  12.059   8.063
18455SOL    HW1 4204  10.446  11.993   7.992
18455SOL    HW2 4205  10.431  12.151   8.027
18456SOL     OW 4206   6.400  10.141   0.989
18456SOL    HW1 4207   6.390  10.201   0.910
18456SOL    HW2 4208   6.469  10.072   0.970
18457SOL     OW 4209   4.934  15.453   7.953
18457SOL    HW1 4210   4.952  15.357   7.974
18457SOL    HW2 4211   4.866  15.459   7.880
18458SOL     OW 4212   9.348  11.779   7.174
18458SOL    HW1 4213   9.437  11.772   7.219
18458SOL    HW2 4214   9.278  11.743   7.235
18459SOL     OW 4215   4.729  15.386   7.515
18459SOL    HW1 4216   4.774  15.297   7.523
18459SOL    HW2 4217   4.630  15.373   7.508
18460SOL     OW 4218   7.754   0.294   1.734
18460SOL    HW1 4219   7.843   0.318   1.696
18460SOL    HW2 4220   7.758   0.300   1.834
18461SOL     OW 4221   4.136  13.506   8.306
18461SOL    HW1 4222   4.199  13.468   8.373
18461SOL    HW2 4223   4.180  13.508   8.216
18462SOL     OW 4224   8.251   7.936   0.356
18462SOL    HW1 4225   8.229   7.870   0.428
18462SOL    HW2 4226   8.183   8.010   0.357
18463SOL     OW 4227  15.022   3.479   0.598
18463SOL    HW1 4228  15.026   3.561   0.540
18463SOL    HW2 4229  15.057   3.400   0.547
18464SOL     OW 4230  12.992   9.431   0.162
18464SOL    HW1 4231  13.037   9.449   0.249
18464SOL    HW2 4232  12.895   9.454   0.170
18465SOL     OW 4233   8.174   8.091   0.898
18465SOL    HW1 4234   8.102   8.022   0.912
18465SOL    HW2 4235   8.187   8.106   0.800
18466SOL     OW 4236   9.501   5.019   1.015
18466SOL    HW1 4237   9.496   4.971   1.102
18466SOL    HW2 4238   9.566   4.973   0.955
18467SOL     OW 4239   7.985   9.864   1.666
18467SOL    HW1 4240   8.063   9.822   1.619
18467SOL    HW2 4241   7.970   9.818   1.753
18468SOL     OW 4242   6.351   5.155   1.133
18468SOL    HW1 4243   6.320   5.168   1.227
18468SOL    HW2 4244   6.402   5.070   1.126
18469SOL     OW 4245  16.921  10.197   1.615
18469SOL    HW1 4246  16.920  10.285   1.662
18469SOL    HW2 4247  16.854  10.198   1.541
18470SOL     OW 4248   1.713  13.249   8.052
18470SOL    HW1 4249   1.715  13.189   7.972
18470SOL    HW2 4250   1.721  13.344   8.022
18471SOL     OW 4251  13.871  10.440   7.748
18471SOL    HW1 4252  13.870  10.371   7.820
18471SOL    HW2 4253  13.869  10.395   7.659
18472SOL     OW 4254   5.927  14.861   0.996
18472SOL    HW1 4255   5.886  14.877   1.086
18472SOL    HW2 4256   5.855  14.850   0.928
18473SOL     OW 4257  15.797   5.864   1.039
18473SOL    HW1 4258  15.879   5.817   1.006
18473SOL    HW2 4259  15.727   5.862   0.967
18474SOL     OW 4260   6.160   2.504   7.010
18474SOL    HW1 4261   6.082   2.493   6.948
18474SOL    HW2 4262   6.219   2.423   7.004
18475SOL     OW 4263   4.981  15.524   2.394
18475SOL    HW1 4264   5.008  15.431   2.420
18475SOL    HW2 4265   4.942  15.571   2.473
18476SOL     OW 4266   0.631   9.307   8.116
18476SOL    HW1 4267   0.619   9.360   8.031
18476SOL    HW2 4268   0.675   9.220   8.095
18477SOL     OW 4269   4.629  14.721   1.037
18477SOL    HW1 4270   4.643  14.711   1.135
18477SOL    HW2 4271   4.618  14.630   0.996
18478SOL     OW 4272   8.130  16.592   2.041
18478SOL    HW1 4273   8.227  16.586   2.018
18478SOL    HW2 4274   8.119  16.634   2.131
18479SOL     OW 4275  14.782  13.093   1.894
18479SOL    HW1 4276  14.772  13.180   1.846
18479SOL    HW2 4277  14.741  13.020   1.840
18480SOL     OW 4278   7.823  14.629   8.139
18480SOL    HW1 4279   7.776  14.542   8.129
18480SOL    HW2 4280   7.843  14.645   8.235
18481SOL     OW 4281  13.645  16.073   0.470
18481SOL    HW1 4282  13.632  16.133   0.549
18481SOL    HW2 4283  13.556  16.054   0.428
18482SOL     OW 4284   8.393   8.352   0.219
18482SOL    HW1 4285   8.334   8.363   0.139
18482SOL    HW2 4286   8.341   8.376   0.302
18483SOL     OW 4287  13.361   1.970   7.374
18483SOL    HW1 4288  13.440   1.977   7.434
18483SOL    HW2 4289  13.386   1.999   7.282
18484SOL     OW 4290  14.784   4.795   0.819
18484SOL    HW1 4291  14.690   4.778   0.849
18484SOL    HW2 4292  14.840   4.713   0.836
18485SOL     OW 4293  13.643  15.490   1.126
18485SOL    HW1 4294  13.666  15.576   1.173
18485SOL    HW2 4295  13.607  15.511   1.036
18486SOL     OW 4296   8.434   6.724   7.843
18486SOL    HW1 4297   8.396   6.797   7.786
18486SOL    HW2 4298   8.362   6.658   7.866
18487SOL     OW 4299   2.043  11.937   7.152
18487SOL    HW1 4300   2.014  11.941   7.057
18487SOL    HW2 4301   2.141  11.956   7.158
18488SOL     OW 4302   8.834   1.491   1.579
18488SOL    HW1 4303   8.929   1.467   1.561
18488SOL    HW2 4304   8.804   1.447   1.664
18489SOL     OW 4305  16.573   1.438   0.767
18489SOL    HW1 4306  16.556   1.412   0.862
18489SOL    HW2 4307  16.486   1.443   0.718
18490SOL     OW 4308   9.224   7.990   7.528
18490SOL    HW1 4309   9.259   7.903   7.493
18490SOL    HW2 4310   9.124   7.988   7.526
18491SOL     OW 4311   5.975   0.504   0.119
18491SOL    HW1 4312   6.060   0.453   0.117
18491SOL    HW2 4313   5.901   0.444   0.148
18492SOL     OW 4314   1.177   7.612   0.811
18492SOL    HW1 4315   1.184   7.686   0.878
18492SOL    HW2 4316   1.103   7.550   0.836
18493SOL     OW 4317  12.452   1.631   7.589
18493SOL    HW1 4318  12.552   1.632   7.590
18493SOL    HW2 4319  12.418   1.721   7.562
18494SOL     OW 4320  15.114  11.836   1.837
18494SOL    HW1 4321  15.117  11.843   1.936
18494SOL    HW2 4322  15.082  11.922   1.798
18495SOL     OW 4323  11.605  11.734   7.280
18495SOL    HW1 4324  11.512  11.740   7.317
18495SOL    HW2 4325  11.665  11.691   7.348
18496SOL     OW 4326   6.149   8.231   8.041
18496SOL    HW1 4327   6.114   8.228   8.134
18496SOL    HW2 4328   6.147   8.325   8.007
18497SOL     OW 4329   2.679  14.980   7.476
18497SOL    HW1 4330   2.634  15.069   7.467
18497SOL    HW2 4331   2.776  14.989   7.458
18498SOL     OW 4332   3.665   3.716   7.719
18498SOL    HW1 4333   3.635   3.684   7.809
18498SOL    HW2 4334   3.656   3.816   7.715
18499SOL     OW 4335  14.519   4.015   5.764
18499SOL    HW1 4336  14.583   4.090   5.778
18499SOL    HW2 4337  14.447   4.044   5.702
18500SOL     OW 4338   6.146   6.341   7.919
18500SOL    HW1 4339   6.110   6.363   7.828
18500SOL    HW2 4340   6.243   6.318   7.912
18501SOL     OW 4341   6.077  16.569   8.020
18501SOL    HW1 4342   6.062  16.631   7.943
18501SOL    HW2 4343   6.098  16.622   8.102
18502SOL     OW 4344   0.123   9.259   7.653
18502SOL    HW1 4345   0.167   9.217   7.574
18502SOL    HW2 4346   0.167   9.227   7.737
18503SOL     OW 4347   3.743   3.429   1.597
18503SOL    HW1 4348   3.798   3.451   1.517
18503SOL    HW2 4349   3.719   3.514   1.645
18504SOL     OW 4350   7.218   4.411   1.236
18504SOL    HW1 4351   7.171   4.342   1.289
18504SOL    HW2 4352   7.153   4.479   1.203
18505SOL     OW 4353  16.667   2.724   6.929
18505SOL    HW1 4354  16.696   2.816   6.953
18505SOL    HW2 4355  16.727   2.657   6.974
18506SOL     OW 4356  13.016   1.688   7.245
18506SOL    HW1 4357  13.075   1.639   7.309
18506SOL    HW2 4358  13.028   1.650   7.154
18507SOL     OW 4359   8.795  16.008   1.801
18507SOL    HW1 4360   8.871  15.985   1.740
18507SOL    HW2 4361   8.826  16.008   1.896
18508SOL     OW 4362  14.368  15.722   0.261
18508SOL    HW1 4363  14.298  15.698   0.193
18508SOL    HW2 4364  14.345  15.682   0.349
18509SOL     OW 4365   6.745   4.394   6.608
18509SOL    HW1 4366   6.687   4.458   6.659
18509SOL    HW2 4367   6.725   4.400   6.511
18510SOL     OW 4368  14.523  12.753   6.771
18510SOL    HW1 4369  14.470  12.756   6.856
18510SOL    HW2 4370  14.511  12.664   6.727
18511SOL     OW 4371  11.410   5.858   1.314
18511SOL    HW1 4372  11.508   5.859   1.337
18511SOL    HW2 4373  11.364   5.789   1.370
18512SOL     OW 4374  13.479   6.679   7.138
18512SOL    HW1 4375  13.507   6.583   7.134
18512SOL    HW2 4376  13.529   6.725   7.211
18513SOL     OW 4377   6.493   5.588   0.106
18513SOL    HW1 4378   6.507   5.571   0.009
18513SOL    HW2 4379   6.404   5.551   0.134
18514SOL     OW 4380  13.152   6.163   0.831
18514SOL    HW1 4381  13.168   6.256   0.797
18514SOL    HW2 4382  13.154   6.098   0.754
18515SOL     OW 4383   9.134   4.827   7.977
18515SOL    HW1 4384   9.163   4.903   7.918
18515SOL    HW2 4385   9.123   4.744   7.922
18516SOL     OW 4386  13.115   1.802   7.732
18516SOL    HW1 4387  13.169   1.748   7.667
18516SOL    HW2 4388  13.176   1.840   7.801
18517SOL     OW 4389   9.500   6.967   6.219
18517SOL    HW1 4390   9.583   6.921   6.187
18517SOL    HW2 4391   9.466   7.028   6.148
18518SOL     OW 4392  11.447   1.744   5.843
18518SOL    HW1 4393  11.471   1.673   5.776
18518SOL    HW2 4394  11.531   1.791   5.872
18519SOL     OW 4395   6.693   7.004   0.776
18519SOL    HW1 4396   6.741   6.952   0.847
18519SOL    HW2 4397   6.603   7.029   0.809
18520SOL     OW 4398  16.923  14.241   6.794
18520SOL    HW1 4399  16.874  14.257   6.708
18520SOL    HW2 4400  16.976  14.156   6.786
18521SOL     OW 4401   0.883   0.410   7.636
18521SOL    HW1 4402   0.830   0.474   7.692
18521SOL    HW2 4403   0.905   0.453   7.549
18522SOL     OW 4404   3.208   6.355   6.979
18522SOL    HW1 4405   3.213   6.261   6.946
18522SOL    HW2 4406   3.212   6.355   7.079
18523SOL     OW 4407   9.949   5.660   1.664
18523SOL    HW1 4408   9.852   5.639   1.652
18523SOL    HW2 4409   9.960   5.754   1.695
18524SOL     OW 4410   9.801  10.045   8.178
18524SOL    HW1 4411   9.813  10.135   8.220
18524SOL    HW2 4412   9.746   9.987   8.239
18525SOL     OW 4413   6.602  16.371   7.744
18525SOL    HW1 4414   6.651  16.286   7.724
18525SOL    HW2 4415   6.516  16.349   7.790
18526SOL     OW 4416  16.516   0.069   1.528
18526SOL    HW1 4417  16.456   0.050   1.450
18526SOL    HW2 4418  16.473   0.034   1.611
18527SOL     OW 4419  15.029  10.723   7.020
18527SOL    HW1 4420  15.112  10.769   6.988
18527SOL    HW2 4421  15.022  10.731   7.119
18528SOL     OW 4422   1.918  11.950   1.231
18528SOL    HW1 4423   2.010  11.987   1.217
18528SOL    HW2 4424   1.925  11.860   1.274
18529SOL     OW 4425   7.444   5.793   7.863
18529SOL    HW1 4426   7.392   5.784   7.948
18529SOL    HW2 4427   7.541   5.806   7.885
18530SOL     OW 4428  13.663   5.981   0.750
18530SOL    HW1 4429  13.701   5.942   0.835
18530SOL    HW2 4430  13.582   6.035   0.772
18531SOL     OW 4431  14.482  11.593   7.242
18531SOL    HW1 4432  14.541  11.621   7.166
18531SOL    HW2 4433  14.404  11.654   7.249
18532SOL     OW 4434  15.187   0.852   7.236
18532SOL    HW1 4435  15.218   0.893   7.150
18532SOL    HW2 4436  15.087   0.857   7.241
18533SOL     OW 4437   3.633   2.588   0.155
18533SOL    HW1 4438   3.598   2.570   0.063
18533SOL    HW2 4439   3.614   2.510   0.214
18534SOL     OW 4440   5.210   8.555   2.457
18534SOL    HW1 4441   5.144   8.623   2.489
18534SOL    HW2 4442   5.202   8.472   2.512
18535SOL     OW 4443  12.785   2.114   8.263
18535SOL    HW1 4444  12.703   2.159   8.230
18535SOL    HW2 4445  12.857   2.121   8.194
18536SOL     OW 4446  10.595  15.584   0.200
18536SOL    HW1 4447  10.560  15.667   0.245
18536SOL    HW2 4448  10.693  15.594   0.186
18537SOL     OW 4449   4.028  15.151   7.708
18537SOL    HW1 4450   4.121  15.116   7.720
18537SOL    HW2 4451   3.979  15.146   7.795
18538SOL     OW 4452  10.437  11.050   8.107
18538SOL    HW1 4453  10.464  11.119   8.040
18538SOL    HW2 4454  10.352  11.006   8.079
18539SOL     OW 4455   2.167  13.231   0.806
18539SOL    HW1 4456   2.131  13.193   0.891
18539SOL    HW2 4457   2.105  13.302   0.772
18540SOL     OW 4458   4.068   6.394   0.682
18540SOL    HW1 4459   4.034   6.381   0.775
18540SOL    HW2 4460   4.021   6.332   0.620
18541SOL     OW 4461   6.958   4.447   0.359
18541SOL    HW1 4462   6.986   4.413   0.449
18541SOL    HW2 4463   6.867   4.488   0.367
18542SOL     OW 4464  15.957   4.296   8.253
18542SOL    HW1 4465  15.991   4.322   8.344
18542SOL    HW2 4466  15.858   4.308   8.249
18543SOL     OW 4467  15.888   4.961   8.093
18543SOL    HW1 4468  15.911   4.931   8.185
18543SOL    HW2 4469  15.971   4.969   8.038
18544SOL     OW 4470   5.812  13.437   0.116
18544SOL    HW1 4471   5.866  13.353   0.124
18544SOL    HW2 4472   5.810  13.467   0.021
18545SOL     OW 4473   6.637  15.875   7.677
18545SOL    HW1 4474   6.548  15.868   7.631
18545SOL    HW2 4475   6.632  15.829   7.765
18546SOL     OW 4476   9.801   8.266   0.374
18546SOL    HW1 4477   9.801   8.256   0.275
18546SOL    HW2 4478   9.847   8.352   0.399
18547SOL     OW 4479  16.551   0.446   0.540
18547SOL    HW1 4480  16.635   0.393   0.552
18547SOL    HW2 4481  16.473   0.384   0.536
18548SOL     OW 4482  13.542  15.480   0.168
18548SOL    HW1 4483  13.508  15.427   0.245
18548SOL    HW2 4484  13.635  15.449   0.144
18549SOL     OW 4485  12.131   1.857   0.560
18549SOL    HW1 4486  12.130   1.934   0.496
18549SOL    HW2 4487  12.225   1.832   0.581
18550SOL     OW 4488   2.821   7.886   7.314
18550SOL    HW1 4489   2.831   7.926   7.222
18550SOL    HW2 4490   2.831   7.958   7.382
18551SOL     OW 4491   8.819   8.545   0.486
18551SOL    HW1 4492   8.819   8.638   0.448
18551SOL    HW2 4493   8.740   8.495   0.450
18552SOL     OW 4494   5.557   3.265   0.606
18552SOL    HW1 4495   5.473   3.318   0.614
18552SOL    HW2 4496   5.558   3.193   0.676
18553SOL     OW 4497  15.080   3.865   7.580
18553SOL    HW1 4498  15.124   3.899   7.663
18553SOL    HW2 4499  15.143   3.872   7.503
18554SOL     OW 4500   2.766   5.168   7.322
18554SOL    HW1 4501   2.720   5.090   7.365
18554SOL    HW2 4502   2.732   5.178   7.228
18555SOL     OW 4503  15.869  13.478   0.125
18555SOL    HW1 4504  15.773  13.501   0.108
18555SOL    HW2 4505  15.928  13.542   0.075
18556SOL     OW 4506   6.603  12.598   1.223
18556SOL    HW1 4507   6.556  12.614   1.137
18556SOL    HW2 4508   6.557  12.648   1.296
18557SOL     OW 4509   3.754   1.150   0.890
18557SOL    HW1 4510   3.851   1.172   0.896
18557SOL    HW2 4511   3.730   1.083   0.960
18558SOL     OW 4512  12.047  12.778   8.067
18558SOL    HW1 4513  12.049  12.710   8.141
18558SOL    HW2 4514  12.097  12.860   8.096
18559SOL     OW 4515  16.684   3.703   0.164
18559SOL    HW1 4516  16.606   3.744   0.117
18559SOL    HW2 4517  16.685   3.733   0.259
18560SOL     OW 4518   0.026   1.203   7.742
18560SOL    HW1 4519   0.024   1.303   7.748
18560SOL    HW2 4520   0.121   1.173   7.727
18561SOL     OW 4521   5.538   8.410   7.342
18561SOL    HW1 4522   5.572   8.379   7.253
18561SOL    HW2 4523   5.468   8.480   7.328
18562SOL     OW 4524   8.015  12.562   0.458
18562SOL    HW1 4525   7.999  12.552   0.360
18562SOL    HW2 4526   7.969  12.488   0.507
18563SOL     OW 4527   2.579   8.076   7.131
18563SOL    HW1 4528   2.560   8.046   7.224
18563SOL    HW2 4529   2.509   8.041   7.068
18564SOL     OW 4530   0.307   6.957   7.145
18564SOL    HW1 4531   0.402   6.928   7.140
18564SOL    HW2 4532   0.250   6.881   7.178
18565SOL     OW 4533   8.116  11.273   2.741
18565SOL    HW1 4534   8.134  11.270   2.642
18565SOL    HW2 4535   8.090  11.366   2.767
18566SOL     OW 4536  15.344  13.416   0.382
18566SOL    HW1 4537  15.285  13.397   0.461
18566SOL    HW2 4538  15.301  13.381   0.299
18567SOL     OW 4539  10.617   6.680   2.152
18567SOL    HW1 4540  10.705   6.672   2.104
18567SOL    HW2 4541  10.548   6.715   2.090
18568SOL     OW 4542   6.441  11.969   8.423
18568SOL    HW1 4543   6.458  11.888   0.025
18568SOL    HW2 4544   6.365  11.951   8.361
18569SOL     OW 4545  10.879   8.504   0.590
18569SOL    HW1 4546  10.938   8.469   0.662
18569SOL    HW2 4547  10.832   8.586   0.622
18570SOL     OW 4548  10.487   2.830   8.071
18570SOL    HW1 4549  10.533   2.867   8.151
18570SOL    HW2 4550  10.482   2.901   8.000
18571SOL     OW 4551  13.448   8.142   1.947
18571SOL    HW1 4552  13.547   8.152   1.936
18571SOL    HW2 4553  13.409   8.230   1.975
18572SOL     OW 4554  13.893  13.176   7.235
18572SOL    HW1 4555  13.911  13.274   7.235
18572SOL    HW2 4556  13.979  13.126   7.221
18573SOL     OW 4557   0.661  12.507   1.477
18573SOL    HW1 4558   0.721  12.540   1.550
18573SOL    HW2 4559   0.712  12.507   1.390
18574SOL     OW 4560   2.529  13.806   7.430
18574SOL    HW1 4561   2.628  13.805   7.441
18574SOL    HW2 4562   2.494  13.712   7.429
18575SOL     OW 4563   5.720   3.588   7.522
18575SOL    HW1 4564   5.816   3.583   7.495
18575SOL    HW2 4565   5.662   3.583   7.440
18576SOL     OW 4566  12.694   5.221   1.034
18576SOL    HW1 4567  12.636   5.200   1.112
18576SOL    HW2 4568  12.647   5.196   0.949
18577SOL     OW 4569   2.401  12.900   8.414
18577SOL    HW1 4570   2.428  12.967   8.344
18577SOL    HW2 4571   2.370  12.948   0.042
18578SOL     OW 4572   1.407  10.851   7.716
18578SOL    HW1 4573   1.333  10.839   7.782
18578SOL    HW2 4574   1.436  10.947   7.716
18579SOL     OW 4575   1.631  11.522   0.128
18579SOL    HW1 4576   1.624  11.620   0.108
18579SOL    HW2 4577   1.708  11.483   0.077
18580SOL     OW 4578  16.102  10.622   6.999
18580SOL    HW1 4579  16.194  10.585   7.011
18580SOL    HW2 4580  16.066  10.593   6.911
18581SOL     OW 4581   0.202   2.679   6.546
18581SOL    HW1 4582   0.192   2.580   6.542
18581SOL    HW2 4583   0.135   2.717   6.609
18582SOL     OW 4584   2.262   6.163   6.233
18582SOL    HW1 4585   2.327   6.100   6.190
18582SOL    HW2 4586   2.293   6.257   6.220
18583SOL     OW 4587  14.182   6.634   6.550
18583SOL    HW1 4588  14.209   6.706   6.486
18583SOL    HW2 4589  14.103   6.586   6.513
18584SOL     OW 4590   3.495   8.409   0.470
18584SOL    HW1 4591   3.592   8.433   0.460
18584SOL    HW2 4592   3.438   8.486   0.444
18585SOL     OW 4593  10.404  11.230   0.715
18585SOL    HW1 4594  10.394  11.327   0.695
18585SOL    HW2 4595  10.328  11.180   0.673
18586SOL     OW 4596  12.268   0.828   7.328
18586SOL    HW1 4597  12.200   0.886   7.373
18586SOL    HW2 4598  12.226   0.741   7.302
18587SOL     OW 4599   6.829  12.309   7.335
18587SOL    HW1 4600   6.781  12.232   7.377
18587SOL    HW2 4601   6.924  12.285   7.319
18588SOL     OW 4602   6.532  11.952   7.005
18588SOL    HW1 4603   6.615  11.900   6.981
18588SOL    HW2 4604   6.498  11.920   7.094
18589SOL     OW 4605   3.752   7.651   8.164
18589SOL    HW1 4606   3.783   7.718   8.233
18589SOL    HW2 4607   3.806   7.568   8.172
18590SOL     OW 4608  11.539   8.729   7.681
18590SOL    HW1 4609  11.618   8.683   7.722
18590SOL    HW2 4610  11.546   8.723   7.581
18591SOL     OW 4611   1.228   6.566   6.840
18591SOL    HW1 4612   1.176   6.600   6.761
18591SOL    HW2 4613   1.262   6.643   6.893
18592SOL     OW 4614   4.488   7.275   0.967
18592SOL    HW1 4615   4.508   7.350   0.905
18592SOL    HW2 4616   4.426   7.307   1.039
18593SOL     OW 4617  11.946  11.123   0.214
18593SOL    HW1 4618  12.031  11.082   0.245
18593SOL    HW2 4619  11.901  11.062   0.149
18594SOL     OW 4620   9.227   0.081   7.666
18594SOL    HW1 4621   9.285   0.023   7.609
18594SOL    HW2 4622   9.250   0.177   7.651
18595SOL     OW 4623   6.968   6.575   6.152
18595SOL    HW1 4624   7.042   6.641   6.140
18595SOL    HW2 4625   6.975   6.503   6.083
18596SOL     OW 4626   3.352   9.598   0.826
18596SOL    HW1 4627   3.384   9.630   0.915
18596SOL    HW2 4628   3.261   9.557   0.836
18597SOL     OW 4629  13.054   2.099   1.386
18597SOL    HW1 4630  13.093   2.160   1.455
18597SOL    HW2 4631  12.955   2.110   1.385
18598SOL     OW 4632   8.804   8.244   0.260
18598SOL    HW1 4633   8.747   8.293   0.326
18598SOL    HW2 4634   8.753   8.226   0.177
18599SOL     OW 4635   6.337  12.185   7.248
18599SOL    HW1 4636   6.372  12.241   7.323
18599SOL    HW2 4637   6.386  12.207   7.164
18600SOL     OW 4638   5.047  11.473   8.334
18600SOL    HW1 4639   4.985  11.427   8.397
18600SOL    HW2 4640   4.996  11.509   8.256
18601SOL     OW 4641  10.941   1.736   7.753
18601SOL    HW1 4642  10.859   1.781   7.718
18601SOL    HW2 4643  10.996   1.802   7.804
18602SOL     OW 4644  11.736  11.281   7.921
18602SOL    HW1 4645  11.829  11.248   7.903
18602SOL    HW2 4646  11.670  11.212   7.891
18603SOL     OW 4647   5.170   7.981   1.387
18603SOL    HW1 4648   5.244   8.020   1.333
18603SOL    HW2 4649   5.101   8.050   1.405
18604SOL     OW 4650  11.712   2.488   1.652
18604SOL    HW1 4651  11.613   2.500   1.657
18604SOL    HW2 4652  11.757   2.574   1.678
18605SOL     OW 4653   3.015   5.243   1.409
18605SOL    HW1 4654   3.112   5.259   1.390
18605SOL    HW2 4655   3.005   5.217   1.505
18606SOL     OW 4656   4.091   1.778   1.272
18606SOL    HW1 4657   4.048   1.778   1.182
18606SOL    HW2 4658   4.163   1.708   1.275
18607SOL     OW 4659   8.962  14.958   7.572
18607SOL    HW1 4660   8.921  15.002   7.652
18607SOL    HW2 4661   8.964  15.023   7.496
18608SOL     OW 4662   7.793   3.572   0.749
18608SOL    HW1 4663   7.748   3.591   0.836
18608SOL    HW2 4664   7.777   3.477   0.723
18609SOL     OW 4665  16.756   8.740   0.822
18609SOL    HW1 4666  16.755   8.659   0.880
18609SOL    HW2 4667  16.662   8.763   0.796
18610SOL     OW 4668   6.827   2.143   0.760
18610SOL    HW1 4669   6.774   2.086   0.697
18610SOL    HW2 4670   6.765   2.196   0.817
18611SOL     OW 4671  13.035   9.192   7.454
18611SOL    HW1 4672  12.978   9.111   7.444
18611SOL    HW2 4673  13.114   9.171   7.511
18612SOL     OW 4674  14.581  14.859   0.215
18612SOL    HW1 4675  14.505  14.796   0.233
18612SOL    HW2 4676  14.546  14.945   0.180
18613SOL     OW 4677  11.585  14.419   0.429
18613SOL    HW1 4678  11.593  14.479   0.509
18613SOL    HW2 4679  11.489  14.402   0.410
18614SOL     OW 4680   4.097   0.996   0.030
18614SOL    HW1 4681   4.078   0.976   0.126
18614SOL    HW2 4682   4.036   1.068   8.451
18615SOL     OW 4683   6.198   9.499   6.314
18615SOL    HW1 4684   6.194   9.573   6.247
18615SOL    HW2 4685   6.241   9.419   6.273
18616SOL     OW 4686  14.240   6.333   0.167
18616SOL    HW1 4687  14.339   6.340   0.179
18616SOL    HW2 4688  14.211   6.238   0.178
18617SOL     OW 4689   9.794   9.495   1.099
18617SOL    HW1 4690   9.785   9.590   1.127
18617SOL    HW2 4691   9.704   9.450   1.102
18618SOL     OW 4692  14.828   3.698   8.224
18618SOL    HW1 4693  14.728   3.689   8.215
18618SOL    HW2 4694  14.853   3.794   8.215
18619SOL     OW 4695  15.270  11.168   1.295
18619SOL    HW1 4696  15.359  11.123   1.285
18619SOL    HW2 4697  15.227  11.177   1.206
18620SOL     OW 4698   7.801  16.111   1.585
18620SOL    HW1 4699   7.878  16.146   1.530
18620SOL    HW2 4700   7.726  16.177   1.582
18621SOL     OW 4701  14.430   8.588   1.696
18621SOL    HW1 4702  14.435   8.657   1.768
18621SOL    HW2 4703  14.505   8.603   1.631
18622SOL     OW 4704   8.723  10.900   0.595
18622SOL    HW1 4705   8.626  10.924   0.584
18622SOL    HW2 4706   8.779  10.980   0.576
18623SOL     OW 4707  14.838   6.998   7.879
18623SOL    HW1 4708  14.741   6.980   7.893
18623SOL    HW2 4709  14.890   6.961   7.956
18624SOL     OW 4710   8.925   8.593   0.991
18624SOL    HW1 4711   8.838   8.581   0.943
18624SOL    HW2 4712   8.999   8.594   0.924
18625SOL     OW 4713  16.096  15.762   1.239
18625SOL    HW1 4714  16.166  15.827   1.209
18625SOL    HW2 4715  16.106  15.746   1.338
18626SOL     OW 4716   7.303   1.603   6.381
18626SOL    HW1 4717   7.295   1.605   6.281
18626SOL    HW2 4718   7.393   1.569   6.406
18627SOL     OW 4719   7.044   6.624   7.755
18627SOL    HW1 4720   7.136   6.594   7.777
18627SOL    HW2 4721   6.978   6.577   7.813
18628SOL     OW 4722  12.418   6.847   0.852
18628SOL    HW1 4723  12.399   6.765   0.906
18628SOL    HW2 4724  12.470   6.823   0.771
18629SOL     OW 4725   9.964   6.849   0.941
18629SOL    HW1 4726   9.940   6.777   1.007
18629SOL    HW2 4727  10.023   6.811   0.870
18630SOL     OW 4728   8.944  10.081   1.325
18630SOL    HW1 4729   8.928  10.167   1.277
18630SOL    HW2 4730   8.865  10.059   1.382
18631SOL     OW 4731   9.274  10.562   8.373
18631SOL    HW1 4732   9.248  10.657   8.357
18631SOL    HW2 4733   9.197  10.502   8.353
18632SOL     OW 4734  15.473   4.830   1.405
18632SOL    HW1 4735  15.547   4.873   1.458
18632SOL    HW2 4736  15.385   4.854   1.445
18633SOL     OW 4737   8.987   8.625   7.437
18633SOL    HW1 4738   8.902   8.673   7.461
18633SOL    HW2 4739   8.984   8.531   7.471
18634SOL     OW 4740  10.619   6.992   7.190
18634SOL    HW1 4741  10.702   7.041   7.163
18634SOL    HW2 4742  10.552   7.057   7.226
18635SOL     OW 4743   0.076  16.236   1.511
18635SOL    HW1 4744   0.006  16.307   1.515
18635SOL    HW2 4745   0.112  16.229   1.418
18636SOL     OW 4746   3.232  16.761   8.449
18636SOL    HW1 4747   3.211  16.849   0.038
18636SOL    HW2 4748   3.298  16.712   0.052
18637SOL     OW 4749  15.058   9.719   0.380
18637SOL    HW1 4750  15.074   9.786   0.307
18637SOL    HW2 4751  14.997   9.758   0.449
18638SOL     OW 4752  11.244   4.182   7.203
18638SOL    HW1 4753  11.221   4.277   7.224
18638SOL    HW2 4754  11.246   4.168   7.104
18639SOL     OW 4755   9.257  10.455   6.814
18639SOL    HW1 4756   9.159  10.468   6.828
18639SOL    HW2 4757   9.278  10.357   6.819
18640SOL     OW 4758   0.126   9.846   7.304
18640SOL    HW1 4759   0.202   9.848   7.369
18640SOL    HW2 4760   0.148   9.904   7.226
18641SOL     OW 4761   2.161   7.843   1.863
18641SOL    HW1 4762   2.189   7.880   1.774
18641SOL    HW2 4763   2.235   7.857   1.928
18642SOL     OW 4764   1.382  11.871   1.627
18642SOL    HW1 4765   1.400  11.840   1.721
18642SOL    HW2 4766   1.330  11.956   1.629
18643SOL     OW 4767  13.730   7.528   1.399
18643SOL    HW1 4768  13.771   7.463   1.336
18643SOL    HW2 4769  13.691   7.479   1.477
18644SOL     OW 4770  14.460   4.001   6.620
18644SOL    HW1 4771  14.367   3.967   6.635
18644SOL    HW2 4772  14.459   4.075   6.552
18645SOL     OW 4773   0.762   7.594   7.272
18645SOL    HW1 4774   0.716   7.599   7.361
18645SOL    HW2 4775   0.743   7.677   7.220
18646SOL     OW 4776  12.707   2.727   1.461
18646SOL    HW1 4777  12.658   2.792   1.519
18646SOL    HW2 4778  12.781   2.774   1.414
18647SOL     OW 4779   6.471   3.813   0.910
18647SOL    HW1 4780   6.429   3.866   0.836
18647SOL    HW2 4781   6.567   3.794   0.887
18648SOL     OW 4782   3.815   9.540   8.343
18648SOL    HW1 4783   3.816   9.443   8.365
18648SOL    HW2 4784   3.791   9.593   8.426
18649SOL     OW 4785   5.511  13.263   6.938
18649SOL    HW1 4786   5.532  13.359   6.923
18649SOL    HW2 4787   5.444  13.232   6.870
18650SOL     OW 4788  14.906   5.897   6.391
18650SOL    HW1 4789  14.909   5.847   6.305
18650SOL    HW2 4790  14.840   5.972   6.384
18651SOL     OW 4791   2.674   8.135   0.090
18651SOL    HW1 4792   2.644   8.229   0.078
18651SOL    HW2 4793   2.757   8.133   0.146
18652SOL     OW 4794  12.715   3.883   8.047
18652SOL    HW1 4795  12.781   3.847   8.113
18652SOL    HW2 4796  12.733   3.844   7.957
18653SOL     OW 4797   9.287   4.235   6.303
18653SOL    HW1 4798   9.223   4.312   6.309
18653SOL    HW2 4799   9.328   4.220   6.393
18654SOL     OW 4800   4.570   8.440   7.163
18654SOL    HW1 4801   4.472   8.457   7.176
18654SOL    HW2 4802   4.622   8.521   7.191
18655SOL     OW 4803  12.832   0.873   1.131
18655SOL    HW1 4804  12.767   0.944   1.102
18655SOL    HW2 4805  12.813   0.788   1.082
18656SOL     OW 4806  14.107   1.999   1.597
18656SOL    HW1 4807  14.162   1.957   1.669
18656SOL    HW2 4808  14.098   2.097   1.615
18657SOL     OW 4809  14.359  10.042   2.004
18657SOL    HW1 4810  14.342  10.037   1.906
18657SOL    HW2 4811  14.319  10.125   2.042
18658SOL     OW 4812  10.844   2.537   8.320
18658SOL    HW1 4813  10.847   2.553   8.419
18658SOL    HW2 4814  10.752   2.558   8.286
18659SOL     OW 4815   7.613  15.266   1.381
18659SOL    HW1 4816   7.537  15.278   1.317
18659SOL    HW2 4817   7.679  15.339   1.367
18660SOL     OW 4818  16.143  10.440   0.417
18660SOL    HW1 4819  16.101  10.358   0.457
18660SOL    HW2 4820  16.241  10.424   0.407
18661SOL     OW 4821   0.964   7.291   7.318
18661SOL    HW1 4822   1.031   7.338   7.261
18661SOL    HW2 4823   0.874   7.292   7.273
18662SOL     OW 4824  14.067  15.907   6.363
18662SOL    HW1 4825  14.140  15.974   6.353
18662SOL    HW2 4826  13.983  15.942   6.321
18663SOL     OW 4827  11.566   1.137   7.924
18663SOL    HW1 4828  11.552   1.174   7.832
18663SOL    HW2 4829  11.506   1.058   7.938
18664SOL     OW 4830   5.588  12.655   6.646
18664SOL    HW1 4831   5.528  12.575   6.649
18664SOL    HW2 4832   5.683  12.625   6.635
18665SOL     OW 4833   5.712   1.946   1.949
18665SOL    HW1 4834   5.756   1.864   1.985
18665SOL    HW2 4835   5.677   2.002   2.024
18666SOL     OW 4836  10.766   9.058   8.185
18666SOL    HW1 4837  10.862   9.053   8.157
18666SOL    HW2 4838  10.713   9.103   8.114
18667SOL     OW 4839  15.524   9.714   7.201
18667SOL    HW1 4840  15.593   9.673   7.261
18667SOL    HW2 4841  15.467   9.643   7.162
18668SOL     OW 4842   4.629   5.098   0.986
18668SOL    HW1 4843   4.707   5.100   0.924
18668SOL    HW2 4844   4.596   5.191   1.001
18669SOL     OW 4845  13.545   9.975   6.497
18669SOL    HW1 4846  13.633   9.964   6.543
18669SOL    HW2 4847  13.524   9.892   6.445
18670SOL     OW 4848   7.233   4.642   1.707
18670SOL    HW1 4849   7.165   4.634   1.781
18670SOL    HW2 4850   7.314   4.689   1.741
18671SOL     OW 4851  14.459  12.788   1.168
18671SOL    HW1 4852  14.491  12.880   1.189
18671SOL    HW2 4853  14.373  12.793   1.117
18672SOL     OW 4854   9.993   5.369   1.163
18672SOL    HW1 4855   9.898   5.367   1.132
18672SOL    HW2 4856   9.998   5.335   1.257
18673SOL     OW 4857  10.918   0.695   7.977
18673SOL    HW1 4858  10.831   0.743   7.971
18673SOL    HW2 4859  10.961   0.693   7.886
18674SOL     OW 4860  11.212   1.208   2.100
18674SOL    HW1 4861  11.186   1.295   2.142
18674SOL    HW2 4862  11.301   1.180   2.134
18675SOL     OW 4863  11.683   6.716   6.463
18675SOL    HW1 4864  11.671   6.667   6.377
18675SOL    HW2 4865  11.642   6.807   6.456
18676SOL     OW 4866  12.518   6.001   1.877
18676SOL    HW1 4867  12.601   6.026   1.927
18676SOL    HW2 4868  12.514   5.901   1.868
18677SOL     OW 4869  14.798  11.694   0.295
18677SOL    HW1 4870  14.853  11.692   0.211
18677SOL    HW2 4871  14.702  11.708   0.272
18678SOL     OW 4872  12.308   1.539   0.616
18678SOL    HW1 4873  12.341   1.633   0.610
18678SOL    HW2 4874  12.255   1.528   0.701
18679SOL     OW 4875   3.076  12.103   0.279
18679SOL    HW1 4876   3.106  12.189   0.321
18679SOL    HW2 4877   2.999  12.122   0.217
18680SOL     OW 4878  15.388   1.579   6.663
18680SOL    HW1 4879  15.488   1.581   6.654
18680SOL    HW2 4880  15.357   1.669   6.695
18681SOL     OW 4881   5.333  12.799   1.754
18681SOL    HW1 4882   5.432  12.798   1.768
18681SOL    HW2 4883   5.312  12.826   1.660
18682SOL     OW 4884  11.020  11.491   7.673
18682SOL    HW1 4885  11.074  11.504   7.756
18682SOL    HW2 4886  10.951  11.420   7.688
18683SOL     OW 4887   2.114  16.592   8.179
18683SOL    HW1 4888   2.200  16.544   8.195
18683SOL    HW2 4889   2.116  16.681   8.224
18684SOL     OW 4890   4.760  10.119   7.704
18684SOL    HW1 4891   4.850  10.074   7.697
18684SOL    HW2 4892   4.721  10.129   7.612
18685SOL     OW 4893   2.335   6.670   7.581
18685SOL    HW1 4894   2.427   6.656   7.543
18685SOL    HW2 4895   2.311   6.767   7.574
18686SOL     OW 4896  16.856  11.755   8.056
18686SOL    HW1 4897  16.870  11.756   8.155
18686SOL    HW2 4898  16.918  11.822   8.014
18687SOL     OW 4899  15.334   5.110   0.650
18687SOL    HW1 4900  15.260   5.091   0.715
18687SOL    HW2 4901  15.396   5.032   0.647
18688SOL     OW 4902   8.389   1.183   7.832
18688SOL    HW1 4903   8.354   1.150   7.745
18688SOL    HW2 4904   8.478   1.140   7.850
18689SOL     OW 4905   1.577   3.032   6.964
18689SOL    HW1 4906   1.663   3.011   6.916
18689SOL    HW2 4907   1.572   2.979   7.048
18690SOL     OW 4908   1.085   5.156   0.724
18690SOL    HW1 4909   1.172   5.132   0.769
18690SOL    HW2 4910   1.080   5.112   0.635
18691SOL     OW 4911  16.192  15.164   1.617
18691SOL    HW1 4912  16.104  15.200   1.587
18691SOL    HW2 4913  16.265  15.207   1.563
18692SOL     OW 4914   2.049  10.937   2.109
18692SOL    HW1 4915   2.069  11.032   2.133
18692SOL    HW2 4916   2.054  10.879   2.190
18693SOL     OW 4917   0.984  14.916   0.787
18693SOL    HW1 4918   0.945  14.884   0.701
18693SOL    HW2 4919   1.037  15.000   0.771
18694SOL     OW 4920   2.619  12.765   2.346
18694SOL    HW1 4921   2.677  12.737   2.270
18694SOL    HW2 4922   2.675  12.812   2.415
18695SOL     OW 4923  15.548   5.455   0.309
18695SOL    HW1 4924  15.627   5.462   0.249
18695SOL    HW2 4925  15.468   5.428   0.255
18696SOL     OW 4926   3.189   3.773   8.406
18696SOL    HW1 4927   3.172   3.867   8.435
18696SOL    HW2 4928   3.143   3.756   8.319
18697SOL     OW 4929  15.455   2.311   0.593
18697SOL    HW1 4930  15.516   2.390   0.581
18697SOL    HW2 4931  15.468   2.248   0.517
18698SOL     OW 4932  10.229  12.324   1.684
18698SOL    HW1 4933  10.135  12.315   1.654
18698SOL    HW2 4934  10.234  12.394   1.756
18699SOL     OW 4935  10.598   5.440   1.022
18699SOL    HW1 4936  10.536   5.418   1.098
18699SOL    HW2 4937  10.545   5.463   0.941
18700SOL     OW 4938   0.415   0.268   6.403
18700SOL    HW1 4939   0.494   0.218   6.368
18700SOL    HW2 4940   0.371   0.318   6.329
18701SOL     OW 4941   9.840   4.754   7.670
18701SOL    HW1 4942   9.744   4.755   7.698
18701SOL    HW2 4943   9.867   4.844   7.638
18702SOL     OW 4944  14.645   4.639   1.143
18702SOL    HW1 4945  14.614   4.662   1.051
18702SOL    HW2 4946  14.743   4.620   1.142
18703SOL     OW 4947  13.909   3.793   5.730
18703SOL    HW1 4948  13.894   3.892   5.729
18703SOL    HW2 4949  13.927   3.761   5.637
18704SOL     OW 4950   2.848  10.470   2.147
18704SOL    HW1 4951   2.808  10.541   2.205
18704SOL    HW2 4952   2.947  10.465   2.164
18705SOL     OW 4953   2.743  11.108   0.707
18705SOL    HW1 4954   2.742  11.009   0.695
18705SOL    HW2 4955   2.681  11.134   0.781
18706SOL     OW 4956   4.951  14.788   0.513
18706SOL    HW1 4957   4.868  14.746   0.477
18706SOL    HW2 4958   4.949  14.887   0.497
18707SOL     OW 4959  15.735   5.138   7.258
18707SOL    HW1 4960  15.649   5.088   7.271
18707SOL    HW2 4961  15.716   5.223   7.209
18708SOL     OW 4962  14.142  13.424   1.249
18708SOL    HW1 4963  14.154  13.414   1.348
18708SOL    HW2 4964  14.189  13.350   1.201
18709SOL     OW 4965   5.494  11.496   6.814
18709SOL    HW1 4966   5.553  11.468   6.739
18709SOL    HW2 4967   5.500  11.595   6.827
18710SOL     OW 4968   0.196   9.259   0.531
18710SOL    HW1 4969   0.185   9.353   0.499
18710SOL    HW2 4970   0.115   9.232   0.583
18711SOL     OW 4971   0.281  16.776   6.638
18711SOL    HW1 4972   0.373  16.799   6.670
18711SOL    HW2 4973   0.241  16.856   6.595
18712SOL     OW 4974  12.888   6.198   2.506
18712SOL    HW1 4975  12.819   6.239   2.446
18712SOL    HW2 4976  12.872   6.099   2.513
18713SOL     OW 4977  12.398   2.828   0.074
18713SOL    HW1 4978  12.319   2.877   0.037
18713SOL    HW2 4979  12.481   2.880   0.055
18714SOL     OW 4980  13.064  11.783   8.331
18714SOL    HW1 4981  13.141  11.815   8.387
18714SOL    HW2 4982  12.985  11.843   8.346
18715SOL     OW 4983   0.386   5.994   6.847
18715SOL    HW1 4984   0.367   5.940   6.929
18715SOL    HW2 4985   0.301   6.034   6.812
18716SOL     OW 4986   8.809  10.749   0.315
18716SOL    HW1 4987   8.803  10.827   0.254
18716SOL    HW2 4988   8.724  10.740   0.368
18717SOL     OW 4989   8.372  14.583   8.364
18717SOL    HW1 4990   8.279  14.547   8.355
18717SOL    HW2 4991   8.405  14.566   0.003
18718SOL     OW 4992   1.825  10.367   7.944
18718SOL    HW1 4993   1.873  10.299   7.888
18718SOL    HW2 4994   1.892  10.425   7.989
18719SOL     OW 4995   0.031   5.105   8.387
18719SOL    HW1 4996  16.922   5.067   8.375
18719SOL    HW2 4997   0.027   5.185   8.446
18720SOL     OW 4998   5.142  12.852   8.251
18720SOL    HW1 4999   5.069  12.789   8.225
18720SOL    HW2 5000   5.111  12.909   8.327
18721SOL     OW 5001  13.564  11.513   1.714
18721SOL    HW1 5002  13.660  11.516   1.687
18721SOL    HW2 5003  13.535  11.418   1.725
18722SOL     OW 5004   8.040  11.003   7.296
18722SOL    HW1 5005   7.941  10.988   7.298
18722SOL    HW2 5006   8.062  11.066   7.222
18723SOL     OW 5007   6.084   1.017   1.689
18723SOL    HW1 5008   6.040   1.078   1.756
18723SOL    HW2 5009   6.017   0.993   1.618
18724SOL     OW 5010   9.064  12.007   6.781
18724SOL    HW1 5011   9.105  11.916   6.791
18724SOL    HW2 5012   9.134  12.072   6.751
18725SOL     OW 5013   6.531   9.808   7.133
18725SOL    HW1 5014   6.463   9.865   7.179
18725SOL    HW2 5015   6.591   9.766   7.201
18726SOL     OW 5016   0.451   7.142   0.905
18726SOL    HW1 5017   0.450   7.076   0.830
18726SOL    HW2 5018   0.381   7.212   0.889
18727SOL     OW 5019   3.336  10.057   0.037
18727SOL    HW1 5020   3.385  10.065   0.123
18727SOL    HW2 5021   3.288   9.969   0.033
18728SOL     OW 5022  15.124   5.935   7.511
18728SOL    HW1 5023  15.103   5.895   7.422
18728SOL    HW2 5024  15.221   5.957   7.515
18729SOL     OW 5025  11.582  11.113   0.535
18729SOL    HW1 5026  11.657  11.117   0.601
18729SOL    HW2 5027  11.611  11.155   0.449
18730SOL     OW 5028  15.498   0.701   0.842
18730SOL    HW1 5029  15.534   0.616   0.879
18730SOL    HW2 5030  15.537   0.718   0.751
18731SOL     OW 5031  14.603  11.518   7.699
18731SOL    HW1 5032  14.609  11.578   7.619
18731SOL    HW2 5033  14.634  11.568   7.780
18732SOL     OW 5034  14.428  11.356   1.567
18732SOL    HW1 5035  14.342  11.405   1.559
18732SOL    HW2 5036  14.446  11.334   1.663
18733SOL     OW 5037   3.874   9.183   8.158
18733SOL    HW1 5038   3.891   9.102   8.101
18733SOL    HW2 5039   3.959   9.235   8.168
18734SOL     OW 5040   6.724   6.415   0.361
18734SOL    HW1 5041   6.724   6.370   0.450
18734SOL    HW2 5042   6.752   6.350   0.291
18735SOL     OW 5043   8.508   7.051   7.504
18735SOL    HW1 5044   8.453   7.067   7.422
18735SOL    HW2 5045   8.559   7.134   7.526
18736SOL     OW 5046  11.742   5.325   7.329
18736SOL    HW1 5047  11.654   5.301   7.288
18736SOL    HW2 5048  11.763   5.260   7.402
18737SOL     OW 5049   5.403  16.005   7.785
18737SOL    HW1 5050   5.394  16.022   7.883
18737SOL    HW2 5051   5.313  16.013   7.742
18738SOL     OW 5052  14.666  16.654   0.877
18738SOL    HW1 5053  14.614  16.613   0.952
18738SOL    HW2 5054  14.653  16.753   0.878
18739SOL     OW 5055   8.737   7.999   8.206
18739SOL    HW1 5056   8.773   7.956   8.289
18739SOL    HW2 5057   8.793   7.974   8.128
18740SOL     OW 5058  13.821   6.212   1.386
18740SOL    HW1 5059  13.802   6.310   1.390
18740SOL    HW2 5060  13.776   6.166   1.462
18741SOL     OW 5061  13.135  15.503   1.110
18741SOL    HW1 5062  13.200  15.577   1.089
18741SOL    HW2 5063  13.180  15.415   1.098
18742SOL     OW 5064  13.433  12.838   7.885
18742SOL    HW1 5065  13.472  12.756   7.844
18742SOL    HW2 5066  13.490  12.917   7.862
18743SOL     OW 5067  11.426  11.423   7.752
18743SOL    HW1 5068  11.433  11.437   7.654
18743SOL    HW2 5069  11.512  11.449   7.796
18744SOL     OW 5070  12.850   7.186   5.703
18744SOL    HW1 5071  12.912   7.265   5.706
18744SOL    HW2 5072  12.879   7.123   5.631
18745SOL     OW 5073   3.417   0.019   7.124
18745SOL    HW1 5074   3.452   0.035   7.031
18745SOL    HW2 5075   3.342  16.937   7.120
18746SOL     OW 5076   1.634   7.119   8.380
18746SOL    HW1 5077   1.608   7.098   0.021
18746SOL    HW2 5078   1.692   7.201   8.379
18747SOL     OW 5079   4.155  13.143   1.120
18747SOL    HW1 5080   4.222  13.089   1.171
18747SOL    HW2 5081   4.063  13.108   1.137
18748SOL     OW 5082  12.892  13.603   1.359
18748SOL    HW1 5083  12.984  13.599   1.320
18748SOL    HW2 5084  12.828  13.634   1.288
18749SOL     OW 5085  10.738   7.710   6.396
18749SOL    HW1 5086  10.746   7.669   6.305
18749SOL    HW2 5087  10.829   7.725   6.434
18750SOL     OW 5088  12.423  13.180   7.229
18750SOL    HW1 5089  12.391  13.193   7.135
18750SOL    HW2 5090  12.469  13.263   7.260
18751SOL     OW 5091   4.282   0.464   0.593
18751SOL    HW1 5092   4.356   0.531   0.585
18751SOL    HW2 5093   4.319   0.372   0.582
18752SOL     OW 5094   1.893  14.832   2.871
18752SOL    HW1 5095   1.822  14.820   2.940
18752SOL    HW2 5096   1.972  14.877   2.912
18753SOL     OW 5097   5.759   9.484   0.458
18753SOL    HW1 5098   5.721   9.547   0.391
18753SOL    HW2 5099   5.841   9.441   0.421
18754SOL     OW 5100   8.442  15.223   8.124
18754SOL    HW1 5101   8.364  15.267   8.079
18754SOL    HW2 5102   8.456  15.264   8.214
18755SOL     OW 5103   5.585   8.272   0.288
18755SOL    HW1 5104   5.595   8.238   0.382
18755SOL    HW2 5105   5.489   8.294   0.271
18756SOL     OW 5106   5.020   8.772   1.727
18756SOL    HW1 5107   4.999   8.723   1.812
18756SOL    HW2 5108   5.066   8.710   1.664
18757SOL     OW 5109  12.250   5.836   8.309
18757SOL    HW1 5110  12.216   5.847   8.403
18757SOL    HW2 5111  12.326   5.899   8.293
18758SOL     OW 5112   0.386   3.839   6.173
18758SOL    HW1 5113   0.445   3.785   6.113
18758SOL    HW2 5114   0.432   3.854   6.261
18759SOL     OW 5115   7.349   5.873   6.551
18759SOL    HW1 5116   7.298   5.953   6.583
18759SOL    HW2 5117   7.412   5.900   6.478
18760SOL     OW 5118   8.746  14.217   1.853
18760SOL    HW1 5119   8.807  14.153   1.806
18760SOL    HW2 5120   8.759  14.208   1.952
18761SOL     OW 5121   8.147   2.723   7.668
18761SOL    HW1 5122   8.057   2.688   7.695
18761SOL    HW2 5123   8.202   2.647   7.633
18762SOL     OW 5124   2.711   7.650   1.697
18762SOL    HW1 5125   2.801   7.663   1.737
18762SOL    HW2 5126   2.641   7.680   1.762
18763SOL     OW 5127   5.710  10.806   6.889
18763SOL    HW1 5128   5.720  10.743   6.811
18763SOL    HW2 5129   5.797  10.811   6.939
18764SOL     OW 5130   8.270   6.877   6.118
18764SOL    HW1 5131   8.275   6.917   6.027
18764SOL    HW2 5132   8.360   6.883   6.162
18765SOL     OW 5133  10.000   4.280   0.815
18765SOL    HW1 5134  10.033   4.263   0.722
18765SOL    HW2 5135   9.919   4.339   0.813
18766SOL     OW 5136  15.433   2.568   6.398
18766SOL    HW1 5137  15.477   2.505   6.333
18766SOL    HW2 5138  15.351   2.526   6.435
18767SOL     OW 5139   0.831   0.101   7.990
18767SOL    HW1 5140   0.735   0.111   7.965
18767SOL    HW2 5141   0.858   0.005   7.982
18768SOL     OW 5142  12.880  14.621   8.176
18768SOL    HW1 5143  12.893  14.598   8.079
18768SOL    HW2 5144  12.897  14.719   8.189
18769SOL     OW 5145   5.554   8.831   0.308
18769SOL    HW1 5146   5.587   8.827   0.214
18769SOL    HW2 5147   5.462   8.870   0.310
18770SOL     OW 5148  12.868  10.503   0.320
18770SOL    HW1 5149  12.808  10.552   0.257
18770SOL    HW2 5150  12.829  10.506   0.412
18771SOL     OW 5151  11.514  12.449   6.640
18771SOL    HW1 5152  11.595  12.396   6.615
18771SOL    HW2 5153  11.438  12.424   6.580
18772SOL     OW 5154   9.391   9.917   0.599
18772SOL    HW1 5155   9.344   9.867   0.672
18772SOL    HW2 5156   9.483   9.880   0.588
18773SOL     OW 5157  11.287  12.656   7.052
18773SOL    HW1 5158  11.327  12.590   7.115
18773SOL    HW2 5159  11.301  12.625   6.958
18774SOL     OW 5160   5.957   3.389   7.044
18774SOL    HW1 5161   6.011   3.465   7.008
18774SOL    HW2 5162   6.015   3.333   7.103
18775SOL     OW 5163  10.197   3.080   7.646
18775SOL    HW1 5164  10.184   3.108   7.741
18775SOL    HW2 5165  10.157   2.990   7.632
18776SOL     OW 5166   2.178  10.599   1.575
18776SOL    HW1 5167   2.117  10.612   1.496
18776SOL    HW2 5168   2.134  10.537   1.640
18777SOL     OW 5169   4.766  12.887   8.031
18777SOL    HW1 5170   4.748  12.886   7.933
18777SOL    HW2 5171   4.697  12.833   8.079
18778SOL     OW 5172   3.649   1.320   0.175
18778SOL    HW1 5173   3.729   1.261   0.179
18778SOL    HW2 5174   3.579   1.278   0.116
18779SOL     OW 5175  15.653   9.127   1.593
18779SOL    HW1 5176  15.655   9.209   1.650
18779SOL    HW2 5177  15.641   9.047   1.652
18780SOL     OW 5178  15.569  16.445   1.405
18780SOL    HW1 5179  15.536  16.526   1.357
18780SOL    HW2 5180  15.498  16.413   1.469
18781SOL     OW 5181   9.765  12.059   7.715
18781SOL    HW1 5182   9.704  11.981   7.713
18781SOL    HW2 5183   9.853  12.032   7.755
18782SOL     OW 5184   2.218   6.467   8.221
18782SOL    HW1 5185   2.129   6.476   8.177
18782SOL    HW2 5186   2.207   6.417   8.308
18783SOL     OW 5187  12.162  13.291   1.964
18783SOL    HW1 5188  12.248  13.262   2.006
18783SOL    HW2 5189  12.090  13.226   1.988
18784SOL     OW 5190  11.173   1.515   1.792
18784SOL    HW1 5191  11.143   1.422   1.814
18784SOL    HW2 5192  11.158   1.574   1.872
18785SOL     OW 5193  16.598   2.825   7.216
18785SOL    HW1 5194  16.540   2.895   7.173
18785SOL    HW2 5195  16.546   2.739   7.224
18786SOL     OW 5196   1.564  10.544   0.880
18786SOL    HW1 5197   1.558  10.447   0.905
18786SOL    HW2 5198   1.494  10.565   0.812
18787SOL     OW 5199  13.422   1.210   0.378
18787SOL    HW1 5200  13.453   1.275   0.308
18787SOL    HW2 5201  13.501   1.171   0.425
18788SOL     OW 5202  13.149   4.642   6.229
18788SOL    HW1 5203  13.084   4.573   6.197
18788SOL    HW2 5204  13.234   4.635   6.176
18789SOL     OW 5205  13.799  14.701   2.236
18789SOL    HW1 5206  13.727  14.757   2.276
18789SOL    HW2 5207  13.850  14.656   2.310
18790SOL     OW 5208   4.789  11.012   1.186
18790SOL    HW1 5209   4.754  10.920   1.166
18790SOL    HW2 5210   4.728  11.057   1.251
18791SOL     OW 5211  13.767  13.968   1.065
18791SOL    HW1 5212  13.830  14.043   1.083
18791SOL    HW2 5213  13.689  14.002   1.013
18792SOL     OW 5214  14.641   6.186   7.173
18792SOL    HW1 5215  14.619   6.161   7.078
18792SOL    HW2 5216  14.562   6.167   7.231
18793SOL     OW 5217   1.846  10.096   1.677
18793SOL    HW1 5218   1.890  10.070   1.763
18793SOL    HW2 5219   1.786  10.174   1.693
18794SOL     OW 5220  14.188  10.544   2.052
18794SOL    HW1 5221  14.143  10.617   2.001
18794SOL    HW2 5222  14.287  10.554   2.045
18795SOL     OW 5223   5.696   5.305   0.160
18795SOL    HW1 5224   5.796   5.303   0.157
18795SOL    HW2 5225   5.664   5.400   0.160
18796SOL     OW 5226   0.503  14.358   7.122
18796SOL    HW1 5227   0.498  14.287   7.191
18796SOL    HW2 5228   0.425  14.351   7.060
18797SOL     OW 5229   2.033  13.124   1.291
18797SOL    HW1 5230   2.039  13.139   1.193
18797SOL    HW2 5231   1.977  13.044   1.309
18798SOL     OW 5232   1.428   8.661   8.287
18798SOL    HW1 5233   1.411   8.610   8.203
18798SOL    HW2 5234   1.502   8.726   8.273
18799SOL     OW 5235  13.342   7.469   7.622
18799SOL    HW1 5236  13.272   7.490   7.553
18799SOL    HW2 5237  13.433   7.481   7.582
18800SOL     OW 5238  13.295  15.231   0.155
18800SOL    HW1 5239  13.354  15.254   0.231
18800SOL    HW2 5240  13.278  15.312   0.099
18801SOL     OW 5241   8.269   5.136   6.914
18801SOL    HW1 5242   8.237   5.229   6.895
18801SOL    HW2 5243   8.206   5.070   6.872
18802SOL     OW 5244  12.909   0.364   6.423
18802SOL    HW1 5245  12.836   0.431   6.408
18802SOL    HW2 5246  12.998   0.409   6.409
18803SOL     OW 5247   2.298   3.230   1.310
18803SOL    HW1 5248   2.349   3.232   1.224
18803SOL    HW2 5249   2.215   3.285   1.301
18804SOL     OW 5250   3.342   0.837   2.581
18804SOL    HW1 5251   3.272   0.815   2.649
18804SOL    HW2 5252   3.397   0.914   2.613
18805SOL     OW 5253   3.117   8.786   1.759
18805SOL    HW1 5254   3.199   8.795   1.703
18805SOL    HW2 5255   3.055   8.861   1.740
18806SOL     OW 5256   3.717   3.013   8.416
18806SOL    HW1 5257   3.811   2.991   8.442
18806SOL    HW2 5258   3.673   2.932   8.379
18807SOL     OW 5259  11.559   5.611   6.605
18807SOL    HW1 5260  11.472   5.644   6.642
18807SOL    HW2 5261  11.622   5.689   6.594
18808SOL     OW 5262  12.701   8.837   0.779
18808SOL    HW1 5263  12.747   8.926   0.785
18808SOL    HW2 5264  12.607   8.850   0.749
18809SOL     OW 5265   2.234   3.785   8.084
18809SOL    HW1 5266   2.251   3.712   8.018
18809SOL    HW2 5267   2.173   3.853   8.043
18810SOL     OW 5268  11.549  16.799   0.012
18810SOL    HW1 5269  11.490  16.737   0.063
18810SOL    HW2 5270  11.620  16.835   0.073
18811SOL     OW 5271   9.093  15.413   7.920
18811SOL    HW1 5272   9.097  15.501   7.968
18811SOL    HW2 5273   9.091  15.338   7.986
18812SOL     OW 5274   8.344   6.163   7.153
18812SOL    HW1 5275   8.247   6.184   7.167
18812SOL    HW2 5276   8.381   6.121   7.236
18813SOL     OW 5277   0.394  13.265   8.287
18813SOL    HW1 5278   0.419  13.318   8.205
18813SOL    HW2 5279   0.303  13.227   8.276
18814SOL     OW 5280  10.523   4.635   1.090
18814SOL    HW1 5281  10.620   4.655   1.104
18814SOL    HW2 5282  10.510   4.597   0.999
18815SOL     OW 5283   9.835  12.283   1.067
18815SOL    HW1 5284   9.903  12.223   1.110
18815SOL    HW2 5285   9.824  12.256   0.971
18816SOL     OW 5286  14.145   2.451   6.316
18816SOL    HW1 5287  14.086   2.529   6.337
18816SOL    HW2 5288  14.090   2.377   6.277
18817SOL     OW 5289  15.937  15.213   1.202
18817SOL    HW1 5290  16.030  15.230   1.235
18817SOL    HW2 5291  15.896  15.300   1.172
18818SOL     OW 5292   9.616   0.412   0.771
18818SOL    HW1 5293   9.594   0.327   0.724
18818SOL    HW2 5294   9.659   0.476   0.707
18819SOL     OW 5295  11.490  16.085   6.421
18819SOL    HW1 5296  11.584  16.118   6.432
18819SOL    HW2 5297  11.487  16.020   6.345
18820SOL     OW 5298  10.893   8.877   0.098
18820SOL    HW1 5299  10.831   8.816   0.048
18820SOL    HW2 5300  10.927   8.831   0.180
18821SOL     OW 5301   5.110   1.383   0.966
18821SOL    HW1 5302   5.047   1.348   0.897
18821SOL    HW2 5303   5.129   1.312   1.033
18822SOL     OW 5304  12.733   3.090   7.645
18822SOL    HW1 5305  12.810   3.081   7.583
18822SOL    HW2 5306  12.744   3.027   7.722
18823SOL     OW 5307  15.316  13.181   1.618
18823SOL    HW1 5308  15.331  13.085   1.642
18823SOL    HW2 5309  15.338  13.238   1.697
18824SOL     OW 5310  10.489   5.870   0.869
18824SOL    HW1 5311  10.415   5.821   0.823
18824SOL    HW2 5312  10.477   5.968   0.856
18825SOL     OW 5313   1.763   7.953   1.668
18825SOL    HW1 5314   1.672   7.912   1.660
18825SOL    HW2 5315   1.814   7.907   1.741
18826SOL     OW 5316   5.700   3.657   6.491
18826SOL    HW1 5317   5.651   3.738   6.522
18826SOL    HW2 5318   5.647   3.575   6.513
18827SOL     OW 5319   8.579  13.140   7.205
18827SOL    HW1 5320   8.631  13.129   7.290
18827SOL    HW2 5321   8.619  13.215   7.152
18828SOL     OW 5322   0.555  16.890   1.047
18828SOL    HW1 5323   0.578  16.966   1.108
18828SOL    HW2 5324   0.617  16.813   1.064
18829SOL     OW 5325   8.869   7.835   1.811
18829SOL    HW1 5326   8.903   7.910   1.869
18829SOL    HW2 5327   8.834   7.761   1.868
18830SOL     OW 5328  14.348   0.026   8.235
18830SOL    HW1 5329  14.270  16.946   8.239
18830SOL    HW2 5330  14.411   0.005   8.310
18831SOL     OW 5331   0.769   9.377   2.227
18831SOL    HW1 5332   0.731   9.417   2.311
18831SOL    HW2 5333   0.734   9.283   2.216
18832SOL     OW 5334  10.649  12.782   8.121
18832SOL    HW1 5335  10.667  12.870   8.077
18832SOL    HW2 5336  10.629  12.714   8.051
18833SOL     OW 5337  11.694   2.998   8.243
18833SOL    HW1 5338  11.701   3.093   8.213
18833SOL    HW2 5339  11.756   2.982   8.320
18834SOL     OW 5340  10.624   4.070   0.502
18834SOL    HW1 5341  10.540   4.031   0.464
18834SOL    HW2 5342  10.618   4.170   0.500
18835SOL     OW 5343  15.818  15.354   0.882
18835SOL    HW1 5344  15.891  15.367   0.815
18835SOL    HW2 5345  15.843  15.399   0.968
18836SOL     OW 5346  10.799   3.322   7.662
18836SOL    HW1 5347  10.821   3.228   7.689
18836SOL    HW2 5348  10.771   3.324   7.566
18837SOL     OW 5349  10.850   6.624   1.581
18837SOL    HW1 5350  10.811   6.645   1.492
18837SOL    HW2 5351  10.920   6.693   1.603
18838SOL     OW 5352   3.498  16.648   8.039
18838SOL    HW1 5353   3.515  16.562   8.087
18838SOL    HW2 5354   3.437  16.705   8.094
18839SOL     OW 5355  13.570   8.561   1.959
18839SOL    HW1 5356  13.593   8.492   1.891
18839SOL    HW2 5357  13.652   8.585   2.011
18840SOL     OW 5358   5.031   4.038   0.101
18840SOL    HW1 5359   5.014   4.011   0.195
18840SOL    HW2 5360   5.028   3.957   0.042
18841SOL     OW 5361   7.985   0.148   1.412
18841SOL    HW1 5362   7.999   0.204   1.331
18841SOL    HW2 5363   7.902   0.093   1.401
18842SOL     OW 5364   3.084  14.800   1.427
18842SOL    HW1 5365   3.157  14.829   1.365
18842SOL    HW2 5366   3.107  14.711   1.467
18843SOL     OW 5367  11.744  11.378   6.760
18843SOL    HW1 5368  11.651  11.345   6.748
18843SOL    HW2 5369  11.792  11.321   6.826
18844SOL     OW 5370  11.673   7.484   0.030
18844SOL    HW1 5371  11.645   7.391   0.003
18844SOL    HW2 5372  11.713   7.531   8.405
18845SOL     OW 5373   4.393  15.590   1.487
18845SOL    HW1 5374   4.394  15.630   1.396
18845SOL    HW2 5375   4.380  15.491   1.480
18846SOL     OW 5376   5.002   4.451   0.874
18846SOL    HW1 5377   5.090   4.431   0.832
18846SOL    HW2 5378   4.953   4.519   0.819
18847SOL     OW 5379   7.867  12.908   7.944
18847SOL    HW1 5380   7.854  12.829   7.883
18847SOL    HW2 5381   7.964  12.918   7.964
18848SOL     OW 5382   5.357  11.532   0.291
18848SOL    HW1 5383   5.344  11.464   0.220
18848SOL    HW2 5384   5.279  11.531   0.354
18849SOL     OW 5385   7.032   8.836   6.460
18849SOL    HW1 5386   6.938   8.859   6.432
18849SOL    HW2 5387   7.078   8.788   6.385
18850SOL     OW 5388   8.981   9.532   6.580
18850SOL    HW1 5389   8.933   9.476   6.512
18850SOL    HW2 5390   9.078   9.508   6.580
18851SOL     OW 5391   9.134  14.092   1.610
18851SOL    HW1 5392   9.165  14.147   1.532
18851SOL    HW2 5393   9.148  14.143   1.695
18852SOL     OW 5394   1.405   4.910   6.245
18852SOL    HW1 5395   1.415   4.814   6.271
18852SOL    HW2 5396   1.332   4.918   6.177
18853SOL     OW 5397  11.600  16.389   1.227
18853SOL    HW1 5398  11.509  16.422   1.203
18853SOL    HW2 5399  11.657  16.466   1.256
18854SOL     OW 5400   5.763   5.127   1.047
18854SOL    HW1 5401   5.843   5.072   1.025
18854SOL    HW2 5402   5.735   5.108   1.141
18855SOL     OW 5403  14.889  16.951   0.257
18855SOL    HW1 5404  14.915   0.042   0.319
18855SOL    HW2 5405  14.792  16.960   0.233
18856SOL     OW 5406  12.608   3.914   1.268
18856SOL    HW1 5407  12.668   3.867   1.204
18856SOL    HW2 5408  12.662   3.966   1.333
18857SOL     OW 5409  10.562   9.789   0.806
18857SOL    HW1 5410  10.551   9.808   0.904
18857SOL    HW2 5411  10.588   9.873   0.758
18858SOL     OW 5412  16.741   5.538   0.671
18858SOL    HW1 5413  16.657   5.500   0.632
18858SOL    HW2 5414  16.775   5.611   0.612
18859SOL     OW 5415   3.969   2.449   0.916
18859SOL    HW1 5416   3.871   2.446   0.932
18859SOL    HW2 5417   4.014   2.492   0.994
18860SOL     OW 5418   0.796   5.314   0.098
18860SOL    HW1 5419   0.739   5.319   0.180
18860SOL    HW2 5420   0.859   5.237   0.106
18861SOL     OW 5421   8.322   9.665   6.571
18861SOL    HW1 5422   8.244   9.625   6.522
18861SOL    HW2 5423   8.400   9.672   6.509
18862SOL     OW 5424  11.125   1.618   6.759
18862SOL    HW1 5425  11.152   1.677   6.835
18862SOL    HW2 5426  11.035   1.647   6.725
18863SOL     OW 5427   3.025   6.524   6.873
18863SOL    HW1 5428   3.089   6.459   6.913
18863SOL    HW2 5429   3.074   6.585   6.810
18864SOL     OW 5430   6.481  10.690   0.699
18864SOL    HW1 5431   6.479  10.623   0.773
18864SOL    HW2 5432   6.441  10.650   0.617
18865SOL     OW 5433   3.599   8.715   7.432
18865SOL    HW1 5434   3.511   8.737   7.474
18865SOL    HW2 5435   3.672   8.756   7.487
18866SOL     OW 5436  11.425  14.854   8.334
18866SOL    HW1 5437  11.489  14.779   8.348
18866SOL    HW2 5438  11.475  14.941   8.336
18867SOL     OW 5439   3.976   2.338   6.974
18867SOL    HW1 5440   4.045   2.268   6.994
18867SOL    HW2 5441   3.905   2.298   6.915
18868SOL     OW 5442  12.971  14.847   1.224
18868SOL    HW1 5443  13.023  14.766   1.196
18868SOL    HW2 5444  13.021  14.929   1.196
18869SOL     OW 5445   0.929   9.981   7.041
18869SOL    HW1 5446   1.006   9.986   7.105
18869SOL    HW2 5447   0.962   9.947   6.952
18870SOL     OW 5448   6.194   7.378   7.446
18870SOL    HW1 5449   6.260   7.331   7.504
18870SOL    HW2 5450   6.242   7.434   7.378
18871SOL     OW 5451  14.929   5.390   6.275
18871SOL    HW1 5452  14.927   5.433   6.185
18871SOL    HW2 5453  15.022   5.361   6.296
18872SOL     OW 5454   5.636  15.818   0.584
18872SOL    HW1 5455   5.609  15.730   0.545
18872SOL    HW2 5456   5.555  15.864   0.623
18873SOL     OW 5457   8.923  16.343   8.331
18873SOL    HW1 5458   8.878  16.418   8.380
18873SOL    HW2 5459   8.880  16.256   8.357
18874SOL     OW 5460  11.128  11.655   0.200
18874SOL    HW1 5461  11.116  11.673   0.297
18874SOL    HW2 5462  11.222  11.624   0.183
18875SOL     OW 5463   1.108  10.609   1.120
18875SOL    HW1 5464   1.055  10.645   1.197
18875SOL    HW2 5465   1.130  10.513   1.137
18876SOL     OW 5466   4.526  10.596   1.295
18876SOL    HW1 5467   4.427  10.583   1.288
18876SOL    HW2 5468   4.547  10.651   1.376
18877SOL     OW 5469   1.870   0.828   7.187
18877SOL    HW1 5470   1.891   0.731   7.174
18877SOL    HW2 5471   1.793   0.854   7.129
18878SOL     OW 5472  15.536   5.929   6.895
18878SOL    HW1 5473  15.607   5.902   6.830
18878SOL    HW2 5474  15.452   5.878   6.876
18879SOL     OW 5475   8.609   4.765   6.112
18879SOL    HW1 5476   8.629   4.736   6.019
18879SOL    HW2 5477   8.651   4.854   6.130
18880SOL     OW 5478  10.088  10.245   8.292
18880SOL    HW1 5479   9.989  10.262   8.300
18880SOL    HW2 5480  10.121  10.281   8.205
18881SOL     OW 5481   9.628   5.934   1.500
18881SOL    HW1 5482   9.555   5.998   1.525
18881SOL    HW2 5483   9.588   5.845   1.476
18882SOL     OW 5484   2.692  16.361   0.136
18882SOL    HW1 5485   2.753  16.289   0.169
18882SOL    HW2 5486   2.735  16.411   0.061
18883SOL     OW 5487  10.057   6.091   7.884
18883SOL    HW1 5488  10.070   6.014   7.822
18883SOL    HW2 5489   9.989   6.067   7.954
18884SOL     OW 5490   8.068   3.600   7.194
18884SOL    HW1 5491   8.001   3.672   7.171
18884SOL    HW2 5492   8.021   3.512   7.201
18885SOL     OW 5493   9.850   6.191   8.298
18885SOL    HW1 5494   9.947   6.218   8.292
18885SOL    HW2 5495   9.822   6.190   8.394
18886SOL     OW 5496   6.658   5.269   0.759
18886SOL    HW1 5497   6.576   5.324   0.743
18886SOL    HW2 5498   6.730   5.326   0.797
18887SOL     OW 5499   6.258   6.879   6.613
18887SOL    HW1 5500   6.220   6.790   6.590
18887SOL    HW2 5501   6.214   6.914   6.695
18888SOL     OW 5502  14.450  11.911   0.512
18888SOL    HW1 5503  14.464  11.824   0.560
18888SOL    HW2 5504  14.411  11.978   0.575
18889SOL     OW 5505  13.582   2.508   1.354
18889SOL    HW1 5506  13.486   2.535   1.358
18889SOL    HW2 5507  13.630   2.540   1.436
18890SOL     OW 5508   8.789  16.349   1.539
18890SOL    HW1 5509   8.730  16.346   1.620
18890SOL    HW2 5510   8.807  16.256   1.507
18891SOL     OW 5511   3.605  16.196   7.820
18891SOL    HW1 5512   3.618  16.100   7.796
18891SOL    HW2 5513   3.525  16.232   7.772
18892SOL     OW 5514  16.981   2.309   1.228
18892SOL    HW1 5515  16.907   2.374   1.243
18892SOL    HW2 5516  16.967   2.228   1.285
18893SOL     OW 5517   7.113   6.509   8.277
18893SOL    HW1 5518   7.069   6.599   8.282
18893SOL    HW2 5519   7.149   6.485   8.367
18894SOL     OW 5520   0.371  10.777   0.692
18894SOL    HW1 5521   0.326  10.866   0.693
18894SOL    HW2 5522   0.306  10.706   0.718
18895SOL     OW 5523   1.023   6.072   1.265
18895SOL    HW1 5524   1.111   6.027   1.277
18895SOL    HW2 5525   0.968   6.020   1.200
18896SOL     OW 5526   4.044  11.223   7.311
18896SOL    HW1 5527   4.136  11.258   7.296
18896SOL    HW2 5528   4.017  11.242   7.406
18897SOL     OW 5529   1.536  12.444   1.566
18897SOL    HW1 5530   1.563  12.398   1.481
18897SOL    HW2 5531   1.492  12.532   1.543
18898SOL     OW 5532   3.278   0.704   7.109
18898SOL    HW1 5533   3.282   0.667   7.016
18898SOL    HW2 5534   3.367   0.694   7.152
18899SOL     OW 5535   8.359  12.899   8.047
18899SOL    HW1 5536   8.431  12.958   8.082
18899SOL    HW2 5537   8.362  12.810   8.093
18900SOL     OW 5538   4.402  11.363   1.352
18900SOL    HW1 5539   4.322  11.422   1.344
18900SOL    HW2 5540   4.409  11.305   1.271
18901SOL     OW 5541   2.571   0.257   0.353
18901SOL    HW1 5542   2.556   0.240   0.450
18901SOL    HW2 5543   2.667   0.240   0.330
18902SOL     OW 5544   8.336  16.697   0.829
18902SOL    HW1 5545   8.316  16.760   0.903
18902SOL    HW2 5546   8.391  16.620   0.863
18903SOL     OW 5547  10.379   0.734   1.610
18903SOL    HW1 5548  10.467   0.716   1.567
18903SOL    HW2 5549  10.350   0.653   1.662
18904SOL     OW 5550   0.884  11.150   1.524
18904SOL    HW1 5551   0.916  11.215   1.455
18904SOL    HW2 5552   0.934  11.064   1.515
18905SOL     OW 5553   0.429  15.814   1.242
18905SOL    HW1 5554   0.396  15.720   1.246
18905SOL    HW2 5555   0.526  15.815   1.217
18906SOL     OW 5556   9.548   0.877   6.218
18906SOL    HW1 5557   9.514   0.874   6.312
18906SOL    HW2 5558   9.629   0.934   6.213
18907SOL     OW 5559   3.312   4.756   8.134
18907SOL    HW1 5560   3.379   4.810   8.185
18907SOL    HW2 5561   3.303   4.666   8.176
18908SOL     OW 5562   0.537  13.116   7.379
18908SOL    HW1 5563   0.597  13.137   7.456
18908SOL    HW2 5564   0.567  13.032   7.334
18909SOL     OW 5565  15.863  14.239   1.441
18909SOL    HW1 5566  15.893  14.155   1.486
18909SOL    HW2 5567  15.829  14.217   1.350
18910SOL     OW 5568   7.986  14.090   5.924
18910SOL    HW1 5569   7.888  14.103   5.941
18910SOL    HW2 5570   8.036  14.171   5.956
18911SOL     OW 5571   4.235  14.433   7.284
18911SOL    HW1 5572   4.154  14.413   7.339
18911SOL    HW2 5573   4.260  14.529   7.295
18912SOL     OW 5574  12.180  14.103   0.030
18912SOL    HW1 5575  12.112  14.174   0.013
18912SOL    HW2 5576  12.268  14.145   0.050
18913SOL     OW 5577   0.133   2.242   0.343
18913SOL    HW1 5578   0.214   2.296   0.367
18913SOL    HW2 5579   0.139   2.214   0.247
18914SOL     OW 5580  10.936   6.828   6.521
18914SOL    HW1 5581  11.004   6.851   6.452
18914SOL    HW2 5582  10.846   6.822   6.478
18915SOL     OW 5583  12.523   4.691   1.045
18915SOL    HW1 5584  12.563   4.705   1.135
18915SOL    HW2 5585  12.428   4.660   1.056
18916SOL     OW 5586  10.929  14.917   6.798
18916SOL    HW1 5587  11.027  14.939   6.796
18916SOL    HW2 5588  10.900  14.885   6.707
18917SOL     OW 5589   8.414  13.385   6.734
18917SOL    HW1 5590   8.481  13.327   6.687
18917SOL    HW2 5591   8.395  13.466   6.679
18918SOL     OW 5592  15.369  12.590   8.138
18918SOL    HW1 5593  15.410  12.644   8.210
18918SOL    HW2 5594  15.434  12.578   8.063
18919SOL     OW 5595   7.872  14.119   7.646
18919SOL    HW1 5596   7.936  14.183   7.690
18919SOL    HW2 5597   7.795  14.170   7.608
18920SOL     OW 5598  16.024   6.439   5.684
18920SOL    HW1 5599  16.072   6.386   5.614
18920SOL    HW2 5600  16.009   6.532   5.651
18921SOL     OW 5601   3.964  13.695   1.906
18921SOL    HW1 5602   4.019  13.639   1.844
18921SOL    HW2 5603   4.008  13.784   1.919
18922SOL     OW 5604   2.032   1.717   7.592
18922SOL    HW1 5605   1.999   1.632   7.634
18922SOL    HW2 5606   2.124   1.702   7.555
18923SOL     OW 5607   8.261   3.664   7.021
18923SOL    HW1 5608   8.189   3.629   7.081
18923SOL    HW2 5609   8.269   3.763   7.031
18924SOL     OW 5610   8.578  10.871   8.403
18924SOL    HW1 5611   8.587  10.821   8.317
18924SOL    HW2 5612   8.578  10.969   8.385
18925SOL     OW 5613  11.689  13.327   1.734
18925SOL    HW1 5614  11.590  13.340   1.738
18925SOL    HW2 5615  11.722  13.359   1.645
18926SOL     OW 5616  16.005   1.228   1.161
18926SOL    HW1 5617  16.032   1.145   1.210
18926SOL    HW2 5618  16.025   1.217   1.064
18927SOL     OW 5619  10.900   5.568   1.611
18927SOL    HW1 5620  10.803   5.591   1.603
18927SOL    HW2 5621  10.920   5.539   1.704
18928SOL     OW 5622  14.305  15.888   7.507
18928SOL    HW1 5623  14.295  15.908   7.605
18928SOL    HW2 5624  14.402  15.878   7.485
18929SOL     OW 5625  16.230   9.764   7.486
18929SOL    HW1 5626  16.188   9.842   7.534
18929SOL    HW2 5627  16.248   9.789   7.391
18930SOL     OW 5628   9.586   5.896   7.403
18930SOL    HW1 5629   9.676   5.853   7.415
18930SOL    HW2 5630   9.531   5.839   7.342
18931SOL     OW 5631   0.803  12.434   7.434
18931SOL    HW1 5632   0.852  12.364   7.485
18931SOL    HW2 5633   0.779  12.509   7.495
18932SOL     OW 5634   8.366  15.175   1.562
18932SOL    HW1 5635   8.436  15.159   1.631
18932SOL    HW2 5636   8.335  15.087   1.525
18933SOL     OW 5637  15.553   8.169   8.294
18933SOL    HW1 5638  15.576   8.239   8.361
18933SOL    HW2 5639  15.470   8.195   8.245
18934SOL     OW 5640   0.545   5.990   7.490
18934SOL    HW1 5641   0.508   6.007   7.581
18934SOL    HW2 5642   0.497   6.047   7.423
18935SOL     OW 5643   3.827  16.370   7.387
18935SOL    HW1 5644   3.817  16.359   7.288
18935SOL    HW2 5645   3.899  16.310   7.420
18936SOL     OW 5646  12.499  16.673   1.900
18936SOL    HW1 5647  12.524  16.584   1.937
18936SOL    HW2 5648  12.450  16.726   1.969
18937SOL     OW 5649   7.008  11.250   8.203
18937SOL    HW1 5650   7.054  11.338   8.193
18937SOL    HW2 5651   6.988  11.234   8.299
18938SOL     OW 5652  15.107  15.739   6.281
18938SOL    HW1 5653  15.049  15.819   6.287
18938SOL    HW2 5654  15.059  15.666   6.232
18939SOL     OW 5655   1.089   8.185   1.166
18939SOL    HW1 5656   0.997   8.171   1.128
18939SOL    HW2 5657   1.138   8.251   1.108
18940SOL     OW 5658  15.051   5.908   8.291
18940SOL    HW1 5659  15.134   5.872   8.248
18940SOL    HW2 5660  15.049   5.881   8.387
18941SOL     OW 5661   5.190  12.389   1.060
18941SOL    HW1 5662   5.157  12.432   1.144
18941SOL    HW2 5663   5.274  12.436   1.030
18942SOL     OW 5664   3.527  13.486   2.304
18942SOL    HW1 5665   3.500  13.538   2.223
18942SOL    HW2 5666   3.487  13.529   2.385
18943SOL     OW 5667   8.004   3.614   2.172
18943SOL    HW1 5668   8.044   3.523   2.186
18943SOL    HW2 5669   7.935   3.608   2.100
18944SOL     OW 5670   8.363  13.960   1.612
18944SOL    HW1 5671   8.419  14.028   1.659
18944SOL    HW2 5672   8.315  14.002   1.536
18945SOL     OW 5673   7.910   2.994   0.108
18945SOL    HW1 5674   7.979   2.936   0.152
18945SOL    HW2 5675   7.852   2.938   0.049
18946SOL     OW 5676   6.496  10.568   7.883
18946SOL    HW1 5677   6.419  10.510   7.909
18946SOL    HW2 5678   6.463  10.648   7.833
18947SOL     OW 5679   1.644  10.751   0.029
18947SOL    HW1 5680   1.717  10.724   0.091
18947SOL    HW2 5681   1.642  10.689   8.405
18948SOL     OW 5682   1.358   1.535   1.447
18948SOL    HW1 5683   1.372   1.522   1.546
18948SOL    HW2 5684   1.262   1.523   1.425
18949SOL     OW 5685   9.896   5.009   7.585
18949SOL    HW1 5686   9.896   5.109   7.584
18949SOL    HW2 5687   9.902   4.974   7.491
18950SOL     OW 5688  12.135   4.184   1.315
18950SOL    HW1 5689  12.198   4.196   1.392
18950SOL    HW2 5690  12.078   4.265   1.307
18951SOL     OW 5691   3.560   0.084   0.399
18951SOL    HW1 5692   3.560   0.167   0.343
18951SOL    HW2 5693   3.607   0.011   0.350
18952SOL     OW 5694   4.741  13.043   7.099
18952SOL    HW1 5695   4.821  13.103   7.108
18952SOL    HW2 5696   4.757  12.978   7.025
18953SOL     OW 5697   9.719   5.320   1.547
18953SOL    HW1 5698   9.643   5.280   1.496
18953SOL    HW2 5699   9.724   5.278   1.638
18954SOL     OW 5700  11.725   9.960   8.299
18954SOL    HW1 5701  11.780   9.877   8.302
18954SOL    HW2 5702  11.638   9.942   8.254
18955SOL     OW 5703   1.864   0.509   8.190
18955SOL    HW1 5704   1.958   0.479   8.174
18955SOL    HW2 5705   1.803   0.463   8.125
18956SOL     OW 5706   4.891  11.914   6.075
18956SOL    HW1 5707   4.900  11.860   5.992
18956SOL    HW2 5708   4.954  11.992   6.072
18957SOL     OW 5709   9.329  10.643   0.309
18957SOL    HW1 5710   9.233  10.660   0.283
18957SOL    HW2 5711   9.358  10.712   0.375
18958SOL     OW 5712   4.918   0.050   7.595
18958SOL    HW1 5713   4.931   0.140   7.553
18958SOL    HW2 5714   4.822   0.022   7.584
18959SOL     OW 5715   7.790  11.391   8.271
18959SOL    HW1 5716   7.827  11.474   8.311
18959SOL    HW2 5717   7.755  11.332   8.344
18960SOL     OW 5718   4.042  10.277   1.591
18960SOL    HW1 5719   4.086  10.367   1.579
18960SOL    HW2 5720   4.077  10.234   1.674
18961SOL     OW 5721   7.586  10.712   8.250
18961SOL    HW1 5722   7.522  10.744   8.320
18961SOL    HW2 5723   7.570  10.762   8.165
18962SOL     OW 5724   7.646   6.330   0.950
18962SOL    HW1 5725   7.584   6.392   0.902
18962SOL    HW2 5726   7.689   6.379   1.026
18963SOL     OW 5727   1.527   9.695   2.235
18963SOL    HW1 5728   1.591   9.704   2.311
18963SOL    HW2 5729   1.438   9.730   2.262
18964SOL     OW 5730  11.536  12.884   7.895
18964SOL    HW1 5731  11.610  12.827   7.930
18964SOL    HW2 5732  11.559  12.981   7.910
18965SOL     OW 5733  10.731  14.229   8.059
18965SOL    HW1 5734  10.814  14.285   8.046
18965SOL    HW2 5735  10.688  14.253   8.146
18966SOL     OW 5736   0.718  13.044   0.152
18966SOL    HW1 5737   0.670  13.059   0.238
18966SOL    HW2 5738   0.720  12.946   0.130
18967SOL     OW 5739   8.974  15.321   7.682
18967SOL    HW1 5740   8.922  15.241   7.713
18967SOL    HW2 5741   9.007  15.371   7.762
18968SOL     OW 5742   7.208   8.860   0.219
18968SOL    HW1 5743   7.214   8.960   0.221
18968SOL    HW2 5744   7.293   8.821   0.252
18969SOL     OW 5745   3.269   7.503   1.439
18969SOL    HW1 5746   3.231   7.486   1.530
18969SOL    HW2 5747   3.213   7.570   1.391
18970SOL     OW 5748   6.293   1.520   0.679
18970SOL    HW1 5749   6.271   1.617   0.681
18970SOL    HW2 5750   6.352   1.498   0.757
18971SOL     OW 5751   0.416   3.066   7.623
18971SOL    HW1 5752   0.490   3.018   7.576
18971SOL    HW2 5753   0.332   3.060   7.568
18972SOL     OW 5754   7.835  11.194   2.056
18972SOL    HW1 5755   7.898  11.122   2.082
18972SOL    HW2 5756   7.819  11.190   1.957
18973SOL     OW 5757   8.728  14.504   0.091
18973SOL    HW1 5758   8.747  14.468   8.453
18973SOL    HW2 5759   8.778  14.450   0.159
18974SOL     OW 5760   3.805  10.100   0.977
18974SOL    HW1 5761   3.821  10.008   1.012
18974SOL    HW2 5762   3.848  10.110   0.888
18975SOL     OW 5763  14.631   5.771   7.720
18975SOL    HW1 5764  14.632   5.871   7.722
18975SOL    HW2 5765  14.639   5.740   7.625
18976SOL     OW 5766   7.757   8.172   7.862
18976SOL    HW1 5767   7.818   8.201   7.788
18976SOL    HW2 5768   7.699   8.097   7.831
18977SOL     OW 5769  16.884   1.144   7.499
18977SOL    HW1 5770  16.855   1.231   7.460
18977SOL    HW2 5771  16.921   1.159   7.591
18978SOL     OW 5772  16.692   4.525   8.115
18978SOL    HW1 5773  16.610   4.527   8.058
18978SOL    HW2 5774  16.770   4.493   8.061
18979SOL     OW 5775   1.195  13.420   1.620
18979SOL    HW1 5776   1.116  13.480   1.621
18979SOL    HW2 5777   1.189  13.357   1.542
18980SOL     OW 5778   6.520  13.238   6.488
18980SOL    HW1 5779   6.421  13.251   6.482
18980SOL    HW2 5780   6.545  13.149   6.452
18981SOL     OW 5781   2.084  12.674   7.962
18981SOL    HW1 5782   2.092  12.669   7.862
18981SOL    HW2 5783   2.136  12.600   8.003
18982SOL     OW 5784   0.745   9.479   1.368
18982SOL    HW1 5785   0.703   9.453   1.454
18982SOL    HW2 5786   0.679   9.469   1.293
18983SOL     OW 5787   0.467  12.304   1.440
18983SOL    HW1 5788   0.541  12.368   1.461
18983SOL    HW2 5789   0.463  12.289   1.342
18984SOL     OW 5790   2.066   5.643   0.509
18984SOL    HW1 5791   2.162   5.633   0.533
18984SOL    HW2 5792   2.018   5.557   0.529
18985SOL     OW 5793   3.800  13.052   0.046
18985SOL    HW1 5794   3.871  12.997   0.091
18985SOL    HW2 5795   3.725  12.993   0.016
18986SOL     OW 5796   2.612   6.081   7.212
18986SOL    HW1 5797   2.599   6.001   7.271
18986SOL    HW2 5798   2.708   6.085   7.183
18987SOL     OW 5799   2.970   0.828   0.955
18987SOL    HW1 5800   2.925   0.810   1.043
18987SOL    HW2 5801   2.902   0.827   0.882
18988SOL     OW 5802  12.282  14.733   7.690
18988SOL    HW1 5803  12.188  14.708   7.667
18988SOL    HW2 5804  12.303  14.822   7.650
18989SOL     OW 5805   1.921  11.439   8.040
18989SOL    HW1 5806   1.889  11.363   7.983
18989SOL    HW2 5807   1.844  11.497   8.064
18990SOL     OW 5808  13.477   6.829   0.537
18990SOL    HW1 5809  13.421   6.820   0.620
18990SOL    HW2 5810  13.444   6.907   0.483
18991SOL     OW 5811  15.774   6.882   7.341
18991SOL    HW1 5812  15.777   6.791   7.384
18991SOL    HW2 5813  15.683   6.922   7.356
18992SOL     OW 5814   2.367   3.455   0.895
18992SOL    HW1 5815   2.287   3.404   0.863
18992SOL    HW2 5816   2.395   3.519   0.824
18993SOL     OW 5817   8.293  11.530   1.439
18993SOL    HW1 5818   8.380  11.481   1.437
18993SOL    HW2 5819   8.297  11.610   1.380
18994SOL     OW 5820   8.263   7.177   6.772
18994SOL    HW1 5821   8.356   7.155   6.742
18994SOL    HW2 5822   8.224   7.246   6.712
18995SOL     OW 5823   7.949   3.953   0.155
18995SOL    HW1 5824   7.966   3.904   0.241
18995SOL    HW2 5825   7.866   4.009   0.165
18996SOL     OW 5826  15.404  11.518   0.460
18996SOL    HW1 5827  15.361  11.428   0.467
18996SOL    HW2 5828  15.498  11.514   0.495
18997SOL     OW 5829   4.119   4.117   1.623
18997SOL    HW1 5830   4.094   4.061   1.703
18997SOL    HW2 5831   4.089   4.211   1.638
18998SOL     OW 5832   5.100   6.648   8.218
18998SOL    HW1 5833   5.105   6.664   8.120
18998SOL    HW2 5834   5.187   6.672   8.261
18999SOL     OW 5835   9.507  12.313   0.740
18999SOL    HW1 5836   9.535  12.218   0.754
18999SOL    HW2 5837   9.543  12.345   0.653
19000SOL     OW 5838   1.236  16.606   1.319
19000SOL    HW1 5839   1.178  16.678   1.359
19000SOL    HW2 5840   1.241  16.619   1.220
19001SOL     OW 5841   1.142   5.318   6.835
19001SOL    HW1 5842   1.089   5.243   6.796
19001SOL    HW2 5843   1.102   5.344   6.923
19002SOL     OW 5844  14.631  13.754   7.540
19002SOL    HW1 5845  14.541  13.733   7.579
19002SOL    HW2 5846  14.677  13.668   7.516
19003SOL     OW 5847   2.565  15.451   0.710
19003SOL    HW1 5848   2.620  15.441   0.627
19003SOL    HW2 5849   2.537  15.547   0.718
19004SOL     OW 5850  11.951  10.188   1.349
19004SOL    HW1 5851  11.908  10.266   1.304
19004SOL    HW2 5852  11.893  10.157   1.425
19005SOL     OW 5853  15.045  14.891   6.776
19005SOL    HW1 5854  15.086  14.961   6.833
19005SOL    HW2 5855  15.050  14.919   6.680
19006SOL     OW 5856  15.598   3.141   6.453
19006SOL    HW1 5857  15.668   3.147   6.383
19006SOL    HW2 5858  15.629   3.187   6.536
19007SOL     OW 5859   2.153   2.973   0.209
19007SOL    HW1 5860   2.078   3.008   0.265
19007SOL    HW2 5861   2.149   2.873   0.207
19008SOL     OW 5862   8.776  13.286   6.645
19008SOL    HW1 5863   8.788  13.219   6.572
19008SOL    HW2 5864   8.738  13.370   6.608
19009SOL     OW 5865  13.451  15.708   6.730
19009SOL    HW1 5866  13.498  15.620   6.731
19009SOL    HW2 5867  13.466  15.752   6.641
19010SOL     OW 5868   9.416   2.560   7.693
19010SOL    HW1 5869   9.396   2.498   7.768
19010SOL    HW2 5870   9.337   2.567   7.633
19011SOL     OW 5871   3.806  10.215   1.876
19011SOL    HW1 5872   3.822  10.134   1.819
19011SOL    HW2 5873   3.844  10.199   1.967
19012SOL     OW 5874  13.079   8.625   0.554
19012SOL    HW1 5875  13.129   8.646   0.471
19012SOL    HW2 5876  13.143   8.602   0.627
19013SOL     OW 5877   7.884   0.741   7.803
19013SOL    HW1 5878   7.949   0.670   7.829
19013SOL    HW2 5879   7.847   0.784   7.885
19014SOL     OW 5880   6.264  14.278   8.166
19014SOL    HW1 5881   6.294  14.313   8.254
19014SOL    HW2 5882   6.305  14.333   8.093
19015SOL     OW 5883   9.434  13.412   8.349
19015SOL    HW1 5884   9.480  13.488   8.302
19015SOL    HW2 5885   9.381  13.359   8.282
19016SOL     OW 5886   5.194  10.578   2.605
19016SOL    HW1 5887   5.197  10.663   2.658
19016SOL    HW2 5888   5.287  10.544   2.592
19017SOL     OW 5889  14.051   9.508   6.047
19017SOL    HW1 5890  13.964   9.471   6.078
19017SOL    HW2 5891  14.095   9.442   5.986
19018SOL     OW 5892  13.890  12.998   8.206
19018SOL    HW1 5893  13.849  12.981   8.296
19018SOL    HW2 5894  13.884  13.095   8.184
19019SOL     OW 5895   8.564   0.057   0.033
19019SOL    HW1 5896   8.553  16.981   8.407
19019SOL    HW2 5897   8.593   0.002   0.111
19020SOL     OW 5898   0.220  12.304   8.354
19020SOL    HW1 5899   0.200  12.249   8.435
19020SOL    HW2 5900   0.183  12.259   8.273
19021SOL     OW 5901  13.906   0.559   7.860
19021SOL    HW1 5902  13.919   0.467   7.899
19021SOL    HW2 5903  13.834   0.607   7.910
19022SOL     OW 5904   8.657  12.064   7.318
19022SOL    HW1 5905   8.678  12.117   7.237
19022SOL    HW2 5906   8.581  12.001   7.298
19023SOL     OW 5907   2.207  14.102   1.382
19023SOL    HW1 5908   2.205  14.004   1.401
19023SOL    HW2 5909   2.241  14.117   1.289
19024SOL     OW 5910  15.486   9.734   1.392
19024SOL    HW1 5911  15.560   9.698   1.334
19024SOL    HW2 5912  15.405   9.749   1.337
19025SOL     OW 5913   6.803  14.301   1.701
19025SOL    HW1 5914   6.887  14.355   1.699
19025SOL    HW2 5915   6.724  14.362   1.704
19026SOL     OW 5916   4.588  15.347   1.218
19026SOL    HW1 5917   4.599  15.305   1.308
19026SOL    HW2 5918   4.492  15.375   1.206
19027SOL     OW 5919  13.057   9.069   7.966
19027SOL    HW1 5920  13.140   9.013   7.970
19027SOL    HW2 5921  13.080   9.165   7.983
19028SOL     OW 5922   4.510  15.433   7.891
19028SOL    HW1 5923   4.597  15.463   7.853
19028SOL    HW2 5924   4.469  15.508   7.943
19029SOL     OW 5925   9.515   4.511   7.637
19029SOL    HW1 5926   9.579   4.479   7.707
19029SOL    HW2 5927   9.534   4.465   7.551
19030SOL     OW 5928   8.415   2.993   1.209
19030SOL    HW1 5929   8.344   2.924   1.223
19030SOL    HW2 5930   8.410   3.062   1.281
19031SOL     OW 5931  13.969  14.902   1.223
19031SOL    HW1 5932  14.033  14.943   1.159
19031SOL    HW2 5933  14.015  14.883   1.310
19032SOL     OW 5934   8.525   9.712   6.384
19032SOL    HW1 5935   8.605   9.681   6.332
19032SOL    HW2 5936   8.552   9.787   6.445
19033SOL     OW 5937   5.427   5.913   6.609
19033SOL    HW1 5938   5.340   5.943   6.571
19033SOL    HW2 5939   5.502   5.959   6.562
19034SOL     OW 5940   7.686   7.867   0.526
19034SOL    HW1 5941   7.701   7.955   0.480
19034SOL    HW2 5942   7.601   7.871   0.578
19035SOL     OW 5943  13.688  13.747   0.395
19035SOL    HW1 5944  13.704  13.752   0.493
19035SOL    HW2 5945  13.731  13.665   0.358
19036SOL     OW 5946   8.304  12.875   7.154
19036SOL    HW1 5947   8.235  12.915   7.214
19036SOL    HW2 5948   8.328  12.783   7.187
19037SOL     OW 5949   4.747  14.469   0.584
19037SOL    HW1 5950   4.785  14.499   0.671
19037SOL    HW2 5951   4.724  14.549   0.528
19038SOL     OW 5952  16.520  10.840   8.357
19038SOL    HW1 5953  16.459  10.912   8.389
19038SOL    HW2 5954  16.615  10.867   8.374
19039SOL     OW 5955   9.046  15.527   6.966
19039SOL    HW1 5956   9.089  15.481   7.043
19039SOL    HW2 5957   9.091  15.500   6.881
19040SOL     OW 5958   5.580  12.213   0.264
19040SOL    HW1 5959   5.583  12.131   0.321
19040SOL    HW2 5960   5.672  12.239   0.238
19041SOL     OW 5961  14.227   1.402   7.363
19041SOL    HW1 5962  14.267   1.338   7.428
19041SOL    HW2 5963  14.292   1.476   7.344
19042SOL     OW 5964   4.120  10.805   7.795
19042SOL    HW1 5965   4.055  10.779   7.724
19042SOL    HW2 5966   4.081  10.879   7.850
19043SOL     OW 5967   2.395   9.197   2.091
19043SOL    HW1 5968   2.384   9.272   2.156
19043SOL    HW2 5969   2.392   9.110   2.140
19044SOL     OW 5970   5.096   2.455   0.791
19044SOL    HW1 5971   5.146   2.536   0.762
19044SOL    HW2 5972   5.080   2.395   0.712
19045SOL     OW 5973   3.631   4.467   7.330
19045SOL    HW1 5974   3.601   4.420   7.247
19045SOL    HW2 5975   3.676   4.553   7.307
19046SOL     OW 5976  16.351  10.718   7.441
19046SOL    HW1 5977  16.375  10.629   7.403
19046SOL    HW2 5978  16.331  10.782   7.367
19047SOL     OW 5979  12.165  14.857   6.627
19047SOL    HW1 5980  12.256  14.817   6.625
19047SOL    HW2 5981  12.150  14.910   6.544
19048SOL     OW 5982   8.945   9.211   7.921
19048SOL    HW1 5983   9.019   9.278   7.917
19048SOL    HW2 5984   8.899   9.206   7.832
19049SOL     OW 5985   9.704  14.153   0.137
19049SOL    HW1 5986   9.703  14.053   0.144
19049SOL    HW2 5987   9.794  14.182   0.103
19050SOL     OW 5988   8.721   4.788   7.317
19050SOL    HW1 5989   8.788   4.714   7.304
19050SOL    HW2 5990   8.701   4.831   7.229
19051SOL     OW 5991   4.491  10.689   6.902
19051SOL    HW1 5992   4.516  10.666   6.808
19051SOL    HW2 5993   4.484  10.788   6.911
19052SOL     OW 5994   5.927   2.870   7.726
19052SOL    HW1 5995   5.928   2.772   7.705
19052SOL    HW2 5996   5.961   2.921   7.647
19053SOL     OW 5997   0.370   7.779   0.059
19053SOL    HW1 5998   0.455   7.804   0.107
19053SOL    HW2 5999   0.304   7.853   0.066
19054SOL     OW 6000   1.208   6.621   2.122
19054SOL    HW1 6001   1.293   6.576   2.150
19054SOL    HW2 6002   1.146   6.628   2.200
19055SOL     OW 6003   6.143   5.094   7.875
19055SOL    HW1 6004   6.068   5.122   7.816
19055SOL    HW2 6005   6.206   5.036   7.823
19056SOL     OW 6006  15.113  14.009   7.686
19056SOL    HW1 6007  15.174  14.012   7.607
19056SOL    HW2 6008  15.025  13.970   7.659
19057SOL     OW 6009   7.991   5.679   0.139
19057SOL    HW1 6010   7.950   5.765   0.170
19057SOL    HW2 6011   8.087   5.694   0.115
19058SOL     OW 6012   6.457   7.532   8.020
19058SOL    HW1 6013   6.545   7.576   8.038
19058SOL    HW2 6014   6.471   7.448   7.968
19059SOL     OW 6015   6.421  10.615   7.426
19059SOL    HW1 6016   6.396  10.581   7.335
19059SOL    HW2 6017   6.412  10.541   7.493
19060SOL     OW 6018  15.611  15.476   7.510
19060SOL    HW1 6019  15.630  15.423   7.427
19060SOL    HW2 6020  15.675  15.552   7.516
19061SOL     OW 6021   1.712  15.633   8.048
19061SOL    HW1 6022   1.750  15.603   7.960
19061SOL    HW2 6023   1.785  15.637   8.115
19062SOL     OW 6024  13.125  16.871   6.996
19062SOL    HW1 6025  13.065  16.917   6.931
19062SOL    HW2 6026  13.070  16.811   7.054
19063SOL     OW 6027  14.661   7.727   6.797
19063SOL    HW1 6028  14.631   7.759   6.887
19063SOL    HW2 6029  14.758   7.701   6.801
19064SOL     OW 6030  10.345   1.852   6.353
19064SOL    HW1 6031  10.339   1.864   6.253
19064SOL    HW2 6032  10.290   1.922   6.398
19065SOL     OW 6033   6.181  12.125   1.338
19065SOL    HW1 6034   6.155  12.041   1.290
19065SOL    HW2 6035   6.100  12.169   1.376
19066SOL     OW 6036   3.312   8.430   6.904
19066SOL    HW1 6037   3.396   8.441   6.851
19066SOL    HW2 6038   3.235   8.411   6.843
19067SOL     OW 6039  14.658  15.684   2.147
19067SOL    HW1 6040  14.719  15.613   2.181
19067SOL    HW2 6041  14.618  15.734   2.224
19068SOL     OW 6042   5.384   6.158   1.770
19068SOL    HW1 6043   5.444   6.206   1.834
19068SOL    HW2 6044   5.410   6.182   1.676
19069SOL     OW 6045  12.071  14.222   7.933
19069SOL    HW1 6046  12.080  14.160   7.855
19069SOL    HW2 6047  12.029  14.308   7.903
19070SOL     OW 6048   3.052  14.419   8.111
19070SOL    HW1 6049   3.082  14.495   8.053
19070SOL    HW2 6050   2.969  14.378   8.073
19071SOL     OW 6051   1.669  15.305   1.944
19071SOL    HW1 6052   1.670  15.398   1.908
19071SOL    HW2 6053   1.582  15.287   1.989
19072SOL     OW 6054   1.218   3.652   0.346
19072SOL    HW1 6055   1.161   3.592   0.402
19072SOL    HW2 6056   1.276   3.596   0.286
19073SOL     OW 6057   4.552   1.304   8.283
19073SOL    HW1 6058   4.628   1.366   8.304
19073SOL    HW2 6059   4.580   1.240   8.211
19074SOL     OW 6060   3.882  13.487   8.180
19074SOL    HW1 6061   3.859  13.583   8.166
19074SOL    HW2 6062   3.964  13.480   8.237
19075SOL     OW 6063   1.491  15.977   1.339
19075SOL    HW1 6064   1.393  15.999   1.345
19075SOL    HW2 6065   1.526  16.007   1.250
19076SOL     OW 6066   9.119   6.567   7.462
19076SOL    HW1 6067   9.190   6.526   7.404
19076SOL    HW2 6068   9.084   6.497   7.525
19077SOL     OW 6069  12.152  11.736   7.447
19077SOL    HW1 6070  12.099  11.737   7.533
19077SOL    HW2 6071  12.090  11.714   7.372
19078SOL     OW 6072   1.877  13.894   1.931
19078SOL    HW1 6073   1.848  13.918   2.024
19078SOL    HW2 6074   1.856  13.797   1.914
19079SOL     OW 6075  13.807   9.444   0.770
19079SOL    HW1 6076  13.802   9.344   0.779
19079SOL    HW2 6077  13.756   9.473   0.689
19080SOL     OW 6078   3.023   1.977   7.929
19080SOL    HW1 6079   2.992   2.010   7.840
19080SOL    HW2 6080   3.115   1.939   7.921
19081SOL     OW 6081  14.620  11.865   1.811
19081SOL    HW1 6082  14.705  11.815   1.798
19081SOL    HW2 6083  14.615  11.899   1.905
19082SOL     OW 6084  15.213   5.282   8.141
19082SOL    HW1 6085  15.168   5.243   8.060
19082SOL    HW2 6086  15.150   5.345   8.187
19083SOL     OW 6087   7.175   4.514   6.553
19083SOL    HW1 6088   7.174   4.583   6.481
19083SOL    HW2 6089   7.244   4.537   6.621
19084SOL     OW 6090   0.270   0.695   0.644
19084SOL    HW1 6091   0.201   0.750   0.690
19084SOL    HW2 6092   0.358   0.705   0.691
19085SOL     OW 6093   2.288   1.683   7.488
19085SOL    HW1 6094   2.368   1.626   7.508
19085SOL    HW2 6095   2.298   1.771   7.533
19086SOL     OW 6096  12.295   5.582   8.208
19086SOL    HW1 6097  12.273   5.673   8.244
19086SOL    HW2 6098  12.360   5.592   8.133
19087SOL     OW 6099  16.538  12.666   7.459
19087SOL    HW1 6100  16.596  12.731   7.509
19087SOL    HW2 6101  16.581  12.576   7.460
19088SOL     OW 6102   2.059   8.275   0.692
19088SOL    HW1 6103   2.054   8.182   0.655
19088SOL    HW2 6104   2.118   8.276   0.773
19089SOL     OW 6105   0.887  11.170   1.042
19089SOL    HW1 6106   0.826  11.098   1.007
19089SOL    HW2 6107   0.841  11.258   1.035
19090SOL     OW 6108  13.497   9.705   0.795
19090SOL    HW1 6109  13.477   9.697   0.697
19090SOL    HW2 6110  13.475   9.619   0.840
19091SOL     OW 6111   9.657   6.443   6.833
19091SOL    HW1 6112   9.650   6.353   6.876
19091SOL    HW2 6113   9.754   6.467   6.821
19092SOL     OW 6114   1.536  10.662   7.544
19092SOL    HW1 6115   1.636  10.669   7.544
19092SOL    HW2 6116   1.497  10.734   7.600
19093SOL     OW 6117  15.625   9.465   7.909
19093SOL    HW1 6118  15.551   9.506   7.962
19093SOL    HW2 6119  15.633   9.368   7.930
19094SOL     OW 6120   5.888   6.472   6.683
19094SOL    HW1 6121   5.852   6.489   6.774
19094SOL    HW2 6122   5.835   6.524   6.616
19095SOL     OW 6123  11.788  16.078   7.281
19095SOL    HW1 6124  11.737  16.144   7.337
19095SOL    HW2 6125  11.864  16.041   7.334
19096SOL     OW 6126   5.701  10.708   7.719
19096SOL    HW1 6127   5.745  10.664   7.797
19096SOL    HW2 6128   5.702  10.808   7.732
19097SOL     OW 6129   5.462   3.320   0.115
19097SOL    HW1 6130   5.517   3.344   0.195
19097SOL    HW2 6131   5.413   3.235   0.131
19098SOL     OW 6132  14.700   1.552   1.127
19098SOL    HW1 6133  14.665   1.528   1.037
19098SOL    HW2 6134  14.630   1.602   1.178
19099SOL     OW 6135  11.867  11.212   6.940
19099SOL    HW1 6136  11.885  11.121   6.903
19099SOL    HW2 6137  11.782  11.211   6.993
19100SOL     OW 6138   0.862   5.871   0.222
19100SOL    HW1 6139   0.903   5.905   0.307
19100SOL    HW2 6140   0.782   5.927   0.199
19101SOL     OW 6141  14.462  14.574   6.887
19101SOL    HW1 6142  14.411  14.543   6.967
19101SOL    HW2 6143  14.424  14.533   6.804
19102SOL     OW 6144  10.617   4.081   8.254
19102SOL    HW1 6145  10.701   4.027   8.249
19102SOL    HW2 6146  10.596   4.102   8.350
19103SOL     OW 6147  10.408   5.433   0.030
19103SOL    HW1 6148  10.378   5.411   8.392
19103SOL    HW2 6149  10.487   5.375   0.054
19104SOL     OW 6150   2.138   5.407   8.404
19104SOL    HW1 6151   2.191   5.464   8.342
19104SOL    HW2 6152   2.114   5.321   8.359
19105SOL     OW 6153   8.325   6.852   1.830
19105SOL    HW1 6154   8.342   6.862   1.928
19105SOL    HW2 6155   8.256   6.781   1.815
19106SOL     OW 6156  15.114   9.868   0.157
19106SOL    HW1 6157  15.139   9.786   0.107
19106SOL    HW2 6158  15.169   9.945   0.125
19107SOL     OW 6159  10.275   2.657   8.063
19107SOL    HW1 6160  10.231   2.657   8.153
19107SOL    HW2 6161  10.345   2.728   8.060
19108SOL     OW 6162   1.037   4.511   7.525
19108SOL    HW1 6163   1.026   4.447   7.448
19108SOL    HW2 6164   0.958   4.504   7.586
19109SOL     OW 6165  14.409   8.849   7.168
19109SOL    HW1 6166  14.363   8.937   7.159
19109SOL    HW2 6167  14.418   8.826   7.265
19110SOL     OW 6168   8.347  12.028   6.846
19110SOL    HW1 6169   8.421  12.077   6.800
19110SOL    HW2 6170   8.273  12.012   6.781
19111SOL     OW 6171   3.073   2.325   7.324
19111SOL    HW1 6172   2.996   2.375   7.364
19111SOL    HW2 6173   3.148   2.389   7.307
19112SOL     OW 6174   5.454   9.157   0.612
19112SOL    HW1 6175   5.541   9.205   0.625
19112SOL    HW2 6176   5.473   9.061   0.590
19113SOL     OW 6177   4.382  10.540   8.332
19113SOL    HW1 6178   4.479  10.517   8.325
19113SOL    HW2 6179   4.327  10.459   8.312
19114SOL     OW 6180   5.827  12.751   7.971
19114SOL    HW1 6181   5.882  12.698   8.036
19114SOL    HW2 6182   5.755  12.692   7.933
19115SOL     OW 6183   9.642   5.454   6.401
19115SOL    HW1 6184   9.739   5.444   6.423
19115SOL    HW2 6185   9.629   5.449   6.302
19116SOL     OW 6186   8.329   9.666   7.998
19116SOL    HW1 6187   8.253   9.729   8.008
19116SOL    HW2 6188   8.324   9.596   8.070
19117SOL     OW 6189   0.872   0.168   1.683
19117SOL    HW1 6190   0.970   0.152   1.699
19117SOL    HW2 6191   0.830   0.205   1.766
19118SOL     OW 6192  15.332  11.134   0.234
19118SOL    HW1 6193  15.258  11.089   0.184
19118SOL    HW2 6194  15.408  11.152   0.172
19119SOL     OW 6195   2.181  14.877   2.097
19119SOL    HW1 6196   2.207  14.957   2.152
19119SOL    HW2 6197   2.263  14.825   2.074
19120SOL     OW 6198  10.016   1.203   6.681
19120SOL    HW1 6199  10.046   1.140   6.753
19120SOL    HW2 6200   9.943   1.159   6.628
19121SOL     OW 6201  16.013  16.647   6.934
19121SOL    HW1 6202  16.006  16.704   7.016
19121SOL    HW2 6203  16.077  16.689   6.870
19122SOL     OW 6204   8.495   1.336   1.737
19122SOL    HW1 6205   8.451   1.289   1.813
19122SOL    HW2 6206   8.593   1.345   1.756
19123SOL     OW 6207  13.295   3.946   6.992
19123SOL    HW1 6208  13.269   3.879   6.922
19123SOL    HW2 6209  13.360   3.905   7.055
19124SOL     OW 6210   9.477   4.813   1.690
19124SOL    HW1 6211   9.551   4.879   1.676
19124SOL    HW2 6212   9.410   4.852   1.754
19125SOL     OW 6213  15.709   2.636   7.464
19125SOL    HW1 6214  15.769   2.590   7.530
19125SOL    HW2 6215  15.660   2.567   7.410
19126SOL     OW 6216  11.025   4.088   1.656
19126SOL    HW1 6217  11.001   4.088   1.753
19126SOL    HW2 6218  11.070   4.002   1.633
19127SOL     OW 6219  11.728  15.872   6.528
19127SOL    HW1 6220  11.752  15.965   6.500
19127SOL    HW2 6221  11.687  15.874   6.619
19128SOL     OW 6222   5.762   9.116   7.826
19128SOL    HW1 6223   5.692   9.188   7.822
19128SOL    HW2 6224   5.844   9.149   7.780
19129SOL     OW 6225   7.587  14.936   6.257
19129SOL    HW1 6226   7.503  14.989   6.239
19129SOL    HW2 6227   7.572  14.841   6.230
19130SOL     OW 6228   9.683  10.140   1.890
19130SOL    HW1 6229   9.619  10.164   1.963
19130SOL    HW2 6230   9.686  10.041   1.879
19131SOL     OW 6231   4.742  12.784   6.674
19131SOL    HW1 6232   4.759  12.692   6.639
19131SOL    HW2 6233   4.690  12.837   6.607
19132SOL     OW 6234   5.930  16.144   0.474
19132SOL    HW1 6235   5.955  16.199   0.395
19132SOL    HW2 6236   5.896  16.055   0.443
19133SOL     OW 6237  14.350  11.112   1.002
19133SOL    HW1 6238  14.378  11.033   1.056
19133SOL    HW2 6239  14.428  11.173   0.988
19134SOL     OW 6240  16.039  15.392   0.702
19134SOL    HW1 6241  16.039  15.389   0.602
19134SOL    HW2 6242  16.055  15.299   0.737
19135SOL     OW 6243  10.962   3.161   7.131
19135SOL    HW1 6244  10.880   3.105   7.119
19135SOL    HW2 6245  10.982   3.169   7.229
19136SOL     OW 6246   6.583  13.346   8.041
19136SOL    HW1 6247   6.671  13.316   8.078
19136SOL    HW2 6248   6.511  13.332   8.109
19137SOL     OW 6249   1.843   4.082   7.051
19137SOL    HW1 6250   1.867   3.992   7.013
19137SOL    HW2 6251   1.879   4.153   6.990
19138SOL     OW 6252   9.892  10.550   0.798
19138SOL    HW1 6253   9.803  10.519   0.829
19138SOL    HW2 6254   9.892  10.562   0.699
19139SOL     OW 6255  15.383   8.339   1.408
19139SOL    HW1 6256  15.480   8.360   1.422
19139SOL    HW2 6257  15.327   8.389   1.474
19140SOL     OW 6258   8.880  14.425   0.783
19140SOL    HW1 6259   8.802  14.487   0.786
19140SOL    HW2 6260   8.867  14.352   0.851
19141SOL     OW 6261  15.875  13.462   0.409
19141SOL    HW1 6262  15.786  13.488   0.447
19141SOL    HW2 6263  15.871  13.468   0.310
19142SOL     OW 6264   5.801  15.823   0.807
19142SOL    HW1 6265   5.747  15.865   0.880
19142SOL    HW2 6266   5.749  15.827   0.722
19143SOL     OW 6267  14.626  10.819   8.105
19143SOL    HW1 6268  14.539  10.816   8.056
19143SOL    HW2 6269  14.627  10.896   8.169
19144SOL     OW 6270   3.249  13.745   1.397
19144SOL    HW1 6271   3.287  13.815   1.458
19144SOL    HW2 6272   3.308  13.736   1.317
19145SOL     OW 6273  15.356  12.361   2.998
19145SOL    HW1 6274  15.328  12.399   3.087
19145SOL    HW2 6275  15.275  12.352   2.940
19146SOL     OW 6276   3.086   0.226   2.238
19146SOL    HW1 6277   3.181   0.199   2.224
19146SOL    HW2 6278   3.065   0.222   2.336
19147SOL     OW 6279   3.429   0.202   2.459
19147SOL    HW1 6280   3.364   0.257   2.512
19147SOL    HW2 6281   3.383   0.163   2.380
19148SOL     OW 6282   5.546   4.136   0.829
19148SOL    HW1 6283   5.506   4.161   0.917
19148SOL    HW2 6284   5.603   4.210   0.795
19149SOL     OW 6285   1.908  11.841   8.303
19149SOL    HW1 6286   1.816  11.879   8.314
19149SOL    HW2 6287   1.969  11.911   8.266
19150SOL     OW 6288  15.639   2.503   0.532
19150SOL    HW1 6289  15.661   2.583   0.588
19150SOL    HW2 6290  15.623   2.532   0.438
19151SOL     OW 6291  14.577  13.727   1.520
19151SOL    HW1 6292  14.623  13.717   1.432
19151SOL    HW2 6293  14.564  13.824   1.540
19152SOL     OW 6294   1.072  14.638   7.738
19152SOL    HW1 6295   1.115  14.692   7.666
19152SOL    HW2 6296   1.089  14.681   7.826
19153SOL     OW 6297  10.510  11.276   0.305
19153SOL    HW1 6298  10.587  11.298   0.364
19153SOL    HW2 6299  10.466  11.361   0.274
19154SOL     OW 6300  16.364  14.694   8.004
19154SOL    HW1 6301  16.410  14.757   7.942
19154SOL    HW2 6302  16.322  14.620   7.952
19155SOL     OW 6303   8.192  10.654   1.921
19155SOL    HW1 6304   8.269  10.592   1.936
19155SOL    HW2 6305   8.173  10.704   2.006
19156SOL     OW 6306   8.847  14.377   0.317
19156SOL    HW1 6307   8.923  14.442   0.315
19156SOL    HW2 6308   8.773  14.415   0.372
19157SOL     OW 6309   6.792  15.907   8.045
19157SOL    HW1 6310   6.734  15.834   8.009
19157SOL    HW2 6311   6.740  15.993   8.043
19158SOL     OW 6312   8.507  15.440   0.665
19158SOL    HW1 6313   8.589  15.482   0.705
19158SOL    HW2 6314   8.489  15.481   0.576
19159SOL     OW 6315   6.702   7.597   0.257
19159SOL    HW1 6316   6.630   7.590   0.326
19159SOL    HW2 6317   6.660   7.615   0.168
19160SOL     OW 6318   8.167   3.278   6.500
19160SOL    HW1 6319   8.192   3.301   6.406
19160SOL    HW2 6320   8.250   3.268   6.555
19161SOL     OW 6321   4.383   2.366   0.570
19161SOL    HW1 6322   4.296   2.394   0.611
19161SOL    HW2 6323   4.433   2.308   0.635
19162SOL     OW 6324   7.732  14.448   0.873
19162SOL    HW1 6325   7.651  14.467   0.818
19162SOL    HW2 6326   7.803  14.408   0.816
19163SOL     OW 6327  10.314  12.517   1.374
19163SOL    HW1 6328  10.241  12.460   1.336
19163SOL    HW2 6329  10.384  12.458   1.415
19164SOL     OW 6330   9.821  10.804   8.291
19164SOL    HW1 6331   9.795  10.786   8.196
19164SOL    HW2 6332   9.805  10.900   8.312
19165SOL     OW 6333  12.034  10.343   0.646
19165SOL    HW1 6334  11.961  10.301   0.699
19165SOL    HW2 6335  12.009  10.343   0.549
19166SOL     OW 6336   5.460  13.233   0.951
19166SOL    HW1 6337   5.433  13.266   0.860
19166SOL    HW2 6338   5.557  13.254   0.966
19167SOL     OW 6339   5.912   5.973   6.509
19167SOL    HW1 6340   5.945   5.934   6.423
19167SOL    HW2 6341   5.922   6.072   6.507
19168SOL     OW 6342  16.768   2.534   8.210
19168SOL    HW1 6343  16.714   2.617   8.227
19168SOL    HW2 6344  16.758   2.472   8.287
19169SOL     OW 6345  11.574  15.045   1.587
19169SOL    HW1 6346  11.559  14.974   1.518
19169SOL    HW2 6347  11.537  15.014   1.675
19170SOL     OW 6348   7.104  13.970   1.314
19170SOL    HW1 6349   7.108  14.007   1.407
19170SOL    HW2 6350   7.014  13.930   1.298
19171SOL     OW 6351   8.837   5.228   7.904
19171SOL    HW1 6352   8.763   5.208   7.968
19171SOL    HW2 6353   8.911   5.276   7.952
19172SOL     OW 6354   6.147   9.437   1.662
19172SOL    HW1 6355   6.143   9.360   1.598
19172SOL    HW2 6356   6.232   9.432   1.715
19173SOL     OW 6357  15.967   9.618   6.961
19173SOL    HW1 6358  15.958   9.601   7.059
19173SOL    HW2 6359  16.058   9.589   6.930
19174SOL     OW 6360  13.727   9.179   0.149
19174SOL    HW1 6361  13.782   9.129   0.216
19174SOL    HW2 6362  13.778   9.258   0.116
19175SOL     OW 6363  15.433   7.049   7.907
19175SOL    HW1 6364  15.402   6.954   7.912
19175SOL    HW2 6365  15.363   7.105   7.862
19176SOL     OW 6366   0.208   6.522   6.572
19176SOL    HW1 6367   0.260   6.592   6.524
19176SOL    HW2 6368   0.119   6.510   6.528
19177SOL     OW 6369  10.996  10.725   8.109
19177SOL    HW1 6370  10.994  10.716   8.009
19177SOL    HW2 6371  10.906  10.699   8.146
19178SOL     OW 6372  16.198   9.252   7.442
19178SOL    HW1 6373  16.178   9.349   7.429
19178SOL    HW2 6374  16.265   9.242   7.516
19179SOL     OW 6375   2.643   6.079   6.409
19179SOL    HW1 6376   2.639   6.165   6.358
19179SOL    HW2 6377   2.599   6.091   6.498
19180SOL     OW 6378   2.697  15.597   7.535
19180SOL    HW1 6379   2.767  15.534   7.501
19180SOL    HW2 6380   2.707  15.685   7.490
19181SOL     OW 6381   2.016   6.757   8.235
19181SOL    HW1 6382   2.073   6.744   8.317
19181SOL    HW2 6383   1.935   6.810   8.259
19182SOL     OW 6384  14.855   8.690   7.289
19182SOL    HW1 6385  14.792   8.756   7.248
19182SOL    HW2 6386  14.926   8.668   7.223
19183SOL     OW 6387  16.732   3.291   1.072
19183SOL    HW1 6388  16.680   3.352   1.132
19183SOL    HW2 6389  16.830   3.301   1.091
19184SOL     OW 6390  12.140  13.320   1.320
19184SOL    HW1 6391  12.072  13.257   1.282
19184SOL    HW2 6392  12.192  13.274   1.391
19185SOL     OW 6393  16.972   4.020   6.356
19185SOL    HW1 6394  16.913   4.086   6.403
19185SOL    HW2 6395   0.056   4.069   6.301
19186SOL     OW 6396  10.601   4.251   1.606
19186SOL    HW1 6397  10.642   4.204   1.684
19186SOL    HW2 6398  10.623   4.202   1.522
19187SOL     OW 6399   5.115  15.057   8.295
19187SOL    HW1 6400   5.109  14.957   8.295
19187SOL    HW2 6401   5.092  15.092   8.386
19188SOL     OW 6402   2.206   1.046   1.352
19188SOL    HW1 6403   2.124   0.988   1.356
19188SOL    HW2 6404   2.263   1.017   1.275
19189SOL     OW 6405   2.885  11.758   0.809
19189SOL    HW1 6406   2.856  11.665   0.829
19189SOL    HW2 6407   2.949  11.757   0.732
19190SOL     OW 6408   0.847   5.054   1.665
19190SOL    HW1 6409   0.763   5.004   1.684
19190SOL    HW2 6410   0.923   5.011   1.714
19191SOL     OW 6411  16.206  11.223   1.956
19191SOL    HW1 6412  16.276  11.219   1.885
19191SOL    HW2 6413  16.230  11.159   2.030
19192SOL     OW 6414  15.300  10.223   0.549
19192SOL    HW1 6415  15.343  10.307   0.581
19192SOL    HW2 6416  15.304  10.153   0.620
19193SOL     OW 6417  15.867   3.732   7.456
19193SOL    HW1 6418  15.849   3.766   7.548
19193SOL    HW2 6419  15.814   3.785   7.390
19194SOL     OW 6420  12.685  11.132   1.769
19194SOL    HW1 6421  12.708  11.130   1.672
19194SOL    HW2 6422  12.672  11.039   1.803
19195SOL     OW 6423   9.067   4.649   8.393
19195SOL    HW1 6424   9.035   4.592   0.014
19195SOL    HW2 6425   9.018   4.737   8.394
19196SOL     OW 6426   6.885  10.485   7.792
19196SOL    HW1 6427   6.909  10.555   7.859
19196SOL    HW2 6428   6.945  10.491   7.713
19197SOL     OW 6429   0.417  11.816   1.954
19197SOL    HW1 6430   0.344  11.853   2.012
19197SOL    HW2 6431   0.430  11.875   1.874
19198SOL     OW 6432  10.934  12.949   7.320
19198SOL    HW1 6433  10.999  13.009   7.274
19198SOL    HW2 6434  10.865  12.918   7.254
19199SOL     OW 6435   4.369   8.545   2.003
19199SOL    HW1 6436   4.342   8.512   2.093
19199SOL    HW2 6437   4.297   8.603   1.966
19200SOL     OW 6438  12.816  15.379   1.616
19200SOL    HW1 6439  12.789  15.465   1.575
19200SOL    HW2 6440  12.914  15.366   1.604
19201SOL     OW 6441   4.596   5.149   2.274
19201SOL    HW1 6442   4.669   5.201   2.318
19201SOL    HW2 6443   4.516   5.208   2.260
19202SOL     OW 6444   4.028   1.505   0.639
19202SOL    HW1 6445   3.945   1.546   0.676
19202SOL    HW2 6446   4.009   1.411   0.609
19203SOL     OW 6447  11.628  10.266   0.232
19203SOL    HW1 6448  11.635  10.175   0.191
19203SOL    HW2 6449  11.718  10.294   0.266
19204SOL     OW 6450   4.578   6.356   0.270
19204SOL    HW1 6451   4.509   6.292   0.305
19204SOL    HW2 6452   4.536   6.416   0.202
19205SOL     OW 6453   1.339  11.262   1.162
19205SOL    HW1 6454   1.268  11.194   1.143
19205SOL    HW2 6455   1.429  11.222   1.141
19206SOL     OW 6456   7.876   6.228   8.253
19206SOL    HW1 6457   7.901   6.155   8.316
19206SOL    HW2 6458   7.900   6.200   8.159
19207SOL     OW 6459   5.644  11.522   0.629
19207SOL    HW1 6460   5.563  11.495   0.681
19207SOL    HW2 6461   5.723  11.523   0.690
19208SOL     OW 6462   2.605   4.588   6.600
19208SOL    HW1 6463   2.573   4.500   6.636
19208SOL    HW2 6464   2.692   4.575   6.552
19209SOL     OW 6465  13.439   8.310   0.077
19209SOL    HW1 6466  13.363   8.259   0.038
19209SOL    HW2 6467  13.421   8.408   0.067
19210SOL     OW 6468   7.811   7.453   8.380
19210SOL    HW1 6469   7.895   7.499   8.407
19210SOL    HW2 6470   7.772   7.404   0.005
19211SOL     OW 6471   7.894  16.496   7.943
19211SOL    HW1 6472   7.992  16.496   7.921
19211SOL    HW2 6473   7.845  16.438   7.877
19212SOL     OW 6474  12.776   9.791   1.270
19212SOL    HW1 6475  12.747   9.705   1.227
19212SOL    HW2 6476  12.708   9.862   1.250
19213SOL     OW 6477   0.774   4.704   1.673
19213SOL    HW1 6478   0.721   4.784   1.701
19213SOL    HW2 6479   0.712   4.632   1.642
19214SOL     OW 6480   4.269   8.561   0.617
19214SOL    HW1 6481   4.214   8.506   0.680
19214SOL    HW2 6482   4.344   8.604   0.667
19215SOL     OW 6483  10.402  16.818   0.137
19215SOL    HW1 6484  10.340  16.896   0.129
19215SOL    HW2 6485  10.447  16.820   0.226
19216SOL     OW 6486   5.907   5.614   6.827
19216SOL    HW1 6487   5.903   5.691   6.892
19216SOL    HW2 6488   5.827   5.556   6.839
19217SOL     OW 6489  15.603  11.204   0.827
19217SOL    HW1 6490  15.670  11.138   0.861
19217SOL    HW2 6491  15.513  11.184   0.866
19218SOL     OW 6492   0.330   3.155   6.639
19218SOL    HW1 6493   0.330   3.089   6.713
19218SOL    HW2 6494   0.336   3.107   6.551
19219SOL     OW 6495   0.391  12.089   2.450
19219SOL    HW1 6496   0.476  12.079   2.501
19219SOL    HW2 6497   0.335  12.007   2.463
19220SOL     OW 6498  11.390   2.016   0.240
19220SOL    HW1 6499  11.418   2.105   0.205
19220SOL    HW2 6500  11.371   2.024   0.338
19221SOL     OW 6501   3.320   8.616   8.281
19221SOL    HW1 6502   3.241   8.597   8.222
19221SOL    HW2 6503   3.390   8.547   8.267
19222SOL     OW 6504  11.261   0.656   0.179
19222SOL    HW1 6505  11.318   0.608   0.113
19222SOL    HW2 6506  11.181   0.694   0.133
19223SOL     OW 6507   6.249  13.352   7.903
19223SOL    HW1 6508   6.269  13.276   7.965
19223SOL    HW2 6509   6.302  13.432   7.930
19224SOL     OW 6510  16.730  15.216   2.218
19224SOL    HW1 6511  16.682  15.266   2.290
19224SOL    HW2 6512  16.813  15.266   2.192
19225SOL     OW 6513  11.210  11.275   7.862
19225SOL    HW1 6514  11.161  11.224   7.791
19225SOL    HW2 6515  11.289  11.321   7.823
19226SOL     OW 6516  12.336  11.939   7.439
19226SOL    HW1 6517  12.296  12.023   7.476
19226SOL    HW2 6518  12.267  11.867   7.439
19227SOL     OW 6519  11.248  14.986   0.655
19227SOL    HW1 6520  11.272  15.064   0.713
19227SOL    HW2 6521  11.301  14.989   0.570
19228SOL     OW 6522  11.023  13.416   1.200
19228SOL    HW1 6523  11.101  13.382   1.252
19228SOL    HW2 6524  11.044  13.414   1.103
19229SOL     OW 6525   2.596  14.292   0.350
19229SOL    HW1 6526   2.555  14.383   0.350
19229SOL    HW2 6527   2.544  14.232   0.289
19230SOL     OW 6528  11.727   4.183   7.614
19230SOL    HW1 6529  11.702   4.280   7.606
19230SOL    HW2 6530  11.778   4.168   7.699
19231SOL     OW 6531   9.534  15.029   8.326
19231SOL    HW1 6532   9.586  15.069   8.401
19231SOL    HW2 6533   9.563  15.071   8.240
19232SOL     OW 6534  13.211   6.380   7.369
19232SOL    HW1 6535  13.158   6.341   7.444
19232SOL    HW2 6536  13.177   6.344   7.282
19233SOL     OW 6537  15.455   3.786   7.204
19233SOL    HW1 6538  15.476   3.805   7.108
19233SOL    HW2 6539  15.534   3.809   7.261
19234SOL     OW 6540   0.562   3.067   6.925
19234SOL    HW1 6541   0.512   3.111   7.000
19234SOL    HW2 6542   0.498   3.019   6.865
19235SOL     OW 6543   1.691   1.319   6.792
19235SOL    HW1 6544   1.616   1.373   6.755
19235SOL    HW2 6545   1.778   1.350   6.753
19236SOL     OW 6546   0.506  10.915   8.439
19236SOL    HW1 6547   0.540  11.006   8.418
19236SOL    HW2 6548   0.427  10.894   8.381
19237SOL     OW 6549   7.556  12.602   0.778
19237SOL    HW1 6550   7.550  12.626   0.875
19237SOL    HW2 6551   7.464  12.583   0.743
19238SOL     OW 6552   7.241   7.402   8.185
19238SOL    HW1 6553   7.210   7.324   8.240
19238SOL    HW2 6554   7.165   7.437   8.131
19239SOL     OW 6555   3.040  16.719   0.299
19239SOL    HW1 6556   3.013  16.623   0.308
19239SOL    HW2 6557   3.133  16.732   0.334
19240SOL     OW 6558   4.968  15.321   0.574
19240SOL    HW1 6559   4.896  15.338   0.641
19240SOL    HW2 6560   4.979  15.401   0.514
19241SOL     OW 6561   8.145   3.819   6.468
19241SOL    HW1 6562   8.093   3.736   6.484
19241SOL    HW2 6563   8.240   3.805   6.495
19242SOL     OW 6564  11.162  13.256   6.376
19242SOL    HW1 6565  11.122  13.203   6.302
19242SOL    HW2 6566  11.257  13.228   6.389
19243SOL     OW 6567  13.224  11.238   8.226
19243SOL    HW1 6568  13.185  11.285   8.147
19243SOL    HW2 6569  13.307  11.285   8.256
19244SOL     OW 6570  13.253   4.934   6.053
19244SOL    HW1 6571  13.342   4.923   6.097
19244SOL    HW2 6572  13.233   4.854   5.997
19245SOL     OW 6573  11.412  16.145   0.822
19245SOL    HW1 6574  11.509  16.124   0.831
19245SOL    HW2 6575  11.401  16.241   0.796
19246SOL     OW 6576  16.663   2.084   0.579
19246SOL    HW1 6577  16.681   1.992   0.542
19246SOL    HW2 6578  16.746   2.121   0.619
19247SOL     OW 6579   4.227   8.974   0.512
19247SOL    HW1 6580   4.325   8.990   0.501
19247SOL    HW2 6581   4.196   9.017   0.598
19248SOL     OW 6582  11.827   9.495   6.412
19248SOL    HW1 6583  11.862   9.584   6.442
19248SOL    HW2 6584  11.743   9.508   6.360
19249SOL     OW 6585   4.935   9.391   0.939
19249SOL    HW1 6586   4.868   9.350   0.877
19249SOL    HW2 6587   4.960   9.325   1.009
19250SOL     OW 6588  12.207  10.287   1.367
19250SOL    HW1 6589  12.116  10.246   1.369
19250SOL    HW2 6590  12.200  10.386   1.356
19251SOL     OW 6591   9.296  11.684   1.461
19251SOL    HW1 6592   9.306  11.773   1.417
19251SOL    HW2 6593   9.213  11.683   1.517
19252SOL     OW 6594  12.543  11.461   1.147
19252SOL    HW1 6595  12.618  11.448   1.083
19252SOL    HW2 6596  12.579  11.473   1.239
19253SOL     OW 6597  12.819   8.753   0.434
19253SOL    HW1 6598  12.906   8.734   0.479
19253SOL    HW2 6599  12.798   8.851   0.442
19254SOL     OW 6600   8.921   9.145   1.028
19254SOL    HW1 6601   8.845   9.194   0.986
19254SOL    HW2 6602   8.899   9.048   1.036
19255SOL     OW 6603   5.589   6.213   2.165
19255SOL    HW1 6604   5.543   6.223   2.253
19255SOL    HW2 6605   5.678   6.172   2.179
19256SOL     OW 6606  10.687   2.533   0.572
19256SOL    HW1 6607  10.713   2.438   0.590
19256SOL    HW2 6608  10.630   2.566   0.647
19257SOL     OW 6609  10.565  10.981   2.264
19257SOL    HW1 6610  10.629  10.965   2.339
19257SOL    HW2 6611  10.492  10.913   2.266
19258SOL     OW 6612   5.361   9.602   7.800
19258SOL    HW1 6613   5.359   9.551   7.714
19258SOL    HW2 6614   5.294   9.676   7.798
19259SOL     OW 6615  14.296   2.665   7.606
19259SOL    HW1 6616  14.310   2.581   7.553
19259SOL    HW2 6617  14.382   2.693   7.647
19260SOL     OW 6618  15.922  13.628   8.189
19260SOL    HW1 6619  15.963  13.655   8.276
19260SOL    HW2 6620  15.824  13.614   8.201
19261SOL     OW 6621   0.223   0.965   8.071
19261SOL    HW1 6622   0.189   0.907   7.997
19261SOL    HW2 6623   0.268   0.908   8.140
19262SOL     OW 6624   5.731   3.632   2.323
19262SOL    HW1 6625   5.689   3.710   2.278
19262SOL    HW2 6626   5.781   3.662   2.404
19263SOL     OW 6627   3.891   4.412   6.768
19263SOL    HW1 6628   3.962   4.433   6.701
19263SOL    HW2 6629   3.896   4.477   6.844
19264SOL     OW 6630  15.535   1.644   8.003
19264SOL    HW1 6631  15.501   1.693   8.084
19264SOL    HW2 6632  15.570   1.710   7.936
19265SOL     OW 6633   0.540   8.509   8.020
19265SOL    HW1 6634   0.487   8.540   7.941
19265SOL    HW2 6635   0.610   8.444   7.990
19266SOL     OW 6636  10.023   8.455   6.216
19266SOL    HW1 6637   9.939   8.404   6.200
19266SOL    HW2 6638  10.004   8.535   6.274
19267SOL     OW 6639   6.985   7.286   0.027
19267SOL    HW1 6640   7.057   7.233   8.435
19267SOL    HW2 6641   6.905   7.292   8.422
19268SOL     OW 6642  13.683  15.730   1.245
19268SOL    HW1 6643  13.604  15.783   1.277
19268SOL    HW2 6644  13.757  15.792   1.221
19269SOL     OW 6645   4.669   0.165   8.422
19269SOL    HW1 6646   4.688   0.067   8.427
19269SOL    HW2 6647   4.703   0.209   0.051
19270SOL     OW 6648   0.423   3.540   7.210
19270SOL    HW1 6649   0.487   3.604   7.252
19270SOL    HW2 6650   0.405   3.568   7.116
19271SOL     OW 6651  16.349  13.610   7.305
19271SOL    HW1 6652  16.309  13.701   7.309
19271SOL    HW2 6653  16.403  13.601   7.221
19272SOL     OW 6654   9.325  10.963   1.655
19272SOL    HW1 6655   9.243  10.907   1.646
19272SOL    HW2 6656   9.386  10.922   1.723
19273SOL     OW 6657   0.270   7.775   0.439
19273SOL    HW1 6658   0.345   7.719   0.404
19273SOL    HW2 6659   0.188   7.718   0.449
19274SOL     OW 6660   8.616  10.281   1.395
19274SOL    HW1 6661   8.659  10.197   1.430
19274SOL    HW2 6662   8.650  10.359   1.446
19275SOL     OW 6663   3.294   6.416   2.172
19275SOL    HW1 6664   3.349   6.351   2.226
19275SOL    HW2 6665   3.198   6.405   2.196
19276SOL     OW 6666  16.103  16.062   7.454
19276SOL    HW1 6667  16.146  16.012   7.530
19276SOL    HW2 6668  16.120  16.160   7.465
19277SOL     OW 6669  12.991   5.056   6.924
19277SOL    HW1 6670  12.964   5.055   7.020
19277SOL    HW2 6671  12.912   5.080   6.868
19278SOL     OW 6672  15.095   2.245   7.748
19278SOL    HW1 6673  15.154   2.180   7.795
19278SOL    HW2 6674  15.052   2.200   7.669
19279SOL     OW 6675  13.383   9.050   7.340
19279SOL    HW1 6676  13.347   9.109   7.268
19279SOL    HW2 6677  13.478   9.027   7.320
19280SOL     OW 6678  12.476  12.382   0.141
19280SOL    HW1 6679  12.445  12.375   0.236
19280SOL    HW2 6680  12.415  12.330   0.081
19281SOL     OW 6681   5.644   0.804   8.406
19281SOL    HW1 6682   5.729   0.850   8.432
19281SOL    HW2 6683   5.632   0.721   0.007
19282SOL     OW 6684   7.760  14.984   0.086
19282SOL    HW1 6685   7.742  14.949   8.448
19282SOL    HW2 6686   7.706  14.932   0.153
19283SOL     OW 6687  16.901   5.750   8.101
19283SOL    HW1 6688  16.852   5.765   8.015
19283SOL    HW2 6689  16.931   5.654   8.105
19284SOL     OW 6690   1.096   7.578   0.480
19284SOL    HW1 6691   1.078   7.657   0.539
19284SOL    HW2 6692   1.020   7.514   0.485
19285SOL     OW 6693  14.650  15.027   6.928
19285SOL    HW1 6694  14.663  15.115   6.975
19285SOL    HW2 6695  14.693  15.030   6.838
19286SOL     OW 6696   6.983   4.958   0.753
19286SOL    HW1 6697   7.012   4.878   0.702
19286SOL    HW2 6698   7.051   5.031   0.742
19287SOL     OW 6699   2.943  13.748   7.994
19287SOL    HW1 6700   2.998  13.813   7.942
19287SOL    HW2 6701   2.846  13.762   7.972
19288SOL     OW 6702  16.312   7.125   7.653
19288SOL    HW1 6703  16.283   7.220   7.658
19288SOL    HW2 6704  16.263   7.071   7.722
19289SOL     OW 6705   6.780  14.862   1.370
19289SOL    HW1 6706   6.840  14.810   1.431
19289SOL    HW2 6707   6.685  14.837   1.388
19290SOL     OW 6708  11.258   3.272   7.379
19290SOL    HW1 6709  11.200   3.354   7.383
19290SOL    HW2 6710  11.352   3.296   7.402
19291SOL     OW 6711   9.279  11.152   6.087
19291SOL    HW1 6712   9.210  11.099   6.137
19291SOL    HW2 6713   9.360  11.096   6.074
19292SOL     OW 6714   9.533  11.454   0.804
19292SOL    HW1 6715   9.533  11.519   0.880
19292SOL    HW2 6716   9.622  11.455   0.758
19293SOL     OW 6717  10.331  10.508   1.089
19293SOL    HW1 6718  10.332  10.570   1.011
19293SOL    HW2 6719  10.255  10.443   1.079
19294SOL     OW 6720  10.756  13.568   8.116
19294SOL    HW1 6721  10.789  13.539   8.026
19294SOL    HW2 6722  10.823  13.630   8.158
19295SOL     OW 6723   6.442   6.299   7.174
19295SOL    HW1 6724   6.453   6.229   7.104
19295SOL    HW2 6725   6.532   6.328   7.207
19296SOL     OW 6726   1.420   2.902   6.555
19296SOL    HW1 6727   1.409   2.884   6.457
19296SOL    HW2 6728   1.506   2.863   6.587
19297SOL     OW 6729   4.517   2.727   0.825
19297SOL    HW1 6730   4.489   2.651   0.884
19297SOL    HW2 6731   4.610   2.754   0.847
19298SOL     OW 6732   7.576  10.535   0.214
19298SOL    HW1 6733   7.626  10.620   0.197
19298SOL    HW2 6734   7.523  10.510   0.132
19299SOL     OW 6735  10.281  15.061   2.336
19299SOL    HW1 6736  10.209  15.120   2.371
19299SOL    HW2 6737  10.258  14.965   2.355
19300SOL     OW 6738   5.820   5.273   7.130
19300SOL    HW1 6739   5.818   5.233   7.038
19300SOL    HW2 6740   5.769   5.359   7.129
19301SOL     OW 6741   5.261   4.176   0.658
19301SOL    HW1 6742   5.338   4.174   0.594
19301SOL    HW2 6743   5.262   4.092   0.713
19302SOL     OW 6744   3.126  15.513   0.545
19302SOL    HW1 6745   3.053  15.474   0.601
19302SOL    HW2 6746   3.214  15.484   0.582
19303SOL     OW 6747   7.002   6.691   7.314
19303SOL    HW1 6748   6.930   6.745   7.357
19303SOL    HW2 6749   7.070   6.752   7.274
19304SOL     OW 6750   2.704  16.303   6.982
19304SOL    HW1 6751   2.622  16.329   7.033
19304SOL    HW2 6752   2.716  16.204   6.987
19305SOL     OW 6753   9.260   1.949   1.733
19305SOL    HW1 6754   9.355   1.919   1.736
19305SOL    HW2 6755   9.253   2.043   1.767
19306SOL     OW 6756   5.507   3.645   7.058
19306SOL    HW1 6757   5.567   3.723   7.036
19306SOL    HW2 6758   5.521   3.572   6.991
19307SOL     OW 6759   2.725   9.503   1.860
19307SOL    HW1 6760   2.778   9.513   1.944
19307SOL    HW2 6761   2.666   9.422   1.868
19308SOL     OW 6762  13.495   6.298   0.118
19308SOL    HW1 6763  13.584   6.257   0.137
19308SOL    HW2 6764  13.507   6.384   0.069
19309SOL     OW 6765  13.427  11.437   0.953
19309SOL    HW1 6766  13.438  11.379   1.034
19309SOL    HW2 6767  13.468  11.390   0.874
19310SOL     OW 6768  10.047  16.396   7.343
19310SOL    HW1 6769  10.112  16.356   7.408
19310SOL    HW2 6770  10.098  16.437   7.266
19311SOL     OW 6771   0.553  15.902   7.312
19311SOL    HW1 6772   0.484  15.958   7.265
19311SOL    HW2 6773   0.546  15.807   7.281
19312SOL     OW 6774   2.152  13.591   8.310
19312SOL    HW1 6775   2.109  13.501   8.309
19312SOL    HW2 6776   2.082  13.661   8.330
19313SOL     OW 6777   7.021   1.773   7.248
19313SOL    HW1 6778   7.095   1.820   7.200
19313SOL    HW2 6779   6.940   1.770   7.190
19314SOL     OW 6780   1.317   1.027   7.666
19314SOL    HW1 6781   1.250   1.038   7.740
19314SOL    HW2 6782   1.381   0.954   7.689
19315SOL     OW 6783  10.862   4.374   6.334
19315SOL    HW1 6784  10.788   4.347   6.272
19315SOL    HW2 6785  10.934   4.418   6.281
19316SOL     OW 6786   6.224  13.677   0.910
19316SOL    HW1 6787   6.135  13.671   0.865
19316SOL    HW2 6788   6.287  13.731   0.854
19317SOL     OW 6789   5.536   4.443   0.022
19317SOL    HW1 6790   5.478   4.508   8.426
19317SOL    HW2 6791   5.480   4.387   0.082
19318SOL     OW 6792  10.716  15.143   0.742
19318SOL    HW1 6793  10.749  15.234   0.718
19318SOL    HW2 6794  10.709  15.087   0.660
19319SOL     OW 6795  11.104   2.348   6.921
19319SOL    HW1 6796  11.162   2.279   6.877
19319SOL    HW2 6797  11.036   2.381   6.856
19320SOL     OW 6798   6.326  10.144   0.552
19320SOL    HW1 6799   6.316  10.045   0.567
19320SOL    HW2 6800   6.292  10.167   0.461
19321SOL     OW 6801   9.195   0.066   7.205
19321SOL    HW1 6802   9.106   0.091   7.242
19321SOL    HW2 6803   9.199  16.951   7.190
19322SOL     OW 6804   8.409  13.261   0.992
19322SOL    HW1 6805   8.505  13.233   0.987
19322SOL    HW2 6806   8.350  13.184   0.968
19323SOL     OW 6807   4.149  16.605   0.767
19323SOL    HW1 6808   4.087  16.533   0.738
19323SOL    HW2 6809   4.097  16.688   0.788
19324SOL     OW 6810   8.227  12.049   0.844
19324SOL    HW1 6811   8.192  12.142   0.859
19324SOL    HW2 6812   8.297  12.051   0.773
19325SOL     OW 6813   3.523  16.762   0.538
19325SOL    HW1 6814   3.617  16.791   0.522
19325SOL    HW2 6815   3.517  16.713   0.625
19326SOL     OW 6816  15.422   3.371   8.075
19326SOL    HW1 6817  15.484   3.380   7.998
19326SOL    HW2 6818  15.464   3.315   8.146
19327SOL     OW 6819  16.194  11.944   1.501
19327SOL    HW1 6820  16.187  11.907   1.594
19327SOL    HW2 6821  16.202  11.869   1.436
19328SOL     OW 6822  14.312   8.853   8.274
19328SOL    HW1 6823  14.214   8.871   8.277
19328SOL    HW2 6824  14.358   8.910   8.342
19329SOL     OW 6825  12.045   8.248   7.490
19329SOL    HW1 6826  11.985   8.174   7.522
19329SOL    HW2 6827  12.086   8.295   7.568
19330SOL     OW 6828  16.620   4.678   0.445
19330SOL    HW1 6829  16.554   4.659   0.373
19330SOL    HW2 6830  16.626   4.599   0.507
19331SOL     OW 6831   2.069   5.183   6.710
19331SOL    HW1 6832   2.048   5.137   6.623
19331SOL    HW2 6833   2.087   5.280   6.692
19332SOL     OW 6834  15.700  10.528   8.101
19332SOL    HW1 6835  15.794  10.562   8.102
19332SOL    HW2 6836  15.680  10.488   8.012
19333SOL     OW 6837  11.564   9.795   6.795
19333SOL    HW1 6838  11.624   9.775   6.717
19333SOL    HW2 6839  11.503   9.871   6.771
19334SOL     OW 6840   1.229  16.051   1.368
19334SOL    HW1 6841   1.213  16.148   1.384
19334SOL    HW2 6842   1.196  15.998   1.447
19335SOL     OW 6843  12.829  10.263   0.622
19335SOL    HW1 6844  12.892  10.234   0.549
19335SOL    HW2 6845  12.795  10.182   0.670
19336SOL     OW 6846  13.876  15.395   0.722
19336SOL    HW1 6847  13.801  15.454   0.754
19336SOL    HW2 6848  13.842  15.301   0.711
19337SOL     OW 6849   1.707  10.551   8.292
19337SOL    HW1 6850   1.737  10.487   8.362
19337SOL    HW2 6851   1.625  10.516   8.247
19338SOL     OW 6852  15.380   4.809   1.138
19338SOL    HW1 6853  15.426   4.874   1.078
19338SOL    HW2 6854  15.411   4.823   1.232
19339SOL     OW 6855   5.514   2.238   1.303
19339SOL    HW1 6856   5.465   2.213   1.219
19339SOL    HW2 6857   5.610   2.257   1.282
19340SOL     OW 6858   0.618   3.571   0.784
19340SOL    HW1 6859   0.606   3.600   0.879
19340SOL    HW2 6860   0.623   3.471   0.779
19341SOL     OW 6861  14.630   9.670   0.445
19341SOL    HW1 6862  14.615   9.613   0.525
19341SOL    HW2 6863  14.560   9.649   0.376
19342SOL     OW 6864  12.924   8.014   7.114
19342SOL    HW1 6865  12.950   8.070   7.035
19342SOL    HW2 6866  12.981   8.039   7.192
19343SOL     OW 6867  14.906   7.299   7.176
19343SOL    HW1 6868  14.827   7.272   7.120
19343SOL    HW2 6869  14.944   7.217   7.220
19344SOL     OW 6870  16.224   0.701   0.565
19344SOL    HW1 6871  16.290   0.626   0.554
19344SOL    HW2 6872  16.136   0.674   0.525
19345SOL     OW 6873   0.895  14.868   0.528
19345SOL    HW1 6874   0.815  14.826   0.486
19345SOL    HW2 6875   0.908  14.960   0.491
19346SOL     OW 6876  13.352  10.790   1.565
19346SOL    HW1 6877  13.324  10.882   1.590
19346SOL    HW2 6878  13.350  10.731   1.646
19347SOL     OW 6879  10.495   1.227   7.084
19347SOL    HW1 6880  10.554   1.172   7.024
19347SOL    HW2 6881  10.537   1.317   7.097
19348SOL     OW 6882  11.611   6.195   1.493
19348SOL    HW1 6883  11.603   6.236   1.584
19348SOL    HW2 6884  11.520   6.185   1.453
19349SOL     OW 6885  11.946   6.995   2.025
19349SOL    HW1 6886  11.882   6.970   2.098
19349SOL    HW2 6887  12.034   7.020   2.065
19350SOL     OW 6888  13.577   4.411   7.576
19350SOL    HW1 6889  13.675   4.414   7.555
19350SOL    HW2 6890  13.525   4.440   7.495
19351SOL     OW 6891   1.780   9.806   7.139
19351SOL    HW1 6892   1.760   9.880   7.074
19351SOL    HW2 6893   1.817   9.728   7.090
19352SOL     OW 6894  13.604   4.444   6.202
19352SOL    HW1 6895  13.659   4.362   6.185
19352SOL    HW2 6896  13.607   4.466   6.299
19353SOL     OW 6897   9.948  14.771   0.687
19353SOL    HW1 6898   9.863  14.749   0.639
19353SOL    HW2 6899   9.930  14.776   0.785
19354SOL     OW 6900  13.980   8.714   6.722
19354SOL    HW1 6901  14.071   8.698   6.759
19354SOL    HW2 6902  13.983   8.788   6.655
19355SOL     OW 6903  14.450  13.524   7.231
19355SOL    HW1 6904  14.482  13.450   7.173
19355SOL    HW2 6905  14.440  13.491   7.325
19356SOL     OW 6906   4.627  14.377   2.359
19356SOL    HW1 6907   4.609  14.302   2.423
19356SOL    HW2 6908   4.540  14.421   2.335
19357SOL     OW 6909  13.910   7.488   0.346
19357SOL    HW1 6910  13.932   7.544   0.427
19357SOL    HW2 6911  13.869   7.402   0.376
19358SOL     OW 6912   9.706  14.626   0.139
19358SOL    HW1 6913   9.802  14.598   0.141
19358SOL    HW2 6914   9.690  14.683   0.058
19359SOL     OW 6915  14.276   0.208   1.544
19359SOL    HW1 6916  14.289   0.301   1.579
19359SOL    HW2 6917  14.293   0.208   1.445
19360SOL     OW 6918   8.705   3.862   7.070
19360SOL    HW1 6919   8.674   3.820   7.155
19360SOL    HW2 6920   8.627   3.889   7.014
19361SOL     OW 6921  14.820   1.838   7.894
19361SOL    HW1 6922  14.742   1.845   7.832
19361SOL    HW2 6923  14.829   1.923   7.946
19362SOL     OW 6924   6.743   9.751   0.639
19362SOL    HW1 6925   6.793   9.706   0.713
19362SOL    HW2 6926   6.647   9.761   0.666
19363SOL     OW 6927   0.835   2.699   1.817
19363SOL    HW1 6928   0.779   2.763   1.764
19363SOL    HW2 6929   0.927   2.696   1.779
19364SOL     OW 6930   2.272  15.954   1.585
19364SOL    HW1 6931   2.203  15.978   1.517
19364SOL    HW2 6932   2.287  15.855   1.583
19365SOL     OW 6933   4.872   9.760   0.112
19365SOL    HW1 6934   4.938   9.692   0.081
19365SOL    HW2 6935   4.825   9.799   0.032
19366SOL     OW 6936   1.481   5.172   8.023
19366SOL    HW1 6937   1.498   5.159   8.121
19366SOL    HW2 6938   1.445   5.264   8.007
19367SOL     OW 6939   2.862   5.476   6.766
19367SOL    HW1 6940   2.951   5.449   6.729
19367SOL    HW2 6941   2.812   5.529   6.697
19368SOL     OW 6942   1.192  10.393   8.453
19368SOL    HW1 6943   1.141  10.308   0.014
19368SOL    HW2 6944   1.220  10.399   8.357
19369SOL     OW 6945  10.921  10.139   7.682
19369SOL    HW1 6946  10.909  10.159   7.584
19369SOL    HW2 6947  10.833  10.148   7.729
19370SOL     OW 6948   9.279  14.999   8.228
19370SOL    HW1 6949   9.218  14.944   8.285
19370SOL    HW2 6950   9.368  15.008   8.272
19371SOL     OW 6951   3.675   1.920   6.694
19371SOL    HW1 6952   3.737   1.922   6.616
19371SOL    HW2 6953   3.592   1.869   6.671
19372SOL     OW 6954   1.668  14.382   1.012
19372SOL    HW1 6955   1.758  14.380   1.056
19372SOL    HW2 6956   1.614  14.456   1.052
19373SOL     OW 6957   4.397   7.241   2.307
19373SOL    HW1 6958   4.475   7.268   2.365
19373SOL    HW2 6959   4.312   7.253   2.358
19374SOL     OW 6960   5.163  16.712   7.381
19374SOL    HW1 6961   5.110  16.655   7.319
19374SOL    HW2 6962   5.204  16.655   7.452
19375SOL     OW 6963   6.094   9.749   0.745
19375SOL    HW1 6964   5.994   9.745   0.737
19375SOL    HW2 6965   6.119   9.814   0.817
19376SOL     OW 6966   1.947   4.634   8.350
19376SOL    HW1 6967   1.848   4.627   8.341
19376SOL    HW2 6968   1.986   4.542   8.353
19377SOL     OW 6969  14.112   4.416   6.329
19377SOL    HW1 6970  14.170   4.414   6.411
19377SOL    HW2 6971  14.034   4.356   6.342
19378SOL     OW 6972  15.424   1.984   6.404
19378SOL    HW1 6973  15.402   2.071   6.359
19378SOL    HW2 6974  15.516   1.955   6.378
19379SOL     OW 6975   0.121  14.269   0.806
19379SOL    HW1 6976   0.037  14.308   0.769
19379SOL    HW2 6977   0.099  14.206   0.881
19380SOL     OW 6978   3.890   6.337   0.118
19380SOL    HW1 6979   3.974   6.307   0.164
19380SOL    HW2 6980   3.849   6.260   0.070
19381SOL     OW 6981  12.856  16.767   7.824
19381SOL    HW1 6982  12.795  16.703   7.871
19381SOL    HW2 6983  12.910  16.817   7.892
19382SOL     OW 6984   8.658  13.525   6.568
19382SOL    HW1 6985   8.717  13.565   6.638
19382SOL    HW2 6986   8.566  13.562   6.578
19383SOL     OW 6987  13.483  15.373   6.984
19383SOL    HW1 6988  13.407  15.346   6.926
19383SOL    HW2 6989  13.451  15.438   7.053
19384SOL     OW 6990   3.773  12.301   0.331
19384SOL    HW1 6991   3.694  12.346   0.372
19384SOL    HW2 6992   3.742  12.232   0.266
19385SOL     OW 6993  15.568  13.107   8.300
19385SOL    HW1 6994  15.517  13.064   8.225
19385SOL    HW2 6995  15.625  13.180   8.264
19386SOL     OW 6996   6.795  13.785   0.095
19386SOL    HW1 6997   6.761  13.832   0.176
19386SOL    HW2 6998   6.889  13.814   0.076
19387SOL     OW 6999  12.356   7.174   8.429
19387SOL    HW1 7000  12.420   7.099   8.417
19387SOL    HW2 7001  12.404   7.261   8.424
19388SOL     OW 7002   5.671   3.374   2.254
19388SOL    HW1 7003   5.727   3.309   2.305
19388SOL    HW2 7004   5.691   3.467   2.285
19389SOL     OW 7005  15.353  15.640   0.141
19389SOL    HW1 7006  15.351  15.661   0.239
19389SOL    HW2 7007  15.290  15.564   0.122
19390SOL     OW 7008  10.698   9.619   6.599
19390SOL    HW1 7009  10.797   9.634   6.599
19390SOL    HW2 7010  10.652   9.703   6.570
19391SOL     OW 7011   5.126  11.904   0.114
19391SOL    HW1 7012   5.217  11.862   0.124
19391SOL    HW2 7013   5.072  11.887   0.196
19392SOL     OW 7014  16.490  10.863   2.002
19392SOL    HW1 7015  16.580  10.904   2.016
19392SOL    HW2 7016  16.485  10.776   2.051
19393SOL     OW 7017   4.804  11.671   0.527
19393SOL    HW1 7018   4.763  11.582   0.507
19393SOL    HW2 7019   4.875  11.661   0.597
19394SOL     OW 7020  15.226  13.649   1.417
19394SOL    HW1 7021  15.267  13.726   1.466
19394SOL    HW2 7022  15.188  13.681   1.330
19395SOL     OW 7023   0.261  14.854   8.048
19395SOL    HW1 7024   0.248  14.942   8.093
19395SOL    HW2 7025   0.243  14.864   7.950
19396SOL     OW 7026   8.390  13.805   0.868
19396SOL    HW1 7027   8.443  13.732   0.825
19396SOL    HW2 7028   8.339  13.767   0.945
19397SOL     OW 7029  10.089   1.447   6.532
19397SOL    HW1 7030  10.084   1.375   6.601
19397SOL    HW2 7031   9.999   1.458   6.489
19398SOL     OW 7032   5.887   0.180   1.702
19398SOL    HW1 7033   5.837   0.246   1.646
19398SOL    HW2 7034   5.875   0.088   1.665
19399SOL     OW 7035   9.710   5.702   7.838
19399SOL    HW1 7036   9.752   5.774   7.894
19399SOL    HW2 7037   9.654   5.644   7.897
19400SOL     OW 7038  12.635   2.333   6.985
19400SOL    HW1 7039  12.557   2.297   7.036
19400SOL    HW2 7040  12.674   2.261   6.927
19401SOL     OW 7041   9.651   5.531   1.135
19401SOL    HW1 7042   9.686   5.480   1.057
19401SOL    HW2 7043   9.721   5.596   1.166
19402SOL     OW 7044  14.702  13.353   7.112
19402SOL    HW1 7045  14.726  13.355   7.015
19402SOL    HW2 7046  14.644  13.273   7.131
19403SOL     OW 7047  14.272   8.875   7.605
19403SOL    HW1 7048  14.260   8.973   7.588
19403SOL    HW2 7049  14.250   8.856   7.701
19404SOL     OW 7050   2.574   8.032   1.715
19404SOL    HW1 7051   2.535   7.969   1.647
19404SOL    HW2 7052   2.502   8.093   1.748
19405SOL     OW 7053   8.922   9.274   8.283
19405SOL    HW1 7054   8.841   9.333   8.283
19405SOL    HW2 7055   8.905   9.194   8.227
19406SOL     OW 7056  12.874   8.034   2.125
19406SOL    HW1 7057  12.942   7.972   2.164
19406SOL    HW2 7058  12.798   8.044   2.190
19407SOL     OW 7059  10.770   6.890   1.050
19407SOL    HW1 7060  10.808   6.961   0.991
19407SOL    HW2 7061  10.834   6.813   1.053
19408SOL     OW 7062   0.178  16.811   7.897
19408SOL    HW1 7063   0.135  16.721   7.900
19408SOL    HW2 7064   0.125  16.872   7.838
19409SOL     OW 7065  13.860   9.202   2.058
19409SOL    HW1 7066  13.775   9.159   2.088
19409SOL    HW2 7067  13.861   9.298   2.085
19410SOL     OW 7068  13.165   0.493   0.529
19410SOL    HW1 7069  13.222   0.433   0.473
19410SOL    HW2 7070  13.194   0.588   0.517
19411SOL     OW 7071   0.010   7.019   1.776
19411SOL    HW1 7072   0.047   6.986   1.862
19411SOL    HW2 7073  16.895   7.036   1.785
19412SOL     OW 7074  11.364   7.235   7.907
19412SOL    HW1 7075  11.422   7.180   7.847
19412SOL    HW2 7076  11.337   7.181   7.987
19413SOL     OW 7077   2.310   0.631   0.376
19413SOL    HW1 7078   2.372   0.641   0.454
19413SOL    HW2 7079   2.346   0.562   0.314
19414SOL     OW 7080   5.725   0.133   7.286
19414SOL    HW1 7081   5.692   0.094   7.201
19414SOL    HW2 7082   5.708   0.070   7.361
19415SOL     OW 7083   7.738  14.916   8.279
19415SOL    HW1 7084   7.679  14.885   8.204
19415SOL    HW2 7085   7.829  14.937   8.243
19416SOL     OW 7086  14.192   0.417   0.607
19416SOL    HW1 7087  14.144   0.433   0.693
19416SOL    HW2 7088  14.259   0.489   0.591
19417SOL     OW 7089  13.393  14.925   7.495
19417SOL    HW1 7090  13.363  15.020   7.486
19417SOL    HW2 7091  13.489  14.917   7.466
19418SOL     OW 7092  10.523  15.854   7.200
19418SOL    HW1 7093  10.570  15.790   7.139
19418SOL    HW2 7094  10.467  15.916   7.146
19419SOL     OW 7095  12.222   6.992   8.119
19419SOL    HW1 7096  12.223   6.966   8.022
19419SOL    HW2 7097  12.127   6.999   8.150
19420SOL     OW 7098   0.986  13.124   2.036
19420SOL    HW1 7099   1.009  13.184   2.112
19420SOL    HW2 7100   0.924  13.052   2.067
19421SOL     OW 7101  16.264   3.648   0.529
19421SOL    HW1 7102  16.311   3.567   0.495
19421SOL    HW2 7103  16.166   3.640   0.513
19422SOL     OW 7104   5.131   9.293   6.924
19422SOL    HW1 7105   5.042   9.277   6.966
19422SOL    HW2 7106   5.173   9.205   6.902
19423SOL     OW 7107   4.261   3.528   2.033
19423SOL    HW1 7108   4.167   3.560   2.040
19423SOL    HW2 7109   4.313   3.558   2.113
19424SOL     OW 7110   5.989   6.853   8.116
19424SOL    HW1 7111   5.972   6.813   8.206
19424SOL    HW2 7112   5.921   6.819   8.051
19425SOL     OW 7113   8.935   0.284   0.360
19425SOL    HW1 7114   9.007   0.238   0.413
19425SOL    HW2 7115   8.914   0.230   0.279
19426SOL     OW 7116  16.558   1.321   7.316
19426SOL    HW1 7117  16.516   1.237   7.281
19426SOL    HW2 7118  16.544   1.327   7.415
19427SOL     OW 7119   0.918   9.771   0.494
19427SOL    HW1 7120   0.936   9.693   0.555
19427SOL    HW2 7121   0.822   9.798   0.504
19428SOL     OW 7122   0.224  11.973   2.088
19428SOL    HW1 7123   0.139  12.005   2.047
19428SOL    HW2 7124   0.206  11.892   2.145
19429SOL     OW 7125   6.576  10.191   6.760
19429SOL    HW1 7126   6.596  10.106   6.809
19429SOL    HW2 7127   6.528  10.170   6.674
19430SOL     OW 7128   3.327   1.804   6.884
19430SOL    HW1 7129   3.231   1.779   6.886
19430SOL    HW2 7130   3.365   1.798   6.977
19431SOL     OW 7131  13.673   5.624   6.808
19431SOL    HW1 7132  13.712   5.542   6.768
19431SOL    HW2 7133  13.677   5.699   6.742
19432SOL     OW 7134   5.212  10.524   1.831
19432SOL    HW1 7135   5.294  10.573   1.801
19432SOL    HW2 7136   5.237  10.431   1.857
19433SOL     OW 7137  15.050   2.100   0.296
19433SOL    HW1 7138  15.139   2.072   0.332
19433SOL    HW2 7139  15.044   2.078   0.199
19434SOL     OW 7140   3.105  16.393   2.190
19434SOL    HW1 7141   3.129  16.307   2.144
19434SOL    HW2 7142   3.011  16.417   2.168
19435SOL     OW 7143  12.010   6.457   7.746
19435SOL    HW1 7144  12.008   6.487   7.841
19435SOL    HW2 7145  12.038   6.533   7.688
19436SOL     OW 7146   6.329   3.329   6.507
19436SOL    HW1 7147   6.347   3.377   6.421
19436SOL    HW2 7148   6.282   3.243   6.488
19437SOL     OW 7149   7.268   6.935   7.888
19437SOL    HW1 7150   7.273   6.875   7.807
19437SOL    HW2 7151   7.323   7.017   7.872
19438SOL     OW 7152  14.545  11.786   0.182
19438SOL    HW1 7153  14.450  11.793   0.212
19438SOL    HW2 7154  14.589  11.876   0.189
19439SOL     OW 7155   3.256  10.022   1.096
19439SOL    HW1 7156   3.347   9.986   1.074
19439SOL    HW2 7157   3.266  10.107   1.148
19440SOL     OW 7158   2.469  14.360   1.583
19440SOL    HW1 7159   2.425  14.271   1.601
19440SOL    HW2 7160   2.568  14.348   1.583
19441SOL     OW 7161   3.079  16.030   7.076
19441SOL    HW1 7162   3.022  15.950   7.095
19441SOL    HW2 7163   3.036  16.084   7.004
19442SOL     OW 7164  13.219  13.403   6.970
19442SOL    HW1 7165  13.316  13.397   6.948
19442SOL    HW2 7166  13.175  13.315   6.950
19443SOL     OW 7167  13.742  16.405   1.560
19443SOL    HW1 7168  13.789  16.486   1.596
19443SOL    HW2 7169  13.684  16.366   1.632
19444SOL     OW 7170  16.158   4.096   7.937
19444SOL    HW1 7171  16.141   4.192   7.958
19444SOL    HW2 7172  16.252   4.085   7.902
19445SOL     OW 7173   0.665   9.709   7.787
19445SOL    HW1 7174   0.598   9.783   7.777
19445SOL    HW2 7175   0.715   9.698   7.702
19446SOL     OW 7176   8.330   9.088   0.220
19446SOL    HW1 7177   8.404   9.120   0.279
19446SOL    HW2 7178   8.369   9.033   0.145
19447SOL     OW 7179  15.003  10.920   6.594
19447SOL    HW1 7180  14.987  10.973   6.510
19447SOL    HW2 7181  14.982  10.976   6.674
19448SOL     OW 7182   2.560   0.440   0.687
19448SOL    HW1 7183   2.543   0.530   0.646
19448SOL    HW2 7184   2.480   0.382   0.675
19449SOL     OW 7185   8.602  16.684   7.454
19449SOL    HW1 7186   8.577  16.709   7.361
19449SOL    HW2 7187   8.681  16.622   7.453
19450SOL     OW 7188  10.195   9.729   7.858
19450SOL    HW1 7189  10.279   9.733   7.805
19450SOL    HW2 7190  10.194   9.647   7.915
19451SOL     OW 7191  12.656  12.559   0.570
19451SOL    HW1 7192  12.730  12.491   0.567
19451SOL    HW2 7193  12.667  12.623   0.494
19452SOL     OW 7194   7.560  15.177   0.491
19452SOL    HW1 7195   7.608  15.248   0.440
19452SOL    HW2 7196   7.525  15.214   0.576
19453SOL     OW 7197   7.906  12.082   8.231
19453SOL    HW1 7198   7.925  11.983   8.228
19453SOL    HW2 7199   7.853  12.103   8.313
19454SOL     OW 7200  16.157   0.541   7.933
19454SOL    HW1 7201  16.122   0.577   8.020
19454SOL    HW2 7202  16.256   0.551   7.931
19455SOL     OW 7203   4.813  10.470   0.076
19455SOL    HW1 7204   4.741  10.489   0.010
19455SOL    HW2 7205   4.888  10.421   0.031
19456SOL     OW 7206  11.906  10.238   7.294
19456SOL    HW1 7207  11.988  10.183   7.313
19456SOL    HW2 7208  11.852  10.193   7.223
19457SOL     OW 7209   8.730  12.419   1.060
19457SOL    HW1 7210   8.638  12.398   1.094
19457SOL    HW2 7211   8.724  12.459   0.968
19458SOL     OW 7212   2.635   2.971   8.391
19458SOL    HW1 7213   2.659   2.942   8.298
19458SOL    HW2 7214   2.631   3.070   8.395
19459SOL     OW 7215  16.159  13.850   7.798
19459SOL    HW1 7216  16.186  13.893   7.712
19459SOL    HW2 7217  16.240  13.834   7.854
19460SOL     OW 7218   2.703   2.838   8.152
19460SOL    HW1 7219   2.774   2.787   8.199
19460SOL    HW2 7220   2.742   2.885   8.073
19461SOL     OW 7221   7.052  16.381   0.059
19461SOL    HW1 7222   7.109  16.304   0.087
19461SOL    HW2 7223   6.975  16.390   0.123
19462SOL     OW 7224  12.165   6.158   0.945
19462SOL    HW1 7225  12.246   6.152   1.004
19462SOL    HW2 7226  12.179   6.227   0.875
19463SOL     OW 7227   9.146  14.428   0.887
19463SOL    HW1 7228   9.184  14.516   0.859
19463SOL    HW2 7229   9.052  14.421   0.855
19464SOL     OW 7230  15.761   0.904   5.828
19464SOL    HW1 7231  15.858   0.923   5.813
19464SOL    HW2 7232  15.732   0.829   5.767
19465SOL     OW 7233  13.138   8.668   0.147
19465SOL    HW1 7234  13.050   8.639   0.109
19465SOL    HW2 7235  13.125   8.750   0.203
19466SOL     OW 7236   6.706   7.915   8.121
19466SOL    HW1 7237   6.762   7.952   8.047
19466SOL    HW2 7238   6.750   7.933   8.209
19467SOL     OW 7239  11.008   9.329   6.576
19467SOL    HW1 7240  11.052   9.378   6.500
19467SOL    HW2 7241  10.920   9.293   6.545
19468SOL     OW 7242   7.198   3.363   1.528
19468SOL    HW1 7243   7.223   3.416   1.447
19468SOL    HW2 7244   7.266   3.378   1.600
19469SOL     OW 7245  16.926  12.458   0.226
19469SOL    HW1 7246   0.032  12.428   0.259
19469SOL    HW2 7247  16.903  12.406   0.144
19470SOL     OW 7248   7.915   6.500   0.445
19470SOL    HW1 7249   7.851   6.544   0.508
19470SOL    HW2 7250   7.968   6.430   0.495
19471SOL     OW 7251   9.373  13.217   1.666
19471SOL    HW1 7252   9.355  13.174   1.755
19471SOL    HW2 7253   9.361  13.316   1.674
19472SOL     OW 7254   4.997   5.670   8.198
19472SOL    HW1 7255   5.050   5.724   8.132
19472SOL    HW2 7256   5.058   5.604   8.242
19473SOL     OW 7257   6.425   2.128   0.665
19473SOL    HW1 7258   6.347   2.143   0.603
19473SOL    HW2 7259   6.392   2.125   0.759
19474SOL     OW 7260  13.785   1.149   6.224
19474SOL    HW1 7261  13.713   1.083   6.207
19474SOL    HW2 7262  13.768   1.232   6.171
19475SOL     OW 7263  13.678   3.907   1.003
19475SOL    HW1 7264  13.623   3.864   0.931
19475SOL    HW2 7265  13.726   3.986   0.965
19476SOL     OW 7266   0.789   8.084   7.105
19476SOL    HW1 7267   0.715   8.151   7.095
19476SOL    HW2 7268   0.876   8.131   7.117
19477SOL     OW 7269  15.788   5.426   0.170
19477SOL    HW1 7270  15.846   5.449   0.248
19477SOL    HW2 7271  15.844   5.423   0.087
19478SOL     OW 7272  16.185   8.010   7.923
19478SOL    HW1 7273  16.274   7.995   7.880
19478SOL    HW2 7274  16.125   8.058   7.859
19479SOL     OW 7275   7.309   9.034   1.749
19479SOL    HW1 7276   7.394   9.072   1.785
19479SOL    HW2 7277   7.253   9.000   1.825
19480SOL     OW 7278  11.458  10.736   8.321
19480SOL    HW1 7279  11.507  10.652   8.345
19480SOL    HW2 7280  11.360  10.716   8.314
19481SOL     OW 7281  15.412   1.606   7.091
19481SOL    HW1 7282  15.490   1.664   7.115
19481SOL    HW2 7283  15.328   1.658   7.100
19482SOL     OW 7284  13.588   5.767   7.561
19482SOL    HW1 7285  13.608   5.753   7.658
19482SOL    HW2 7286  13.674   5.765   7.509
19483SOL     OW 7287  12.376  16.018   0.134
19483SOL    HW1 7288  12.385  16.106   0.088
19483SOL    HW2 7289  12.357  16.034   0.231
19484SOL     OW 7290  11.043   9.464   0.799
19484SOL    HW1 7291  10.951   9.443   0.767
19484SOL    HW2 7292  11.038   9.503   0.891
19485SOL     OW 7293   4.372  15.320   1.465
19485SOL    HW1 7294   4.297  15.256   1.479
19485SOL    HW2 7295   4.459  15.272   1.474
19486SOL     OW 7296   7.123   5.613   0.203
19486SOL    HW1 7297   7.149   5.692   0.259
19486SOL    HW2 7298   7.103   5.643   0.110
19487SOL     OW 7299  15.600  16.167   6.982
19487SOL    HW1 7300  15.505  16.149   7.005
19487SOL    HW2 7301  15.654  16.172   7.066
19488SOL     OW 7302  10.716   4.136   1.822
19488SOL    HW1 7303  10.810   4.110   1.844
19488SOL    HW2 7304  10.653   4.092   1.886
19489SOL     OW 7305   3.226  12.904   1.300
19489SOL    HW1 7306   3.178  12.951   1.374
19489SOL    HW2 7307   3.322  12.894   1.324
19490SOL     OW 7308  15.258   7.760   1.092
19490SOL    HW1 7309  15.166   7.790   1.117
19490SOL    HW2 7310  15.293   7.697   1.162
19491SOL     OW 7311   4.566   2.074   1.625
19491SOL    HW1 7312   4.481   2.124   1.604
19491SOL    HW2 7313   4.570   1.992   1.568
19492SOL     OW 7314  10.645   8.396   0.987
19492SOL    HW1 7315  10.713   8.334   0.949
19492SOL    HW2 7316  10.684   8.488   0.993
19493SOL     OW 7317   5.461   3.507   0.860
19493SOL    HW1 7318   5.484   3.473   0.951
19493SOL    HW2 7319   5.540   3.555   0.822
19494SOL     OW 7320   0.238  11.424   6.954
19494SOL    HW1 7321   0.145  11.393   6.936
19494SOL    HW2 7322   0.249  11.518   6.921
19495SOL     OW 7323  13.727  14.595   1.729
19495SOL    HW1 7324  13.726  14.639   1.819
19495SOL    HW2 7325  13.764  14.503   1.737
19496SOL     OW 7326  16.069   6.608   7.979
19496SOL    HW1 7327  16.122   6.687   8.007
19496SOL    HW2 7328  16.125   6.548   7.922
19497SOL     OW 7329   5.293   6.044   7.566
19497SOL    HW1 7330   5.308   5.945   7.564
19497SOL    HW2 7331   5.303   6.077   7.660
19498SOL     OW 7332  13.574  11.452   7.029
19498SOL    HW1 7333  13.585  11.548   7.006
19498SOL    HW2 7334  13.484  11.420   7.001
19499SOL     OW 7335   1.701   6.338   8.450
19499SOL    HW1 7336   1.701   6.437   8.435
19499SOL    HW2 7337   1.675   6.319   0.090
19500SOL     OW 7338   4.745   1.456   0.256
19500SOL    HW1 7339   4.674   1.474   0.188
19500SOL    HW2 7340   4.835   1.477   0.217
19501SOL     OW 7341   0.296  11.332   7.501
19501SOL    HW1 7342   0.252  11.252   7.460
19501SOL    HW2 7343   0.229  11.386   7.550
19502SOL     OW 7344   6.803   0.867   0.560
19502SOL    HW1 7345   6.866   0.895   0.487
19502SOL    HW2 7346   6.789   0.943   0.623
19503SOL     OW 7347   2.381   7.213   6.910
19503SOL    HW1 7348   2.313   7.256   6.850
19503SOL    HW2 7349   2.362   7.115   6.915
19504SOL     OW 7350   4.154   2.440   0.253
19504SOL    HW1 7351   4.234   2.379   0.259
19504SOL    HW2 7352   4.158   2.491   0.167
19505SOL     OW 7353   5.591   8.870   8.063
19505SOL    HW1 7354   5.624   8.860   7.969
19505SOL    HW2 7355   5.491   8.867   8.064
19506SOL     OW 7356   2.797  14.760   3.109
19506SOL    HW1 7357   2.743  14.750   3.192
19506SOL    HW2 7358   2.788  14.677   3.053
19507SOL     OW 7359  15.132  13.805   8.074
19507SOL    HW1 7360  15.230  13.786   8.081
19507SOL    HW2 7361  15.105  13.807   7.978
19508SOL     OW 7362   6.467  11.486   0.732
19508SOL    HW1 7363   6.403  11.461   0.805
19508SOL    HW2 7364   6.475  11.411   0.667
19509SOL     OW 7365  15.924  16.375   0.625
19509SOL    HW1 7366  15.888  16.283   0.641
19509SOL    HW2 7367  15.849  16.441   0.628
19510SOL     OW 7368  13.828   6.467   0.052
19510SOL    HW1 7369  13.809   6.383   0.103
19510SOL    HW2 7370  13.838   6.445   8.409
19511SOL     OW 7371  10.559   1.049   7.402
19511SOL    HW1 7372  10.633   1.013   7.459
19511SOL    HW2 7373  10.522   1.132   7.445
19512SOL     OW 7374  13.204   4.159   7.347
19512SOL    HW1 7375  13.117   4.111   7.337
19512SOL    HW2 7376  13.274   4.095   7.377
19513SOL     OW 7377  12.896   1.087   5.254
19513SOL    HW1 7378  12.813   1.133   5.285
19513SOL    HW2 7379  12.960   1.154   5.217
19514SOL     OW 7380   2.022   9.767   6.302
19514SOL    HW1 7381   1.938   9.793   6.350
19514SOL    HW2 7382   2.056   9.844   6.249
19515SOL     OW 7383   2.770  10.174   0.970
19515SOL    HW1 7384   2.676  10.151   0.945
19515SOL    HW2 7385   2.780  10.273   0.975
19516SOL     OW 7386   9.744   4.225   0.284
19516SOL    HW1 7387   9.654   4.183   0.269
19516SOL    HW2 7388   9.748   4.264   0.376
19517SOL     OW 7389   7.502  15.899   0.206
19517SOL    HW1 7390   7.471  15.860   0.119
19517SOL    HW2 7391   7.521  15.997   0.194
19518SOL     OW 7392   3.316  10.610   6.636
19518SOL    HW1 7393   3.366  10.692   6.607
19518SOL    HW2 7394   3.356  10.530   6.591
19519SOL     OW 7395  10.741   1.688   8.142
19519SOL    HW1 7396  10.741   1.781   8.106
19519SOL    HW2 7397  10.772   1.688   8.237
19520SOL     OW 7398  12.982   0.744   7.457
19520SOL    HW1 7399  13.046   0.719   7.530
19520SOL    HW2 7400  12.895   0.772   7.498
19521SOL     OW 7401   1.262  11.349   0.897
19521SOL    HW1 7402   1.268  11.329   0.995
19521SOL    HW2 7403   1.301  11.439   0.879
19522SOL     OW 7404  10.732   0.018   7.027
19522SOL    HW1 7405  10.765   0.045   6.936
19522SOL    HW2 7406  10.734   0.097   7.088
19523SOL     OW 7407   9.427  14.052   6.213
19523SOL    HW1 7408   9.473  14.035   6.126
19523SOL    HW2 7409   9.331  14.024   6.207
19524SOL     OW 7410   7.409   6.113   0.752
19524SOL    HW1 7411   7.417   6.024   0.796
19524SOL    HW2 7412   7.369   6.179   0.816
19525SOL     OW 7413  10.170   6.925   0.064
19525SOL    HW1 7414  10.154   7.006   0.119
19525SOL    HW2 7415  10.248   6.874   0.101
19526SOL     OW 7416   3.015  11.868   7.592
19526SOL    HW1 7417   3.078  11.816   7.649
19526SOL    HW2 7418   2.928  11.819   7.584
19527SOL     OW 7419  16.823   9.120   7.203
19527SOL    HW1 7420  16.872   9.047   7.251
19527SOL    HW2 7421  16.889   9.183   7.161
19528SOL     OW 7422   0.740   5.664   6.612
19528SOL    HW1 7423   0.687   5.747   6.628
19528SOL    HW2 7424   0.741   5.608   6.695
19529SOL     OW 7425   4.445   0.948   2.994
19529SOL    HW1 7426   4.354   0.984   2.974
19529SOL    HW2 7427   4.456   0.859   2.951
19530SOL     OW 7428   7.495   1.043   1.699
19530SOL    HW1 7429   7.480   1.069   1.795
19530SOL    HW2 7430   7.471   1.120   1.640
19531SOL     OW 7431   0.215   3.902   7.259
19531SOL    HW1 7432   0.194   3.806   7.240
19531SOL    HW2 7433   0.276   3.938   7.187
19532SOL     OW 7434   8.882   2.871   7.915
19532SOL    HW1 7435   8.930   2.795   7.872
19532SOL    HW2 7436   8.947   2.924   7.970
19533SOL     OW 7437   5.874   5.791   0.188
19533SOL    HW1 7438   5.837   5.746   0.270
19533SOL    HW2 7439   5.884   5.889   0.205
19534SOL     OW 7440   5.149  14.778   8.275
19534SOL    HW1 7441   5.148  14.697   8.217
19534SOL    HW2 7442   5.174  14.752   8.368
19535SOL     OW 7443   7.152  15.853   2.150
19535SOL    HW1 7444   7.098  15.917   2.205
19535SOL    HW2 7445   7.221  15.809   2.207
19536SOL     OW 7446   2.113  11.232   1.486
19536SOL    HW1 7447   2.184  11.275   1.541
19536SOL    HW2 7448   2.138  11.138   1.466
19537SOL     OW 7449   9.207  10.617   6.244
19537SOL    HW1 7450   9.251  10.529   6.261
19537SOL    HW2 7451   9.275  10.683   6.214
19538SOL     OW 7452   1.754  11.559   1.110
19538SOL    HW1 7453   1.762  11.653   1.076
19538SOL    HW2 7454   1.658  11.534   1.116
19539SOL     OW 7455  13.945  10.506   6.341
19539SOL    HW1 7456  13.931  10.574   6.268
19539SOL    HW2 7457  14.037  10.468   6.333
19540SOL     OW 7458  13.305  14.090   0.732
19540SOL    HW1 7459  13.326  14.003   0.775
19540SOL    HW2 7460  13.295  14.077   0.633
19541SOL     OW 7461   8.019   6.862   6.974
19541SOL    HW1 7462   8.113   6.835   6.995
19541SOL    HW2 7463   7.971   6.785   6.931
19542SOL     OW 7464   3.814  10.166   0.546
19542SOL    HW1 7465   3.871  10.126   0.618
19542SOL    HW2 7466   3.727  10.196   0.585
19543SOL     OW 7467   3.520   9.865   7.416
19543SOL    HW1 7468   3.520   9.927   7.338
19543SOL    HW2 7469   3.426   9.842   7.440
19544SOL     OW 7470  10.357   8.870   1.426
19544SOL    HW1 7471  10.308   8.957   1.423
19544SOL    HW2 7472  10.346   8.823   1.339
19545SOL     OW 7473   5.916  16.920   2.502
19545SOL    HW1 7474   5.979  16.846   2.526
19545SOL    HW2 7475   5.855  16.938   2.580
19546SOL     OW 7476  16.818  15.592   7.991
19546SOL    HW1 7477  16.780  15.504   7.964
19546SOL    HW2 7478  16.813  15.656   7.915
19547SOL     OW 7479  15.827  15.706   6.450
19547SOL    HW1 7480  15.742  15.699   6.399
19547SOL    HW2 7481  15.814  15.664   6.540
19548SOL     OW 7482   0.607   8.096   0.439
19548SOL    HW1 7483   0.564   8.138   0.359
19548SOL    HW2 7484   0.695   8.057   0.414
19549SOL     OW 7485   8.875   0.746   0.532
19549SOL    HW1 7486   8.972   0.771   0.530
19549SOL    HW2 7487   8.825   0.811   0.590
19550SOL     OW 7488   3.856   1.559   8.279
19550SOL    HW1 7489   3.794   1.480   8.279
19550SOL    HW2 7490   3.933   1.542   8.218
19551SOL     OW 7491  10.268   2.434   2.011
19551SOL    HW1 7492  10.319   2.396   2.088
19551SOL    HW2 7493  10.297   2.528   1.995
19552SOL     OW 7494   0.419   4.105   6.128
19552SOL    HW1 7495   0.397   4.008   6.135
19552SOL    HW2 7496   0.518   4.117   6.122
19553SOL     OW 7497   7.293   6.537   7.821
19553SOL    HW1 7498   7.353   6.463   7.790
19553SOL    HW2 7499   7.291   6.539   7.920
19554SOL     OW 7500   5.114   9.682   1.374
19554SOL    HW1 7501   5.109   9.628   1.290
19554SOL    HW2 7502   5.032   9.740   1.381
19555SOL     OW 7503  10.879   1.238   6.714
19555SOL    HW1 7504  10.814   1.303   6.676
19555SOL    HW2 7505  10.970   1.279   6.714
19556SOL     OW 7506   4.697  16.853   8.116
19556SOL    HW1 7507   4.643  16.878   8.035
19556SOL    HW2 7508   4.788  16.894   8.109
19557SOL     OW 7509   3.707  14.224   1.075
19557SOL    HW1 7510   3.769  14.283   1.024
19557SOL    HW2 7511   3.630  14.279   1.109
19558SOL     OW 7512  12.495   9.759   1.052
19558SOL    HW1 7513  12.531   9.844   1.090
19558SOL    HW2 7514  12.435   9.715   1.119
19559SOL     OW 7515  13.979   1.491   6.455
19559SOL    HW1 7516  13.911   1.560   6.429
19559SOL    HW2 7517  13.933   1.402   6.467
19560SOL     OW 7518   9.544   2.643   1.112
19560SOL    HW1 7519   9.555   2.622   1.015
19560SOL    HW2 7520   9.613   2.710   1.139
19561SOL     OW 7521  15.983  11.300   8.406
19561SOL    HW1 7522  15.963  11.389   8.366
19561SOL    HW2 7523  15.899  11.261   8.443
19562SOL     OW 7524  15.066  11.012   0.374
19562SOL    HW1 7525  15.080  10.915   0.354
19562SOL    HW2 7526  15.033  11.059   0.292
19563SOL     OW 7527   4.867   2.399   7.165
19563SOL    HW1 7528   4.921   2.410   7.082
19563SOL    HW2 7529   4.928   2.392   7.244
19564SOL     OW 7530   5.149  13.654   1.484
19564SOL    HW1 7531   5.243  13.643   1.514
19564SOL    HW2 7532   5.147  13.683   1.388
19565SOL     OW 7533  15.642  13.654   7.258
19565SOL    HW1 7534  15.547  13.625   7.263
19565SOL    HW2 7535  15.677  13.670   7.350
19566SOL     OW 7536  12.854   7.749   7.090
19566SOL    HW1 7537  12.866   7.848   7.098
19566SOL    HW2 7538  12.928   7.711   7.035
19567SOL     OW 7539   1.452  15.245   6.997
19567SOL    HW1 7540   1.436  15.195   6.912
19567SOL    HW2 7541   1.491  15.335   6.977
19568SOL     OW 7542  16.093  12.988   0.850
19568SOL    HW1 7543  15.998  12.972   0.825
19568SOL    HW2 7544  16.152  12.974   0.771
19569SOL     OW 7545  15.527   0.242   7.522
19569SOL    HW1 7546  15.459   0.315   7.512
19569SOL    HW2 7547  15.482   0.153   7.512
19570SOL     OW 7548   4.814  16.497   1.426
19570SOL    HW1 7549   4.901  16.540   1.448
19570SOL    HW2 7550   4.783  16.442   1.503
19571SOL     OW 7551  10.706   1.848   7.669
19571SOL    HW1 7552  10.706   1.940   7.709
19571SOL    HW2 7553  10.614   1.808   7.678
19572SOL     OW 7554   6.195   5.174   0.911
19572SOL    HW1 7555   6.257   5.161   0.989
19572SOL    HW2 7556   6.155   5.266   0.916
19573SOL     OW 7557  14.961   8.924   7.993
19573SOL    HW1 7558  14.997   8.931   8.086
19573SOL    HW2 7559  15.032   8.950   7.928
19574SOL     OW 7560   5.240  11.539   7.743
19574SOL    HW1 7561   5.295  11.465   7.705
19574SOL    HW2 7562   5.230  11.525   7.842
19575SOL     OW 7563   7.837  16.531   6.012
19575SOL    HW1 7564   7.904  16.586   6.062
19575SOL    HW2 7565   7.778  16.590   5.958
19576SOL     OW 7566   7.544   0.339   0.614
19576SOL    HW1 7567   7.477   0.276   0.574
19576SOL    HW2 7568   7.519   0.433   0.591
19577SOL     OW 7569  16.703  13.629   0.791
19577SOL    HW1 7570  16.717  13.622   0.692
19577SOL    HW2 7571  16.763  13.699   0.828
19578SOL     OW 7572   5.040  15.671   0.938
19578SOL    HW1 7573   4.954  15.714   0.964
19578SOL    HW2 7574   5.027  15.573   0.926
19579SOL     OW 7575  14.939   6.154   7.484
19579SOL    HW1 7576  14.913   6.123   7.392
19579SOL    HW2 7577  15.003   6.090   7.525
19580SOL     OW 7578   9.570   9.311   1.125
19580SOL    HW1 7579   9.487   9.362   1.101
19580SOL    HW2 7580   9.582   9.313   1.225
19581SOL     OW 7581   2.141   1.701   1.475
19581SOL    HW1 7582   2.155   1.703   1.376
19581SOL    HW2 7583   2.045   1.718   1.496
19582SOL     OW 7584   9.965  13.404   0.232
19582SOL    HW1 7585  10.031  13.477   0.248
19582SOL    HW2 7586   9.873  13.435   0.258
19583SOL     OW 7587  10.152   1.061   6.893
19583SOL    HW1 7588  10.171   1.129   6.964
19583SOL    HW2 7589  10.237   1.011   6.872
19584SOL     OW 7590   0.774   9.951   1.629
19584SOL    HW1 7591   0.697   9.911   1.679
19584SOL    HW2 7592   0.741   9.989   1.542
19585SOL     OW 7593  13.323   4.463   0.165
19585SOL    HW1 7594  13.354   4.422   0.079
19585SOL    HW2 7595  13.275   4.549   0.146
19586SOL     OW 7596  15.845  12.844   1.511
19586SOL    HW1 7597  15.866  12.747   1.509
19586SOL    HW2 7598  15.765  12.859   1.569
19587SOL     OW 7599  14.007  16.629   1.409
19587SOL    HW1 7600  14.036  16.724   1.396
19587SOL    HW2 7601  13.951  16.623   1.492
19588SOL     OW 7602  11.454   0.364   1.197
19588SOL    HW1 7603  11.541   0.408   1.216
19588SOL    HW2 7604  11.453   0.332   1.102
19589SOL     OW 7605   2.525   2.080   1.189
19589SOL    HW1 7606   2.515   1.981   1.185
19589SOL    HW2 7607   2.486   2.115   1.274
19590SOL     OW 7608  14.830   4.304   6.823
19590SOL    HW1 7609  14.761   4.375   6.840
19590SOL    HW2 7610  14.797   4.216   6.858
19591SOL     OW 7611   4.540   7.671   6.855
19591SOL    HW1 7612   4.610   7.623   6.908
19591SOL    HW2 7613   4.501   7.608   6.788
19592SOL     OW 7614   1.672   8.090   7.063
19592SOL    HW1 7615   1.609   8.061   6.991
19592SOL    HW2 7616   1.726   8.012   7.095
19593SOL     OW 7617  12.160   9.385   0.244
19593SOL    HW1 7618  12.127   9.296   0.215
19593SOL    HW2 7619  12.166   9.388   0.343
19594SOL     OW 7620  12.349   6.610   0.512
19594SOL    HW1 7621  12.403   6.684   0.552
19594SOL    HW2 7622  12.381   6.592   0.419
19595SOL     OW 7623  13.268   1.096   7.857
19595SOL    HW1 7624  13.263   1.043   7.772
19595SOL    HW2 7625  13.325   1.177   7.842
19596SOL     OW 7626   0.741   6.350   0.387
19596SOL    HW1 7627   0.726   6.317   0.480
19596SOL    HW2 7628   0.839   6.357   0.369
19597SOL     OW 7629  10.818   1.857   6.496
19597SOL    HW1 7630  10.887   1.902   6.440
19597SOL    HW2 7631  10.729   1.901   6.482
19598SOL     OW 7632   1.436   2.493   6.681
19598SOL    HW1 7633   1.527   2.511   6.645
19598SOL    HW2 7634   1.422   2.543   6.766
19599SOL     OW 7635   6.879   6.769   6.760
19599SOL    HW1 7636   6.940   6.755   6.838
19599SOL    HW2 7637   6.849   6.865   6.758
19600SOL     OW 7638   6.198   4.616   8.300
19600SOL    HW1 7639   6.106   4.584   8.325
19600SOL    HW2 7640   6.253   4.538   8.271
19601SOL     OW 7641   6.166   2.993   0.011
19601SOL    HW1 7642   6.147   2.925   8.395
19601SOL    HW2 7643   6.113   3.076   8.447
19602SOL     OW 7644   3.917   6.949   0.784
19602SOL    HW1 7645   3.900   6.870   0.842
19602SOL    HW2 7646   3.834   7.005   0.779
19603SOL     OW 7647   4.335   8.142   1.971
19603SOL    HW1 7648   4.241   8.166   1.993
19603SOL    HW2 7649   4.385   8.121   2.055
19604SOL     OW 7650  13.743  10.646   7.887
19604SOL    HW1 7651  13.776  10.582   7.818
19604SOL    HW2 7652  13.795  10.633   7.971
19605SOL     OW 7653  12.541  14.375   7.345
19605SOL    HW1 7654  12.485  14.388   7.427
19605SOL    HW2 7655  12.615  14.443   7.345
19606SOL     OW 7656   1.047   3.632   7.562
19606SOL    HW1 7657   1.129   3.636   7.618
19606SOL    HW2 7658   1.057   3.562   7.492
19607SOL     OW 7659   6.509  11.398   1.073
19607SOL    HW1 7660   6.540  11.493   1.070
19607SOL    HW2 7661   6.432  11.385   1.010
19608SOL     OW 7662   8.090  14.597   1.130
19608SOL    HW1 7663   8.119  14.559   1.042
19608SOL    HW2 7664   8.049  14.525   1.185
19609SOL     OW 7665  16.113   2.893   0.439
19609SOL    HW1 7666  16.115   2.943   0.526
19609SOL    HW2 7667  16.198   2.910   0.390
19610SOL     OW 7668  11.269   8.799   0.718
19610SOL    HW1 7669  11.265   8.744   0.801
19610SOL    HW2 7670  11.364   8.813   0.691
19611SOL     OW 7671  13.320   5.246   6.735
19611SOL    HW1 7672  13.385   5.274   6.807
19611SOL    HW2 7673  13.266   5.168   6.768
19612SOL     OW 7674   9.730   6.379   0.315
19612SOL    HW1 7675   9.684   6.468   0.307
19612SOL    HW2 7676   9.720   6.346   0.409
19613SOL     OW 7677  12.550   4.217   7.082
19613SOL    HW1 7678  12.596   4.172   7.006
19613SOL    HW2 7679  12.615   4.275   7.131
19614SOL     OW 7680   8.456  10.315   6.826
19614SOL    HW1 7681   8.450  10.407   6.788
19614SOL    HW2 7682   8.407  10.312   6.914
19615SOL     OW 7683   0.157   8.645   1.211
19615SOL    HW1 7684   0.246   8.680   1.241
19615SOL    HW2 7685   0.106   8.718   1.166
19616SOL     OW 7686   2.258   9.866   0.686
19616SOL    HW1 7687   2.277   9.877   0.784
19616SOL    HW2 7688   2.216   9.776   0.671
19617SOL     OW 7689   0.650  14.084   7.929
19617SOL    HW1 7690   0.615  13.991   7.942
19617SOL    HW2 7691   0.713  14.106   8.004
19618SOL     OW 7692   1.516   1.204   7.546
19618SOL    HW1 7693   1.486   1.299   7.537
19618SOL    HW2 7694   1.456   1.157   7.612
19619SOL     OW 7695   9.645   8.369   1.003
19619SOL    HW1 7696   9.611   8.278   0.982
19619SOL    HW2 7697   9.572   8.436   0.989
19620SOL     OW 7698  13.194   8.145   8.038
19620SOL    HW1 7699  13.246   8.103   8.112
19620SOL    HW2 7700  13.159   8.074   7.976
19621SOL     OW 7701  11.704  16.246   6.167
19621SOL    HW1 7702  11.789  16.293   6.146
19621SOL    HW2 7703  11.631  16.282   6.108
19622SOL     OW 7704   2.408   9.158   7.528
19622SOL    HW1 7705   2.320   9.164   7.482
19622SOL    HW2 7706   2.474   9.111   7.469
19623SOL     OW 7707   2.832   0.549   6.767
19623SOL    HW1 7708   2.885   0.491   6.705
19623SOL    HW2 7709   2.793   0.626   6.716
19624SOL     OW 7710   3.043   7.462   0.383
19624SOL    HW1 7711   3.057   7.552   0.341
19624SOL    HW2 7712   3.114   7.447   0.452
19625SOL     OW 7713  10.489   2.953   7.042
19625SOL    HW1 7714  10.523   2.862   7.018
19625SOL    HW2 7715  10.446   2.950   7.132
19626SOL     OW 7716   0.725   8.203   8.336
19626SOL    HW1 7717   0.808   8.201   8.391
19626SOL    HW2 7718   0.676   8.289   8.352
19627SOL     OW 7719   0.412   9.047   7.688
19627SOL    HW1 7720   0.462   9.117   7.636
19627SOL    HW2 7721   0.368   8.984   7.624
19628SOL     OW 7722   7.708   9.787   1.644
19628SOL    HW1 7723   7.669   9.877   1.665
19628SOL    HW2 7724   7.808   9.792   1.645
19629SOL     OW 7725   7.798  12.714   6.894
19629SOL    HW1 7726   7.839  12.627   6.869
19629SOL    HW2 7727   7.854  12.789   6.859
19630SOL     OW 7728  14.612  11.429   6.658
19630SOL    HW1 7729  14.517  11.397   6.651
19630SOL    HW2 7730  14.674  11.354   6.639
19631SOL     OW 7731   4.584  16.687   1.065
19631SOL    HW1 7732   4.605  16.609   1.007
19631SOL    HW2 7733   4.609  16.772   1.018
19632SOL     OW 7734   2.306  12.019   7.568
19632SOL    HW1 7735   2.271  11.944   7.513
19632SOL    HW2 7736   2.399  11.998   7.598
19633SOL     OW 7737   5.647   5.999   1.941
19633SOL    HW1 7738   5.665   5.949   2.025
19633SOL    HW2 7739   5.629   6.095   1.962
19634SOL     OW 7740   4.831  11.539   1.460
19634SOL    HW1 7741   4.813  11.493   1.547
19634SOL    HW2 7742   4.905  11.605   1.472
19635SOL     OW 7743   5.917  14.043   8.254
19635SOL    HW1 7744   5.901  14.142   8.263
19635SOL    HW2 7745   5.900  13.999   8.342
19636SOL     OW 7746  14.948  14.103   7.088
19636SOL    HW1 7747  14.998  14.042   7.149
19636SOL    HW2 7748  15.011  14.149   7.026
19637SOL     OW 7749   9.915   2.817   1.412
19637SOL    HW1 7750   9.986   2.760   1.454
19637SOL    HW2 7751   9.956   2.902   1.378
19638SOL     OW 7752   3.749  10.374   7.879
19638SOL    HW1 7753   3.785  10.292   7.924
19638SOL    HW2 7754   3.825  10.428   7.843
19639SOL     OW 7755   1.238   5.536   7.648
19639SOL    HW1 7756   1.221   5.586   7.563
19639SOL    HW2 7757   1.303   5.588   7.704
19640SOL     OW 7758  15.388  10.898   1.497
19640SOL    HW1 7759  15.443  10.822   1.532
19640SOL    HW2 7760  15.442  10.982   1.497
19641SOL     OW 7761  10.914   6.310   6.118
19641SOL    HW1 7762  11.002   6.278   6.085
19641SOL    HW2 7763  10.847   6.237   6.110
19642SOL     OW 7764  15.034   7.488   0.196
19642SOL    HW1 7765  15.005   7.417   0.133
19642SOL    HW2 7766  14.975   7.568   0.186
19643SOL     OW 7767   4.293   7.211   6.782
19643SOL    HW1 7768   4.335   7.238   6.696
19643SOL    HW2 7769   4.196   7.192   6.768
19644SOL     OW 7770   5.834  11.739   8.068
19644SOL    HW1 7771   5.919  11.733   8.016
19644SOL    HW2 7772   5.854  11.735   8.166
19645SOL     OW 7773  14.340  11.863   2.467
19645SOL    HW1 7774  14.389  11.946   2.495
19645SOL    HW2 7775  14.354  11.791   2.534
19646SOL     OW 7776   6.335   4.742   8.083
19646SOL    HW1 7777   6.277   4.697   8.151
19646SOL    HW2 7778   6.359   4.834   8.115
19647SOL     OW 7779   9.928   2.514   6.893
19647SOL    HW1 7780   9.891   2.472   6.977
19647SOL    HW2 7781   9.916   2.450   6.817
19648SOL     OW 7782  15.824   0.562   0.985
19648SOL    HW1 7783  15.813   0.657   1.013
19648SOL    HW2 7784  15.918   0.546   0.957
19649SOL     OW 7785  11.396  14.675   2.606
19649SOL    HW1 7786  11.387  14.759   2.660
19649SOL    HW2 7787  11.316  14.617   2.621
19650SOL     OW 7788  15.569   4.067   6.826
19650SOL    HW1 7789  15.596   3.974   6.851
19650SOL    HW2 7790  15.489   4.095   6.879
19651SOL     OW 7791  12.773   1.212   6.137
19651SOL    HW1 7792  12.818   1.217   6.226
19651SOL    HW2 7793  12.685   1.258   6.141
19652SOL     OW 7794  15.144  14.160   7.915
19652SOL    HW1 7795  15.079  14.139   7.988
19652SOL    HW2 7796  15.128  14.099   7.837
19653SOL     OW 7797  11.915  16.128   1.446
19653SOL    HW1 7798  11.830  16.179   1.459
19653SOL    HW2 7799  11.905  16.037   1.485
19654SOL     OW 7800  12.334   3.648   7.780
19654SOL    HW1 7801  12.420   3.698   7.773
19654SOL    HW2 7802  12.284   3.678   7.862
19655SOL     OW 7803  14.344  15.845   8.139
19655SOL    HW1 7804  14.251  15.881   8.134
19655SOL    HW2 7805  14.361  15.810   8.231
19656SOL     OW 7806  12.064   1.463   7.641
19656SOL    HW1 7807  12.108   1.428   7.558
19656SOL    HW2 7808  12.100   1.413   7.720
19657SOL     OW 7809   1.399  13.375   0.152
19657SOL    HW1 7810   1.351  13.456   0.117
19657SOL    HW2 7811   1.337  13.296   0.148
19658SOL     OW 7812   4.321   8.718   8.085
19658SOL    HW1 7813   4.372   8.800   8.110
19658SOL    HW2 7814   4.344   8.692   7.991
19659SOL     OW 7815   8.202  16.257   0.060
19659SOL    HW1 7816   8.122  16.206   0.030
19659SOL    HW2 7817   8.258  16.200   0.121
19660SOL     OW 7818   9.177  13.546   8.428
19660SOL    HW1 7819   9.160  13.628   0.029
19660SOL    HW2 7820   9.273  13.518   8.437
19661SOL     OW 7821  14.789   0.373   0.330
19661SOL    HW1 7822  14.763   0.337   0.240
19661SOL    HW2 7823  14.714   0.428   0.367
19662SOL     OW 7824   7.924   6.379   6.535
19662SOL    HW1 7825   7.874   6.313   6.591
19662SOL    HW2 7826   7.961   6.451   6.593
19663SOL     OW 7827   4.727  14.126   0.307
19663SOL    HW1 7828   4.768  14.167   0.224
19663SOL    HW2 7829   4.664  14.191   0.348
19664SOL     OW 7830  15.243  12.979   7.160
19664SOL    HW1 7831  15.260  12.909   7.091
19664SOL    HW2 7832  15.293  13.062   7.136
19665SOL     OW 7833  10.873   8.671   1.999
19665SOL    HW1 7834  10.857   8.624   2.086
19665SOL    HW2 7835  10.959   8.722   2.004
19666SOL     OW 7836  14.740  10.764   2.349
19666SOL    HW1 7837  14.777  10.681   2.307
19666SOL    HW2 7838  14.791  10.784   2.433
19667SOL     OW 7839   2.724   4.338   6.334
19667SOL    HW1 7840   2.753   4.257   6.283
19667SOL    HW2 7841   2.654   4.311   6.401
19668SOL     OW 7842   5.947  12.966   6.525
19668SOL    HW1 7843   5.867  12.953   6.466
19668SOL    HW2 7844   5.946  12.897   6.598
19669SOL     OW 7845   0.219  13.529   1.882
19669SOL    HW1 7846   0.307  13.558   1.845
19669SOL    HW2 7847   0.152  13.522   1.807
19670SOL     OW 7848   2.484  14.744   7.910
19670SOL    HW1 7849   2.514  14.813   7.844
19670SOL    HW2 7850   2.406  14.779   7.962
19671SOL     OW 7851  14.530  13.115   1.130
19671SOL    HW1 7852  14.622  13.093   1.098
19671SOL    HW2 7853  14.530  13.123   1.230
19672SOL     OW 7854   9.129   1.634   6.589
19672SOL    HW1 7855   9.075   1.718   6.588
19672SOL    HW2 7856   9.226   1.656   6.588
19673SOL     OW 7857  13.146  13.609   1.254
19673SOL    HW1 7858  13.175  13.703   1.236
19673SOL    HW2 7859  13.216  13.563   1.308
19674SOL     OW 7860  11.086   3.834   7.790
19674SOL    HW1 7861  11.086   3.886   7.705
19674SOL    HW2 7862  10.992   3.813   7.817
19675SOL     OW 7863   7.367   4.206   7.682
19675SOL    HW1 7864   7.313   4.135   7.637
19675SOL    HW2 7865   7.375   4.285   7.622
19676SOL     OW 7866   8.052   2.259   1.666
19676SOL    HW1 7867   8.135   2.203   1.673
19676SOL    HW2 7868   7.987   2.232   1.737
19677SOL     OW 7869  10.842   4.772   6.758
19677SOL    HW1 7870  10.809   4.817   6.675
19677SOL    HW2 7871  10.931   4.810   6.784
19678SOL     OW 7872   5.247   8.518   1.329
19678SOL    HW1 7873   5.336   8.513   1.375
19678SOL    HW2 7874   5.254   8.580   1.251
19679SOL     OW 7875   3.635   5.220   0.229
19679SOL    HW1 7876   3.684   5.144   0.185
19679SOL    HW2 7877   3.693   5.260   0.300
19680SOL     OW 7878   4.055  14.175   0.514
19680SOL    HW1 7879   4.095  14.111   0.449
19680SOL    HW2 7880   4.128  14.225   0.562
19681SOL     OW 7881   0.068   5.558   6.287
19681SOL    HW1 7882   0.117   5.482   6.243
19681SOL    HW2 7883   0.033   5.620   6.218
19682SOL     OW 7884   1.594   5.878   7.410
19682SOL    HW1 7885   1.659   5.853   7.481
19682SOL    HW2 7886   1.546   5.796   7.379
19683SOL     OW 7887   9.310  16.085   7.899
19683SOL    HW1 7888   9.268  15.995   7.897
19683SOL    HW2 7889   9.406  16.078   7.872
19684SOL     OW 7890   6.238  11.545   0.020
19684SOL    HW1 7891   6.178  11.492   0.079
19684SOL    HW2 7892   6.309  11.590   0.075
19685SOL     OW 7893   9.069   9.888   1.672
19685SOL    HW1 7894   8.998   9.950   1.704
19685SOL    HW2 7895   9.124   9.933   1.601
19686SOL     OW 7896   6.181   1.313   7.995
19686SOL    HW1 7897   6.081   1.313   7.991
19686SOL    HW2 7898   6.218   1.335   7.905
19687SOL     OW 7899   0.869  12.091   2.709
19687SOL    HW1 7900   0.912  12.045   2.787
19687SOL    HW2 7901   0.869  12.190   2.725
19688SOL     OW 7902  13.498   3.701   8.088
19688SOL    HW1 7903  13.571   3.766   8.066
19688SOL    HW2 7904  13.498   3.628   8.020
19689SOL     OW 7905   5.619   1.191   7.532
19689SOL    HW1 7906   5.685   1.131   7.577
19689SOL    HW2 7907   5.668   1.260   7.478
19690SOL     OW 7908   0.114   2.644   0.094
19690SOL    HW1 7909   0.103   2.601   0.005
19690SOL    HW2 7910   0.211   2.665   0.109
19691SOL     OW 7911   0.361   1.842   8.216
19691SOL    HW1 7912   0.436   1.908   8.219
19691SOL    HW2 7913   0.330   1.830   8.122
19692SOL     OW 7914   6.754   3.479   0.954
19692SOL    HW1 7915   6.679   3.412   0.946
19692SOL    HW2 7916   6.842   3.431   0.951
19693SOL     OW 7917   1.320   3.280   5.906
19693SOL    HW1 7918   1.294   3.184   5.913
19693SOL    HW2 7919   1.263   3.325   5.838
19694SOL     OW 7920   8.160   4.236   7.319
19694SOL    HW1 7921   8.071   4.215   7.278
19694SOL    HW2 7922   8.223   4.160   7.303
19695SOL     OW 7923   3.661  12.714   7.532
19695SOL    HW1 7924   3.564  12.723   7.510
19695SOL    HW2 7925   3.674  12.716   7.631
19696SOL     OW 7926  10.461   8.327   6.085
19696SOL    HW1 7927  10.478   8.241   6.038
19696SOL    HW2 7928  10.372   8.364   6.055
19697SOL     OW 7929   9.552   6.710   8.300
19697SOL    HW1 7930   9.495   6.742   8.224
19697SOL    HW2 7931   9.619   6.780   8.323
19698SOL     OW 7932   9.954   5.544   7.635
19698SOL    HW1 7933   9.862   5.585   7.638
19698SOL    HW2 7934  10.001   5.575   7.553
19699SOL     OW 7935   6.128  14.050   7.154
19699SOL    HW1 7936   6.132  13.957   7.189
19699SOL    HW2 7937   6.083  14.051   7.064
19700SOL     OW 7938  12.076   7.406   0.129
19700SOL    HW1 7939  12.174   7.422   0.143
19700SOL    HW2 7940  12.024   7.484   0.162
19701SOL     OW 7941  13.508  15.657   6.301
19701SOL    HW1 7942  13.415  15.673   6.267
19701SOL    HW2 7943  13.530  15.560   6.292
19702SOL     OW 7944   3.318   4.699   1.609
19702SOL    HW1 7945   3.311   4.799   1.617
19702SOL    HW2 7946   3.397   4.666   1.660
19703SOL     OW 7947  13.931   8.373   0.717
19703SOL    HW1 7948  13.965   8.297   0.771
19703SOL    HW2 7949  13.979   8.457   0.742
19704SOL     OW 7950   0.567   7.743   1.302
19704SOL    HW1 7951   0.651   7.753   1.250
19704SOL    HW2 7952   0.548   7.828   1.351
19705SOL     OW 7953  16.584   8.493   1.955
19705SOL    HW1 7954  16.674   8.501   1.913
19705SOL    HW2 7955  16.591   8.442   2.040
19706SOL     OW 7956  10.108   5.414   0.851
19706SOL    HW1 7957  10.142   5.470   0.927
19706SOL    HW2 7958  10.061   5.333   0.886
19707SOL     OW 7959  13.658   4.627   0.962
19707SOL    HW1 7960  13.703   4.584   1.041
19707SOL    HW2 7961  13.592   4.562   0.923
19708SOL     OW 7962   1.626  14.757   0.556
19708SOL    HW1 7963   1.671  14.786   0.640
19708SOL    HW2 7964   1.667  14.806   0.478
19709SOL     OW 7965   6.701   2.167   7.689
19709SOL    HW1 7966   6.745   2.170   7.600
19709SOL    HW2 7967   6.769   2.144   7.759
19710SOL     OW 7968  15.099   2.200   6.542
19710SOL    HW1 7969  15.183   2.162   6.581
19710SOL    HW2 7970  15.059   2.135   6.478
19711SOL     OW 7971   4.001   7.967   1.132
19711SOL    HW1 7972   3.941   7.893   1.103
19711SOL    HW2 7973   4.093   7.930   1.150
19712SOL     OW 7974   9.240   6.132   0.216
19712SOL    HW1 7975   9.327   6.116   0.264
19712SOL    HW2 7976   9.174   6.062   0.243
19713SOL     OW 7977   2.676  12.718   0.626
19713SOL    HW1 7978   2.591  12.678   0.594
19713SOL    HW2 7979   2.659  12.811   0.660
19714SOL     OW 7980  16.694   9.091   1.424
19714SOL    HW1 7981  16.597   9.115   1.427
19714SOL    HW2 7982  16.744   9.142   1.494
19715SOL     OW 7983   0.073  12.184   8.156
19715SOL    HW1 7984   0.063  12.267   8.100
19715SOL    HW2 7985  16.966  12.148   8.178
19716SOL     OW 7986   8.351  10.901   0.847
19716SOL    HW1 7987   8.265  10.865   0.811
19716SOL    HW2 7988   8.332  10.981   0.904
19717SOL     OW 7989  11.373   4.666   1.581
19717SOL    HW1 7990  11.432   4.709   1.650
19717SOL    HW2 7991  11.355   4.732   1.507
19718SOL     OW 7992   4.096  14.760   0.860
19718SOL    HW1 7993   4.133  14.739   0.951
19718SOL    HW2 7994   4.167  14.804   0.804
19719SOL     OW 7995  13.202  10.613   7.437
19719SOL    HW1 7996  13.289  10.566   7.425
19719SOL    HW2 7997  13.129  10.560   7.393
19720SOL     OW 7998   9.012   4.406   8.009
19720SOL    HW1 7999   9.054   4.411   8.100
19720SOL    HW2 8000   9.006   4.310   7.980
19721SOL     OW 8001  12.031  10.781   0.929
19721SOL    HW1 8002  11.987  10.831   1.004
19721SOL    HW2 8003  12.007  10.825   0.842
19722SOL     OW 8004   4.282   8.034   1.728
19722SOL    HW1 8005   4.308   8.059   1.821
19722SOL    HW2 8006   4.194   8.076   1.705
19723SOL     OW 8007   2.072   2.312   6.926
19723SOL    HW1 8008   2.112   2.238   6.980
19723SOL    HW2 8009   1.975   2.320   6.948
19724SOL     OW 8010  14.291  12.276   8.367
19724SOL    HW1 8011  14.271  12.284   8.270
19724SOL    HW2 8012  14.390  12.268   8.380
19725SOL     OW 8013   1.343   8.128   0.231
19725SOL    HW1 8014   1.385   8.218   0.219
19725SOL    HW2 8015   1.395   8.077   0.300
19726SOL     OW 8016   6.167   1.351   0.514
19726SOL    HW1 8017   6.208   1.421   0.573
19726SOL    HW2 8018   6.240   1.297   0.471
19727SOL     OW 8019   5.443   0.201   1.773
19727SOL    HW1 8020   5.502   0.281   1.769
19727SOL    HW2 8021   5.412   0.178   1.680
19728SOL     OW 8022  11.746   6.939   1.638
19728SOL    HW1 8023  11.670   6.881   1.665
19728SOL    HW2 8024  11.768   7.003   1.711
19729SOL     OW 8025   2.592  13.286   8.354
19729SOL    HW1 8026   2.535  13.367   8.368
19729SOL    HW2 8027   2.666  13.307   8.290
19730SOL     OW 8028   7.915   3.368   7.722
19730SOL    HW1 8029   7.941   3.393   7.629
19730SOL    HW2 8030   7.973   3.294   7.754
19731SOL     OW 8031  12.058  11.568   8.414
19731SOL    HW1 8032  12.066  11.476   8.452
19731SOL    HW2 8033  12.040  11.562   8.316
19732SOL     OW 8034  15.573  10.079   8.404
19732SOL    HW1 8035  15.549  10.060   0.045
19732SOL    HW2 8036  15.514  10.152   8.368
19733SOL     OW 8037   4.302   7.809   6.803
19733SOL    HW1 8038   4.244   7.765   6.735
19733SOL    HW2 8039   4.385   7.754   6.816
19734SOL     OW 8040  10.853   3.940   8.269
19734SOL    HW1 8041  10.835   3.843   8.286
19734SOL    HW2 8042  10.944   3.951   8.230
19735SOL     OW 8043   8.157   9.127   1.359
19735SOL    HW1 8044   8.074   9.079   1.331
19735SOL    HW2 8045   8.138   9.184   1.439
19736SOL     OW 8046  14.793   7.074   6.599
19736SOL    HW1 8047  14.758   7.058   6.507
19736SOL    HW2 8048  14.767   7.166   6.630
19737SOL     OW 8049   6.563   5.226   7.299
19737SOL    HW1 8050   6.497   5.300   7.314
19737SOL    HW2 8051   6.618   5.214   7.382
19738SOL     OW 8052  16.835  16.577   6.267
19738SOL    HW1 8053  16.793  16.667   6.257
19738SOL    HW2 8054  16.790  16.513   6.205
19739SOL     OW 8055  15.143  12.591   7.472
19739SOL    HW1 8056  15.076  12.644   7.419
19739SOL    HW2 8057  15.098  12.511   7.511
19740SOL     OW 8058   5.054   0.397   7.751
19740SOL    HW1 8059   4.986   0.448   7.804
19740SOL    HW2 8060   5.015   0.370   7.663
19741SOL     OW 8061   0.431   5.410   0.668
19741SOL    HW1 8062   0.525   5.408   0.635
19741SOL    HW2 8063   0.401   5.317   0.690
19742SOL     OW 8064   5.380   3.883   1.822
19742SOL    HW1 8065   5.409   3.846   1.910
19742SOL    HW2 8066   5.286   3.916   1.830
19743SOL     OW 8067  13.583   2.541   0.394
19743SOL    HW1 8068  13.555   2.559   0.488
19743SOL    HW2 8069  13.609   2.445   0.384
19744SOL     OW 8070  15.513  10.704   7.754
19744SOL    HW1 8071  15.471  10.615   7.773
19744SOL    HW2 8072  15.480  10.739   7.666
19745SOL     OW 8073   4.306   7.829   0.903
19745SOL    HW1 8074   4.276   7.918   0.869
19745SOL    HW2 8075   4.391   7.840   0.955
19746SOL     OW 8076   7.308  15.766   0.348
19746SOL    HW1 8077   7.375  15.821   0.298
19746SOL    HW2 8078   7.219  15.772   0.303
19747SOL     OW 8079   8.501   8.244   7.539
19747SOL    HW1 8080   8.427   8.181   7.561
19747SOL    HW2 8081   8.462   8.331   7.507
19748SOL     OW 8082   7.122  12.774   1.505
19748SOL    HW1 8083   7.166  12.771   1.415
19748SOL    HW2 8084   7.029  12.809   1.495
19749SOL     OW 8085   8.284  15.835   6.349
19749SOL    HW1 8086   8.363  15.893   6.337
19749SOL    HW2 8087   8.221  15.846   6.272
19750SOL     OW 8088   2.920   5.878   8.050
19750SOL    HW1 8089   2.904   5.828   8.136
19750SOL    HW2 8090   2.899   5.819   7.973
19751SOL     OW 8091   2.379   1.522   0.163
19751SOL    HW1 8092   2.389   1.437   0.111
19751SOL    HW2 8093   2.319   1.505   0.241
19752SOL     OW 8094  11.516  15.034   2.550
19752SOL    HW1 8095  11.611  15.003   2.550
19752SOL    HW2 8096  11.468  14.995   2.629
19753SOL     OW 8097   8.839   7.878   0.000
19753SOL    HW1 8098   8.824   7.779   0.006
19753SOL    HW2 8099   8.909   7.905   0.067
19754SOL     OW 8100   7.179  10.616   2.370
19754SOL    HW1 8101   7.266  10.576   2.400
19754SOL    HW2 8102   7.173  10.710   2.402
19755SOL     OW 8103   7.848  11.007   8.384
19755SOL    HW1 8104   7.947  10.996   8.379
19755SOL    HW2 8105   7.826  11.086   8.442
19756SOL     OW 8106   7.365   2.355   6.569
19756SOL    HW1 8107   7.421   2.314   6.497
19756SOL    HW2 8108   7.272   2.320   6.563
19757SOL     OW 8109   0.951  15.152   7.907
19757SOL    HW1 8110   0.996  15.084   7.849
19757SOL    HW2 8111   0.889  15.208   7.852
19758SOL     OW 8112   7.404   3.668   7.413
19758SOL    HW1 8113   7.453   3.622   7.487
19758SOL    HW2 8114   7.306   3.670   7.434
19759SOL     OW 8115   7.781  15.963   7.163
19759SOL    HW1 8116   7.827  15.876   7.178
19759SOL    HW2 8117   7.848  16.031   7.133
19760SOL     OW 8118   8.716   8.916   0.184
19760SOL    HW1 8119   8.744   8.969   0.103
19760SOL    HW2 8120   8.653   8.844   0.156
19761SOL     OW 8121   9.330   8.622   0.034
19761SOL    HW1 8122   9.306   8.632   0.131
19761SOL    HW2 8123   9.248   8.628   8.432
19762SOL     OW 8124  14.621   3.735   0.652
19762SOL    HW1 8125  14.644   3.796   0.576
19762SOL    HW2 8126  14.681   3.754   0.730
19763SOL     OW 8127  15.500  12.565   6.633
19763SOL    HW1 8128  15.491  12.498   6.707
19763SOL    HW2 8129  15.535  12.519   6.551
19764SOL     OW 8130  14.951  11.964   0.078
19764SOL    HW1 8131  14.872  11.987   0.021
19764SOL    HW2 8132  14.972  11.867   0.067
19765SOL     OW 8133   6.066  16.344   1.931
19765SOL    HW1 8134   5.973  16.381   1.936
19765SOL    HW2 8135   6.078  16.298   1.843
19766SOL     OW 8136  16.689  16.643   0.498
19766SOL    HW1 8137  16.604  16.620   0.450
19766SOL    HW2 8138  16.747  16.562   0.502
19767SOL     OW 8139  14.665  10.705   7.628
19767SOL    HW1 8140  14.624  10.788   7.588
19767SOL    HW2 8141  14.688  10.722   7.723
19768SOL     OW 8142  14.740   5.253   0.778
19768SOL    HW1 8143  14.652   5.209   0.797
19768SOL    HW2 8144  14.763   5.315   0.853
19769SOL     OW 8145   1.889   4.843   6.352
19769SOL    HW1 8146   1.902   4.808   6.259
19769SOL    HW2 8147   1.823   4.785   6.400
19770SOL     OW 8148   1.786   1.655   1.004
19770SOL    HW1 8149   1.823   1.748   1.009
19770SOL    HW2 8150   1.856   1.592   0.971
19771SOL     OW 8151   9.372   6.279   8.215
19771SOL    HW1 8152   9.339   6.297   8.307
19771SOL    HW2 8153   9.323   6.202   8.176
19772SOL     OW 8154  10.153  16.829   8.021
19772SOL    HW1 8155  10.061  16.863   8.001
19772SOL    HW2 8156  10.208  16.902   8.061
19773SOL     OW 8157   2.637   7.572   2.219
19773SOL    HW1 8158   2.685   7.645   2.171
19773SOL    HW2 8159   2.681   7.557   2.308
19774SOL     OW 8160  10.090   5.759   0.956
19774SOL    HW1 8161  10.131   5.683   1.007
19774SOL    HW2 8162  10.038   5.817   1.020
19775SOL     OW 8163   4.574  11.828   0.529
19775SOL    HW1 8164   4.530  11.817   0.618
19775SOL    HW2 8165   4.659  11.774   0.527
19776SOL     OW 8166   8.251   1.143   7.228
19776SOL    HW1 8167   8.265   1.170   7.133
19776SOL    HW2 8168   8.166   1.091   7.235
19777SOL     OW 8169   4.636   0.147   0.667
19777SOL    HW1 8170   4.733   0.169   0.654
19777SOL    HW2 8171   4.625   0.048   0.670
19778SOL     OW 8172   1.162   7.186   1.268
19778SOL    HW1 8173   1.094   7.185   1.195
19778SOL    HW2 8174   1.124   7.233   1.348
19779SOL     OW 8175  11.781  16.336   8.299
19779SOL    HW1 8176  11.756  16.251   8.347
19779SOL    HW2 8177  11.790  16.318   8.201
19780SOL     OW 8178  15.202   1.508   0.542
19780SOL    HW1 8179  15.145   1.448   0.485
19780SOL    HW2 8180  15.143   1.557   0.607
19781SOL     OW 8181   4.171   7.387   0.824
19781SOL    HW1 8182   4.127   7.425   0.742
19781SOL    HW2 8183   4.167   7.455   0.898
19782SOL     OW 8184   8.519  14.469   2.371
19782SOL    HW1 8185   8.556  14.533   2.438
19782SOL    HW2 8186   8.563  14.380   2.382
19783SOL     OW 8187   6.124  14.285   2.062
19783SOL    HW1 8188   6.150  14.219   2.132
19783SOL    HW2 8189   6.179  14.368   2.072
19784SOL     OW 8190   8.367   5.240   7.151
19784SOL    HW1 8191   8.337   5.189   7.071
19784SOL    HW2 8192   8.287   5.279   7.198
19785SOL     OW 8193  15.078   1.033   0.891
19785SOL    HW1 8194  15.120   0.983   0.967
19785SOL    HW2 8195  15.113   1.127   0.889
19786SOL     OW 8196  16.902   7.612   7.800
19786SOL    HW1 8197  16.842   7.630   7.878
19786SOL    HW2 8198  16.887   7.682   7.730
19787SOL     OW 8199  12.532   6.783   0.620
19787SOL    HW1 8200  12.591   6.702   0.618
19787SOL    HW2 8201  12.580   6.859   0.577
19788SOL     OW 8202   1.379   5.419   0.186
19788SOL    HW1 8203   1.281   5.401   0.199
19788SOL    HW2 8204   1.401   5.415   0.088
19789SOL     OW 8205  13.560   8.808   1.401
19789SOL    HW1 8206  13.653   8.842   1.416
19789SOL    HW2 8207  13.560   8.708   1.403
19790SOL     OW 8208   4.629  15.623   1.157
19790SOL    HW1 8209   4.651  15.527   1.174
19790SOL    HW2 8210   4.707  15.667   1.113
19791SOL     OW 8211  16.489   5.705   7.430
19791SOL    HW1 8212  16.480   5.689   7.332
19791SOL    HW2 8213  16.524   5.798   7.446
19792SOL     OW 8214   1.563  13.777   1.806
19792SOL    HW1 8215   1.477  13.726   1.807
19792SOL    HW2 8216   1.565  13.841   1.883
19793SOL     OW 8217  12.472  16.581   6.830
19793SOL    HW1 8218  12.485  16.526   6.912
19793SOL    HW2 8219  12.468  16.522   6.750
19794SOL     OW 8220  13.529   5.134   7.353
19794SOL    HW1 8221  13.488   5.221   7.328
19794SOL    HW2 8222  13.553   5.134   7.450
19795SOL     OW 8223  15.808   5.013   7.499
19795SOL    HW1 8224  15.817   4.917   7.472
19795SOL    HW2 8225  15.806   5.070   7.417
19796SOL     OW 8226   7.271   9.469   7.169
19796SOL    HW1 8227   7.256   9.372   7.149
19796SOL    HW2 8228   7.351   9.479   7.228
19797SOL     OW 8229  11.683   3.797   7.603
19797SOL    HW1 8230  11.761   3.759   7.652
19797SOL    HW2 8231  11.713   3.870   7.542
19798SOL     OW 8232  14.000   8.594   0.495
19798SOL    HW1 8233  14.096   8.617   0.512
19798SOL    HW2 8234  13.992   8.496   0.477
19799SOL     OW 8235   2.803   6.884   0.207
19799SOL    HW1 8236   2.770   6.974   0.178
19799SOL    HW2 8237   2.853   6.841   0.133
19800SOL     OW 8238  13.610  10.268   6.716
19800SOL    HW1 8239  13.525  10.273   6.663
19800SOL    HW2 8240  13.688  10.282   6.655
19801SOL     OW 8241  12.342  14.978   7.569
19801SOL    HW1 8242  12.427  15.014   7.608
19801SOL    HW2 8243  12.270  15.046   7.580
19802SOL     OW 8244   9.735  10.838   6.647
19802SOL    HW1 8245   9.785  10.834   6.560
19802SOL    HW2 8246   9.745  10.929   6.687
19803SOL     OW 8247   9.763  11.168   1.218
19803SOL    HW1 8248   9.751  11.252   1.271
19803SOL    HW2 8249   9.684  11.109   1.233
19804SOL     OW 8250   3.230  13.744   7.700
19804SOL    HW1 8251   3.157  13.697   7.651
19804SOL    HW2 8252   3.190  13.812   7.762
19805SOL     OW 8253   2.891  16.073   1.961
19805SOL    HW1 8254   2.902  15.988   2.012
19805SOL    HW2 8255   2.806  16.118   1.989
19806SOL     OW 8256   5.321   8.251   1.448
19806SOL    HW1 8257   5.354   8.190   1.375
19806SOL    HW2 8258   5.268   8.326   1.408
19807SOL     OW 8259  14.990   6.359   0.395
19807SOL    HW1 8260  14.950   6.373   0.304
19807SOL    HW2 8261  15.016   6.263   0.405
19808SOL     OW 8262   2.476  12.480   8.374
19808SOL    HW1 8263   2.384  12.446   8.357
19808SOL    HW2 8264   2.514  12.435   0.001
19809SOL     OW 8265   7.607   3.258   0.058
19809SOL    HW1 8266   7.655   3.218   0.136
19809SOL    HW2 8267   7.535   3.196   0.028
19810SOL     OW 8268   6.611   9.563   0.319
19810SOL    HW1 8269   6.569   9.539   0.407
19810SOL    HW2 8270   6.548   9.620   0.267
19811SOL     OW 8271   6.945   0.211   7.067
19811SOL    HW1 8272   6.982   0.281   7.006
19811SOL    HW2 8273   6.944   0.123   7.021
19812SOL     OW 8274   9.672  15.064   1.698
19812SOL    HW1 8275   9.739  15.025   1.634
19812SOL    HW2 8276   9.720  15.098   1.779
19813SOL     OW 8277   2.044   5.134   8.353
19813SOL    HW1 8278   2.107   5.110   8.427
19813SOL    HW2 8279   2.025   5.053   8.298
19814SOL     OW 8280   1.306   3.217   0.674
19814SOL    HW1 8281   1.393   3.171   0.687
19814SOL    HW2 8282   1.321   3.315   0.662
19815SOL     OW 8283  14.699   2.337   7.817
19815SOL    HW1 8284  14.695   2.418   7.758
19815SOL    HW2 8285  14.780   2.340   7.874
19816SOL     OW 8286  10.569   7.233   1.773
19816SOL    HW1 8287  10.637   7.260   1.704
19816SOL    HW2 8288  10.519   7.314   1.803
19817SOL     OW 8289  12.531  12.518   6.457
19817SOL    HW1 8290  12.617  12.557   6.426
19817SOL    HW2 8291  12.468  12.508   6.380
19818SOL     OW 8292  14.138  10.980   0.600
19818SOL    HW1 8293  14.076  10.912   0.562
19818SOL    HW2 8294  14.099  11.016   0.685
19819SOL     OW 8295   8.002   1.042   2.152
19819SOL    HW1 8296   7.919   0.994   2.180
19819SOL    HW2 8297   7.983   1.140   2.144
19820SOL     OW 8298  16.389   9.248   7.649
19820SOL    HW1 8299  16.466   9.270   7.589
19820SOL    HW2 8300  16.366   9.329   7.703
19821SOL     OW 8301   5.296   8.930   0.257
19821SOL    HW1 8302   5.306   9.030   0.254
19821SOL    HW2 8303   5.300   8.893   0.164
19822SOL     OW 8304   7.655  16.805   1.152
19822SOL    HW1 8305   7.656  16.851   1.064
19822SOL    HW2 8306   7.748  16.778   1.177
19823SOL     OW 8307   2.152  10.407   8.100
19823SOL    HW1 8308   2.089  10.478   8.131
19823SOL    HW2 8309   2.144  10.327   8.160
19824SOL     OW 8310  16.271   2.389   1.063
19824SOL    HW1 8311  16.237   2.316   1.123
19824SOL    HW2 8312  16.230   2.476   1.090
19825SOL     OW 8313  10.437  12.329   8.007
19825SOL    HW1 8314  10.469  12.376   8.090
19825SOL    HW2 8315  10.358  12.378   7.970
19826SOL     OW 8316   2.109  14.605   0.519
19826SOL    HW1 8317   2.089  14.701   0.502
19826SOL    HW2 8318   2.116  14.589   0.617
19827SOL     OW 8319   5.335  15.459   8.203
19827SOL    HW1 8320   5.402  15.532   8.190
19827SOL    HW2 8321   5.296  15.465   8.295
19828SOL     OW 8322  14.211  13.096   1.711
19828SOL    HW1 8323  14.279  13.160   1.673
19828SOL    HW2 8324  14.221  13.092   1.810
19829SOL     OW 8325  14.998  16.794   7.852
19829SOL    HW1 8326  15.063  16.756   7.786
19829SOL    HW2 8327  15.018  16.758   7.943
19830SOL     OW 8328  10.385  13.573   1.890
19830SOL    HW1 8329  10.431  13.597   1.975
19830SOL    HW2 8330  10.294  13.614   1.889
19831SOL     OW 8331  12.969  15.384   8.115
19831SOL    HW1 8332  13.035  15.411   8.046
19831SOL    HW2 8333  13.005  15.405   8.206
19832SOL     OW 8334   5.230   7.490   8.203
19832SOL    HW1 8335   5.177   7.415   8.164
19832SOL    HW2 8336   5.325   7.461   8.215
19833SOL     OW 8337  11.266   7.699   6.476
19833SOL    HW1 8338  11.325   7.780   6.475
19833SOL    HW2 8339  11.279   7.648   6.391
19834SOL     OW 8340   0.929  11.557   1.943
19834SOL    HW1 8341   0.886  11.546   1.854
19834SOL    HW2 8342   0.943  11.654   1.962
19835SOL     OW 8343   8.277   4.020   7.705
19835SOL    HW1 8344   8.332   3.975   7.635
19835SOL    HW2 8345   8.285   3.971   7.791
19836SOL     OW 8346   9.542  10.702   6.777
19836SOL    HW1 8347   9.624  10.736   6.731
19836SOL    HW2 8348   9.476  10.670   6.709
19837SOL     OW 8349  13.599   7.427   1.618
19837SOL    HW1 8350  13.543   7.500   1.658
19837SOL    HW2 8351  13.573   7.339   1.657
19838SOL     OW 8352   2.691   5.362   8.125
19838SOL    HW1 8353   2.619   5.304   8.164
19838SOL    HW2 8354   2.734   5.314   8.048
19839SOL     OW 8355  15.395   3.857   1.842
19839SOL    HW1 8356  15.484   3.842   1.884
19839SOL    HW2 8357  15.362   3.949   1.865
19840SOL     OW 8358   0.488  13.975   6.611
19840SOL    HW1 8359   0.557  14.024   6.558
19840SOL    HW2 8360   0.480  13.882   6.576
19841SOL     OW 8361   4.224  15.294   1.754
19841SOL    HW1 8362   4.169  15.305   1.671
19841SOL    HW2 8363   4.195  15.360   1.822
19842SOL     OW 8364  16.957   8.602   0.698
19842SOL    HW1 8365  16.902   8.523   0.669
19842SOL    HW2 8366  16.897   8.670   0.740
19843SOL     OW 8367  16.162  16.333   7.749
19843SOL    HW1 8368  16.088  16.285   7.796
19843SOL    HW2 8369  16.147  16.330   7.650
19844SOL     OW 8370   4.866  12.975   0.538
19844SOL    HW1 8371   4.861  12.957   0.636
19844SOL    HW2 8372   4.890  12.891   0.489
19845SOL     OW 8373  11.599  14.963   7.225
19845SOL    HW1 8374  11.518  14.995   7.175
19845SOL    HW2 8375  11.678  15.018   7.197
19846SOL     OW 8376   5.485  12.337   1.712
19846SOL    HW1 8377   5.394  12.298   1.725
19846SOL    HW2 8378   5.530  12.348   1.800
19847SOL     OW 8379   0.837  12.592   1.681
19847SOL    HW1 8380   0.878  12.683   1.690
19847SOL    HW2 8381   0.909  12.524   1.671
19848SOL     OW 8382   5.828   8.598   7.048
19848SOL    HW1 8383   5.749   8.656   7.025
19848SOL    HW2 8384   5.796   8.508   7.076
19849SOL     OW 8385   6.834  11.782   8.193
19849SOL    HW1 8386   6.915  11.744   8.239
19849SOL    HW2 8387   6.752  11.750   8.239
19850SOL     OW 8388   7.189  15.270   8.231
19850SOL    HW1 8389   7.132  15.249   8.311
19850SOL    HW2 8390   7.204  15.369   8.225
19851SOL     OW 8391   2.677  13.401   1.954
19851SOL    HW1 8392   2.742  13.471   1.985
19851SOL    HW2 8393   2.586  13.441   1.945
19852SOL     OW 8394  11.612  13.278   7.148
19852SOL    HW1 8395  11.551  13.294   7.226
19852SOL    HW2 8396  11.581  13.197   7.098
19853SOL     OW 8397  11.162   9.066   0.284
19853SOL    HW1 8398  11.163   9.037   0.188
19853SOL    HW2 8399  11.250   9.044   0.326
19854SOL     OW 8400   4.882  12.894   6.883
19854SOL    HW1 8401   4.842  12.858   6.799
19854SOL    HW2 8402   4.949  12.964   6.861
19855SOL     OW 8403   4.684  11.481   7.285
19855SOL    HW1 8404   4.709  11.439   7.372
19855SOL    HW2 8405   4.764  11.526   7.245
19856SOL     OW 8406   5.061   8.347   1.855
19856SOL    HW1 8407   5.116   8.295   1.790
19856SOL    HW2 8408   5.053   8.296   1.940
19857SOL     OW 8409  16.684   5.556   8.353
19857SOL    HW1 8410  16.613   5.617   8.318
19857SOL    HW2 8411  16.655   5.461   8.340
19858SOL     OW 8412  16.292  10.879   7.228
19858SOL    HW1 8413  16.362  10.826   7.179
19858SOL    HW2 8414  16.211  10.886   7.170
19859SOL     OW 8415  12.522  12.800   0.967
19859SOL    HW1 8416  12.606  12.751   0.987
19859SOL    HW2 8417  12.522  12.888   1.015
19860SOL     OW 8418   3.972   4.370   1.657
19860SOL    HW1 8419   3.994   4.458   1.699
19860SOL    HW2 8420   3.889   4.333   1.699
19861SOL     OW 8421   1.916  15.114   1.049
19861SOL    HW1 8422   1.897  15.016   1.053
19861SOL    HW2 8423   2.014  15.130   1.057
19862SOL     OW 8424  13.362   9.916   8.209
19862SOL    HW1 8425  13.307   9.993   8.176
19862SOL    HW2 8426  13.457   9.929   8.181
19863SOL     OW 8427   8.587   3.995   2.011
19863SOL    HW1 8428   8.555   3.943   2.090
19863SOL    HW2 8429   8.544   4.085   2.011
19864SOL     OW 8430  11.624   9.581   7.928
19864SOL    HW1 8431  11.557   9.637   7.881
19864SOL    HW2 8432  11.698   9.556   7.865
19865SOL     OW 8433  11.978   3.001   7.948
19865SOL    HW1 8434  11.881   2.976   7.954
19865SOL    HW2 8435  11.986   3.100   7.935
19866SOL     OW 8436   4.521   5.619   7.050
19866SOL    HW1 8437   4.510   5.622   6.950
19866SOL    HW2 8438   4.570   5.701   7.080
19867SOL     OW 8439   4.674   7.638   2.296
19867SOL    HW1 8440   4.577   7.659   2.281
19867SOL    HW2 8441   4.707   7.691   2.374
19868SOL     OW 8442  11.940  10.950   2.481
19868SOL    HW1 8443  11.911  10.881   2.547
19868SOL    HW2 8444  11.936  11.040   2.523
19869SOL     OW 8445   5.106   1.997   1.355
19869SOL    HW1 8446   5.078   1.927   1.289
19869SOL    HW2 8447   5.043   2.074   1.350
19870SOL     OW 8448   3.131  13.810   1.800
19870SOL    HW1 8449   3.074  13.735   1.768
19870SOL    HW2 8450   3.076  13.873   1.855
19871SOL     OW 8451  10.525  16.826   7.015
19871SOL    HW1 8452  10.603  16.887   7.029
19871SOL    HW2 8453  10.541  16.772   6.932
19872SOL     OW 8454   5.881  14.010   1.192
19872SOL    HW1 8455   5.852  14.079   1.259
19872SOL    HW2 8456   5.882  13.920   1.236
19873SOL     OW 8457   7.726   8.892   0.402
19873SOL    HW1 8458   7.711   8.990   0.414
19873SOL    HW2 8459   7.816   8.876   0.362
19874SOL     OW 8460   4.151  11.072   0.404
19874SOL    HW1 8461   4.157  11.025   0.491
19874SOL    HW2 8462   4.156  11.005   0.329
19875SOL     OW 8463   2.264  14.735   8.099
19875SOL    HW1 8464   2.285  14.640   8.079
19875SOL    HW2 8465   2.165  14.748   8.100
19876SOL     OW 8466   6.429   8.246   7.172
19876SOL    HW1 8467   6.417   8.339   7.138
19876SOL    HW2 8468   6.416   8.181   7.097
19877SOL     OW 8469  12.414  10.700   1.611
19877SOL    HW1 8470  12.456  10.621   1.656
19877SOL    HW2 8471  12.453  10.710   1.519
19878SOL     OW 8472   3.100   9.572   7.870
19878SOL    HW1 8473   3.063   9.658   7.833
19878SOL    HW2 8474   3.035   9.498   7.853
19879SOL     OW 8475   3.097  11.359   7.865
19879SOL    HW1 8476   3.104  11.269   7.822
19879SOL    HW2 8477   3.057  11.424   7.800
19880SOL     OW 8478   7.897   4.541   1.332
19880SOL    HW1 8479   7.881   4.481   1.253
19880SOL    HW2 8480   7.858   4.631   1.313
19881SOL     OW 8481  15.662   6.790   6.926
19881SOL    HW1 8482  15.593   6.861   6.917
19881SOL    HW2 8483  15.649   6.722   6.854
19882SOL     OW 8484   9.994  16.771   0.992
19882SOL    HW1 8485   9.926  16.845   0.994
19882SOL    HW2 8486  10.055  16.780   1.071
19883SOL     OW 8487   0.969  11.180   0.673
19883SOL    HW1 8488   1.063  11.168   0.704
19883SOL    HW2 8489   0.917  11.097   0.694
19884SOL     OW 8490   2.847   6.948   1.762
19884SOL    HW1 8491   2.832   7.019   1.693
19884SOL    HW2 8492   2.819   6.859   1.725
19885SOL     OW 8493   0.450   3.336   7.961
19885SOL    HW1 8494   0.359   3.299   7.976
19885SOL    HW2 8495   0.453   3.432   7.990
19886SOL     OW 8496   2.774  14.202   2.355
19886SOL    HW1 8497   2.720  14.270   2.404
19886SOL    HW2 8498   2.737  14.111   2.373
19887SOL     OW 8499   8.915   3.247   8.347
19887SOL    HW1 8500   8.881   3.289   8.431
19887SOL    HW2 8501   8.869   3.160   8.332
19888SOL     OW 8502  13.645   0.897   7.328
19888SOL    HW1 8503  13.593   0.852   7.255
19888SOL    HW2 8504  13.735   0.925   7.293
19889SOL     OW 8505   3.116   4.085   7.932
19889SOL    HW1 8506   3.079   4.129   8.014
19889SOL    HW2 8507   3.070   4.120   7.851
19890SOL     OW 8508   6.456  15.522   0.185
19890SOL    HW1 8509   6.381  15.588   0.183
19890SOL    HW2 8510   6.538  15.566   0.223
19891SOL     OW 8511  15.097   6.966   0.836
19891SOL    HW1 8512  15.101   6.961   0.936
19891SOL    HW2 8513  15.014   7.015   0.808
19892SOL     OW 8514  16.649   2.628   0.962
19892SOL    HW1 8515  16.740   2.653   0.994
19892SOL    HW2 8516  16.657   2.572   0.880
19893SOL     OW 8517   3.420  14.844   7.504
19893SOL    HW1 8518   3.500  14.887   7.463
19893SOL    HW2 8519   3.384  14.774   7.442
19894SOL     OW 8520  11.105   8.549   7.807
19894SOL    HW1 8521  11.064   8.496   7.882
19894SOL    HW2 8522  11.035   8.570   7.739
19895SOL     OW 8523   4.226  10.801   1.594
19895SOL    HW1 8524   4.131  10.829   1.606
19895SOL    HW2 8525   4.230  10.701   1.587
19896SOL     OW 8526   8.399  10.116   0.147
19896SOL    HW1 8527   8.340  10.196   0.133
19896SOL    HW2 8528   8.494  10.146   0.151
19897SOL     OW 8529   1.500   0.672   7.992
19897SOL    HW1 8530   1.479   0.587   7.943
19897SOL    HW2 8531   1.513   0.651   8.089
19898SOL     OW 8532  15.650   7.490   0.569
19898SOL    HW1 8533  15.628   7.486   0.471
19898SOL    HW2 8534  15.727   7.430   0.588
19899SOL     OW 8535   6.955   3.254   7.464
19899SOL    HW1 8536   6.982   3.191   7.391
19899SOL    HW2 8537   7.032   3.267   7.527
19900SOL     OW 8538  15.776   2.342   7.851
19900SOL    HW1 8539  15.802   2.247   7.867
19900SOL    HW2 8540  15.676   2.349   7.851
19901SOL     OW 8541   2.074   3.937   6.738
19901SOL    HW1 8542   2.076   3.875   6.660
19901SOL    HW2 8543   2.168   3.964   6.761
19902SOL     OW 8544   3.214   7.729   1.700
19902SOL    HW1 8545   3.302   7.754   1.741
19902SOL    HW2 8546   3.187   7.799   1.635
19903SOL     OW 8547   9.834   2.757   6.998
19903SOL    HW1 8548   9.736   2.775   7.001
19903SOL    HW2 8549   9.852   2.676   6.943
19904SOL     OW 8550   5.972  10.966   1.802
19904SOL    HW1 8551   5.941  11.036   1.866
19904SOL    HW2 8552   5.970  10.877   1.846
19905SOL     OW 8553   6.577   6.505   5.957
19905SOL    HW1 8554   6.550   6.408   5.953
19905SOL    HW2 8555   6.652   6.521   5.892
19906SOL     OW 8556  10.525   6.090   7.722
19906SOL    HW1 8557  10.557   6.154   7.793
19906SOL    HW2 8558  10.443   6.128   7.679
19907SOL     OW 8559   4.070  15.393   1.250
19907SOL    HW1 8560   4.166  15.402   1.223
19907SOL    HW2 8561   4.019  15.471   1.213
19908SOL     OW 8562   3.864   6.748   0.975
19908SOL    HW1 8563   3.799   6.817   1.005
19908SOL    HW2 8564   3.816   6.665   0.948
19909SOL     OW 8565   2.818  10.335   1.910
19909SOL    HW1 8566   2.791  10.239   1.917
19909SOL    HW2 8567   2.816  10.378   2.001
19910SOL     OW 8568  10.027   4.038   1.427
19910SOL    HW1 8569  10.026   4.128   1.470
19910SOL    HW2 8570   9.959   4.034   1.355
19911SOL     OW 8571  11.990  13.631   7.108
19911SOL    HW1 8572  12.074  13.618   7.056
19911SOL    HW2 8573  11.929  13.553   7.092
19912SOL     OW 8574   5.760  12.227   8.407
19912SOL    HW1 8575   5.757  12.138   8.361
19912SOL    HW2 8576   5.783  12.213   0.050
19913SOL     OW 8577  11.796   3.144   7.354
19913SOL    HW1 8578  11.873   3.080   7.354
19913SOL    HW2 8579  11.784   3.182   7.445
19914SOL     OW 8580   8.776  11.997   0.512
19914SOL    HW1 8581   8.745  12.045   0.594
19914SOL    HW2 8582   8.791  11.901   0.532
19915SOL     OW 8583   0.288   4.801   0.233
19915SOL    HW1 8584   0.336   4.725   0.276
19915SOL    HW2 8585   0.291   4.790   0.134
19916SOL     OW 8586   3.614   2.994   1.831
19916SOL    HW1 8587   3.525   3.010   1.874
19916SOL    HW2 8588   3.662   3.080   1.821
19917SOL     OW 8589   0.143  15.883   1.230
19917SOL    HW1 8590   0.129  15.910   1.134
19917SOL    HW2 8591   0.241  15.870   1.246
19918SOL     OW 8592   1.024   6.187   7.160
19918SOL    HW1 8593   1.113   6.161   7.197
19918SOL    HW2 8594   1.036   6.253   7.086
19919SOL     OW 8595  15.517  16.683   1.279
19919SOL    HW1 8596  15.432  16.667   1.228
19919SOL    HW2 8597  15.535  16.781   1.285
19920SOL     OW 8598   6.309   6.480   6.365
19920SOL    HW1 8599   6.321   6.515   6.272
19920SOL    HW2 8600   6.261   6.392   6.361
19921SOL     OW 8601  13.769   5.629   1.531
19921SOL    HW1 8602  13.731   5.679   1.453
19921SOL    HW2 8603  13.791   5.693   1.604
19922SOL     OW 8604   0.051  14.001   8.087
19922SOL    HW1 8605   0.085  13.914   8.123
19922SOL    HW2 8606  16.934  14.001   8.090
19923SOL     OW 8607  16.577  14.384   0.034
19923SOL    HW1 8608  16.486  14.417   0.061
19923SOL    HW2 8609  16.623  14.455   8.435
19924SOL     OW 8610   7.495  16.090   1.260
19924SOL    HW1 8611   7.541  16.175   1.234
19924SOL    HW2 8612   7.552  16.012   1.237
19925SOL     OW 8613  13.033  16.297   7.078
19925SOL    HW1 8614  13.091  16.238   7.021
19925SOL    HW2 8615  13.001  16.245   7.157
19926SOL     OW 8616  16.818   4.581   6.594
19926SOL    HW1 8617  16.889   4.540   6.651
19926SOL    HW2 8618  16.802   4.524   6.514
19927SOL     OW 8619  15.681  11.451   2.385
19927SOL    HW1 8620  15.618  11.431   2.460
19927SOL    HW2 8621  15.666  11.544   2.352
19928SOL     OW 8622   3.611   6.345   6.928
19928SOL    HW1 8623   3.532   6.369   6.872
19928SOL    HW2 8624   3.694   6.348   6.872
19929SOL     OW 8625  12.705  11.506   7.099
19929SOL    HW1 8626  12.607  11.525   7.090
19929SOL    HW2 8627  12.718  11.431   7.164
19930SOL     OW 8628   0.063  14.451   6.899
19930SOL    HW1 8629   0.055  14.522   6.828
19930SOL    HW2 8630   0.016  14.369   6.868
19931SOL     OW 8631   5.590  16.294   1.056
19931SOL    HW1 8632   5.574  16.380   1.007
19931SOL    HW2 8633   5.509  16.272   1.110
19932SOL     OW 8634  15.033   6.086   0.450
19932SOL    HW1 8635  14.937   6.062   0.441
19932SOL    HW2 8636  15.073   6.039   0.529
19933SOL     OW 8637   1.304   6.730   8.372
19933SOL    HW1 8638   1.377   6.696   8.431
19933SOL    HW2 8639   1.254   6.803   8.420
19934SOL     OW 8640  14.196   7.995   6.115
19934SOL    HW1 8641  14.212   8.080   6.165
19934SOL    HW2 8642  14.277   7.937   6.121
19935SOL     OW 8643  14.397  14.102   1.115
19935SOL    HW1 8644  14.432  14.171   1.051
19935SOL    HW2 8645  14.305  14.074   1.086
19936SOL     OW 8646  14.346   4.665   7.841
19936SOL    HW1 8647  14.446   4.659   7.831
19936SOL    HW2 8648  14.322   4.752   7.885
19937SOL     OW 8649  15.151   1.310   7.832
19937SOL    HW1 8650  15.119   1.315   7.926
19937SOL    HW2 8651  15.244   1.347   7.827
19938SOL     OW 8652   3.356   1.258   8.222
19938SOL    HW1 8653   3.361   1.346   8.175
19938SOL    HW2 8654   3.333   1.186   8.156
19939SOL     OW 8655   6.249  15.371   7.965
19939SOL    HW1 8656   6.278  15.288   8.013
19939SOL    HW2 8657   6.188  15.423   8.024
19940SOL     OW 8658   5.782  15.650   7.323
19940SOL    HW1 8659   5.683  15.658   7.311
19940SOL    HW2 8660   5.827  15.725   7.273
19941SOL     OW 8661   7.536   3.866   0.737
19941SOL    HW1 8662   7.473   3.925   0.787
19941SOL    HW2 8663   7.492   3.835   0.652
19942SOL     OW 8664  15.796   8.086   7.559
19942SOL    HW1 8665  15.830   8.135   7.479
19942SOL    HW2 8666  15.717   8.135   7.596
19943SOL     OW 8667  12.528   2.274   1.557
19943SOL    HW1 8668  12.534   2.176   1.579
19943SOL    HW2 8669  12.511   2.284   1.459
19944SOL     OW 8670   5.418  11.745   7.648
19944SOL    HW1 8671   5.449  11.813   7.715
19944SOL    HW2 8672   5.355  11.682   7.692
19945SOL     OW 8673   5.511  15.556   6.450
19945SOL    HW1 8674   5.561  15.569   6.364
19945SOL    HW2 8675   5.546  15.474   6.496
19946SOL     OW 8676   4.809   5.317   1.908
19946SOL    HW1 8677   4.761   5.236   1.875
19946SOL    HW2 8678   4.863   5.292   1.989
19947SOL     OW 8679  13.778   2.809   1.158
19947SOL    HW1 8680  13.849   2.738   1.156
19947SOL    HW2 8681  13.746   2.821   1.251
19948SOL     OW 8682   7.661  15.883   1.184
19948SOL    HW1 8683   7.754  15.919   1.191
19948SOL    HW2 8684   7.644  15.852   1.091
19949SOL     OW 8685  13.320  10.485   1.312
19949SOL    HW1 8686  13.406  10.508   1.358
19949SOL    HW2 8687  13.249  10.549   1.340
19950SOL     OW 8688   1.996  15.799   6.628
19950SOL    HW1 8689   1.983  15.741   6.708
19950SOL    HW2 8690   2.092  15.802   6.603
19951SOL     OW 8691   3.319  11.890   6.966
19951SOL    HW1 8692   3.295  11.792   6.970
19951SOL    HW2 8693   3.247  11.939   6.918
19952SOL     OW 8694  10.793   4.952   1.066
19952SOL    HW1 8695  10.759   4.933   0.974
19952SOL    HW2 8696  10.766   5.044   1.093
19953SOL     OW 8697   0.121  10.038   1.148
19953SOL    HW1 8698   0.177  10.104   1.198
19953SOL    HW2 8699   0.069  10.085   1.077
19954SOL     OW 8700   0.984   5.611   0.404
19954SOL    HW1 8701   1.029   5.646   0.322
19954SOL    HW2 8702   1.006   5.514   0.414
19955SOL     OW 8703  11.707  16.577   6.725
19955SOL    HW1 8704  11.754  16.514   6.664
19955SOL    HW2 8705  11.723  16.671   6.695
19956SOL     OW 8706  16.876   4.211   0.704
19956SOL    HW1 8707  16.783   4.216   0.740
19956SOL    HW2 8708  16.937   4.265   0.762
19957SOL     OW 8709  12.628   6.957   2.199
19957SOL    HW1 8710  12.535   6.920   2.200
19957SOL    HW2 8711  12.624   7.057   2.207
19958SOL     OW 8712   0.241  13.326   2.064
19958SOL    HW1 8713   0.226  13.403   2.002
19958SOL    HW2 8714   0.208  13.350   2.156
19959SOL     OW 8715  14.939  14.739   6.980
19959SOL    HW1 8716  14.959  14.788   6.895
19959SOL    HW2 8717  14.861  14.678   6.966
19960SOL     OW 8718  10.308   0.025   8.165
19960SOL    HW1 8719  10.228   0.070   8.206
19960SOL    HW2 8720  10.376   0.094   8.141
19961SOL     OW 8721  12.888   1.448   0.341
19961SOL    HW1 8722  12.890   1.548   0.336
19961SOL    HW2 8723  12.831   1.412   0.267
19962SOL     OW 8724  15.188   0.653   1.797
19962SOL    HW1 8725  15.102   0.602   1.801
19962SOL    HW2 8726  15.202   0.701   1.883
19963SOL     OW 8727  16.044   7.534   1.196
19963SOL    HW1 8728  16.115   7.597   1.226
19963SOL    HW2 8729  16.085   7.451   1.159
19964SOL     OW 8730  16.407  10.471   1.962
19964SOL    HW1 8731  16.434  10.531   2.037
19964SOL    HW2 8732  16.307  10.468   1.957
19965SOL     OW 8733   5.032  12.754   0.150
19965SOL    HW1 8734   5.007  12.832   0.092
19965SOL    HW2 8735   5.130  12.759   0.170
19966SOL     OW 8736   9.562  16.925   1.673
19966SOL    HW1 8737   9.628   0.011   1.644
19966SOL    HW2 8738   9.480  16.930   1.616
19967SOL     OW 8739   4.926  10.113   2.420
19967SOL    HW1 8740   5.012  10.138   2.464
19967SOL    HW2 8741   4.910  10.015   2.431
19968SOL     OW 8742  15.531   3.271   7.044
19968SOL    HW1 8743  15.439   3.295   7.076
19968SOL    HW2 8744  15.561   3.187   7.089
19969SOL     OW 8745   3.363   8.715   7.904
19969SOL    HW1 8746   3.405   8.790   7.853
19969SOL    HW2 8747   3.331   8.749   7.993
19970SOL     OW 8748   7.882   5.590   6.593
19970SOL    HW1 8749   7.803   5.556   6.643
19970SOL    HW2 8750   7.855   5.670   6.538
19971SOL     OW 8751   0.373  13.668   0.056
19971SOL    HW1 8752   0.350  13.577   0.088
19971SOL    HW2 8753   0.425  13.662   8.424
19972SOL     OW 8754   8.292  10.888   1.278
19972SOL    HW1 8755   8.204  10.894   1.233
19972SOL    HW2 8756   8.323  10.793   1.279
19973SOL     OW 8757   7.699  16.750   1.531
19973SOL    HW1 8758   7.649  16.771   1.615
19973SOL    HW2 8759   7.722  16.652   1.529
19974SOL     OW 8760   3.690   2.364   0.773
19974SOL    HW1 8761   3.701   2.265   0.765
19974SOL    HW2 8762   3.716   2.408   0.687
19975SOL     OW 8763  10.957  10.278   6.766
19975SOL    HW1 8764  11.047  10.248   6.735
19975SOL    HW2 8765  10.917  10.208   6.825
19976SOL     OW 8766   2.063  14.458   2.363
19976SOL    HW1 8767   2.069  14.550   2.327
19976SOL    HW2 8768   2.089  14.392   2.292
19977SOL     OW 8769   3.610   2.865   7.214
19977SOL    HW1 8770   3.694   2.843   7.164
19977SOL    HW2 8771   3.581   2.958   7.192
19978SOL     OW 8772   8.271   8.784   1.685
19978SOL    HW1 8773   8.297   8.861   1.745
19978SOL    HW2 8774   8.254   8.819   1.593
19979SOL     OW 8775   0.452   9.615   6.506
19979SOL    HW1 8776   0.414   9.691   6.454
19979SOL    HW2 8777   0.465   9.536   6.446
19980SOL     OW 8778  14.047  12.540   1.274
19980SOL    HW1 8779  14.127  12.512   1.221
19980SOL    HW2 8780  14.046  12.490   1.361
19981SOL     OW 8781   3.671   5.919   6.858
19981SOL    HW1 8782   3.667   5.985   6.783
19981SOL    HW2 8783   3.764   5.881   6.864
19982SOL     OW 8784   1.580  10.974   1.252
19982SOL    HW1 8785   1.592  11.042   1.180
19982SOL    HW2 8786   1.518  10.903   1.221
19983SOL     OW 8787   1.994  13.602   7.876
19983SOL    HW1 8788   1.957  13.674   7.936
19983SOL    HW2 8789   2.093  13.599   7.885
19984SOL     OW 8790  13.766   6.209   0.152
19984SOL    HW1 8791  13.808   6.187   0.064
19984SOL    HW2 8792  13.743   6.124   0.200
19985SOL     OW 8793  13.976   9.486   1.352
19985SOL    HW1 8794  13.913   9.545   1.404
19985SOL    HW2 8795  14.049   9.454   1.412
19986SOL     OW 8796   9.337  14.685   7.454
19986SOL    HW1 8797   9.341  14.751   7.379
19986SOL    HW2 8798   9.277  14.719   7.526
19987SOL     OW 8799   0.961  10.411   1.356
19987SOL    HW1 8800   1.030  10.377   1.292
19987SOL    HW2 8801   0.958  10.511   1.354
19988SOL     OW 8802  10.338   6.594   8.215
19988SOL    HW1 8803  10.250   6.554   8.190
19988SOL    HW2 8804  10.410   6.526   8.205
19989SOL     OW 8805   4.408   0.756   1.120
19989SOL    HW1 8806   4.452   0.824   1.179
19989SOL    HW2 8807   4.399   0.794   1.028
19990SOL     OW 8808  15.621   1.681   0.123
19990SOL    HW1 8809  15.605   1.649   0.216
19990SOL    HW2 8810  15.636   1.603   0.062
19991SOL     OW 8811  13.342   8.332   6.164
19991SOL    HW1 8812  13.407   8.296   6.096
19991SOL    HW2 8813  13.296   8.412   6.126
19992SOL     OW 8814  10.659   7.884   6.708
19992SOL    HW1 8815  10.568   7.882   6.666
19992SOL    HW2 8816  10.705   7.970   6.683
19993SOL     OW 8817  10.301   5.745   8.112
19993SOL    HW1 8818  10.344   5.822   8.065
19993SOL    HW2 8819  10.202   5.753   8.107
19994SOL     OW 8820  10.796   0.218   7.202
19994SOL    HW1 8821  10.808   0.174   7.291
19994SOL    HW2 8822  10.885   0.222   7.155
19995SOL     OW 8823   2.800  14.354   2.127
19995SOL    HW1 8824   2.793  14.298   2.210
19995SOL    HW2 8825   2.732  14.324   2.061
19996SOL     OW 8826  13.912   6.364   2.004
19996SOL    HW1 8827  13.947   6.276   2.035
19996SOL    HW2 8828  13.856   6.406   2.075
19997SOL     OW 8829   5.221   3.438   7.584
19997SOL    HW1 8830   5.145   3.377   7.606
19997SOL    HW2 8831   5.191   3.533   7.590
19998SOL     OW 8832  12.317  16.905   1.731
19998SOL    HW1 8833  12.230  16.856   1.726
19998SOL    HW2 8834  12.375  16.865   1.802
19999SOL     OW 8835   7.645   6.661   7.867
19999SOL    HW1 8836   7.680   6.569   7.854
19999SOL    HW2 8837   7.697   6.725   7.811
20000SOL     OW 8838  14.329  13.185   6.748
20000SOL    HW1 8839  14.269  13.238   6.688
20000SOL    HW2 8840  14.366  13.244   6.820
20001SOL     OW 8841  10.292   9.864   7.047
20001SOL    HW1 8842  10.259   9.774   7.077
20001SOL    HW2 8843  10.232   9.900   6.977
20002SOL     OW 8844   9.638  13.377   7.512
20002SOL    HW1 8845   9.730  13.355   7.479
20002SOL    HW2 8846   9.572  13.316   7.470
20003SOL     OW 8847  15.945  14.006   7.893
20003SOL    HW1 8848  16.024  13.949   7.872
20003SOL    HW2 8849  15.864  13.969   7.847
20004SOL     OW 8850  14.004   5.933   6.800
20004SOL    HW1 8851  14.026   5.971   6.710
20004SOL    HW2 8852  13.972   5.839   6.790
20005SOL     OW 8853  16.688   4.992   7.896
20005SOL    HW1 8854  16.769   4.934   7.901
20005SOL    HW2 8855  16.646   4.981   7.806
20006SOL     OW 8856  16.578   6.900   6.905
20006SOL    HW1 8857  16.584   6.941   6.814
20006SOL    HW2 8858  16.668   6.900   6.948
20007SOL     OW 8859   1.404  11.197   2.573
20007SOL    HW1 8860   1.313  11.215   2.535
20007SOL    HW2 8861   1.406  11.104   2.611
20008SOL     OW 8862   8.056   5.731   6.305
20008SOL    HW1 8863   8.138   5.782   6.329
20008SOL    HW2 8864   8.068   5.690   6.214
20009SOL     OW 8865  14.876   2.647   8.333
20009SOL    HW1 8866  14.936   2.602   8.398
20009SOL    HW2 8867  14.931   2.697   8.266
20010SOL     OW 8868  12.094  15.399   8.060
20010SOL    HW1 8869  12.016  15.376   8.119
20010SOL    HW2 8870  12.107  15.326   7.993
20011SOL     OW 8871  15.351  10.122   7.335
20011SOL    HW1 8872  15.346  10.090   7.430
20011SOL    HW2 8873  15.442  10.161   7.318
20012SOL     OW 8874  12.650   9.801   7.711
20012SOL    HW1 8875  12.650   9.716   7.765
20012SOL    HW2 8876  12.744   9.827   7.691
20013SOL     OW 8877   4.904   9.283   1.554
20013SOL    HW1 8878   4.850   9.363   1.530
20013SOL    HW2 8879   4.993   9.288   1.507
20014SOL     OW 8880  13.964   9.912   1.827
20014SOL    HW1 8881  13.866   9.890   1.832
20014SOL    HW2 8882  14.012   9.865   1.901
20015SOL     OW 8883  12.991   5.061   6.545
20015SOL    HW1 8884  12.935   5.078   6.626
20015SOL    HW2 8885  13.024   4.966   6.545
20016SOL     OW 8886   8.238  15.839   0.305
20016SOL    HW1 8887   8.242  15.810   0.400
20016SOL    HW2 8888   8.144  15.838   0.273
20017SOL     OW 8889   9.171   5.825   1.722
20017SOL    HW1 8890   9.194   5.841   1.626
20017SOL    HW2 8891   9.124   5.905   1.759
20018SOL     OW 8892   8.627  13.804   0.375
20018SOL    HW1 8893   8.653  13.713   0.407
20018SOL    HW2 8894   8.529  13.807   0.356
20019SOL     OW 8895   8.154   3.900   6.202
20019SOL    HW1 8896   8.075   3.855   6.160
20019SOL    HW2 8897   8.146   3.895   6.302
20020SOL     OW 8898  16.153   4.615   7.987
20020SOL    HW1 8899  16.087   4.662   7.929
20020SOL    HW2 8900  16.155   4.658   8.078
20021SOL     OW 8901   0.160   2.526   0.995
20021SOL    HW1 8902   0.258   2.508   0.987
20021SOL    HW2 8903   0.120   2.540   0.904
20022SOL     OW 8904  14.678  14.642   2.206
20022SOL    HW1 8905  14.733  14.686   2.277
20022SOL    HW2 8906  14.662  14.547   2.230
20023SOL     OW 8907  16.525   0.776   1.812
20023SOL    HW1 8908  16.451   0.801   1.874
20023SOL    HW2 8909  16.601   0.738   1.865
20024SOL     OW 8910  15.244   0.246   1.103
20024SOL    HW1 8911  15.219   0.228   1.008
20024SOL    HW2 8912  15.160   0.262   1.156
20025SOL     OW 8913   9.951  12.558   8.261
20025SOL    HW1 8914  10.040  12.529   8.227
20025SOL    HW2 8915   9.962  12.634   8.325
20026SOL     OW 8916  12.159   7.436   8.020
20026SOL    HW1 8917  12.230   7.379   8.061
20026SOL    HW2 8918  12.184   7.533   8.032
20027SOL     OW 8919   6.101   7.093   2.187
20027SOL    HW1 8920   6.041   7.028   2.140
20027SOL    HW2 8921   6.157   7.043   2.254
20028SOL     OW 8922  13.959   3.157   8.192
20028SOL    HW1 8923  14.032   3.091   8.175
20028SOL    HW2 8924  13.917   3.183   8.105
20029SOL     OW 8925  16.168   3.931   0.212
20029SOL    HW1 8926  16.122   3.993   0.275
20029SOL    HW2 8927  16.103   3.864   0.177
20030SOL     OW 8928   1.905  11.658   2.145
20030SOL    HW1 8929   1.863  11.568   2.141
20030SOL    HW2 8930   1.850  11.718   2.204
20031SOL     OW 8931   2.171  12.265   0.457
20031SOL    HW1 8932   2.240  12.195   0.477
20031SOL    HW2 8933   2.082  12.234   0.490
20032SOL     OW 8934  13.114   4.792   6.610
20032SOL    HW1 8935  13.054   4.729   6.658
20032SOL    HW2 8936  13.180   4.741   6.555
20033SOL     OW 8937  16.630  11.587   1.840
20033SOL    HW1 8938  16.608  11.664   1.779
20033SOL    HW2 8939  16.629  11.618   1.935
20034SOL     OW 8940  16.212   5.443   0.742
20034SOL    HW1 8941  16.292   5.466   0.797
20034SOL    HW2 8942  16.147   5.392   0.797
20035SOL     OW 8943  11.317   2.554   0.943
20035SOL    HW1 8944  11.379   2.606   1.001
20035SOL    HW2 8945  11.365   2.474   0.906
20036SOL     OW 8946   3.994  11.113   1.159
20036SOL    HW1 8947   3.949  11.160   1.235
20036SOL    HW2 8948   4.035  11.180   1.098
20037SOL     OW 8949  12.006  14.197   1.224
20037SOL    HW1 8950  12.051  14.186   1.135
20037SOL    HW2 8951  12.033  14.284   1.264
20038SOL     OW 8952   4.843  11.021   7.136
20038SOL    HW1 8953   4.841  10.990   7.041
20038SOL    HW2 8954   4.792  10.957   7.193
20039SOL     OW 8955   9.373  13.663   0.794
20039SOL    HW1 8956   9.318  13.714   0.727
20039SOL    HW2 8957   9.313  13.624   0.863
20040SOL     OW 8958  14.800   5.352   8.416
20040SOL    HW1 8959  14.724   5.306   8.369
20040SOL    HW2 8960  14.808   5.316   0.055
20041SOL     OW 8961  13.687   9.951   0.402
20041SOL    HW1 8962  13.775   9.941   0.448
20041SOL    HW2 8963  13.671   9.871   0.343
20042SOL     OW 8964   0.859  10.196   7.227
20042SOL    HW1 8965   0.873  10.135   7.148
20042SOL    HW2 8966   0.799  10.271   7.199
20043SOL     OW 8967   4.983  12.307   8.246
20043SOL    HW1 8968   5.055  12.356   8.198
20043SOL    HW2 8969   5.021  12.262   8.327
20044SOL     OW 8970  14.969  11.146   0.152
20044SOL    HW1 8971  14.941  11.135   0.057
20044SOL    HW2 8972  14.960  11.242   0.178
20045SOL     OW 8973   3.263   0.852   0.124
20045SOL    HW1 8974   3.318   0.832   0.042
20045SOL    HW2 8975   3.262   0.951   0.140
20046SOL     OW 8976   8.172   7.771   6.785
20046SOL    HW1 8977   8.222   7.724   6.858
20046SOL    HW2 8978   8.189   7.869   6.791
20047SOL     OW 8979   1.763   9.217   1.681
20047SOL    HW1 8980   1.799   9.172   1.763
20047SOL    HW2 8981   1.735   9.148   1.615
20048SOL     OW 8982  13.612   5.183   7.617
20048SOL    HW1 8983  13.606   5.114   7.689
20048SOL    HW2 8984  13.708   5.210   7.604
20049SOL     OW 8985   5.907   0.519   1.359
20049SOL    HW1 8986   5.981   0.471   1.405
20049SOL    HW2 8987   5.937   0.550   1.269
20050SOL     OW 8988  14.078  12.095   0.576
20050SOL    HW1 8989  14.099  12.138   0.488
20050SOL    HW2 8990  13.985  12.059   0.573
20051SOL     OW 8991  16.939  10.215   2.272
20051SOL    HW1 8992   0.041  10.221   2.322
20051SOL    HW2 8993  16.909  10.120   2.269
20052SOL     OW 8994  16.668   6.125   0.973
20052SOL    HW1 8995  16.719   6.040   0.961
20052SOL    HW2 8996  16.713   6.181   1.043
20053SOL     OW 8997   7.608   9.784   8.348
20053SOL    HW1 8998   7.676   9.716   8.374
20053SOL    HW2 8999   7.590   9.778   8.250
20054SOL     OW 9000  14.055   2.531   7.236
20054SOL    HW1 9001  14.075   2.591   7.313
20054SOL    HW2 9002  14.028   2.587   7.157
20055SOL     OW 9003  16.780   8.592   7.692
20055SOL    HW1 9004  16.871   8.603   7.732
20055SOL    HW2 9005  16.766   8.496   7.666
20056SOL     OW 9006  12.581   9.827   0.414
20056SOL    HW1 9007  12.585   9.927   0.411
20056SOL    HW2 9008  12.660   9.792   0.466
20057SOL     OW 9009   5.205   2.916   1.808
20057SOL    HW1 9010   5.272   2.875   1.747
20057SOL    HW2 9011   5.119   2.929   1.758
20058SOL     OW 9012   2.991  11.198   0.623
20058SOL    HW1 9013   2.990  11.175   0.526
20058SOL    HW2 9014   2.903  11.174   0.664
20059SOL     OW 9015  12.829   6.578   1.656
20059SOL    HW1 9016  12.887   6.526   1.594
20059SOL    HW2 9017  12.790   6.517   1.725
20060SOL     OW 9018  13.350   0.366   1.126
20060SOL    HW1 9019  13.356   0.400   1.220
20060SOL    HW2 9020  13.262   0.393   1.086
20061SOL     OW 9021  10.134  14.199   0.745
20061SOL    HW1 9022  10.042  14.225   0.777
20061SOL    HW2 9023  10.177  14.140   0.813
20062SOL     OW 9024  13.767   1.231   7.152
20062SOL    HW1 9025  13.843   1.232   7.087
20062SOL    HW2 9026  13.762   1.142   7.197
20063SOL     OW 9027  14.283  16.224   7.255
20063SOL    HW1 9028  14.257  16.127   7.251
20063SOL    HW2 9029  14.202  16.280   7.237
20064SOL     OW 9030   5.963  10.117   1.174
20064SOL    HW1 9031   6.061  10.135   1.175
20064SOL    HW2 9032   5.928  10.113   1.267
20065SOL     OW 9033  14.815  16.765   0.609
20065SOL    HW1 9034  14.818  16.709   0.692
20065SOL    HW2 9035  14.719  16.785   0.586
20066SOL     OW 9036  12.024   9.607   0.131
20066SOL    HW1 9037  11.963   9.564   0.064
20066SOL    HW2 9038  12.082   9.537   0.172
20067SOL     OW 9039  16.095  10.918   1.871
20067SOL    HW1 9040  16.092  10.876   1.962
20067SOL    HW2 9041  16.190  10.929   1.842
20068SOL     OW 9042   6.774   4.637   7.302
20068SOL    HW1 9043   6.762   4.567   7.371
20068SOL    HW2 9044   6.830   4.601   7.227
20069SOL     OW 9045   2.407  13.671   1.008
20069SOL    HW1 9046   2.449  13.588   0.972
20069SOL    HW2 9047   2.424  13.748   0.946
20070SOL     OW 9048   8.084   0.371   6.880
20070SOL    HW1 9049   8.095   0.427   6.962
20070SOL    HW2 9050   8.116   0.422   6.800
20071SOL     OW 9051   6.535  10.486   1.155
20071SOL    HW1 9052   6.550  10.401   1.206
20071SOL    HW2 9053   6.452  10.531   1.188
20072SOL     OW 9054  10.483  12.438   0.824
20072SOL    HW1 9055  10.471  12.506   0.896
20072SOL    HW2 9056  10.533  12.479   0.747
20073SOL     OW 9057   3.240   5.973   0.413
20073SOL    HW1 9058   3.239   5.991   0.315
20073SOL    HW2 9059   3.170   6.030   0.458
20074SOL     OW 9060  13.774   4.899   7.364
20074SOL    HW1 9061  13.780   4.975   7.299
20074SOL    HW2 9062  13.836   4.915   7.441
20075SOL     OW 9063  14.434   9.633   2.812
20075SOL    HW1 9064  14.435   9.705   2.881
20075SOL    HW2 9065  14.345   9.587   2.812
20076SOL     OW 9066  10.189   6.567   7.900
20076SOL    HW1 9067  10.123   6.552   7.826
20076SOL    HW2 9068  10.149   6.537   7.987
20077SOL     OW 9069  15.149   7.872   0.180
20077SOL    HW1 9070  15.201   7.791   0.153
20077SOL    HW2 9071  15.186   7.952   0.133
20078SOL     OW 9072   2.335   9.277   1.711
20078SOL    HW1 9073   2.327   9.214   1.634
20078SOL    HW2 9074   2.271   9.250   1.783
20079SOL     OW 9075  14.220   2.788   6.673
20079SOL    HW1 9076  14.242   2.830   6.585
20079SOL    HW2 9077  14.303   2.774   6.726
20080SOL     OW 9078   8.697   5.466   0.535
20080SOL    HW1 9079   8.705   5.367   0.547
20080SOL    HW2 9080   8.698   5.510   0.625
20081SOL     OW 9081  10.123  12.617   7.675
20081SOL    HW1 9082  10.059  12.629   7.599
20081SOL    HW2 9083  10.159  12.706   7.704
20082SOL     OW 9084   6.195   1.202   1.499
20082SOL    HW1 9085   6.184   1.135   1.425
20082SOL    HW2 9086   6.185   1.156   1.587
20083SOL     OW 9087   8.261  13.180   6.845
20083SOL    HW1 9088   8.307  13.255   6.799
20083SOL    HW2 9089   8.328  13.126   6.896
20084SOL     OW 9090   8.132   7.479   7.127
20084SOL    HW1 9091   8.191   7.425   7.188
20084SOL    HW2 9092   8.056   7.422   7.095
20085SOL     OW 9093  10.251  15.316   8.253
20085SOL    HW1 9094  10.318  15.283   8.187
20085SOL    HW2 9095  10.162  15.325   8.209
20086SOL     OW 9096   9.990  14.341   7.409
20086SOL    HW1 9097  10.064  14.277   7.427
20086SOL    HW2 9098   9.906  14.291   7.388
20087SOL     OW 9099   1.314   4.111   0.302
20087SOL    HW1 9100   1.362   4.084   0.386
20087SOL    HW2 9101   1.218   4.129   0.323
20088SOL     OW 9102   5.559  15.761   7.781
20088SOL    HW1 9103   5.504  15.844   7.782
20088SOL    HW2 9104   5.639  15.773   7.840
20089SOL     OW 9105  14.745  16.579   6.930
20089SOL    HW1 9106  14.751  16.498   6.988
20089SOL    HW2 9107  14.670  16.638   6.962
20090SOL     OW 9108   8.968   0.007   7.603
20090SOL    HW1 9109   8.962  16.891   7.614
20090SOL    HW2 9110   9.058   0.039   7.631
20091SOL     OW 9111   5.815  10.716   7.468
20091SOL    HW1 9112   5.776  10.712   7.560
20091SOL    HW2 9113   5.853  10.626   7.445
20092SOL     OW 9114   9.717   4.213   6.170
20092SOL    HW1 9115   9.622   4.183   6.165
20092SOL    HW2 9116   9.778   4.138   6.145
20093SOL     OW 9117  12.124   5.600   7.412
20093SOL    HW1 9118  12.132   5.574   7.508
20093SOL    HW2 9119  12.030   5.588   7.381
20094SOL     OW 9120   4.729   0.993   0.200
20094SOL    HW1 9121   4.677   1.019   0.119
20094SOL    HW2 9122   4.714   1.062   0.272
20095SOL     OW 9123   0.107   0.811   1.391
20095SOL    HW1 9124   0.192   0.759   1.385
20095SOL    HW2 9125   0.111   0.872   1.470
20096SOL     OW 9126  13.605  14.069   7.721
20096SOL    HW1 9127  13.613  14.168   7.727
20096SOL    HW2 9128  13.516  14.045   7.684
20097SOL     OW 9129   8.770  16.586   2.331
20097SOL    HW1 9130   8.724  16.531   2.401
20097SOL    HW2 9131   8.765  16.683   2.357
20098SOL     OW 9132   8.893   1.410   0.549
20098SOL    HW1 9133   8.959   1.338   0.528
20098SOL    HW2 9134   8.852   1.393   0.639
20099SOL     OW 9135   7.658  15.289   6.717
20099SOL    HW1 9136   7.621  15.197   6.712
20099SOL    HW2 9137   7.746  15.292   6.670
20100SOL     OW 9138   6.748  11.429   8.249
20100SOL    HW1 9139   6.845  11.415   8.228
20100SOL    HW2 9140   6.724  11.383   8.334
20101SOL     OW 9141   8.150  12.175   1.568
20101SOL    HW1 9142   8.233  12.223   1.595
20101SOL    HW2 9143   8.151  12.161   1.469
20102SOL     OW 9144  10.583  11.617   7.996
20102SOL    HW1 9145  10.545  11.578   8.080
20102SOL    HW2 9146  10.682  11.625   8.005
20103SOL     OW 9147   9.101   3.162   1.691
20103SOL    HW1 9148   9.060   3.136   1.778
20103SOL    HW2 9149   9.044   3.230   1.645
20104SOL     OW 9150   2.024   2.674   7.098
20104SOL    HW1 9151   2.104   2.614   7.096
20104SOL    HW2 9152   1.978   2.671   7.009
20105SOL     OW 9153   2.286   8.871   2.017
20105SOL    HW1 9154   2.297   8.772   2.024
20105SOL    HW2 9155   2.317   8.914   2.101
20106SOL     OW 9156   0.780   9.125   6.507
20106SOL    HW1 9157   0.718   9.106   6.431
20106SOL    HW2 9158   0.851   9.055   6.512
20107SOL     OW 9159   5.457  10.056   0.889
20107SOL    HW1 9160   5.378  10.093   0.840
20107SOL    HW2 9161   5.441  10.065   0.988
20108SOL     OW 9162   3.919  15.593   1.092
20108SOL    HW1 9163   3.922  15.531   1.013
20108SOL    HW2 9164   3.918  15.688   1.060
20109SOL     OW 9165   2.909  12.195   1.944
20109SOL    HW1 9166   2.882  12.157   2.033
20109SOL    HW2 9167   2.900  12.294   1.946
20110SOL     OW 9168   5.982  11.526   1.935
20110SOL    HW1 9169   5.969  11.463   2.011
20110SOL    HW2 9170   6.001  11.475   1.851
20111SOL     OW 9171   3.512  15.887   1.807
20111SOL    HW1 9172   3.591  15.949   1.811
20111SOL    HW2 9173   3.490  15.868   1.712
20112SOL     OW 9174  12.351   4.199   0.368
20112SOL    HW1 9175  12.415   4.129   0.339
20112SOL    HW2 9176  12.357   4.212   0.467
20113SOL     OW 9177   9.575   7.352   0.462
20113SOL    HW1 9178   9.620   7.264   0.478
20113SOL    HW2 9179   9.642   7.426   0.474
20114SOL     OW 9180   4.944   9.671   7.425
20114SOL    HW1 9181   4.898   9.759   7.438
20114SOL    HW2 9182   4.924   9.637   7.333
20115SOL     OW 9183   3.074   0.737   1.634
20115SOL    HW1 9184   2.988   0.781   1.660
20115SOL    HW2 9185   3.056   0.642   1.608
20116SOL     OW 9186  12.476  11.465   6.774
20116SOL    HW1 9187  12.501  11.456   6.678
20116SOL    HW2 9188  12.444  11.559   6.791
20117SOL     OW 9189  13.874   0.189   7.682
20117SOL    HW1 9190  13.847   0.151   7.593
20117SOL    HW2 9191  13.794   0.227   7.728
20118SOL     OW 9192   4.358   0.774   2.336
20118SOL    HW1 9193   4.339   0.861   2.383
20118SOL    HW2 9194   4.418   0.718   2.393
20119SOL     OW 9195   9.257   1.296   7.116
20119SOL    HW1 9196   9.242   1.267   7.211
20119SOL    HW2 9197   9.234   1.393   7.107
20120SOL     OW 9198  15.686  16.081   7.491
20120SOL    HW1 9199  15.725  16.124   7.573
20120SOL    HW2 9200  15.592  16.051   7.511
20121SOL     OW 9201  16.197  11.524   8.148
20121SOL    HW1 9202  16.108  11.537   8.191
20121SOL    HW2 9203  16.247  11.451   8.195
20122SOL     OW 9204   1.796   5.817   7.602
20122SOL    HW1 9205   1.848   5.895   7.637
20122SOL    HW2 9206   1.838   5.784   7.518
20123SOL     OW 9207  10.011   7.928   0.202
20123SOL    HW1 9208  10.039   8.019   0.173
20123SOL    HW2 9209  10.025   7.918   0.300
20124SOL     OW 9210  16.968   3.149   0.761
20124SOL    HW1 9211   0.041   3.143   0.844
20124SOL    HW2 9212   0.024   3.091   0.690
20125SOL     OW 9213   7.852   9.637   7.567
20125SOL    HW1 9214   7.929   9.580   7.598
20125SOL    HW2 9215   7.888   9.722   7.528
20126SOL     OW 9216  12.279  16.268   5.992
20126SOL    HW1 9217  12.245  16.312   6.075
20126SOL    HW2 9218  12.279  16.169   6.005
20127SOL     OW 9219  13.434  13.391   0.880
20127SOL    HW1 9220  13.448  13.485   0.847
20127SOL    HW2 9221  13.513  13.335   0.854
20128SOL     OW 9222  13.130   6.309   8.292
20128SOL    HW1 9223  13.041   6.294   8.336
20128SOL    HW2 9224  13.119   6.314   8.193
20129SOL     OW 9225   6.306   6.830   0.450
20129SOL    HW1 9226   6.382   6.829   0.386
20129SOL    HW2 9227   6.231   6.776   0.413
20130SOL     OW 9228   4.182   5.391   6.911
20130SOL    HW1 9229   4.256   5.329   6.886
20130SOL    HW2 9230   4.207   5.440   6.994
20131SOL     OW 9231  14.645  10.516   6.832
20131SOL    HW1 9232  14.742  10.534   6.846
20131SOL    HW2 9233  14.626  10.508   6.734
20132SOL     OW 9234   9.525  15.532   7.559
20132SOL    HW1 9235   9.522  15.616   7.612
20132SOL    HW2 9236   9.432  15.496   7.549
20133SOL     OW 9237   8.444  10.247   8.119
20133SOL    HW1 9238   8.448  10.340   8.157
20133SOL    HW2 9239   8.532  10.224   8.078
20134SOL     OW 9240  11.462   1.996   6.427
20134SOL    HW1 9241  11.397   2.048   6.373
20134SOL    HW2 9242  11.450   1.899   6.410
20135SOL     OW 9243   1.152   8.790   0.163
20135SOL    HW1 9244   1.054   8.779   0.180
20135SOL    HW2 9245   1.172   8.887   0.151
20136SOL     OW 9246  15.363  14.984   1.898
20136SOL    HW1 9247  15.270  14.973   1.934
20136SOL    HW2 9248  15.373  15.075   1.858
20137SOL     OW 9249  10.945   0.734   8.265
20137SOL    HW1 9250  10.969   0.736   8.168
20137SOL    HW2 9251  10.847   0.747   8.275
20138SOL     OW 9252  15.715   3.300   6.652
20138SOL    HW1 9253  15.740   3.281   6.747
20138SOL    HW2 9254  15.795   3.332   6.602
20139SOL     OW 9255  14.997  13.707   7.827
20139SOL    HW1 9256  15.036  13.621   7.862
20139SOL    HW2 9257  14.903  13.716   7.861
20140SOL     OW 9258  15.048   3.783   0.996
20140SOL    HW1 9259  15.086   3.746   0.911
20140SOL    HW2 9260  15.075   3.725   1.073
20141SOL     OW 9261   0.716   6.229   0.637
20141SOL    HW1 9262   0.694   6.138   0.603
20141SOL    HW2 9263   0.663   6.247   0.720
20142SOL     OW 9264  10.947   1.098   8.339
20142SOL    HW1 9265  11.009   1.093   8.417
20142SOL    HW2 9266  10.852   1.092   8.370
20143SOL     OW 9267   9.090   4.823   5.981
20143SOL    HW1 9268   9.033   4.810   5.900
20143SOL    HW2 9269   9.149   4.903   5.968
20144SOL     OW 9270   5.544   0.627   1.489
20144SOL    HW1 9271   5.635   0.668   1.485
20144SOL    HW2 9272   5.488   0.676   1.556
20145SOL     OW 9273   6.885  10.451   1.384
20145SOL    HW1 9274   6.852  10.388   1.314
20145SOL    HW2 9275   6.981  10.473   1.366
20146SOL     OW 9276  13.096  13.450   7.305
20146SOL    HW1 9277  13.071  13.538   7.345
20146SOL    HW2 9278  13.152  13.464   7.224
20147SOL     OW 9279   7.608   7.791   0.101
20147SOL    HW1 9280   7.537   7.758   0.163
20147SOL    HW2 9281   7.617   7.890   0.109
20148SOL     OW 9282   8.242   5.920   6.373
20148SOL    HW1 9283   8.225   5.988   6.444
20148SOL    HW2 9284   8.261   5.966   6.286
20149SOL     OW 9285   1.265   4.485   7.677
20149SOL    HW1 9286   1.307   4.562   7.725
20149SOL    HW2 9287   1.181   4.516   7.632
20150SOL     OW 9288  16.146  12.235   7.017
20150SOL    HW1 9289  16.193  12.299   7.077
20150SOL    HW2 9290  16.132  12.148   7.066
20151SOL     OW 9291  15.520   5.035   0.247
20151SOL    HW1 9292  15.543   5.088   0.329
20151SOL    HW2 9293  15.601   5.025   0.189
20152SOL     OW 9294  12.587  10.407   0.059
20152SOL    HW1 9295  12.608  10.494   0.104
20152SOL    HW2 9296  12.494  10.379   0.083
20153SOL     OW 9297   7.069  12.600   0.562
20153SOL    HW1 9298   7.068  12.606   0.463
20153SOL    HW2 9299   7.046  12.690   0.601
20154SOL     OW 9300  13.472   3.750   7.129
20154SOL    HW1 9301  13.553   3.739   7.071
20154SOL    HW2 9302  13.494   3.722   7.222
20155SOL     OW 9303  13.072  12.065   8.073
20155SOL    HW1 9304  13.121  11.979   8.065
20155SOL    HW2 9305  12.977  12.053   8.045
20156SOL     OW 9306  12.182   6.969   7.422
20156SOL    HW1 9307  12.235   7.033   7.478
20156SOL    HW2 9308  12.227   6.879   7.423
20157SOL     OW 9309   8.431   4.626   6.965
20157SOL    HW1 9310   8.476   4.686   6.900
20157SOL    HW2 9311   8.429   4.533   6.930
20158SOL     OW 9312  11.056  12.096   0.835
20158SOL    HW1 9313  11.025  12.049   0.752
20158SOL    HW2 9314  11.138  12.051   0.869
20159SOL     OW 9315   9.452  14.154   1.452
20159SOL    HW1 9316   9.471  14.069   1.502
20159SOL    HW2 9317   9.535  14.209   1.446
20160SOL     OW 9318   7.684   6.597   6.503
20160SOL    HW1 9319   7.678   6.497   6.505
20160SOL    HW2 9320   7.756   6.624   6.438
20161SOL     OW 9321  16.344  10.682   0.139
20161SOL    HW1 9322  16.344  10.583   0.135
20161SOL    HW2 9323  16.421  10.718   0.086
20162SOL     OW 9324  12.614   8.565   7.928
20162SOL    HW1 9325  12.679   8.489   7.932
20162SOL    HW2 9326  12.569   8.575   8.016
20163SOL     OW 9327   7.502  14.519   0.725
20163SOL    HW1 9328   7.463  14.539   0.815
20163SOL    HW2 9329   7.463  14.582   0.657
20164SOL     OW 9330   2.084  13.145   1.780
20164SOL    HW1 9331   2.120  13.053   1.760
20164SOL    HW2 9332   2.070  13.194   1.694
20165SOL     OW 9333  11.092   6.467   7.665
20165SOL    HW1 9334  11.031   6.526   7.717
20165SOL    HW2 9335  11.061   6.373   7.672
20166SOL     OW 9336   9.060   5.962   7.370
20166SOL    HW1 9337   9.080   5.865   7.379
20166SOL    HW2 9338   9.076   5.991   7.275
20167SOL     OW 9339  13.230   8.268   0.788
20167SOL    HW1 9340  13.325   8.260   0.817
20167SOL    HW2 9341  13.220   8.233   0.694
20168SOL     OW 9342  16.597  11.429   1.436
20168SOL    HW1 9343  16.675  11.465   1.487
20168SOL    HW2 9344  16.586  11.332   1.457
20169SOL     OW 9345  11.430   9.568   8.431
20169SOL    HW1 9346  11.453   9.576   8.334
20169SOL    HW2 9347  11.510   9.593   0.032
20170SOL     OW 9348   7.164   2.706   1.189
20170SOL    HW1 9349   7.114   2.644   1.250
20170SOL    HW2 9350   7.252   2.729   1.231
20171SOL     OW 9351   8.747   9.268   0.262
20171SOL    HW1 9352   8.689   9.328   0.207
20171SOL    HW2 9353   8.816   9.226   0.203
20172SOL     OW 9354   2.420   5.974   6.104
20172SOL    HW1 9355   2.511   6.001   6.073
20172SOL    HW2 9356   2.382   5.907   6.039
20173SOL     OW 9357   3.496  13.647   2.074
20173SOL    HW1 9358   3.511  13.742   2.099
20173SOL    HW2 9359   3.578  13.609   2.032
20174SOL     OW 9360   8.990   9.368   1.574
20174SOL    HW1 9361   8.928   9.402   1.645
20174SOL    HW2 9362   8.938   9.316   1.506
20175SOL     OW 9363  14.505  11.291   1.832
20175SOL    HW1 9364  14.598  11.327   1.826
20175SOL    HW2 9365  14.508  11.194   1.858
20176SOL     OW 9366   3.513  11.013   8.075
20176SOL    HW1 9367   3.585  10.971   8.020
20176SOL    HW2 9368   3.546  11.026   8.169
20177SOL     OW 9369   6.980  13.378   7.276
20177SOL    HW1 9370   6.891  13.334   7.263
20177SOL    HW2 9371   6.989  13.409   7.370
20178SOL     OW 9372   1.573  16.925   1.326
20178SOL    HW1 9373   1.540  16.846   1.378
20178SOL    HW2 9374   1.609  16.895   1.238
20179SOL     OW 9375  16.084   8.752   7.786
20179SOL    HW1 9376  16.181   8.738   7.804
20179SOL    HW2 9377  16.061   8.716   7.696
20180SOL     OW 9378   4.087   8.450   0.102
20180SOL    HW1 9379   4.040   8.532   0.069
20180SOL    HW2 9380   4.040   8.416   0.184
20181SOL     OW 9381   2.534   3.468   0.539
20181SOL    HW1 9382   2.520   3.552   0.593
20181SOL    HW2 9383   2.450   3.414   0.541
20182SOL     OW 9384  13.327   5.672   7.583
20182SOL    HW1 9385  13.418   5.712   7.572
20182SOL    HW2 9386  13.257   5.742   7.569
20183SOL     OW 9387  10.550   1.491   7.485
20183SOL    HW1 9388  10.649   1.477   7.486
20183SOL    HW2 9389  10.504   1.406   7.511
20184SOL     OW 9390   2.360   8.639   7.602
20184SOL    HW1 9391   2.426   8.674   7.536
20184SOL    HW2 9392   2.329   8.714   7.661
20185SOL     OW 9393  12.708  15.486   0.152
20185SOL    HW1 9394  12.706  15.452   0.246
20185SOL    HW2 9395  12.624  15.537   0.133
20186SOL     OW 9396   4.818  10.905   0.377
20186SOL    HW1 9397   4.764  10.862   0.449
20186SOL    HW2 9398   4.856  10.834   0.317
20187SOL     OW 9399   2.465  15.383   7.300
20187SOL    HW1 9400   2.516  15.452   7.250
20187SOL    HW2 9401   2.487  15.292   7.264
20188SOL     OW 9402  16.577  14.341   2.448
20188SOL    HW1 9403  16.664  14.387   2.466
20188SOL    HW2 9404  16.505  14.382   2.503
20189SOL     OW 9405  14.900  16.388   8.249
20189SOL    HW1 9406  14.982  16.446   8.255
20189SOL    HW2 9407  14.898  16.327   8.328
20190SOL     OW 9408   3.529  13.161   7.621
20190SOL    HW1 9409   3.613  13.173   7.569
20190SOL    HW2 9410   3.462  13.109   7.568
20191SOL     OW 9411  12.236   0.307   1.075
20191SOL    HW1 9412  12.251   0.397   1.034
20191SOL    HW2 9413  12.150   0.270   1.043
20192SOL     OW 9414   0.560  11.148   7.621
20192SOL    HW1 9415   0.573  11.184   7.529
20192SOL    HW2 9416   0.641  11.166   7.676
20193SOL     OW 9417   3.708   3.223   8.231
20193SOL    HW1 9418   3.712   3.144   8.292
20193SOL    HW2 9419   3.662   3.299   8.278
20194SOL     OW 9420  16.614  12.631   6.628
20194SOL    HW1 9421  16.692  12.586   6.672
20194SOL    HW2 9422  16.645  12.716   6.585
20195SOL     OW 9423   0.822  10.982   0.087
20195SOL    HW1 9424   0.763  10.944   0.159
20195SOL    HW2 9425   0.770  11.050   0.035
20196SOL     OW 9426  11.802   2.567   6.525
20196SOL    HW1 9427  11.836   2.561   6.619
20196SOL    HW2 9428  11.765   2.658   6.508
20197SOL     OW 9429   0.791   8.893   1.119
20197SOL    HW1 9430   0.775   8.990   1.106
20197SOL    HW2 9431   0.890   8.874   1.116
20198SOL     OW 9432  13.545  10.595   0.701
20198SOL    HW1 9433  13.525  10.682   0.747
20198SOL    HW2 9434  13.596  10.614   0.617
20199SOL     OW 9435   4.723   6.581   8.269
20199SOL    HW1 9436   4.777   6.663   8.290
20199SOL    HW2 9437   4.769   6.500   8.305
20200SOL     OW 9438   3.120   6.646   7.964
20200SOL    HW1 9439   3.210   6.685   7.982
20200SOL    HW2 9440   3.057   6.718   7.938
20201SOL     OW 9441   5.606   0.590   0.119
20201SOL    HW1 9442   5.659   0.508   0.141
20201SOL    HW2 9443   5.598   0.647   0.200
20202SOL     OW 9444  10.224  15.553   1.929
20202SOL    HW1 9445  10.265  15.463   1.947
20202SOL    HW2 9446  10.126  15.548   1.944
20203SOL     OW 9447   7.611   6.094   8.390
20203SOL    HW1 9448   7.700   6.089   8.346
20203SOL    HW2 9449   7.588   6.189   8.409
20204SOL     OW 9450  15.862   7.713   1.316
20204SOL    HW1 9451  15.775   7.716   1.267
20204SOL    HW2 9452  15.928   7.659   1.264
20205SOL     OW 9453   4.682  13.469   1.090
20205SOL    HW1 9454   4.600  13.416   1.109
20205SOL    HW2 9455   4.740  13.471   1.171
20206SOL     OW 9456  16.434   4.612   0.241
20206SOL    HW1 9457  16.490   4.530   0.242
20206SOL    HW2 9458  16.449   4.662   0.155
20207SOL     OW 9459   8.854  14.763   8.212
20207SOL    HW1 9460   8.932  14.730   8.159
20207SOL    HW2 9461   8.772  14.761   8.154
20208SOL     OW 9462  16.799   0.053   7.223
20208SOL    HW1 9463  16.721  16.977   7.201
20208SOL    HW2 9464  16.769   0.149   7.222
20209SOL     OW 9465  15.291   8.571   7.204
20209SOL    HW1 9466  15.338   8.506   7.143
20209SOL    HW2 9467  15.199   8.587   7.170
20210SOL     OW 9468   9.888   6.754   6.852
20210SOL    HW1 9469   9.890   6.655   6.838
20210SOL    HW2 9470   9.843   6.797   6.773
20211SOL     OW 9471  10.124   4.039   8.244
20211SOL    HW1 9472  10.027   4.035   8.221
20211SOL    HW2 9473  10.141   4.115   8.307
20212SOL     OW 9474   4.824  11.185   1.941
20212SOL    HW1 9475   4.833  11.284   1.930
20212SOL    HW2 9476   4.876  11.156   2.021
20213SOL     OW 9477   2.570  10.640   7.330
20213SOL    HW1 9478   2.670  10.645   7.320
20213SOL    HW2 9479   2.544  10.677   7.419
20214SOL     OW 9480   3.504   5.848   1.489
20214SOL    HW1 9481   3.528   5.813   1.580
20214SOL    HW2 9482   3.458   5.937   1.498
20215SOL     OW 9483   7.457   6.316   7.813
20215SOL    HW1 9484   7.522   6.293   7.886
20215SOL    HW2 9485   7.504   6.317   7.725
20216SOL     OW 9486   3.185   7.858   8.129
20216SOL    HW1 9487   3.099   7.904   8.149
20216SOL    HW2 9488   3.194   7.778   8.188
20217SOL     OW 9489   9.924  13.424   1.486
20217SOL    HW1 9490   9.852  13.478   1.528
20217SOL    HW2 9491   9.901  13.327   1.493
20218SOL     OW 9492  13.980  12.209   1.927
20218SOL    HW1 9493  13.920  12.219   2.006
20218SOL    HW2 9494  14.032  12.124   1.935
20219SOL     OW 9495  11.183  14.528   8.297
20219SOL    HW1 9496  11.204  14.499   8.390
20219SOL    HW2 9497  11.254  14.496   8.235
20220SOL     OW 9498   3.108   6.894   1.823
20220SOL    HW1 9499   3.011   6.914   1.811
20220SOL    HW2 9500   3.127   6.880   1.920
20221SOL     OW 9501   8.822   2.495   8.315
20221SOL    HW1 9502   8.877   2.571   8.280
20221SOL    HW2 9503   8.779   2.448   8.238
20222SOL     OW 9504  15.336  10.387   8.053
20222SOL    HW1 9505  15.312  10.473   8.098
20222SOL    HW2 9506  15.379  10.406   7.965
20223SOL     OW 9507   3.934   9.088   2.056
20223SOL    HW1 9508   4.008   9.093   1.989
20223SOL    HW2 9509   3.972   9.072   2.147
20224SOL     OW 9510   3.167   7.798   0.615
20224SOL    HW1 9511   3.223   7.718   0.594
20224SOL    HW2 9512   3.177   7.865   0.542
20225SOL     OW 9513   9.631   6.011   7.974
20225SOL    HW1 9514   9.617   6.091   7.916
20225SOL    HW2 9515   9.723   6.012   8.011
20226SOL     OW 9516  12.246  11.021   8.268
20226SOL    HW1 9517  12.262  11.079   8.348
20226SOL    HW2 9518  12.331  10.974   8.244
20227SOL     OW 9519   9.555   2.245   8.196
20227SOL    HW1 9520   9.524   2.230   8.290
20227SOL    HW2 9521   9.535   2.340   8.169
20228SOL     OW 9522  13.682  16.263   7.732
20228SOL    HW1 9523  13.594  16.227   7.700
20228SOL    HW2 9524  13.715  16.332   7.669
20229SOL     OW 9525  13.480   6.813   6.897
20229SOL    HW1 9526  13.481   6.767   6.985
20229SOL    HW2 9527  13.437   6.903   6.906
20230SOL     OW 9528  14.552   0.770   6.007
20230SOL    HW1 9529  14.631   0.823   5.978
20230SOL    HW2 9530  14.498   0.743   5.927
20231SOL     OW 9531  12.095  16.309   0.864
20231SOL    HW1 9532  12.112  16.235   0.799
20231SOL    HW2 9533  11.998  16.310   0.888
20232SOL     OW 9534  11.610   5.655   7.542
20232SOL    HW1 9535  11.635   5.744   7.501
20232SOL    HW2 9536  11.691   5.614   7.583
20233SOL     OW 9537  16.595  11.177   2.249
20233SOL    HW1 9538  16.538  11.258   2.234
20233SOL    HW2 9539  16.600  11.157   2.347
20234SOL     OW 9540  11.058  16.897   8.076
20234SOL    HW1 9541  10.977  16.859   8.119
20234SOL    HW2 9542  11.044  16.901   7.977
20235SOL     OW 9543  14.149  10.819   0.174
20235SOL    HW1 9544  14.100  10.904   0.189
20235SOL    HW2 9545  14.146  10.763   0.257
20236SOL     OW 9546   3.668  11.713   0.022
20236SOL    HW1 9547   3.597  11.763   8.425
20236SOL    HW2 9548   3.675  11.750   0.114
20237SOL     OW 9549   8.964   8.612   6.510
20237SOL    HW1 9550   8.980   8.534   6.449
20237SOL    HW2 9551   9.042   8.675   6.504
20238SOL     OW 9552   1.945  15.056   8.442
20238SOL    HW1 9553   2.014  15.083   8.374
20238SOL    HW2 9554   1.855  15.055   8.399
20239SOL     OW 9555   1.317   3.236   6.437
20239SOL    HW1 9556   1.385   3.183   6.386
20239SOL    HW2 9557   1.267   3.295   6.374
20240SOL     OW 9558   0.378   1.943   0.666
20240SOL    HW1 9559   0.295   1.974   0.711
20240SOL    HW2 9560   0.443   2.019   0.659
20241SOL     OW 9561   2.076   7.824   8.055
20241SOL    HW1 9562   2.075   7.884   7.975
20241SOL    HW2 9563   2.170   7.818   8.090
20242SOL     OW 9564   3.178  13.302   7.790
20242SOL    HW1 9565   3.120  13.364   7.843
20242SOL    HW2 9566   3.250  13.265   7.848
20243SOL     OW 9567   4.970   7.061   6.778
20243SOL    HW1 9568   4.966   7.151   6.736
20243SOL    HW2 9569   4.917   7.060   6.863
20244SOL     OW 9570  15.460   4.421   7.672
20244SOL    HW1 9571  15.392   4.347   7.667
20244SOL    HW2 9572  15.492   4.442   7.579
20245SOL     OW 9573  10.569  16.679   6.351
20245SOL    HW1 9574  10.471  16.700   6.353
20245SOL    HW2 9575  10.584  16.597   6.295
20246SOL     OW 9576  14.571   9.043   6.804
20246SOL    HW1 9577  14.493   9.007   6.753
20246SOL    HW2 9578  14.656   9.011   6.763
20247SOL     OW 9579  16.217   1.711   7.890
20247SOL    HW1 9580  16.269   1.626   7.876
20247SOL    HW2 9581  16.183   1.744   7.801
20248SOL     OW 9582   7.939   4.348   0.597
20248SOL    HW1 9583   8.036   4.333   0.576
20248SOL    HW2 9584   7.884   4.274   0.558
20249SOL     OW 9585  14.053   5.691   0.069
20249SOL    HW1 9586  14.012   5.634   0.141
20249SOL    HW2 9587  13.981   5.737   0.018
20250SOL     OW 9588  14.542  16.193   0.671
20250SOL    HW1 9589  14.494  16.192   0.583
20250SOL    HW2 9590  14.559  16.288   0.698
20251SOL     OW 9591   8.654   9.198   2.566
20251SOL    HW1 9592   8.720   9.258   2.520
20251SOL    HW2 9593   8.694   9.164   2.651
20252SOL     OW 9594  13.475  14.568   0.536
20252SOL    HW1 9595  13.464  14.606   0.443
20252SOL    HW2 9596  13.552  14.505   0.537
20253SOL     OW 9597  14.848   4.788   7.829
20253SOL    HW1 9598  14.842   4.843   7.746
20253SOL    HW2 9599  14.760   4.743   7.846
20254SOL     OW 9600  11.353  13.126   1.634
20254SOL    HW1 9601  11.338  13.062   1.709
20254SOL    HW2 9602  11.384  13.213   1.671
20255SOL     OW 9603   1.620  11.000   8.367
20255SOL    HW1 9604   1.563  10.986   8.286
20255SOL    HW2 9605   1.641  10.912   8.409
20256SOL     OW 9606   4.496  11.718   7.948
20256SOL    HW1 9607   4.434  11.777   7.896
20256SOL    HW2 9608   4.453  11.691   8.033
20257SOL     OW 9609  11.276  13.534   6.221
20257SOL    HW1 9610  11.215  13.501   6.149
20257SOL    HW2 9611  11.342  13.462   6.243
20258SOL     OW 9612   2.294   3.333   0.546
20258SOL    HW1 9613   2.230   3.407   0.523
20258SOL    HW2 9614   2.297   3.267   0.471
20259SOL     OW 9615   0.614  12.037   2.599
20259SOL    HW1 9616   0.581  12.029   2.693
20259SOL    HW2 9617   0.709  12.066   2.600
20260SOL     OW 9618  12.852  12.853   7.535
20260SOL    HW1 9619  12.900  12.910   7.467
20260SOL    HW2 9620  12.881  12.758   7.525
20261SOL     OW 9621  13.788   6.016   1.902
20261SOL    HW1 9622  13.743   6.104   1.884
20261SOL    HW2 9623  13.733   5.963   1.966
20262SOL     OW 9624   2.140   0.728   7.847
20262SOL    HW1 9625   2.048   0.767   7.858
20262SOL    HW2 9626   2.174   0.750   7.756
20263SOL     OW 9627   5.813  11.808   1.535
20263SOL    HW1 9628   5.805  11.829   1.437
20263SOL    HW2 9629   5.877  11.731   1.548
20264SOL     OW 9630  11.777   0.463   6.805
20264SOL    HW1 9631  11.822   0.377   6.826
20264SOL    HW2 9632  11.724   0.493   6.885
20265SOL     OW 9633  16.744   8.010   7.393
20265SOL    HW1 9634  16.816   8.078   7.380
20265SOL    HW2 9635  16.758   7.934   7.329
20266SOL     OW 9636  10.269  10.162   1.312
20266SOL    HW1 9637  10.364  10.190   1.327
20266SOL    HW2 9638  10.258  10.133   1.217
20267SOL     OW 9639   2.673   6.881   7.934
20267SOL    HW1 9640   2.653   6.869   8.031
20267SOL    HW2 9641   2.619   6.957   7.898
20268SOL     OW 9642  13.540   5.431   8.254
20268SOL    HW1 9643  13.549   5.383   8.166
20268SOL    HW2 9644  13.480   5.510   8.243
20269SOL     OW 9645   9.051   5.992   6.747
20269SOL    HW1 9646   9.136   6.014   6.794
20269SOL    HW2 9647   8.978   5.979   6.815
20270SOL     OW 9648  11.621  13.165   6.799
20270SOL    HW1 9649  11.681  13.100   6.751
20270SOL    HW2 9650  11.588  13.124   6.884
20271SOL     OW 9651  10.219   9.010   8.356
20271SOL    HW1 9652  10.125   9.010   8.389
20271SOL    HW2 9653  10.276   9.067   8.415
20272SOL     OW 9654   5.920   2.985   2.086
20272SOL    HW1 9655   5.867   2.901   2.096
20272SOL    HW2 9656   5.992   2.988   2.156
20273SOL     OW 9657   9.045   6.965   6.166
20273SOL    HW1 9658   9.100   7.041   6.132
20273SOL    HW2 9659   9.037   6.895   6.095
20274SOL     OW 9660   8.824   7.230   1.299
20274SOL    HW1 9661   8.767   7.304   1.335
20274SOL    HW2 9662   8.770   7.146   1.292
20275SOL     OW 9663   7.631  14.659   2.167
20275SOL    HW1 9664   7.624  14.560   2.178
20275SOL    HW2 9665   7.585  14.686   2.082
20276SOL     OW 9666  16.026  12.781   7.914
20276SOL    HW1 9667  16.014  12.857   7.850
20276SOL    HW2 9668  16.101  12.801   7.976
20277SOL     OW 9669  13.169  10.209   2.327
20277SOL    HW1 9670  13.161  10.255   2.415
20277SOL    HW2 9671  13.245  10.249   2.275
20278SOL     OW 9672  14.259  14.966   1.830
20278SOL    HW1 9673  14.194  15.010   1.769
20278SOL    HW2 9674  14.221  14.880   1.864
20279SOL     OW 9675  14.523  16.133   1.608
20279SOL    HW1 9676  14.565  16.215   1.648
20279SOL    HW2 9677  14.497  16.070   1.681
20280SOL     OW 9678  12.061   4.598   7.685
20280SOL    HW1 9679  12.042   4.507   7.722
20280SOL    HW2 9680  12.160   4.611   7.677
20281SOL     OW 9681   9.048   5.574   7.839
20281SOL    HW1 9682   9.146   5.566   7.821
20281SOL    HW2 9683   9.012   5.656   7.795
20282SOL     OW 9684  15.238  10.830   2.878
20282SOL    HW1 9685  15.143  10.838   2.848
20282SOL    HW2 9686  15.275  10.921   2.896
20283SOL     OW 9687   2.560   9.958   8.017
20283SOL    HW1 9688   2.541   9.891   7.944
20283SOL    HW2 9689   2.618   9.915   8.086
20284SOL     OW 9690   6.570  10.437   1.693
20284SOL    HW1 9691   6.475  10.455   1.667
20284SOL    HW2 9692   6.576  10.425   1.792
20285SOL     OW 9693   0.147   3.764   1.407
20285SOL    HW1 9694   0.064   3.765   1.463
20285SOL    HW2 9695   0.227   3.777   1.466
20286SOL     OW 9696  14.307  13.720   0.613
20286SOL    HW1 9697  14.243  13.702   0.687
20286SOL    HW2 9698  14.292  13.655   0.539
20287SOL     OW 9699   5.343  10.746   0.070
20287SOL    HW1 9700   5.261  10.720   0.122
20287SOL    HW2 9701   5.424  10.718   0.120
20288SOL     OW 9702   9.477  14.059   8.110
20288SOL    HW1 9703   9.416  14.122   8.157
20288SOL    HW2 9704   9.442  13.966   8.116
20289SOL     OW 9705  13.510   9.331   0.061
20289SOL    HW1 9706  13.583   9.288   0.114
20289SOL    HW2 9707  13.497   9.281   8.429
20290SOL     OW 9708   7.192   0.813   7.355
20290SOL    HW1 9709   7.251   0.761   7.417
20290SOL    HW2 9710   7.223   0.908   7.350
20291SOL     OW 9711   8.923   0.902   1.934
20291SOL    HW1 9712   8.862   0.944   2.002
20291SOL    HW2 9713   8.977   0.830   1.977
20292SOL     OW 9714  11.707   0.087   2.128
20292SOL    HW1 9715  11.728  16.973   2.131
20292SOL    HW2 9716  11.744   0.131   2.209
20293SOL     OW 9717  12.611   2.532   6.794
20293SOL    HW1 9718  12.620   2.466   6.868
20293SOL    HW2 9719  12.586   2.484   6.710
20294SOL     OW 9720   5.564  14.954   2.037
20294SOL    HW1 9721   5.571  14.889   2.113
20294SOL    HW2 9722   5.590  15.045   2.069
20295SOL     OW 9723   8.463  13.491   0.301
20295SOL    HW1 9724   8.480  13.543   0.218
20295SOL    HW2 9725   8.367  13.461   0.303
20296SOL     OW 9726   6.826  14.229   8.441
20296SOL    HW1 9727   6.784  14.197   0.072
20296SOL    HW2 9728   6.922  14.248   0.003
20297SOL     OW 9729   3.013   7.244   1.630
20297SOL    HW1 9730   3.076   7.315   1.663
20297SOL    HW2 9731   2.952   7.284   1.562
20298SOL     OW 9732  12.726  13.548   7.828
20298SOL    HW1 9733  12.753  13.567   7.733
20298SOL    HW2 9734  12.647  13.486   7.828
20299SOL     OW 9735   3.235   5.712   0.464
20299SOL    HW1 9736   3.324   5.668   0.475
20299SOL    HW2 9737   3.247   5.809   0.443
20300SOL     OW 9738   2.612   0.595   2.061
20300SOL    HW1 9739   2.540   0.561   2.001
20300SOL    HW2 9740   2.582   0.680   2.104
20301SOL     OW 9741   5.326  14.406   7.759
20301SOL    HW1 9742   5.422  14.434   7.763
20301SOL    HW2 9743   5.321  14.306   7.765
20302SOL     OW 9744   7.033  12.843   0.693
20302SOL    HW1 9745   7.086  12.812   0.771
20302SOL    HW2 9746   7.043  12.941   0.682
20303SOL     OW 9747  11.612   6.503   7.133
20303SOL    HW1 9748  11.686   6.435   7.128
20303SOL    HW2 9749  11.569   6.496   7.223
20304SOL     OW 9750   3.063  14.776   0.657
20304SOL    HW1 9751   3.031  14.718   0.582
20304SOL    HW2 9752   3.014  14.752   0.741
20305SOL     OW 9753  15.251   0.978   7.001
20305SOL    HW1 9754  15.179   0.931   6.949
20305SOL    HW2 9755  15.323   1.008   6.938
20306SOL     OW 9756  10.449   7.019   1.650
20306SOL    HW1 9757  10.408   7.043   1.562
20306SOL    HW2 9758  10.498   7.098   1.687
20307SOL     OW 9759   1.351  11.990   8.140
20307SOL    HW1 9760   1.268  11.947   8.106
20307SOL    HW2 9761   1.399  11.927   8.201
20308SOL     OW 9762   4.665  12.429   0.023
20308SOL    HW1 9763   4.724  12.452   8.400
20308SOL    HW2 9764   4.587  12.375   8.444
20309SOL     OW 9765  13.873  16.660   6.937
20309SOL    HW1 9766  13.919  16.730   6.990
20309SOL    HW2 9767  13.849  16.583   6.996
20310SOL     OW 9768   9.190  14.768   6.920
20310SOL    HW1 9769   9.214  14.742   6.826
20310SOL    HW2 9770   9.264  14.743   6.982
20311SOL     OW 9771  13.419   9.473   0.917
20311SOL    HW1 9772  13.456   9.404   0.855
20311SOL    HW2 9773  13.405   9.433   1.007
20312SOL     OW 9774   5.801   7.057   8.348
20312SOL    HW1 9775   5.850   7.016   8.271
20312SOL    HW2 9776   5.792   6.989   8.421
20313SOL     OW 9777  12.437   0.058   7.177
20313SOL    HW1 9778  12.411   0.109   7.259
20313SOL    HW2 9779  12.442   0.120   7.099
20314SOL     OW 9780  13.208   5.920   5.724
20314SOL    HW1 9781  13.222   6.012   5.686
20314SOL    HW2 9782  13.133   5.876   5.675
20315SOL     OW 9783   7.702   4.705   6.900
20315SOL    HW1 9784   7.777   4.640   6.898
20315SOL    HW2 9785   7.672   4.725   6.806
20316SOL     OW 9786  10.193   7.631   1.213
20316SOL    HW1 9787  10.097   7.620   1.238
20316SOL    HW2 9788  10.251   7.598   1.287
20317SOL     OW 9789   0.871  13.251   1.815
20317SOL    HW1 9790   0.897  13.346   1.827
20317SOL    HW2 9791   0.906  13.196   1.892
20318SOL     OW 9792   0.677   0.639   2.020
20318SOL    HW1 9793   0.725   0.554   2.041
20318SOL    HW2 9794   0.625   0.669   2.099
20319SOL     OW 9795  16.581  15.138   7.958
20319SOL    HW1 9796  16.539  15.104   8.042
20319SOL    HW2 9797  16.518  15.126   7.882
20320SOL     OW 9798   9.995   3.339   6.627
20320SOL    HW1 9799  10.046   3.254   6.619
20320SOL    HW2 9800  10.054   3.411   6.664
20321SOL     OW 9801  10.101   4.536   5.953
20321SOL    HW1 9802  10.177   4.559   5.892
20321SOL    HW2 9803  10.119   4.447   5.996
20322SOL     OW 9804   3.932   8.552   7.061
20322SOL    HW1 9805   3.874   8.473   7.081
20322SOL    HW2 9806   3.984   8.577   7.143
20323SOL     OW 9807  14.683  14.675   0.645
20323SOL    HW1 9808  14.767  14.670   0.698
20323SOL    HW2 9809  14.704  14.658   0.548
20324SOL     OW 9810  15.141  10.452   2.757
20324SOL    HW1 9811  15.182  10.486   2.841
20324SOL    HW2 9812  15.065  10.390   2.779
20325SOL     OW 9813   0.667   9.688   6.654
20325SOL    HW1 9814   0.584   9.660   6.606
20325SOL    HW2 9815   0.747   9.662   6.600
20326SOL     OW 9816  14.114  14.608   1.042
20326SOL    HW1 9817  14.198  14.653   1.071
20326SOL    HW2 9818  14.108  14.609   0.942
20327SOL     OW 9819  15.598   6.940   0.041
20327SOL    HW1 9820  15.531   7.014   0.050
20327SOL    HW2 9821  15.603   6.890   0.128
20328SOL     OW 9822   2.497   0.680   0.572
20328SOL    HW1 9823   2.588   0.711   0.547
20328SOL    HW2 9824   2.456   0.745   0.636
20329SOL     OW 9825  11.091  11.475   8.010
20329SOL    HW1 9826  11.126  11.475   8.103
20329SOL    HW2 9827  11.120  11.392   7.963
20330SOL     OW 9828   9.171  16.089   2.370
20330SOL    HW1 9829   9.119  16.036   2.437
20330SOL    HW2 9830   9.267  16.090   2.395
20331SOL     OW 9831   9.832   3.246   6.275
20331SOL    HW1 9832   9.847   3.336   6.314
20331SOL    HW2 9833   9.743   3.244   6.229
20332SOL     OW 9834   2.518  14.736   0.720
20332SOL    HW1 9835   2.446  14.789   0.675
20332SOL    HW2 9836   2.477  14.669   0.782
20333SOL     OW 9837  13.394   5.957   5.928
20333SOL    HW1 9838  13.332   5.944   5.850
20333SOL    HW2 9839  13.487   5.970   5.894
20334SOL     OW 9840   6.402  11.913   7.250
20334SOL    HW1 9841   6.377  12.010   7.258
20334SOL    HW2 9842   6.320  11.858   7.235
20335SOL     OW 9843  13.104   8.243   1.656
20335SOL    HW1 9844  13.098   8.151   1.695
20335SOL    HW2 9845  13.186   8.289   1.692
20336SOL     OW 9846  11.971   5.261   7.184
20336SOL    HW1 9847  11.894   5.279   7.245
20336SOL    HW2 9848  12.039   5.206   7.232
20337SOL     OW 9849  10.492  16.815   6.064
20337SOL    HW1 9850  10.480  16.730   6.116
20337SOL    HW2 9851  10.451  16.804   5.974
20338SOL     OW 9852  12.370   7.111   7.576
20338SOL    HW1 9853  12.403   7.075   7.663
20338SOL    HW2 9854  12.444   7.112   7.509
20339SOL     OW 9855  13.599  16.092   1.522
20339SOL    HW1 9856  13.691  16.061   1.498
20339SOL    HW2 9857  13.604  16.173   1.580
20340SOL     OW 9858   7.690  14.304   6.938
20340SOL    HW1 9859   7.734  14.313   7.027
20340SOL    HW2 9860   7.640  14.388   6.916
20341SOL     OW 9861  16.955  11.408   0.838
20341SOL    HW1 9862   0.037  11.348   0.883
20341SOL    HW2 9863  16.958  11.498   0.880
20342SOL     OW 9864   8.654  16.221   8.012
20342SOL    HW1 9865   8.681  16.314   8.038
20342SOL    HW2 9866   8.590  16.224   7.936
20343SOL     OW 9867   4.218   1.786   0.062
20343SOL    HW1 9868   4.224   1.873   0.111
20343SOL    HW2 9869   4.270   1.716   0.112
20344SOL     OW 9870  11.474  13.404   2.321
20344SOL    HW1 9871  11.483  13.306   2.340
20344SOL    HW2 9872  11.450  13.452   2.406
20345SOL     OW 9873  10.804   9.456   1.898
20345SOL    HW1 9874  10.866   9.379   1.910
20345SOL    HW2 9875  10.796   9.506   1.984
20346SOL     OW 9876   8.043  12.621   1.534
20346SOL    HW1 9877   8.037  12.717   1.505
20346SOL    HW2 9878   8.133  12.585   1.512
20347SOL     OW 9879   9.315  13.983   0.041
20347SOL    HW1 9880   9.335  13.930   8.413
20347SOL    HW2 9881   9.361  14.071   0.036
20348SOL     OW 9882   7.051   6.241   6.507
20348SOL    HW1 9883   7.078   6.336   6.497
20348SOL    HW2 9884   7.070   6.192   6.422
20349SOL     OW 9885   6.165  15.435   0.720
20349SOL    HW1 9886   6.230  15.474   0.655
20349SOL    HW2 9887   6.114  15.509   0.765
20350SOL     OW 9888   9.319  16.242   6.380
20350SOL    HW1 9889   9.419  16.236   6.379
20350SOL    HW2 9890   9.289  16.279   6.468
20351SOL     OW 9891   1.438   5.800   6.101
20351SOL    HW1 9892   1.394   5.718   6.066
20351SOL    HW2 9893   1.535   5.798   6.077
20352SOL     OW 9894   6.408  14.910   7.426
20352SOL    HW1 9895   6.437  14.839   7.490
20352SOL    HW2 9896   6.315  14.890   7.395
20353SOL     OW 9897  15.997   8.133   7.749
20353SOL    HW1 9898  15.927   8.104   7.684
20353SOL    HW2 9899  15.985   8.230   7.771
20354SOL     OW 9900   0.749   2.010   0.568
20354SOL    HW1 9901   0.829   2.062   0.597
20354SOL    HW2 9902   0.665   2.061   0.590
20355SOL     OW 9903   4.401   7.536   6.655
20355SOL    HW1 9904   4.369   7.587   6.575
20355SOL    HW2 9905   4.414   7.440   6.630
20356SOL     OW 9906  13.390  16.022   0.678
20356SOL    HW1 9907  13.454  15.956   0.718
20356SOL    HW2 9908  13.376  16.002   0.581
20357SOL     OW 9909  12.921   8.636   6.917
20357SOL    HW1 9910  12.852   8.642   6.989
20357SOL    HW2 9911  12.986   8.712   6.926
20358SOL     OW 9912   6.444   3.611   0.247
20358SOL    HW1 9913   6.388   3.550   0.192
20358SOL    HW2 9914   6.502   3.667   0.187
20359SOL     OW 9915   1.866  11.148   1.727
20359SOL    HW1 9916   1.902  11.098   1.648
20359SOL    HW2 9917   1.769  11.126   1.738
20360SOL     OW 9918  15.971   8.403   7.801
20360SOL    HW1 9919  15.913   8.465   7.748
20360SOL    HW2 9920  16.064   8.438   7.804
20361SOL     OW 9921   0.991   2.123   7.180
20361SOL    HW1 9922   0.930   2.108   7.103
20361SOL    HW2 9923   1.079   2.077   7.163
20362SOL     OW 9924  11.073   5.231   1.511
20362SOL    HW1 9925  11.127   5.310   1.482
20362SOL    HW2 9926  10.989   5.263   1.555
20363SOL     OW 9927  10.839  15.381   7.093
20363SOL    HW1 9928  10.762  15.319   7.078
20363SOL    HW2 9929  10.806  15.464   7.138
20364SOL     OW 9930  16.383  12.433   8.132
20364SOL    HW1 9931  16.333  12.479   8.059
20364SOL    HW2 9932  16.323  12.422   8.212
20365SOL     OW 9933   5.922  10.452   7.436
20365SOL    HW1 9934   5.991  10.449   7.508
20365SOL    HW2 9935   5.967  10.453   7.347
20366SOL     OW 9936   0.306  16.076   7.929
20366SOL    HW1 9937   0.209  16.096   7.922
20366SOL    HW2 9938   0.329  16.050   8.023
20367SOL     OW 9939   6.337  16.071   1.735
20367SOL    HW1 9940   6.335  15.972   1.749
20367SOL    HW2 9941   6.374  16.115   1.817
20368SOL     OW 9942   6.604   9.926   7.757
20368SOL    HW1 9943   6.586  10.007   7.813
20368SOL    HW2 9944   6.528   9.912   7.694
20369SOL     OW 9945   4.996   5.315   0.543
20369SOL    HW1 9946   4.983   5.323   0.642
20369SOL    HW2 9947   4.998   5.407   0.503
20370SOL     OW 9948  13.305  12.081   0.047
20370SOL    HW1 9949  13.285  12.121   8.412
20370SOL    HW2 9950  13.317  11.982   0.037
20371SOL     OW 9951   8.466  15.392   0.932
20371SOL    HW1 9952   8.465  15.410   0.834
20371SOL    HW2 9953   8.559  15.377   0.963
20372SOL     OW 9954   5.029  15.520   1.311
20372SOL    HW1 9955   4.978  15.559   1.388
20372SOL    HW2 9956   4.972  15.450   1.266
20373SOL     OW 9957   5.094   4.261   1.708
20373SOL    HW1 9958   5.000   4.271   1.674
20373SOL    HW2 9959   5.112   4.333   1.775
20374SOL     OW 9960  14.115   4.925   7.038
20374SOL    HW1 9961  14.039   4.871   7.004
20374SOL    HW2 9962  14.180   4.866   7.085
20375SOL     OW 9963   8.767   6.966   7.122
20375SOL    HW1 9964   8.823   6.985   7.202
20375SOL    HW2 9965   8.826   6.936   7.046
20376SOL     OW 9966   0.900  13.654   0.012
20376SOL    HW1 9967   0.949  13.606   0.084
20376SOL    HW2 9968   0.839  13.589   8.419
20377SOL     OW 9969  16.463  15.376   6.797
20377SOL    HW1 9970  16.503  15.464   6.822
20377SOL    HW2 9971  16.514  15.302   6.842
20378SOL     OW 9972  15.963   8.170   8.158
20378SOL    HW1 9973  16.033   8.110   8.119
20378SOL    HW2 9974  15.899   8.115   8.211
20379SOL     OW 9975   4.723   5.533   0.643
20379SOL    HW1 9976   4.639   5.497   0.602
20379SOL    HW2 9977   4.727   5.505   0.739
20380SOL     OW 9978  10.441   4.921   1.048
20380SOL    HW1 9979  10.474   4.828   1.065
20380SOL    HW2 9980  10.412   4.962   1.134
20381SOL     OW 9981  15.788   6.895   1.158
20381SOL    HW1 9982  15.871   6.882   1.104
20381SOL    HW2 9983  15.754   6.807   1.190
20382SOL     OW 9984   2.796   1.381   8.327
20382SOL    HW1 9985   2.778   1.373   8.425
20382SOL    HW2 9986   2.710   1.398   8.279
20383SOL     OW 9987   2.750   9.393   0.385
20383SOL    HW1 9988   2.767   9.302   0.421
20383SOL    HW2 9989   2.678   9.437   0.438
20384SOL     OW 9990  11.669   9.691   7.026
20384SOL    HW1 9991  11.635   9.743   6.948
20384SOL    HW2 9992  11.687   9.597   6.998
20385SOL     OW 9993  11.093   0.620   1.293
20385SOL    HW1 9994  11.111   0.651   1.386
20385SOL    HW2 9995  11.117   0.691   1.228
20386SOL     OW 9996   2.047  11.048   7.784
20386SOL    HW1 9997   2.066  11.068   7.880
20386SOL    HW2 9998   1.984  10.971   7.778
20387SOL     OW 9999   1.911  11.686   1.320
20387SOL    HW110000   1.835  11.637   1.276
20387SOL    HW210001   1.996  11.637   1.305
20388SOL     OW10002   8.877  14.878   6.017
20388SOL    HW110003   8.782  14.880   5.987
20388SOL    HW210004   8.892  14.950   6.084
20389SOL     OW10005  11.217   7.955   6.673
20389SOL    HW110006  11.293   7.939   6.610
20389SOL    HW210007  11.136   7.984   6.622
20390SOL     OW10008  12.938  15.870   7.756
20390SOL    HW110009  12.888  15.905   7.835
20390SOL    HW210010  13.028  15.913   7.752
20391SOL     OW10011   9.945  11.258   8.192
20391SOL    HW110012  10.034  11.228   8.156
20391SOL    HW210013   9.959  11.337   8.252
20392SOL     OW10014   8.759   6.496   1.001
20392SOL    HW110015   8.787   6.576   0.947
20392SOL    HW210016   8.841   6.449   1.035
20393SOL     OW10017   0.474  11.495   7.643
20393SOL    HW110018   0.417  11.428   7.595
20393SOL    HW210019   0.511  11.455   7.726
20394SOL     OW10020  13.896  13.746   0.926
20394SOL    HW110021  13.927  13.694   1.006
20394SOL    HW210022  13.851  13.830   0.956
20395SOL     OW10023  12.827  11.219   7.043
20395SOL    HW110024  12.839  11.120   7.051
20395SOL    HW210025  12.754  11.238   6.978
20396SOL     OW10026   7.301   1.617   6.114
20396SOL    HW110027   7.382   1.568   6.083
20396SOL    HW210028   7.281   1.692   6.051
20397SOL     OW10029   4.060   6.749   6.726
20397SOL    HW110030   4.035   6.667   6.674
20397SOL    HW210031   4.086   6.822   6.663
20398SOL     OW10032   3.793   4.121   7.972
20398SOL    HW110033   3.784   4.220   7.956
20398SOL    HW210034   3.753   4.098   8.061
20399SOL     OW10035   8.228  16.020   1.321
20399SOL    HW110036   8.176  15.950   1.272
20399SOL    HW210037   8.292  16.065   1.259
20400SOL     OW10038  16.698   7.334   1.849
20400SOL    HW110039  16.682   7.397   1.773
20400SOL    HW210040  16.618   7.334   1.910
20401SOL     OW10041  11.919   8.921   6.493
20401SOL    HW110042  11.966   8.933   6.580
20401SOL    HW210043  11.947   8.992   6.429
20402SOL     OW10044   8.097  16.053   7.485
20402SOL    HW110045   8.071  16.147   7.462
20402SOL    HW210046   8.016  16.003   7.516
20403SOL     OW10047   5.872   7.654   7.825
20403SOL    HW110048   5.971   7.661   7.810
20403SOL    HW210049   5.841   7.561   7.804
20404SOL     OW10050   5.462   0.424   7.024
20404SOL    HW110051   5.417   0.341   7.056
20404SOL    HW210052   5.518   0.403   6.943
20405SOL     OW10053  10.069   9.623   1.432
20405SOL    HW110054  10.018   9.696   1.479
20405SOL    HW210055  10.155   9.660   1.397
20406SOL     OW10056   7.546  12.077   0.780
20406SOL    HW110057   7.645  12.096   0.781
20406SOL    HW210058   7.497  12.156   0.745
20407SOL     OW10059   4.649   7.515   7.566
20407SOL    HW110060   4.613   7.461   7.490
20407SOL    HW210061   4.736   7.475   7.596
20408SOL     OW10062   5.828   8.882   0.938
20408SOL    HW110063   5.897   8.917   0.874
20408SOL    HW210064   5.852   8.789   0.966
20409SOL     OW10065  10.353   5.678   0.355
20409SOL    HW110066  10.441   5.702   0.396
20409SOL    HW210067  10.279   5.715   0.413
20410SOL     OW10068  12.555  16.580   0.601
20410SOL    HW110069  12.568  16.566   0.503
20410SOL    HW210070  12.472  16.533   0.631
20411SOL     OW10071   6.613   7.199   1.089
20411SOL    HW110072   6.556   7.138   1.035
20411SOL    HW210073   6.611   7.290   1.048
20412SOL     OW10074  15.817  14.067   6.564
20412SOL    HW110075  15.861  14.146   6.523
20412SOL    HW210076  15.857  14.049   6.654
20413SOL     OW10077  14.673   7.109   7.324
20413SOL    HW110078  14.755   7.118   7.380
20413SOL    HW210079  14.625   7.025   7.347
20414SOL     OW10080   9.286  14.672   6.680
20414SOL    HW110081   9.321  14.727   6.604
20414SOL    HW210082   9.358  14.611   6.713
20415SOL     OW10083   5.632   0.743   7.585
20415SOL    HW110084   5.642   0.695   7.498
20415SOL    HW210085   5.539   0.729   7.620
20416SOL     OW10086  10.656   4.573   7.507
20416SOL    HW110087  10.649   4.492   7.449
20416SOL    HW210088  10.682   4.652   7.451
20417SOL     OW10089   9.825  13.657   7.860
20417SOL    HW110090   9.833  13.752   7.888
20417SOL    HW210091   9.767  13.649   7.779
20418SOL     OW10092   3.580  10.289   2.025
20418SOL    HW110093   3.649  10.266   1.956
20418SOL    HW210094   3.618  10.357   2.088
20419SOL     OW10095  11.399   6.737   6.327
20419SOL    HW110096  11.332   6.718   6.255
20419SOL    HW210097  11.459   6.811   6.298
20420SOL     OW10098   3.475   1.916   0.367
20420SOL    HW110099   3.428   1.904   0.455
20420SOL    HW210100   3.413   1.959   0.301
20421SOL     OW10101  11.507   4.867   7.521
20421SOL    HW110102  11.477   4.850   7.615
20421SOL    HW210103  11.484   4.960   7.494
20422SOL     OW10104   4.670   1.178   7.692
20422SOL    HW110105   4.602   1.247   7.668
20422SOL    HW210106   4.743   1.221   7.747
20423SOL     OW10107   2.347   1.266   6.385
20423SOL    HW110108   2.314   1.329   6.314
20423SOL    HW210109   2.417   1.206   6.347
20424SOL     OW10110   8.974   6.137   7.971
20424SOL    HW110111   9.056   6.110   8.020
20424SOL    HW210112   8.988   6.228   7.930
20425SOL     OW10113  14.444  15.578   7.134
20425SOL    HW110114  14.377  15.517   7.177
20425SOL    HW210115  14.475  15.538   7.048
20426SOL     OW10116  11.827  14.732   1.996
20426SOL    HW110117  11.829  14.803   2.066
20426SOL    HW210118  11.915  14.685   1.992
20427SOL     OW10119   5.332   7.437   1.943
20427SOL    HW110120   5.392   7.488   2.005
20427SOL    HW210121   5.345   7.471   1.850
20428SOL     OW10122   4.629   5.679   1.382
20428SOL    HW110123   4.680   5.602   1.344
20428SOL    HW210124   4.531   5.666   1.364
20429SOL     OW10125   2.771   7.817   1.479
20429SOL    HW110126   2.752   7.754   1.554
20429SOL    HW210127   2.786   7.909   1.516
20430SOL     OW10128   8.471  13.589   0.038
20430SOL    HW110129   8.562  13.579   8.453
20430SOL    HW210130   8.413  13.514   0.007
20431SOL     OW10131   4.335  12.419   0.286
20431SOL    HW110132   4.253  12.456   0.330
20431SOL    HW210133   4.334  12.444   0.189
20432SOL     OW10134   8.388  11.820   0.624
20432SOL    HW110135   8.388  11.919   0.607
20432SOL    HW210136   8.438  11.774   0.551
20433SOL     OW10137   7.169  16.356   6.932
20433SOL    HW110138   7.152  16.280   6.869
20433SOL    HW210139   7.159  16.443   6.883
20434SOL     OW10140   5.040   5.922   1.862
20434SOL    HW110141   4.964   5.981   1.832
20434SOL    HW210142   5.047   5.926   1.962
20435SOL     OW10143  13.497   8.206   1.503
20435SOL    HW110144  13.578   8.182   1.450
20435SOL    HW210145  13.505   8.300   1.536
20436SOL     OW10146  15.425   2.277   5.694
20436SOL    HW110147  15.403   2.329   5.777
20436SOL    HW210148  15.513   2.231   5.707
20437SOL     OW10149   3.701  10.439   8.285
20437SOL    HW110150   3.707  10.530   8.243
20437SOL    HW210151   3.734  10.445   8.380
20438SOL     OW10152  16.435   5.042   7.417
20438SOL    HW110153  16.445   5.139   7.392
20438SOL    HW210154  16.339   5.016   7.410
20439SOL     OW10155   0.083   4.443   1.276
20439SOL    HW110156   0.062   4.509   1.348
20439SOL    HW210157   0.000   4.423   1.223
20440SOL     OW10158   8.042   4.927   1.709
20440SOL    HW110159   8.042   4.857   1.781
20440SOL    HW210160   8.136   4.943   1.678
20441SOL     OW10161  11.878  15.541   0.335
20441SOL    HW110162  11.919  15.607   0.272
20441SOL    HW210163  11.949  15.480   0.371
20442SOL     OW10164   0.106   2.281   7.298
20442SOL    HW110165   0.203   2.280   7.274
20442SOL    HW210166   0.086   2.206   7.361
20443SOL     OW10167  11.412  14.493   8.141
20443SOL    HW110168  11.479  14.475   8.213
20443SOL    HW210169  11.449  14.560   8.077
20444SOL     OW10170   4.247  13.847   1.324
20444SOL    HW110171   4.238  13.869   1.421
20444SOL    HW210172   4.342  13.858   1.296
20445SOL     OW10173   8.540  12.551   7.449
20445SOL    HW110174   8.512  12.455   7.445
20445SOL    HW210175   8.522  12.587   7.541
20446SOL     OW10176   9.270   7.113   0.066
20446SOL    HW110177   9.270   7.126   0.166
20446SOL    HW210178   9.191   7.161   0.027
20447SOL     OW10179  11.420   7.926   6.479
20447SOL    HW110180  11.432   8.025   6.478
20447SOL    HW210181  11.487   7.884   6.417
20448SOL     OW10182   6.634   5.096   7.891
20448SOL    HW110183   6.669   5.008   7.923
20448SOL    HW210184   6.692   5.170   7.926
20449SOL     OW10185  16.934   3.067   6.734
20449SOL    HW110186  16.840   3.069   6.700
20449SOL    HW210187  16.962   2.972   6.748
20450SOL     OW10188  16.157   7.239   7.963
20450SOL    HW110189  16.240   7.292   7.981
20450SOL    HW210190  16.096   7.292   7.903
20451SOL     OW10191  11.040  11.720   0.455
20451SOL    HW110192  10.945  11.690   0.447
20451SOL    HW210193  11.079  11.686   0.540
20452SOL     OW10194  15.528   4.491   6.967
20452SOL    HW110195  15.568   4.566   7.019
20452SOL    HW210196  15.600   4.425   6.942
20453SOL     OW10197  15.830  10.408   7.406
20453SOL    HW110198  15.870  10.443   7.321
20453SOL    HW210199  15.745  10.359   7.385
20454SOL     OW10200   5.701   9.985   6.934
20454SOL    HW110201   5.641   9.927   6.878
20454SOL    HW210202   5.777   9.931   6.968
20455SOL     OW10203   5.894   4.147   7.397
20455SOL    HW110204   5.890   4.247   7.394
20455SOL    HW210205   5.968   4.115   7.337
20456SOL     OW10206   3.173   8.140   6.570
20456SOL    HW110207   3.266   8.105   6.583
20456SOL    HW210208   3.141   8.115   6.479
20457SOL     OW10209   1.716  14.486   0.248
20457SOL    HW110210   1.703  14.496   0.347
20457SOL    HW210211   1.637  14.526   0.200
20458SOL     OW10212  16.447  10.167   6.425
20458SOL    HW110213  16.545  10.167   6.407
20458SOL    HW210214  16.407  10.080   6.396
20459SOL     OW10215   6.146   7.618   1.561
20459SOL    HW110216   6.058   7.572   1.566
20459SOL    HW210217   6.132   7.715   1.537
20460SOL     OW10218   4.158  10.146   1.807
20460SOL    HW110219   4.104  10.076   1.853
20460SOL    HW210220   4.165  10.227   1.867
20461SOL     OW10221   1.684  16.367   0.059
20461SOL    HW110222   1.603  16.421   0.080
20461SOL    HW210223   1.744  16.419   8.453
20462SOL     OW10224   4.787   7.494   8.366
20462SOL    HW110225   4.803   7.398   8.389
20462SOL    HW210226   4.874   7.543   8.362
20463SOL     OW10227   4.401  16.264   7.029
20463SOL    HW110228   4.328  16.296   6.969
20463SOL    HW210229   4.391  16.309   7.118
20464SOL     OW10230  13.215   6.906   8.294
20464SOL    HW110231  13.166   6.842   8.353
20464SOL    HW210232  13.287   6.952   8.346
20465SOL     OW10233  16.193  16.013   0.752
20465SOL    HW110234  16.262  15.995   0.822
20465SOL    HW210235  16.220  15.969   0.666
20466SOL     OW10236   8.536  12.938   6.734
20466SOL    HW110237   8.502  12.845   6.720
20466SOL    HW210238   8.508  12.971   6.824
20467SOL     OW10239   9.529   4.088   1.483
20467SOL    HW110240   9.486   4.012   1.435
20467SOL    HW210241   9.565   4.055   1.571
20468SOL     OW10242   4.249   7.867   1.208
20468SOL    HW110243   4.285   7.949   1.254
20468SOL    HW210244   4.318   7.794   1.212
20469SOL     OW10245  10.701  15.307   8.296
20469SOL    HW110246  10.636  15.236   8.321
20469SOL    HW210247  10.665  15.397   8.323
20470SOL     OW10248  10.595  15.522   1.183
20470SOL    HW110249  10.531  15.521   1.106
20470SOL    HW210250  10.683  15.487   1.153
20471SOL     OW10251   3.568  15.103   2.433
20471SOL    HW110252   3.624  15.074   2.510
20471SOL    HW210253   3.477  15.128   2.466
20472SOL     OW10254  16.927   0.668   0.393
20472SOL    HW110255  16.906   0.741   0.459
20472SOL    HW210256   0.042   0.668   0.374
20473SOL     OW10257  11.256  13.722   0.257
20473SOL    HW110258  11.224  13.746   0.349
20473SOL    HW210259  11.227  13.629   0.235
20474SOL     OW10260  10.521  16.678   8.070
20474SOL    HW110261  10.490  16.716   8.157
20474SOL    HW210262  10.618  16.700   8.057
20475SOL     OW10263  13.739  12.880   0.903
20475SOL    HW110264  13.737  12.811   0.831
20475SOL    HW210265  13.656  12.935   0.898
20476SOL     OW10266   4.987   0.858   7.971
20476SOL    HW110267   5.080   0.821   7.966
20476SOL    HW210268   4.934   0.824   7.893
20477SOL     OW10269   3.343   9.462   6.460
20477SOL    HW110270   3.258   9.442   6.412
20477SOL    HW210271   3.341   9.421   6.551
20478SOL     OW10272   8.364   3.225   0.558
20478SOL    HW110273   8.401   3.256   0.471
20478SOL    HW210274   8.366   3.125   0.562
20479SOL     OW10275  11.294  11.061   0.457
20479SOL    HW110276  11.228  11.067   0.532
20479SOL    HW210277  11.385  11.086   0.491
20480SOL     OW10278   9.365   2.966   0.980
20480SOL    HW110279   9.434   3.026   0.939
20480SOL    HW210280   9.391   2.945   1.074
20481SOL     OW10281  15.251   6.662   7.701
20481SOL    HW110282  15.276   6.570   7.732
20481SOL    HW210283  15.172   6.656   7.640
20482SOL     OW10284   7.010   6.733   6.996
20482SOL    HW110285   7.079   6.786   7.046
20482SOL    HW210286   6.929   6.721   7.054
20483SOL     OW10287  13.412   8.255   1.121
20483SOL    HW110288  13.341   8.326   1.118
20483SOL    HW210289  13.385   8.183   1.184
20484SOL     OW10290  16.846  15.953   7.102
20484SOL    HW110291  16.814  16.002   7.183
20484SOL    HW210292  16.785  15.971   7.026
20485SOL     OW10293  16.382  10.010   2.166
20485SOL    HW110294  16.426  10.084   2.217
20485SOL    HW210295  16.357   9.937   2.229
20486SOL     OW10296  10.352  13.427   6.582
20486SOL    HW110297  10.347  13.380   6.494
20486SOL    HW210298  10.335  13.524   6.569
20487SOL     OW10299   0.879  15.207   7.262
20487SOL    HW110300   0.938  15.134   7.228
20487SOL    HW210301   0.784  15.175   7.264
20488SOL     OW10302   9.946   5.162   0.208
20488SOL    HW110303   9.934   5.252   0.167
20488SOL    HW210304  10.014   5.168   0.281
20489SOL     OW10305  10.216  12.473   7.916
20489SOL    HW110306  10.206  12.512   8.007
20489SOL    HW210307  10.188  12.541   7.847
20490SOL     OW10308   0.016   4.139   1.999
20490SOL    HW110309   0.024   4.040   1.991
20490SOL    HW210310  16.908   4.163   2.032
20491SOL     OW10311   2.693   3.793   7.952
20491SOL    HW110312   2.609   3.847   7.954
20491SOL    HW210313   2.719   3.775   7.858
20492SOL     OW10314  13.930  16.061   0.439
20492SOL    HW110315  13.833  16.085   0.447
20492SOL    HW210316  13.941  15.991   0.368
20493SOL     OW10317  13.595  16.973   1.356
20493SOL    HW110318  13.509   0.029   1.389
20493SOL    HW210319  13.578  16.925   1.270
20494SOL     OW10320   5.573  16.219   7.691
20494SOL    HW110321   5.538  16.276   7.617
20494SOL    HW210322   5.516  16.137   7.699
20495SOL     OW10323   1.660   3.839   7.219
20495SOL    HW110324   1.616   3.863   7.132
20495SOL    HW210325   1.671   3.921   7.275
20496SOL     OW10326   7.648   9.158   0.416
20496SOL    HW110327   7.550   9.144   0.426
20496SOL    HW210328   7.667   9.254   0.394
20497SOL     OW10329  12.520   1.094   1.274
20497SOL    HW110330  12.558   1.067   1.186
20497SOL    HW210331  12.455   1.025   1.305
20498SOL     OW10332   8.273   6.906   1.017
20498SOL    HW110333   8.180   6.922   0.984
20498SOL    HW210334   8.270   6.878   1.113
20499SOL     OW10335  13.806   1.790   0.347
20499SOL    HW110336  13.792   1.884   0.315
20499SOL    HW210337  13.765   1.779   0.437
20500SOL     OW10338   5.432  10.656   1.745
20500SOL    HW110339   5.378  10.718   1.688
20500SOL    HW210340   5.527  10.688   1.748
20501SOL     OW10341   2.667   7.501   6.865
20501SOL    HW110342   2.740   7.453   6.816
20501SOL    HW210343   2.664   7.471   6.960
20502SOL     OW10344   1.415  14.390   7.317
20502SOL    HW110345   1.375  14.409   7.407
20502SOL    HW210346   1.509  14.358   7.328
20503SOL     OW10347  13.040  14.264   7.600
20503SOL    HW110348  13.077  14.351   7.566
20503SOL    HW210349  13.064  14.254   7.697
20504SOL     OW10350  14.535   5.058   1.124
20504SOL    HW110351  14.560   4.985   1.188
20504SOL    HW210352  14.548   5.147   1.167
20505SOL     OW10353   4.267   9.757   7.602
20505SOL    HW110354   4.178   9.712   7.593
20505SOL    HW210355   4.279   9.787   7.697
20506SOL     OW10356   7.617   0.199   6.918
20506SOL    HW110357   7.695   0.225   6.862
20506SOL    HW210358   7.546   0.269   6.912
20507SOL     OW10359   2.191   0.500   0.046
20507SOL    HW110360   2.264   0.485   0.112
20507SOL    HW210361   2.104   0.509   0.094
20508SOL     OW10362   5.853   4.285   6.129
20508SOL    HW110363   5.774   4.300   6.069
20508SOL    HW210364   5.840   4.336   6.213
20509SOL     OW10365  15.204  16.864   7.396
20509SOL    HW110366  15.161  16.784   7.438
20509SOL    HW210367  15.140  16.942   7.400
20510SOL     OW10368  12.538  14.916   8.413
20510SOL    HW110369  12.516  14.856   8.336
20510SOL    HW210370  12.493  15.004   8.399
20511SOL     OW10371  15.595   6.543   6.094
20511SOL    HW110372  15.632   6.631   6.124
20511SOL    HW210373  15.580   6.545   5.995
20512SOL     OW10374   2.835  12.334   1.658
20512SOL    HW110375   2.846  12.273   1.737
20512SOL    HW210376   2.821  12.428   1.691
20513SOL     OW10377  11.376  16.236   7.593
20513SOL    HW110378  11.453  16.251   7.531
20513SOL    HW210379  11.327  16.153   7.566
20514SOL     OW10380   7.656  15.680   6.578
20514SOL    HW110381   7.752  15.687   6.551
20514SOL    HW210382   7.649  15.692   6.677
20515SOL     OW10383   2.801   0.246   7.964
20515SOL    HW110384   2.744   0.178   8.011
20515SOL    HW210385   2.833   0.313   8.031
20516SOL     OW10386   6.870   5.000   1.388
20516SOL    HW110387   6.925   5.083   1.385
20516SOL    HW210388   6.825   4.985   1.301
20517SOL     OW10389  15.077   2.289   8.368
20517SOL    HW110390  15.138   2.314   8.294
20517SOL    HW210391  14.982   2.295   8.337
20518SOL     OW10392   9.675   2.095   0.531
20518SOL    HW110393   9.638   2.122   0.620
20518SOL    HW210394   9.621   2.136   0.458
20519SOL     OW10395  16.343   4.412   6.072
20519SOL    HW110396  16.370   4.395   5.977
20519SOL    HW210397  16.338   4.510   6.089
20520SOL     OW10398   3.842  14.707   1.256
20520SOL    HW110399   3.825  14.769   1.179
20520SOL    HW210400   3.881  14.622   1.221
20521SOL     OW10401   7.948  13.585   7.303
20521SOL    HW110402   7.950  13.517   7.229
20521SOL    HW210403   8.036  13.631   7.308
20522SOL     OW10404   3.264  14.654   1.804
20522SOL    HW110405   3.234  14.638   1.898
20522SOL    HW210406   3.274  14.752   1.788
20523SOL     OW10407   8.696   5.422   6.319
20523SOL    HW110408   8.700   5.373   6.231
20523SOL    HW210409   8.651   5.511   6.305
20524SOL     OW10410   3.329   2.588   7.679
20524SOL    HW110411   3.248   2.593   7.620
20524SOL    HW210412   3.333   2.671   7.736
20525SOL     OW10413   9.143   3.622   7.815
20525SOL    HW110414   9.228   3.672   7.805
20525SOL    HW210415   9.133   3.558   7.739
20526SOL     OW10416  13.444  12.769   8.160
20526SOL    HW110417  13.374  12.702   8.180
20526SOL    HW210418  13.444  12.791   8.062
20527SOL     OW10419   6.308   0.853   6.953
20527SOL    HW110420   6.209   0.834   6.952
20527SOL    HW210421   6.337   0.879   6.861
20528SOL     OW10422   9.144  16.582   6.522
20528SOL    HW110423   9.131  16.535   6.435
20528SOL    HW210424   9.204  16.527   6.580
20529SOL     OW10425  13.483  11.132   7.913
20529SOL    HW110426  13.577  11.138   7.946
20529SOL    HW210427  13.437  11.053   7.954
20530SOL     OW10428  15.695  10.496   0.675
20530SOL    HW110429  15.746  10.568   0.722
20530SOL    HW210430  15.719  10.407   0.714
20531SOL     OW10431   3.765   4.891   1.115
20531SOL    HW110432   3.810   4.923   1.199
20531SOL    HW210433   3.684   4.838   1.139
20532SOL     OW10434   8.396  12.876   1.798
20532SOL    HW110435   8.403  12.782   1.831
20532SOL    HW210436   8.386  12.877   1.699
20533SOL     OW10437  14.912  11.667   7.431
20533SOL    HW110438  14.885  11.578   7.395
20533SOL    HW210439  15.012  11.673   7.435
20534SOL     OW10440  12.369  14.517   0.169
20534SOL    HW110441  12.341  14.480   0.080
20534SOL    HW210442  12.291  14.562   0.212
20535SOL     OW10443  12.398  10.188   0.575
20535SOL    HW110444  12.375  10.257   0.644
20535SOL    HW210445  12.320  10.174   0.514
20536SOL     OW10446   0.714   0.807   8.387
20536SOL    HW110447   0.774   0.836   8.311
20536SOL    HW210448   0.770   0.789   0.014
20537SOL     OW10449   0.942  11.651   2.553
20537SOL    HW110450   0.913  11.744   2.530
20537SOL    HW210451   1.042  11.649   2.564
20538SOL     OW10452   1.103  16.840   1.381
20538SOL    HW110453   1.135  16.897   1.306
20538SOL    HW210454   1.005  16.823   1.371
20539SOL     OW10455  16.931  16.566   7.106
20539SOL    HW110456   0.037  16.588   7.069
20539SOL    HW210457  16.933  16.473   7.144
20540SOL     OW10458   4.220   1.776   7.533
20540SOL    HW110459   4.127   1.808   7.555
20540SOL    HW210460   4.276   1.782   7.615
20541SOL     OW10461   6.351   1.126   8.116
20541SOL    HW110462   6.297   1.081   8.187
20541SOL    HW210463   6.296   1.198   8.073
20542SOL     OW10464   5.509  10.333   1.457
20542SOL    HW110465   5.437  10.398   1.432
20542SOL    HW210466   5.470  10.241   1.464
20543SOL     OW10467   1.286   0.628   7.674
20543SOL    HW110468   1.306   0.573   7.592
20543SOL    HW210469   1.361   0.692   7.690
20544SOL     OW10470   2.643   7.047   7.389
20544SOL    HW110471   2.617   6.987   7.464
20544SOL    HW210472   2.667   6.991   7.309
20545SOL     OW10473  14.205  12.824   1.624
20545SOL    HW110474  14.216  12.921   1.645
20545SOL    HW210475  14.141  12.814   1.547
20546SOL     OW10476   4.266   4.383   7.291
20546SOL    HW110477   4.228   4.476   7.288
20546SOL    HW210478   4.236   4.338   7.376
20547SOL     OW10479  15.905  10.640   1.913
20547SOL    HW110480  15.890  10.617   2.009
20547SOL    HW210481  15.874  10.733   1.896
20548SOL     OW10482   1.075   7.163   0.534
20548SOL    HW110483   1.154   7.222   0.520
20548SOL    HW210484   1.069   7.096   0.460
20549SOL     OW10485   0.715   7.474   5.884
20549SOL    HW110486   0.644   7.475   5.955
20549SOL    HW210487   0.683   7.422   5.805
20550SOL     OW10488   0.354   6.877   7.741
20550SOL    HW110489   0.349   6.790   7.691
20550SOL    HW210490   0.294   6.873   7.821
20551SOL     OW10491   5.038   2.155   7.255
20551SOL    HW110492   5.042   2.132   7.157
20551SOL    HW210493   4.948   2.129   7.291
20552SOL     OW10494  14.342   1.369   6.565
20552SOL    HW110495  14.280   1.443   6.593
20552SOL    HW210496  14.416   1.407   6.509
20553SOL     OW10497  13.197   4.382   6.547
20553SOL    HW110498  13.197   4.353   6.642
20553SOL    HW210499  13.105   4.408   6.519
20554SOL     OW10500   0.450   0.712   7.590
20554SOL    HW110501   0.514   0.788   7.582
20554SOL    HW210502   0.358   0.749   7.604
20555SOL     OW10503   7.302   5.792   8.089
20555SOL    HW110504   7.319   5.838   8.176
20555SOL    HW210505   7.204   5.776   8.078
20556SOL     OW10506  13.242  13.852   8.252
20556SOL    HW110507  13.291  13.833   8.337
20556SOL    HW210508  13.301  13.828   8.174
20557SOL     OW10509   7.418   6.761   7.114
20557SOL    HW110510   7.438   6.663   7.115
20557SOL    HW210511   7.399   6.790   7.020
20558SOL     OW10512  14.915  12.158   7.437
20558SOL    HW110513  14.955  12.076   7.397
20558SOL    HW210514  14.910  12.230   7.368
20559SOL     OW10515  14.408  14.693   7.511
20559SOL    HW110516  14.355  14.775   7.488
20559SOL    HW210517  14.443  14.651   7.427
20560SOL     OW10518  14.734  15.926   7.051
20560SOL    HW110519  14.794  15.882   6.983
20560SOL    HW210520  14.671  15.988   7.004
20561SOL     OW10521   5.258   0.530   0.828
20561SOL    HW110522   5.211   0.533   0.739
20561SOL    HW210523   5.238   0.614   0.878
20562SOL     OW10524   2.440  16.067   6.955
20562SOL    HW110525   2.412  15.979   6.917
20562SOL    HW210526   2.532  16.059   6.995
20563SOL     OW10527  11.949  15.656   5.981
20563SOL    HW110528  11.881  15.728   5.969
20563SOL    HW210529  11.967  15.613   5.893
20564SOL     OW10530   9.268   0.229   1.586
20564SOL    HW110531   9.302   0.140   1.554
20564SOL    HW210532   9.235   0.219   1.680
20565SOL     OW10533   6.318   3.589   0.912
20565SOL    HW110534   6.377   3.665   0.937
20565SOL    HW210535   6.344   3.555   0.822
20566SOL     OW10536  16.618   8.264   8.393
20566SOL    HW110537  16.550   8.317   8.444
20566SOL    HW210538  16.707   8.274   8.437
20567SOL     OW10539   6.438  11.182   8.026
20567SOL    HW110540   6.488  11.102   8.058
20567SOL    HW210541   6.500  11.261   8.023
20568SOL     OW10542  15.579  16.942   1.299
20568SOL    HW110543  15.492   0.007   1.301
20568SOL    HW210544  15.637  16.974   1.373
20569SOL     OW10545   4.210  16.110   0.260
20569SOL    HW110546   4.284  16.086   0.322
20569SOL    HW210547   4.147  16.033   0.250
20570SOL     OW10548   0.473  11.926   1.210
20570SOL    HW110549   0.533  12.004   1.193
20570SOL    HW210550   0.522  11.858   1.264
20571SOL     OW10551   4.534   5.033   7.788
20571SOL    HW110552   4.521   5.011   7.885
20571SOL    HW210553   4.445   5.040   7.743
20572SOL     OW10554   8.379   5.928   0.602
20572SOL    HW110555   8.428   5.944   0.516
20572SOL    HW210556   8.404   5.838   0.638
20573SOL     OW10557   5.745  14.668   7.148
20573SOL    HW110558   5.788  14.604   7.211
20573SOL    HW210559   5.757  14.636   7.054
20574SOL     OW10560   0.592   3.705   7.633
20574SOL    HW110561   0.499   3.682   7.661
20574SOL    HW210562   0.611   3.801   7.655
20575SOL     OW10563  14.194   1.065   6.872
20575SOL    HW110564  14.257   1.054   6.949
20575SOL    HW210565  14.241   1.110   6.796
20576SOL     OW10566   5.287   7.742   0.427
20576SOL    HW110567   5.234   7.694   0.497
20576SOL    HW210568   5.227   7.767   0.351
20577SOL     OW10569   9.367   6.431   0.933
20577SOL    HW110570   9.445   6.491   0.948
20577SOL    HW210571   9.399   6.338   0.913
20578SOL     OW10572   9.701  15.203   6.834
20578SOL    HW110573   9.752  15.129   6.877
20578SOL    HW210574   9.760  15.249   6.767
20579SOL     OW10575   4.045   3.475   1.190
20579SOL    HW110576   4.145   3.483   1.189
20579SOL    HW210577   4.018   3.393   1.140
20580SOL     OW10578   3.444  15.192   0.188
20580SOL    HW110579   3.371  15.161   0.249
20580SOL    HW210580   3.454  15.291   0.195
20581SOL     OW10581   2.286   1.632   2.267
20581SOL    HW110582   2.373   1.655   2.311
20581SOL    HW210583   2.214   1.627   2.336
20582SOL     OW10584  13.356   4.313   6.152
20582SOL    HW110585  13.295   4.364   6.092
20582SOL    HW210586  13.441   4.364   6.165
20583SOL     OW10587  16.042  13.664   8.442
20583SOL    HW110588  16.022  13.725   0.064
20583SOL    HW210589  16.140  13.666   8.423
20584SOL     OW10590   2.124   6.587   6.997
20584SOL    HW110591   2.044   6.626   7.042
20584SOL    HW210592   2.176   6.531   7.062
20585SOL     OW10593   3.440   8.181   7.814
20585SOL    HW110594   3.513   8.241   7.783
20585SOL    HW210595   3.466   8.085   7.798
20586SOL     OW10596   0.140  11.564   0.537
20586SOL    HW110597   0.217  11.545   0.475
20586SOL    HW210598   0.063  11.505   0.513
20587SOL     OW10599   0.960  15.901   7.068
20587SOL    HW110600   1.026  15.857   7.130
20587SOL    HW210601   1.009  15.963   7.007
20588SOL     OW10602   8.364   3.312   8.064
20588SOL    HW110603   8.362   3.308   7.964
20588SOL    HW210604   8.406   3.228   8.099
20589SOL     OW10605  15.809  16.538   0.250
20589SOL    HW110606  15.887  16.516   0.191
20589SOL    HW210607  15.775  16.454   0.292
20590SOL     OW10608  15.904   0.053   7.481
20590SOL    HW110609  15.853  16.973   7.421
20590SOL    HW210610  15.846   0.080   7.557
20591SOL     OW10611   9.247   8.073   8.348
20591SOL    HW110612   9.232   8.107   8.440
20591SOL    HW210613   9.336   8.027   8.344
20592SOL     OW10614  14.673   8.947   1.854
20592SOL    HW110615  14.601   9.012   1.830
20592SOL    HW210616  14.730   8.986   1.927
20593SOL     OW10617  13.791   6.457   7.989
20593SOL    HW110618  13.782   6.554   8.010
20593SOL    HW210619  13.836   6.446   7.900
20594SOL     OW10620   5.738   3.127   6.107
20594SOL    HW110621   5.746   3.093   6.201
20594SOL    HW210622   5.644   3.112   6.075
20595SOL     OW10623   6.212   2.171   0.494
20595SOL    HW110624   6.144   2.102   0.515
20595SOL    HW210625   6.171   2.262   0.498
20596SOL     OW10626   9.008  13.775   7.826
20596SOL    HW110627   9.040  13.817   7.741
20596SOL    HW210628   8.917  13.736   7.812
20597SOL     OW10629  13.850   6.719   6.393
20597SOL    HW110630  13.870   6.747   6.299
20597SOL    HW210631  13.898   6.634   6.413
20598SOL     OW10632   5.590   0.187   0.341
20598SOL    HW110633   5.542   0.210   0.426
20598SOL    HW210634   5.544   0.110   0.298
20599SOL     OW10635   9.114   6.349   0.316
20599SOL    HW110636   9.111   6.335   0.415
20599SOL    HW210637   9.159   6.271   0.273
20600SOL     OW10638   3.786   1.796   2.031
20600SOL    HW110639   3.796   1.880   2.084
20600SOL    HW210640   3.762   1.818   1.937
20601SOL     OW10641  10.671  10.084   8.169
20601SOL    HW110642  10.732  10.069   8.247
20601SOL    HW210643  10.637  10.178   8.171
20602SOL     OW10644  11.881   6.431   0.855
20602SOL    HW110645  11.810   6.498   0.876
20602SOL    HW210646  11.887   6.364   0.929
20603SOL     OW10647  14.760   6.962   5.670
20603SOL    HW110648  14.825   6.956   5.595
20603SOL    HW210649  14.699   7.040   5.655
20604SOL     OW10650   6.953   2.012   0.055
20604SOL    HW110651   7.038   1.960   0.055
20604SOL    HW210652   6.928   2.034   0.149
20605SOL     OW10653   4.991   8.750   0.029
20605SOL    HW110654   4.931   8.819   0.069
20605SOL    HW210655   5.055   8.717   0.098
20606SOL     OW10656  15.778  12.753   8.033
20606SOL    HW110657  15.788  12.779   8.129
20606SOL    HW210658  15.866  12.762   7.986
20607SOL     OW10659  16.050   6.457   6.649
20607SOL    HW110660  16.053   6.521   6.573
20607SOL    HW210661  16.087   6.501   6.731
20608SOL     OW10662   2.370  14.468   2.552
20608SOL    HW110663   2.418  14.556   2.558
20608SOL    HW210664   2.324  14.450   2.639
20609SOL     OW10665  16.927   3.559   1.068
20609SOL    HW110666  16.942   3.565   0.969
20609SOL    HW210667  16.958   3.470   1.101
20610SOL     OW10668   8.737   0.532   1.133
20610SOL    HW110669   8.708   0.609   1.077
20610SOL    HW210670   8.656   0.484   1.169
20611SOL     OW10671  14.000   3.925   1.695
20611SOL    HW110672  14.045   3.841   1.725
20611SOL    HW210673  13.994   3.990   1.771
20612SOL     OW10674  14.031  14.061   8.097
20612SOL    HW110675  13.956  14.121   8.126
20612SOL    HW210676  14.093  14.112   8.038
20613SOL     OW10677   0.289  11.171   8.332
20613SOL    HW110678   0.234  11.113   8.272
20613SOL    HW210679   0.248  11.172   8.423
20614SOL     OW10680  11.524  10.598   7.601
20614SOL    HW110681  11.620  10.575   7.619
20614SOL    HW210682  11.519  10.669   7.530
20615SOL     OW10683   0.198  14.919   7.776
20615SOL    HW110684   0.275  14.982   7.761
20615SOL    HW210685   0.169  14.880   7.688
20616SOL     OW10686   3.829   0.549   0.897
20616SOL    HW110687   3.818   0.495   0.981
20616SOL    HW210688   3.902   0.511   0.841
20617SOL     OW10689   9.568  10.800   6.395
20617SOL    HW110690   9.560  10.796   6.495
20617SOL    HW210691   9.663  10.815   6.370
20618SOL     OW10692   5.028  13.414   1.481
20618SOL    HW110693   5.008  13.382   1.573
20618SOL    HW210694   5.066  13.506   1.486
20619SOL     OW10695  12.094   5.865   0.394
20619SOL    HW110696  12.096   5.871   0.295
20619SOL    HW210697  12.127   5.775   0.423
20620SOL     OW10698   6.592   8.833   7.439
20620SOL    HW110699   6.593   8.736   7.465
20620SOL    HW210700   6.673   8.853   7.383
20621SOL     OW10701  13.811  15.312   1.962
20621SOL    HW110702  13.765  15.398   1.988
20621SOL    HW210703  13.781  15.239   2.022
20622SOL     OW10704   3.973   6.809   8.304
20622SOL    HW110705   4.025   6.840   8.383
20622SOL    HW210706   3.922   6.726   8.327
20623SOL     OW10707   6.305   7.186   1.472
20623SOL    HW110708   6.322   7.091   1.497
20623SOL    HW210709   6.207   7.200   1.461
20624SOL     OW10710  16.881   6.554   6.859
20624SOL    HW110711  16.907   6.646   6.832
20624SOL    HW210712  16.795   6.529   6.814
20625SOL     OW10713  11.320   6.783   0.253
20625SOL    HW110714  11.328   6.862   0.313
20625SOL    HW210715  11.252   6.802   0.182
20626SOL     OW10716  13.559   2.767   0.980
20626SOL    HW110717  13.480   2.739   1.034
20626SOL    HW210718  13.638   2.777   1.041
20627SOL     OW10719  11.444   4.697   5.942
20627SOL    HW110720  11.375   4.646   5.994
20627SOL    HW210721  11.488   4.636   5.877
20628SOL     OW10722  10.334   1.004   1.714
20628SOL    HW110723  10.355   0.907   1.698
20628SOL    HW210724  10.375   1.032   1.800
20629SOL     OW10725   2.996   5.710   6.858
20629SOL    HW110726   2.997   5.710   6.958
20629SOL    HW210727   2.939   5.634   6.826
20630SOL     OW10728   7.681   0.051   0.667
20630SOL    HW110729   7.687   0.150   0.649
20630SOL    HW210730   7.726   0.001   0.593
20631SOL     OW10731   5.598  11.230   0.341
20631SOL    HW110732   5.593  11.203   0.245
20631SOL    HW210733   5.620  11.327   0.348
20632SOL     OW10734  16.428   5.530   0.180
20632SOL    HW110735  16.339   5.576   0.188
20632SOL    HW210736  16.497   5.581   0.231
20633SOL     OW10737   9.372   9.176   6.214
20633SOL    HW110738   9.365   9.122   6.130
20633SOL    HW210739   9.348   9.119   6.292
20634SOL     OW10740  12.757  12.612   6.345
20634SOL    HW110741  12.829  12.553   6.309
20634SOL    HW210742  12.743  12.690   6.284
20635SOL     OW10743   8.548  12.227   0.171
20635SOL    HW110744   8.627  12.172   0.197
20635SOL    HW210745   8.464  12.175   0.185
20636SOL     OW10746   0.340   1.852   7.538
20636SOL    HW110747   0.430   1.810   7.543
20636SOL    HW210748   0.336   1.913   7.458
20637SOL     OW10749  16.873  10.256   8.327
20637SOL    HW110750  16.936  10.333   8.331
20637SOL    HW210751  16.826  10.255   8.240
20638SOL     OW10752  15.967   8.339   1.075
20638SOL    HW110753  16.006   8.252   1.107
20638SOL    HW210754  15.885   8.360   1.126
20639SOL     OW10755   3.255  11.231   7.383
20639SOL    HW110756   3.267  11.223   7.284
20639SOL    HW210757   3.190  11.161   7.414
20640SOL     OW10758   7.737   8.617   7.122
20640SOL    HW110759   7.817   8.558   7.137
20640SOL    HW210760   7.723   8.631   7.024
20641SOL     OW10761  15.456  13.663   6.962
20641SOL    HW110762  15.498  13.656   6.871
20641SOL    HW210763  15.495  13.740   7.011
20642SOL     OW10764   0.164   1.396   2.076
20642SOL    HW110765   0.263   1.394   2.090
20642SOL    HW210766   0.119   1.345   2.150
20643SOL     OW10767  13.015  10.342   0.166
20643SOL    HW110768  12.956  10.329   0.086
20643SOL    HW210769  12.973  10.408   0.228
20644SOL     OW10770   2.937   0.985   7.321
20644SOL    HW110771   3.004   0.955   7.254
20644SOL    HW210772   2.889   0.905   7.358
20645SOL     OW10773   7.507   0.300   0.297
20645SOL    HW110774   7.453   0.256   0.369
20645SOL    HW210775   7.597   0.324   0.333
20646SOL     OW10776   0.982   6.948   0.353
20646SOL    HW110777   0.890   6.985   0.360
20646SOL    HW210778   0.978   6.858   0.310
20647SOL     OW10779   7.473   0.784   1.626
20647SOL    HW110780   7.491   0.881   1.644
20647SOL    HW210781   7.428   0.743   1.706
20648SOL     OW10782   3.716  15.657   1.450
20648SOL    HW110783   3.711  15.593   1.374
20648SOL    HW210784   3.688  15.748   1.419
20649SOL     OW10785  13.876   8.394   6.189
20649SOL    HW110786  13.908   8.427   6.101
20649SOL    HW210787  13.889   8.295   6.195
20650SOL     OW10788  11.898  10.412   8.063
20650SOL    HW110789  11.830  10.343   8.038
20650SOL    HW210790  11.889  10.434   8.160
20651SOL     OW10791  11.393   7.267   0.682
20651SOL    HW110792  11.431   7.313   0.601
20651SOL    HW210793  11.306   7.310   0.706
20652SOL     OW10794   6.007  16.937   2.006
20652SOL    HW110795   6.098  16.961   1.973
20652SOL    HW210796   5.950   0.036   2.010
20653SOL     OW10797   2.112   8.583   0.178
20653SOL    HW110798   2.140   8.487   0.186
20653SOL    HW210799   2.071   8.598   0.087
20654SOL     OW10800   7.455   7.757   1.918
20654SOL    HW110801   7.416   7.665   1.908
20654SOL    HW210802   7.441   7.788   2.012
20655SOL     OW10803  16.140  16.389   0.451
20655SOL    HW110804  16.226  16.372   0.499
20655SOL    HW210805  16.065  16.387   0.517
20656SOL     OW10806  10.863   7.888   0.220
20656SOL    HW110807  10.831   7.982   0.223
20656SOL    HW210808  10.953   7.884   0.177
20657SOL     OW10809   3.962   1.707   1.040
20657SOL    HW110810   3.923   1.619   1.014
20657SOL    HW210811   3.985   1.760   0.958
20658SOL     OW10812   9.357  10.607   6.610
20658SOL    HW110813   9.316  10.544   6.676
20658SOL    HW210814   9.289  10.674   6.580
20659SOL     OW10815  13.521  13.637   0.739
20659SOL    HW110816  13.474  13.606   0.656
20659SOL    HW210817  13.618  13.647   0.720
20660SOL     OW10818  12.800   3.173   0.364
20660SOL    HW110819  12.797   3.240   0.438
20660SOL    HW210820  12.713   3.175   0.314
20661SOL     OW10821   8.632  14.723   1.975
20661SOL    HW110822   8.657  14.632   2.007
20661SOL    HW210823   8.651  14.790   2.047
20662SOL     OW10824  14.376  15.975   1.214
20662SOL    HW110825  14.322  16.058   1.198
20662SOL    HW210826  14.460  15.998   1.264
20663SOL     OW10827   0.661   8.920   0.209
20663SOL    HW110828   0.594   8.846   0.223
20663SOL    HW210829   0.654   8.986   0.283
20664SOL     OW10830   5.600  16.637   1.762
20664SOL    HW110831   5.685  16.679   1.792
20664SOL    HW210832   5.527  16.657   1.828
20665SOL     OW10833   3.630   1.453   7.451
20665SOL    HW110834   3.628   1.491   7.359
20665SOL    HW210835   3.685   1.369   7.452
20666SOL     OW10836  15.161  14.030   1.612
20666SOL    HW110837  15.072  14.009   1.572
20666SOL    HW210838  15.225  13.956   1.590
20667SOL     OW10839   2.613   5.912   8.169
20667SOL    HW110840   2.527   5.959   8.189
20667SOL    HW210841   2.597   5.813   8.169
20668SOL     OW10842   6.348  14.845   8.375
20668SOL    HW110843   6.311  14.872   0.009
20668SOL    HW210844   6.446  14.866   8.372
20669SOL     OW10845  10.659   0.801   6.811
20669SOL    HW110846  10.739   0.857   6.830
20669SOL    HW210847  10.682   0.730   6.744
20670SOL     OW10848  15.272  16.143   2.213
20670SOL    HW110849  15.365  16.138   2.248
20670SOL    HW210850  15.273  16.180   2.120
20671SOL     OW10851   2.556   2.051   0.247
20671SOL    HW110852   2.461   2.058   0.217
20671SOL    HW210853   2.563   2.080   0.343
20672SOL     OW10854   0.861   0.217   0.817
20672SOL    HW110855   0.865   0.222   0.717
20672SOL    HW210856   0.861   0.309   0.855
20673SOL     OW10857   7.364  13.756   0.812
20673SOL    HW110858   7.433  13.793   0.874
20673SOL    HW210859   7.273  13.784   0.843
20674SOL     OW10860   0.751  11.239   8.011
20674SOL    HW110861   0.753  11.161   8.073
20674SOL    HW210862   0.779  11.210   7.920
20675SOL     OW10863   0.995   4.957   7.831
20675SOL    HW110864   0.901   4.933   7.853
20675SOL    HW210865   1.024   5.034   7.887
20676SOL     OW10866  15.034  15.553   8.267
20676SOL    HW110867  15.014  15.457   8.248
20676SOL    HW210868  14.975  15.585   8.341
20677SOL     OW10869   4.861   6.340   0.646
20677SOL    HW110870   4.855   6.345   0.546
20677SOL    HW210871   4.791   6.278   0.680
20678SOL     OW10872  12.580   3.203   0.825
20678SOL    HW110873  12.520   3.127   0.801
20678SOL    HW210874  12.551   3.286   0.777
20679SOL     OW10875  13.202   7.545   5.584
20679SOL    HW110876  13.273   7.490   5.541
20679SOL    HW210877  13.207   7.639   5.550
20680SOL     OW10878   9.978   0.340   8.125
20680SOL    HW110879  10.026   0.271   8.179
20680SOL    HW210880  10.015   0.340   8.031
20681SOL     OW10881   3.506   6.020   8.142
20681SOL    HW110882   3.580   6.077   8.106
20681SOL    HW210883   3.438   6.006   8.070
20682SOL     OW10884  13.912  16.739   7.347
20682SOL    HW110885  13.813  16.747   7.361
20682SOL    HW210886  13.944  16.653   7.386
20683SOL     OW10887   6.371   1.285   1.290
20683SOL    HW110888   6.373   1.384   1.274
20683SOL    HW210889   6.308   1.265   1.365
20684SOL     OW10890   2.555   9.282   1.878
20684SOL    HW110891   2.511   9.245   1.961
20684SOL    HW210892   2.488   9.288   1.805
20685SOL     OW10893   8.473   4.763   8.251
20685SOL    HW110894   8.408   4.777   8.325
20685SOL    HW210895   8.562   4.738   8.289
20686SOL     OW10896   6.166   0.883   7.998
20686SOL    HW110897   6.251   0.905   7.951
20686SOL    HW210898   6.166   0.925   8.088
20687SOL     OW10899   3.642   7.275   8.361
20687SOL    HW110900   3.734   7.280   8.399
20687SOL    HW210901   3.593   7.360   8.382
20688SOL     OW10902  16.032   5.729   0.964
20688SOL    HW110903  16.046   5.710   0.867
20688SOL    HW210904  16.110   5.780   0.999
20689SOL     OW10905  13.949  12.630   1.031
20689SOL    HW110906  13.981  12.594   1.118
20689SOL    HW210907  13.969  12.728   1.026
20690SOL     OW10908   0.179   4.360   8.110
20690SOL    HW110909   0.128   4.322   8.187
20690SOL    HW210910   0.236   4.289   8.069
20691SOL     OW10911  16.768  16.431   0.830
20691SOL    HW110912  16.780  16.529   0.816
20691SOL    HW210913  16.755  16.412   0.927
20692SOL     OW10914  13.246   0.568   6.138
20692SOL    HW110915  13.329   0.515   6.153
20692SOL    HW210916  13.213   0.553   6.045
20693SOL     OW10917   1.077   0.927   1.218
20693SOL    HW110918   1.131   1.007   1.243
20693SOL    HW210919   0.987   0.955   1.185
20694SOL     OW10920   4.886  11.115   8.370
20694SOL    HW110921   4.872  11.131   8.272
20694SOL    HW210922   4.857  11.023   8.393
20695SOL     OW10923   5.140  14.575   7.295
20695SOL    HW110924   5.072  14.502   7.290
20695SOL    HW210925   5.194  14.564   7.378
20696SOL     OW10926   6.486  14.312   1.431
20696SOL    HW110927   6.446  14.322   1.523
20696SOL    HW210928   6.562  14.377   1.421
20697SOL     OW10929   6.909  13.120   1.374
20697SOL    HW110930   6.983  13.126   1.307
20697SOL    HW210931   6.918  13.194   1.441
20698SOL     OW10932  11.481  10.456   1.288
20698SOL    HW110933  11.405  10.494   1.340
20698SOL    HW210934  11.529  10.530   1.241
20699SOL     OW10935  12.206  14.574   7.424
20699SOL    HW110936  12.125  14.589   7.480
20699SOL    HW210937  12.244  14.663   7.397
20700SOL     OW10938  11.435  10.803   1.422
20700SOL    HW110939  11.434  10.849   1.511
20700SOL    HW210940  11.385  10.717   1.428
20701SOL     OW10941  16.480   1.641   2.002
20701SOL    HW110942  16.510   1.565   2.059
20701SOL    HW210943  16.394   1.617   1.957
20702SOL     OW10944   2.499  14.447   6.917
20702SOL    HW110945   2.510  14.348   6.916
20702SOL    HW210946   2.402  14.470   6.915
20703SOL     OW10947  13.531   0.898   1.942
20703SOL    HW110948  13.606   0.890   1.876
20703SOL    HW210949  13.563   0.873   2.033
20704SOL     OW10950  14.975   4.602   0.300
20704SOL    HW110951  15.010   4.696   0.308
20704SOL    HW210952  14.961   4.581   0.203
20705SOL     OW10953  11.556   4.041   8.328
20705SOL    HW110954  11.534   4.103   8.252
20705SOL    HW210955  11.472   3.995   8.358
20706SOL     OW10956   4.360  10.817   7.659
20706SOL    HW110957   4.272  10.822   7.706
20706SOL    HW210958   4.422  10.885   7.697
20707SOL     OW10959  11.273   9.216   6.948
20707SOL    HW110960  11.294   9.192   6.853
20707SOL    HW210961  11.219   9.300   6.950
20708SOL     OW10962   6.548  13.474   6.850
20708SOL    HW110963   6.453  13.457   6.878
20708SOL    HW210964   6.606  13.479   6.931
20709SOL     OW10965   6.232   2.984   1.243
20709SOL    HW110966   6.204   3.044   1.317
20709SOL    HW210967   6.332   2.980   1.239
20710SOL     OW10968  11.546  16.947   1.810
20710SOL    HW110969  11.558   0.061   1.791
20710SOL    HW210970  11.482  16.935   1.886
20711SOL     OW10971  15.048  10.761   2.113
20711SOL    HW110972  15.049  10.854   2.149
20711SOL    HW210973  15.096  10.758   2.026
20712SOL     OW10974   5.597  13.694   1.006
20712SOL    HW110975   5.498  13.685   1.011
20712SOL    HW210976   5.621  13.791   0.996
20713SOL     OW10977   4.485  13.928   0.961
20713SOL    HW110978   4.554  13.892   0.898
20713SOL    HW210979   4.397  13.882   0.945
20714SOL     OW10980  16.374   2.374   0.805
20714SOL    HW110981  16.337   2.372   0.898
20714SOL    HW210982  16.346   2.459   0.760
20715SOL     OW10983   8.793  15.253   1.253
20715SOL    HW110984   8.867  15.232   1.317
20715SOL    HW210985   8.717  15.294   1.303
20716SOL     OW10986   0.822  10.327   8.085
20716SOL    HW110987   0.822  10.370   8.175
20716SOL    HW210988   0.910  10.284   8.069
20717SOL     OW10989  11.313   6.486   7.826
20717SOL    HW110990  11.248   6.486   7.750
20717SOL    HW210991  11.406   6.489   7.789
20718SOL     OW10992  10.902   9.572   6.865
20718SOL    HW110993  10.854   9.651   6.902
20718SOL    HW210994  10.921   9.586   6.768
20719SOL     OW10995   1.501   5.036   7.264
20719SOL    HW110996   1.525   5.035   7.361
20719SOL    HW210997   1.446   4.956   7.242
20720SOL     OW10998   3.854  12.513   0.636
20720SOL    HW110999   3.946  12.475   0.628
20720SOL    HW211000   3.852  12.604   0.595
20721SOL     OW11001  13.314  13.808   7.085
20721SOL    HW111002  13.327  13.904   7.063
20721SOL    HW211003  13.246  13.768   7.023
20722SOL     OW11004   9.432  10.035   6.986
20722SOL    HW111005   9.499  10.059   7.056
20722SOL    HW211006   9.455   9.946   6.948
20723SOL     OW11007   1.200  11.120   7.416
20723SOL    HW111008   1.142  11.040   7.402
20723SOL    HW211009   1.276  11.118   7.352
20724SOL     OW11010   1.462   6.387   5.873
20724SOL    HW111011   1.372   6.422   5.848
20724SOL    HW211012   1.529   6.412   5.803
20725SOL     OW11013   0.769   9.809   7.194
20725SOL    HW111014   0.833   9.732   7.193
20725SOL    HW211015   0.804   9.883   7.137
20726SOL     OW11016  13.378   5.494   0.374
20726SOL    HW111017  13.470   5.456   0.385
20726SOL    HW211018  13.369   5.576   0.430
20727SOL     OW11019   8.268  16.769   6.823
20727SOL    HW111020   8.291  16.865   6.810
20727SOL    HW211021   8.288  16.742   6.918
20728SOL     OW11022  12.673  12.679   8.329
20728SOL    HW111023  12.617  12.655   8.249
20728SOL    HW211024  12.619  12.666   8.412
20729SOL     OW11025   9.637  16.842   0.525
20729SOL    HW111026   9.652  16.808   0.432
20729SOL    HW211027   9.685  16.929   0.537
20730SOL     OW11028  10.982   2.812   6.725
20730SOL    HW111029  10.897   2.853   6.693
20730SOL    HW211030  11.055   2.830   6.659
20731SOL     OW11031  16.183   2.800   7.062
20731SOL    HW111032  16.254   2.759   7.004
20731SOL    HW211033  16.169   2.744   7.143
20732SOL     OW11034  15.221  13.838   0.929
20732SOL    HW111035  15.276  13.921   0.923
20732SOL    HW211036  15.216  13.794   0.839
20733SOL     OW11037   1.557  12.128   8.015
20733SOL    HW111038   1.488  12.073   8.062
20733SOL    HW211039   1.648  12.090   8.034
20734SOL     OW11040  10.601  13.795   8.154
20734SOL    HW111041  10.653  13.711   8.136
20734SOL    HW211042  10.619  13.825   8.248
20735SOL     OW11043  14.006   9.622   2.995
20735SOL    HW111044  14.010   9.565   3.076
20735SOL    HW211045  14.059   9.706   3.011
20736SOL     OW11046   2.432  16.442   0.134
20736SOL    HW111047   2.527  16.414   0.121
20736SOL    HW211048   2.375  16.361   0.147
20737SOL     OW11049   0.077   6.929   2.025
20737SOL    HW111050   0.169   6.894   2.009
20737SOL    HW211051   0.025   6.863   2.079
20738SOL     OW11052   0.992  15.889   7.841
20738SOL    HW111053   1.005  15.975   7.792
20738SOL    HW211054   0.926  15.902   7.914
20739SOL     OW11055  10.335   4.134   7.794
20739SOL    HW111056  10.351   4.061   7.727
20739SOL    HW211057  10.365   4.103   7.884
20740SOL     OW11058   1.922  16.237   1.436
20740SOL    HW111059   1.967  16.320   1.404
20740SOL    HW211060   1.895  16.248   1.532
20741SOL     OW11061  11.108   8.030   0.646
20741SOL    HW111062  11.139   7.949   0.595
20741SOL    HW211063  11.026   8.067   0.603
20742SOL     OW11064  10.977   1.432   8.291
20742SOL    HW111065  10.966   1.521   8.335
20742SOL    HW211066  11.048   1.380   8.338
20743SOL     OW11067   2.747   7.924   1.897
20743SOL    HW111068   2.695   7.971   1.825
20743SOL    HW211069   2.823   7.982   1.926
20744SOL     OW11070  15.824   8.428   6.655
20744SOL    HW111071  15.876   8.473   6.727
20744SOL    HW211072  15.862   8.450   6.566
20745SOL     OW11073   7.824   3.617   0.475
20745SOL    HW111074   7.865   3.536   0.433
20745SOL    HW211075   7.809   3.601   0.572
20746SOL     OW11076   5.118   7.821   0.233
20746SOL    HW111077   5.172   7.797   0.152
20746SOL    HW211078   5.021   7.804   0.215
20747SOL     OW11079   0.660  15.639   0.994
20747SOL    HW111080   0.675  15.710   1.063
20747SOL    HW211081   0.600  15.675   0.922
20748SOL     OW11082   9.533   1.563   0.989
20748SOL    HW111083   9.438   1.534   0.975
20748SOL    HW211084   9.558   1.551   1.085
20749SOL     OW11085   0.318   4.510   7.123
20749SOL    HW111086   0.300   4.506   7.221
20749SOL    HW211087   0.353   4.421   7.092
20750SOL     OW11088   6.452  16.699   6.730
20750SOL    HW111089   6.408  16.674   6.816
20750SOL    HW211090   6.386  16.689   6.655
20751SOL     OW11091  13.349   4.020   7.773
20751SOL    HW111092  13.356   3.923   7.747
20751SOL    HW211093  13.418   4.073   7.723
20752SOL     OW11094  15.217   1.807   8.103
20752SOL    HW111095  15.308   1.806   8.143
20752SOL    HW211096  15.224   1.797   8.004
20753SOL     OW11097   1.342   6.194   1.208
20753SOL    HW111098   1.301   6.261   1.271
20753SOL    HW211099   1.319   6.102   1.238
20754SOL     OW11100  14.021   0.260   0.461
20754SOL    HW111101  14.080   0.323   0.512
20754SOL    HW211102  13.930   0.299   0.451
20755SOL     OW11103  13.872  10.832   8.244
20755SOL    HW111104  13.796  10.867   8.299
20755SOL    HW211105  13.874  10.877   8.155
20756SOL     OW11106  13.762   1.363   6.845
20756SOL    HW111107  13.693   1.380   6.915
20756SOL    HW211108  13.792   1.451   6.806
20757SOL     OW11109   7.549  11.290   1.548
20757SOL    HW111110   7.478  11.274   1.479
20757SOL    HW211111   7.633  11.244   1.521
20758SOL     OW11112  13.916   8.772   1.882
20758SOL    HW111113  13.957   8.849   1.932
20758SOL    HW211114  13.867   8.713   1.947
20759SOL     OW11115   9.102  16.369   1.213
20759SOL    HW111116   9.037  16.402   1.145
20759SOL    HW211117   9.073  16.399   1.304
20760SOL     OW11118  11.211   9.471   7.288
20760SOL    HW111119  11.278   9.539   7.261
20760SOL    HW211120  11.244   9.380   7.266
20761SOL     OW11121  12.984   1.660   0.884
20761SOL    HW111122  12.981   1.561   0.866
20761SOL    HW211123  12.902   1.687   0.935
20762SOL     OW11124   0.357   5.922   6.278
20762SOL    HW111125   0.400   5.832   6.271
20762SOL    HW211126   0.409   5.988   6.224
20763SOL     OW11127  16.026  11.421   0.661
20763SOL    HW111128  16.125  11.432   0.652
20763SOL    HW211129  15.981  11.506   0.633
20764SOL     OW11130  12.851   4.568   0.874
20764SOL    HW111131  12.836   4.548   0.971
20764SOL    HW211132  12.781   4.632   0.841
20765SOL     OW11133  15.148  16.041   1.008
20765SOL    HW111134  15.073  16.098   1.041
20765SOL    HW211135  15.150  16.044   0.908
20766SOL     OW11136   8.825  10.768   2.192
20766SOL    HW111137   8.765  10.702   2.147
20766SOL    HW211138   8.886  10.809   2.125
20767SOL     OW11139   9.163  15.216   1.655
20767SOL    HW111140   9.254  15.192   1.620
20767SOL    HW211141   9.163  15.212   1.755
20768SOL     OW11142   8.815   1.641   6.700
20768SOL    HW111143   8.839   1.619   6.794
20768SOL    HW211144   8.866   1.722   6.670
20769SOL     OW11145   0.255   8.296   0.230
20769SOL    HW111146   0.271   8.206   0.270
20769SOL    HW211147   0.162   8.326   0.252
20770SOL     OW11148   1.397   7.185   0.371
20770SOL    HW111149   1.353   7.251   0.431
20770SOL    HW211150   1.390   7.093   0.410
20771SOL     OW11151   3.586  10.025   8.236
20771SOL    HW111152   3.629   9.983   8.155
20771SOL    HW211153   3.502  10.072   8.208
20772SOL     OW11154  13.105  16.532   8.337
20772SOL    HW111155  13.123  16.615   8.388
20772SOL    HW211156  13.144  16.540   8.245
20773SOL     OW11157   1.757  11.255   2.647
20773SOL    HW111158   1.729  11.283   2.739
20773SOL    HW211159   1.736  11.329   2.582
20774SOL     OW11160  10.667   0.832   7.981
20774SOL    HW111161  10.600   0.905   7.994
20774SOL    HW211162  10.625   0.757   7.929
20775SOL     OW11163   7.004  10.797   6.716
20775SOL    HW111164   6.974  10.841   6.800
20775SOL    HW211165   6.927  10.747   6.676
20776SOL     OW11166  13.431   5.812   1.502
20776SOL    HW111167  13.418   5.731   1.559
20776SOL    HW211168  13.371   5.807   1.422
20777SOL     OW11169  11.235   3.436   0.655
20777SOL    HW111170  11.231   3.336   0.645
20777SOL    HW211171  11.144   3.470   0.678
20778SOL     OW11172   8.913   1.387   1.265
20778SOL    HW111173   8.898   1.295   1.226
20778SOL    HW211174   8.826   1.425   1.295
20779SOL     OW11175  10.219  10.613   0.029
20779SOL    HW111176  10.169  10.558   0.096
20779SOL    HW211177  10.300  10.563   8.453
20780SOL     OW11178   8.399  14.847   7.670
20780SOL    HW111179   8.431  14.897   7.589
20780SOL    HW211180   8.463  14.773   7.691
20781SOL     OW11181  14.591  10.517   1.271
20781SOL    HW111182  14.688  10.543   1.266
20781SOL    HW211183  14.581  10.421   1.246
20782SOL     OW11184  15.453   3.389   6.644
20782SOL    HW111185  15.550   3.365   6.635
20782SOL    HW211186  15.413   3.403   6.554
20783SOL     OW11187   2.444   1.797   1.222
20783SOL    HW111188   2.348   1.774   1.204
20783SOL    HW211189   2.468   1.771   1.315
20784SOL     OW11190   6.829   4.748   6.644
20784SOL    HW111191   6.862   4.729   6.552
20784SOL    HW211192   6.908   4.765   6.704
20785SOL     OW11193   4.538   8.081   1.625
20785SOL    HW111194   4.602   8.104   1.698
20785SOL    HW211195   4.445   8.080   1.661
20786SOL     OW11196  10.351  12.705   8.346
20786SOL    HW111197  10.376  12.732   8.439
20786SOL    HW211198  10.345  12.785   8.288
20787SOL     OW11199  10.990   5.682   0.619
20787SOL    HW111200  10.892   5.703   0.628
20787SOL    HW211201  11.001   5.598   0.566
20788SOL     OW11202   9.981  13.744   6.965
20788SOL    HW111203   9.926  13.784   7.038
20788SOL    HW211204  10.067  13.795   6.957
20789SOL     OW11205   8.542  14.843   1.744
20789SOL    HW111206   8.572  14.803   1.831
20789SOL    HW211207   8.552  14.775   1.671
20790SOL     OW11208  15.689   4.404   0.662
20790SOL    HW111209  15.712   4.356   0.747
20790SOL    HW211210  15.622   4.350   0.611
20791SOL     OW11211   4.684  15.924   1.679
20791SOL    HW111212   4.663  15.943   1.583
20791SOL    HW211213   4.603  15.943   1.735
20792SOL     OW11214   2.079   2.231   1.354
20792SOL    HW111215   2.113   2.296   1.286
20792SOL    HW211216   2.126   2.247   1.441
20793SOL     OW11217  16.784  11.064   0.872
20793SOL    HW111218  16.877  11.044   0.903
20793SOL    HW211219  16.765  11.012   0.789
20794SOL     OW11220   8.284  10.464   2.282
20794SOL    HW111221   8.339  10.450   2.364
20794SOL    HW211222   8.207  10.524   2.303
20795SOL     OW11223  15.821   2.874   6.571
20795SOL    HW111224  15.788   2.931   6.646
20795SOL    HW211225  15.753   2.805   6.548
20796SOL     OW11226   0.122   9.843   0.127
20796SOL    HW111227   0.137   9.897   0.210
20796SOL    HW211228   0.080   9.901   0.057
20797SOL     OW11229   7.710   2.442   7.863
20797SOL    HW111230   7.705   2.403   7.955
20797SOL    HW211231   7.618   2.456   7.827
20798SOL     OW11232  13.996  12.906   0.995
20798SOL    HW111233  14.005  12.949   1.085
20798SOL    HW211234  13.900  12.908   0.967
20799SOL     OW11235   6.739   2.334   7.274
20799SOL    HW111236   6.804   2.329   7.198
20799SOL    HW211237   6.755   2.258   7.337
20800SOL     OW11238   5.361   2.757   8.153
20800SOL    HW111239   5.304   2.741   8.233
20800SOL    HW211240   5.329   2.700   8.077
20801SOL     OW11241   1.915   1.326   8.051
20801SOL    HW111242   1.904   1.422   8.024
20801SOL    HW211243   1.827   1.290   8.082
20802SOL     OW11244   5.978   4.039   1.526
20802SOL    HW111245   5.979   3.972   1.452
20802SOL    HW211246   6.067   4.038   1.573
20803SOL     OW11247   7.732   1.822   0.443
20803SOL    HW111248   7.729   1.847   0.540
20803SOL    HW211249   7.641   1.791   0.414
20804SOL     OW11250   1.114  12.998   0.718
20804SOL    HW111251   1.170  13.027   0.795
20804SOL    HW211252   1.097  13.076   0.658
20805SOL     OW11253   2.881  12.975   6.621
20805SOL    HW111254   2.840  13.032   6.549
20805SOL    HW211255   2.980  12.990   6.623
20806SOL     OW11256   5.852  11.092   0.068
20806SOL    HW111257   5.754  11.112   0.071
20806SOL    HW211258   5.896  11.153   0.002
20807SOL     OW11259   1.946  15.781   0.630
20807SOL    HW111260   1.869  15.817   0.576
20807SOL    HW211261   1.950  15.828   0.718
20808SOL     OW11262   2.001  10.136   1.454
20808SOL    HW111263   1.992  10.226   1.410
20808SOL    HW211264   1.933  10.127   1.527
20809SOL     OW11265   3.738   3.625   7.270
20809SOL    HW111266   3.670   3.553   7.285
20809SOL    HW211267   3.694   3.715   7.275
20810SOL     OW11268  16.648   0.142   8.352
20810SOL    HW111269  16.676   0.177   8.441
20810SOL    HW211270  16.548   0.134   8.350
20811SOL     OW11271   1.563   0.491   1.594
20811SOL    HW111272   1.551   0.431   1.515
20811SOL    HW211273   1.475   0.502   1.641
20812SOL     OW11274  15.072   4.524   6.951
20812SOL    HW111275  15.079   4.506   7.050
20812SOL    HW211276  15.089   4.439   6.901
20813SOL     OW11277  15.802  16.243   6.117
20813SOL    HW111278  15.758  16.190   6.045
20813SOL    HW211279  15.848  16.323   6.077
20814SOL     OW11280  13.559   4.973   7.801
20814SOL    HW111281  13.506   4.935   7.725
20814SOL    HW211282  13.636   4.913   7.822
20815SOL     OW11283  13.152  11.028   1.061
20815SOL    HW111284  13.068  11.019   1.007
20815SOL    HW211285  13.163  11.122   1.092
20816SOL     OW11286   5.404  14.781   1.163
20816SOL    HW111287   5.314  14.824   1.168
20816SOL    HW211288   5.408  14.706   1.229
20817SOL     OW11289  13.844   7.376   1.171
20817SOL    HW111290  13.908   7.331   1.109
20817SOL    HW211291  13.769   7.418   1.119
20818SOL     OW11292   2.488   3.153   1.647
20818SOL    HW111293   2.438   3.090   1.587
20818SOL    HW211294   2.570   3.108   1.682
20819SOL     OW11295   8.972  10.801   2.420
20819SOL    HW111296   8.991  10.712   2.462
20819SOL    HW211297   8.909  10.788   2.343
20820SOL     OW11298  13.508   9.447   7.109
20820SOL    HW111299  13.562   9.443   7.193
20820SOL    HW211300  13.448   9.528   7.112
20821SOL     OW11301   9.950   2.366   6.208
20821SOL    HW111302   9.956   2.383   6.306
20821SOL    HW211303   9.853   2.364   6.180
20822SOL     OW11304   0.474   8.108   1.647
20822SOL    HW111305   0.430   8.196   1.664
20822SOL    HW211306   0.513   8.074   1.733
20823SOL     OW11307   8.426   9.740   1.316
20823SOL    HW111308   8.473   9.795   1.385
20823SOL    HW211309   8.461   9.646   1.317
20824SOL     OW11310  12.431  14.192   0.106
20824SOL    HW111311  12.476  14.274   0.141
20824SOL    HW211312  12.461  14.175   0.013
20825SOL     OW11313  16.571  13.125   0.978
20825SOL    HW111314  16.604  13.215   1.007
20825SOL    HW211315  16.602  13.106   0.885
20826SOL     OW11316   8.944  16.742   7.340
20826SOL    HW111317   8.968  16.741   7.437
20826SOL    HW211318   8.886  16.663   7.319
20827SOL     OW11319   3.685  14.275   7.539
20827SOL    HW111320   3.652  14.246   7.449
20827SOL    HW211321   3.687  14.375   7.543
20828SOL     OW11322   9.032  13.204   1.508
20828SOL    HW111323   9.045  13.299   1.538
20828SOL    HW211324   9.119  13.165   1.480
20829SOL     OW11325  10.311  14.487   6.489
20829SOL    HW111326  10.268  14.551   6.425
20829SOL    HW211327  10.410  14.484   6.470
20830SOL     OW11328   5.444   2.177   7.198
20830SOL    HW111329   5.423   2.141   7.107
20830SOL    HW211330   5.410   2.271   7.205
20831SOL     OW11331  13.933   3.920   7.622
20831SOL    HW111332  14.009   3.938   7.685
20831SOL    HW211333  13.846   3.937   7.669
20832SOL     OW11334  10.628  16.429   6.782
20832SOL    HW111335  10.608  16.348   6.727
20832SOL    HW211336  10.690  16.404   6.857
20833SOL     OW11337   7.166   2.691   1.669
20833SOL    HW111338   7.066   2.683   1.666
20833SOL    HW211339   7.203   2.614   1.721
20834SOL     OW11340   4.223   8.830   0.858
20834SOL    HW111341   4.217   8.828   0.958
20834SOL    HW211342   4.305   8.782   0.828
20835SOL     OW11343   1.352  15.674   0.111
20835SOL    HW111344   1.440  15.627   0.104
20835SOL    HW211345   1.281  15.618   0.067
20836SOL     OW11346  14.924  10.801   1.439
20836SOL    HW111347  15.016  10.791   1.399
20836SOL    HW211348  14.923  10.880   1.501
20837SOL     OW11349   0.170   3.761   0.655
20837SOL    HW111350   0.154   3.856   0.682
20837SOL    HW211351   0.269   3.746   0.643
20838SOL     OW11352   7.163  15.918   8.452
20838SOL    HW111353   7.247  15.876   8.417
20838SOL    HW211354   7.095  15.923   8.379
20839SOL     OW11355  16.660   5.307   7.491
20839SOL    HW111356  16.568   5.316   7.453
20839SOL    HW211357  16.722   5.276   7.418
20840SOL     OW11358   5.848   4.041   6.919
20840SOL    HW111359   5.792   4.054   6.838
20840SOL    HW211360   5.847   4.125   6.974
20841SOL     OW11361  12.054   4.293   6.926
20841SOL    HW111362  11.999   4.225   6.975
20841SOL    HW211363  12.017   4.304   6.833
20842SOL     OW11364   1.405   9.730   6.978
20842SOL    HW111365   1.480   9.663   6.984
20842SOL    HW211366   1.436   9.809   6.924
20843SOL     OW11367   7.982  11.392   7.326
20843SOL    HW111368   7.898  11.386   7.380
20843SOL    HW211369   8.058  11.417   7.385
20844SOL     OW11370  14.442   7.369   0.758
20844SOL    HW111371  14.391   7.411   0.834
20844SOL    HW211372  14.530   7.416   0.747
20845SOL     OW11373  13.624   7.293   0.794
20845SOL    HW111374  13.692   7.233   0.752
20845SOL    HW211375  13.541   7.241   0.813
20846SOL     OW11376  15.621   2.684   6.551
20846SOL    HW111377  15.554   2.643   6.489
20846SOL    HW211378  15.665   2.612   6.605
20847SOL     OW11379   9.103   6.937   1.553
20847SOL    HW111380   9.202   6.926   1.545
20847SOL    HW211381   9.082   6.997   1.629
20848SOL     OW11382   4.153  13.151   0.676
20848SOL    HW111383   4.253  13.145   0.677
20848SOL    HW211384   4.122  13.210   0.751
20849SOL     OW11385   9.135   8.237   6.874
20849SOL    HW111386   9.106   8.268   6.783
20849SOL    HW211387   9.234   8.229   6.877
20850SOL     OW11388  15.828   6.645   7.487
20850SOL    HW111389  15.832   6.546   7.478
20850SOL    HW211390  15.918   6.680   7.513
20851SOL     OW11391   5.650   9.259   6.285
20851SOL    HW111392   5.737   9.252   6.334
20851SOL    HW211393   5.623   9.169   6.252
20852SOL     OW11394   0.059  10.451   1.183
20852SOL    HW111395   0.094  10.542   1.159
20852SOL    HW211396  16.971  10.460   1.253
20853SOL     OW11397   0.015   6.376   8.007
20853SOL    HW111398  16.941   6.311   8.056
20853SOL    HW211399  16.946   6.460   7.989
20854SOL     OW11400   5.301  13.352   2.020
20854SOL    HW111401   5.377  13.328   2.080
20854SOL    HW211402   5.220  13.374   2.074
20855SOL     OW11403  14.048   2.260   5.493
20855SOL    HW111404  14.074   2.203   5.415
20855SOL    HW211405  14.080   2.354   5.478
20856SOL     OW11406   1.498  14.156   1.045
20856SOL    HW111407   1.556  14.237   1.034
20856SOL    HW211408   1.531  14.083   0.986
20857SOL     OW11409  14.737   3.906   6.414
20857SOL    HW111410  14.755   3.837   6.485
20857SOL    HW211411  14.649   3.888   6.372
20858SOL     OW11412   2.935  15.758   6.595
20858SOL    HW111413   2.864  15.720   6.535
20858SOL    HW211414   3.004  15.804   6.540
20859SOL     OW11415   1.111   2.305   0.843
20859SOL    HW111416   1.193   2.280   0.894
20859SOL    HW211417   1.051   2.361   0.901
20860SOL     OW11418   3.968   5.231   0.121
20860SOL    HW111419   3.949   5.286   0.040
20860SOL    HW211420   3.913   5.148   0.119
20861SOL     OW11421   1.595   0.317   0.361
20861SOL    HW111422   1.544   0.316   0.275
20861SOL    HW211423   1.692   0.304   0.342
20862SOL     OW11424  13.921   3.209   7.921
20862SOL    HW111425  13.929   3.120   7.877
20862SOL    HW211426  14.006   3.260   7.906
20863SOL     OW11427   6.231   9.374   0.284
20863SOL    HW111428   6.301   9.320   0.331
20863SOL    HW211429   6.264   9.402   0.195
20864SOL     OW11430   1.389   9.838   0.933
20864SOL    HW111431   1.326   9.834   1.011
20864SOL    HW211432   1.387   9.930   0.894
20865SOL     OW11433   7.948  11.039   6.944
20865SOL    HW111434   7.987  11.110   7.002
20865SOL    HW211435   7.860  11.070   6.909
20866SOL     OW11436  16.298  14.623   6.725
20866SOL    HW111437  16.274  14.606   6.820
20866SOL    HW211438  16.217  14.654   6.675
20867SOL     OW11439  10.270   1.779   7.992
20867SOL    HW111440  10.356   1.829   8.002
20867SOL    HW211441  10.285   1.697   7.938
20868SOL     OW11442   8.280   7.172   7.863
20868SOL    HW111443   8.192   7.186   7.909
20868SOL    HW211444   8.354   7.199   7.925
20869SOL     OW11445   9.616   2.730   7.750
20869SOL    HW111446   9.542   2.665   7.735
20869SOL    HW211447   9.669   2.740   7.666
20870SOL     OW11448  15.898  15.236   7.458
20870SOL    HW111449  15.935  15.311   7.512
20870SOL    HW211450  15.902  15.260   7.361
20871SOL     OW11451  12.447   7.531   5.998
20871SOL    HW111452  12.436   7.625   5.964
20871SOL    HW211453  12.452   7.532   6.098
20872SOL     OW11454  12.594  11.535   2.093
20872SOL    HW111455  12.601  11.448   2.045
20872SOL    HW211456  12.500  11.567   2.090
20873SOL     OW11457   5.593   8.873   0.790
20873SOL    HW111458   5.679   8.857   0.839
20873SOL    HW211459   5.547   8.953   0.829
20874SOL     OW11460   5.483  15.468   1.500
20874SOL    HW111461   5.416  15.425   1.440
20874SOL    HW211462   5.476  15.427   1.591
20875SOL     OW11463   6.734   6.263   0.591
20875SOL    HW111464   6.736   6.345   0.650
20875SOL    HW211465   6.673   6.195   0.631
20876SOL     OW11466  11.266   4.344   0.702
20876SOL    HW111467  11.338   4.285   0.667
20876SOL    HW211468  11.240   4.411   0.632
20877SOL     OW11469   3.035   9.221   1.360
20877SOL    HW111470   3.102   9.223   1.434
20877SOL    HW211471   2.972   9.299   1.369
20878SOL     OW11472   1.195  11.937   1.204
20878SOL    HW111473   1.287  11.931   1.164
20878SOL    HW211474   1.182  11.862   1.269
20879SOL     OW11475   3.491  12.148   0.386
20879SOL    HW111476   3.451  12.221   0.442
20879SOL    HW211477   3.467  12.164   0.290
20880SOL     OW11478   0.484  12.849   1.434
20880SOL    HW111479   0.455  12.765   1.478
20880SOL    HW211480   0.493  12.833   1.335
20881SOL     OW11481   8.306  15.687   1.634
20881SOL    HW111482   8.344  15.757   1.573
20881SOL    HW211483   8.219  15.655   1.596
20882SOL     OW11484  15.318  14.469   0.534
20882SOL    HW111485  15.238  14.529   0.538
20882SOL    HW211486  15.386  14.500   0.601
20883SOL     OW11487   6.636   0.318   0.104
20883SOL    HW111488   6.593   0.340   0.192
20883SOL    HW211489   6.617   0.392   0.039
20884SOL     OW11490   0.093   8.004   0.756
20884SOL    HW111491   0.084   7.905   0.753
20884SOL    HW211492   0.190   8.029   0.759
20885SOL     OW11493   4.775   4.531   8.378
20885SOL    HW111494   4.798   4.575   0.011
20885SOL    HW211495   4.699   4.581   8.335
20886SOL     OW11496   3.409   0.754   8.351
20886SOL    HW111497   3.357   0.769   8.266
20886SOL    HW211498   3.499   0.798   8.343
20887SOL     OW11499   5.325  14.230   0.374
20887SOL    HW111500   5.400  14.214   0.310
20887SOL    HW211501   5.329  14.163   0.448
20888SOL     OW11502   8.090   4.987   6.772
20888SOL    HW111503   8.085   4.894   6.737
20888SOL    HW211504   8.103   5.051   6.696
20889SOL     OW11505   0.101   5.510   6.730
20889SOL    HW111506   0.020   5.451   6.723
20889SOL    HW211507   0.183   5.453   6.737
20890SOL     OW11508  15.358   4.155   7.957
20890SOL    HW111509  15.421   4.140   7.881
20890SOL    HW211510  15.407   4.146   8.044
20891SOL     OW11511  14.779   2.135   6.829
20891SOL    HW111512  14.727   2.128   6.744
20891SOL    HW211513  14.758   2.057   6.888
20892SOL     OW11514  13.774   1.158   0.767
20892SOL    HW111515  13.840   1.088   0.796
20892SOL    HW211516  13.810   1.248   0.791
20893SOL     OW11517   9.774  15.501   0.098
20893SOL    HW111518   9.692  15.455   0.132
20893SOL    HW211519   9.809  15.453   0.018
20894SOL     OW11520   6.925   3.583   6.209
20894SOL    HW111521   6.933   3.539   6.120
20894SOL    HW211522   6.837   3.630   6.216
20895SOL     OW11523   5.668   7.460   7.532
20895SOL    HW111524   5.629   7.498   7.616
20895SOL    HW211525   5.648   7.362   7.527
20896SOL     OW11526  14.070   6.709   1.218
20896SOL    HW111527  14.105   6.796   1.183
20896SOL    HW211528  13.973   6.703   1.199
20897SOL     OW11529   0.054  15.263   7.839
20897SOL    HW111530   0.012  15.212   7.915
20897SOL    HW211531   0.011  15.236   7.753
20898SOL     OW11532   8.424   1.360   1.459
20898SOL    HW111533   8.448   1.352   1.555
20898SOL    HW211534   8.332   1.324   1.444
20899SOL     OW11535   0.799   3.996   8.398
20899SOL    HW111536   0.879   4.031   8.446
20899SOL    HW211537   0.819   3.987   8.301
20900SOL     OW11538   9.612   4.830   8.145
20900SOL    HW111539   9.578   4.752   8.091
20900SOL    HW211540   9.554   4.842   8.226
20901SOL     OW11541  14.742  15.819   7.712
20901SOL    HW111542  14.748  15.908   7.758
20901SOL    HW211543  14.728  15.748   7.781
20902SOL     OW11544   2.630  12.383   0.878
20902SOL    HW111545   2.597  12.399   0.785
20902SOL    HW211546   2.584  12.303   0.917
20903SOL     OW11547   1.089  13.681   0.812
20903SOL    HW111548   1.007  13.624   0.802
20903SOL    HW211549   1.066  13.764   0.864
20904SOL     OW11550   3.106   9.187   1.819
20904SOL    HW111551   3.131   9.167   1.913
20904SOL    HW211552   3.048   9.114   1.783
20905SOL     OW11553  10.068   9.902   6.590
20905SOL    HW111554  10.001   9.976   6.580
20905SOL    HW211555  10.026   9.815   6.562
20906SOL     OW11556   2.661   1.790   8.069
20906SOL    HW111557   2.611   1.753   8.147
20906SOL    HW211558   2.702   1.714   8.018
20907SOL     OW11559   9.900  14.382   6.654
20907SOL    HW111560   9.856  14.295   6.631
20907SOL    HW211561   9.878  14.450   6.584
20908SOL     OW11562   6.848   3.098   7.058
20908SOL    HW111563   6.906   3.090   7.139
20908SOL    HW211564   6.757   3.129   7.085
20909SOL     OW11565   8.996   0.087   8.265
20909SOL    HW111566   8.913   0.132   8.299
20909SOL    HW211567   8.974   0.037   8.181
20910SOL     OW11568   8.600  11.564   7.327
20910SOL    HW111569   8.653  11.613   7.258
20910SOL    HW211570   8.662  11.509   7.384
20911SOL     OW11571   9.571  13.927   1.847
20911SOL    HW111572   9.563  13.832   1.879
20911SOL    HW211573   9.524  13.988   1.912
20912SOL     OW11574   0.210   8.036   1.591
20912SOL    HW111575   0.305   8.062   1.607
20912SOL    HW211576   0.154   8.118   1.580
20913SOL     OW11577  15.994   1.332   6.284
20913SOL    HW111578  16.064   1.293   6.344
20913SOL    HW211579  15.994   1.283   6.196
20914SOL     OW11580   8.091   1.306   7.931
20914SOL    HW111581   8.173   1.360   7.951
20914SOL    HW211582   8.010   1.357   7.961
20915SOL     OW11583   9.115  13.864   6.989
20915SOL    HW111584   9.032  13.807   6.988
20915SOL    HW211585   9.115  13.924   6.909
20916SOL     OW11586   4.707   6.099   8.013
20916SOL    HW111587   4.785   6.056   8.060
20916SOL    HW211588   4.685   6.046   7.931
20917SOL     OW11589   3.313   7.076   1.853
20917SOL    HW111590   3.233   7.017   1.840
20917SOL    HW211591   3.392   7.020   1.879
20918SOL     OW11592   8.087   7.507   8.082
20918SOL    HW111593   8.167   7.474   8.131
20918SOL    HW211594   8.045   7.582   8.133
20919SOL     OW11595  15.584  11.639   6.610
20919SOL    HW111596  15.528  11.621   6.530
20919SOL    HW211597  15.643  11.561   6.629
20920SOL     OW11598   1.320  16.889   0.741
20920SOL    HW111599   1.304  16.980   0.779
20920SOL    HW211600   1.378  16.837   0.803
20921SOL     OW11601  14.979   8.171   0.008
20921SOL    HW111602  14.916   8.096   0.025
20921SOL    HW211603  14.939   8.234   8.395
20922SOL     OW11604  11.734   9.611   0.477
20922SOL    HW111605  11.644   9.580   0.447
20922SOL    HW211606  11.772   9.673   0.408
20923SOL     OW11607  12.904  10.285   2.243
20923SOL    HW111608  12.987  10.230   2.243
20923SOL    HW211609  12.894  10.330   2.332
20924SOL     OW11610   3.792  14.856   7.862
20924SOL    HW111611   3.701  14.852   7.901
20924SOL    HW211612   3.839  14.769   7.879
20925SOL     OW11613  11.073   5.290   2.203
20925SOL    HW111614  11.127   5.374   2.212
20925SOL    HW211615  11.064   5.245   2.292
20926SOL     OW11616   3.033   0.779   1.992
20926SOL    HW111617   3.117   0.726   2.005
20926SOL    HW211618   2.962   0.720   1.955
20927SOL     OW11619   5.562  12.235   0.836
20927SOL    HW111620   5.551  12.332   0.860
20927SOL    HW211621   5.643  12.223   0.779
20928SOL     OW11622  12.067   2.988   6.902
20928SOL    HW111623  12.102   3.030   6.818
20928SOL    HW211624  12.133   3.000   6.976
20929SOL     OW11625   7.827   6.392   6.222
20929SOL    HW111626   7.897   6.374   6.154
20929SOL    HW211627   7.845   6.480   6.266
20930SOL     OW11628   5.466   0.560   8.169
20930SOL    HW111629   5.476   0.492   8.096
20930SOL    HW211630   5.532   0.634   8.155
20931SOL     OW11631  14.135  14.011   8.353
20931SOL    HW111632  14.195  14.088   8.373
20931SOL    HW211633  14.100  14.018   8.260
20932SOL     OW11634   3.621   0.829   0.625
20932SOL    HW111635   3.543   0.861   0.680
20932SOL    HW211636   3.588   0.787   0.541
20933SOL     OW11637   5.109   6.085   1.326
20933SOL    HW111638   5.027   6.033   1.352
20933SOL    HW211639   5.126   6.072   1.228
20934SOL     OW11640   0.546   6.705   7.397
20934SOL    HW111641   0.630   6.718   7.450
20934SOL    HW211642   0.469   6.692   7.459
20935SOL     OW11643   3.138   3.529   7.557
20935SOL    HW111644   3.075   3.606   7.567
20935SOL    HW211645   3.090   3.445   7.581
20936SOL     OW11646   3.198  14.606   7.624
20936SOL    HW111647   3.230  14.608   7.529
20936SOL    HW211648   3.233  14.524   7.669
20937SOL     OW11649   5.336   7.491   0.183
20937SOL    HW111650   5.387   7.420   0.134
20937SOL    HW211651   5.344   7.475   0.282
20938SOL     OW11652  10.183   1.412   1.422
20938SOL    HW111653  10.209   1.366   1.506
20938SOL    HW211654  10.126   1.352   1.367
20939SOL     OW11655  11.561   1.019   0.676
20939SOL    HW111656  11.515   1.089   0.731
20939SOL    HW211657  11.596   1.061   0.591
20940SOL     OW11658  16.385   5.684   0.521
20940SOL    HW111659  16.305   5.722   0.475
20940SOL    HW211660  16.386   5.713   0.616
20941SOL     OW11661  12.537  14.334   1.511
20941SOL    HW111662  12.586  14.374   1.433
20941SOL    HW211663  12.586  14.252   1.542
20942SOL     OW11664   7.092  10.839   0.731
20942SOL    HW111665   7.050  10.903   0.666
20942SOL    HW211666   7.057  10.747   0.714
20943SOL     OW11667  10.987   6.144   0.379
20943SOL    HW111668  10.925   6.167   0.304
20943SOL    HW211669  11.065   6.207   0.378
20944SOL     OW11670  12.155  13.233   8.276
20944SOL    HW111671  12.089  13.285   8.330
20944SOL    HW211672  12.245  13.276   8.282
20945SOL     OW11673   8.917  15.767   1.268
20945SOL    HW111674   8.888  15.862   1.256
20945SOL    HW211675   8.962  15.736   1.184
20946SOL     OW11676  11.675   8.632   1.090
20946SOL    HW111677  11.620   8.554   1.117
20946SOL    HW211678  11.771   8.615   1.112
20947SOL     OW11679  13.702   6.111   1.607
20947SOL    HW111680  13.717   6.173   1.684
20947SOL    HW211681  13.613   6.066   1.618
20948SOL     OW11682   8.007  16.310   7.448
20948SOL    HW111683   7.988  16.358   7.363
20948SOL    HW211684   8.050  16.372   7.513
20949SOL     OW11685   1.019  12.083   7.380
20949SOL    HW111686   0.999  12.111   7.286
20949SOL    HW211687   1.109  12.040   7.384
20950SOL     OW11688   1.891   9.903   0.464
20950SOL    HW111689   1.889   9.807   0.492
20950SOL    HW211690   1.803   9.945   0.486
20951SOL     OW11691   4.914  14.904   6.947
20951SOL    HW111692   4.992  14.842   6.956
20951SOL    HW211693   4.905  14.932   6.851
20952SOL     OW11694   3.279  10.777   0.264
20952SOL    HW111695   3.329  10.863   0.252
20952SOL    HW211696   3.305  10.713   0.191
20953SOL     OW11697   8.645  12.290   8.357
20953SOL    HW111698   8.725  12.350   8.364
20953SOL    HW211699   8.608  12.273   8.448
20954SOL     OW11700   2.559   2.502   1.777
20954SOL    HW111701   2.507   2.574   1.731
20954SOL    HW211702   2.546   2.510   1.876
20955SOL     OW11703   5.591  12.653   0.783
20955SOL    HW111704   5.513  12.695   0.734
20955SOL    HW211705   5.634  12.722   0.841
20956SOL     OW11706   4.488  13.704   6.715
20956SOL    HW111707   4.467  13.666   6.625
20956SOL    HW211708   4.461  13.639   6.786
20957SOL     OW11709  16.477  14.963   7.217
20957SOL    HW111710  16.396  14.990   7.268
20957SOL    HW211711  16.453  14.951   7.121
20958SOL     OW11712   8.687  16.243   2.297
20958SOL    HW111713   8.679  16.311   2.370
20958SOL    HW211714   8.783  16.229   2.275
20959SOL     OW11715  11.589  10.899   8.139
20959SOL    HW111716  11.547  10.846   8.213
20959SOL    HW211717  11.517  10.938   8.082
20960SOL     OW11718   8.254  15.508   1.301
20960SOL    HW111719   8.236  15.417   1.339
20960SOL    HW211720   8.170  15.543   1.258
20961SOL     OW11721   6.554  13.462   1.675
20961SOL    HW111722   6.629  13.412   1.718
20961SOL    HW211723   6.496  13.502   1.746
20962SOL     OW11724  14.977  10.242   1.073
20962SOL    HW111725  14.973  10.337   1.042
20962SOL    HW211726  15.004  10.184   0.996
20963SOL     OW11727   5.505   6.781   7.664
20963SOL    HW111728   5.525   6.840   7.742
20963SOL    HW211729   5.584   6.723   7.646
20964SOL     OW11730  16.154  16.790   0.764
20964SOL    HW111731  16.145  16.771   0.861
20964SOL    HW211732  16.239  16.749   0.730
20965SOL     OW11733  12.999   2.685   7.113
20965SOL    HW111734  13.084   2.738   7.115
20965SOL    HW211735  13.017   2.597   7.068
20966SOL     OW11736   7.741   7.970   7.232
20966SOL    HW111737   7.832   7.980   7.190
20966SOL    HW211738   7.752   7.940   7.327
20967SOL     OW11739  14.778   6.022   0.557
20967SOL    HW111740  14.772   5.978   0.647
20967SOL    HW211741  14.782   6.121   0.569
20968SOL     OW11742   9.722  11.090   0.762
20968SOL    HW111743   9.694  11.144   0.683
20968SOL    HW211744   9.799  11.032   0.737
20969SOL     OW11745   5.530   8.467   8.132
20969SOL    HW111746   5.508   8.418   8.047
20969SOL    HW211747   5.451   8.523   8.158
20970SOL     OW11748  14.379   5.556   6.876
20970SOL    HW111749  14.351   5.533   6.783
20970SOL    HW211750  14.437   5.483   6.912
20971SOL     OW11751  14.121   9.146   1.061
20971SOL    HW111752  14.104   9.052   1.032
20971SOL    HW211753  14.041   9.181   1.109
20972SOL     OW11754   8.637   0.736   0.967
20972SOL    HW111755   8.729   0.760   0.936
20972SOL    HW211756   8.583   0.703   0.890
20973SOL     OW11757   8.207  14.529   6.832
20973SOL    HW111758   8.211  14.433   6.804
20973SOL    HW211759   8.240  14.538   6.926
20974SOL     OW11760   5.041   2.014   7.674
20974SOL    HW111761   4.974   2.087   7.662
20974SOL    HW211762   4.994   1.925   7.664
20975SOL     OW11763  13.011  11.527   8.435
20975SOL    HW111764  13.021  11.613   8.384
20975SOL    HW211765  12.949  11.542   0.059
20976SOL     OW11766  16.167   0.203   8.160
20976SOL    HW111767  16.101   0.134   8.188
20976SOL    HW211768  16.160   0.219   8.062
20977SOL     OW11769  11.847  12.750   7.694
20977SOL    HW111770  11.940  12.780   7.678
20977SOL    HW211771  11.823  12.766   7.790
20978SOL     OW11772  10.486   3.652   0.003
20978SOL    HW111773  10.548   3.576   8.443
20978SOL    HW211774  10.536   3.731   0.038
20979SOL     OW11775  10.955   0.155   7.776
20979SOL    HW111776  10.952   0.056   7.786
20979SOL    HW211777  10.884   0.197   7.833
20980SOL     OW11778   3.028  11.731   1.292
20980SOL    HW111779   2.978  11.804   1.340
20980SOL    HW211780   3.029  11.752   1.194
20981SOL     OW11781  15.751   5.191   7.982
20981SOL    HW111782  15.794   5.112   8.026
20981SOL    HW211783  15.726   5.259   8.051
20982SOL     OW11784  16.608   1.591   1.117
20982SOL    HW111785  16.544   1.662   1.145
20982SOL    HW211786  16.701   1.627   1.115
20983SOL     OW11787  12.393  11.007   6.393
20983SOL    HW111788  12.320  10.942   6.372
20983SOL    HW211789  12.465  11.000   6.324
20984SOL     OW11790   5.790   4.493   7.806
20984SOL    HW111791   5.734   4.573   7.780
20984SOL    HW211792   5.854   4.519   7.877
20985SOL     OW11793   2.336  15.870   1.956
20985SOL    HW111794   2.435  15.873   1.938
20985SOL    HW211795   2.292  15.949   1.912
20986SOL     OW11796   3.903  16.202   8.094
20986SOL    HW111797   3.805  16.216   8.084
20986SOL    HW211798   3.931  16.227   8.187
20987SOL     OW11799   0.461  11.774   0.794
20987SOL    HW111800   0.402  11.822   0.859
20987SOL    HW211801   0.521  11.839   0.748
20988SOL     OW11802  15.895  10.569   2.182
20988SOL    HW111803  15.886  10.602   2.276
20988SOL    HW211804  15.888  10.469   2.181
20989SOL     OW11805  11.514  16.387   6.752
20989SOL    HW111806  11.435  16.422   6.700
20989SOL    HW211807  11.585  16.457   6.755
20990SOL     OW11808   8.524   6.903   6.226
20990SOL    HW111809   8.573   6.818   6.245
20990SOL    HW211810   8.584   6.965   6.175
20991SOL     OW11811  11.592   8.280   0.156
20991SOL    HW111812  11.666   8.290   0.223
20991SOL    HW211813  11.504   8.291   0.202
20992SOL     OW11814  10.247  16.402   6.884
20992SOL    HW111815  10.280  16.482   6.834
20992SOL    HW211816  10.199  16.341   6.820
20993SOL     OW11817   3.862  10.356   7.200
20993SOL    HW111818   3.805  10.286   7.243
20993SOL    HW211819   3.950  10.316   7.174
20994SOL     OW11820   3.453   8.915   0.174
20994SOL    HW111821   3.393   8.841   0.142
20994SOL    HW211822   3.497   8.958   0.095
20995SOL     OW11823  12.575  13.858   0.464
20995SOL    HW111824  12.539  13.891   0.376
20995SOL    HW211825  12.561  13.927   0.534
20996SOL     OW11826  10.133  13.868   1.699
20996SOL    HW111827  10.123  13.792   1.763
20996SOL    HW211828  10.203  13.846   1.631
20997SOL     OW11829  15.889   3.622   6.819
20997SOL    HW111830  15.810   3.606   6.879
20997SOL    HW211831  15.966   3.566   6.850
20998SOL     OW11832   6.786  12.496   6.759
20998SOL    HW111833   6.731  12.513   6.677
20998SOL    HW211834   6.752  12.551   6.834
20999SOL     OW11835  14.247  11.605   0.770
20999SOL    HW111836  14.153  11.611   0.738
20999SOL    HW211837  14.250  11.554   0.856
21000SOL     OW11838   7.087  10.563   7.261
21000SOL    HW111839   7.156  10.506   7.306
21000SOL    HW211840   7.030  10.607   7.330
21001SOL     OW11841   7.590  11.968   0.115
21001SOL    HW111842   7.606  11.874   0.086
21001SOL    HW211843   7.666  12.026   0.084
21002SOL     OW11844   9.405  14.016   2.076
21002SOL    HW111845   9.345  14.096   2.067
21002SOL    HW211846   9.377  13.961   2.154
21003SOL     OW11847  13.875   5.307   5.977
21003SOL    HW111848  13.848   5.385   6.035
21003SOL    HW211849  13.949   5.336   5.916
21004SOL     OW11850   9.429  11.943   0.391
21004SOL    HW111851   9.460  12.037   0.376
21004SOL    HW211852   9.337  11.932   0.353
21005SOL     OW11853   5.903   2.639   6.551
21005SOL    HW111854   5.850   2.650   6.466
21005SOL    HW211855   5.967   2.564   6.540
21006SOL     OW11856   2.688  13.661   1.355
21006SOL    HW111857   2.708  13.714   1.437
21006SOL    HW211858   2.722  13.568   1.366
21007SOL     OW11859   0.222  13.362   0.894
21007SOL    HW111860   0.148  13.404   0.842
21007SOL    HW211861   0.285  13.316   0.832
21008SOL     OW11862   4.735  11.963   0.015
21008SOL    HW111863   4.767  12.012   0.097
21008SOL    HW211864   4.807  11.901   8.437
21009SOL     OW11865   1.246  10.831   0.789
21009SOL    HW111866   1.161  10.790   0.822
21009SOL    HW211867   1.234  10.930   0.779
21010SOL     OW11868  15.320  12.866   1.073
21010SOL    HW111869  15.234  12.864   1.021
21010SOL    HW211870  15.324  12.950   1.127
21011SOL     OW11871  16.946   7.446   1.080
21011SOL    HW111872  16.931   7.526   1.021
21011SOL    HW211873   0.014   7.474   1.161
21012SOL     OW11874   7.037   9.862   6.561
21012SOL    HW111875   7.103   9.862   6.486
21012SOL    HW211876   7.086   9.869   6.648
21013SOL     OW11877   2.663  14.785   8.319
21013SOL    HW111878   2.571  14.823   8.304
21013SOL    HW211879   2.690  14.732   8.238
21014SOL     OW11880   0.058   0.522   7.401
21014SOL    HW111881   0.102   0.441   7.441
21014SOL    HW211882  16.961   0.546   7.455
21015SOL     OW11883   6.829   8.674   1.644
21015SOL    HW111884   6.870   8.584   1.629
21015SOL    HW211885   6.889   8.728   1.703
21016SOL     OW11886  13.713   7.969   7.859
21016SOL    HW111887  13.757   7.950   7.947
21016SOL    HW211888  13.773   8.025   7.803
21017SOL     OW11889   3.327  10.171   6.955
21017SOL    HW111890   3.357  10.076   6.966
21017SOL    HW211891   3.384  10.217   6.887
21018SOL     OW11892  14.931   5.352   7.785
21018SOL    HW111893  14.943   5.409   7.867
21018SOL    HW211894  14.840   5.312   7.785
21019SOL     OW11895  12.728   0.648   7.079
21019SOL    HW111896  12.747   0.581   7.151
21019SOL    HW211897  12.810   0.703   7.062
21020SOL     OW11898  16.685  12.098   8.110
21020SOL    HW111899  16.739  12.048   8.178
21020SOL    HW211900  16.726  12.086   8.020
21021SOL     OW11901  10.322   8.026   2.267
21021SOL    HW111902  10.420   8.041   2.283
21021SOL    HW211903  10.278   8.002   2.354
21022SOL     OW11904   6.615   3.068   0.525
21022SOL    HW111905   6.623   2.968   0.530
21022SOL    HW211906   6.551   3.093   0.452
21023SOL     OW11907   0.179   9.859   6.621
21023SOL    HW111908   0.177   9.763   6.647
21023SOL    HW211909   0.161   9.915   6.702
21024SOL     OW11910   1.474  13.949   0.618
21024SOL    HW111911   1.561  13.938   0.570
21024SOL    HW211912   1.412  13.875   0.594
21025SOL     OW11913  15.854   0.847   0.575
21025SOL    HW111914  15.900   0.771   0.530
21025SOL    HW211915  15.758   0.824   0.590
21026SOL     OW11916   1.568   3.208   8.277
21026SOL    HW111917   1.649   3.246   8.322
21026SOL    HW211918   1.534   3.131   8.330
21027SOL     OW11919  11.071   4.093   6.578
21027SOL    HW111920  10.981   4.137   6.569
21027SOL    HW211921  11.086   4.034   6.498
21028SOL     OW11922  15.074   6.613   6.727
21028SOL    HW111923  14.998   6.650   6.674
21028SOL    HW211924  15.117   6.538   6.676
21029SOL     OW11925  14.093  13.471   7.793
21029SOL    HW111926  14.150  13.457   7.874
21029SOL    HW211927  14.052  13.563   7.797
21030SOL     OW11928   9.092  13.944   2.153
21030SOL    HW111929   9.043  14.018   2.198
21030SOL    HW211930   9.168  13.914   2.210
21031SOL     OW11931   4.984   5.971   7.808
21031SOL    HW111932   4.950   5.893   7.756
21031SOL    HW211933   5.044   5.940   7.881
21032SOL     OW11934  10.240   2.081   0.676
21032SOL    HW111935  10.186   1.996   0.668
21032SOL    HW211936  10.241   2.110   0.772
21033SOL     OW11937  13.646   3.255   6.506
21033SOL    HW111938  13.690   3.244   6.595
21033SOL    HW211939  13.713   3.286   6.439
21034SOL     OW11940   6.268  16.819   7.299
21034SOL    HW111941   6.316  16.756   7.360
21034SOL    HW211942   6.333  16.864   7.238
21035SOL     OW11943  14.960   0.054   7.987
21035SOL    HW111944  14.972  16.959   7.926
21035SOL    HW211945  15.001   0.033   8.076
21036SOL     OW11946   5.121  15.650   7.869
21036SOL    HW111947   5.171  15.697   7.942
21036SOL    HW211948   5.055  15.587   7.909
21037SOL     OW11949   7.250   4.649   8.405
21037SOL    HW111950   7.236   4.747   8.416
21037SOL    HW211951   7.211   4.601   0.030
21038SOL     OW11952   5.741   6.523   7.394
21038SOL    HW111953   5.822   6.495   7.343
21038SOL    HW211954   5.669   6.549   7.330
21039SOL     OW11955   2.504   0.358   7.583
21039SOL    HW111956   2.420   0.357   7.637
21039SOL    HW211957   2.493   0.421   7.506
21040SOL     OW11958   2.962   6.452   8.097
21040SOL    HW111959   3.019   6.520   8.051
21040SOL    HW211960   2.959   6.368   8.042
21041SOL     OW11961   6.235   8.109   7.591
21041SOL    HW111962   6.169   8.124   7.665
21041SOL    HW211963   6.308   8.049   7.623
21042SOL     OW11964   2.684  15.826   2.312
21042SOL    HW111965   2.658  15.729   2.317
21042SOL    HW211966   2.732  15.852   2.396
21043SOL     OW11967   4.310   8.334   0.455
21043SOL    HW111968   4.293   8.418   0.506
21043SOL    HW211969   4.275   8.256   0.507
21044SOL     OW11970  15.619   9.405   1.671
21044SOL    HW111971  15.649   9.485   1.722
21044SOL    HW211972  15.519   9.404   1.665
21045SOL     OW11973   6.173   5.840   2.153
21045SOL    HW111974   6.118   5.758   2.168
21045SOL    HW211975   6.200   5.880   2.240
21046SOL     OW11976   1.011   7.779   0.662
21046SOL    HW111977   1.072   7.721   0.717
21046SOL    HW211978   1.008   7.870   0.703
21047SOL     OW11979   3.435   0.283   1.530
21047SOL    HW111980   3.378   0.225   1.587
21047SOL    HW211981   3.520   0.305   1.578
21048SOL     OW11982   8.342   1.705   8.119
21048SOL    HW111983   8.369   1.706   8.215
21048SOL    HW211984   8.400   1.768   8.067
21049SOL     OW11985  11.799   2.961   1.327
21049SOL    HW111986  11.789   3.016   1.410
21049SOL    HW211987  11.821   2.866   1.352
21050SOL     OW11988   4.687  10.067   0.416
21050SOL    HW111989   4.621  10.003   0.376
21050SOL    HW211990   4.707  10.139   0.351
21051SOL     OW11991   2.792  13.309   6.628
21051SOL    HW111992   2.700  13.318   6.665
21051SOL    HW211993   2.791  13.248   6.549
21052SOL     OW11994  12.181   2.416   8.073
21052SOL    HW111995  12.279   2.420   8.094
21052SOL    HW211996  12.149   2.322   8.081
21053SOL     OW11997   2.059   1.465   0.913
21053SOL    HW111998   2.132   1.424   0.967
21053SOL    HW211999   2.076   1.563   0.903
21054SOL     OW12000   5.523  16.884   5.967
21054SOL    HW112001   5.428  16.888   5.938
21054SOL    HW212002   5.563  16.976   5.965
21055SOL     OW12003   4.164  13.217   1.891
21055SOL    HW112004   4.198  13.308   1.917
21055SOL    HW212005   4.064  13.220   1.883
21056SOL     OW12006   7.637  10.905   1.049
21056SOL    HW112007   7.611  10.822   1.000
21056SOL    HW212008   7.704  10.883   1.120
21057SOL     OW12009   8.446  10.633   0.020
21057SOL    HW112010   8.492  10.720   0.003
21057SOL    HW212011   8.505  10.575   0.077
21058SOL     OW12012   3.327  12.903   1.680
21058SOL    HW112013   3.417  12.942   1.664
21058SOL    HW212014   3.258  12.956   1.629
21059SOL     OW12015  11.004   9.872   0.925
21059SOL    HW112016  11.094   9.909   0.947
21059SOL    HW212017  11.007   9.827   0.836
21060SOL     OW12018   9.113  10.050   2.072
21060SOL    HW112019   9.196  10.010   2.033
21060SOL    HW212020   9.097  10.011   2.163
21061SOL     OW12021  14.212   8.155   0.389
21061SOL    HW112022  14.204   8.136   0.291
21061SOL    HW212023  14.297   8.204   0.407
21062SOL     OW12024   2.655  12.268   0.401
21062SOL    HW112025   2.644  12.169   0.402
21062SOL    HW212026   2.734  12.293   0.457
21063SOL     OW12027  16.545  16.911   7.687
21063SOL    HW112028  16.552  16.844   7.761
21063SOL    HW212029  16.451  16.943   7.680
21064SOL     OW12030   9.907   5.234   2.136
21064SOL    HW112031   9.850   5.310   2.167
21064SOL    HW212032   9.938   5.181   2.215
21065SOL     OW12033   0.545   3.390   5.811
21065SOL    HW112034   0.511   3.319   5.873
21065SOL    HW212035   0.608   3.450   5.861
21066SOL     OW12036  13.580   4.202   0.112
21066SOL    HW112037  13.539   4.158   0.191
21066SOL    HW212038  13.510   4.252   0.061
21067SOL     OW12039   9.974  14.635   1.704
21067SOL    HW112040   9.991  14.563   1.636
21067SOL    HW212041  10.060  14.664   1.744
21068SOL     OW12042   3.110   1.203   8.344
21068SOL    HW112043   3.195   1.224   8.296
21068SOL    HW212044   3.099   1.104   8.351
21069SOL     OW12045   9.620   7.995   6.688
21069SOL    HW112046   9.641   7.929   6.761
21069SOL    HW212047   9.630   8.088   6.723
21070SOL     OW12048  11.586   1.542   6.258
21070SOL    HW112049  11.519   1.555   6.186
21070SOL    HW212050  11.615   1.446   6.260
21071SOL     OW12051   3.337   2.823   7.826
21071SOL    HW112052   3.254   2.866   7.791
21071SOL    HW212053   3.321   2.790   7.919
21072SOL     OW12054   2.290   0.310   7.205
21072SOL    HW112055   2.294   0.245   7.280
21072SOL    HW212056   2.273   0.261   7.119
21073SOL     OW12057   0.475   8.730   0.252
21073SOL    HW112058   0.413   8.758   0.326
21073SOL    HW212059   0.489   8.631   0.256
21074SOL     OW12060   9.612   6.223   7.005
21074SOL    HW112061   9.517   6.253   7.010
21074SOL    HW212062   9.667   6.278   7.068
21075SOL     OW12063   5.463  13.738   2.181
21075SOL    HW112064   5.371  13.708   2.156
21075SOL    HW212065   5.459  13.829   2.220
21076SOL     OW12066  10.437  16.342   2.053
21076SOL    HW112067  10.496  16.416   2.086
21076SOL    HW212068  10.459  16.257   2.101
21077SOL     OW12069   4.909   5.312   7.162
21077SOL    HW112070   4.988   5.307   7.223
21077SOL    HW212071   4.848   5.385   7.194
21078SOL     OW12072   5.846  11.941   0.976
21078SOL    HW112073   5.926  11.963   0.921
21078SOL    HW212074   5.834  12.010   1.047
21079SOL     OW12075  16.516   4.006   0.973
21079SOL    HW112076  16.540   4.091   1.021
21079SOL    HW212077  16.448   4.026   0.903
21080SOL     OW12078   8.693   1.654   1.156
21080SOL    HW112079   8.683   1.590   1.232
21080SOL    HW212080   8.772   1.713   1.173
21081SOL     OW12081   0.462  13.404   7.814
21081SOL    HW112082   0.418  13.462   7.745
21081SOL    HW212083   0.425  13.312   7.809
21082SOL     OW12084   4.264   9.639   8.382
21082SOL    HW112085   4.307   9.635   0.018
21082SOL    HW212086   4.186   9.702   8.386
21083SOL     OW12087  12.259   8.275   7.311
21083SOL    HW112088  12.291   8.183   7.291
21083SOL    HW212089  12.184   8.271   7.377
21084SOL     OW12090   6.995  10.641   1.709
21084SOL    HW112091   6.902  10.631   1.673
21084SOL    HW212092   7.057  10.666   1.635
21085SOL     OW12093   2.554   5.123   1.578
21085SOL    HW112094   2.553   5.124   1.678
21085SOL    HW212095   2.489   5.053   1.546
21086SOL     OW12096   3.841   3.555   1.359
21086SOL    HW112097   3.841   3.650   1.390
21086SOL    HW212098   3.915   3.541   1.293
21087SOL     OW12099   2.464   2.964   6.447
21087SOL    HW112100   2.380   2.967   6.501
21087SOL    HW212101   2.479   3.053   6.403
21088SOL     OW12102   8.029  16.967   1.008
21088SOL    HW112103   8.026   0.075   0.968
21088SOL    HW212104   8.124  16.942   1.028
21089SOL     OW12105   4.580  14.872   0.636
21089SOL    HW112106   4.517  14.943   0.605
21089SOL    HW212107   4.654  14.914   0.690
21090SOL     OW12108   8.838   9.752   0.225
21090SOL    HW112109   8.853   9.780   0.130
21090SOL    HW212110   8.910   9.690   0.253
21091SOL     OW12111   6.178  15.806   1.070
21091SOL    HW112112   6.131  15.752   1.000
21091SOL    HW212113   6.267  15.765   1.089
21092SOL     OW12114  13.540  12.765   0.427
21092SOL    HW112115  13.471  12.832   0.454
21092SOL    HW212116  13.545  12.763   0.327
21093SOL     OW12117   8.698   2.006   0.821
21093SOL    HW112118   8.798   2.007   0.823
21093SOL    HW212119   8.667   1.985   0.728
21094SOL     OW12120  10.258   8.086   7.841
21094SOL    HW112121  10.253   8.148   7.919
21094SOL    HW212122  10.176   8.096   7.785
21095SOL     OW12123   4.929  14.202   1.663
21095SOL    HW112124   4.980  14.175   1.744
21095SOL    HW212125   4.952  14.142   1.587
21096SOL     OW12126  16.648   0.648   0.377
21096SOL    HW112127  16.748   0.647   0.379
21096SOL    HW212128  16.613   0.575   0.434
21097SOL     OW12129   4.374  14.127   8.169
21097SOL    HW112130   4.470  14.115   8.192
21097SOL    HW212131   4.356  14.087   8.079
21098SOL     OW12132   2.480   1.044   0.463
21098SOL    HW112133   2.405   1.108   0.482
21098SOL    HW212134   2.533   1.030   0.546
21099SOL     OW12135  10.907   5.456   6.186
21099SOL    HW112136  10.980   5.439   6.119
21099SOL    HW212137  10.926   5.404   6.269
21100SOL     OW12138  11.182  10.454   0.312
21100SOL    HW112139  11.148  10.506   0.390
21100SOL    HW212140  11.106  10.432   0.251
21101SOL     OW12141  12.277   4.570   1.084
21101SOL    HW112142  12.223   4.502   1.035
21101SOL    HW212143  12.231   4.596   1.169
21102SOL     OW12144   3.654   9.346   1.645
21102SOL    HW112145   3.584   9.331   1.715
21102SOL    HW212146   3.609   9.365   1.558
21103SOL     OW12147   6.151  10.133   2.041
21103SOL    HW112148   6.089  10.162   2.114
21103SOL    HW212149   6.242  10.169   2.060
21104SOL     OW12150   5.999  11.732   0.363
21104SOL    HW112151   6.086  11.687   0.382
21104SOL    HW212152   5.941  11.671   0.309
21105SOL     OW12153   4.893  12.746   7.637
21105SOL    HW112154   4.832  12.803   7.692
21105SOL    HW212155   4.840  12.699   7.567
21106SOL     OW12156   7.795  10.961   6.312
21106SOL    HW112157   7.834  11.029   6.250
21106SOL    HW212158   7.836  10.872   6.295
21107SOL     OW12159   0.936   6.695   7.781
21107SOL    HW112160   1.031   6.665   7.770
21107SOL    HW212161   0.932   6.794   7.786
21108SOL     OW12162   1.865  10.009   1.065
21108SOL    HW112163   1.897  10.028   0.972
21108SOL    HW212164   1.943   9.996   1.126
21109SOL     OW12165  11.099   0.842   5.976
21109SOL    HW112166  11.168   0.789   5.929
21109SOL    HW212167  11.076   0.798   6.063
21110SOL     OW12168  15.452   7.427   0.053
21110SOL    HW112169  15.489   7.464   8.421
21110SOL    HW212170  15.434   7.329   0.042
21111SOL     OW12171   6.126   2.082   7.008
21111SOL    HW112172   6.080   2.028   7.078
21111SOL    HW212173   6.063   2.101   6.933
21112SOL     OW12174   2.864  12.737   1.371
21112SOL    HW112175   2.779  12.695   1.403
21112SOL    HW212176   2.887  12.700   1.281
21113SOL     OW12177  16.662   5.127   0.555
21113SOL    HW112178  16.727   5.184   0.605
21113SOL    HW212179  16.570   5.163   0.568
21114SOL     OW12180   0.342   3.232   1.620
21114SOL    HW112181   0.281   3.169   1.571
21114SOL    HW212182   0.298   3.321   1.629
21115SOL     OW12183  15.507   1.164   0.136
21115SOL    HW112184  15.439   1.214   0.189
21115SOL    HW212185  15.481   1.067   0.130
21116SOL     OW12186  15.227  11.337   1.989
21116SOL    HW112187  15.317  11.336   2.034
21116SOL    HW212188  15.159  11.371   2.054
21117SOL     OW12189   5.416   1.867   8.022
21117SOL    HW112190   5.394   1.859   7.924
21117SOL    HW212191   5.448   1.959   8.042
21118SOL     OW12192   0.907   3.893   7.613
21118SOL    HW112193   0.963   3.974   7.595
21118SOL    HW212194   0.956   3.811   7.583
21119SOL     OW12195  16.859  12.995   1.785
21119SOL    HW112196  16.942  13.052   1.781
21119SOL    HW212197  16.878  12.906   1.744
21120SOL     OW12198   6.785  10.659   6.627
21120SOL    HW112199   6.823  10.580   6.676
21120SOL    HW212200   6.702  10.691   6.674
21121SOL     OW12201   7.507   7.612   2.211
21121SOL    HW112202   7.414   7.578   2.198
21121SOL    HW212203   7.570   7.535   2.221
21122SOL     OW12204   3.850  10.474   0.063
21122SOL    HW112205   3.907  10.514   8.445
21122SOL    HW212206   3.873  10.377   0.074
21123SOL     OW12207   3.057   0.388   0.488
21123SOL    HW112208   3.106   0.474   0.503
21123SOL    HW212209   2.967   0.393   0.531
21124SOL     OW12210  14.973   7.898   7.128
21124SOL    HW112211  14.876   7.903   7.153
21124SOL    HW212212  15.019   7.982   7.157
21125SOL     OW12213   9.097   0.620   6.199
21125SOL    HW112214   9.178   0.606   6.256
21125SOL    HW212215   9.125   0.631   6.104
21126SOL     OW12216  13.459   6.011   7.945
21126SOL    HW112217  13.399   5.932   7.959
21126SOL    HW212218  13.472   6.059   8.033
21127SOL     OW12219   4.099  11.138   1.627
21127SOL    HW112220   4.074  11.044   1.651
21127SOL    HW212221   4.028  11.177   1.568
21128SOL     OW12222   6.986   0.958   0.832
21128SOL    HW112223   6.943   0.926   0.916
21128SOL    HW212224   6.920   1.009   0.778
21129SOL     OW12225  14.796   6.699   5.755
21129SOL    HW112226  14.779   6.791   5.719
21129SOL    HW212227  14.710   6.662   5.791
21130SOL     OW12228  13.536  15.963   0.105
21130SOL    HW112229  13.452  15.995   0.060
21130SOL    HW212230  13.515  15.883   0.161
21131SOL     OW12231   3.173   9.291   2.310
21131SOL    HW112232   3.129   9.378   2.285
21131SOL    HW212233   3.202   9.294   2.405
21132SOL     OW12234  10.416  11.541   6.273
21132SOL    HW112235  10.360  11.471   6.229
21132SOL    HW212236  10.513  11.517   6.263
21133SOL     OW12237   0.882   6.599   5.884
21133SOL    HW112238   0.956   6.541   5.917
21133SOL    HW212239   0.849   6.563   5.796
21134SOL     OW12240   4.358  13.029   1.947
21134SOL    HW112241   4.277  13.083   1.924
21134SOL    HW212242   4.384  13.047   2.042
21135SOL     OW12243   2.654  10.984   7.473
21135SOL    HW112244   2.636  11.081   7.457
21135SOL    HW212245   2.703  10.946   7.394
21136SOL     OW12246  10.936  16.891   7.176
21136SOL    HW112247  10.853  16.916   7.125
21136SOL    HW212248  10.912  16.873   7.271
21137SOL     OW12249   3.954  14.705   2.544
21137SOL    HW112250   3.936  14.607   2.535
21137SOL    HW212251   3.900  14.742   2.620
21138SOL     OW12252   9.054   9.523   8.237
21138SOL    HW112253   9.098   9.556   8.321
21138SOL    HW212254   9.020   9.431   8.252
21139SOL     OW12255   2.161   0.988   8.271
21139SOL    HW112256   2.182   0.890   8.269
21139SOL    HW212257   2.154   1.018   8.366
21140SOL     OW12258   6.833   7.546   7.830
21140SOL    HW112259   6.826   7.606   7.750
21140SOL    HW212260   6.827   7.451   7.801
21141SOL     OW12261  10.765   5.999   1.191
21141SOL    HW112262  10.761   6.043   1.280
21141SOL    HW212263  10.835   5.928   1.191
21142SOL     OW12264   3.569  14.522   0.252
21142SOL    HW112265   3.554  14.597   0.188
21142SOL    HW212266   3.627  14.553   0.328
21143SOL     OW12267   2.273  16.587   0.705
21143SOL    HW112268   2.234  16.665   0.754
21143SOL    HW212269   2.370  16.580   0.728
21144SOL     OW12270   1.292  15.342   0.450
21144SOL    HW112271   1.308  15.426   0.501
21144SOL    HW212272   1.328  15.264   0.502
21145SOL     OW12273  11.519   3.668   1.018
21145SOL    HW112274  11.429   3.704   0.991
21145SOL    HW212275  11.507   3.595   1.085
21146SOL     OW12276   7.586   5.275   0.645
21146SOL    HW112277   7.536   5.193   0.673
21146SOL    HW212278   7.523   5.343   0.610
21147SOL     OW12279   2.390   7.892   6.474
21147SOL    HW112280   2.313   7.856   6.420
21147SOL    HW212281   2.470   7.834   6.461
21148SOL     OW12282   4.239  13.793   0.923
21148SOL    HW112283   4.194  13.777   0.835
21148SOL    HW212284   4.176  13.838   0.986
21149SOL     OW12285  12.034  11.699   1.036
21149SOL    HW112286  12.123  11.733   1.066
21149SOL    HW212287  12.005  11.748   0.954
21150SOL     OW12288   2.235   4.666   7.963
21150SOL    HW112289   2.234   4.737   8.034
21150SOL    HW212290   2.143   4.628   7.954
21151SOL     OW12291  13.219   5.500   0.152
21151SOL    HW112292  13.124   5.510   0.183
21151SOL    HW212293  13.279   5.500   0.232
21152SOL     OW12294   5.940   5.778   7.259
21152SOL    HW112295   5.914   5.772   7.163
21152SOL    HW212296   5.984   5.865   7.277
21153SOL     OW12297   6.201  14.006   6.197
21153SOL    HW112298   6.117  14.004   6.143
21153SOL    HW212299   6.269  14.064   6.152
21154SOL     OW12300  15.098   0.708   7.583
21154SOL    HW112301  15.178   0.754   7.545
21154SOL    HW212302  15.116   0.685   7.679
21155SOL     OW12303   8.482   3.492   6.340
21155SOL    HW112304   8.430   3.569   6.302
21155SOL    HW212305   8.461   3.409   6.288
21156SOL     OW12306  12.820  16.346   8.150
21156SOL    HW112307  12.860  16.288   8.220
21156SOL    HW212308  12.787  16.431   8.192
21157SOL     OW12309   4.864  11.188   0.566
21157SOL    HW112310   4.920  11.223   0.640
21157SOL    HW212311   4.811  11.109   0.598
21158SOL     OW12312   3.437   4.755   7.302
21158SOL    HW112313   3.423   4.674   7.245
21158SOL    HW212314   3.374   4.827   7.273
21159SOL     OW12315   7.277  14.057   7.532
21159SOL    HW112316   7.193  14.036   7.583
21159SOL    HW212317   7.356  14.051   7.594
21160SOL     OW12318  14.469   6.692   8.083
21160SOL    HW112319  14.380   6.738   8.091
21160SOL    HW212320  14.472   6.642   7.997
21161SOL     OW12321   8.878   2.185   6.919
21161SOL    HW112322   8.958   2.227   6.963
21161SOL    HW212323   8.808   2.255   6.904
21162SOL     OW12324   3.674  10.461   2.223
21162SOL    HW112325   3.620  10.523   2.278
21162SOL    HW212326   3.760  10.441   2.270
21163SOL     OW12327   2.424  16.698   7.274
21163SOL    HW112328   2.511  16.730   7.312
21163SOL    HW212329   2.436  16.680   7.176
21164SOL     OW12330   8.648   6.679   6.717
21164SOL    HW112331   8.592   6.596   6.723
21164SOL    HW212332   8.740   6.659   6.752
21165SOL     OW12333  15.591  11.932   1.900
21165SOL    HW112334  15.511  11.984   1.932
21165SOL    HW212335  15.565  11.837   1.885
21166SOL     OW12336  10.543  14.850   1.279
21166SOL    HW112337  10.484  14.901   1.216
21166SOL    HW212338  10.626  14.822   1.231
21167SOL     OW12339  14.310   5.691   1.015
21167SOL    HW112340  14.242   5.631   0.973
21167SOL    HW212341  14.383   5.711   0.950
21168SOL     OW12342  16.341  11.701   0.797
21168SOL    HW112343  16.265  11.691   0.860
21168SOL    HW212344  16.427  11.685   0.845
21169SOL     OW12345   3.485   8.989   1.267
21169SOL    HW112346   3.433   9.073   1.283
21169SOL    HW212347   3.555   8.979   1.338
21170SOL     OW12348   7.294  14.988   1.649
21170SOL    HW112349   7.209  14.980   1.700
21170SOL    HW212350   7.298  15.079   1.607
21171SOL     OW12351   9.440  10.157   6.588
21171SOL    HW112352   9.464  10.253   6.576
21171SOL    HW212353   9.447  10.109   6.501
21172SOL     OW12354   3.491   2.389   0.297
21172SOL    HW112355   3.428   2.382   0.220
21172SOL    HW212356   3.459   2.460   0.360
21173SOL     OW12357  12.011  16.705   8.272
21173SOL    HW112358  12.083  16.640   8.249
21173SOL    HW212359  11.922  16.664   8.251
21174SOL     OW12360   9.765   3.637   1.532
21174SOL    HW112361   9.779   3.685   1.619
21174SOL    HW212362   9.744   3.703   1.460
21175SOL     OW12363   6.315   3.898   0.689
21175SOL    HW112364   6.235   3.852   0.726
21175SOL    HW212365   6.349   3.849   0.609
21176SOL     OW12366  14.414  15.998   0.263
21176SOL    HW112367  14.424  16.042   0.174
21176SOL    HW212368  14.392  15.902   0.251
21177SOL     OW12369  11.100  14.990   1.338
21177SOL    HW112370  11.122  15.041   1.254
21177SOL    HW212371  11.003  14.997   1.357
21178SOL     OW12372  10.774   2.015   0.866
21178SOL    HW112373  10.846   1.946   0.856
21178SOL    HW212374  10.688   1.978   0.832
21179SOL     OW12375   1.477  14.099   7.440
21179SOL    HW112376   1.551  14.165   7.427
21179SOL    HW212377   1.429  14.086   7.353
21180SOL     OW12378  12.661   8.360   7.243
21180SOL    HW112379  12.669   8.260   7.239
21180SOL    HW212380  12.671   8.390   7.338
21181SOL     OW12381   3.899   4.870   0.480
21181SOL    HW112382   3.873   4.844   0.573
21181SOL    HW212383   3.998   4.880   0.475
21182SOL     OW12384  16.635   3.932   7.878
21182SOL    HW112385  16.728   3.902   7.857
21182SOL    HW212386  16.603   3.885   7.961
21183SOL     OW12387   3.058   3.500   6.988
21183SOL    HW112388   3.025   3.531   6.899
21183SOL    HW212389   3.040   3.402   6.998
21184SOL     OW12390   2.779  10.048   1.845
21184SOL    HW112391   2.759   9.950   1.844
21184SOL    HW212392   2.775  10.084   1.752
21185SOL     OW12393   9.896  11.634   1.569
21185SOL    HW112394   9.890  11.575   1.650
21185SOL    HW212395   9.808  11.634   1.522
21186SOL     OW12396   5.853  14.495   7.326
21186SOL    HW112397   5.947  14.478   7.295
21186SOL    HW212398   5.806  14.408   7.339
21187SOL     OW12399   8.473   7.692   7.472
21187SOL    HW112400   8.530   7.733   7.544
21187SOL    HW212401   8.497   7.595   7.462
21188SOL     OW12402   9.805  14.042   2.335
21188SOL    HW112403   9.826  14.117   2.398
21188SOL    HW212404   9.872  14.040   2.262
21189SOL     OW12405  15.045   4.383   1.308
21189SOL    HW112406  14.994   4.300   1.289
21189SOL    HW212407  15.077   4.383   1.403
21190SOL     OW12408   7.477  14.564   0.115
21190SOL    HW112409   7.459  14.480   0.167
21190SOL    HW212410   7.479  14.543   0.017
21191SOL     OW12411  10.584   8.442   7.467
21191SOL    HW112412  10.501   8.430   7.411
21191SOL    HW212413  10.662   8.403   7.419
21192SOL     OW12414  13.715   0.452   7.422
21192SOL    HW112415  13.759   0.389   7.358
21192SOL    HW212416  13.784   0.506   7.469
21193SOL     OW12417  11.547   7.301   0.910
21193SOL    HW112418  11.496   7.284   0.825
21193SOL    HW212419  11.514   7.385   0.952
21194SOL     OW12420  12.713   2.755   6.074
21194SOL    HW112421  12.636   2.732   6.015
21194SOL    HW212422  12.759   2.672   6.105
21195SOL     OW12423  15.309  13.430   6.974
21195SOL    HW112424  15.299  13.395   6.881
21195SOL    HW212425  15.363  13.515   6.972
21196SOL     OW12426  14.839  15.861   0.885
21196SOL    HW112427  14.789  15.796   0.827
21196SOL    HW212428  14.809  15.954   0.865
21197SOL     OW12429  14.749  10.670   1.625
21197SOL    HW112430  14.814  10.714   1.563
21197SOL    HW212431  14.795  10.596   1.674
21198SOL     OW12432   1.565   7.608   0.468
21198SOL    HW112433   1.600   7.518   0.443
21198SOL    HW212434   1.508   7.601   0.550
21199SOL     OW12435   5.048  16.211   0.134
21199SOL    HW112436   5.052  16.120   0.175
21199SOL    HW212437   4.962  16.254   0.160
21200SOL     OW12438   0.590   9.893   7.384
21200SOL    HW112439   0.648   9.957   7.435
21200SOL    HW212440   0.646   9.844   7.317
21201SOL     OW12441   0.107   7.136   6.361
21201SOL    HW112442   0.161   7.181   6.433
21201SOL    HW212443   0.093   7.200   6.286
21202SOL     OW12444   5.982  15.082   8.102
21202SOL    HW112445   6.067  15.032   8.123
21202SOL    HW212446   5.967  15.082   8.003
21203SOL     OW12447   2.176   8.000   7.850
21203SOL    HW112448   2.199   8.056   7.929
21203SOL    HW212449   2.251   7.936   7.832
21204SOL     OW12450  15.330   2.421   5.910
21204SOL    HW112451  15.278   2.370   5.980
21204SOL    HW212452  15.266   2.463   5.845
21205SOL     OW12453   2.670  13.748   7.957
21205SOL    HW112454   2.637  13.670   8.011
21205SOL    HW212455   2.655  13.730   7.860
21206SOL     OW12456  13.132  13.654   6.912
21206SOL    HW112457  13.168  13.690   6.826
21206SOL    HW212458  13.173  13.565   6.931
21207SOL     OW12459   1.523  14.883   0.141
21207SOL    HW112460   1.437  14.923   0.171
21207SOL    HW212461   1.555  14.930   0.059
21208SOL     OW12462  15.053   0.601   0.188
21208SOL    HW112463  15.111   0.682   0.200
21208SOL    HW212464  15.109   0.524   0.159
21209SOL     OW12465   8.329  12.991   7.788
21209SOL    HW112466   8.344  12.959   7.881
21209SOL    HW212467   8.283  12.919   7.735
21210SOL     OW12468  14.526  14.532   1.108
21210SOL    HW112469  14.499  14.453   1.052
21210SOL    HW212470  14.460  14.605   1.096
21211SOL     OW12471  12.780   7.020   7.250
21211SOL    HW112472  12.876   7.004   7.269
21211SOL    HW212473  12.770   7.100   7.191
21212SOL     OW12474   1.376   6.935   0.474
21212SOL    HW112475   1.447   6.867   0.493
21212SOL    HW212476   1.286   6.898   0.498
21213SOL     OW12477   9.119   1.471   8.020
21213SOL    HW112478   9.032   1.505   7.984
21213SOL    HW212479   9.189   1.541   8.008
21214SOL     OW12480  16.316   7.087   1.396
21214SOL    HW112481  16.353   7.157   1.458
21214SOL    HW212482  16.378   7.009   1.394
21215SOL     OW12483   6.467  10.958   0.759
21215SOL    HW112484   6.396  11.010   0.710
21215SOL    HW212485   6.460  10.861   0.735
21216SOL     OW12486   7.810   3.338   6.965
21216SOL    HW112487   7.856   3.371   6.883
21216SOL    HW212488   7.823   3.239   6.973
21217SOL     OW12489  11.189   2.463   5.941
21217SOL    HW112490  11.279   2.493   5.909
21217SOL    HW212491  11.166   2.376   5.898
21218SOL     OW12492   6.887   0.002   6.630
21218SOL    HW112493   6.928  16.979   6.721
21218SOL    HW212494   6.871  16.894   6.594
21219SOL     OW12495   7.161   2.683   0.150
21219SOL    HW112496   7.095   2.613   0.122
21219SOL    HW212497   7.122   2.774   0.133
21220SOL     OW12498  14.800   8.123   6.704
21220SOL    HW112499  14.714   8.088   6.742
21220SOL    HW212500  14.817   8.080   6.616
21221SOL     OW12501  14.599   4.126   2.186
21221SOL    HW112502  14.682   4.121   2.131
21221SOL    HW212503  14.564   4.220   2.185
21222SOL     OW12504   8.377  11.146   8.379
21222SOL    HW112505   8.475  11.158   8.363
21222SOL    HW212506   8.364  11.109   0.017
21223SOL     OW12507   6.556   3.068   7.458
21223SOL    HW112508   6.643   3.034   7.493
21223SOL    HW212509   6.531   3.017   7.376
21224SOL     OW12510  12.500  12.623   8.119
21224SOL    HW112511  12.460  12.714   8.107
21224SOL    HW212512  12.436  12.565   8.170
21225SOL     OW12513   2.171  10.147   0.916
21225SOL    HW112514   2.211  10.236   0.896
21225SOL    HW212515   2.079  10.141   0.876
21226SOL     OW12516  16.228  16.839   7.856
21226SOL    HW112517  16.254  16.908   7.788
21226SOL    HW212518  16.150  16.873   7.909
21227SOL     OW12519  15.695   0.946   7.395
21227SOL    HW112520  15.644   0.860   7.404
21227SOL    HW212521  15.787   0.927   7.361
21228SOL     OW12522   7.209  10.892   0.392
21228SOL    HW112523   7.219  10.793   0.383
21228SOL    HW212524   7.113  10.914   0.406
21229SOL     OW12525  14.595   1.865   0.341
21229SOL    HW112526  14.512   1.909   0.373
21229SOL    HW212527  14.674   1.923   0.361
21230SOL     OW12528   8.108   6.441   7.595
21230SOL    HW112529   8.146   6.352   7.620
21230SOL    HW212530   8.072   6.486   7.676
21231SOL     OW12531  10.881  15.657   1.830
21231SOL    HW112532  10.975  15.667   1.864
21231SOL    HW212533  10.850  15.564   1.846
21232SOL     OW12534  11.935   3.929   6.877
21232SOL    HW112535  11.941   3.990   6.957
21232SOL    HW212536  11.941   3.834   6.907
21233SOL     OW12537   3.557   9.994   0.803
21233SOL    HW112538   3.619   9.915   0.808
21233SOL    HW212539   3.463   9.961   0.793
21234SOL     OW12540   6.514  16.391   0.061
21234SOL    HW112541   6.516  16.312   0.121
21234SOL    HW212542   6.564  16.467   0.103
21235SOL     OW12543  15.012  12.999   6.873
21235SOL    HW112544  15.048  13.070   6.934
21235SOL    HW212545  14.931  13.034   6.826
21236SOL     OW12546   7.873   5.017   1.199
21236SOL    HW112547   7.911   4.943   1.144
21236SOL    HW212548   7.912   5.016   1.291
21237SOL     OW12549  14.249   9.166   7.619
21237SOL    HW112550  14.305   9.221   7.681
21237SOL    HW212551  14.232   9.217   7.535
21238SOL     OW12552   6.719   0.173   0.411
21238SOL    HW112553   6.663   0.128   0.481
21238SOL    HW212554   6.670   0.253   0.376
21239SOL     OW12555   1.855   3.724   0.078
21239SOL    HW112556   1.820   3.688   8.445
21239SOL    HW212557   1.926   3.663   0.113
21240SOL     OW12558  16.331  13.660   8.410
21240SOL    HW112559  16.319  13.563   8.390
21240SOL    HW212560  16.369  13.670   0.048
21241SOL     OW12561   7.414   2.757   1.303
21241SOL    HW112562   7.408   2.853   1.330
21241SOL    HW212563   7.427   2.701   1.385
21242SOL     OW12564   3.886   9.571   7.354
21242SOL    HW112565   3.788   9.593   7.358
21242SOL    HW212566   3.898   9.482   7.310
21243SOL     OW12567   4.862   5.049   7.120
21243SOL    HW112568   4.879   5.146   7.141
21243SOL    HW212569   4.924   5.020   7.047
21244SOL     OW12570   9.989   8.828   6.239
21244SOL    HW112571   9.939   8.766   6.299
21244SOL    HW212572   9.971   8.922   6.266
21245SOL     OW12573   6.114   1.381   7.522
21245SOL    HW112574   6.092   1.426   7.436
21245SOL    HW212575   6.048   1.408   7.592
21246SOL     OW12576   4.843   0.761   7.765
21246SOL    HW112577   4.863   0.773   7.668
21246SOL    HW212578   4.842   0.664   7.787
21247SOL     OW12579  10.012  13.486   0.540
21247SOL    HW112580  10.076  13.466   0.614
21247SOL    HW212581   9.998  13.585   0.533
21248SOL     OW12582   2.921  11.679   1.654
21248SOL    HW112583   2.832  11.723   1.667
21248SOL    HW212584   2.917  11.619   1.574
21249SOL     OW12585  12.011   4.353   7.792
21249SOL    HW112586  11.956   4.271   7.807
21249SOL    HW212587  12.017   4.405   7.877
21250SOL     OW12588  15.850   8.287   1.373
21250SOL    HW112589  15.947   8.287   1.398
21250SOL    HW212590  15.817   8.193   1.366
21251SOL     OW12591  15.855   5.919   1.501
21251SOL    HW112592  15.935   5.906   1.559
21251SOL    HW212593  15.822   5.830   1.469
21252SOL     OW12594   7.347   9.402   8.232
21252SOL    HW112595   7.337   9.484   8.288
21252SOL    HW212596   7.444   9.383   8.217
21253SOL     OW12597   5.305  14.616   0.742
21253SOL    HW112598   5.362  14.537   0.724
21253SOL    HW212599   5.273  14.655   0.655
21254SOL     OW12600  12.529  11.953   0.217
21254SOL    HW112601  12.443  11.966   0.266
21254SOL    HW212602  12.606  11.981   0.276
21255SOL     OW12603  13.861   1.155   7.760
21255SOL    HW112604  13.930   1.181   7.828
21255SOL    HW212605  13.890   1.073   7.712
21256SOL     OW12606   5.039   6.816   6.686
21256SOL    HW112607   5.048   6.763   6.770
21256SOL    HW212608   5.018   6.911   6.709
21257SOL     OW12609   5.756   1.851   0.301
21257SOL    HW112610   5.839   1.902   0.282
21257SOL    HW212611   5.771   1.754   0.282
21258SOL     OW12612  15.671   6.798   6.194
21258SOL    HW112613  15.726   6.873   6.232
21258SOL    HW212614  15.655   6.814   6.097
21259SOL     OW12615  10.922   7.566   6.814
21259SOL    HW112616  10.970   7.478   6.805
21259SOL    HW212617  10.989   7.640   6.815
21260SOL     OW12618  14.098  10.699   7.518
21260SOL    HW112619  14.099  10.658   7.610
21260SOL    HW212620  14.052  10.788   7.522
21261SOL     OW12621   7.157  12.205   1.037
21261SOL    HW112622   7.163  12.270   1.113
21261SOL    HW212623   7.090  12.134   1.058
21262SOL     OW12624   5.149   4.202   6.719
21262SOL    HW112625   5.156   4.114   6.672
21262SOL    HW212626   5.231   4.218   6.773
21263SOL     OW12627   2.346  10.117   8.068
21263SOL    HW112628   2.425  10.057   8.058
21263SOL    HW212629   2.360  10.200   8.015
21264SOL     OW12630   3.987   9.687   8.183
21264SOL    HW112631   3.970   9.784   8.200
21264SOL    HW212632   3.939   9.632   8.251
21265SOL     OW12633   6.402   6.011   7.916
21265SOL    HW112634   6.315   5.995   7.962
21265SOL    HW212635   6.408   6.108   7.889
21266SOL     OW12636   5.861  13.712   7.128
21266SOL    HW112637   5.883  13.617   7.103
21266SOL    HW212638   5.874  13.771   7.048
21267SOL     OW12639   3.323  12.015   1.692
21267SOL    HW112640   3.277  11.927   1.682
21267SOL    HW212641   3.260  12.082   1.731
21268SOL     OW12642   2.755  15.576   7.801
21268SOL    HW112643   2.689  15.510   7.838
21268SOL    HW212644   2.745  15.579   7.701
21269SOL     OW12645   5.470   1.796   8.281
21269SOL    HW112646   5.566   1.819   8.299
21269SOL    HW212647   5.446   1.822   8.188
21270SOL     OW12648  16.770   2.476   1.269
21270SOL    HW112649  16.679   2.463   1.230
21270SOL    HW212650  16.766   2.459   1.368
21271SOL     OW12651   4.463  14.172   7.171
21271SOL    HW112652   4.364  14.181   7.160
21271SOL    HW212653   4.500  14.118   7.095
21272SOL     OW12654   4.998  10.233   0.506
21272SOL    HW112655   5.000  10.266   0.600
21272SOL    HW212656   4.914  10.181   0.491
21273SOL     OW12657  16.495   8.018   1.355
21273SOL    HW112658  16.532   8.100   1.313
21273SOL    HW212659  16.568   7.967   1.400
21274SOL     OW12660   7.023   5.152   1.094
21274SOL    HW112661   7.053   5.148   1.190
21274SOL    HW212662   6.931   5.191   1.089
21275SOL     OW12663   3.926   2.465   2.031
21275SOL    HW112664   3.913   2.505   1.940
21275SOL    HW212665   3.856   2.397   2.048
21276SOL     OW12666   7.989   1.808   7.791
21276SOL    HW112667   8.064   1.857   7.747
21276SOL    HW212668   7.907   1.865   7.792
21277SOL     OW12669   0.541   0.964   6.789
21277SOL    HW112670   0.501   1.056   6.790
21277SOL    HW212671   0.556   0.935   6.695
21278SOL     OW12672  13.859  16.463   8.327
21278SOL    HW112673  13.920  16.459   8.406
21278SOL    HW212674  13.805  16.547   8.330
21279SOL     OW12675   8.064   4.747   6.631
21279SOL    HW112676   8.050   4.649   6.634
21279SOL    HW212677   7.980   4.793   6.602
21280SOL     OW12678   4.926   4.966   0.104
21280SOL    HW112679   4.932   4.922   0.014
21280SOL    HW212680   5.007   4.943   0.157
21281SOL     OW12681   5.987   0.224   7.191
21281SOL    HW112682   5.906   0.188   7.237
21281SOL    HW212683   5.993   0.185   7.099
21282SOL     OW12684   4.787  11.770   6.635
21282SOL    HW112685   4.849  11.772   6.556
21282SOL    HW212686   4.835  11.807   6.715
21283SOL     OW12687   2.903   3.337   0.913
21283SOL    HW112688   2.978   3.393   0.878
21283SOL    HW212689   2.858   3.386   0.988
21284SOL     OW12690  12.083  13.712   1.099
21284SOL    HW112691  12.125  13.799   1.075
21284SOL    HW212692  12.154  13.647   1.126
21285SOL     OW12693   6.145   8.305   1.256
21285SOL    HW112694   6.233   8.269   1.286
21285SOL    HW212695   6.087   8.324   1.335
21286SOL     OW12696   3.046   5.649   0.916
21286SOL    HW112697   3.057   5.696   0.828
21286SOL    HW212698   3.114   5.576   0.923
21287SOL     OW12699  14.726   5.614   0.021
21287SOL    HW112700  14.744   5.524   8.434
21287SOL    HW212701  14.711   5.681   8.402
21288SOL     OW12702  11.618  15.195   0.365
21288SOL    HW112703  11.684  15.127   0.395
21288SOL    HW212704  11.551  15.211   0.438
21289SOL     OW12705  11.375  11.765   0.740
21289SOL    HW112706  11.428  11.687   0.772
21289SOL    HW212707  11.412  11.798   0.653
21290SOL     OW12708   5.115   6.860   6.282
21290SOL    HW112709   5.193   6.874   6.343
21290SOL    HW212710   5.145   6.874   6.187
21291SOL     OW12711   0.845   3.317   7.731
21291SOL    HW112712   0.751   3.286   7.725
21291SOL    HW212713   0.848   3.417   7.731
21292SOL     OW12714   5.092   6.661   7.212
21292SOL    HW112715   5.104   6.562   7.200
21292SOL    HW212716   5.178   6.702   7.241
21293SOL     OW12717  10.881  16.091   7.907
21293SOL    HW112718  10.918  16.125   7.821
21293SOL    HW212719  10.939  16.121   7.983
21294SOL     OW12720   1.733   4.942   7.878
21294SOL    HW112721   1.635   4.942   7.858
21294SOL    HW212722   1.768   5.035   7.874
21295SOL     OW12723   8.745   7.594   1.570
21295SOL    HW112724   8.820   7.656   1.544
21295SOL    HW212725   8.774   7.536   1.646
21296SOL     OW12726  11.150  15.810   0.996
21296SOL    HW112727  11.064  15.788   1.044
21296SOL    HW212728  11.173  15.905   1.013
21297SOL     OW12729   4.307  11.318   7.340
21297SOL    HW112730   4.356  11.246   7.389
21297SOL    HW212731   4.336  11.407   7.375
21298SOL     OW12732  13.607  13.846   1.263
21298SOL    HW112733  13.674  13.882   1.198
21298SOL    HW212734  13.529  13.908   1.270
21299SOL     OW12735   3.946   1.767   7.248
21299SOL    HW112736   3.863   1.766   7.304
21299SOL    HW212737   3.963   1.860   7.216
21300SOL     OW12738   2.400   7.955   6.956
21300SOL    HW112739   2.382   7.897   7.035
21300SOL    HW212740   2.375   7.905   6.872
21301SOL     OW12741   2.562   5.610   8.176
21301SOL    HW112742   2.464   5.591   8.187
21301SOL    HW212743   2.610   5.524   8.160
21302SOL     OW12744   4.791  12.736   7.090
21302SOL    HW112745   4.843  12.782   7.018
21302SOL    HW212746   4.849  12.722   7.170
21303SOL     OW12747  15.036  14.402   7.845
21303SOL    HW112748  15.079  14.318   7.878
21303SOL    HW212749  15.037  14.403   7.745
21304SOL     OW12750   2.261   6.052   1.579
21304SOL    HW112751   2.294   6.072   1.672
21304SOL    HW212752   2.179   5.996   1.585
21305SOL     OW12753   2.991  14.337   6.825
21305SOL    HW112754   2.905  14.388   6.825
21305SOL    HW212755   3.026  14.331   6.732
21306SOL     OW12756   7.327  16.753   1.859
21306SOL    HW112757   7.259  16.808   1.909
21306SOL    HW212758   7.383  16.702   1.924
21307SOL     OW12759  14.151  14.592   8.318
21307SOL    HW112760  14.083  14.651   8.276
21307SOL    HW212761  14.212  14.555   8.248
21308SOL     OW12762  14.069   6.036   6.549
21308SOL    HW112763  14.095   5.950   6.505
21308SOL    HW212764  14.151   6.088   6.573
21309SOL     OW12765   4.861   8.184   7.440
21309SOL    HW112766   4.770   8.198   7.402
21309SOL    HW212767   4.862   8.212   7.537
21310SOL     OW12768   1.960   9.946   0.206
21310SOL    HW112769   1.994   9.861   0.166
21310SOL    HW212770   1.938   9.931   0.303
21311SOL     OW12771  16.135   4.423   0.573
21311SOL    HW112772  16.189   4.477   0.638
21311SOL    HW212773  16.165   4.443   0.480
21312SOL     OW12774   1.998   4.493   7.474
21312SOL    HW112775   1.949   4.427   7.417
21312SOL    HW212776   2.060   4.546   7.417
21313SOL     OW12777  13.998   9.049   7.314
21313SOL    HW112778  13.917   9.106   7.298
21313SOL    HW212779  14.077   9.089   7.267
21314SOL     OW12780   4.802   2.772   7.126
21314SOL    HW112781   4.731   2.838   7.148
21314SOL    HW212782   4.761   2.693   7.080
21315SOL     OW12783   9.244  13.653   7.125
21315SOL    HW112784   9.220  13.729   7.064
21315SOL    HW212785   9.177  13.647   7.198
21316SOL     OW12786  10.671   6.376   0.775
21316SOL    HW112787  10.724   6.325   0.843
21316SOL    HW212788  10.687   6.474   0.787
21317SOL     OW12789   3.000  16.422   6.537
21317SOL    HW112790   3.079  16.430   6.476
21317SOL    HW212791   2.917  16.448   6.488
21318SOL     OW12792   8.625   1.393   6.934
21318SOL    HW112793   8.561   1.374   6.860
21318SOL    HW212794   8.580   1.446   7.005
21319SOL     OW12795   2.737  12.783   8.194
21319SOL    HW112796   2.662  12.776   8.128
21319SOL    HW212797   2.702  12.769   8.287
21320SOL     OW12798   1.805  14.060   1.144
21320SOL    HW112799   1.833  14.096   1.055
21320SOL    HW212800   1.872  13.992   1.175
21321SOL     OW12801  12.738   4.780   6.746
21321SOL    HW112802  12.736   4.826   6.657
21321SOL    HW212803  12.825   4.734   6.758
21322SOL     OW12804   3.214   0.962   0.601
21322SOL    HW112805   3.246   0.917   0.517
21322SOL    HW212806   3.283   0.952   0.673
21323SOL     OW12807   1.794  13.638   1.865
21323SOL    HW112808   1.815  13.562   1.804
21323SOL    HW212809   1.708  13.681   1.836
21324SOL     OW12810   0.912   4.932   8.449
21324SOL    HW112811   0.954   5.020   8.428
21324SOL    HW212812   0.978   4.873   0.041
21325SOL     OW12813  10.172   2.787   0.753
21325SOL    HW112814  10.073   2.791   0.770
21325SOL    HW212815  10.192   2.835   0.667
21326SOL     OW12816   0.986  11.818   2.000
21326SOL    HW112817   1.029  11.864   1.922
21326SOL    HW212818   0.927  11.882   2.048
21327SOL     OW12819   9.295   3.432   7.618
21327SOL    HW112820   9.386   3.417   7.657
21327SOL    HW212821   9.237   3.353   7.638
21328SOL     OW12822  14.999  14.547   0.337
21328SOL    HW112823  15.008  14.463   0.283
21328SOL    HW212824  14.903  14.565   0.357
21329SOL     OW12825  11.026   4.979   0.765
21329SOL    HW112826  11.068   4.913   0.828
21329SOL    HW212827  10.989   5.056   0.818
21330SOL     OW12828   8.911   5.026   7.722
21330SOL    HW112829   8.913   5.064   7.629
21330SOL    HW212830   8.873   5.094   7.785
21331SOL     OW12831  10.765   3.312   7.390
21331SOL    HW112832  10.852   3.261   7.397
21331SOL    HW212833  10.749   3.338   7.295
21332SOL     OW12834   3.840   0.055   0.038
21332SOL    HW112835   3.859   0.151   0.060
21332SOL    HW212836   3.781   0.050   8.411
21333SOL     OW12837  15.309  16.164   1.405
21333SOL    HW112838  15.339  16.231   1.473
21333SOL    HW212839  15.387  16.139   1.347
21334SOL     OW12840   8.494  12.664   7.702
21334SOL    HW112841   8.507  12.630   7.795
21334SOL    HW212842   8.400  12.695   7.691
21335SOL     OW12843   2.369  14.371   2.296
21335SOL    HW112844   2.355  14.413   2.385
21335SOL    HW212845   2.307  14.294   2.284
21336SOL     OW12846   0.028   8.489   7.220
21336SOL    HW112847   0.091   8.412   7.220
21336SOL    HW212848  16.928   8.466   7.271
21337SOL     OW12849   0.370   9.950   7.000
21337SOL    HW112850   0.416   9.998   7.074
21337SOL    HW212851   0.432   9.880   6.962
21338SOL     OW12852   9.242   9.012   0.795
21338SOL    HW112853   9.306   8.937   0.780
21338SOL    HW212854   9.151   8.976   0.812
21339SOL     OW12855  13.940   7.804   0.932
21339SOL    HW112856  13.946   7.871   0.859
21339SOL    HW212857  13.844   7.776   0.944
21340SOL     OW12858  14.344  15.823   7.058
21340SOL    HW112859  14.380  15.737   7.094
21340SOL    HW212860  14.297  15.873   7.131
21341SOL     OW12861   7.343   3.908   7.947
21341SOL    HW112862   7.347   3.869   7.855
21341SOL    HW212863   7.368   4.005   7.943
21342SOL     OW12864   5.235  15.529   0.002
21342SOL    HW112865   5.166  15.476   0.053
21342SOL    HW212866   5.299  15.570   0.067
21343SOL     OW12867   1.068   6.906   6.071
21343SOL    HW112868   1.143   6.938   6.013
21343SOL    HW212869   0.981   6.933   6.029
21344SOL     OW12870   4.886   2.190   1.372
21344SOL    HW112871   4.820   2.166   1.301
21344SOL    HW212872   4.873   2.131   1.452
21345SOL     OW12873   6.302   7.052   0.617
21345SOL    HW112874   6.244   7.026   0.694
21345SOL    HW212875   6.308   6.975   0.553
21346SOL     OW12876  13.867  15.103   7.057
21346SOL    HW112877  13.788  15.062   7.102
21346SOL    HW212878  13.951  15.064   7.094
21347SOL     OW12879  16.138  14.610   0.238
21347SOL    HW112880  16.133  14.605   0.338
21347SOL    HW212881  16.168  14.701   0.210
21348SOL     OW12882   6.646   4.153   0.818
21348SOL    HW112883   6.657   4.144   0.719
21348SOL    HW212884   6.708   4.089   0.864
21349SOL     OW12885  15.888   6.051   6.765
21349SOL    HW112886  15.824   5.975   6.755
21349SOL    HW212887  15.982   6.017   6.751
21350SOL     OW12888   0.933  15.764   8.166
21350SOL    HW112889   0.923  15.683   8.107
21350SOL    HW212890   1.022  15.805   8.150
21351SOL     OW12891   6.136   0.391   1.451
21351SOL    HW112892   6.162   0.366   1.358
21351SOL    HW212893   6.138   0.309   1.509
21352SOL     OW12894   4.159   0.377   1.012
21352SOL    HW112895   4.106   0.340   1.089
21352SOL    HW212896   4.198   0.302   0.959
21353SOL     OW12897   3.714   0.755   1.784
21353SOL    HW112898   3.782   0.786   1.718
21353SOL    HW212899   3.652   0.690   1.741
21354SOL     OW12900  11.694   9.311   0.619
21354SOL    HW112901  11.619   9.375   0.601
21354SOL    HW212902  11.777   9.363   0.639
21355SOL     OW12903  14.537   4.984   8.195
21355SOL    HW112904  14.509   5.040   8.118
21355SOL    HW212905  14.630   4.949   8.179
21356SOL     OW12906   5.249  13.116   0.410
21356SOL    HW112907   5.181  13.176   0.453
21356SOL    HW212908   5.338  13.160   0.410
21357SOL     OW12909   8.464   2.042   7.505
21357SOL    HW112910   8.366   2.025   7.511
21357SOL    HW212911   8.514   1.957   7.522
21358SOL     OW12912  15.545   6.885   6.608
21358SOL    HW112913  15.618   6.943   6.572
21358SOL    HW212914  15.517   6.920   6.698
21359SOL     OW12915   3.345   0.801   1.668
21359SOL    HW112916   3.247   0.786   1.657
21359SOL    HW212917   3.383   0.837   1.582
21360SOL     OW12918   9.063   3.020   0.708
21360SOL    HW112919   9.129   3.068   0.766
21360SOL    HW212920   9.077   3.047   0.613
21361SOL     OW12921   5.856  10.316   6.579
21361SOL    HW112922   5.820  10.295   6.670
21361SOL    HW212923   5.794  10.380   6.533
21362SOL     OW12924   8.382   8.997   0.572
21362SOL    HW112925   8.326   9.050   0.635
21362SOL    HW212926   8.437   9.059   0.515
21363SOL     OW12927   5.071  14.029   7.709
21363SOL    HW112928   5.024  14.107   7.750
21363SOL    HW212929   5.014  13.991   7.635
21364SOL     OW12930   3.489  16.810   2.030
21364SOL    HW112931   3.502  16.712   2.047
21364SOL    HW212932   3.398  16.838   2.061
21365SOL     OW12933   0.932   8.858   7.218
21365SOL    HW112934   0.855   8.901   7.266
21365SOL    HW212935   0.996   8.819   7.284
21366SOL     OW12936  11.770  16.958   0.572
21366SOL    HW112937  11.713  16.881   0.544
21366SOL    HW212938  11.845  16.971   0.507
21367SOL     OW12939  10.880  12.506   1.102
21367SOL    HW112940  10.886  12.411   1.071
21367SOL    HW212941  10.959  12.557   1.069
21368SOL     OW12942   9.038   9.269   5.672
21368SOL    HW112943   8.991   9.213   5.740
21368SOL    HW212944   9.035   9.224   5.583
21369SOL     OW12945  12.845   1.846   8.262
21369SOL    HW112946  12.942   1.848   8.237
21369SOL    HW212947  12.811   1.940   8.268
21370SOL     OW12948  11.075   4.168   6.191
21370SOL    HW112949  11.081   4.084   6.246
21370SOL    HW212950  11.144   4.166   6.119
21371SOL     OW12951  14.452  16.025   6.911
21371SOL    HW112952  14.478  15.988   6.822
21371SOL    HW212953  14.416  15.951   6.968
21372SOL     OW12954   2.820   6.929   6.917
21372SOL    HW112955   2.829   6.851   6.854
21372SOL    HW212956   2.758   6.996   6.878
21373SOL     OW12957   6.453   5.909   8.398
21373SOL    HW112958   6.523   5.914   0.015
21373SOL    HW212959   6.366   5.880   8.439
21374SOL     OW12960   1.219  12.879   0.106
21374SOL    HW112961   1.302  12.823   0.113
21374SOL    HW212962   1.158  12.840   0.038
21375SOL     OW12963   9.496  16.586   6.960
21375SOL    HW112964   9.558  16.645   6.910
21375SOL    HW212965   9.401  16.610   6.937
21376SOL     OW12966  16.726   7.601   8.304
21376SOL    HW112967  16.789   7.679   8.299
21376SOL    HW212968  16.744   7.550   8.388
21377SOL     OW12969  12.553  11.824   1.128
21377SOL    HW112970  12.583  11.880   1.050
21377SOL    HW212971  12.633  11.793   1.179
21378SOL     OW12972   6.345  15.228   1.942
21378SOL    HW112973   6.406  15.149   1.944
21378SOL    HW212974   6.349  15.276   2.029
21379SOL     OW12975   3.621  10.632   7.879
21379SOL    HW112976   3.659  10.540   7.883
21379SOL    HW212977   3.541  10.638   7.938
21380SOL     OW12978   0.864   8.222   6.019
21380SOL    HW112979   0.767   8.245   6.013
21380SOL    HW212980   0.884   8.183   6.108
21381SOL     OW12981   8.618  13.930   6.493
21381SOL    HW112982   8.675  13.859   6.452
21381SOL    HW212983   8.631  14.016   6.444
21382SOL     OW12984  13.329   2.999   7.315
21382SOL    HW112985  13.357   2.945   7.394
21382SOL    HW212986  13.294   2.938   7.243
21383SOL     OW12987  11.788  13.408   1.489
21383SOL    HW112988  11.875  13.449   1.461
21383SOL    HW212989  11.763  13.335   1.425
21384SOL     OW12990  10.320   6.774   7.419
21384SOL    HW112991  10.346   6.775   7.322
21384SOL    HW212992  10.231   6.730   7.429
21385SOL     OW12993   8.408   8.934   0.011
21385SOL    HW112994   8.337   8.905   8.401
21385SOL    HW212995   8.459   8.855   0.044
21386SOL     OW12996  10.052  13.417   8.046
21386SOL    HW112997  10.109  13.335   8.046
21386SOL    HW212998  10.069  13.469   7.962
21387SOL     OW12999   4.064  15.272   1.518
21387SOL    HW113000   3.975  15.278   1.564
21387SOL    HW213001   4.060  15.322   1.432
21388SOL     OW13002   2.546   4.554   0.052
21388SOL    HW113003   2.634   4.563   0.099
21388SOL    HW213004   2.472   4.556   0.118
21389SOL     OW13005   9.375   4.999   0.466
21389SOL    HW113006   9.319   4.924   0.500
21389SOL    HW213007   9.326   5.086   0.479
21390SOL     OW13008  15.543   1.344   0.770
21390SOL    HW113009  15.503   1.373   0.856
21390SOL    HW213010  15.538   1.244   0.763
21391SOL     OW13011   1.369  14.075   7.693
21391SOL    HW113012   1.393  14.167   7.725
21391SOL    HW213013   1.401  14.064   7.599
21392SOL     OW13014  11.176   0.243   7.628
21392SOL    HW113015  11.090   0.226   7.678
21392SOL    HW213016  11.239   0.168   7.644
21393SOL     OW13017  12.138   0.972   0.364
21393SOL    HW113018  12.233   0.972   0.333
21393SOL    HW213019  12.080   0.930   0.294
21394SOL     OW13020   9.574   7.432   8.352
21394SOL    HW113021   9.495   7.402   8.299
21394SOL    HW213022   9.656   7.434   8.294
21395SOL     OW13023  12.578   5.306   6.549
21395SOL    HW113024  12.662   5.350   6.582
21395SOL    HW213025  12.506   5.316   6.618
21396SOL     OW13026  12.286   6.845   1.242
21396SOL    HW113027  12.260   6.808   1.153
21396SOL    HW213028  12.206   6.887   1.285
21397SOL     OW13029  10.885   8.573   7.367
21397SOL    HW113030  10.852   8.655   7.319
21397SOL    HW213031  10.840   8.492   7.330
21398SOL     OW13032  15.772   6.844   8.092
21398SOL    HW113033  15.827   6.770   8.131
21398SOL    HW213034  15.738   6.816   8.002
21399SOL     OW13035  12.138  15.641   7.097
21399SOL    HW113036  12.223  15.588   7.097
21399SOL    HW213037  12.121  15.675   7.004
21400SOL     OW13038   9.991  14.199   1.104
21400SOL    HW113039   9.895  14.210   1.131
21400SOL    HW213040   9.995  14.169   1.008
21401SOL     OW13041   3.518  13.866   7.267
21401SOL    HW113042   3.473  13.851   7.355
21401SOL    HW213043   3.552  13.778   7.233
21402SOL     OW13044  15.934  10.869   1.517
21402SOL    HW113045  16.033  10.877   1.503
21402SOL    HW213046  15.916  10.844   1.613
21403SOL     OW13047   4.847   7.086   7.244
21403SOL    HW113048   4.946   7.087   7.263
21403SOL    HW213049   4.832   7.056   7.150
21404SOL     OW13050  13.664   4.453   6.696
21404SOL    HW113051  13.626   4.426   6.784
21404SOL    HW213052  13.742   4.515   6.710
21405SOL     OW13053   1.191   1.396   8.386
21405SOL    HW113054   1.153   1.357   0.016
21405SOL    HW213055   1.226   1.322   8.328
21406SOL     OW13056  14.826   8.457   7.856
21406SOL    HW113057  14.883   8.389   7.904
21406SOL    HW213058  14.875   8.543   7.850
21407SOL     OW13059   4.610   6.776   0.844
21407SOL    HW113060   4.583   6.847   0.909
21407SOL    HW213061   4.678   6.813   0.781
21408SOL     OW13062  15.027   6.615   1.006
21408SOL    HW113063  14.964   6.692   1.001
21408SOL    HW213064  14.975   6.529   0.997
21409SOL     OW13065   8.700   6.385   7.328
21409SOL    HW113066   8.682   6.377   7.230
21409SOL    HW213067   8.658   6.469   7.363
21410SOL     OW13068   8.277   0.332   1.345
21410SOL    HW113069   8.188   0.335   1.298
21410SOL    HW213070   8.313   0.239   1.344
21411SOL     OW13071   4.443  12.807   7.706
21411SOL    HW113072   4.473  12.713   7.691
21411SOL    HW213073   4.401  12.842   7.622
21412SOL     OW13074  16.868   3.521   6.677
21412SOL    HW113075  16.865   3.617   6.647
21412SOL    HW213076  16.775   3.485   6.681
21413SOL     OW13077   9.495   5.211   1.408
21413SOL    HW113078   9.528   5.130   1.361
21413SOL    HW213079   9.399   5.200   1.433
21414SOL     OW13080  11.570   5.187   7.805
21414SOL    HW113081  11.505   5.220   7.737
21414SOL    HW213082  11.623   5.264   7.842
21415SOL     OW13083  10.096   5.888   7.704
21415SOL    HW113084  10.086   5.808   7.763
21415SOL    HW213085  10.166   5.870   7.635
21416SOL     OW13086  11.961   4.390   0.122
21416SOL    HW113087  11.926   4.446   0.196
21416SOL    HW213088  12.010   4.311   0.159
21417SOL     OW13089   9.849   7.589   6.071
21417SOL    HW113090   9.944   7.604   6.099
21417SOL    HW213091   9.801   7.676   6.069
21418SOL     OW13092  16.406   9.871   7.844
21418SOL    HW113093  16.416   9.970   7.850
21418SOL    HW213094  16.348   9.839   7.920
21419SOL     OW13095   7.777   8.321   1.457
21419SOL    HW113096   7.714   8.377   1.510
21419SOL    HW213097   7.729   8.279   1.380
21420SOL     OW13098   9.491   4.306   0.503
21420SOL    HW113099   9.445   4.304   0.592
21420SOL    HW213100   9.587   4.329   0.515
21421SOL     OW13101  14.269   9.863   1.221
21421SOL    HW113102  14.310   9.955   1.219
21421SOL    HW213103  14.337   9.796   1.193
21422SOL     OW13104   2.650   4.944   7.437
21422SOL    HW113105   2.584   4.891   7.385
21422SOL    HW213106   2.629   4.938   7.534
21423SOL     OW13107   7.404   6.171   6.807
21423SOL    HW113108   7.410   6.270   6.824
21423SOL    HW213109   7.480   6.125   6.854
21424SOL     OW13110   4.260   5.726   6.618
21424SOL    HW113111   4.238   5.645   6.564
21424SOL    HW213112   4.296   5.798   6.558
21425SOL     OW13113   5.860  10.618   6.282
21425SOL    HW113114   5.892  10.695   6.228
21425SOL    HW213115   5.889  10.532   6.239
21426SOL     OW13116   5.057   9.907   1.665
21426SOL    HW113117   5.022   9.975   1.730
21426SOL    HW213118   4.985   9.840   1.646
21427SOL     OW13119  10.592   3.945   7.182
21427SOL    HW113120  10.654   3.877   7.144
21427SOL    HW213121  10.623   4.037   7.157
21428SOL     OW13122   2.255   0.188   1.557
21428SOL    HW113123   2.160   0.209   1.580
21428SOL    HW213124   2.271   0.208   1.460
21429SOL     OW13125   0.780   3.007   1.275
21429SOL    HW113126   0.739   2.917   1.268
21429SOL    HW213127   0.713   3.077   1.249
21430SOL     OW13128   9.277   6.578   1.323
21430SOL    HW113129   9.256   6.579   1.420
21430SOL    HW213130   9.203   6.622   1.272
21431SOL     OW13131   7.257  11.345   1.123
21431SOL    HW113132   7.174  11.401   1.124
21431SOL    HW213133   7.248  11.273   1.054
21432SOL     OW13134   5.930  16.529   0.646
21432SOL    HW113135   5.861  16.456   0.647
21432SOL    HW213136   5.887  16.616   0.623
21433SOL     OW13137   6.213   7.039   2.706
21433SOL    HW113138   6.195   6.950   2.664
21433SOL    HW213139   6.289   7.083   2.658
21434SOL     OW13140   9.520  16.047   7.069
21434SOL    HW113141   9.467  16.114   7.018
21434SOL    HW213142   9.465  15.965   7.084
21435SOL     OW13143   2.671   4.079   8.114
21435SOL    HW113144   2.731   4.002   8.137
21435SOL    HW213145   2.600   4.049   8.051
21436SOL     OW13146  15.340  14.814   0.551
21436SOL    HW113147  15.377  14.825   0.643
21436SOL    HW213148  15.260  14.755   0.553
21437SOL     OW13149  14.271   0.418   5.959
21437SOL    HW113150  14.223   0.478   5.894
21437SOL    HW213151  14.323   0.349   5.908
21438SOL     OW13152  13.492  15.913   1.334
21438SOL    HW113153  13.447  15.954   1.255
21438SOL    HW213154  13.526  15.985   1.395
21439SOL     OW13155   1.825   6.381   7.793
21439SOL    HW113156   1.765   6.385   7.713
21439SOL    HW213157   1.787   6.436   7.867
21440SOL     OW13158   5.873   9.955   0.974
21440SOL    HW113159   5.909   9.988   0.887
21440SOL    HW213160   5.901  10.017   1.048
21441SOL     OW13161   5.829   9.351   1.319
21441SOL    HW113162   5.750   9.290   1.329
21441SOL    HW213163   5.797   9.446   1.318
21442SOL     OW13164  13.824   0.261   7.238
21442SOL    HW113165  13.809   0.185   7.175
21442SOL    HW213166  13.907   0.310   7.213
21443SOL     OW13167   7.931  10.366   7.263
21443SOL    HW113168   7.908  10.285   7.317
21443SOL    HW213169   7.931  10.343   7.166
21444SOL     OW13170   8.607   1.090   1.338
21444SOL    HW113171   8.574   1.016   1.279
21444SOL    HW213172   8.531   1.148   1.365
21445SOL     OW13173   0.299   1.688   0.980
21445SOL    HW113174   0.236   1.623   0.938
21445SOL    HW213175   0.249   1.769   1.010
21446SOL     OW13176   4.459  15.020   0.201
21446SOL    HW113177   4.497  15.081   0.271
21446SOL    HW213178   4.532  14.965   0.161
21447SOL     OW13179   3.491  14.494   7.014
21447SOL    HW113180   3.543  14.413   6.989
21447SOL    HW213181   3.395  14.483   6.987
21448SOL     OW13182   0.528   2.172   0.636
21448SOL    HW113183   0.559   2.225   0.715
21448SOL    HW213184   0.498   2.234   0.563
21449SOL     OW13185   4.707  10.747   1.141
21449SOL    HW113186   4.708  10.730   1.042
21449SOL    HW213187   4.634  10.692   1.183
21450SOL     OW13188  15.030   9.473   2.011
21450SOL    HW113189  14.938   9.486   1.974
21450SOL    HW213190  15.049   9.376   2.018
21451SOL     OW13191   5.250  13.824   7.669
21451SOL    HW113192   5.188  13.902   7.681
21451SOL    HW213193   5.292  13.829   7.579
21452SOL     OW13194   2.451  12.698   1.260
21452SOL    HW113195   2.364  12.649   1.271
21452SOL    HW213196   2.503  12.657   1.185
21453SOL     OW13197  10.272  13.905   1.280
21453SOL    HW113198  10.364  13.942   1.265
21453SOL    HW213199  10.211  13.979   1.309
21454SOL     OW13200  16.409   8.342   1.021
21454SOL    HW113201  16.336   8.406   1.044
21454SOL    HW213202  16.371   8.251   1.004
21455SOL     OW13203   8.063  10.713   0.981
21455SOL    HW113204   8.082  10.739   0.886
21455SOL    HW213205   8.064  10.794   1.039
21456SOL     OW13206   6.623  14.191   0.209
21456SOL    HW113207   6.703  14.146   0.248
21456SOL    HW213208   6.562  14.220   0.283
21457SOL     OW13209   9.351   2.387   7.888
21457SOL    HW113210   9.254   2.409   7.900
21457SOL    HW213211   9.360   2.292   7.858
21458SOL     OW13212   4.152  14.675   7.560
21458SOL    HW113213   4.138  14.734   7.639
21458SOL    HW213214   4.192  14.588   7.589
21459SOL     OW13215  12.229   1.058   8.278
21459SOL    HW113216  12.300   1.079   8.345
21459SOL    HW213217  12.139   1.062   8.322
21460SOL     OW13218  12.091  14.173   6.962
21460SOL    HW113219  12.114  14.081   6.931
21460SOL    HW213220  12.118  14.183   7.058
21461SOL     OW13221  14.247  12.791   1.002
21461SOL    HW113222  14.276  12.792   0.906
21461SOL    HW213223  14.158  12.836   1.010
21462SOL     OW13224   4.188   7.689   7.450
21462SOL    HW113225   4.261   7.649   7.395
21462SOL    HW213226   4.227   7.728   7.534
21463SOL     OW13227   5.747   3.084   6.687
21463SOL    HW113228   5.678   3.120   6.624
21463SOL    HW213229   5.784   3.158   6.743
21464SOL     OW13230   7.088  15.613   1.681
21464SOL    HW113231   7.001  15.663   1.679
21464SOL    HW213232   7.123  15.610   1.775
21465SOL     OW13233   4.114   9.329   8.185
21465SOL    HW113234   4.101   9.316   8.284
21465SOL    HW213235   4.199   9.381   8.170
21466SOL     OW13236   6.156  13.203   1.101
21466SOL    HW113237   6.144  13.181   1.198
21466SOL    HW213238   6.211  13.286   1.092
21467SOL     OW13239  11.751  13.076   2.250
21467SOL    HW113240  11.653  13.072   2.269
21467SOL    HW213241  11.795  13.140   2.313
21468SOL     OW13242   5.432   1.673   1.809
21468SOL    HW113243   5.396   1.618   1.884
21468SOL    HW213244   5.358   1.698   1.747
21469SOL     OW13245   6.957  16.963   6.915
21469SOL    HW113246   6.884  16.903   6.948
21469SOL    HW213247   7.046  16.925   6.940
21470SOL     OW13248   6.163   4.689   7.862
21470SOL    HW113249   6.201   4.675   7.770
21470SOL    HW213250   6.237   4.715   7.924
21471SOL     OW13251   3.161  11.451   2.426
21471SOL    HW113252   3.209  11.420   2.507
21471SOL    HW213253   3.063  11.461   2.447
21472SOL     OW13254   4.572   9.475   0.206
21472SOL    HW113255   4.623   9.548   0.253
21472SOL    HW213256   4.549   9.404   0.272
21473SOL     OW13257   5.821   4.022   6.336
21473SOL    HW113258   5.888   4.032   6.261
21473SOL    HW213259   5.759   3.947   6.316
21474SOL     OW13260  14.889   9.055   7.098
21474SOL    HW113261  14.841   9.119   7.038
21474SOL    HW213262  14.827   8.981   7.124
21475SOL     OW13263   9.216  10.550   0.731
21475SOL    HW113264   9.225  10.511   0.823
21475SOL    HW213265   9.245  10.645   0.732
21476SOL     OW13266   0.943   7.600   5.959
21476SOL    HW113267   0.928   7.695   5.931
21476SOL    HW213268   0.868   7.543   5.924
21477SOL     OW13269  13.890   8.806   7.227
21477SOL    HW113270  13.943   8.885   7.259
21477SOL    HW213271  13.886   8.807   7.127
21478SOL     OW13272  14.068   2.956   7.311
21478SOL    HW113273  14.087   2.866   7.350
21478SOL    HW213274  13.969   2.970   7.304
21479SOL     OW13275  12.323  11.786   6.527
21479SOL    HW113276  12.414  11.784   6.484
21479SOL    HW213277  12.256  11.820   6.461
21480SOL     OW13278  15.943   4.505   1.294
21480SOL    HW113279  15.968   4.602   1.290
21480SOL    HW213280  15.928   4.471   1.201
21481SOL     OW13281  16.865   2.573   7.041
21481SOL    HW113282  16.948   2.627   7.039
21481SOL    HW213283  16.888   2.476   7.052
21482SOL     OW13284   5.563  13.557   8.273
21482SOL    HW113285   5.661  13.538   8.281
21482SOL    HW213286   5.550  13.643   8.224
21483SOL     OW13287  13.920   9.701   0.790
21483SOL    HW113288  13.875   9.612   0.778
21483SOL    HW213289  13.851   9.773   0.789
21484SOL     OW13290   4.937   1.338   7.546
21484SOL    HW113291   5.018   1.351   7.488
21484SOL    HW213292   4.891   1.254   7.520
21485SOL     OW13293   5.677   9.486   8.260
21485SOL    HW113294   5.586   9.480   8.301
21485SOL    HW213295   5.669   9.510   8.164
21486SOL     OW13296   7.439   3.499   0.344
21486SOL    HW113297   7.505   3.574   0.342
21486SOL    HW213298   7.378   3.511   0.422
21487SOL     OW13299   6.489   9.804   0.730
21487SOL    HW113300   6.446   9.732   0.784
21487SOL    HW213301   6.423   9.838   0.663
21488SOL     OW13302   8.891  13.699   6.999
21488SOL    HW113303   8.820  13.766   7.023
21488SOL    HW213304   8.884  13.620   7.060
21489SOL     OW13305  13.605  13.724   7.443
21489SOL    HW113306  13.522  13.700   7.493
21489SOL    HW213307  13.627  13.651   7.378
21490SOL     OW13308   7.657  12.745   1.809
21490SOL    HW113309   7.612  12.676   1.751
21490SOL    HW213310   7.702  12.813   1.751
21491SOL     OW13311  12.906  12.940   7.788
21491SOL    HW113312  13.005  12.942   7.797
21491SOL    HW213313  12.882  12.918   7.693
21492SOL     OW13314  12.264   9.685   2.069
21492SOL    HW113315  12.198   9.616   2.101
21492SOL    HW213316  12.309   9.727   2.148
21493SOL     OW13317   2.573  14.696   1.811
21493SOL    HW113318   2.611  14.781   1.848
21493SOL    HW213319   2.643  14.624   1.816
21494SOL     OW13320   5.151   7.876   7.265
21494SOL    HW113321   5.232   7.935   7.273
21494SOL    HW213322   5.071   7.933   7.247
21495SOL     OW13323   4.539   4.406   7.297
21495SOL    HW113324   4.568   4.334   7.361
21495SOL    HW213325   4.439   4.404   7.289
21496SOL     OW13326  15.733   2.474   6.687
21496SOL    HW113327  15.828   2.496   6.711
21496SOL    HW213328  15.681   2.458   6.771
21497SOL     OW13329   7.552   0.149   8.269
21497SOL    HW113330   7.618   0.091   8.222
21497SOL    HW213331   7.551   0.127   8.366
21498SOL     OW13332  15.193   4.886   7.071
21498SOL    HW113333  15.228   4.807   7.019
21498SOL    HW213334  15.220   4.877   7.166
21499SOL     OW13335   1.477  12.559   2.467
21499SOL    HW113336   1.425  12.612   2.535
21499SOL    HW213337   1.560  12.524   2.509
21500SOL     OW13338  11.444  15.436   0.092
21500SOL    HW113339  11.536  15.422   0.129
21500SOL    HW213340  11.448  15.431   8.446
21501SOL     OW13341   2.913  14.389   7.586
21501SOL    HW113342   2.853  14.309   7.574
21501SOL    HW213343   2.881  14.443   7.664
21502SOL     OW13344   2.862   3.590   0.209
21502SOL    HW113345   2.793   3.536   0.256
21502SOL    HW213346   2.899   3.659   0.271
21503SOL     OW13347  15.849   8.871   7.898
21503SOL    HW113348  15.921   8.813   7.860
21503SOL    HW213349  15.882   8.965   7.903
21504SOL     OW13350  16.493  16.158   1.441
21504SOL    HW113351  16.444  16.070   1.438
21504SOL    HW213352  16.449  16.223   1.380
21505SOL     OW13353   9.651   6.895   0.314
21505SOL    HW113354   9.618   6.941   0.232
21505SOL    HW213355   9.669   6.962   0.386
21506SOL     OW13356  12.896   4.719   8.091
21506SOL    HW113357  12.925   4.726   7.996
21506SOL    HW213358  12.974   4.734   8.152
21507SOL     OW13359   7.096   7.670   8.425
21507SOL    HW113360   7.140   7.587   0.008
21507SOL    HW213361   7.091   7.663   8.325
21508SOL     OW13362  10.636   1.752   1.528
21508SOL    HW113363  10.543   1.738   1.495
21508SOL    HW213364  10.634   1.765   1.627
21509SOL     OW13365   6.872   1.126   8.119
21509SOL    HW113366   6.923   1.045   8.149
21509SOL    HW213367   6.778   1.120   8.152
21510SOL     OW13368   7.479   0.982   7.913
21510SOL    HW113369   7.484   0.898   7.860
21510SOL    HW213370   7.502   0.963   8.009
21511SOL     OW13371   4.031   0.071   8.286
21511SOL    HW113372   3.971   0.049   8.363
21511SOL    HW213373   3.979   0.067   8.201
21512SOL     OW13374  16.797  15.005   6.861
21512SOL    HW113375  16.800  14.905   6.864
21512SOL    HW213376  16.837  15.037   6.775
21513SOL     OW13377  10.355   4.252   1.263
21513SOL    HW113378  10.369   4.163   1.307
21513SOL    HW213379  10.430   4.313   1.286
21514SOL     OW13380   1.439  10.094   1.657
21514SOL    HW113381   1.339  10.087   1.662
21514SOL    HW213382   1.479  10.003   1.669
21515SOL     OW13383   9.001   8.060   1.937
21515SOL    HW113384   9.073   8.128   1.954
21515SOL    HW213385   9.004   7.991   2.009
21516SOL     OW13386  10.979   3.407   6.238
21516SOL    HW113387  10.979   3.371   6.145
21516SOL    HW213388  10.897   3.462   6.252
21517SOL     OW13389  16.157   9.135   7.202
21517SOL    HW113390  16.170   9.178   7.291
21517SOL    HW213391  16.092   9.060   7.210
21518SOL     OW13392   1.685  10.770   8.120
21518SOL    HW113393   1.692  10.686   8.173
21518SOL    HW213394   1.665  10.748   8.024
21519SOL     OW13395  16.447   3.001   1.183
21519SOL    HW113396  16.431   2.922   1.123
21519SOL    HW213397  16.379   3.003   1.256
21520SOL     OW13398   8.055   1.521   1.477
21520SOL    HW113399   8.127   1.578   1.515
21520SOL    HW213400   7.966   1.563   1.494
21521SOL     OW13401   7.560  13.668   1.741
21521SOL    HW113402   7.503  13.677   1.823
21521SOL    HW213403   7.562  13.572   1.713
21522SOL     OW13404  11.406   1.597   6.069
21522SOL    HW113405  11.425   1.654   5.989
21522SOL    HW213406  11.319   1.549   6.056
21523SOL     OW13407  11.799   8.116   8.239
21523SOL    HW113408  11.771   8.209   8.263
21523SOL    HW213409  11.807   8.061   8.322
21524SOL     OW13410   1.463   3.923   6.243
21524SOL    HW113411   1.562   3.913   6.255
21524SOL    HW213412   1.436   3.883   6.155
21525SOL     OW13413   5.083  16.958   7.265
21525SOL    HW113414   5.134   0.052   7.303
21525SOL    HW213415   5.107  16.874   7.314
21526SOL     OW13416  13.505   5.134   5.747
21526SOL    HW113417  13.590   5.122   5.799
21526SOL    HW213418  13.526   5.155   5.652
21527SOL     OW13419  14.361  14.536   7.735
21527SOL    HW113420  14.373  14.589   7.651
21527SOL    HW213421  14.362  14.598   7.813
21528SOL     OW13422  13.967   2.249   0.292
21528SOL    HW113423  13.982   2.323   0.358
21528SOL    HW213424  13.979   2.284   0.199
21529SOL     OW13425  11.084  16.836   6.509
21529SOL    HW113426  11.064  16.871   6.417
21529SOL    HW213427  11.179  16.804   6.512
21530SOL     OW13428   8.235  15.832   6.615
21530SOL    HW113429   8.205  15.741   6.643
21530SOL    HW213430   8.258  15.831   6.518
21531SOL     OW13431  13.804   2.622   6.580
21531SOL    HW113432  13.707   2.622   6.601
21531SOL    HW213433  13.843   2.532   6.599
21532SOL     OW13434   2.580   5.415   1.031
21532SOL    HW113435   2.551   5.381   0.941
21532SOL    HW213436   2.660   5.473   1.021
21533SOL     OW13437   8.842  15.861   0.910
21533SOL    HW113438   8.851  15.869   0.810
21533SOL    HW213439   8.917  15.805   0.945
21534SOL     OW13440  12.386  14.918   0.578
21534SOL    HW113441  12.423  14.912   0.671
21534SOL    HW213442  12.292  14.953   0.581
21535SOL     OW13443   5.408  16.682   1.952
21535SOL    HW113444   5.347  16.757   1.976
21535SOL    HW213445   5.396  16.607   2.018
21536SOL     OW13446   0.662   3.968   7.716
21536SOL    HW113447   0.752   3.939   7.684
21536SOL    HW213448   0.659   4.068   7.723
21537SOL     OW13449   4.957   0.412   0.488
21537SOL    HW113450   4.871   0.452   0.455
21537SOL    HW213451   4.936   0.337   0.551
21538SOL     OW13452   1.933   3.540   1.848
21538SOL    HW113453   1.972   3.525   1.939
21538SOL    HW213454   1.907   3.452   1.808
21539SOL     OW13455  10.857  13.986   8.013
21539SOL    HW113456  10.807  14.068   8.041
21539SOL    HW213457  10.796  13.923   7.966
21540SOL     OW13458   3.007   4.156   7.675
21540SOL    HW113459   3.051   4.245   7.672
21540SOL    HW213460   3.013   4.112   7.586
21541SOL     OW13461   6.088   6.013   7.273
21541SOL    HW113462   6.143   6.013   7.190
21541SOL    HW213463   6.147   6.022   7.353
21542SOL     OW13464   5.446   1.277   0.806
21542SOL    HW113465   5.405   1.315   0.723
21542SOL    HW213466   5.543   1.257   0.789
21543SOL     OW13467  12.939  15.193   1.383
21543SOL    HW113468  12.847  15.210   1.348
21543SOL    HW213469  12.937  15.117   1.448
21544SOL     OW13470  14.490  16.292   0.974
21544SOL    HW113471  14.501  16.387   1.003
21544SOL    HW213472  14.401  16.282   0.929
21545SOL     OW13473   4.703  12.225   1.774
21545SOL    HW113474   4.701  12.304   1.712
21545SOL    HW213475   4.775  12.238   1.842
21546SOL     OW13476   3.215  15.170   0.350
21546SOL    HW113477   3.211  15.157   0.449
21546SOL    HW213478   3.158  15.248   0.324
21547SOL     OW13479  12.582   7.346   0.232
21547SOL    HW113480  12.607   7.334   0.328
21547SOL    HW213481  12.613   7.435   0.200
21548SOL     OW13482  15.474  15.938   6.445
21548SOL    HW113483  15.539  16.014   6.443
21548SOL    HW213484  15.474  15.897   6.536
21549SOL     OW13485  14.627   1.646   6.612
21549SOL    HW113486  14.543   1.693   6.639
21549SOL    HW213487  14.681   1.625   6.694
21550SOL     OW13488  13.148   4.322   6.812
21550SOL    HW113489  13.070   4.259   6.815
21550SOL    HW213490  13.130   4.400   6.872
21551SOL     OW13491   8.129  14.023   8.107
21551SOL    HW113492   8.145  14.114   8.144
21551SOL    HW213493   8.043  13.986   8.143
21552SOL     OW13494   6.978  10.067   8.055
21552SOL    HW113495   6.931  10.133   7.997
21552SOL    HW213496   6.911  10.018   8.111
21553SOL     OW13497   4.127   5.278   1.471
21553SOL    HW113498   4.097   5.277   1.566
21553SOL    HW213499   4.176   5.193   1.451
21554SOL     OW13500   5.332   9.494   7.546
21554SOL    HW113501   5.276   9.416   7.518
21554SOL    HW213502   5.285   9.579   7.522
21555SOL     OW13503   1.629  13.280   0.035
21555SOL    HW113504   1.549  13.316   0.084
21555SOL    HW213505   1.703  13.347   0.041
21556SOL     OW13506   4.430   0.574   7.799
21556SOL    HW113507   4.483   0.505   7.848
21556SOL    HW213508   4.476   0.597   7.713
21557SOL     OW13509  10.746   1.922   8.378
21557SOL    HW113510  10.700   2.002   8.415
21557SOL    HW213511  10.837   1.913   8.417
21558SOL     OW13512  15.953   4.731   6.929
21558SOL    HW113513  16.049   4.756   6.926
21558SOL    HW213514  15.929   4.703   7.022
21559SOL     OW13515  10.225  10.067   1.059
21559SOL    HW113516  10.193   9.975   1.078
21559SOL    HW213517  10.312  10.063   1.010
21560SOL     OW13518  10.307  12.703   7.226
21560SOL    HW113519  10.405  12.686   7.214
21560SOL    HW213520  10.261  12.617   7.248
21561SOL     OW13521   4.855  13.299   2.137
21561SOL    HW113522   4.827  13.247   2.218
21561SOL    HW213523   4.938  13.350   2.157
21562SOL     OW13524  13.538  11.680   7.412
21562SOL    HW113525  13.458  11.630   7.379
21562SOL    HW213526  13.508  11.757   7.469
21563SOL     OW13527   8.267  15.660   2.340
21563SOL    HW113528   8.320  15.579   2.314
21563SOL    HW213529   8.267  15.670   2.439
21564SOL     OW13530   7.751   1.285   7.589
21564SOL    HW113531   7.833   1.228   7.601
21564SOL    HW213532   7.680   1.256   7.652
21565SOL     OW13533   1.480   7.023   1.140
21565SOL    HW113534   1.461   7.116   1.173
21565SOL    HW213535   1.423   7.003   1.060
21566SOL     OW13536   8.116  14.475   8.367
21566SOL    HW113537   8.101  14.436   0.004
21566SOL    HW213538   8.039  14.534   8.343
21567SOL     OW13539   9.332  16.532   8.241
21567SOL    HW113540   9.424  16.504   8.268
21567SOL    HW213541   9.317  16.627   8.267
21568SOL     OW13542   7.065  14.698   7.245
21568SOL    HW113543   7.034  14.608   7.275
21568SOL    HW213544   6.993  14.765   7.261
21569SOL     OW13545   8.162  10.813   7.464
21569SOL    HW113546   8.143  10.719   7.436
21569SOL    HW213547   8.126  10.876   7.395
21570SOL     OW13548  12.731  16.733   1.535
21570SOL    HW113549  12.719  16.812   1.475
21570SOL    HW213550  12.802  16.673   1.498
21571SOL     OW13551  14.798  12.752   7.764
21571SOL    HW113552  14.814  12.752   7.862
21571SOL    HW213553  14.862  12.813   7.719
21572SOL     OW13554   7.340   5.451   0.242
21572SOL    HW113555   7.415   5.507   0.206
21572SOL    HW213556   7.254   5.500   0.230
21573SOL     OW13557   6.661  11.869   2.316
21573SOL    HW113558   6.561  11.868   2.320
21573SOL    HW213559   6.696  11.928   2.389
21574SOL     OW13560   6.871  14.905   7.261
21574SOL    HW113561   6.776  14.931   7.277
21574SOL    HW213562   6.887  14.898   7.162
21575SOL     OW13563   5.118   2.858   7.721
21575SOL    HW113564   5.080   2.883   7.632
21575SOL    HW213565   5.157   2.766   7.717
21576SOL     OW13566  16.357   7.571   7.857
21576SOL    HW113567  16.391   7.489   7.904
21576SOL    HW213568  16.342   7.644   7.923
21577SOL     OW13569   9.552   2.782   1.993
21577SOL    HW113570   9.552   2.692   2.038
21577SOL    HW213571   9.538   2.853   2.061
21578SOL     OW13572   0.498  12.356   8.109
21578SOL    HW113573   0.577  12.357   8.048
21578SOL    HW213574   0.454  12.266   8.106
21579SOL     OW13575  12.663   7.257   6.069
21579SOL    HW113576  12.658   7.189   5.996
21579SOL    HW213577  12.573   7.265   6.113
21580SOL     OW13578  13.332  10.580   0.050
21580SOL    HW113579  13.238  10.615   0.060
21580SOL    HW213580  13.330  10.480   0.049
21581SOL     OW13581  15.219   8.609   7.476
21581SOL    HW113582  15.235   8.515   7.509
21581SOL    HW213583  15.247   8.616   7.381
21582SOL     OW13584  13.881   9.490   2.126
21582SOL    HW113585  13.801   9.464   2.179
21582SOL    HW213586  13.944   9.541   2.184
21583SOL     OW13587   3.850   7.065   1.459
21583SOL    HW113588   3.790   7.052   1.537
21583SOL    HW213589   3.799   7.050   1.374
21584SOL     OW13590   3.766  10.272   1.471
21584SOL    HW113591   3.837  10.275   1.541
21584SOL    HW213592   3.808  10.258   1.381
21585SOL     OW13593  11.838   1.213   1.251
21585SOL    HW113594  11.821   1.311   1.262
21585SOL    HW213595  11.831   1.168   1.340
21586SOL     OW13596  16.848  16.411   1.553
21586SOL    HW113597  16.851  16.469   1.634
21586SOL    HW213598  16.782  16.338   1.566
21587SOL     OW13599   9.814  12.178   6.625
21587SOL    HW113600   9.910  12.206   6.619
21587SOL    HW213601   9.784  12.146   6.535
21588SOL     OW13602   5.879   1.722   7.789
21588SOL    HW113603   5.942   1.774   7.731
21588SOL    HW213604   5.785   1.737   7.758
21589SOL     OW13605   0.442  10.394   7.838
21589SOL    HW113606   0.438  10.480   7.888
21589SOL    HW213607   0.537  10.368   7.823
21590SOL     OW13608  15.678   3.817   0.038
21590SOL    HW113609  15.616   3.788   8.419
21590SOL    HW213610  15.764   3.848   8.452
21591SOL     OW13611  11.229  13.530   6.828
21591SOL    HW113612  11.322  13.493   6.837
21591SOL    HW213613  11.189  13.500   6.741
21592SOL     OW13614  15.188  11.322   7.820
21592SOL    HW113615  15.233  11.341   7.907
21592SOL    HW213616  15.256  11.291   7.753
21593SOL     OW13617   7.337   9.972   6.960
21593SOL    HW113618   7.296  10.017   7.040
21593SOL    HW213619   7.267   9.919   6.912
21594SOL     OW13620   6.020   5.058   1.270
21594SOL    HW113621   5.981   4.981   1.321
21594SOL    HW213622   6.023   5.035   1.173
21595SOL     OW13623  10.893  14.069   1.291
21595SOL    HW113624  10.979  14.021   1.277
21595SOL    HW213625  10.909  14.168   1.289
21596SOL     OW13626  13.087  13.417   0.253
21596SOL    HW113627  13.136  13.443   0.336
21596SOL    HW213628  13.058  13.500   0.205
21597SOL     OW13629   9.278  16.160   1.263
21597SOL    HW113630   9.234  16.081   1.221
21597SOL    HW213631   9.221  16.241   1.250
21598SOL     OW13632  13.484  13.714   1.494
21598SOL    HW113633  13.534  13.629   1.505
21598SOL    HW213634  13.524  13.767   1.419
21599SOL     OW13635  14.447   8.157   6.899
21599SOL    HW113636  14.414   8.100   6.975
21599SOL    HW213637  14.483   8.098   6.827
21600SOL     OW13638   0.310   6.164   1.644
21600SOL    HW113639   0.393   6.219   1.633
21600SOL    HW213640   0.233   6.225   1.661
21601SOL     OW13641   5.288  16.277   1.870
21601SOL    HW113642   5.309  16.246   1.962
21601SOL    HW213643   5.371  16.314   1.827
21602SOL     OW13644   6.244  12.629   7.605
21602SOL    HW113645   6.148  12.628   7.631
21602SOL    HW213646   6.266  12.717   7.563
21603SOL     OW13647   6.232   1.617   6.880
21603SOL    HW113648   6.223   1.548   6.951
21603SOL    HW213649   6.300   1.588   6.813
21604SOL     OW13650  13.540   7.551   7.445
21604SOL    HW113651  13.591   7.636   7.439
21604SOL    HW213652  13.490   7.536   7.360
21605SOL     OW13653   1.218   0.514   1.089
21605SOL    HW113654   1.180   0.599   1.052
21605SOL    HW213655   1.153   0.473   1.153
21606SOL     OW13656  10.390   3.817   7.026
21606SOL    HW113657  10.436   3.858   7.105
21606SOL    HW213658  10.457   3.789   6.958
21607SOL     OW13659  11.069  12.617   0.394
21607SOL    HW113660  11.103  12.601   0.487
21607SOL    HW213661  11.042  12.529   0.353
21608SOL     OW13662   4.958   8.172   6.205
21608SOL    HW113663   4.872   8.192   6.253
21608SOL    HW213664   4.991   8.255   6.160
21609SOL     OW13665   6.417  13.869   8.234
21609SOL    HW113666   6.338  13.924   8.261
21609SOL    HW213667   6.412  13.850   8.136
21610SOL     OW13668  10.239   5.782   6.924
21610SOL    HW113669  10.297   5.831   6.859
21610SOL    HW213670  10.179   5.719   6.874
21611SOL     OW13671   2.065   4.878   0.410
21611SOL    HW113672   2.144   4.941   0.412
21611SOL    HW213673   2.079   4.806   0.478
21612SOL     OW13674  15.276  11.146   2.248
21612SOL    HW113675  15.250  11.174   2.340
21612SOL    HW213676  15.340  11.213   2.209
21613SOL     OW13677   8.118   2.898   0.759
21613SOL    HW113678   8.145   2.825   0.822
21613SOL    HW213679   8.114   2.985   0.809
21614SOL     OW13680  10.546  14.362   7.060
21614SOL    HW113681  10.499  14.397   6.978
21614SOL    HW213682  10.612  14.430   7.092
21615SOL     OW13683  11.668   8.250   6.817
21615SOL    HW113684  11.642   8.300   6.734
21615SOL    HW213685  11.767   8.238   6.819
21616SOL     OW13686  16.691  14.796   7.879
21616SOL    HW113687  16.766  14.862   7.870
21616SOL    HW213688  16.606  14.836   7.845
21617SOL     OW13689   8.693   1.532   0.406
21617SOL    HW113690   8.660   1.598   0.473
21617SOL    HW213691   8.769   1.479   0.446
21618SOL     OW13692  10.323  10.662   7.890
21618SOL    HW113693  10.245  10.718   7.861
21618SOL    HW213694  10.316  10.641   7.987
21619SOL     OW13695   7.018   5.235   1.380
21619SOL    HW113696   6.978   5.275   1.462
21619SOL    HW213697   7.052   5.308   1.320
21620SOL     OW13698   8.645   5.286   6.549
21620SOL    HW113699   8.548   5.283   6.573
21620SOL    HW213700   8.656   5.334   6.462
21621SOL     OW13701  13.823  13.970   6.598
21621SOL    HW113702  13.725  13.981   6.615
21621SOL    HW213703  13.857  14.049   6.547
21622SOL     OW13704  11.506  10.784   7.400
21622SOL    HW113705  11.431  10.768   7.336
21622SOL    HW213706  11.512  10.882   7.420
21623SOL     OW13707  11.754   3.688   0.886
21623SOL    HW113708  11.665   3.682   0.931
21623SOL    HW213709  11.823   3.640   0.941
21624SOL     OW13710   4.009  13.833   6.652
21624SOL    HW113711   4.068  13.786   6.587
21624SOL    HW213712   3.996  13.928   6.622
21625SOL     OW13713   4.444   9.192   0.238
21625SOL    HW113714   4.367   9.222   0.295
21625SOL    HW213715   4.438   9.094   0.222
21626SOL     OW13716   1.296   2.288   0.621
21626SOL    HW113717   1.305   2.372   0.568
21626SOL    HW213718   1.234   2.304   0.698
21627SOL     OW13719   6.534  11.799   1.537
21627SOL    HW113720   6.468  11.874   1.535
21627SOL    HW213721   6.622  11.832   1.503
21628SOL     OW13722  14.320   2.420   7.479
21628SOL    HW113723  14.412   2.388   7.460
21628SOL    HW213724  14.256   2.379   7.413
21629SOL     OW13725  11.890  13.165   0.943
21629SOL    HW113726  11.877  13.081   0.997
21629SOL    HW213727  11.853  13.243   0.994
21630SOL     OW13728   8.062   4.911   8.097
21630SOL    HW113729   7.990   4.941   8.035
21630SOL    HW213730   8.131   4.859   8.047
21631SOL     OW13731   3.460  15.053   1.974
21631SOL    HW113732   3.523  15.090   2.042
21631SOL    HW213733   3.366  15.068   2.005
21632SOL     OW13734   1.771   3.117   1.280
21632SOL    HW113735   1.753   3.110   1.378
21632SOL    HW213736   1.794   3.211   1.256
21633SOL     OW13737  13.409   3.698   8.339
21633SOL    HW113738  13.484   3.723   8.400
21633SOL    HW213739  13.443   3.690   8.245
21634SOL     OW13740  15.467  10.007   0.196
21634SOL    HW113741  15.386  10.016   0.139
21634SOL    HW213742  15.472   9.914   0.232
21635SOL     OW13743   1.403  15.633   0.871
21635SOL    HW113744   1.475  15.585   0.923
21635SOL    HW213745   1.389  15.724   0.911
21636SOL     OW13746  15.577  15.493   0.675
21636SOL    HW113747  15.657  15.527   0.625
21636SOL    HW213748  15.549  15.561   0.743
21637SOL     OW13749   0.495  14.779   8.170
21637SOL    HW113750   0.410  14.800   8.122
21637SOL    HW213751   0.540  14.702   8.126
21638SOL     OW13752   1.461  16.605   8.328
21638SOL    HW113753   1.524  16.678   8.351
21638SOL    HW213754   1.490  16.562   8.243
21639SOL     OW13755  10.077   0.124   7.303
21639SOL    HW113756  10.139   0.198   7.278
21639SOL    HW213757  10.088   0.048   7.239
21640SOL     OW13758   7.757   7.879   7.497
21640SOL    HW113759   7.738   7.786   7.463
21640SOL    HW213760   7.844   7.878   7.547
21641SOL     OW13761  12.945   0.929   0.748
21641SOL    HW113762  12.857   0.883   0.752
21641SOL    HW213763  13.018   0.862   0.756
21642SOL     OW13764   8.508  16.257   0.447
21642SOL    HW113765   8.456  16.175   0.471
21642SOL    HW213766   8.550  16.244   0.357
21643SOL     OW13767  12.419   3.906   7.024
21643SOL    HW113768  12.512   3.938   7.005
21643SOL    HW213769  12.359   3.985   7.038
21644SOL     OW13770  14.878  10.565   1.279
21644SOL    HW113771  14.881  10.646   1.337
21644SOL    HW213772  14.943  10.497   1.314
21645SOL     OW13773   7.250   0.948   6.974
21645SOL    HW113774   7.236   0.861   7.021
21645SOL    HW213775   7.162   0.995   6.963
21646SOL     OW13776  14.928   5.743   0.678
21646SOL    HW113777  14.877   5.730   0.592
21646SOL    HW213778  14.967   5.655   0.707
21647SOL     OW13779   8.023  11.720   1.121
21647SOL    HW113780   7.962  11.668   1.181
21647SOL    HW213781   8.002  11.818   1.128
21648SOL     OW13782  14.314   1.544   8.010
21648SOL    HW113783  14.383   1.614   7.991
21648SOL    HW213784  14.344   1.456   7.973
21649SOL     OW13785   3.690  13.106   2.227
21649SOL    HW113786   3.777  13.061   2.247
21649SOL    HW213787   3.615  13.043   2.246
21650SOL     OW13788   1.470   2.168   1.806
21650SOL    HW113789   1.552   2.115   1.828
21650SOL    HW213790   1.443   2.221   1.886
21651SOL     OW13791   2.096   4.423   1.057
21651SOL    HW113792   2.158   4.433   1.135
21651SOL    HW213793   2.011   4.380   1.088
21652SOL     OW13794  12.701   6.143   7.250
21652SOL    HW113795  12.682   6.048   7.273
21652SOL    HW213796  12.788   6.149   7.199
21653SOL     OW13797   9.850  15.814   8.370
21653SOL    HW113798   9.940  15.847   8.400
21653SOL    HW213799   9.791  15.803   8.450
21654SOL     OW13800  15.789   4.260   6.858
21654SOL    HW113801  15.785   4.304   6.768
21654SOL    HW213802  15.720   4.188   6.863
21655SOL     OW13803   8.750  16.733   6.302
21655SOL    HW113804   8.652  16.719   6.292
21655SOL    HW213805   8.774  16.825   6.271
21656SOL     OW13806  12.000   0.197   0.992
21656SOL    HW113807  11.940   0.211   1.071
21656SOL    HW213808  12.014   0.099   0.978
21657SOL     OW13809  12.021  12.259   1.434
21657SOL    HW113810  11.977  12.334   1.483
21657SOL    HW213811  12.075  12.205   1.498
21658SOL     OW13812   2.722   6.627   2.425
21658SOL    HW113813   2.665   6.544   2.428
21658SOL    HW213814   2.754   6.648   2.517
21659SOL     OW13815   2.184   5.434   7.290
21659SOL    HW113816   2.137   5.394   7.369
21659SOL    HW213817   2.234   5.363   7.240
21660SOL     OW13818   1.278   6.458   6.500
21660SOL    HW113819   1.208   6.521   6.532
21660SOL    HW213820   1.352   6.454   6.568
21661SOL     OW13821  11.065  14.067   8.370
21661SOL    HW113822  11.124  13.992   8.402
21661SOL    HW213823  11.107  14.112   8.292
21662SOL     OW13824   7.025   7.059   2.165
21662SOL    HW113825   7.058   6.986   2.225
21662SOL    HW213826   6.968   7.019   2.093
21663SOL     OW13827  11.287   8.736   7.432
21663SOL    HW113828  11.385   8.715   7.423
21663SOL    HW213829  11.276   8.826   7.473
21664SOL     OW13830   2.621   8.405   0.048
21664SOL    HW113831   2.602   8.414   8.404
21664SOL    HW213832   2.715   8.437   0.066
21665SOL     OW13833   4.481  14.624   0.257
21665SOL    HW113834   4.432  14.662   0.178
21665SOL    HW213835   4.423  14.556   0.302
21666SOL     OW13836   3.800  13.861   0.114
21666SOL    HW113837   3.773  13.811   0.197
21666SOL    HW213838   3.848  13.945   0.140
21667SOL     OW13839   5.784   8.273   1.342
21667SOL    HW113840   5.739   8.353   1.301
21667SOL    HW213841   5.860   8.304   1.399
21668SOL     OW13842   8.644   4.654   5.870
21668SOL    HW113843   8.705   4.644   5.791
21668SOL    HW213844   8.584   4.575   5.876
21669SOL     OW13845   8.229   7.682   7.827
21669SOL    HW113846   8.251   7.586   7.807
21669SOL    HW213847   8.289   7.715   7.901
21670SOL     OW13848   9.316   5.537   7.790
21670SOL    HW113849   9.339   5.568   7.697
21670SOL    HW213850   9.392   5.558   7.851
21671SOL     OW13851   2.483   5.326   0.796
21671SOL    HW113852   2.512   5.283   0.710
21671SOL    HW213853   2.387   5.351   0.790
21672SOL     OW13854   0.627  12.646   6.814
21672SOL    HW113855   0.682  12.678   6.737
21672SOL    HW213856   0.583  12.559   6.789
21673SOL     OW13857   9.174   1.559   7.084
21673SOL    HW113858   9.199   1.641   7.033
21673SOL    HW213859   9.088   1.574   7.132
21674SOL     OW13860  13.476   6.224   6.303
21674SOL    HW113861  13.566   6.189   6.274
21674SOL    HW213862  13.484   6.266   6.393
21675SOL     OW13863   2.868   6.082   7.104
21675SOL    HW113864   2.960   6.069   7.141
21675SOL    HW213865   2.867   6.163   7.045
21676SOL     OW13866   3.211   1.759   7.674
21676SOL    HW113867   3.249   1.667   7.668
21676SOL    HW213868   3.241   1.802   7.759
21677SOL     OW13869   6.932   3.052   8.071
21677SOL    HW113870   6.956   3.149   8.075
21677SOL    HW213871   6.994   3.000   8.130
21678SOL     OW13872  14.575  14.797   2.004
21678SOL    HW113873  14.552  14.738   1.927
21678SOL    HW213874  14.620  14.743   2.075
21679SOL     OW13875  14.090   0.890   0.042
21679SOL    HW113876  14.126   0.925   0.128
21679SOL    HW213877  14.161   0.893   8.426
21680SOL     OW13878  14.763  16.587   7.281
21680SOL    HW113879  14.724  16.523   7.215
21680SOL    HW213880  14.845  16.547   7.322
21681SOL     OW13881   8.373   5.473   7.910
21681SOL    HW113882   8.404   5.430   7.994
21681SOL    HW213883   8.345   5.403   7.844
21682SOL     OW13884   1.086   2.700   1.721
21682SOL    HW113885   1.144   2.687   1.641
21682SOL    HW213886   1.144   2.717   1.802
21683SOL     OW13887  13.648  12.753   8.358
21683SOL    HW113888  13.587  12.753   8.279
21683SOL    HW213889  13.725  12.692   8.340
21684SOL     OW13890   4.423  13.816   7.827
21684SOL    HW113891   4.437  13.867   7.743
21684SOL    HW213892   4.379  13.728   7.807
21685SOL     OW13893   4.819  12.060   0.259
21685SOL    HW113894   4.870  11.979   0.290
21685SOL    HW213895   4.736  12.070   0.313
21686SOL     OW13896   1.376   1.760   1.290
21686SOL    HW113897   1.353   1.721   1.201
21686SOL    HW213898   1.390   1.687   1.356
21687SOL     OW13899   5.098   3.578   7.882
21687SOL    HW113900   5.118   3.606   7.788
21687SOL    HW213901   5.161   3.505   7.908
21688SOL     OW13902  11.065  10.318   7.169
21688SOL    HW113903  11.045  10.416   7.167
21688SOL    HW213904  11.149  10.302   7.221
21689SOL     OW13905   5.477   8.084   1.633
21689SOL    HW113906   5.419   8.144   1.578
21689SOL    HW213907   5.420   8.022   1.688
21690SOL     OW13908  10.369   4.320   7.359
21690SOL    HW113909  10.348   4.247   7.295
21690SOL    HW213910  10.422   4.283   7.436
21691SOL     OW13911  13.067  14.299   1.785
21691SOL    HW113912  13.134  14.317   1.858
21691SOL    HW213913  13.115  14.290   1.698
21692SOL     OW13914  12.489  14.938   0.831
21692SOL    HW113915  12.423  14.978   0.896
21692SOL    HW213916  12.565  15.002   0.817
21693SOL     OW13917   2.852  15.222   0.218
21693SOL    HW113918   2.771  15.210   0.276
21693SOL    HW213919   2.915  15.285   0.264
21694SOL     OW13920  10.340   5.326   8.233
21694SOL    HW113921  10.354   5.308   8.136
21694SOL    HW213922  10.264   5.390   8.244
21695SOL     OW13923   7.932   6.626   1.614
21695SOL    HW113924   7.861   6.565   1.650
21695SOL    HW213925   7.926   6.630   1.515
21696SOL     OW13926   0.643  12.877   7.288
21696SOL    HW113927   0.595  12.828   7.361
21696SOL    HW213928   0.650  12.817   7.208
21697SOL     OW13929   0.632  12.459   7.224
21697SOL    HW113930   0.664  12.406   7.146
21697SOL    HW213931   0.697  12.450   7.300
21698SOL     OW13932  10.574   9.612   1.841
21698SOL    HW113933  10.597   9.700   1.882
21698SOL    HW213934  10.649   9.547   1.858
21699SOL     OW13935   7.950   8.437   7.162
21699SOL    HW113936   7.893   8.396   7.233
21699SOL    HW213937   7.972   8.369   7.093
21700SOL     OW13938  13.946   0.448   8.301
21700SOL    HW113939  13.915   0.510   8.372
21700SOL    HW213940  14.023   0.394   8.335
21701SOL     OW13941  13.241   6.405   0.740
21701SOL    HW113942  13.196   6.484   0.699
21701SOL    HW213943  13.313   6.373   0.678
21702SOL     OW13944  14.776   9.601   6.707
21702SOL    HW113945  14.782   9.552   6.621
21702SOL    HW213946  14.801   9.697   6.693
21703SOL     OW13947   7.625   4.169   7.789
21703SOL    HW113948   7.666   4.258   7.772
21703SOL    HW213949   7.529   4.170   7.759
21704SOL     OW13950  13.392   5.476   6.592
21704SOL    HW113951  13.357   5.399   6.646
21704SOL    HW213952  13.321   5.545   6.581
21705SOL     OW13953   1.734  14.225   2.344
21705SOL    HW113954   1.660  14.190   2.401
21705SOL    HW213955   1.817  14.232   2.398
21706SOL     OW13956   9.825   3.997   7.311
21706SOL    HW113957   9.845   3.976   7.407
21706SOL    HW213958   9.888   4.066   7.278
21707SOL     OW13959   4.219   0.127   6.659
21707SOL    HW113960   4.221   0.093   6.565
21707SOL    HW213961   4.150   0.077   6.711
21708SOL     OW13962  12.984   2.191   5.392
21708SOL    HW113963  12.995   2.098   5.426
21708SOL    HW213964  12.919   2.192   5.316
21709SOL     OW13965   1.436   3.278   7.077
21709SOL    HW113966   1.489   3.357   7.047
21709SOL    HW213967   1.472   3.195   7.034
21710SOL     OW13968  12.193   4.790   1.745
21710SOL    HW113969  12.230   4.876   1.709
21710SOL    HW213970  12.128   4.810   1.818
21711SOL     OW13971  16.064  14.699   6.590
21711SOL    HW113972  16.091  14.694   6.494
21711SOL    HW213973  15.968  14.672   6.599
21712SOL     OW13974  16.605   4.250   0.782
21712SOL    HW113975  16.613   4.260   0.881
21712SOL    HW213976  16.516   4.209   0.760
21713SOL     OW13977  15.251  10.606   8.191
21713SOL    HW113978  15.216  10.656   8.111
21713SOL    HW213979  15.178  10.599   8.259
21714SOL     OW13980   9.655  14.866   6.754
21714SOL    HW113981   9.577  14.928   6.767
21714SOL    HW213982   9.662  14.843   6.657
21715SOL     OW13983   9.674   4.621   1.651
21715SOL    HW113984   9.669   4.545   1.715
21715SOL    HW213985   9.601   4.686   1.671
21716SOL     OW13986   8.939  14.205   1.367
21716SOL    HW113987   9.037  14.217   1.383
21716SOL    HW213988   8.892  14.292   1.383
21717SOL     OW13989   6.845   6.356   6.942
21717SOL    HW113990   6.904   6.373   7.021
21717SOL    HW213991   6.792   6.438   6.921
21718SOL     OW13992  14.189   6.094   1.172
21718SOL    HW113993  14.136   6.173   1.203
21718SOL    HW213994  14.286   6.119   1.169
21719SOL     OW13995   4.827   6.082   0.014
21719SOL    HW113996   4.739   6.037   8.452
21719SOL    HW213997   4.901   6.016   0.001
21720SOL     OW13998   2.746  11.013   1.436
21720SOL    HW113999   2.739  10.919   1.470
21720SOL    HW214000   2.681  11.071   1.486
21721SOL     OW14001  15.082  13.998   8.264
21721SOL    HW114002  15.108  13.922   8.204
21721SOL    HW214003  15.031  14.066   8.212
21722SOL     OW14004  11.362   3.162   0.135
21722SOL    HW114005  11.416   3.196   0.212
21722SOL    HW214006  11.327   3.239   0.082
21723SOL     OW14007  15.883   7.989   0.846
21723SOL    HW114008  15.911   7.896   0.821
21723SOL    HW214009  15.964   8.047   0.855
21724SOL     OW14010   9.804   0.962   1.114
21724SOL    HW114011   9.868   0.940   1.040
21724SOL    HW214012   9.782   0.879   1.165
21725SOL     OW14013   8.620   6.247   6.605
21725SOL    HW114014   8.674   6.171   6.569
21725SOL    HW214015   8.595   6.309   6.531
21726SOL     OW14016   4.187  11.801   6.815
21726SOL    HW114017   4.234  11.714   6.805
21726SOL    HW214018   4.119  11.811   6.744
21727SOL     OW14019   2.743   8.987   7.729
21727SOL    HW114020   2.798   8.905   7.745
21727SOL    HW214021   2.777   9.034   7.648
21728SOL     OW14022   7.177   6.864   7.187
21728SOL    HW114023   7.265   6.820   7.167
21728SOL    HW214024   7.191   6.963   7.198
21729SOL     OW14025   7.932   0.895   0.115
21729SOL    HW114026   8.013   0.840   0.095
21729SOL    HW214027   7.960   0.984   0.150
21730SOL     OW14028   0.248   5.272   5.897
21730SOL    HW114029   0.342   5.277   5.863
21730SOL    HW214030   0.220   5.176   5.900
21731SOL     OW14031  16.357  15.723   7.506
21731SOL    HW114032  16.321  15.631   7.489
21731SOL    HW214033  16.288  15.777   7.554
21732SOL     OW14034  14.394  12.724   7.306
21732SOL    HW114035  14.304  12.703   7.269
21732SOL    HW214036  14.414  12.662   7.382
21733SOL     OW14037   2.945   5.270   7.506
21733SOL    HW114038   2.882   5.236   7.436
21733SOL    HW214039   2.912   5.358   7.540
21734SOL     OW14040  10.090   3.622   0.404
21734SOL    HW114041  10.068   3.657   0.313
21734SOL    HW214042  10.188   3.605   0.410
21735SOL     OW14043   3.148   1.336   1.338
21735SOL    HW114044   3.109   1.260   1.390
21735SOL    HW214045   3.248   1.327   1.337
21736SOL     OW14046   0.054  15.790   1.647
21736SOL    HW114047  16.980  15.720   1.688
21736SOL    HW214048   0.007  15.878   1.650
21737SOL     OW14049  10.605  14.390   6.642
21737SOL    HW114050  10.642  14.297   6.635
21737SOL    HW214051  10.596  14.429   6.551
21738SOL     OW14052   6.657   6.676   7.840
21738SOL    HW114053   6.562   6.706   7.841
21738SOL    HW214054   6.712   6.738   7.897
21739SOL     OW14055  11.501  11.260   6.714
21739SOL    HW114056  11.433  11.321   6.673
21739SOL    HW214057  11.469  11.166   6.706
21740SOL     OW14058  15.174   7.367   7.471
21740SOL    HW114059  15.170   7.267   7.478
21740SOL    HW214060  15.083   7.403   7.449
21741SOL     OW14061  11.302  15.317   1.292
21741SOL    HW114062  11.351  15.297   1.377
21741SOL    HW214063  11.331  15.406   1.257
21742SOL     OW14064   3.256  15.607   7.830
21742SOL    HW114065   3.186  15.662   7.786
21742SOL    HW214066   3.336  15.601   7.770
21743SOL     OW14067  15.751  14.025   7.240
21743SOL    HW114068  15.798  14.096   7.293
21743SOL    HW214069  15.652  14.037   7.248
21744SOL     OW14070   5.906   7.525   7.148
21744SOL    HW114071   5.980   7.576   7.191
21744SOL    HW214072   5.818   7.554   7.186
21745SOL     OW14073  16.812   1.403   7.226
21745SOL    HW114074  16.726   1.359   7.250
21745SOL    HW214075  16.856   1.439   7.309
21746SOL     OW14076  11.663   7.097   7.543
21746SOL    HW114077  11.659   7.186   7.498
21746SOL    HW214078  11.755   7.059   7.535
21747SOL     OW14079   2.032  16.180   0.300
21747SOL    HW114080   2.124  16.193   0.265
21747SOL    HW214081   2.009  16.082   0.299
21748SOL     OW14082   3.452   7.937   8.142
21748SOL    HW114083   3.506   7.873   8.088
21748SOL    HW214084   3.355   7.912   8.137
21749SOL     OW14085   7.927   5.641   7.017
21749SOL    HW114086   8.019   5.644   7.056
21749SOL    HW214087   7.903   5.546   6.996
21750SOL     OW14088  10.502  13.621   2.135
21750SOL    HW114089  10.470  13.639   2.228
21750SOL    HW214090  10.602  13.625   2.132
21751SOL     OW14091   7.095   9.379   1.460
21751SOL    HW114092   7.169   9.365   1.394
21751SOL    HW214093   7.107   9.467   1.505
21752SOL     OW14094   0.014   5.763   1.262
21752SOL    HW114095   0.049   5.748   1.169
21752SOL    HW214096  16.898   5.754   1.261
21753SOL     OW14097   8.298   6.501   8.179
21753SOL    HW114098   8.296   6.578   8.244
21753SOL    HW214099   8.380   6.446   8.196
21754SOL     OW14100   3.630   0.915   7.887
21754SOL    HW114101   3.576   0.999   7.894
21754SOL    HW214102   3.648   0.894   7.790
21755SOL     OW14103   8.361  15.475   7.058
21755SOL    HW114104   8.326  15.487   7.150
21755SOL    HW214105   8.431  15.544   7.039
21756SOL     OW14106   1.318   9.746   1.897
21756SOL    HW114107   1.331   9.649   1.878
21756SOL    HW214108   1.226   9.761   1.934
21757SOL     OW14109   3.011   9.698   8.370
21757SOL    HW114110   3.032   9.609   8.330
21757SOL    HW214111   2.935   9.688   8.434
21758SOL     OW14112  12.930   7.155   0.716
21758SOL    HW114113  12.977   7.141   0.629
21758SOL    HW214114  12.878   7.072   0.739
21759SOL     OW14115  16.611   4.657   6.756
21759SOL    HW114116  16.553   4.719   6.702
21759SOL    HW214117  16.689   4.629   6.700
21760SOL     OW14118   3.931   5.833   8.291
21760SOL    HW114119   3.833   5.825   8.272
21760SOL    HW214120   3.944   5.859   8.387
21761SOL     OW14121  16.430   1.787   1.207
21761SOL    HW114122  16.351   1.733   1.237
21761SOL    HW214123  16.399   1.859   1.144
21762SOL     OW14124  15.724   1.792   6.898
21762SOL    HW114125  15.769   1.705   6.880
21762SOL    HW214126  15.749   1.858   6.828
21763SOL     OW14127   2.987   3.743   1.049
21763SOL    HW114128   3.062   3.806   1.034
21763SOL    HW214129   3.022   3.655   1.082
21764SOL     OW14130   4.992  11.534   7.604
21764SOL    HW114131   5.007  11.606   7.536
21764SOL    HW214132   5.081  11.509   7.644
21765SOL     OW14133   9.655   9.424   7.063
21765SOL    HW114134   9.616   9.515   7.077
21765SOL    HW214135   9.743   9.418   7.108
21766SOL     OW14136  12.424   0.417   0.033
21766SOL    HW114137  12.484   0.494   0.058
21766SOL    HW214138  12.436   0.343   0.100
21767SOL     OW14139   2.993   1.800   7.252
21767SOL    HW114140   3.017   1.703   7.247
21767SOL    HW214141   3.041   1.842   7.329
21768SOL     OW14142   8.394   2.003   8.397
21768SOL    HW114143   8.418   2.081   0.002
21768SOL    HW214144   8.410   2.028   8.301
21769SOL     OW14145   1.793   0.874   6.741
21769SOL    HW114146   1.753   0.834   6.658
21769SOL    HW214147   1.811   0.802   6.807
21770SOL     OW14148   4.265  16.386   1.106
21770SOL    HW114149   4.170  16.361   1.086
21770SOL    HW214150   4.279  16.483   1.087
21771SOL     OW14151   3.006  10.243   8.319
21771SOL    HW114152   2.984  10.145   8.324
21771SOL    HW214153   2.924  10.294   8.293
21772SOL     OW14154  11.176   0.510   7.547
21772SOL    HW114155  11.186   0.422   7.592
21772SOL    HW214156  11.116   0.501   7.468
21773SOL     OW14157  13.734  15.553   7.669
21773SOL    HW114158  13.701  15.531   7.577
21773SOL    HW214159  13.828  15.586   7.663
21774SOL     OW14160   2.388  14.046   7.422
21774SOL    HW114161   2.431  13.957   7.435
21774SOL    HW214162   2.411  14.082   7.332
21775SOL     OW14163   0.957   0.541   7.398
21775SOL    HW114164   0.997   0.468   7.343
21775SOL    HW214165   0.990   0.630   7.365
21776SOL     OW14166   9.373  12.879   0.199
21776SOL    HW114167   9.289  12.924   0.226
21776SOL    HW214168   9.370  12.855   0.102
21777SOL     OW14169   8.881  13.746   8.311
21777SOL    HW114170   8.826  13.799   8.247
21777SOL    HW214171   8.943  13.687   8.261
21778SOL     OW14172   1.414  12.674   1.466
21778SOL    HW114173   1.357  12.700   1.544
21778SOL    HW214174   1.356  12.647   1.389
21779SOL     OW14175   4.309  15.249   7.126
21779SOL    HW114176   4.234  15.278   7.185
21779SOL    HW214177   4.300  15.151   7.106
21780SOL     OW14178   2.801   5.223   7.903
21780SOL    HW114179   2.869   5.177   7.846
21780SOL    HW214180   2.745   5.284   7.846
21781SOL     OW14181   7.500   3.009   6.586
21781SOL    HW114182   7.407   3.037   6.564
21781SOL    HW214183   7.560   3.027   6.508
21782SOL     OW14184  13.943   1.713   1.103
21782SOL    HW114185  14.040   1.697   1.084
21782SOL    HW214186  13.922   1.682   1.196
21783SOL     OW14187   9.829   8.441   1.201
21783SOL    HW114188   9.759   8.403   1.142
21783SOL    HW214189   9.864   8.370   1.262
21784SOL     OW14190  10.255   7.598   0.592
21784SOL    HW114191  10.280   7.532   0.663
21784SOL    HW214192  10.200   7.671   0.632
21785SOL     OW14193  12.596   0.050   0.412
21785SOL    HW114194  12.616   0.138   0.370
21785SOL    HW214195  12.626  16.959   0.352
21786SOL     OW14196  14.402  12.779   7.010
21786SOL    HW114197  14.334  12.847   6.982
21786SOL    HW214198  14.401  12.770   7.110
21787SOL     OW14199  16.412  14.369   2.223
21787SOL    HW114200  16.319  14.390   2.253
21787SOL    HW214201  16.473  14.368   2.301
21788SOL     OW14202   7.915   2.704   8.114
21788SOL    HW114203   7.905   2.802   8.101
21788SOL    HW214204   7.980   2.687   8.189
21789SOL     OW14205  13.102   2.390   0.490
21789SOL    HW114206  13.010   2.351   0.480
21789SOL    HW214207  13.102   2.456   0.564
21790SOL     OW14208   7.516   6.934   1.161
21790SOL    HW114209   7.574   6.856   1.186
21790SOL    HW214210   7.423   6.920   1.196
21791SOL     OW14211  10.501   3.996   6.045
21791SOL    HW114212  10.538   4.006   6.137
21791SOL    HW214213  10.474   4.085   6.010
21792SOL     OW14214   9.342  14.878   7.257
21792SOL    HW114215   9.378  14.821   7.182
21792SOL    HW214216   9.406  14.952   7.276
21793SOL     OW14217  14.286  16.477   8.392
21793SOL    HW114218  14.276  16.530   8.307
21793SOL    HW214219  14.346  16.399   8.375
21794SOL     OW14220   4.870  15.325   1.189
21794SOL    HW114221   4.770  15.330   1.198
21794SOL    HW214222   4.901  15.234   1.214
21795SOL     OW14223  10.017   6.983   7.946
21795SOL    HW114224   9.963   6.938   8.017
21795SOL    HW214225   9.966   7.063   7.912
21796SOL     OW14226   2.676   1.811   0.169
21796SOL    HW114227   2.635   1.899   0.194
21796SOL    HW214228   2.726   1.821   0.083
21797SOL     OW14229  15.794  13.646   1.024
21797SOL    HW114230  15.830  13.724   1.075
21797SOL    HW214231  15.857  13.620   0.952
21798SOL     OW14232  10.372  15.014   1.127
21798SOL    HW114233  10.281  14.974   1.118
21798SOL    HW214234  10.366  15.099   1.181
21799SOL     OW14235  13.949   9.950   7.305
21799SOL    HW114236  13.977   9.994   7.220
21799SOL    HW214237  14.024   9.895   7.340
21800SOL     OW14238   2.975   3.623   6.756
21800SOL    HW114239   2.996   3.719   6.774
21800SOL    HW214240   3.017   3.595   6.670
21801SOL     OW14241   1.812  13.213   0.589
21801SOL    HW114242   1.712  13.208   0.594
21801SOL    HW214243   1.842  13.188   0.497
21802SOL     OW14244  15.674  16.314   0.347
21802SOL    HW114245  15.691  16.222   0.384
21802SOL    HW214246  15.608  16.362   0.404
21803SOL     OW14247   3.842  16.840   1.219
21803SOL    HW114248   3.926  16.892   1.208
21803SOL    HW214249   3.773  16.873   1.155
21804SOL     OW14250   2.448   0.287   2.077
21804SOL    HW114251   2.420   0.308   2.171
21804SOL    HW214252   2.545   0.264   2.075
21805SOL     OW14253   6.012   1.023   6.236
21805SOL    HW114254   6.043   1.118   6.242
21805SOL    HW214255   6.060   0.977   6.161
21806SOL     OW14256   9.001  15.178   1.420
21806SOL    HW114257   9.054  15.203   1.501
21806SOL    HW214258   9.050  15.107   1.369
21807SOL     OW14259   7.293  15.877   0.599
21807SOL    HW114260   7.199  15.907   0.615
21807SOL    HW214261   7.297  15.829   0.511
21808SOL     OW14262  10.310   9.455   0.601
21808SOL    HW114263  10.270   9.469   0.691
21808SOL    HW214264  10.237   9.447   0.532
21809SOL     OW14265  10.715  16.376   7.649
21809SOL    HW114266  10.796  16.321   7.630
21809SOL    HW214267  10.670  16.342   7.732
21810SOL     OW14268   1.066  12.501   7.891
21810SOL    HW114269   1.121  12.582   7.874
21810SOL    HW214270   0.969  12.522   7.879
21811SOL     OW14271  16.664  14.587   1.576
21811SOL    HW114272  16.724  14.665   1.556
21811SOL    HW214273  16.605  14.609   1.653
21812SOL     OW14274   2.558  11.365   6.605
21812SOL    HW114275   2.496  11.289   6.588
21812SOL    HW214276   2.599  11.355   6.696
21813SOL     OW14277  13.472  11.029   1.924
21813SOL    HW114278  13.502  11.105   1.866
21813SOL    HW214279  13.530  10.950   1.907
21814SOL     OW14280  16.401  10.697   7.712
21814SOL    HW114281  16.383  10.709   7.614
21814SOL    HW214282  16.327  10.740   7.765
21815SOL     OW14283  16.115  10.541   8.313
21815SOL    HW114284  16.103  10.618   8.376
21815SOL    HW214285  16.102  10.455   8.363
21816SOL     OW14286  16.463   5.741   5.981
21816SOL    HW114287  16.513   5.813   5.933
21816SOL    HW214288  16.480   5.653   5.936
21817SOL     OW14289   6.194   6.743   1.229
21817SOL    HW114290   6.251   6.689   1.168
21817SOL    HW214291   6.208   6.840   1.210
21818SOL     OW14292   1.945   5.443   7.147
21818SOL    HW114293   2.031   5.454   7.197
21818SOL    HW214294   1.896   5.530   7.146
21819SOL     OW14295  14.235   2.557   1.305
21819SOL    HW114296  14.275   2.546   1.396
21819SOL    HW214297  14.301   2.530   1.236
21820SOL     OW14298   8.750  13.750   0.737
21820SOL    HW114299   8.822  13.709   0.681
21820SOL    HW214300   8.667  13.693   0.732
21821SOL     OW14301   5.345   8.439   2.028
21821SOL    HW114302   5.348   8.484   1.940
21821SOL    HW214303   5.298   8.497   2.094
21822SOL     OW14304   1.205   9.823   1.146
21822SOL    HW114305   1.120   9.839   1.095
21822SOL    HW214306   1.183   9.790   1.237
21823SOL     OW14307  11.317  15.768   2.106
21823SOL    HW114308  11.400  15.798   2.154
21823SOL    HW214309  11.237  15.788   2.161
21824SOL     OW14310   0.353  14.072   8.308
21824SOL    HW114311   0.328  14.159   8.266
21824SOL    HW214312   0.361  14.002   8.237
21825SOL     OW14313  16.976   4.803   1.034
21825SOL    HW114314  16.905   4.736   1.011
21825SOL    HW214315  16.951   4.851   1.118
21826SOL     OW14316  10.031  16.070   1.208
21826SOL    HW114317   9.945  16.023   1.187
21826SOL    HW214318  10.084  16.015   1.273
21827SOL     OW14319  11.697  16.130   0.539
21827SOL    HW114320  11.732  16.213   0.495
21827SOL    HW214321  11.608  16.107   0.499
21828SOL     OW14322  14.858   9.261   1.488
21828SOL    HW114323  14.836   9.272   1.584
21828SOL    HW214324  14.890   9.348   1.450
21829SOL     OW14325  16.022  10.225   0.534
21829SOL    HW114326  15.929  10.257   0.553
21829SOL    HW214327  16.018  10.140   0.482
21830SOL     OW14328   3.132  13.062   7.664
21830SOL    HW114329   3.148  13.151   7.707
21830SOL    HW214330   3.201  13.046   7.594
21831SOL     OW14331  12.475  12.132   7.957
21831SOL    HW114332  12.540  12.131   8.034
21831SOL    HW214333  12.516  12.179   7.879
21832SOL     OW14334  15.448   8.016   0.760
21832SOL    HW114335  15.545   8.032   0.741
21832SOL    HW214336  15.437   7.929   0.807
21833SOL     OW14337  12.162  16.725   7.953
21833SOL    HW114338  12.091  16.658   7.970
21833SOL    HW214339  12.122  16.808   7.915
21834SOL     OW14340   8.866  10.946   6.479
21834SOL    HW114341   8.806  10.990   6.413
21834SOL    HW214342   8.906  10.864   6.437
21835SOL     OW14343   3.150   7.071   7.278
21835SOL    HW114344   3.122   7.060   7.183
21835SOL    HW214345   3.143   7.167   7.304
21836SOL     OW14346   6.483   5.778   1.636
21836SOL    HW114347   6.475   5.751   1.732
21836SOL    HW214348   6.476   5.697   1.578
21837SOL     OW14349   3.543   1.118   7.618
21837SOL    HW114350   3.548   1.018   7.618
21837SOL    HW214351   3.622   1.155   7.569
21838SOL     OW14352   6.408  10.964   6.972
21838SOL    HW114353   6.497  10.983   6.930
21838SOL    HW214354   6.406  11.003   7.064
21839SOL     OW14355   7.842   7.551   7.955
21839SOL    HW114356   7.931   7.528   7.995
21839SOL    HW214357   7.770   7.500   8.002
21840SOL     OW14358  16.035   3.280   0.566
21840SOL    HW114359  15.979   3.199   0.580
21840SOL    HW214360  16.096   3.266   0.488
21841SOL     OW14361   3.231  12.349   1.347
21841SOL    HW114362   3.135  12.324   1.362
21841SOL    HW214363   3.242  12.448   1.360
21842SOL     OW14364   1.559  16.562   7.069
21842SOL    HW114365   1.556  16.581   7.167
21842SOL    HW214366   1.614  16.632   7.023
21843SOL     OW14367   1.770  14.004   2.177
21843SOL    HW114368   1.756  14.092   2.223
21843SOL    HW214369   1.690  13.984   2.120
21844SOL     OW14370  14.760   5.409   6.769
21844SOL    HW114371  14.717   5.320   6.781
21844SOL    HW214372  14.758   5.434   6.673
21845SOL     OW14373  12.727   2.460   1.067
21845SOL    HW114374  12.741   2.555   1.096
21845SOL    HW214375  12.655   2.458   0.997
21846SOL     OW14376  11.383   3.088   1.320
21846SOL    HW114377  11.385   3.019   1.392
21846SOL    HW214378  11.458   3.153   1.333
21847SOL     OW14379   4.905   8.511   7.481
21847SOL    HW114380   4.843   8.526   7.404
21847SOL    HW214381   4.985   8.460   7.451
21848SOL     OW14382  12.046   0.176   1.570
21848SOL    HW114383  12.128   0.124   1.546
21848SOL    HW214384  11.966   0.130   1.531
21849SOL     OW14385  10.121  11.807   7.649
21849SOL    HW114386  10.062  11.791   7.570
21849SOL    HW214387  10.092  11.891   7.695
21850SOL     OW14388  10.649  13.096   1.421
21850SOL    HW114389  10.617  13.012   1.377
21850SOL    HW214390  10.735  13.124   1.380
21851SOL     OW14391   5.719  13.149   2.056
21851SOL    HW114392   5.725  13.056   2.091
21851SOL    HW214393   5.809  13.194   2.064
21852SOL     OW14394   7.868   0.201   7.446
21852SOL    HW114395   7.777   0.231   7.416
21852SOL    HW214396   7.884   0.107   7.415
21853SOL     OW14397   7.183   3.756   6.569
21853SOL    HW114398   7.145   3.769   6.477
21853SOL    HW214399   7.256   3.823   6.584
21854SOL     OW14400  10.724  13.013   7.988
21854SOL    HW114401  10.712  13.108   7.960
21854SOL    HW214402  10.822  12.992   7.992
21855SOL     OW14403  14.104   6.219   7.696
21855SOL    HW114404  14.192   6.258   7.722
21855SOL    HW214405  14.094   6.128   7.737
21856SOL     OW14406   1.343  16.041   0.072
21856SOL    HW114407   1.303  16.067   8.438
21856SOL    HW214408   1.346  16.122   0.131
21857SOL     OW14409   7.299  14.990   7.537
21857SOL    HW114410   7.204  15.016   7.523
21857SOL    HW214411   7.315  14.899   7.498
21858SOL     OW14412   2.429   8.412   0.252
21858SOL    HW114413   2.496   8.410   0.178
21858SOL    HW214414   2.416   8.506   0.282
21859SOL     OW14415  15.162   3.260   0.848
21859SOL    HW114416  15.175   3.335   0.913
21859SOL    HW214417  15.064   3.237   0.843
21860SOL     OW14418  16.001   5.007   5.926
21860SOL    HW114419  16.024   4.941   5.855
21860SOL    HW214420  15.971   5.093   5.884
21861SOL     OW14421   8.647   1.552   8.003
21861SOL    HW114422   8.731   1.572   7.952
21861SOL    HW214423   8.646   1.607   8.086
21862SOL     OW14424   0.239   1.114   0.786
21862SOL    HW114425   0.264   1.130   0.882
21862SOL    HW214426   0.180   1.188   0.754
21863SOL     OW14427  16.325  10.133   7.274
21863SOL    HW114428  16.318  10.156   7.371
21863SOL    HW214429  16.257  10.185   7.223
21864SOL     OW14430  11.588   2.892   6.298
21864SOL    HW114431  11.501   2.941   6.302
21864SOL    HW214432  11.615   2.865   6.390
21865SOL     OW14433   1.818   9.027   0.254
21865SOL    HW114434   1.874   9.059   0.177
21865SOL    HW214435   1.772   8.942   0.228
21866SOL     OW14436   4.911   9.058   1.327
21866SOL    HW114437   4.963   8.978   1.297
21866SOL    HW214438   4.931   9.078   1.422
21867SOL     OW14439  16.120   6.898   5.923
21867SOL    HW114440  16.162   6.981   5.959
21867SOL    HW214441  16.189   6.826   5.914
21868SOL     OW14442  14.202   9.336   2.330
21868SOL    HW114443  14.170   9.427   2.303
21868SOL    HW214444  14.124   9.273   2.333
21869SOL     OW14445  12.478  12.944   0.731
21869SOL    HW114446  12.388  12.977   0.702
21869SOL    HW214447  12.468  12.885   0.811
21870SOL     OW14448   1.432  16.032   2.142
21870SOL    HW114449   1.362  15.966   2.112
21870SOL    HW214450   1.406  16.070   2.231
21871SOL     OW14451  13.932   2.634   0.935
21871SOL    HW114452  13.946   2.601   1.028
21871SOL    HW214453  13.975   2.724   0.924
21872SOL     OW14454  16.189  13.846   6.549
21872SOL    HW114455  16.225  13.764   6.505
21872SOL    HW214456  16.096  13.863   6.517
21873SOL     OW14457  12.189   3.546   8.339
21873SOL    HW114458  12.166   3.643   8.340
21873SOL    HW214459  12.279   3.532   8.379
21874SOL     OW14460  11.703   1.892   0.716
21874SOL    HW114461  11.797   1.923   0.731
21874SOL    HW214462  11.677   1.829   0.789
21875SOL     OW14463  12.744  11.884   7.759
21875SOL    HW114464  12.766  11.910   7.853
21875SOL    HW214465  12.758  11.961   7.698
21876SOL     OW14466   4.888   6.562   0.815
21876SOL    HW114467   4.870   6.471   0.777
21876SOL    HW214468   4.907   6.626   0.741
21877SOL     OW14469   2.593   5.646   7.897
21877SOL    HW114470   2.549   5.728   7.862
21877SOL    HW214471   2.573   5.636   7.994
21878SOL     OW14472   9.311  12.751   1.191
21878SOL    HW114473   9.289  12.664   1.148
21878SOL    HW214474   9.339  12.735   1.286
21879SOL     OW14475   1.790  11.109   0.186
21879SOL    HW114476   1.690  11.113   0.196
21879SOL    HW214477   1.814  11.110   0.089
21880SOL     OW14478   8.801  14.811   6.619
21880SOL    HW114479   8.829  14.831   6.525
21880SOL    HW214480   8.854  14.867   6.683
21881SOL     OW14481  14.082   0.579   0.279
21881SOL    HW114482  14.058   0.666   0.322
21881SOL    HW214483  14.176   0.555   0.301
21882SOL     OW14484  15.333   9.581   1.035
21882SOL    HW114485  15.298   9.624   0.951
21882SOL    HW214486  15.420   9.536   1.016
21883SOL     OW14487   2.128  12.818   6.716
21883SOL    HW114488   2.106  12.882   6.642
21883SOL    HW214489   2.087  12.729   6.697
21884SOL     OW14490   0.690  14.726   1.015
21884SOL    HW114491   0.686  14.824   0.997
21884SOL    HW214492   0.786  14.698   1.026
21885SOL     OW14493   5.186   7.715   1.447
21885SOL    HW114494   5.167   7.708   1.545
21885SOL    HW214495   5.176   7.810   1.417
21886SOL     OW14496  13.604   5.372   6.231
21886SOL    HW114497  13.622   5.360   6.328
21886SOL    HW214498  13.682   5.415   6.187
21887SOL     OW14499  13.794  10.087   7.489
21887SOL    HW114500  13.852  10.032   7.429
21887SOL    HW214501  13.827  10.182   7.490
21888SOL     OW14502   4.550  10.929   8.137
21888SOL    HW114503   4.640  10.887   8.122
21888SOL    HW214504   4.479  10.859   8.131
21889SOL     OW14505  15.607   7.647   7.908
21889SOL    HW114506  15.532   7.582   7.922
21889SOL    HW214507  15.576   7.740   7.930
21890SOL     OW14508   5.944   5.432   0.339
21890SOL    HW114509   5.938   5.334   0.359
21890SOL    HW214510   5.949   5.445   0.240
21891SOL     OW14511  14.217  16.118   1.863
21891SOL    HW114512  14.122  16.098   1.843
21891SOL    HW214513  14.251  16.054   1.932
21892SOL     OW14514  13.679  12.732   0.663
21892SOL    HW114515  13.674  12.634   0.680
21892SOL    HW214516  13.637  12.752   0.574
21893SOL     OW14517  16.217   7.919   7.428
21893SOL    HW114518  16.238   7.848   7.496
21893SOL    HW214519  16.151   7.882   7.362
21894SOL     OW14520   5.445   1.102   1.440
21894SOL    HW114521   5.515   1.041   1.404
21894SOL    HW214522   5.443   1.094   1.540
21895SOL     OW14523   4.591  15.540   1.678
21895SOL    HW114524   4.597  15.607   1.753
21895SOL    HW214525   4.521  15.570   1.613
21896SOL     OW14526   5.838   9.379   0.856
21896SOL    HW114527   5.891   9.363   0.939
21896SOL    HW214528   5.774   9.454   0.871
21897SOL     OW14529  10.619   2.955   8.272
21897SOL    HW114530  10.612   2.957   8.371
21897SOL    HW214531  10.607   3.047   8.235
21898SOL     OW14532  14.343   0.499   0.019
21898SOL    HW114533  14.272   0.431   0.002
21898SOL    HW214534  14.341   0.568   8.401
21899SOL     OW14535  13.306   3.177   6.869
21899SOL    HW114536  13.291   3.079   6.876
21899SOL    HW214537  13.293   3.206   6.774
21900SOL     OW14538  13.413   4.339   8.389
21900SOL    HW114539  13.489   4.348   8.325
21900SOL    HW214540  13.336   4.295   8.344
21901SOL     OW14541  16.273   3.885   8.280
21901SOL    HW114542  16.341   3.956   8.262
21901SOL    HW214543  16.182   3.919   8.259
21902SOL     OW14544  16.767   8.499   0.961
21902SOL    HW114545  16.848   8.447   0.989
21902SOL    HW214546  16.707   8.440   0.908
21903SOL     OW14547  11.701  15.387   0.199
21903SOL    HW114548  11.660  15.317   0.257
21903SOL    HW214549  11.755  15.450   0.255
21904SOL     OW14550   5.983   2.101   7.789
21904SOL    HW114551   5.903   2.097   7.849
21904SOL    HW214552   6.054   2.155   7.833
21905SOL     OW14553   1.266   6.920   7.243
21905SOL    HW114554   1.325   7.000   7.254
21905SOL    HW214555   1.289   6.853   7.314
21906SOL     OW14556   1.143   0.685   0.122
21906SOL    HW114557   1.045   0.686   0.102
21906SOL    HW214558   1.162   0.748   0.198
21907SOL     OW14559  11.304   7.592   0.512
21907SOL    HW114560  11.372   7.521   0.492
21907SOL    HW214561  11.295   7.603   0.611
21908SOL     OW14562  11.517  13.040   7.032
21908SOL    HW114563  11.441  12.995   7.078
21908SOL    HW214564  11.603  13.011   7.074
21909SOL     OW14565  15.892  14.046   8.161
21909SOL    HW114566  15.910  14.032   8.064
21909SOL    HW214567  15.830  13.975   8.194
21910SOL     OW14568  10.572   0.749   1.014
21910SOL    HW114569  10.548   0.778   1.107
21910SOL    HW214570  10.532   0.813   0.948
21911SOL     OW14571   2.365   8.640   8.245
21911SOL    HW114572   2.269   8.663   8.233
21911SOL    HW214573   2.410   8.711   8.300
21912SOL     OW14574   9.027   5.237   6.523
21912SOL    HW114575   9.004   5.312   6.461
21912SOL    HW214576   9.117   5.251   6.562
21913SOL     OW14577  11.948   8.986   0.327
21913SOL    HW114578  11.891   8.924   0.273
21913SOL    HW214579  12.005   9.041   0.265
21914SOL     OW14580  16.155   9.965   8.238
21914SOL    HW114581  16.174   9.932   8.330
21914SOL    HW214582  16.082  10.034   8.242
21915SOL     OW14583  14.912   3.145   7.438
21915SOL    HW114584  14.821   3.177   7.411
21915SOL    HW214585  14.923   3.049   7.411
21916SOL     OW14586   4.694   7.051   2.254
21916SOL    HW114587   4.624   7.053   2.183
21916SOL    HW214588   4.651   7.056   2.344
21917SOL     OW14589   0.157   3.062   7.495
21917SOL    HW114590   0.065   3.064   7.535
21917SOL    HW214591   0.177   3.150   7.453
21918SOL     OW14592  16.814   0.521   7.096
21918SOL    HW114593  16.912   0.541   7.104
21918SOL    HW214594  16.775   0.576   7.023
21919SOL     OW14595  11.570   1.242   7.661
21919SOL    HW114596  11.660   1.273   7.630
21919SOL    HW214597  11.501   1.265   7.592
21920SOL     OW14598  12.418  11.990   8.420
21920SOL    HW114599  12.359  11.911   8.402
21920SOL    HW214600  12.460  11.981   0.056
21921SOL     OW14601  10.006   3.707   7.916
21921SOL    HW114602  10.051   3.752   7.839
21921SOL    HW214603   9.977   3.615   7.889
21922SOL     OW14604   5.103   4.302   0.054
21922SOL    HW114605   5.069   4.209   0.067
21922SOL    HW214606   5.049   4.365   0.109
21923SOL     OW14607  16.189   4.001   6.175
21923SOL    HW114608  16.205   3.989   6.077
21923SOL    HW214609  16.097   3.969   6.198
21924SOL     OW14610  14.465  16.115   0.007
21924SOL    HW114611  14.526  16.041   8.432
21924SOL    HW214612  14.459  16.183   8.388
21925SOL     OW14613   3.706  13.499   0.519
21925SOL    HW114614   3.722  13.486   0.421
21925SOL    HW214615   3.680  13.412   0.561
21926SOL     OW14616   0.980   9.850   1.005
21926SOL    HW114617   0.901   9.788   1.006
21926SOL    HW214618   0.956   9.933   0.953
21927SOL     OW14619   2.437  13.590   1.272
21927SOL    HW114620   2.527  13.621   1.302
21927SOL    HW214621   2.418  13.626   1.181
21928SOL     OW14622  12.534  13.513   0.881
21928SOL    HW114623  12.479  13.481   0.803
21928SOL    HW214624  12.567  13.606   0.863
21929SOL     OW14625   7.764  13.204   0.569
21929SOL    HW114626   7.791  13.264   0.494
21929SOL    HW214627   7.828  13.128   0.577
21930SOL     OW14628  10.365  10.446   7.716
21930SOL    HW114629  10.285  10.387   7.728
21930SOL    HW214630  10.356  10.527   7.774
21931SOL     OW14631   9.636   4.510   1.179
21931SOL    HW114632   9.695   4.553   1.111
21931SOL    HW214633   9.634   4.567   1.262
21932SOL     OW14634  12.963  13.494   8.221
21932SOL    HW114635  12.997  13.426   8.287
21932SOL    HW214636  12.929  13.447   8.139
21933SOL     OW14637   5.706   2.179   8.417
21933SOL    HW114638   5.625   2.155   8.364
21933SOL    HW214639   5.788   2.148   8.368
21934SOL     OW14640   7.491  16.308   7.238
21934SOL    HW114641   7.521  16.218   7.269
21934SOL    HW214642   7.393  16.305   7.218
21935SOL     OW14643  11.951  11.689   7.260
21935SOL    HW114644  11.883  11.658   7.327
21935SOL    HW214645  11.960  11.621   7.187
21936SOL     OW14646  15.400   1.116   7.563
21936SOL    HW114647  15.498   1.126   7.579
21936SOL    HW214648  15.365   1.201   7.522
21937SOL     OW14649  16.671   3.257   1.417
21937SOL    HW114650  16.596   3.269   1.351
21937SOL    HW214651  16.637   3.273   1.510
21938SOL     OW14652   1.196  15.529   7.252
21938SOL    HW114653   1.198  15.500   7.348
21938SOL    HW214654   1.200  15.449   7.193
21939SOL     OW14655   9.929  11.508   0.414
21939SOL    HW114656   9.893  11.476   0.327
21939SOL    HW214657  10.028  11.490   0.418
21940SOL     OW14658   2.656   1.027   0.695
21940SOL    HW114659   2.620   1.074   0.776
21940SOL    HW214660   2.692   0.938   0.723
21941SOL     OW14661   6.683   5.545   6.467
21941SOL    HW114662   6.714   5.595   6.548
21941SOL    HW214663   6.635   5.462   6.494
21942SOL     OW14664   0.789   7.978   7.487
21942SOL    HW114665   0.874   7.932   7.462
21942SOL    HW214666   0.740   7.922   7.554
21943SOL     OW14667   7.870   6.653   6.312
21943SOL    HW114668   7.816   6.702   6.243
21943SOL    HW214669   7.967   6.663   6.291
21944SOL     OW14670   8.717   0.181   8.056
21944SOL    HW114671   8.715   0.242   7.977
21944SOL    HW214672   8.783   0.108   8.039
21945SOL     OW14673  15.041   8.612   7.101
21945SOL    HW114674  14.988   8.547   7.046
21945SOL    HW214675  15.061   8.693   7.046
21946SOL     OW14676   0.826  11.598   1.200
21946SOL    HW114677   0.887  11.659   1.150
21946SOL    HW214678   0.766  11.651   1.259
21947SOL     OW14679   4.725  15.623   0.347
21947SOL    HW114680   4.752  15.616   0.443
21947SOL    HW214681   4.667  15.545   0.323
21948SOL     OW14682   0.536   3.107   1.470
21948SOL    HW114683   0.470   3.152   1.530
21948SOL    HW214684   0.624   3.155   1.477
21949SOL     OW14685   7.871  13.691   0.455
21949SOL    HW114686   7.775  13.666   0.461
21949SOL    HW214687   7.918  13.663   0.539
21950SOL     OW14688  15.985  13.484   1.865
21950SOL    HW114689  15.896  13.517   1.894
21950SOL    HW214690  15.982  13.384   1.855
21951SOL     OW14691   3.958   0.465   8.038
21951SOL    HW114692   3.952   0.487   8.135
21951SOL    HW214693   3.918   0.540   7.984
21952SOL     OW14694   2.978  16.616   2.613
21952SOL    HW114695   2.974  16.680   2.690
21952SOL    HW214696   2.885  16.596   2.582
21953SOL     OW14697  16.358   7.014   7.018
21953SOL    HW114698  16.440   6.970   6.982
21953SOL    HW214699  16.356   7.110   6.989
21954SOL     OW14700   8.745  12.836   1.407
21954SOL    HW114701   8.797  12.810   1.488
21954SOL    HW214702   8.798  12.814   1.325
21955SOL     OW14703   9.223  11.893   1.821
21955SOL    HW114704   9.237  11.951   1.901
21955SOL    HW214705   9.150  11.827   1.840
21956SOL     OW14706  12.498  16.406   1.461
21956SOL    HW114707  12.562  16.354   1.517
21956SOL    HW214708  12.475  16.492   1.507
21957SOL     OW14709   8.098   0.270   6.124
21957SOL    HW114710   8.069   0.210   6.050
21957SOL    HW214711   8.184   0.315   6.100
21958SOL     OW14712  11.516  15.843   7.307
21958SOL    HW114713  11.468  15.778   7.366
21958SOL    HW214714  11.478  15.840   7.215
21959SOL     OW14715   4.852   8.702   1.332
21959SOL    HW114716   4.934   8.750   1.300
21959SOL    HW214717   4.819   8.744   1.416
21960SOL     OW14718  13.631   7.049   6.240
21960SOL    HW114719  13.709   7.110   6.220
21960SOL    HW214720  13.589   7.020   6.155
21961SOL     OW14721   4.680   5.413   1.685
21961SOL    HW114722   4.739   5.374   1.756
21961SOL    HW214723   4.584   5.398   1.710
21962SOL     OW14724   8.362   8.046   1.098
21962SOL    HW114725   8.300   8.060   1.021
21962SOL    HW214726   8.441   7.992   1.070
21963SOL     OW14727   1.245   4.675   0.557
21963SOL    HW114728   1.325   4.700   0.612
21963SOL    HW214729   1.253   4.580   0.528
21964SOL     OW14730   5.210   8.067   6.524
21964SOL    HW114731   5.257   8.022   6.448
21964SOL    HW214732   5.112   8.047   6.518
21965SOL     OW14733   8.406  16.456   6.316
21965SOL    HW114734   8.374  16.362   6.327
21965SOL    HW214735   8.463  16.462   6.234
21966SOL     OW14736   3.289  15.903   2.498
21966SOL    HW114737   3.376  15.879   2.540
21966SOL    HW214738   3.215  15.889   2.564
21967SOL     OW14739  12.421  10.002   6.391
21967SOL    HW114740  12.409  10.066   6.468
21967SOL    HW214741  12.414  10.053   6.305
21968SOL     OW14742   3.144  14.865   7.566
21968SOL    HW114743   3.234  14.896   7.536
21968SOL    HW214744   3.149  14.768   7.590
21969SOL     OW14745  15.468   1.902   6.954
21969SOL    HW114746  15.558   1.864   6.931
21969SOL    HW214747  15.462   1.996   6.921
21970SOL     OW14748   4.434  13.584   0.200
21970SOL    HW114749   4.372  13.662   0.208
21970SOL    HW214750   4.523  13.615   0.166
21971SOL     OW14751   6.744  11.535   0.751
21971SOL    HW114752   6.759  11.634   0.757
21971SOL    HW214753   6.645  11.517   0.746
21972SOL     OW14754  10.123  13.659   1.876
21972SOL    HW114755  10.079  13.706   1.952
21972SOL    HW214756  10.100  13.562   1.879
21973SOL     OW14757  11.426   4.424   1.450
21973SOL    HW114758  11.423   4.512   1.497
21973SOL    HW214759  11.333   4.391   1.435
21974SOL     OW14760  15.251  16.913   2.065
21974SOL    HW114761  15.300  16.857   2.132
21974SOL    HW214762  15.277   0.026   2.075
21975SOL     OW14763  10.552   1.889   6.945
21975SOL    HW114764  10.474   1.844   6.901
21975SOL    HW214765  10.621   1.820   6.969
21976SOL     OW14766  10.131  12.839   0.339
21976SOL    HW114767  10.112  12.801   0.429
21976SOL    HW214768  10.075  12.920   0.324
21977SOL     OW14769  15.861   7.373   8.048
21977SOL    HW114770  15.780   7.372   7.989
21977SOL    HW214771  15.877   7.281   8.083
21978SOL     OW14772   0.372   5.791   1.104
21978SOL    HW114773   0.390   5.865   1.040
21978SOL    HW214774   0.348   5.829   1.193
21979SOL     OW14775   5.908  13.449   7.045
21979SOL    HW114776   5.911  13.496   6.957
21979SOL    HW214777   5.862  13.361   7.034
21980SOL     OW14778  15.599   7.260   7.447
21980SOL    HW114779  15.576   7.167   7.417
21980SOL    HW214780  15.650   7.256   7.532
21981SOL     OW14781   2.810   8.068   1.580
21981SOL    HW114782   2.723   8.069   1.630
21981SOL    HW214783   2.842   8.162   1.567
21982SOL     OW14784  14.808  14.094   7.438
21982SOL    HW114785  14.851  14.024   7.494
21982SOL    HW214786  14.714  14.065   7.415
21983SOL     OW14787   3.629  16.192   8.089
21983SOL    HW114788   3.609  16.101   8.125
21983SOL    HW214789   3.612  16.194   7.991
21984SOL     OW14790  16.443  13.818   0.658
21984SOL    HW114791  16.435  13.752   0.732
21984SOL    HW214792  16.469  13.907   0.696
21985SOL     OW14793   4.436  10.728   2.130
21985SOL    HW114794   4.415  10.822   2.103
21985SOL    HW214795   4.426  10.719   2.229
21986SOL     OW14796   3.242   8.262   0.451
21986SOL    HW114797   3.202   8.302   0.533
21986SOL    HW214798   3.336   8.295   0.441
21987SOL     OW14799   2.416   3.004   6.800
21987SOL    HW114800   2.344   3.018   6.733
21987SOL    HW214801   2.494   3.063   6.778
21988SOL     OW14802  12.984  10.528   1.560
21988SOL    HW114803  13.053  10.564   1.497
21988SOL    HW214804  12.942  10.604   1.610
21989SOL     OW14805   4.982   5.725   2.324
21989SOL    HW114806   5.037   5.644   2.344
21989SOL    HW214807   4.891   5.714   2.365
21990SOL     OW14808   0.174   7.516   1.807
21990SOL    HW114809   0.099   7.482   1.865
21990SOL    HW214810   0.256   7.529   1.863
21991SOL     OW14811  14.332   5.832   0.618
21991SOL    HW114812  14.243   5.861   0.653
21991SOL    HW214813  14.357   5.890   0.540
21992SOL     OW14814  16.112   2.121   1.876
21992SOL    HW114815  16.040   2.053   1.869
21992SOL    HW214816  16.091   2.184   1.951
21993SOL     OW14817  15.386   0.924   0.557
21993SOL    HW114818  15.316   0.889   0.620
21993SOL    HW214819  15.341   0.968   0.479
21994SOL     OW14820  15.178  10.809   1.333
21994SOL    HW114821  15.244  10.860   1.387
21994SOL    HW214822  15.216  10.719   1.308
21995SOL     OW14823   3.425   9.918   6.984
21995SOL    HW114824   3.489   9.863   6.931
21995SOL    HW214825   3.342   9.865   7.003
21996SOL     OW14826   3.966  15.151   1.159
21996SOL    HW114827   3.958  15.150   1.059
21996SOL    HW214828   4.000  15.240   1.189
21997SOL     OW14829  13.445  10.735   6.958
21997SOL    HW114830  13.373  10.680   7.001
21997SOL    HW214831  13.405  10.816   6.916
21998SOL     OW14832  13.233  10.917   2.014
21998SOL    HW114833  13.182  10.971   2.080
21998SOL    HW214834  13.309  10.971   1.978
21999SOL     OW14835  15.131   5.618   1.087
21999SOL    HW114836  15.216   5.652   1.047
21999SOL    HW214837  15.149   5.586   1.180
22000SOL     OW14838  14.300   8.799   1.473
22000SOL    HW114839  14.253   8.727   1.523
22000SOL    HW214840  14.308   8.880   1.531
22001SOL     OW14841   5.905   7.485   1.611
22001SOL    HW114842   5.878   7.406   1.667
22001SOL    HW214843   5.878   7.569   1.657
22002SOL     OW14844   4.466   4.260   6.640
22002SOL    HW114845   4.501   4.347   6.608
22002SOL    HW214846   4.420   4.212   6.565
22003SOL     OW14847   5.595   9.326   0.180
22003SOL    HW114848   5.682   9.300   0.138
22003SOL    HW214849   5.613   9.379   0.262
22004SOL     OW14850  14.736  12.426   8.405
22004SOL    HW114851  14.800  12.414   8.330
22004SOL    HW214852  14.670  12.351   8.404
22005SOL     OW14853   4.153   3.615   7.434
22005SOL    HW114854   4.146   3.527   7.481
22005SOL    HW214855   4.101   3.611   7.349
22006SOL     OW14856  12.002  10.723   6.905
22006SOL    HW114857  12.050  10.723   6.993
22006SOL    HW214858  12.049  10.662   6.841
22007SOL     OW14859  16.376  12.259   0.922
22007SOL    HW114860  16.343  12.284   0.831
22007SOL    HW214861  16.300  12.228   0.978
22008SOL     OW14862   2.544  16.232   7.383
22008SOL    HW114863   2.484  16.152   7.386
22008SOL    HW214864   2.535  16.284   7.468
22009SOL     OW14865   7.141  10.239   1.517
22009SOL    HW114866   7.224  10.187   1.538
22009SOL    HW214867   7.119  10.300   1.593
22010SOL     OW14868  11.368  10.377   7.550
22010SOL    HW114869  11.430  10.454   7.562
22010SOL    HW214870  11.283  10.395   7.600
22011SOL     OW14871  13.779   1.653   6.361
22011SOL    HW114872  13.811   1.709   6.284
22011SOL    HW214873  13.708   1.591   6.330
22012SOL     OW14874  10.228   2.148   0.947
22012SOL    HW114875  10.218   2.247   0.957
22012SOL    HW214876  10.298   2.115   1.011
22013SOL     OW14877   6.347   6.568   6.114
22013SOL    HW114878   6.268   6.614   6.075
22013SOL    HW214879   6.417   6.556   6.044
22014SOL     OW14880   9.548   5.721   0.224
22014SOL    HW114881   9.471   5.687   0.169
22014SOL    HW214882   9.614   5.648   0.238
22015SOL     OW14883  12.007   2.271   0.257
22015SOL    HW114884  11.912   2.286   0.232
22015SOL    HW214885  12.059   2.247   0.175
22016SOL     OW14886   3.970   8.342   1.490
22016SOL    HW114887   3.895   8.397   1.528
22016SOL    HW214888   3.992   8.375   1.398
22017SOL     OW14889  12.912  12.606   7.241
22017SOL    HW114890  12.869  12.693   7.218
22017SOL    HW214891  12.946  12.563   7.157
22018SOL     OW14892   1.416   6.534   1.735
22018SOL    HW114893   1.450   6.573   1.821
22018SOL    HW214894   1.352   6.460   1.755
22019SOL     OW14895   8.098  15.637   2.130
22019SOL    HW114896   8.156  15.651   2.210
22019SOL    HW214897   8.139  15.569   2.070
22020SOL     OW14898  14.003  11.910   8.237
22020SOL    HW114899  14.004  11.973   8.315
22020SOL    HW214900  13.914  11.915   8.191
22021SOL     OW14901   8.147  15.501   0.445
22021SOL    HW114902   8.172  15.428   0.508
22021SOL    HW214903   8.152  15.589   0.493
22022SOL     OW14904  15.457  14.728   1.835
22022SOL    HW114905  15.436  14.821   1.865
22022SOL    HW214906  15.377  14.688   1.791
22023SOL     OW14907  15.334   1.187   7.181
22023SOL    HW114908  15.286   1.110   7.138
22023SOL    HW214909  15.363   1.251   7.110
22024SOL     OW14910   1.901   1.040   1.515
22024SOL    HW114911   1.866   1.126   1.553
22024SOL    HW214912   1.937   0.983   1.589
22025SOL     OW14913   7.229  11.816   1.039
22025SOL    HW114914   7.278  11.903   1.034
22025SOL    HW214915   7.219  11.778   0.947
22026SOL     OW14916   2.616   1.308   6.774
22026SOL    HW114917   2.556   1.348   6.705
22026SOL    HW214918   2.673   1.238   6.732
22027SOL     OW14919   9.661   6.305   0.570
22027SOL    HW114920   9.572   6.333   0.534
22027SOL    HW214921   9.669   6.205   0.561
22028SOL     OW14922   7.489  12.524   6.670
22028SOL    HW114923   7.456  12.431   6.650
22028SOL    HW214924   7.521  12.528   6.764
22029SOL     OW14925   0.350  11.984   0.032
22029SOL    HW114926   0.333  11.890   0.001
22029SOL    HW214927   0.440  12.013   0.001
22030SOL     OW14928   4.601   1.881   7.069
22030SOL    HW114929   4.681   1.890   7.009
22030SOL    HW214930   4.534   1.820   7.025
22031SOL     OW14931   9.737   6.862   6.105
22031SOL    HW114932   9.706   6.924   6.032
22031SOL    HW214933   9.797   6.792   6.067
22032SOL     OW14934  12.842  13.944   8.417
22032SOL    HW114935  12.895  13.869   8.378
22032SOL    HW214936  12.890  13.980   0.043
22033SOL     OW14937   0.505   0.505   7.056
22033SOL    HW114938   0.536   0.596   7.029
22033SOL    HW214939   0.490   0.450   6.974
22034SOL     OW14940   1.583   6.311   1.300
22034SOL    HW114941   1.504   6.257   1.274
22034SOL    HW214942   1.558   6.372   1.375
22035SOL     OW14943   7.155   7.865   7.479
22035SOL    HW114944   7.076   7.910   7.438
22035SOL    HW214945   7.238   7.915   7.454
22036SOL     OW14946  14.717   2.523   6.524
22036SOL    HW114947  14.631   2.486   6.560
22036SOL    HW214948  14.793   2.472   6.564
22037SOL     OW14949   9.178   8.010   1.134
22037SOL    HW114950   9.087   8.034   1.168
22037SOL    HW214951   9.211   7.929   1.183
22038SOL     OW14952  12.092  11.334   0.089
22038SOL    HW114953  12.029  11.272   0.137
22038SOL    HW214954  12.177  11.285   0.067
22039SOL     OW14955   0.675   9.126   2.154
22039SOL    HW114956   0.695   9.042   2.104
22039SOL    HW214957   0.594   9.170   2.115
22040SOL     OW14958   2.169  12.366   2.003
22040SOL    HW114959   2.220  12.387   1.920
22040SOL    HW214960   2.094  12.303   1.981
22041SOL     OW14961   2.777  16.407   7.861
22041SOL    HW114962   2.824  16.398   7.773
22041SOL    HW214963   2.770  16.317   7.904
22042SOL     OW14964  16.577   1.427   0.281
22042SOL    HW114965  16.514   1.488   0.330
22042SOL    HW214966  16.543   1.333   0.285
22043SOL     OW14967   9.013   3.861   7.881
22043SOL    HW114968   8.914   3.852   7.884
22043SOL    HW214969   9.054   3.773   7.861
22044SOL     OW14970   0.715   7.299   8.160
22044SOL    HW114971   0.643   7.230   8.152
22044SOL    HW214972   0.740   7.331   8.069
22045SOL     OW14973  14.791   3.560   5.751
22045SOL    HW114974  14.775   3.635   5.686
22045SOL    HW214975  14.746   3.478   5.717
22046SOL     OW14976   2.020   4.890   1.254
22046SOL    HW114977   2.050   4.801   1.289
22046SOL    HW214978   2.093   4.931   1.200
22047SOL     OW14979  15.595  12.547   7.981
22047SOL    HW114980  15.668  12.615   7.992
22047SOL    HW214981  15.614  12.469   8.041
22048SOL     OW14982   4.618   3.459   6.836
22048SOL    HW114983   4.616   3.366   6.801
22048SOL    HW214984   4.574   3.521   6.771
22049SOL     OW14985  13.718   2.480   8.308
22049SOL    HW114986  13.701   2.424   8.389
22049SOL    HW214987  13.776   2.428   8.244
22050SOL     OW14988  10.130  16.805   6.868
22050SOL    HW114989  10.121  16.836   6.962
22050SOL    HW214990  10.123  16.883   6.806
22051SOL     OW14991   6.157   7.919   0.815
22051SOL    HW114992   6.060   7.900   0.822
22051SOL    HW214993   6.176   7.969   0.730
22052SOL     OW14994  12.897  14.577   7.902
22052SOL    HW114995  12.819  14.634   7.876
22052SOL    HW214996  12.880  14.483   7.874
22053SOL     OW14997  10.074   0.500   6.465
22053SOL    HW114998  10.151   0.518   6.403
22053SOL    HW214999  10.103   0.516   6.559
22054SOL     OW15000   5.999   2.869   0.587
22054SOL    HW115001   5.916   2.913   0.552
22054SOL    HW215002   6.070   2.871   0.517
22055SOL     OW15003  11.194   3.668   8.425
22055SOL    HW115004  11.212   3.678   8.328
22055SOL    HW215005  11.095   3.663   8.441
22056SOL     OW15006  10.008  12.111   1.339
22056SOL    HW115007   9.995  12.032   1.398
22056SOL    HW215008  10.009  12.082   1.244
22057SOL     OW15009   6.953  10.785   1.169
22057SOL    HW115010   6.875  10.741   1.123
22057SOL    HW215011   6.929  10.806   1.263
22058SOL     OW15012  14.777  10.724   7.893
22058SOL    HW115013  14.825  10.640   7.918
22058SOL    HW215014  14.726  10.757   7.972
22059SOL     OW15015  15.845  11.384   2.171
22059SOL    HW115016  15.794  11.308   2.131
22059SOL    HW215017  15.799  11.416   2.253
22060SOL     OW15018   2.567  16.082   2.325
22060SOL    HW115019   2.512  16.101   2.407
22060SOL    HW215020   2.599  15.987   2.328
22061SOL     OW15021   2.022   9.451   2.229
22061SOL    HW115022   2.061   9.372   2.277
22061SOL    HW215023   2.029   9.532   2.287
22062SOL     OW15024  13.286   1.080   8.135
22062SOL    HW115025  13.244   1.169   8.150
22062SOL    HW215026  13.289   1.059   8.037
22063SOL     OW15027   4.235  14.865   0.226
22063SOL    HW115028   4.311  14.930   0.221
22063SOL    HW215029   4.247  14.794   0.158
22064SOL     OW15030   1.640  16.499   1.262
22064SOL    HW115031   1.589  16.504   1.176
22064SOL    HW215032   1.658  16.403   1.285
22065SOL     OW15033   5.131   1.022   0.785
22065SOL    HW115034   5.224   1.018   0.821
22065SOL    HW215035   5.122   1.100   0.723
22066SOL     OW15036   2.957  12.925   0.841
22066SOL    HW115037   2.940  12.974   0.756
22066SOL    HW215038   2.924  12.979   0.918
22067SOL     OW15039   1.163  10.969   6.999
22067SOL    HW115040   1.246  11.025   7.002
22067SOL    HW215041   1.090  11.017   7.048
22068SOL     OW15042   3.012   8.878   7.483
22068SOL    HW115043   2.934   8.937   7.465
22068SOL    HW215044   3.089   8.932   7.516
22069SOL     OW15045  15.741   7.071   6.505
22069SOL    HW115046  15.759   7.046   6.410
22069SOL    HW215047  15.823   7.111   6.546
22070SOL     OW15048  11.132   2.856   1.264
22070SOL    HW115049  11.102   2.922   1.333
22070SOL    HW215050  11.209   2.803   1.300
22071SOL     OW15051   9.514   4.222   8.247
22071SOL    HW115052   9.484   4.229   8.342
22071SOL    HW215053   9.612   4.243   8.241
22072SOL     OW15054  14.554   0.599   8.123
22072SOL    HW115055  14.523   0.569   8.033
22072SOL    HW215056  14.475   0.627   8.178
22073SOL     OW15057  11.043  10.199   8.257
22073SOL    HW115058  10.983  10.129   8.295
22073SOL    HW215059  11.027  10.208   8.159
22074SOL     OW15060   4.845   2.036   1.602
22074SOL    HW115061   4.903   2.061   1.680
22074SOL    HW215062   4.749   2.051   1.627
22075SOL     OW15063   3.542   9.418   1.401
22075SOL    HW115064   3.479   9.412   1.323
22075SOL    HW215065   3.550   9.514   1.430
22076SOL     OW15066   9.700   9.527   0.538
22076SOL    HW115067   9.651   9.441   0.550
22076SOL    HW215068   9.789   9.520   0.583
22077SOL     OW15069  15.490   8.177   6.165
22077SOL    HW115070  15.569   8.128   6.202
22077SOL    HW215071  15.464   8.137   6.077
22078SOL     OW15072   2.817   9.676   7.672
22078SOL    HW115073   2.782   9.653   7.763
22078SOL    HW215074   2.799   9.599   7.609
22079SOL     OW15075  14.995   9.565   8.329
22079SOL    HW115076  14.912   9.565   8.384
22079SOL    HW215077  15.069   9.610   8.379
22080SOL     OW15078   8.672   9.841   1.881
22080SOL    HW115079   8.596   9.790   1.840
22080SOL    HW215080   8.637   9.905   1.949
22081SOL     OW15081   4.070   8.823   1.372
22081SOL    HW115082   4.120   8.764   1.435
22081SOL    HW215083   4.070   8.917   1.407
22082SOL     OW15084  10.761  12.399   8.386
22082SOL    HW115085  10.845  12.349   8.408
22082SOL    HW215086  10.785  12.493   8.359
22083SOL     OW15087  15.023  12.832   0.503
22083SOL    HW115088  15.113  12.875   0.501
22083SOL    HW215089  14.972  12.866   0.582
22084SOL     OW15090   3.710   4.021   8.212
22084SOL    HW115091   3.802   3.992   8.238
22084SOL    HW215092   3.662   4.056   8.293
22085SOL     OW15093  13.616   3.650   6.359
22085SOL    HW115094  13.567   3.733   6.387
22085SOL    HW215095  13.646   3.660   6.264
22086SOL     OW15096   2.172   3.611   1.126
22086SOL    HW115097   2.125   3.590   1.040
22086SOL    HW215098   2.268   3.632   1.108
22087SOL     OW15099  16.509  11.078   0.921
22087SOL    HW115100  16.467  11.142   0.857
22087SOL    HW215101  16.608  11.078   0.907
22088SOL     OW15102   4.034  16.206   7.461
22088SOL    HW115103   4.040  16.186   7.559
22088SOL    HW215104   4.041  16.121   7.410
22089SOL     OW15105   7.888   9.738   1.372
22089SOL    HW115106   7.831   9.818   1.392
22089SOL    HW215107   7.984   9.762   1.385
22090SOL     OW15108   6.932  15.211   8.097
22090SOL    HW115109   7.028  15.218   8.124
22090SOL    HW215110   6.885  15.296   8.119
22091SOL     OW15111  14.705   7.948   7.227
22091SOL    HW115112  14.664   7.902   7.148
22091SOL    HW215113  14.636   7.962   7.298
22092SOL     OW15114   6.780   9.726   8.134
22092SOL    HW115115   6.728   9.708   8.051
22092SOL    HW215116   6.868   9.678   8.130
22093SOL     OW15117  14.344  11.102   2.434
22093SOL    HW115118  14.305  11.018   2.394
22093SOL    HW215119  14.365  11.086   2.531
22094SOL     OW15120   1.537  13.170   0.631
22094SOL    HW115121   1.495  13.256   0.657
22094SOL    HW215122   1.475  13.119   0.571
22095SOL     OW15123  14.580   6.105   0.927
22095SOL    HW115124  14.614   6.198   0.912
22095SOL    HW215125  14.648   6.040   0.895
22096SOL     OW15126   2.408   6.330   7.901
22096SOL    HW115127   2.355   6.407   7.867
22096SOL    HW215128   2.429   6.344   7.998
22097SOL     OW15129   2.151  16.800   0.827
22097SOL    HW115130   2.061  16.757   0.836
22097SOL    HW215131   2.140  16.894   0.795
22098SOL     OW15132   1.794   9.128   6.991
22098SOL    HW115133   1.851   9.180   7.055
22098SOL    HW215134   1.771   9.186   6.912
22099SOL     OW15135  15.389  13.199   7.098
22099SOL    HW115136  15.356  13.286   7.062
22099SOL    HW215137  15.482  13.210   7.133
22100SOL     OW15138  11.026   1.609   7.153
22100SOL    HW115139  10.946   1.635   7.099
22100SOL    HW215140  11.048   1.513   7.135
22101SOL     OW15141   9.250   8.705   6.708
22101SOL    HW115142   9.235   8.731   6.613
22101SOL    HW215143   9.187   8.756   6.767
22102SOL     OW15144  13.544   4.640   7.734
22102SOL    HW115145  13.551   4.551   7.690
22102SOL    HW215146  13.504   4.706   7.670
22103SOL     OW15147  14.193  11.440   0.089
22103SOL    HW115148  14.168  11.486   0.174
22103SOL    HW215149  14.283  11.471   0.059
22104SOL     OW15150   2.391  10.599   8.407
22104SOL    HW115151   2.451  10.636   0.025
22104SOL    HW215152   2.407  10.501   8.398
22105SOL     OW15153   0.947   8.775   1.381
22105SOL    HW115154   0.991   8.809   1.297
22105SOL    HW215155   0.852   8.804   1.383
22106SOL     OW15156  14.417  10.379   1.608
22106SOL    HW115157  14.442  10.465   1.564
22106SOL    HW215158  14.321  10.358   1.590
22107SOL     OW15159  12.513  11.737   1.456
22107SOL    HW115160  12.556  11.654   1.421
22107SOL    HW215161  12.581  11.791   1.507
22108SOL     OW15162   1.314   8.704   7.247
22108SOL    HW115163   1.355   8.615   7.227
22108SOL    HW215164   1.370   8.776   7.207
22109SOL     OW15165   4.797  16.667   0.613
22109SOL    HW115166   4.860  16.658   0.536
22109SOL    HW215167   4.849  16.664   0.699
22110SOL     OW15168  14.952   9.359   6.913
22110SOL    HW115169  14.927   9.450   6.944
22110SOL    HW215170  14.871   9.300   6.914
22111SOL     OW15171  16.325  11.827   1.147
22111SOL    HW115172  16.361  11.910   1.105
22111SOL    HW215173  16.266  11.779   1.082
22112SOL     OW15174   4.260   2.792   6.679
22112SOL    HW115175   4.200   2.854   6.729
22112SOL    HW215176   4.209   2.747   6.605
22113SOL     OW15177   5.076   3.590   0.145
22113SOL    HW115178   5.024   3.646   0.080
22113SOL    HW215179   5.140   3.647   0.196
22114SOL     OW15180  16.383  16.291   7.918
22114SOL    HW115181  16.322  16.307   7.840
22114SOL    HW215182  16.336  16.315   8.003
22115SOL     OW15183  14.417   4.533   0.722
22115SOL    HW115184  14.364   4.456   0.757
22115SOL    HW215185  14.506   4.500   0.689
22116SOL     OW15186   7.854   3.947   1.399
22116SOL    HW115187   7.893   3.936   1.308
22116SOL    HW215188   7.831   3.857   1.436
22117SOL     OW15189   8.008   2.722   2.079
22117SOL    HW115190   7.924   2.708   2.131
22117SOL    HW215191   8.074   2.773   2.134
22118SOL     OW15192  13.853   1.426   5.748
22118SOL    HW115193  13.837   1.327   5.743
22118SOL    HW215194  13.837   1.467   5.658
22119SOL     OW15195   8.809   7.580   1.004
22119SOL    HW115196   8.772   7.647   0.940
22119SOL    HW215197   8.762   7.492   0.991
22120SOL     OW15198  15.966   5.409   8.419
22120SOL    HW115199  15.970   5.461   8.333
22120SOL    HW215200  16.056   5.373   8.440
22121SOL     OW15201  14.636  10.384   8.001
22121SOL    HW115202  14.607  10.292   8.028
22121SOL    HW215203  14.555  10.443   7.994
22122SOL     OW15204   9.891  10.106   6.907
22122SOL    HW115205   9.818  10.127   6.842
22122SOL    HW215206   9.854  10.054   6.983
22123SOL     OW15207  12.304  12.403   0.745
22123SOL    HW115208  12.357  12.487   0.743
22123SOL    HW215209  12.328  12.351   0.828
22124SOL     OW15210  10.456   3.080   7.926
22124SOL    HW115211  10.486   3.110   7.836
22124SOL    HW215212  10.357   3.091   7.933
22125SOL     OW15213   4.065   8.770   2.517
22125SOL    HW115214   4.164   8.771   2.502
22125SOL    HW215215   4.034   8.862   2.542
22126SOL     OW15216   9.363  16.699   1.184
22126SOL    HW115217   9.409  16.779   1.147
22126SOL    HW215218   9.386  16.618   1.130
22127SOL     OW15219  13.101  13.506   1.005
22127SOL    HW115220  13.042  13.427   1.018
22127SOL    HW215221  13.121  13.547   1.094
22128SOL     OW15222   9.139  15.975   1.108
22128SOL    HW115223   9.191  16.017   1.033
22128SOL    HW215224   9.122  15.879   1.087
22129SOL     OW15225   0.104  13.408   8.420
22129SOL    HW115226   0.084  13.447   8.331
22129SOL    HW215227   0.050  13.455   0.036
22130SOL     OW15228   5.703  12.852   0.935
22130SOL    HW115229   5.800  12.841   0.954
22130SOL    HW215230   5.658  12.891   1.016
22131SOL     OW15231   5.088   2.114   7.951
22131SOL    HW115232   5.048   2.196   7.909
22131SOL    HW215233   5.068   2.034   7.895
22132SOL     OW15234  14.447   7.221   0.529
22132SOL    HW115235  14.454   7.272   0.614
22132SOL    HW215236  14.453   7.123   0.549
22133SOL     OW15237  14.735   2.870   8.093
22133SOL    HW115238  14.833   2.857   8.106
22133SOL    HW215239  14.686   2.791   8.127
22134SOL     OW15240   4.251   6.471   6.506
22134SOL    HW115241   4.235   6.515   6.418
22134SOL    HW215242   4.308   6.390   6.493
22135SOL     OW15243   6.736   1.819   7.963
22135SOL    HW115244   6.831   1.850   7.962
22135SOL    HW215245   6.726   1.737   7.906
22136SOL     OW15246   0.314   4.584   8.208
22136SOL    HW115247   0.260   4.617   8.286
22136SOL    HW215248   0.266   4.508   8.165
22137SOL     OW15249   7.372  12.698   7.042
22137SOL    HW115250   7.435  12.641   6.989
22137SOL    HW215251   7.294  12.722   6.984
22138SOL     OW15252  11.475   4.094   7.322
22138SOL    HW115253  11.389   4.126   7.282
22138SOL    HW215254  11.469   4.095   7.421
22139SOL     OW15255  10.476  13.350   7.597
22139SOL    HW115256  10.499  13.432   7.545
22139SOL    HW215257  10.555  13.288   7.600
22140SOL     OW15258  16.672  16.000   6.617
22140SOL    HW115259  16.684  16.096   6.590
22140SOL    HW215260  16.731  15.942   6.562
22141SOL     OW15261   6.999  11.119   0.260
22141SOL    HW115262   6.937  11.047   0.292
22141SOL    HW215263   7.052  11.153   0.338
22142SOL     OW15264  16.558  12.646   8.133
22142SOL    HW115265  16.498  12.566   8.134
22142SOL    HW215266  16.537  12.704   8.212
22143SOL     OW15267  10.571   3.233   0.106
22143SOL    HW115268  10.591   3.136   0.091
22143SOL    HW215269  10.593   3.258   0.200
22144SOL     OW15270  10.335   7.174   1.174
22144SOL    HW115271  10.342   7.095   1.112
22144SOL    HW215272  10.257   7.230   1.148
22145SOL     OW15273   5.470   4.072   0.083
22145SOL    HW115274   5.503   4.013   0.157
22145SOL    HW215275   5.425   4.152   0.121
22146SOL     OW15276  14.792   5.952   0.074
22146SOL    HW115277  14.884   5.917   0.088
22146SOL    HW215278  14.738   5.941   0.157
22147SOL     OW15279   6.665  12.508   0.303
22147SOL    HW115280   6.688  12.441   0.373
22147SOL    HW215281   6.598  12.573   0.339
22148SOL     OW15282   8.843  11.308   1.803
22148SOL    HW115283   8.846  11.234   1.870
22148SOL    HW215284   8.819  11.394   1.850
22149SOL     OW15285   7.791   4.772   1.876
22149SOL    HW115286   7.742   4.685   1.866
22149SOL    HW215287   7.889   4.754   1.878
22150SOL     OW15288   0.195  13.205   1.119
22150SOL    HW115289   0.130  13.131   1.099
22150SOL    HW215290   0.205  13.263   1.039
22151SOL     OW15291   1.006   7.956   8.055
22151SOL    HW115292   0.995   7.909   7.967
22151SOL    HW215293   0.935   8.026   8.065
22152SOL     OW15294   7.032   5.753   8.021
22152SOL    HW115295   6.973   5.735   8.099
22152SOL    HW215296   6.992   5.825   7.964
22153SOL     OW15297   8.877  11.117   0.588
22153SOL    HW115298   8.872  11.192   0.654
22153SOL    HW215299   8.970  11.112   0.551
22154SOL     OW15300   5.491  13.194   7.524
22154SOL    HW115301   5.494  13.294   7.531
22154SOL    HW215302   5.464  13.156   7.613
22155SOL     OW15303  13.240   8.375   7.903
22155SOL    HW115304  13.241   8.361   7.804
22155SOL    HW215305  13.212   8.290   7.948
22156SOL     OW15306   5.760  12.947   7.784
22156SOL    HW115307   5.781  12.881   7.856
22156SOL    HW215308   5.666  12.933   7.752
22157SOL     OW15309   6.590  16.365   2.102
22157SOL    HW115310   6.639  16.450   2.119
22157SOL    HW215311   6.650  16.287   2.124
22158SOL     OW15312   7.945   1.623   6.252
22158SOL    HW115313   7.875   1.554   6.232
22158SOL    HW215314   7.911   1.685   6.322
22159SOL     OW15315  16.318   3.854   6.368
22159SOL    HW115316  16.336   3.757   6.348
22159SOL    HW215317  16.276   3.897   6.288
22160SOL     OW15318   2.702   3.647   6.855
22160SOL    HW115319   2.650   3.568   6.888
22160SOL    HW215320   2.795   3.619   6.832
22161SOL     OW15321  14.213   8.832   7.874
22161SOL    HW115322  14.126   8.862   7.913
22161SOL    HW215323  14.288   8.871   7.928
22162SOL     OW15324  15.368   5.732   1.004
22162SOL    HW115325  15.376   5.778   1.093
22162SOL    HW215326  15.443   5.761   0.945
22163SOL     OW15327   4.273  16.957   8.222
22163SOL    HW115328   4.187   0.011   8.257
22163SOL    HW215329   4.291   0.010   8.131
22164SOL     OW15330  11.794   2.701   8.402
22164SOL    HW115331  11.816   2.607   8.429
22164SOL    HW215332  11.782   2.705   8.302
22165SOL     OW15333   8.049   7.247   8.003
22165SOL    HW115334   8.068   7.345   8.010
22165SOL    HW215335   8.011   7.214   8.089
22166SOL     OW15336   3.111   1.801   2.083
22166SOL    HW115337   3.043   1.869   2.110
22166SOL    HW215338   3.132   1.743   2.162
22167SOL     OW15339   2.112  15.161   8.240
22167SOL    HW115340   2.202  15.178   8.280
22167SOL    HW215341   2.122  15.129   8.146
22168SOL     OW15342   7.043  13.989   7.664
22168SOL    HW115343   7.055  13.936   7.747
22168SOL    HW215344   6.975  14.060   7.679
22169SOL     OW15345  13.511   2.416   6.403
22169SOL    HW115346  13.567   2.338   6.431
22169SOL    HW215347  13.437   2.383   6.344
22170SOL     OW15348  12.760   9.297   1.575
22170SOL    HW115349  12.784   9.212   1.529
22170SOL    HW215350  12.810   9.303   1.662
22171SOL     OW15351  12.213   7.740   8.352
22171SOL    HW115352  12.267   7.753   8.435
22171SOL    HW215353  12.116   7.735   8.375
22172SOL     OW15354   7.066   2.106   7.130
22172SOL    HW115355   7.123   2.032   7.094
22172SOL    HW215356   6.972   2.095   7.099
22173SOL     OW15357   8.751  12.745   7.068
22173SOL    HW115358   8.759  12.706   7.160
22173SOL    HW215359   8.798  12.833   7.064
22174SOL     OW15360   6.958  11.347   6.420
22174SOL    HW115361   6.941  11.330   6.323
22174SOL    HW215362   6.903  11.285   6.476
22175SOL     OW15363   9.263   5.247   0.494
22175SOL    HW115364   9.289   5.319   0.429
22175SOL    HW215365   9.172   5.268   0.531
22176SOL     OW15366   9.003  11.710   1.335
22176SOL    HW115367   8.910  11.683   1.312
22176SOL    HW215368   9.033  11.662   1.418
22177SOL     OW15369  14.414   7.926   0.926
22177SOL    HW115370  14.430   7.934   0.828
22177SOL    HW215371  14.339   7.861   0.942
22178SOL     OW15372  11.171  12.605   7.869
22178SOL    HW115373  11.217  12.562   7.946
22178SOL    HW215374  11.072  12.605   7.884
22179SOL     OW15375   4.332   3.401   8.401
22179SOL    HW115376   4.258   3.449   8.448
22179SOL    HW215377   4.420   3.430   8.439
22180SOL     OW15378   6.121  12.677   1.674
22180SOL    HW115379   6.212  12.711   1.698
22180SOL    HW215380   6.126  12.578   1.658
22181SOL     OW15381  10.865   5.301   0.636
22181SOL    HW115382  10.931   5.344   0.697
22181SOL    HW215383  10.913   5.256   0.561
22182SOL     OW15384   3.809   4.976   2.355
22182SOL    HW115385   3.758   5.061   2.339
22182SOL    HW215386   3.895   4.998   2.402
22183SOL     OW15387   3.125  14.952   6.499
22183SOL    HW115388   3.129  14.950   6.399
22183SOL    HW215389   3.152  15.042   6.532
22184SOL     OW15390  12.259  14.572   6.471
22184SOL    HW115391  12.298  14.518   6.396
22184SOL    HW215392  12.161  14.581   6.459
22185SOL     OW15393   5.086   6.249   6.443
22185SOL    HW115394   4.989   6.227   6.437
22185SOL    HW215395   5.115   6.298   6.361
22186SOL     OW15396   4.608   6.696   7.241
22186SOL    HW115397   4.700   6.715   7.275
22186SOL    HW215398   4.600   6.600   7.215
22187SOL     OW15399   6.875  14.014   0.668
22187SOL    HW115400   6.863  13.996   0.766
22187SOL    HW215401   6.957  13.967   0.636
22188SOL     OW15402   7.852   6.035   1.187
22188SOL    HW115403   7.783   6.073   1.250
22188SOL    HW215404   7.825   6.054   1.093
22189SOL     OW15405   5.231  15.958   2.080
22189SOL    HW115406   5.241  15.863   2.110
22189SOL    HW215407   5.320  15.992   2.048
22190SOL     OW15408  10.155   1.609   6.093
22190SOL    HW115409  10.097   1.534   6.061
22190SOL    HW215410  10.207   1.647   6.016
22191SOL     OW15411  10.250  14.924   7.124
22191SOL    HW115412  10.304  14.962   7.199
22191SOL    HW215413  10.156  14.957   7.131
22192SOL     OW15414   4.593   2.504   1.917
22192SOL    HW115415   4.667   2.571   1.916
22192SOL    HW215416   4.623   2.421   1.871
22193SOL     OW15417   8.066  11.216   7.891
22193SOL    HW115418   8.104  11.124   7.896
22193SOL    HW215419   8.045  11.249   7.983
22194SOL     OW15420   1.624   8.176   1.392
22194SOL    HW115421   1.546   8.178   1.455
22194SOL    HW215422   1.708   8.198   1.441
22195SOL     OW15423  12.424   2.267   7.158
22195SOL    HW115424  12.357   2.193   7.167
22195SOL    HW215425  12.376   2.355   7.162
22196SOL     OW15426   8.111   5.146   8.235
22196SOL    HW115427   8.100   5.058   8.188
22196SOL    HW215428   8.043   5.211   8.201
22197SOL     OW15429   2.136   2.527   0.669
22197SOL    HW115430   2.149   2.599   0.737
22197SOL    HW215431   2.087   2.450   0.710
22198SOL     OW15432   2.252   1.362   1.078
22198SOL    HW115433   2.226   1.361   1.174
22198SOL    HW215434   2.351   1.374   1.070
22199SOL     OW15435   6.042   9.041   7.135
22199SOL    HW115436   5.951   9.000   7.127
22199SOL    HW215437   6.038   9.118   7.199
22200SOL     OW15438  16.395   3.294   6.375
22200SOL    HW115439  16.422   3.301   6.279
22200SOL    HW215440  16.426   3.208   6.414
22201SOL     OW15441  13.648   1.995   7.414
22201SOL    HW115442  13.658   1.943   7.329
22201SOL    HW215443  13.703   2.078   7.410
22202SOL     OW15444   6.164  11.058   1.286
22202SOL    HW115445   6.167  11.155   1.261
22202SOL    HW215446   6.136  11.049   1.381
22203SOL     OW15447   0.402   8.913   8.422
22203SOL    HW115448   0.350   8.828   8.411
22203SOL    HW215449   0.460   8.906   0.049
22204SOL     OW15450   1.479  13.879   8.161
22204SOL    HW115451   1.548  13.809   8.180
22204SOL    HW215452   1.502  13.926   8.076
22205SOL     OW15453   5.354   4.287   7.360
22205SOL    HW115454   5.332   4.228   7.438
22205SOL    HW215455   5.310   4.251   7.278
22206SOL     OW15456   7.910   3.819   7.115
22206SOL    HW115457   7.922   3.850   7.020
22206SOL    HW215458   7.813   3.809   7.135
22207SOL     OW15459  11.483   2.257   6.126
22207SOL    HW115460  11.461   2.355   6.129
22207SOL    HW215461  11.418   2.207   6.183
22208SOL     OW15462  14.915  11.229   0.778
22208SOL    HW115463  14.948  11.277   0.859
22208SOL    HW215464  14.817  11.211   0.787
22209SOL     OW15465  13.083   0.839   7.804
22209SOL    HW115466  13.095   0.750   7.759
22209SOL    HW215467  13.116   0.912   7.744
22210SOL     OW15468   2.262   3.564   7.913
22210SOL    HW115469   2.209   3.479   7.918
22210SOL    HW215470   2.312   3.566   7.826
22211SOL     OW15471   2.665  14.585   0.531
22211SOL    HW115472   2.620  14.620   0.448
22211SOL    HW215473   2.629  14.633   0.611
22212SOL     OW15474  15.936  15.139   6.960
22212SOL    HW115475  15.934  15.057   7.016
22212SOL    HW215476  15.878  15.127   6.880
22213SOL     OW15477  14.953   1.899   7.163
22213SOL    HW115478  14.996   1.983   7.132
22213SOL    HW215479  15.019   1.824   7.161
22214SOL     OW15480   1.923  16.416   0.857
22214SOL    HW115481   2.000  16.379   0.805
22214SOL    HW215482   1.861  16.465   0.795
22215SOL     OW15483   2.692  16.948   7.020
22215SOL    HW115484   2.749  16.895   6.957
22215SOL    HW215485   2.597  16.947   6.988
22216SOL     OW15486  15.744   0.088   8.325
22216SOL    HW115487  15.752   0.152   8.402
22216SOL    HW215488  15.734   0.140   8.240
22217SOL     OW15489   4.997   2.535   6.730
22217SOL    HW115490   5.060   2.493   6.664
22217SOL    HW215491   4.928   2.589   6.680
22218SOL     OW15492   8.175  10.772   2.175
22218SOL    HW115493   8.137  10.732   2.259
22218SOL    HW215494   8.274  10.780   2.184
22219SOL     OW15495   3.336  10.599   7.066
22219SOL    HW115496   3.412  10.544   7.032
22219SOL    HW215497   3.364  10.645   7.150
22220SOL     OW15498  11.615   3.240   6.762
22220SOL    HW115499  11.697   3.184   6.769
22220SOL    HW215500  11.540   3.198   6.812
22221SOL     OW15501   7.055  16.396   1.844
22221SOL    HW115502   6.980  16.443   1.889
22221SOL    HW215503   7.141  16.417   1.890
22222SOL     OW15504   7.868  11.436   1.595
22222SOL    HW115505   7.799  11.498   1.559
22222SOL    HW215506   7.878  11.450   1.694
22223SOL     OW15507   5.582  14.495   7.750
22223SOL    HW115508   5.616  14.447   7.668
22223SOL    HW215509   5.599  14.593   7.740
22224SOL     OW15510   1.291   7.499   6.929
22224SOL    HW115511   1.313   7.596   6.919
22224SOL    HW215512   1.235   7.470   6.851
22225SOL     OW15513   0.443   8.154   1.053
22225SOL    HW115514   0.423   8.239   1.006
22225SOL    HW215515   0.473   8.085   0.987
22226SOL     OW15516   1.793  11.047   7.569
22226SOL    HW115517   1.847  11.046   7.485
22226SOL    HW215518   1.718  11.112   7.560
22227SOL     OW15519  13.019   0.953   6.096
22227SOL    HW115520  12.924   0.940   6.068
22227SOL    HW215521  13.063   1.019   6.036
22228SOL     OW15522  10.854  11.144   0.393
22228SOL    HW115523  10.823  11.108   0.305
22228SOL    HW215524  10.947  11.179   0.383
22229SOL     OW15525  13.124  12.718   6.850
22229SOL    HW115526  13.102  12.734   6.754
22229SOL    HW215527  13.091  12.794   6.905
22230SOL     OW15528   4.336   9.852   7.849
22230SOL    HW115529   4.301   9.804   7.930
22230SOL    HW215530   4.436   9.855   7.853
22231SOL     OW15531  13.748  11.715   7.742
22231SOL    HW115532  13.684  11.678   7.675
22231SOL    HW215533  13.732  11.673   7.831
22232SOL     OW15534  14.751   8.716   8.117
22232SOL    HW115535  14.742   8.801   8.169
22232SOL    HW215536  14.720   8.731   8.023
22233SOL     OW15537   2.601   5.317   6.347
22233SOL    HW115538   2.645   5.302   6.259
22233SOL    HW215539   2.585   5.414   6.361
22234SOL     OW15540   0.539   4.328   0.687
22234SOL    HW115541   0.508   4.415   0.726
22234SOL    HW215542   0.467   4.260   0.698
22235SOL     OW15543   6.536   2.683   0.114
22235SOL    HW115544   6.441   2.670   0.143
22235SOL    HW215545   6.539   2.693   0.014
22236SOL     OW15546   4.541   2.243   8.350
22236SOL    HW115547   4.530   2.146   8.329
22236SOL    HW215548   4.558   2.254   8.448
22237SOL     OW15549   8.093  11.501   0.097
22237SOL    HW115550   8.129  11.422   0.146
22237SOL    HW215551   8.107  11.584   0.152
22238SOL     OW15552   3.686  11.387   7.282
22238SOL    HW115553   3.716  11.292   7.278
22238SOL    HW215554   3.670  11.413   7.377
22239SOL     OW15555   1.310  13.715   7.896
22239SOL    HW115556   1.240  13.658   7.940
22239SOL    HW215557   1.282  13.811   7.901
22240SOL     OW15558   6.622   8.298   7.999
22240SOL    HW115559   6.712   8.279   8.037
22240SOL    HW215560   6.552   8.274   8.066
22241SOL     OW15561   8.381  10.798   7.840
22241SOL    HW115562   8.295  10.828   7.882
22241SOL    HW215563   8.379  10.699   7.827
22242SOL     OW15564   8.215   0.087   1.553
22242SOL    HW115565   8.223   0.149   1.631
22242SOL    HW215566   8.133   0.110   1.500
22243SOL     OW15567   8.554  13.800   7.638
22243SOL    HW115568   8.496  13.763   7.566
22243SOL    HW215569   8.512  13.882   7.677
22244SOL     OW15570  13.194  11.204   1.438
22244SOL    HW115571  13.188  11.234   1.343
22244SOL    HW215572  13.141  11.266   1.496
22245SOL     OW15573   2.920  12.944   8.071
22245SOL    HW115574   2.855  12.887   8.121
22245SOL    HW215575   2.979  12.992   8.136
22246SOL     OW15576   8.336   9.459   6.970
22246SOL    HW115577   8.361   9.546   6.928
22246SOL    HW215578   8.299   9.476   7.062
22247SOL     OW15579  14.590  15.468   0.435
22247SOL    HW115580  14.618  15.563   0.418
22247SOL    HW215581  14.591  15.451   0.534
22248SOL     OW15582  10.276   2.476   1.225
22248SOL    HW115583  10.211   2.551   1.233
22248SOL    HW215584  10.367   2.512   1.204
22249SOL     OW15585   8.023  10.767   1.443
22249SOL    HW115586   8.038  10.779   1.541
22249SOL    HW215587   8.054  10.676   1.415
22250SOL     OW15588   1.901   3.151   7.209
22250SOL    HW115589   1.899   3.054   7.185
22250SOL    HW215590   1.856   3.164   7.297
22251SOL     OW15591   2.225   8.910   0.619
22251SOL    HW115592   2.224   9.008   0.599
22251SOL    HW215593   2.162   8.863   0.557
22252SOL     OW15594  14.037   4.069   0.707
22252SOL    HW115595  14.026   4.018   0.621
22252SOL    HW215596  14.036   4.167   0.687
22253SOL     OW15597   5.706  10.185   6.156
22253SOL    HW115598   5.729  10.249   6.082
22253SOL    HW215599   5.721  10.091   6.124
22254SOL     OW15600   9.741   6.814   2.308
22254SOL    HW115601   9.711   6.900   2.349
22254SOL    HW215602   9.664   6.773   2.259
22255SOL     OW15603   7.535   0.246   7.906
22255SOL    HW115604   7.489   0.245   7.995
22255SOL    HW215605   7.561   0.152   7.881
22256SOL     OW15606  16.913  11.414   0.452
22256SOL    HW115607  16.822  11.455   0.443
22256SOL    HW215608  16.908  11.335   0.513
22257SOL     OW15609   7.320  12.410   7.841
22257SOL    HW115610   7.320  12.510   7.836
22257SOL    HW215611   7.414  12.377   7.850
22258SOL     OW15612  14.824   3.295   1.630
22258SOL    HW115613  14.892   3.365   1.609
22258SOL    HW215614  14.782   3.315   1.718
22259SOL     OW15615  10.709   7.204   0.275
22259SOL    HW115616  10.719   7.289   0.223
22259SOL    HW215617  10.616   7.169   0.266
22260SOL     OW15618   1.027   6.082   8.439
22260SOL    HW115619   1.009   5.988   8.411
22260SOL    HW215620   1.081   6.083   0.068
22261SOL     OW15621  16.401  12.690   7.220
22261SOL    HW115622  16.463  12.686   7.298
22261SOL    HW215623  16.431  12.762   7.157
22262SOL     OW15624   1.702   9.650   1.691
22262SOL    HW115625   1.688   9.579   1.760
22262SOL    HW215626   1.630   9.719   1.700
22263SOL     OW15627   5.138   2.936   0.745
22263SOL    HW115628   5.080   2.939   0.664
22263SOL    HW215629   5.166   3.029   0.769
22264SOL     OW15630   4.345   1.471   1.494
22264SOL    HW115631   4.271   1.499   1.556
22264SOL    HW215632   4.387   1.387   1.529
22265SOL     OW15633  15.224  14.133   0.249
22265SOL    HW115634  15.292  14.205   0.270
22265SOL    HW215635  15.171  14.114   0.331
22266SOL     OW15636  16.587  16.703   0.968
22266SOL    HW115637  16.538  16.788   0.947
22266SOL    HW215638  16.660  16.690   0.901
22267SOL     OW15639  15.374   9.109   0.373
22267SOL    HW115640  15.345   9.085   0.281
22267SOL    HW215641  15.306   9.170   0.414
22268SOL     OW15642   1.395  16.251   7.991
22268SOL    HW115643   1.418  16.211   7.903
22268SOL    HW215644   1.444  16.202   8.063
22269SOL     OW15645  11.741   9.865   1.103
22269SOL    HW115646  11.755   9.823   1.013
22269SOL    HW215647  11.808   9.938   1.116
22270SOL     OW15648   6.762   7.570   6.519
22270SOL    HW115649   6.757   7.659   6.565
22270SOL    HW215650   6.848   7.564   6.468
22271SOL     OW15651  12.107   8.660   0.932
22271SOL    HW115652  12.186   8.625   0.881
22271SOL    HW215653  12.137   8.685   1.025
22272SOL     OW15654  14.483   0.540   1.399
22272SOL    HW115655  14.559   0.599   1.428
22272SOL    HW215656  14.427   0.518   1.478
22273SOL     OW15657   1.531  15.513   6.976
22273SOL    HW115658   1.513  15.545   7.069
22273SOL    HW215659   1.604  15.568   6.935
22274SOL     OW15660  11.208   5.393   6.765
22274SOL    HW115661  11.250   5.480   6.739
22274SOL    HW215662  11.112   5.408   6.791
22275SOL     OW15663  12.875  15.630   6.908
22275SOL    HW115664  12.929  15.686   6.845
22275SOL    HW215665  12.918  15.540   6.917
22276SOL     OW15666  11.628   0.727   8.029
22276SOL    HW115667  11.633   0.740   8.128
22276SOL    HW215668  11.555   0.784   7.992
22277SOL     OW15669   5.687  11.274   8.095
22277SOL    HW115670   5.639  11.319   8.169
22277SOL    HW215671   5.666  11.176   8.096
22278SOL     OW15672   4.816   6.558   0.125
22278SOL    HW115673   4.748   6.627   0.101
22278SOL    HW215674   4.806   6.479   0.064
22279SOL     OW15675  12.753   2.789   7.054
22279SOL    HW115676  12.843   2.752   7.078
22279SOL    HW215677  12.745   2.795   6.954
22280SOL     OW15678   2.642  16.466   6.632
22280SOL    HW115679   2.545  16.468   6.607
22280SOL    HW215680   2.698  16.480   6.550
22281SOL     OW15681  16.947  13.520   0.181
22281SOL    HW115682  16.876  13.586   0.158
22281SOL    HW215683  16.906  13.441   0.226
22282SOL     OW15684   0.839   7.400   7.545
22282SOL    HW115685   0.783   7.327   7.584
22282SOL    HW215686   0.894   7.364   7.470
22283SOL     OW15687  15.515   9.726   6.775
22283SOL    HW115688  15.527   9.784   6.856
22283SOL    HW215689  15.505   9.631   6.803
22284SOL     OW15690   7.120  13.111   7.622
22284SOL    HW115691   7.193  13.156   7.571
22284SOL    HW215692   7.100  13.163   7.705
22285SOL     OW15693   7.127  11.194   0.494
22285SOL    HW115694   7.061  11.163   0.562
22285SOL    HW215695   7.219  11.185   0.530
22286SOL     OW15696   1.360   2.036   0.185
22286SOL    HW115697   1.369   1.982   0.269
22286SOL    HW215698   1.283   2.099   0.195
22287SOL     OW15699  14.927  14.159   8.106
22287SOL    HW115700  14.865  14.098   8.056
22287SOL    HW215701  14.885  14.250   8.113
22288SOL     OW15702  15.879  15.278   1.867
22288SOL    HW115703  15.972  15.314   1.863
22288SOL    HW215704  15.855  15.257   1.962
22289SOL     OW15705   3.029   9.683   1.396
22289SOL    HW115706   3.123   9.691   1.362
22289SOL    HW215707   2.984   9.773   1.390
22290SOL     OW15708   8.715  15.696   8.224
22290SOL    HW115709   8.805  15.737   8.208
22290SOL    HW215710   8.648  15.738   8.163
22291SOL     OW15711   8.363  11.638   7.470
22291SOL    HW115712   8.305  11.557   7.474
22291SOL    HW215713   8.442  11.620   7.412
22292SOL     OW15714   8.126  10.830   6.912
22292SOL    HW115715   8.087  10.761   6.852
22292SOL    HW215716   8.060  10.905   6.924
22293SOL     OW15717   1.575   6.623   7.414
22293SOL    HW115718   1.603   6.719   7.419
22293SOL    HW215719   1.556   6.598   7.319
22294SOL     OW15720   6.961  12.584   7.931
22294SOL    HW115721   6.969  12.621   8.024
22294SOL    HW215722   6.996  12.650   7.865
22295SOL     OW15723   5.998   0.176   1.127
22295SOL    HW115724   6.075   0.240   1.135
22295SOL    HW215725   5.957   0.161   1.217
22296SOL     OW15726  11.517  15.891   6.218
22296SOL    HW115727  11.612  15.920   6.212
22296SOL    HW215728  11.501  15.816   6.152
22297SOL     OW15729   9.028   0.280   6.978
22297SOL    HW115730   8.949   0.249   7.029
22297SOL    HW215731   8.999   0.312   6.888
22298SOL     OW15732   0.379   9.429   2.293
22298SOL    HW115733   0.282   9.453   2.285
22298SOL    HW215734   0.404   9.427   2.390
22299SOL     OW15735   8.048  16.190   1.450
22299SOL    HW115736   8.106  16.126   1.401
22299SOL    HW215737   8.104  16.266   1.484
22300SOL     OW15738   8.831   4.650   0.566
22300SOL    HW115739   8.895   4.727   0.574
22300SOL    HW215740   8.818   4.628   0.469
22301SOL     OW15741  14.194  10.001   7.817
22301SOL    HW115742  14.109  10.038   7.854
22301SOL    HW215743  14.219  10.050   7.734
22302SOL     OW15744  13.577   3.908   5.696
22302SOL    HW115745  13.537   3.822   5.665
22302SOL    HW215746  13.605   3.962   5.617
22303SOL     OW15747  15.515  14.989   2.314
22303SOL    HW115748  15.493  15.045   2.394
22303SOL    HW215749  15.503  14.893   2.337
22304SOL     OW15750  13.451  14.302   1.057
22304SOL    HW115751  13.433  14.400   1.051
22304SOL    HW215752  13.512  14.284   1.135
22305SOL     OW15753   3.315   6.934   7.042
22305SOL    HW115754   3.229   6.977   7.015
22305SOL    HW215755   3.299   6.840   7.070
22306SOL     OW15756  15.507   5.915   0.466
22306SOL    HW115757  15.474   5.821   0.457
22306SOL    HW215758  15.431   5.978   0.448
22307SOL     OW15759   4.751   0.871   1.687
22307SOL    HW115760   4.820   0.897   1.620
22307SOL    HW215761   4.795   0.829   1.766
22308SOL     OW15762   6.692   4.155   7.621
22308SOL    HW115763   6.786   4.161   7.586
22308SOL    HW215764   6.677   4.065   7.661
22309SOL     OW15765  12.257   7.778   6.897
22309SOL    HW115766  12.352   7.757   6.875
22309SOL    HW215767  12.200   7.698   6.879
22310SOL     OW15768   5.316  16.740   8.127
22310SOL    HW115769   5.247  16.764   8.059
22310SOL    HW215770   5.288  16.656   8.175
22311SOL     OW15771   2.691  15.472   1.409
22311SOL    HW115772   2.651  15.558   1.440
22311SOL    HW215773   2.760  15.441   1.474
22312SOL     OW15774  12.627   0.438   2.059
22312SOL    HW115775  12.602   0.347   2.092
22312SOL    HW215776  12.723   0.438   2.030
22313SOL     OW15777   9.337   7.700   1.018
22313SOL    HW115778   9.429   7.736   1.004
22313SOL    HW215779   9.302   7.731   1.106
22314SOL     OW15780   0.453   4.134   1.006
22314SOL    HW115781   0.382   4.103   1.069
22314SOL    HW215782   0.487   4.223   1.035
22315SOL     OW15783   6.370   2.091   7.949
22315SOL    HW115784   6.376   1.992   7.936
22315SOL    HW215785   6.460   2.126   7.976
22316SOL     OW15786   4.207  14.328   8.244
22316SOL    HW115787   4.278  14.263   8.216
22316SOL    HW215788   4.185  14.314   8.340
22317SOL     OW15789   6.342   4.061   7.375
22317SOL    HW115790   6.299   4.017   7.454
22317SOL    HW215791   6.352   4.159   7.392
22318SOL     OW15792   4.504   8.963   0.776
22318SOL    HW115793   4.508   8.990   0.680
22318SOL    HW215794   4.495   8.863   0.782
22319SOL     OW15795  12.323   9.233   1.054
22319SOL    HW115796  12.240   9.178   1.044
22319SOL    HW215797  12.389   9.183   1.109
22320SOL     OW15798  11.187   9.042   1.035
22320SOL    HW115799  11.097   9.034   0.993
22320SOL    HW215800  11.191   9.125   1.091
22321SOL     OW15801   8.473  12.342   1.122
22321SOL    HW115802   8.388  12.372   1.167
22321SOL    HW215803   8.455  12.326   1.025
22322SOL     OW15804   9.414  10.827   0.491
22322SOL    HW115805   9.364  10.828   0.577
22322SOL    HW215806   9.511  10.809   0.509
22323SOL     OW15807  11.370   4.828   5.702
22323SOL    HW115808  11.394   4.797   5.795
22323SOL    HW215809  11.401   4.761   5.636
22324SOL     OW15810   3.588   4.602   7.983
22324SOL    HW115811   3.620   4.670   8.050
22324SOL    HW215812   3.543   4.650   7.907
22325SOL     OW15813   4.770  15.599   0.616
22325SOL    HW115814   4.701  15.551   0.670
22325SOL    HW215815   4.759  15.698   0.627
22326SOL     OW15816   2.528   9.292   7.094
22326SOL    HW115817   2.548   9.336   7.182
22326SOL    HW215818   2.606   9.235   7.067
22327SOL     OW15819   8.664   9.586   0.602
22327SOL    HW115820   8.697   9.677   0.576
22327SOL    HW215821   8.633   9.588   0.697
22328SOL     OW15822   3.264   4.208   0.180
22328SOL    HW115823   3.272   4.289   0.237
22328SOL    HW215824   3.307   4.130   0.226
22329SOL     OW15825   4.802  16.062   7.325
22329SOL    HW115826   4.856  16.137   7.361
22329SOL    HW215827   4.719  16.098   7.282
22330SOL     OW15828   2.921  15.410   0.689
22330SOL    HW115829   2.851  15.407   0.617
22330SOL    HW215830   2.889  15.466   0.765
22331SOL     OW15831   6.214  13.373   7.632
22331SOL    HW115832   6.250  13.353   7.723
22331SOL    HW215833   6.167  13.461   7.633
22332SOL     OW15834  14.255   3.657   2.008
22332SOL    HW115835  14.233   3.734   2.068
22332SOL    HW215836  14.354   3.647   2.002
22333SOL     OW15837  10.897  15.678   1.063
22333SOL    HW115838  10.873  15.581   1.067
22333SOL    HW215839  10.896  15.716   1.155
22334SOL     OW15840  14.332  15.586   0.798
22334SOL    HW115841  14.268  15.661   0.811
22334SOL    HW215842  14.410  15.598   0.860
22335SOL     OW15843  14.419  15.277   0.331
22335SOL    HW115844  14.396  15.226   0.414
22335SOL    HW215845  14.473  15.357   0.355
22336SOL     OW15846  11.059  10.017   0.307
22336SOL    HW115847  11.070  10.063   0.395
22336SOL    HW215848  11.109  10.067   0.237
22337SOL     OW15849   9.929   3.464   7.816
22337SOL    HW115850   9.986   3.440   7.737
22337SOL    HW215851   9.867   3.388   7.837
22338SOL     OW15852  11.035   5.720   8.402
22338SOL    HW115853  11.132   5.709   8.422
22338SOL    HW215854  11.023   5.759   8.311
22339SOL     OW15855   9.605   6.623   0.307
22339SOL    HW115856   9.630   6.720   0.312
22339SOL    HW215857   9.558   6.605   0.220
22340SOL     OW15858   6.034   7.261   1.433
22340SOL    HW115859   5.962   7.193   1.420
22340SOL    HW215860   5.998   7.340   1.484
22341SOL     OW15861  12.336   1.870   7.531
22341SOL    HW115862  12.359   1.962   7.564
22341SOL    HW215863  12.246   1.843   7.566
22342SOL     OW15864  15.007   9.151   0.027
22342SOL    HW115865  14.943   9.200   8.421
22342SOL    HW215866  15.035   9.212   0.101
22343SOL     OW15867  13.912  16.924   7.815
22343SOL    HW115868  13.960  16.947   7.900
22343SOL    HW215869  13.891   0.025   7.765
22344SOL     OW15870   9.571   9.282   0.536
22344SOL    HW115871   9.509   9.271   0.458
22344SOL    HW215872   9.524   9.255   0.620
22345SOL     OW15873   9.447   8.532   7.567
22345SOL    HW115874   9.473   8.584   7.485
22345SOL    HW215875   9.364   8.481   7.548
22346SOL     OW15876   3.692  14.996   0.875
22346SOL    HW115877   3.731  14.917   0.923
22346SOL    HW215878   3.595  15.004   0.897
22347SOL     OW15879   4.200   5.823   7.081
22347SOL    HW115880   4.233   5.798   7.172
22347SOL    HW215881   4.205   5.743   7.021
22348SOL     OW15882  11.929   3.484   0.268
22348SOL    HW115883  12.011   3.451   0.222
22348SOL    HW215884  11.848   3.457   0.216
22349SOL     OW15885  15.992  14.245   7.754
22349SOL    HW115886  16.092  14.245   7.755
22349SOL    HW215887  15.958  14.168   7.808
22350SOL     OW15888  15.317  14.757   7.490
22350SOL    HW115889  15.324  14.681   7.554
22350SOL    HW215890  15.280  14.724   7.403
22351SOL     OW15891   2.301  15.938   8.178
22351SOL    HW115892   2.372  15.934   8.107
22351SOL    HW215893   2.341  15.918   8.267
22352SOL     OW15894   9.311  16.678   0.250
22352SOL    HW115895   9.289  16.599   0.308
22352SOL    HW215896   9.284  16.762   0.297
22353SOL     OW15897  15.109   4.476   7.217
22353SOL    HW115898  15.088   4.381   7.238
22353SOL    HW215899  15.070   4.536   7.287
22354SOL     OW15900   8.318   8.703   0.965
22354SOL    HW115901   8.340   8.715   0.868
22354SOL    HW215902   8.400   8.676   1.015
22355SOL     OW15903  10.369  15.117   6.543
22355SOL    HW115904  10.424  15.034   6.556
22355SOL    HW215905  10.278  15.091   6.511
22356SOL     OW15906   4.746   5.676   2.448
22356SOL    HW115907   4.738   5.596   2.507
22356SOL    HW215908   4.680   5.746   2.477
22357SOL     OW15909   8.859   5.173   0.835
22357SOL    HW115910   8.787   5.203   0.898
22357SOL    HW215911   8.825   5.177   0.741
22358SOL     OW15912  12.156   2.893   0.494
22358SOL    HW115913  12.226   2.858   0.432
22358SOL    HW215914  12.067   2.857   0.466
22359SOL     OW15915  15.495   6.537   8.201
22359SOL    HW115916  15.434   6.501   8.272
22359SOL    HW215917  15.512   6.634   8.217
22360SOL     OW15918  16.126  12.566   0.805
22360SOL    HW115919  16.190  12.623   0.856
22360SOL    HW215920  16.049  12.543   0.864
22361SOL     OW15921  13.596   1.279   5.862
22361SOL    HW115922  13.675   1.228   5.827
22361SOL    HW215923  13.536   1.303   5.786
22362SOL     OW15924  11.113   4.731   6.566
22362SOL    HW115925  11.161   4.814   6.537
22362SOL    HW215926  11.092   4.737   6.663
22363SOL     OW15927   3.602   8.300   1.209
22363SOL    HW115928   3.690   8.338   1.235
22363SOL    HW215929   3.609   8.259   1.118
22364SOL     OW15930   1.004  14.964   7.201
22364SOL    HW115931   0.979  14.947   7.106
22364SOL    HW215932   0.966  14.891   7.258
22365SOL     OW15933  12.045  15.201   1.700
22365SOL    HW115934  11.958  15.151   1.709
22365SOL    HW215935  12.030  15.297   1.721
22366SOL     OW15936   0.117   5.543   5.539
22366SOL    HW115937   0.095   5.447   5.522
22366SOL    HW215938   0.154   5.553   5.631
22367SOL     OW15939   5.629   4.092   7.270
22367SOL    HW115940   5.579   4.045   7.343
22367SOL    HW215941   5.726   4.096   7.294
22368SOL     OW15942  16.016   8.889   1.617
22368SOL    HW115943  15.937   8.853   1.567
22368SOL    HW215944  15.990   8.905   1.712
22369SOL     OW15945   1.407   1.424   8.152
22369SOL    HW115946   1.460   1.498   8.192
22369SOL    HW215947   1.421   1.340   8.205
22370SOL     OW15948  15.659  10.347   1.719
22370SOL    HW115949  15.678  10.308   1.809
22370SOL    HW215950  15.694  10.441   1.716
22371SOL     OW15951  10.091   2.084   1.483
22371SOL    HW115952  10.132   2.160   1.533
22371SOL    HW215953  10.163   2.031   1.437
22372SOL     OW15954  15.617   0.605   8.134
22372SOL    HW115955  15.544   0.546   8.099
22372SOL    HW215956  15.611   0.609   8.234
22373SOL     OW15957  12.442  11.587   7.103
22373SOL    HW115958  12.381  11.522   7.057
22373SOL    HW215959  12.416  11.595   7.199
22374SOL     OW15960  13.640  14.823   6.815
22374SOL    HW115961  13.634  14.908   6.762
22374SOL    HW215962  13.730  14.781   6.800
22375SOL     OW15963   4.714   0.833   8.112
22375SOL    HW115964   4.793   0.831   8.052
22375SOL    HW215965   4.630   0.823   8.059
22376SOL     OW15966   2.467  16.263   0.873
22376SOL    HW115967   2.417  16.338   0.916
22376SOL    HW215968   2.522  16.299   0.797
22377SOL     OW15969   4.710  11.159   7.627
22377SOL    HW115970   4.722  11.254   7.598
22377SOL    HW215971   4.799  11.118   7.647
22378SOL     OW15972  11.235   4.485   6.554
22378SOL    HW115973  11.328   4.507   6.587
22378SOL    HW215974  11.181   4.569   6.550
22379SOL     OW15975   5.643   4.369   7.224
22379SOL    HW115976   5.567   4.430   7.205
22379SOL    HW215977   5.608   4.278   7.249
22380SOL     OW15978  11.802   6.708   7.958
22380SOL    HW115979  11.794   6.770   8.036
22380SOL    HW215980  11.870   6.638   7.978
22381SOL     OW15981   3.356  10.773   8.344
22381SOL    HW115982   3.426  10.796   8.412
22381SOL    HW215983   3.272  10.825   8.363
22382SOL     OW15984  13.635  12.758   7.064
22382SOL    HW115985  13.683  12.754   6.976
22382SOL    HW215986  13.599  12.851   7.078
22383SOL     OW15987  12.586  15.849   7.459
22383SOL    HW115988  12.679  15.815   7.472
22383SOL    HW215989  12.544  15.802   7.381
22384SOL     OW15990  12.415   5.253   6.144
22384SOL    HW115991  12.460   5.181   6.092
22384SOL    HW215992  12.406   5.224   6.239
22385SOL     OW15993  11.663   9.384   0.209
22385SOL    HW115994  11.735   9.338   0.261
22385SOL    HW215995  11.574   9.342   0.230
22386SOL     OW15996   8.719  13.387   1.519
22386SOL    HW115997   8.746  13.291   1.515
22386SOL    HW215998   8.801  13.444   1.517
22387SOL     OW15999  15.935   3.147   8.173
22387SOL    HW116000  16.030   3.114   8.172
22387SOL    HW216001  15.934   3.246   8.163
22388SOL     OW16002   4.820   8.401   0.133
22388SOL    HW116003   4.892   8.378   0.068
22388SOL    HW216004   4.785   8.317   0.174
22389SOL     OW16005   6.891  10.277   5.967
22389SOL    HW116006   6.811  10.319   5.925
22389SOL    HW216007   6.892  10.179   5.948
22390SOL     OW16008   3.050  14.303   0.464
22390SOL    HW116009   3.135  14.334   0.421
22390SOL    HW216010   3.068  14.219   0.516
22391SOL     OW16011  14.148  13.532   7.400
22391SOL    HW116012  14.167  13.628   7.376
22391SOL    HW216013  14.231  13.490   7.436
22392SOL     OW16014  15.309   7.976   6.500
22392SOL    HW116015  15.222   7.971   6.548
22392SOL    HW216016  15.384   7.956   6.563
22393SOL     OW16017   2.999   0.366   7.632
22393SOL    HW116018   2.905   0.338   7.652
22393SOL    HW216019   3.004   0.400   7.538
22394SOL     OW16020   8.169  16.461   7.923
22394SOL    HW116021   8.159  16.387   7.989
22394SOL    HW216022   8.242  16.523   7.953
22395SOL     OW16023   0.445   4.301   1.564
22395SOL    HW116024   0.369   4.276   1.504
22395SOL    HW216025   0.429   4.264   1.655
22396SOL     OW16026   3.545   6.998   2.185
22396SOL    HW116027   3.451   7.030   2.196
22396SOL    HW216028   3.606   7.051   2.244
22397SOL     OW16029   3.608  10.152   2.667
22397SOL    HW116030   3.528  10.155   2.727
22397SOL    HW216031   3.647  10.244   2.659
22398SOL     OW16032  14.918  16.496   1.162
22398SOL    HW116033  14.992  16.533   1.218
22398SOL    HW216034  14.830  16.532   1.193
22399SOL     OW16035   5.451  10.434   0.968
22399SOL    HW116036   5.427  10.373   0.892
22399SOL    HW216037   5.486  10.380   1.045
22400SOL     OW16038   3.839   2.799   7.077
22400SOL    HW116039   3.930   2.817   7.040
22400SOL    HW216040   3.820   2.701   7.072
22401SOL     OW16041  10.451  16.634   7.422
22401SOL    HW116042  10.459  16.535   7.427
22401SOL    HW216043  10.384  16.665   7.491
22402SOL     OW16044   9.260   8.447   0.756
22402SOL    HW116045   9.161   8.439   0.769
22402SOL    HW216046   9.300   8.355   0.753
22403SOL     OW16047   7.607   8.748   7.615
22403SOL    HW116048   7.698   8.788   7.620
22403SOL    HW216049   7.605   8.662   7.665
22404SOL     OW16050  16.434   4.678   7.659
22404SOL    HW116051  16.461   4.595   7.610
22404SOL    HW216052  16.421   4.656   7.755
22405SOL     OW16053   6.320  16.566   0.856
22405SOL    HW116054   6.339  16.500   0.929
22405SOL    HW216055   6.279  16.519   0.778
22406SOL     OW16056   1.873   8.336   1.219
22406SOL    HW116057   1.778   8.346   1.190
22406SOL    HW216058   1.878   8.333   1.319
22407SOL     OW16059  13.322   2.213   6.316
22407SOL    HW116060  13.265   2.259   6.384
22407SOL    HW216061  13.363   2.131   6.357
22408SOL     OW16062  10.025  15.900   7.206
22408SOL    HW116063   9.939  15.876   7.252
22408SOL    HW216064  10.022  15.995   7.176
22409SOL     OW16065  13.652  11.653   0.271
22409SOL    HW116066  13.706  11.675   0.353
22409SOL    HW216067  13.616  11.738   0.232
22410SOL     OW16068  13.571   4.034   8.153
22410SOL    HW116069  13.624   3.976   8.091
22410SOL    HW216070  13.601   4.020   8.247
22411SOL     OW16071  16.644  14.623   8.359
22411SOL    HW116072  16.666  14.691   8.288
22411SOL    HW216073  16.677  14.656   8.447
22412SOL     OW16074  12.147   1.343   7.881
22412SOL    HW116075  12.233   1.381   7.915
22412SOL    HW216076  12.072   1.372   7.940
22413SOL     OW16077  12.298   4.717   0.570
22413SOL    HW116078  12.325   4.813   0.563
22413SOL    HW216079  12.379   4.661   0.587
22414SOL     OW16080  14.635   6.161   7.501
22414SOL    HW116081  14.727   6.197   7.486
22414SOL    HW216082  14.569   6.236   7.501
22415SOL     OW16083   4.348   0.150   7.307
22415SOL    HW116084   4.297   0.064   7.317
22415SOL    HW216085   4.288   0.219   7.264
22416SOL     OW16086  13.592  12.940   2.032
22416SOL    HW116087  13.590  12.841   2.046
22416SOL    HW216088  13.511  12.981   2.073
22417SOL     OW16089   7.245   4.583   7.966
22417SOL    HW116090   7.341   4.608   7.983
22417SOL    HW216091   7.189   4.666   7.964
22418SOL     OW16092  10.554  15.991   6.793
22418SOL    HW116093  10.554  16.079   6.745
22418SOL    HW216094  10.495  15.997   6.874
22419SOL     OW16095   1.670   1.308   1.924
22419SOL    HW116096   1.705   1.324   2.017
22419SOL    HW216097   1.571   1.314   1.925
22420SOL     OW16098  14.427  11.133   7.343
22420SOL    HW116099  14.493  11.197   7.304
22420SOL    HW216100  14.352  11.183   7.386
22421SOL     OW16101  13.452   0.715   8.326
22421SOL    HW116102  13.424   0.680   8.236
22421SOL    HW216103  13.401   0.668   8.397
22422SOL     OW16104   8.554   6.401   8.219
22422SOL    HW116105   8.606   6.321   8.189
22422SOL    HW216106   8.575   6.478   8.159
22423SOL     OW16107   9.743   4.100   6.526
22423SOL    HW116108   9.686   4.053   6.459
22423SOL    HW216109   9.837   4.065   6.520
22424SOL     OW16110   2.546   9.519   0.534
22424SOL    HW116111   2.477   9.495   0.466
22424SOL    HW216112   2.511   9.498   0.625
22425SOL     OW16113   2.791   2.751   0.233
22425SOL    HW116114   2.745   2.721   0.317
22425SOL    HW216115   2.727   2.747   0.157
22426SOL     OW16116  14.017  14.776   6.545
22426SOL    HW116117  14.091  14.708   6.545
22426SOL    HW216118  14.020  14.827   6.459
22427SOL     OW16119  14.296  14.400   8.144
22427SOL    HW116120  14.287  14.345   8.227
22427SOL    HW216121  14.387  14.388   8.105
22428SOL     OW16122  16.582  11.744   8.009
22428SOL    HW116123  16.681  11.757   8.004
22428SOL    HW216124  16.557  11.697   8.094
22429SOL     OW16125   8.342   1.438   0.881
22429SOL    HW116126   8.427   1.489   0.898
22429SOL    HW216127   8.362   1.360   0.822
22430SOL     OW16128   5.166   0.146   2.493
22430SOL    HW116129   5.090   0.176   2.552
22430SOL    HW216130   5.234   0.219   2.488
22431SOL     OW16131  12.220  10.278   7.664
22431SOL    HW116132  12.231  10.375   7.642
22431SOL    HW216133  12.123  10.254   7.660
22432SOL     OW16134  13.271   2.375   1.024
22432SOL    HW116135  13.251   2.327   0.939
22432SOL    HW216136  13.208   2.452   1.035
22433SOL     OW16137   4.063  15.012   7.385
22433SOL    HW116138   3.992  14.977   7.446
22433SOL    HW216139   4.026  15.024   7.294
22434SOL     OW16140   2.337  11.377   1.599
22434SOL    HW116141   2.428  11.419   1.601
22434SOL    HW216142   2.278  11.421   1.666
22435SOL     OW16143  10.600  10.298   0.050
22435SOL    HW116144  10.623  10.287   0.146
22435SOL    HW216145  10.683  10.313   8.451
22436SOL     OW16146  11.036  10.820   0.914
22436SOL    HW116147  11.135  10.830   0.904
22436SOL    HW216148  11.009  10.842   1.008
22437SOL     OW16149   4.237  14.446   0.625
22437SOL    HW116150   4.274  14.367   0.673
22437SOL    HW216151   4.289  14.528   0.649
22438SOL     OW16152   7.882  16.647   0.608
22438SOL    HW116153   7.974  16.685   0.616
22438SOL    HW216154   7.885  16.548   0.616
22439SOL     OW16155   8.679   0.353   0.437
22439SOL    HW116156   8.773   0.325   0.419
22439SOL    HW216157   8.620   0.316   0.364
22440SOL     OW16158   7.730   7.464   0.841
22440SOL    HW116159   7.655   7.528   0.825
22440SOL    HW216160   7.769   7.479   0.932
22441SOL     OW16161   5.123   1.636   0.230
22441SOL    HW116162   5.051   1.604   0.167
22441SOL    HW216163   5.202   1.666   0.177
22442SOL     OW16164  10.120   5.315   7.906
22442SOL    HW116165  10.192   5.382   7.924
22442SOL    HW216166  10.078   5.286   7.992
22443SOL     OW16167   8.579   1.266   0.466
22443SOL    HW116168   8.595   1.361   0.438
22443SOL    HW216169   8.546   1.213   0.388
22444SOL     OW16170   3.506   8.405   1.602
22444SOL    HW116171   3.502   8.314   1.644
22444SOL    HW216172   3.425   8.419   1.545
22445SOL     OW16173  12.444  11.346   8.294
22445SOL    HW116174  12.539  11.322   8.276
22445SOL    HW216175  12.396  11.359   8.207
22446SOL     OW16176   0.478   4.627   0.375
22446SOL    HW116177   0.557   4.570   0.397
22446SOL    HW216178   0.489   4.717   0.417
22447SOL     OW16179  11.554   8.048   7.293
22447SOL    HW116180  11.572   7.952   7.315
22447SOL    HW216181  11.578   8.066   7.198
22448SOL     OW16182   7.613  11.630   6.932
22448SOL    HW116183   7.568  11.704   6.883
22448SOL    HW216184   7.712  11.634   6.916
22449SOL     OW16185  16.177   1.368   0.434
22449SOL    HW116186  16.173   1.433   0.359
22449SOL    HW216187  16.197   1.277   0.398
22450SOL     OW16188  14.816   0.617   1.071
22450SOL    HW116189  14.770   0.689   1.122
22450SOL    HW216190  14.846   0.652   0.982
22451SOL     OW16191   9.122   7.702   6.309
22451SOL    HW116192   9.114   7.796   6.343
22451SOL    HW216193   9.101   7.701   6.211
22452SOL     OW16194   3.810  11.618   6.550
22452SOL    HW116195   3.783  11.595   6.457
22452SOL    HW216196   3.728  11.634   6.606
22453SOL     OW16197   0.895   8.509   1.338
22453SOL    HW116198   0.926   8.598   1.373
22453SOL    HW216199   0.839   8.523   1.256
22454SOL     OW16200   3.454   4.424   1.430
22454SOL    HW116201   3.507   4.506   1.448
22454SOL    HW216202   3.360   4.448   1.407
22455SOL     OW16203  16.869  10.879   8.091
22455SOL    HW116204  16.843  10.792   8.050
22455SOL    HW216205  16.860  10.952   8.024
22456SOL     OW16206   8.926   8.124   1.232
22456SOL    HW116207   8.938   8.220   1.206
22456SOL    HW216208   8.983   8.105   1.312
22457SOL     OW16209   1.310   6.727   7.441
22457SOL    HW116210   1.245   6.651   7.448
22457SOL    HW216211   1.403   6.691   7.451
22458SOL     OW16212  13.570   6.414   7.149
22458SOL    HW116213  13.548   6.398   7.245
22458SOL    HW216214  13.665   6.389   7.132
22459SOL     OW16215   3.396   7.232   0.440
22459SOL    HW116216   3.358   7.308   0.493
22459SOL    HW216217   3.358   7.233   0.347
22460SOL     OW16218   3.435  13.195   8.412
22460SOL    HW116219   3.411  13.211   0.054
22460SOL    HW216220   3.499  13.265   8.381
22461SOL     OW16221   7.925   1.786   1.289
22461SOL    HW116222   7.967   1.876   1.294
22461SOL    HW216223   7.896   1.757   1.380
22462SOL     OW16224   2.047  14.479   7.982
22462SOL    HW116225   2.145  14.462   7.993
22462SOL    HW216226   2.029  14.511   7.889
22463SOL     OW16227   3.758   0.468   7.641
22463SOL    HW116228   3.670   0.491   7.601
22463SOL    HW216229   3.819   0.547   7.636
22464SOL     OW16230   4.790  16.967   0.330
22464SOL    HW116231   4.711  16.945   0.388
22464SOL    HW216232   4.874  16.948   0.381
22465SOL     OW16233  14.116  15.288   0.803
22465SOL    HW116234  14.040  15.348   0.780
22465SOL    HW216235  14.114  15.207   0.745
22466SOL     OW16236   8.027  12.799   0.097
22466SOL    HW116237   8.052  12.839   0.009
22466SOL    HW216238   8.098  12.820   0.164
22467SOL     OW16239  10.742   5.918   1.878
22467SOL    HW116240  10.797   5.910   1.794
22467SOL    HW216241  10.696   5.831   1.895
22468SOL     OW16242   5.188   9.837   8.037
22468SOL    HW116243   5.214   9.932   8.055
22468SOL    HW216244   5.232   9.778   8.103
22469SOL     OW16245   1.881   0.519   1.171
22469SOL    HW116246   1.810   0.577   1.210
22469SOL    HW216247   1.911   0.453   1.240
22470SOL     OW16248  14.914   4.105   1.761
22470SOL    HW116249  14.927   4.068   1.669
22470SOL    HW216250  14.999   4.148   1.792
22471SOL     OW16251   9.647  16.094   7.309
22471SOL    HW116252   9.594  16.076   7.226
22471SOL    HW216253   9.692  16.183   7.301
22472SOL     OW16254  16.866   0.198   8.029
22472SOL    HW116255  16.875   0.273   8.095
22472SOL    HW216256  16.832   0.234   7.942
22473SOL     OW16257   5.014   0.755   7.274
22473SOL    HW116258   4.924   0.766   7.232
22473SOL    HW216259   5.083   0.803   7.220
22474SOL     OW16260   3.631  13.522   6.913
22474SOL    HW116261   3.547  13.526   6.860
22474SOL    HW216262   3.706  13.560   6.858
22475SOL     OW16263   6.474  12.113   1.773
22475SOL    HW116264   6.449  12.152   1.862
22475SOL    HW216265   6.571  12.089   1.773
22476SOL     OW16266  16.187   2.845   0.883
22476SOL    HW116267  16.129   2.893   0.948
22476SOL    HW216268  16.131   2.783   0.827
22477SOL     OW16269   0.122   7.172   1.145
22477SOL    HW116270   0.184   7.100   1.114
22477SOL    HW216271   0.147   7.259   1.102
22478SOL     OW16272   8.423   8.945   6.165
22478SOL    HW116273   8.412   9.032   6.116
22478SOL    HW216274   8.357   8.879   6.130
22479SOL     OW16275  10.995  11.981   0.123
22479SOL    HW116276  11.070  11.956   0.063
22479SOL    HW216277  10.951  11.899   0.158
22480SOL     OW16278  10.728  15.163   1.011
22480SOL    HW116279  10.642  15.138   1.055
22480SOL    HW216280  10.716  15.160   0.911
22481SOL     OW16281  10.915   4.182   1.028
22481SOL    HW116282  10.992   4.214   1.082
22481SOL    HW216283  10.946   4.160   0.935
22482SOL     OW16284   7.797   2.406   0.963
22482SOL    HW116285   7.866   2.345   1.002
22482SOL    HW216286   7.761   2.365   0.879
22483SOL     OW16287   1.990  14.870   0.194
22483SOL    HW116288   1.976  14.938   0.122
22483SOL    HW216289   2.053  14.799   0.162
22484SOL     OW16290   1.399  15.743   7.694
22484SOL    HW116291   1.355  15.657   7.721
22484SOL    HW216292   1.481  15.723   7.640
22485SOL     OW16293  12.992   7.883   0.325
22485SOL    HW116294  12.948   7.927   0.247
22485SOL    HW216295  13.091   7.893   0.318
22486SOL     OW16296   0.000   1.321   1.870
22486SOL    HW116297   0.008   1.394   1.802
22486SOL    HW216298   0.062   1.340   1.946
22487SOL     OW16299  14.276   6.825   6.373
22487SOL    HW116300  14.220   6.815   6.291
22487SOL    HW216301  14.334   6.905   6.364
22488SOL     OW16302   4.229   6.004   1.643
22488SOL    HW116303   4.244   5.969   1.736
22488SOL    HW216304   4.212   5.928   1.581
22489SOL     OW16305  14.495   1.656   1.279
22489SOL    HW116306  14.416   1.594   1.280
22489SOL    HW216307  14.504   1.698   1.369
22490SOL     OW16308  10.853   0.731   1.031
22490SOL    HW116309  10.885   0.638   1.051
22490SOL    HW216310  10.754   0.731   1.019
22491SOL     OW16311   8.925  14.102   0.476
22491SOL    HW116312   8.893  14.188   0.436
22491SOL    HW216313   8.871  14.080   0.557
22492SOL     OW16314   6.685   7.690   6.969
22492SOL    HW116315   6.657   7.711   6.875
22492SOL    HW216316   6.785   7.681   6.973
22493SOL     OW16317  15.616  13.884   6.560
22493SOL    HW116318  15.694  13.946   6.557
22493SOL    HW216319  15.608  13.836   6.472
22494SOL     OW16320   4.120  10.239   6.544
22494SOL    HW116321   4.126  10.320   6.485
22494SOL    HW216322   4.110  10.157   6.487
22495SOL     OW16323  15.790   4.276   2.016
22495SOL    HW116324  15.884   4.242   2.010
22495SOL    HW216325  15.791   4.374   2.032
22496SOL     OW16326   9.627  12.996   0.882
22496SOL    HW116327   9.591  12.956   0.967
22496SOL    HW216328   9.703  13.057   0.903
22497SOL     OW16329   2.581  13.993   8.037
22497SOL    HW116330   2.537  13.983   8.127
22497SOL    HW216331   2.617  13.904   8.008
22498SOL     OW16332  11.701   8.423   7.360
22498SOL    HW116333  11.690   8.351   7.429
22498SOL    HW216334  11.782   8.404   7.305
22499SOL     OW16335  10.236  14.059   6.701
22499SOL    HW116336  10.238  14.010   6.788
22499SOL    HW216337  10.329  14.065   6.665
22500SOL     OW16338  11.026  13.525   2.058
22500SOL    HW116339  11.117  13.567   2.057
22500SOL    HW216340  11.012  13.474   1.973
22501SOL     OW16341   7.381  10.817   1.776
22501SOL    HW116342   7.315  10.884   1.811
22501SOL    HW216343   7.399  10.749   1.847
22502SOL     OW16344   3.521   5.727   7.220
22502SOL    HW116345   3.540   5.641   7.174
22502SOL    HW216346   3.482   5.709   7.310
22503SOL     OW16347   2.616  10.428   6.451
22503SOL    HW116348   2.561  10.443   6.369
22503SOL    HW216349   2.573  10.358   6.508
22504SOL     OW16350   6.051  16.115   0.178
22504SOL    HW116351   6.058  16.205   0.221
22504SOL    HW216352   6.098  16.117   0.090
22505SOL     OW16353   1.860   2.880   7.198
22505SOL    HW116354   1.761   2.867   7.191
22505SOL    HW216355   1.907   2.802   7.157
22506SOL     OW16356   2.731   9.102   7.027
22506SOL    HW116357   2.748   9.081   6.931
22506SOL    HW216358   2.808   9.155   7.063
22507SOL     OW16359   2.545   3.449   6.963
22507SOL    HW116360   2.581   3.382   7.028
22507SOL    HW216361   2.445   3.443   6.962
22508SOL     OW16362  12.534   9.794   6.514
22508SOL    HW116363  12.503   9.805   6.608
22508SOL    HW216364  12.496   9.867   6.458
22509SOL     OW16365   1.854   9.839   1.547
22509SOL    HW116366   1.852   9.927   1.593
22509SOL    HW216367   1.811   9.770   1.605
22510SOL     OW16368  11.119   2.958   1.714
22510SOL    HW116369  11.212   2.994   1.723
22510SOL    HW216370  11.072   2.965   1.802
22511SOL     OW16371  11.033   3.024   1.465
22511SOL    HW116372  11.071   2.997   1.553
22511SOL    HW216373  10.972   3.102   1.477
22512SOL     OW16374   8.624  14.865   7.328
22512SOL    HW116375   8.577  14.940   7.377
22512SOL    HW216376   8.646  14.895   7.235
22513SOL     OW16377   1.484   3.940   1.122
22513SOL    HW116378   1.548   3.881   1.172
22513SOL    HW216379   1.398   3.946   1.172
22514SOL     OW16380   3.926  10.715   0.195
22514SOL    HW116381   3.908  10.619   0.175
22514SOL    HW216382   3.874  10.773   0.132
22515SOL     OW16383   7.828   9.600   0.489
22515SOL    HW116384   7.774   9.645   0.560
22515SOL    HW216385   7.875   9.521   0.528
22516SOL     OW16386  16.921   2.308   7.082
22516SOL    HW116387   0.001   2.301   7.159
22516SOL    HW216388  16.858   2.231   7.083
22517SOL     OW16389   8.636  12.322   6.557
22517SOL    HW116390   8.690  12.360   6.482
22517SOL    HW216391   8.556  12.380   6.573
22518SOL     OW16392  11.128   4.572   6.863
22518SOL    HW116393  11.135   4.478   6.830
22518SOL    HW216394  11.106   4.571   6.960
22519SOL     OW16395   2.475   5.190   7.660
22519SOL    HW116396   2.525   5.105   7.675
22519SOL    HW216397   2.534   5.268   7.683
22520SOL     OW16398   3.704  11.936   2.651
22520SOL    HW116399   3.733  11.847   2.616
22520SOL    HW216400   3.756  11.958   2.733
22521SOL     OW16401  11.712  11.945   0.869
22521SOL    HW116402  11.700  12.037   0.907
22521SOL    HW216403  11.695  11.877   0.940
22522SOL     OW16404   3.202   7.845   7.847
22522SOL    HW116405   3.171   7.936   7.820
22522SOL    HW216406   3.200   7.837   7.947
22523SOL     OW16407   0.905   7.378   0.486
22523SOL    HW116408   0.948   7.293   0.516
22523SOL    HW216409   0.832   7.403   0.550
22524SOL     OW16410  13.570  15.672   0.632
22524SOL    HW116411  13.635  15.716   0.569
22524SOL    HW216412  13.505  15.618   0.579
22525SOL     OW16413  16.971   7.394   6.825
22525SOL    HW116414  16.940   7.469   6.767
22525SOL    HW216415  16.925   7.310   6.796
22526SOL     OW16416   9.387  14.542   0.434
22526SOL    HW116417   9.329  14.463   0.455
22526SOL    HW216418   9.339  14.626   0.459
22527SOL     OW16419   3.027   0.024   7.432
22527SOL    HW116420   3.083   0.102   7.404
22527SOL    HW216421   2.969  16.979   7.356
22528SOL     OW16422  10.547   8.468   1.689
22528SOL    HW116423  10.595   8.539   1.739
22528SOL    HW216424  10.448   8.486   1.693
22529SOL     OW16425   6.710  13.017   7.154
22529SOL    HW116426   6.769  12.942   7.182
22529SOL    HW216427   6.614  12.989   7.159
22530SOL     OW16428  13.777  12.968   0.014
22530SOL    HW116429  13.798  12.954   0.111
22530SOL    HW216430  13.724  12.890   8.434
22531SOL     OW16431   3.653   5.647   8.049
22531SOL    HW116432   3.636   5.551   8.025
22531SOL    HW216433   3.736   5.678   8.004
22532SOL     OW16434   6.384   9.878   1.777
22532SOL    HW116435   6.401   9.801   1.838
22532SOL    HW216436   6.428   9.862   1.689
22533SOL     OW16437   2.321   4.549   0.202
22533SOL    HW116438   2.269   4.625   0.162
22533SOL    HW216439   2.268   4.507   0.276
22534SOL     OW16440  13.738   2.126   8.042
22534SOL    HW116441  13.791   2.089   7.966
22534SOL    HW216442  13.782   2.208   8.077
22535SOL     OW16443   3.033   9.908   7.364
22535SOL    HW116444   3.066  10.002   7.354
22535SOL    HW216445   2.948   9.908   7.415
22536SOL     OW16446   6.210  14.847   6.348
22536SOL    HW116447   6.240  14.752   6.340
22536SOL    HW216448   6.110  14.850   6.344
22537SOL     OW16449  16.187  16.267   6.631
22537SOL    HW116450  16.220  16.360   6.650
22537SOL    HW216451  16.164  16.259   6.534
22538SOL     OW16452  16.126   6.269   1.473
22538SOL    HW116453  16.036   6.227   1.467
22538SOL    HW216454  16.184   6.235   1.398
22539SOL     OW16455   8.080   5.283   0.608
22539SOL    HW116456   8.061   5.381   0.604
22539SOL    HW216457   8.000   5.235   0.642
22540SOL     OW16458   8.295   8.087   7.618
22540SOL    HW116459   8.248   8.119   7.700
22540SOL    HW216460   8.286   7.988   7.611
22541SOL     OW16461   6.733  15.868   8.427
22541SOL    HW116462   6.705  15.786   8.376
22541SOL    HW216463   6.811  15.911   8.381
22542SOL     OW16464   5.843   2.856   8.321
22542SOL    HW116465   5.929   2.868   8.271
22542SOL    HW216466   5.772   2.822   8.259
22543SOL     OW16467  10.707  13.488   6.847
22543SOL    HW116468  10.774  13.462   6.917
22543SOL    HW216469  10.717  13.429   6.767
22544SOL     OW16470  11.769  15.975   6.177
22544SOL    HW116471  11.853  15.947   6.224
22544SOL    HW216472  11.765  16.075   6.173
22545SOL     OW16473   2.539   6.495   7.088
22545SOL    HW116474   2.530   6.594   7.081
22545SOL    HW216475   2.622   6.472   7.139
22546SOL     OW16476   3.396   4.075   7.100
22546SOL    HW116477   3.354   4.040   7.016
22546SOL    HW216478   3.452   4.004   7.141
22547SOL     OW16479  16.072  10.238   1.852
22547SOL    HW116480  16.110  10.158   1.899
22547SOL    HW216481  16.064  10.218   1.754
22548SOL     OW16482   5.818   4.922   0.390
22548SOL    HW116483   5.802   4.828   0.359
22548SOL    HW216484   5.868   4.920   0.477
22549SOL     OW16485   0.581   3.258   7.728
22549SOL    HW116486   0.536   3.296   7.809
22549SOL    HW216487   0.523   3.187   7.688
22550SOL     OW16488   3.341   4.197   2.002
22550SOL    HW116489   3.354   4.110   1.954
22550SOL    HW216490   3.372   4.188   2.097
22551SOL     OW16491   1.111  13.553   8.014
22551SOL    HW116492   1.127  13.461   8.050
22551SOL    HW216493   1.073  13.611   8.086
22552SOL     OW16494  12.800  13.167   0.051
22552SOL    HW116495  12.824  13.192   0.144
22552SOL    HW216496  12.790  13.068   0.044
22553SOL     OW16497  13.958  10.503   0.232
22553SOL    HW116498  13.863  10.534   0.242
22553SOL    HW216499  13.971  10.464   0.141
22554SOL     OW16500   1.513   8.041   0.447
22554SOL    HW116501   1.480   8.043   0.541
22554SOL    HW216502   1.586   7.972   0.439
22555SOL     OW16503  16.768   2.442   1.540
22555SOL    HW116504  16.668   2.455   1.539
22555SOL    HW216505  16.792   2.381   1.615
22556SOL     OW16506   5.609   7.889   2.015
22556SOL    HW116507   5.636   7.963   1.954
22556SOL    HW216508   5.513   7.899   2.040
22557SOL     OW16509  14.227  15.632   1.479
22557SOL    HW116510  14.312  15.583   1.495
22557SOL    HW216511  14.150  15.568   1.486
22558SOL     OW16512   4.270   6.120   8.340
22558SOL    HW116513   4.263   6.215   8.371
22558SOL    HW216514   4.187   6.096   8.290
22559SOL     OW16515  11.489   9.427   7.015
22559SOL    HW116516  11.515   9.336   6.982
22559SOL    HW216517  11.439   9.475   6.944
22560SOL     OW16518   2.283  16.732   7.869
22560SOL    HW116519   2.322  16.723   7.778
22560SOL    HW216520   2.201  16.675   7.877
22561SOL     OW16521   2.348   3.945   8.289
22561SOL    HW116522   2.318   3.885   8.214
22561SOL    HW216523   2.304   4.034   8.279
22562SOL     OW16524   7.717   1.918   7.367
22562SOL    HW116525   7.689   1.857   7.442
22562SOL    HW216526   7.635   1.960   7.327
22563SOL     OW16527   7.035  15.971   0.658
22563SOL    HW116528   6.993  16.053   0.617
22563SOL    HW216529   6.999  15.890   0.613
22564SOL     OW16530   8.439   2.214   0.825
22564SOL    HW116531   8.533   2.213   0.790
22564SOL    HW216532   8.377   2.246   0.753
22565SOL     OW16533   7.934   4.543   8.429
22565SOL    HW116534   8.006   4.474   8.418
22565SOL    HW216535   7.970   4.633   8.405
22566SOL     OW16536  13.633   5.390   6.495
22566SOL    HW116537  13.703   5.399   6.565
22566SOL    HW216538  13.545   5.424   6.530
22567SOL     OW16539  13.332  10.159   1.760
22567SOL    HW116540  13.283  10.123   1.680
22567SOL    HW216541  13.270  10.214   1.816
22568SOL     OW16542   0.787   3.554   7.197
22568SOL    HW116543   0.768   3.459   7.174
22568SOL    HW216544   0.718   3.588   7.261
22569SOL     OW16545   7.577   9.781   0.932
22569SOL    HW116546   7.667   9.740   0.915
22569SOL    HW216547   7.570   9.807   1.029
22570SOL     OW16548  13.798  13.414   1.733
22570SOL    HW116549  13.835  13.451   1.818
22570SOL    HW216550  13.864  13.350   1.693
22571SOL     OW16551   9.364   0.017   6.702
22571SOL    HW116552   9.345   0.077   6.625
22571SOL    HW216553   9.306   0.043   6.780
22572SOL     OW16554  10.365  15.865   5.732
22572SOL    HW116555  10.442  15.817   5.774
22572SOL    HW216556  10.399  15.946   5.684
22573SOL     OW16557   3.296  16.379   1.853
22573SOL    HW116558   3.234  16.302   1.838
22573SOL    HW216559   3.364  16.381   1.780
22574SOL     OW16560  11.794   7.492   7.816
22574SOL    HW116561  11.766   7.536   7.902
22574SOL    HW216562  11.860   7.420   7.835
22575SOL     OW16563   3.392  11.242   1.442
22575SOL    HW116564   3.470  11.303   1.456
22575SOL    HW216565   3.386  11.216   1.345
22576SOL     OW16566   2.998   1.466   1.140
22576SOL    HW116567   3.037   1.414   1.216
22576SOL    HW216568   3.070   1.485   1.072
22577SOL     OW16569   4.578  11.406   0.073
22577SOL    HW116570   4.677  11.396   0.065
22577SOL    HW216571   4.533  11.336   0.018
22578SOL     OW16572   9.327   0.216   6.499
22578SOL    HW116573   9.283   0.239   6.412
22578SOL    HW216574   9.426   0.220   6.489
22579SOL     OW16575  16.944   2.186   8.054
22579SOL    HW116576   0.051   2.217   8.085
22579SOL    HW216577  16.911   2.114   8.115
22580SOL     OW16578  15.662  16.133   6.475
22580SOL    HW116579  15.682  16.117   6.571
22580SOL    HW216580  15.745  16.123   6.421
22581SOL     OW16581   5.318   0.637   7.124
22581SOL    HW116582   5.296   0.624   7.221
22581SOL    HW216583   5.364   0.556   7.090
22582SOL     OW16584  13.634   1.454   8.128
22582SOL    HW116585  13.603   1.375   8.181
22582SOL    HW216586  13.615   1.438   8.031
22583SOL     OW16587   1.526  11.306   2.359
22583SOL    HW116588   1.480  11.267   2.439
22583SOL    HW216589   1.611  11.350   2.388
22584SOL     OW16590  10.781   9.757   8.379
22584SOL    HW116591  10.749   9.668   8.344
22584SOL    HW216592  10.708   9.799   8.433
22585SOL     OW16593  11.619  15.645   6.415
22585SOL    HW116594  11.700  15.587   6.403
22585SOL    HW216595  11.648  15.737   6.444
22586SOL     OW16596  14.634   0.779   6.754
22586SOL    HW116597  14.629   0.759   6.656
22586SOL    HW216598  14.657   0.875   6.767
22587SOL     OW16599  12.230   6.549   1.637
22587SOL    HW116600  12.204   6.645   1.642
22587SOL    HW216601  12.169   6.495   1.696
22588SOL     OW16602  16.838   9.875   7.064
22588SOL    HW116603  16.865   9.845   6.973
22588SOL    HW216604  16.862   9.805   7.131
22589SOL     OW16605   0.084   2.628   7.602
22589SOL    HW116606   0.064   2.583   7.515
22589SOL    HW216607   0.004   2.683   7.629
22590SOL     OW16608   2.773   6.402   7.203
22590SOL    HW116609   2.852   6.420   7.262
22590SOL    HW216610   2.803   6.365   7.115
22591SOL     OW16611  14.021   0.808   1.894
22591SOL    HW116612  14.067   0.890   1.927
22591SOL    HW216613  14.004   0.747   1.971
22592SOL     OW16614  11.297   5.912   5.989
22592SOL    HW116615  11.358   5.844   5.948
22592SOL    HW216616  11.251   5.963   5.917
22593SOL     OW16617  16.450  15.548   0.440
22593SOL    HW116618  16.379  15.615   0.418
22593SOL    HW216619  16.536  15.577   0.397
22594SOL     OW16620   8.603  13.817   6.869
22594SOL    HW116621   8.546  13.845   6.792
22594SOL    HW216622   8.599  13.717   6.878
22595SOL     OW16623  16.508   8.970   8.046
22595SOL    HW116624  16.476   8.983   7.953
22595SOL    HW216625  16.604   8.942   8.045
22596SOL     OW16626   6.830   7.249   7.483
22596SOL    HW116627   6.907   7.216   7.428
22596SOL    HW216628   6.745   7.231   7.435
22597SOL     OW16629   5.611  13.517   2.256
22597SOL    HW116630   5.556  13.594   2.223
22597SOL    HW216631   5.622  13.524   2.355
22598SOL     OW16632  16.668   1.308   6.452
22598SOL    HW116633  16.725   1.242   6.402
22598SOL    HW216634  16.712   1.331   6.538
22599SOL     OW16635   3.270  12.425   7.565
22599SOL    HW116636   3.223  12.344   7.528
22599SOL    HW216637   3.206  12.502   7.566
22600SOL     OW16638  15.468   9.468   6.845
22600SOL    HW116639  15.485   9.377   6.807
22600SOL    HW216640  15.432   9.458   6.938
22601SOL     OW16641   9.917   9.298   6.736
22601SOL    HW116642   9.831   9.278   6.690
22601SOL    HW216643   9.943   9.221   6.795
22602SOL     OW16644  10.079   9.385   0.455
22602SOL    HW116645  10.093   9.285   0.454
22602SOL    HW216646  10.046   9.415   0.366
22603SOL     OW16647  13.508  15.282   8.267
22603SOL    HW116648  13.591  15.338   8.276
22603SOL    HW216649  13.505  15.243   8.175
22604SOL     OW16650  16.784  14.116   1.051
22604SOL    HW116651  16.700  14.158   1.018
22604SOL    HW216652  16.768  14.078   1.143
22605SOL     OW16653   6.493  13.385   0.112
22605SOL    HW116654   6.453  13.449   0.046
22605SOL    HW216655   6.579  13.350   0.075
22606SOL     OW16656   0.785  12.716   8.292
22606SOL    HW116657   0.822  12.624   8.299
22606SOL    HW216658   0.759  12.735   8.197
22607SOL     OW16659  10.917  12.246   1.024
22607SOL    HW116660  10.880  12.192   1.099
22607SOL    HW216661  10.972  12.188   0.965
22608SOL     OW16662   6.518   9.109   6.542
22608SOL    HW116663   6.533   9.140   6.448
22608SOL    HW216664   6.459   9.029   6.542
22609SOL     OW16665  11.901   0.680   8.064
22609SOL    HW116666  11.803   0.692   8.050
22609SOL    HW216667  11.950   0.762   8.036
22610SOL     OW16668  15.434   6.949   6.865
22610SOL    HW116669  15.343   6.909   6.853
22610SOL    HW216670  15.427   7.048   6.858
22611SOL     OW16671   4.866   2.638   2.650
22611SOL    HW116672   4.957   2.646   2.609
22611SOL    HW216673   4.804   2.701   2.603
22612SOL     OW16674   2.615   7.436   1.470
22612SOL    HW116675   2.614   7.536   1.478
22612SOL    HW216676   2.528   7.405   1.430
22613SOL     OW16677   0.720   8.874   2.031
22613SOL    HW116678   0.816   8.864   2.059
22613SOL    HW216679   0.666   8.799   2.070
22614SOL     OW16680   9.038  15.986   7.711
22614SOL    HW116681   9.088  15.935   7.781
22614SOL    HW216682   9.099  16.009   7.636
22615SOL     OW16683   6.548  16.481   7.070
22615SOL    HW116684   6.507  16.469   7.161
22615SOL    HW216685   6.647  16.472   7.077
22616SOL     OW16686  16.158  11.187   0.127
22616SOL    HW116687  16.085  11.223   0.069
22616SOL    HW216688  16.118  11.139   0.205
22617SOL     OW16689   9.971   2.006   1.733
22617SOL    HW116690  10.004   2.030   1.642
22617SOL    HW216691   9.920   2.083   1.771
22618SOL     OW16692   8.427   7.284   1.276
22618SOL    HW116693   8.492   7.331   1.335
22618SOL    HW216694   8.404   7.195   1.316
22619SOL     OW16695  12.199   5.561   1.622
22619SOL    HW116696  12.172   5.503   1.545
22619SOL    HW216697  12.118   5.604   1.661
22620SOL     OW16698   4.541  16.565   6.905
22620SOL    HW116699   4.545  16.560   7.005
22620SOL    HW216700   4.450  16.593   6.876
22621SOL     OW16701   3.105   5.432   6.654
22621SOL    HW116702   3.158   5.515   6.670
22621SOL    HW216703   3.104   5.412   6.556
22622SOL     OW16704  15.504  13.221   0.087
22622SOL    HW116705  15.516  13.189   8.447
22622SOL    HW216706  15.525  13.146   0.150
22623SOL     OW16707   6.217  13.955   1.397
22623SOL    HW116708   6.241  13.903   1.315
22623SOL    HW216709   6.139  13.910   1.442
22624SOL     OW16710   8.495  12.114   7.739
22624SOL    HW116711   8.420  12.179   7.734
22624SOL    HW216712   8.573  12.149   7.687
22625SOL     OW16713   1.923  16.536   7.562
22625SOL    HW116714   1.932  16.633   7.543
22625SOL    HW216715   1.830  16.506   7.539
22626SOL     OW16716  14.598   0.799   2.214
22626SOL    HW116717  14.513   0.842   2.186
22626SOL    HW216718  14.585   0.753   2.302
22627SOL     OW16719   4.562   4.323   0.422
22627SOL    HW116720   4.472   4.281   0.434
22627SOL    HW216721   4.631   4.267   0.469
22628SOL     OW16722   8.029  12.274   0.210
22628SOL    HW116723   8.008  12.371   0.200
22628SOL    HW216724   7.961  12.231   0.271
22629SOL     OW16725  12.881   2.810   0.876
22629SOL    HW116726  12.852   2.901   0.848
22629SOL    HW216727  12.978   2.798   0.855
22630SOL     OW16728   8.122  15.565   0.178
22630SOL    HW116729   8.202  15.544   0.122
22630SOL    HW216730   8.139  15.537   0.272
22631SOL     OW16731  13.565  15.886   6.895
22631SOL    HW116732  13.568  15.841   6.985
22631SOL    HW216733  13.518  15.827   6.830
22632SOL     OW16734  10.689   8.017   6.138
22632SOL    HW116735  10.779   8.055   6.115
22632SOL    HW216736  10.622   8.049   6.072
22633SOL     OW16737  15.430  14.826   0.816
22633SOL    HW116738  15.508  14.858   0.868
22633SOL    HW216739  15.345  14.855   0.861
22634SOL     OW16740   2.453  14.128   7.169
22634SOL    HW116741   2.495  14.160   7.084
22634SOL    HW216742   2.361  14.095   7.151
22635SOL     OW16743  14.982  13.507   8.425
22635SOL    HW116744  14.922  13.560   0.032
22635SOL    HW216745  14.965  13.410   8.439
22636SOL     OW16746   5.268  16.506   8.266
22636SOL    HW116747   5.263  16.431   8.200
22636SOL    HW216748   5.180  16.514   8.314
22637SOL     OW16749  16.205  12.439   7.617
22637SOL    HW116750  16.138  12.465   7.687
22637SOL    HW216751  16.271  12.376   7.658
22638SOL     OW16752   5.465  13.150   0.119
22638SOL    HW116753   5.405  13.158   0.039
22638SOL    HW216754   5.491  13.241   0.151
22639SOL     OW16755   5.232   4.445   6.972
22639SOL    HW116756   5.314   4.485   7.013
22639SOL    HW216757   5.188   4.511   6.912
22640SOL     OW16758   7.174  12.042   6.872
22640SOL    HW116759   7.108  12.060   6.945
22640SOL    HW216760   7.151  11.955   6.827
22641SOL     OW16761   9.882  14.979   6.865
22641SOL    HW116762   9.961  14.979   6.804
22641SOL    HW216763   9.807  14.928   6.822
22642SOL     OW16764   6.054   1.620   6.318
22642SOL    HW116765   6.020   1.560   6.246
22642SOL    HW216766   6.019   1.713   6.303
22643SOL     OW16767  10.020   0.820   7.738
22643SOL    HW116768  10.011   0.906   7.688
22643SOL    HW216769  10.065   0.752   7.679
22644SOL     OW16770   8.729  11.932   8.060
22644SOL    HW116771   8.778  11.851   8.027
22644SOL    HW216772   8.650  11.950   8.002
22645SOL     OW16773   3.475   7.616   1.298
22645SOL    HW116774   3.503   7.701   1.342
22645SOL    HW216775   3.407   7.570   1.355
22646SOL     OW16776   4.952   8.316   2.538
22646SOL    HW116777   5.050   8.315   2.555
22646SOL    HW216778   4.904   8.328   2.625
22647SOL     OW16779   9.076   5.787   1.142
22647SOL    HW116780   9.141   5.855   1.109
22647SOL    HW216781   9.124   5.702   1.164
22648SOL     OW16782  12.919   5.213   1.198
22648SOL    HW116783  12.840   5.207   1.137
22648SOL    HW216784  12.952   5.121   1.219
22649SOL     OW16785  12.922  12.586   7.517
22649SOL    HW116786  12.917  12.587   7.418
22649SOL    HW216787  12.916  12.492   7.550
22650SOL     OW16788  14.610   3.485   7.146
22650SOL    HW116789  14.551   3.550   7.098
22650SOL    HW216790  14.568   3.395   7.146
22651SOL     OW16791   2.749   0.962   7.099
22651SOL    HW116792   2.797   0.984   7.184
22651SOL    HW216793   2.811   0.976   7.021
22652SOL     OW16794   0.799   6.473   7.017
22652SOL    HW116795   0.742   6.451   6.938
22652SOL    HW216796   0.767   6.420   7.096
22653SOL     OW16797   6.464   2.606   1.592
22653SOL    HW116798   6.473   2.705   1.579
22653SOL    HW216799   6.471   2.584   1.689
22654SOL     OW16800   9.189  15.371   7.163
22654SOL    HW116801   9.191  15.297   7.231
22654SOL    HW216802   9.235  15.341   7.079
22655SOL     OW16803   4.033   4.020   7.383
22655SOL    HW116804   4.045   3.951   7.453
22655SOL    HW216805   4.074   3.988   7.297
22656SOL     OW16806  12.307   0.776   6.672
22656SOL    HW116807  12.248   0.790   6.592
22656SOL    HW216808  12.384   0.840   6.667
22657SOL     OW16809   5.050  16.536   6.182
22657SOL    HW116810   5.120  16.480   6.227
22657SOL    HW216811   5.092  16.592   6.111
22658SOL     OW16812  13.419   1.983   6.437
22658SOL    HW116813  13.437   1.897   6.390
22658SOL    HW216814  13.339   1.971   6.497
22659SOL     OW16815  16.413  16.554   6.434
22659SOL    HW116816  16.464  16.474   6.402
22659SOL    HW216817  16.372  16.601   6.356
22660SOL     OW16818   8.563  14.276   0.960
22660SOL    HW116819   8.536  14.194   0.909
22660SOL    HW216820   8.661  14.273   0.979
22661SOL     OW16821  12.064  13.871   0.116
22661SOL    HW116822  12.102  13.957   0.080
22661SOL    HW216823  12.139  13.811   0.144
22662SOL     OW16824  10.303  11.308   6.166
22662SOL    HW116825  10.380  11.277   6.111
22662SOL    HW216826  10.218  11.271   6.130
22663SOL     OW16827  16.789   2.250   1.738
22663SOL    HW116828  16.768   2.180   1.670
22663SOL    HW216829  16.762   2.217   1.829
22664SOL     OW16830  14.056  12.518   0.808
22664SOL    HW116831  14.012  12.554   0.891
22664SOL    HW216832  14.066  12.592   0.742
22665SOL     OW16833   5.029   4.592   1.489
22665SOL    HW116834   4.963   4.659   1.521
22665SOL    HW216835   4.983   4.525   1.430
22666SOL     OW16836   6.144   0.910   7.389
22666SOL    HW116837   6.151   0.813   7.414
22666SOL    HW216838   6.198   0.926   7.306
22667SOL     OW16839   4.840  11.519   1.178
22667SOL    HW116840   4.834  11.529   1.277
22667SOL    HW216841   4.841  11.422   1.155
22668SOL     OW16842   1.055   3.724   6.797
22668SOL    HW116843   1.090   3.701   6.888
22668SOL    HW216844   1.070   3.647   6.735
22669SOL     OW16845   6.657  16.576   0.878
22669SOL    HW116846   6.755  16.573   0.863
22669SOL    HW216847   6.634  16.531   0.965
22670SOL     OW16848   5.615   3.953   8.050
22670SOL    HW116849   5.583   3.898   7.973
22670SOL    HW216850   5.540   4.009   8.084
22671SOL     OW16851   7.345   6.768   7.673
22671SOL    HW116852   7.418   6.751   7.607
22671SOL    HW216853   7.326   6.685   7.725
22672SOL     OW16854  10.416   2.492   7.894
22672SOL    HW116855  10.372   2.554   7.958
22672SOL    HW216856  10.385   2.512   7.801
22673SOL     OW16857  15.776  10.882   1.851
22673SOL    HW116858  15.813  10.967   1.813
22673SOL    HW216859  15.676  10.884   1.845
22674SOL     OW16860  16.394   1.721   6.845
22674SOL    HW116861  16.428   1.815   6.838
22674SOL    HW216862  16.470   1.658   6.862
22675SOL     OW16863   3.104   6.797   7.309
22675SOL    HW116864   3.127   6.894   7.303
22675SOL    HW216865   3.164   6.745   7.248
22676SOL     OW16866   3.482   1.536   0.228
22676SOL    HW116867   3.531   1.622   0.212
22676SOL    HW216868   3.542   1.459   0.208
22677SOL     OW16869  10.300  10.103   1.988
22677SOL    HW116870  10.339  10.177   2.043
22677SOL    HW216871  10.201  10.114   1.981
22678SOL     OW16872   7.334  13.967   1.172
22678SOL    HW116873   7.365  14.062   1.166
22678SOL    HW216874   7.250  13.963   1.226
22679SOL     OW16875   6.576   8.349   6.869
22679SOL    HW116876   6.487   8.382   6.901
22679SOL    HW216877   6.588   8.372   6.773
22680SOL     OW16878  11.241   6.370   7.256
22680SOL    HW116879  11.242   6.271   7.265
22680SOL    HW216880  11.167   6.408   7.312
22681SOL     OW16881  15.821  12.411   6.526
22681SOL    HW116882  15.858  12.318   6.534
22681SOL    HW216883  15.731  12.408   6.483
22682SOL     OW16884   3.779   6.121   8.439
22682SOL    HW116885   3.835   6.045   0.017
22682SOL    HW216886   3.799   6.140   8.343
22683SOL     OW16887   1.785   1.209   7.190
22683SOL    HW116888   1.880   1.198   7.161
22683SOL    HW216889   1.749   1.294   7.153
22684SOL     OW16890   8.395   6.627   0.655
22684SOL    HW116891   8.384   6.721   0.689
22684SOL    HW216892   8.444   6.573   0.724
22685SOL     OW16893  10.972  12.389   0.273
22685SOL    HW116894  10.998  12.343   0.188
22685SOL    HW216895  10.873  12.405   0.273
22686SOL     OW16896  16.342   5.418   1.550
22686SOL    HW116897  16.380   5.491   1.606
22686SOL    HW216898  16.348   5.331   1.600
22687SOL     OW16899  13.920  14.471   6.435
22687SOL    HW116900  13.854  14.539   6.403
22687SOL    HW216901  14.003  14.477   6.380
22688SOL     OW16902  14.140   1.165   8.307
22688SOL    HW116903  14.146   1.220   8.390
22688SOL    HW216904  14.057   1.188   8.257
22689SOL     OW16905  11.332  16.193   6.841
22689SOL    HW116906  11.250  16.250   6.836
22689SOL    HW216907  11.412  16.247   6.814
22690SOL     OW16908   7.183   9.548   6.918
22690SOL    HW116909   7.234   9.491   6.852
22690SOL    HW216910   7.221   9.534   7.009
22691SOL     OW16911  10.408   8.802   7.442
22691SOL    HW116912  10.414   8.751   7.357
22691SOL    HW216913  10.325   8.775   7.492
22692SOL     OW16914   2.709  13.396   7.340
22692SOL    HW116915   2.808  13.401   7.353
22692SOL    HW216916   2.684  13.450   7.260
22693SOL     OW16917   0.156   3.629   7.258
22693SOL    HW116918   0.135   3.652   7.353
22693SOL    HW216919   0.239   3.573   7.255
22694SOL     OW16920  15.388  15.354   7.606
22694SOL    HW116921  15.409  15.332   7.701
22694SOL    HW216922  15.465  15.402   7.565
22695SOL     OW16923   9.259   2.042   0.456
22695SOL    HW116924   9.330   2.007   0.394
22695SOL    HW216925   9.219   1.965   0.506
22696SOL     OW16926  15.799  14.574   7.909
22696SOL    HW116927  15.822  14.612   7.819
22696SOL    HW216928  15.725  14.507   7.899
22697SOL     OW16929   5.453  15.706   0.992
22697SOL    HW116930   5.433  15.686   1.088
22697SOL    HW216931   5.374  15.751   0.950
22698SOL     OW16932   9.424   0.235   1.168
22698SOL    HW116933   9.325   0.229   1.151
22698SOL    HW216934   9.439   0.282   1.255
22699SOL     OW16935  16.056  10.535   0.671
22699SOL    HW116936  16.127  10.517   0.740
22699SOL    HW216937  16.092  10.516   0.580
22700SOL     OW16938   0.499  12.450   0.844
22700SOL    HW116939   0.539  12.471   0.933
22700SOL    HW216940   0.442  12.369   0.851
22701SOL     OW16941   5.847   7.050   1.396
22701SOL    HW116942   5.885   6.988   1.465
22701SOL    HW216943   5.764   7.009   1.358
22702SOL     OW16944  10.466  10.939   8.349
22702SOL    HW116945  10.394  10.958   8.415
22702SOL    HW216946  10.445  10.983   8.261
22703SOL     OW16947  10.920  14.406   0.544
22703SOL    HW116948  10.826  14.401   0.579
22703SOL    HW216949  10.920  14.453   0.456
22704SOL     OW16950   4.059   3.414   7.008
22704SOL    HW116951   4.027   3.328   6.970
22704SOL    HW216952   4.159   3.418   7.004
22705SOL     OW16953  11.616  14.085   0.869
22705SOL    HW116954  11.703  14.042   0.845
22705SOL    HW216955  11.553  14.080   0.791
22706SOL     OW16956  14.413   4.983   7.521
22706SOL    HW116957  14.505   4.950   7.540
22706SOL    HW216958  14.397   4.979   7.422
22707SOL     OW16959   0.069   5.135   6.645
22707SOL    HW116960   0.149   5.141   6.705
22707SOL    HW216961   0.097   5.109   6.553
22708SOL     OW16962   7.436   5.695   1.190
22708SOL    HW116963   7.409   5.790   1.175
22708SOL    HW216964   7.405   5.639   1.113
22709SOL     OW16965   7.366   9.177   7.572
22709SOL    HW116966   7.340   9.250   7.635
22709SOL    HW216967   7.402   9.099   7.625
22710SOL     OW16968   2.468   2.325   6.766
22710SOL    HW116969   2.539   2.255   6.775
22710SOL    HW216970   2.399   2.293   6.701
22711SOL     OW16971  14.716   3.838   5.844
22711SOL    HW116972  14.748   3.809   5.754
22711SOL    HW216973  14.640   3.901   5.833
22712SOL     OW16974  11.671  12.107   2.381
22712SOL    HW116975  11.590  12.086   2.435
22712SOL    HW216976  11.751  12.062   2.421
22713SOL     OW16977   1.010   2.677   7.212
22713SOL    HW116978   0.936   2.621   7.175
22713SOL    HW216979   0.994   2.773   7.191
22714SOL     OW16980   5.451   7.763   6.536
22714SOL    HW116981   5.412   7.813   6.459
22714SOL    HW216982   5.394   7.683   6.557
22715SOL     OW16983  11.754  15.850   5.936
22715SOL    HW116984  11.729  15.916   5.866
22715SOL    HW216985  11.766  15.897   6.024
22716SOL     OW16986   7.686  15.053   1.540
22716SOL    HW116987   7.650  15.123   1.478
22716SOL    HW216988   7.752  15.095   1.603
22717SOL     OW16989  14.582  10.351   1.993
22717SOL    HW116990  14.638  10.302   2.060
22717SOL    HW216991  14.611  10.324   1.901
22718SOL     OW16992  12.103  16.493   0.485
22718SOL    HW116993  12.011  16.517   0.514
22718SOL    HW216994  12.136  16.559   0.418
22719SOL     OW16995  14.532   4.716   0.901
22719SOL    HW116996  14.488   4.654   0.836
22719SOL    HW216997  14.464   4.774   0.945
22720SOL     OW16998  12.338  13.198   6.966
22720SOL    HW116999  12.397  13.258   6.913
22720SOL    HW217000  12.250  13.187   6.919
22721SOL     OW17001   8.203  10.030   0.875
22721SOL    HW117002   8.123  10.031   0.814
22721SOL    HW217003   8.266   9.958   0.846
22722SOL     OW17004   2.047  11.058   0.274
22722SOL    HW117005   1.962  11.108   0.259
22722SOL    HW217006   2.049  10.977   0.215
22723SOL     OW17007   2.201   8.330   0.915
22723SOL    HW117008   2.138   8.382   0.973
22723SOL    HW217009   2.291   8.372   0.918
22724SOL     OW17010  14.642   2.575   6.248
22724SOL    HW117011  14.543   2.572   6.240
22724SOL    HW217012  14.669   2.548   6.341
22725SOL     OW17013   4.738   6.556   0.404
22725SOL    HW117014   4.786   6.581   0.319
22725SOL    HW217015   4.674   6.482   0.385
22726SOL     OW17016   5.086  14.175   0.050
22726SOL    HW117017   5.072  14.223   0.137
22726SOL    HW217018   5.018  14.207   8.438
22727SOL     OW17019   7.986  15.356   7.730
22727SOL    HW117020   8.085  15.369   7.721
22727SOL    HW217021   7.965  15.323   7.822
22728SOL     OW17022   7.336  13.288   2.017
22728SOL    HW117023   7.305  13.380   2.043
22728SOL    HW217024   7.277  13.219   2.059
22729SOL     OW17025   2.068   8.835   1.231
22729SOL    HW117026   2.015   8.920   1.234
22729SOL    HW217027   2.048   8.786   1.147
22730SOL     OW17028  10.444  12.296   1.507
22730SOL    HW117029  10.364  12.305   1.566
22730SOL    HW217030  10.516  12.359   1.537
22731SOL     OW17031  10.128  10.322   7.776
22731SOL    HW117032  10.029  10.331   7.787
22731SOL    HW217033  10.154  10.227   7.796
22732SOL     OW17034  12.022   2.977   7.296
22732SOL    HW117035  12.007   2.898   7.235
22732SOL    HW217036  12.043   3.057   7.241
22733SOL     OW17037  10.451   5.393   6.608
22733SOL    HW117038  10.516   5.393   6.532
22733SOL    HW217039  10.491   5.344   6.685
22734SOL     OW17040   6.826  12.078   6.902
22734SOL    HW117041   6.799  11.982   6.900
22734SOL    HW217042   6.890  12.093   6.978
22735SOL     OW17043   8.028  10.710   0.494
22735SOL    HW117044   8.022  10.610   0.493
22735SOL    HW217045   7.937  10.748   0.480
22736SOL     OW17046   3.490   9.572   7.112
22736SOL    HW117047   3.393   9.567   7.137
22736SOL    HW217048   3.498   9.604   7.018
22737SOL     OW17049   1.551  13.200   7.424
22737SOL    HW117050   1.624  13.142   7.461
22737SOL    HW217051   1.465  13.149   7.424
22738SOL     OW17052  11.446   1.701   8.283
22738SOL    HW117053  11.397   1.771   8.335
22738SOL    HW217054  11.446   1.726   8.186
22739SOL     OW17055   4.641   0.013   7.603
22739SOL    HW117056   4.601  16.906   7.610
22739SOL    HW217057   4.572   0.079   7.573
22740SOL     OW17058   5.253   2.099   0.684
22740SOL    HW117059   5.189   2.155   0.633
22740SOL    HW217060   5.346   2.116   0.652
22741SOL     OW17061   8.101   6.637   0.040
22741SOL    HW117062   8.180   6.658   8.436
22741SOL    HW217063   8.040   6.575   8.446
22742SOL     OW17064   0.464   6.044   1.845
22742SOL    HW117065   0.396   6.075   1.779
22742SOL    HW217066   0.509   6.124   1.885
22743SOL     OW17067   2.088   9.333   0.391
22743SOL    HW117068   2.008   9.336   0.452
22743SOL    HW217069   2.057   9.340   0.297
22744SOL     OW17070   9.573  11.984   1.661
22744SOL    HW117071   9.543  12.079   1.666
22744SOL    HW217072   9.612  11.965   1.571
22745SOL     OW17073  16.248   7.668   7.041
22745SOL    HW117074  16.290   7.653   7.131
22745SOL    HW217075  16.204   7.758   7.038
22746SOL     OW17076   3.680   2.379   1.568
22746SOL    HW117077   3.667   2.388   1.667
22746SOL    HW217078   3.624   2.303   1.534
22747SOL     OW17079  16.072   0.919   1.014
22747SOL    HW117080  16.065   0.853   0.939
22747SOL    HW217081  16.061   1.011   0.978
22748SOL     OW17082   4.158  14.001   0.319
22748SOL    HW117083   4.211  13.934   0.267
22748SOL    HW217084   4.078  14.028   0.266
22749SOL     OW17085   9.662   1.004   6.732
22749SOL    HW117086   9.743   0.981   6.785
22749SOL    HW217087   9.608   1.073   6.781
22750SOL     OW17088   5.569  15.361   7.239
22750SOL    HW117089   5.477  15.330   7.266
22750SOL    HW217090   5.563  15.413   7.154
22751SOL     OW17091  16.705  12.005   7.610
22751SOL    HW117092  16.606  12.014   7.620
22751SOL    HW217093  16.741  12.086   7.564
22752SOL     OW17094   9.373   3.929   5.959
22752SOL    HW117095   9.287   3.935   5.908
22752SOL    HW217096   9.365   3.863   6.033
22753SOL     OW17097  10.044   5.322   7.374
22753SOL    HW117098  10.073   5.417   7.385
22753SOL    HW217099  10.000   5.291   7.459
22754SOL     OW17100  11.808  14.992   0.712
22754SOL    HW117101  11.884  14.928   0.715
22754SOL    HW217102  11.837  15.081   0.748
22755SOL     OW17103   6.429   9.578   7.013
22755SOL    HW117104   6.458   9.666   7.051
22755SOL    HW217105   6.509   9.522   6.993
22756SOL     OW17106   9.094  15.766   2.085
22756SOL    HW117107   9.106  15.696   2.155
22756SOL    HW217108   9.183  15.801   2.057
22757SOL     OW17109   9.861  10.124   0.120
22757SOL    HW117110   9.961  10.132   0.126
22757SOL    HW217111   9.822  10.129   0.212
22758SOL     OW17112   6.950   8.002   7.338
22758SOL    HW117113   6.858   7.993   7.377
22758SOL    HW217114   6.945   7.988   7.239
22759SOL     OW17115   6.321   9.749   8.102
22759SOL    HW117116   6.258   9.811   8.057
22759SOL    HW217117   6.390   9.801   8.153
22760SOL     OW17118  10.847   3.734   7.294
22760SOL    HW117119  10.834   3.765   7.389
22760SOL    HW217120  10.944   3.716   7.279
22761SOL     OW17121  10.808  13.571   1.367
22761SOL    HW117122  10.880  13.525   1.316
22761SOL    HW217123  10.844  13.655   1.408
22762SOL     OW17124  10.886   7.193   7.478
22762SOL    HW117125  10.895   7.232   7.570
22762SOL    HW217126  10.959   7.127   7.463
22763SOL     OW17127   4.109  12.570   8.149
22763SOL    HW117128   4.198  12.615   8.150
22763SOL    HW217129   4.103  12.508   8.227
22764SOL     OW17130   6.626   8.522   1.518
22764SOL    HW117131   6.532   8.552   1.531
22764SOL    HW217132   6.687   8.578   1.574
22765SOL     OW17133  10.474  11.854   7.895
22765SOL    HW117134  10.451  11.832   7.800
22765SOL    HW217135  10.516  11.775   7.938
22766SOL     OW17136  16.906   9.474   2.112
22766SOL    HW117137  16.897   9.375   2.103
22766SOL    HW217138  16.827   9.518   2.070
22767SOL     OW17139   8.968   4.676   2.372
22767SOL    HW117140   8.972   4.728   2.458
22767SOL    HW217141   8.898   4.605   2.380
22768SOL     OW17142   6.594   4.989   5.885
22768SOL    HW117143   6.522   5.017   5.949
22768SOL    HW217144   6.553   4.965   5.797
22769SOL     OW17145  14.712  14.331   7.558
22769SOL    HW117146  14.723  14.405   7.491
22769SOL    HW217147  14.751  14.247   7.521
22770SOL     OW17148   2.915   8.553   0.977
22770SOL    HW117149   2.871   8.573   0.890
22770SOL    HW217150   3.004   8.600   0.981
22771SOL     OW17151  13.045  11.908   0.676
22771SOL    HW117152  12.964  11.894   0.734
22771SOL    HW217153  13.124  11.863   0.717
22772SOL     OW17154  15.354   4.104   6.994
22772SOL    HW117155  15.339   4.196   7.028
22772SOL    HW217156  15.267   4.066   6.960
22773SOL     OW17157   2.462   9.886   0.124
22773SOL    HW117158   2.377   9.933   0.149
22773SOL    HW217159   2.526   9.890   0.201
22774SOL     OW17160  11.861   8.298   1.561
22774SOL    HW117161  11.818   8.243   1.489
22774SOL    HW217162  11.872   8.242   1.644
22775SOL     OW17163   6.245   5.474   0.155
22775SOL    HW117164   6.255   5.421   0.071
22775SOL    HW217165   6.149   5.497   0.168
22776SOL     OW17166   9.022   1.915   6.329
22776SOL    HW117167   8.961   1.966   6.269
22776SOL    HW217168   9.104   1.888   6.278
22777SOL     OW17169  16.055  11.988   7.126
22777SOL    HW117170  16.070  11.906   7.180
22777SOL    HW217171  15.999  12.053   7.178
22778SOL     OW17172   1.525   3.974   8.159
22778SOL    HW117173   1.465   3.894   8.160
22778SOL    HW217174   1.547   3.999   8.065
22779SOL     OW17175   5.432   8.665   7.829
22779SOL    HW117176   5.511   8.719   7.799
22779SOL    HW217177   5.378   8.718   7.894
22780SOL     OW17178   2.996   8.538   1.727
22780SOL    HW117179   3.042   8.626   1.738
22780SOL    HW217180   3.017   8.479   1.806
22781SOL     OW17181   7.036  15.867   7.932
22781SOL    HW117182   6.945  15.877   7.974
22781SOL    HW217183   7.029  15.809   7.851
22782SOL     OW17184  10.536   6.479   0.413
22782SOL    HW117185  10.629   6.465   0.445
22782SOL    HW217186  10.513   6.410   0.344
22783SOL     OW17187   7.210  14.515   6.523
22783SOL    HW117188   7.135  14.487   6.583
22783SOL    HW217189   7.200  14.468   6.435
22784SOL     OW17190  14.081   5.898   0.706
22784SOL    HW117191  14.086   5.956   0.787
22784SOL    HW217192  14.014   5.936   0.642
22785SOL     OW17193  11.043  16.207   7.386
22785SOL    HW117194  10.989  16.165   7.313
22785SOL    HW217195  11.071  16.299   7.358
22786SOL     OW17196  15.270  13.744   0.667
22786SOL    HW117197  15.341  13.812   0.650
22786SOL    HW217198  15.314  13.654   0.680
22787SOL     OW17199   0.407  13.233   1.293
22787SOL    HW117200   0.333  13.233   1.226
22787SOL    HW217201   0.383  13.175   1.371
22788SOL     OW17202   4.586   3.081   1.216
22788SOL    HW117203   4.585   3.126   1.306
22788SOL    HW217204   4.677   3.090   1.176
22789SOL     OW17205   3.989  14.985   0.266
22789SOL    HW117206   3.914  14.922   0.243
22789SOL    HW217207   4.077  14.939   0.250
22790SOL     OW17208   8.938   4.786   5.757
22790SOL    HW117209   8.885   4.714   5.714
22790SOL    HW217210   8.967   4.852   5.688
22791SOL     OW17211  14.704  10.267   7.530
22791SOL    HW117212  14.641  10.343   7.538
22791SOL    HW217213  14.734  10.238   7.621
22792SOL     OW17214   1.157  16.769   0.019
22792SOL    HW117215   1.109  16.831   8.412
22792SOL    HW217216   1.250  16.803   0.035
22793SOL     OW17217  12.949   5.761   6.964
22793SOL    HW117218  12.965   5.838   6.902
22793SOL    HW217219  13.034   5.713   6.981
22794SOL     OW17220  12.822  10.022   0.226
22794SOL    HW117221  12.746  10.046   0.286
22794SOL    HW217222  12.908  10.030   0.277
22795SOL     OW17223  16.764   6.894   0.944
22795SOL    HW117224  16.670   6.866   0.925
22795SOL    HW217225  16.769   6.932   1.037
22796SOL     OW17226   5.225   5.004   1.126
22796SOL    HW117227   5.248   5.095   1.091
22796SOL    HW217228   5.305   4.963   1.169
22797SOL     OW17229   5.212  14.955   0.895
22797SOL    HW117230   5.208  15.054   0.889
22797SOL    HW217231   5.303  14.923   0.867
22798SOL     OW17232   7.998   9.534   1.732
22798SOL    HW117233   8.077   9.505   1.787
22798SOL    HW217234   7.944   9.600   1.784
22799SOL     OW17235   3.378   6.462   0.556
22799SOL    HW117236   3.282   6.434   0.554
22799SOL    HW217237   3.430   6.398   0.614
22800SOL     OW17238   7.193   1.144   8.416
22800SOL    HW117239   7.281   1.189   8.431
22800SOL    HW217240   7.120   1.203   8.450
22801SOL     OW17241  11.153   2.956   0.130
22801SOL    HW117242  11.217   3.024   0.165
22801SOL    HW217243  11.087   3.001   0.069
22802SOL     OW17244  12.975  11.025   1.672
22802SOL    HW117245  12.961  11.042   1.770
22802SOL    HW217246  13.073  11.025   1.652
22803SOL     OW17247   7.622  13.595   0.504
22803SOL    HW117248   7.559  13.520   0.486
22803SOL    HW217249   7.657  13.588   0.598
22804SOL     OW17250  16.959   2.894   1.178
22804SOL    HW117251  16.943   2.803   1.142
22804SOL    HW217252  16.876   2.949   1.168
22805SOL     OW17253  13.437   0.115   6.312
22805SOL    HW117254  13.355   0.061   6.331
22805SOL    HW217255  13.450   0.121   6.213
22806SOL     OW17256   4.080   9.133   7.336
22806SOL    HW117257   4.129   9.076   7.403
22806SOL    HW217258   4.141   9.156   7.261
22807SOL     OW17259  12.054   2.165   6.951
22807SOL    HW117260  12.021   2.168   7.045
22807SOL    HW217261  12.033   2.076   6.911
22808SOL     OW17262   9.681  15.054   0.328
22808SOL    HW117263   9.781  15.059   0.335
22808SOL    HW217264   9.652  14.959   0.338
22809SOL     OW17265  16.282   4.760   6.909
22809SOL    HW117266  16.303   4.743   7.005
22809SOL    HW217267  16.360   4.731   6.852
22810SOL     OW17268   7.396  16.824   8.229
22810SOL    HW117269   7.450  16.897   8.272
22810SOL    HW217270   7.457  16.748   8.206
22811SOL     OW17271   4.517  11.193   8.149
22811SOL    HW117272   4.533  11.095   8.135
22811SOL    HW217273   4.475  11.208   8.238
22812SOL     OW17274   4.578  14.596   8.333
22812SOL    HW117275   4.538  14.510   8.303
22812SOL    HW217276   4.642  14.629   8.263
22813SOL     OW17277   4.349   8.580   1.193
22813SOL    HW117278   4.325   8.484   1.209
22813SOL    HW217279   4.390   8.618   1.277
22814SOL     OW17280  15.032   3.309   6.818
22814SOL    HW117281  15.043   3.389   6.759
22814SOL    HW217282  14.941   3.309   6.858
22815SOL     OW17283  15.585   3.809   6.947
22815SOL    HW117284  15.503   3.791   6.893
22815SOL    HW217285  15.626   3.723   6.975
22816SOL     OW17286   5.902  15.746   8.158
22816SOL    HW117287   5.857  15.747   8.247
22816SOL    HW217288   5.963  15.826   8.151
22817SOL     OW17289  15.301   8.284   8.246
22817SOL    HW117290  15.269   8.360   8.190
22817SOL    HW217291  15.293   8.309   8.343
22818SOL     OW17292  10.263   5.131   7.318
22818SOL    HW117293  10.357   5.161   7.306
22818SOL    HW217294  10.209   5.207   7.356
22819SOL     OW17295   7.015   5.765   7.669
22819SOL    HW117296   6.990   5.829   7.741
22819SOL    HW217297   7.106   5.728   7.688
22820SOL     OW17298   0.121  13.866   7.791
22820SOL    HW117299   0.039  13.821   7.826
22820SOL    HW217300   0.123  13.961   7.822
22821SOL     OW17301   8.610  12.244   1.346
22821SOL    HW117302   8.641  12.152   1.322
22821SOL    HW217303   8.559  12.283   1.269
22822SOL     OW17304  13.641   7.473   1.007
22822SOL    HW117305  13.654   7.421   0.923
22822SOL    HW217306  13.604   7.563   0.985
22823SOL     OW17307   9.950   9.515   0.659
22823SOL    HW117308   9.947   9.463   0.745
22823SOL    HW217309   9.994   9.460   0.589
22824SOL     OW17310  12.795  10.972   1.280
22824SOL    HW117311  12.773  11.037   1.207
22824SOL    HW217312  12.784  11.017   1.369
22825SOL     OW17313  14.539   0.103   8.040
22825SOL    HW117314  14.526   0.042   7.962
22825SOL    HW217315  14.469   0.084   8.109
22826SOL     OW17316  15.843  12.881   0.462
22826SOL    HW117317  15.790  12.829   0.394
22826SOL    HW217318  15.889  12.818   0.524
22827SOL     OW17319   7.031  13.655   7.246
22827SOL    HW117320   7.038  13.556   7.235
22827SOL    HW217321   7.064  13.700   7.163
22828SOL     OW17322   8.563   2.008   6.089
22828SOL    HW117323   8.509   2.037   6.168
22828SOL    HW217324   8.624   2.083   6.062
22829SOL     OW17325  12.515  13.087   0.232
22829SOL    HW117326  12.604  13.130   0.239
22829SOL    HW217327  12.491  13.074   0.136
22830SOL     OW17328  13.702   3.355   8.141
22830SOL    HW117329  13.744   3.440   8.110
22830SOL    HW217330  13.624   3.377   8.199
22831SOL     OW17331   5.283   7.491   1.329
22831SOL    HW117332   5.296   7.428   1.405
22831SOL    HW217333   5.246   7.578   1.364
22832SOL     OW17334  12.883   4.167   7.099
22832SOL    HW117335  12.834   4.250   7.125
22832SOL    HW217336  12.895   4.109   7.179
22833SOL     OW17337  12.050   0.073   0.126
22833SOL    HW117338  12.148   0.056   0.124
22833SOL    HW217339  12.020   0.109   0.038
22834SOL     OW17340  10.217   7.083   1.793
22834SOL    HW117341  10.299   7.045   1.749
22834SOL    HW217342  10.242   7.121   1.882
22835SOL     OW17343   5.964  11.339   2.141
22835SOL    HW117344   5.907  11.360   2.221
22835SOL    HW217345   6.045  11.289   2.169
22836SOL     OW17346  11.025  10.485   1.073
22836SOL    HW117347  10.946  10.487   1.012
22836SOL    HW217348  11.056  10.391   1.086
22837SOL     OW17349  12.594   5.523   7.228
22837SOL    HW117350  12.539   5.538   7.310
22837SOL    HW217351  12.599   5.425   7.208
22838SOL     OW17352   7.891  16.380   0.667
22838SOL    HW117353   7.906  16.313   0.594
22838SOL    HW217354   7.863  16.333   0.751
22839SOL     OW17355   3.389   6.730   0.655
22839SOL    HW117356   3.419   6.805   0.595
22839SOL    HW217357   3.397   6.643   0.606
22840SOL     OW17358  16.083  11.744   7.260
22840SOL    HW117359  16.082  11.721   7.357
22840SOL    HW217360  16.169  11.711   7.219
22841SOL     OW17361  10.202   7.649   2.416
22841SOL    HW117362  10.278   7.588   2.395
22841SOL    HW217363  10.126   7.596   2.454
22842SOL     OW17364  10.214  16.556   0.303
22842SOL    HW117365  10.201  16.586   0.208
22842SOL    HW217366  10.311  16.542   0.321
22843SOL     OW17367   7.710  12.619   0.078
22843SOL    HW117368   7.722  12.708   0.122
22843SOL    HW217369   7.742  12.625   8.437
22844SOL     OW17370  12.822  16.471   7.023
22844SOL    HW117371  12.905  16.416   7.036
22844SOL    HW217372  12.784  16.495   7.112
22845SOL     OW17373   2.773  11.513   8.154
22845SOL    HW117374   2.746  11.602   8.120
22845SOL    HW217375   2.694  11.466   8.194
22846SOL     OW17376  12.967  10.661   6.534
22846SOL    HW117377  12.882  10.609   6.537
22846SOL    HW217378  12.956  10.745   6.588
22847SOL     OW17379   2.035   9.719   6.884
22847SOL    HW117380   1.978   9.646   6.921
22847SOL    HW217381   2.000   9.746   6.794
22848SOL     OW17382   4.483  10.385   1.601
22848SOL    HW117383   4.523  10.450   1.665
22848SOL    HW217384   4.544  10.373   1.523
22849SOL     OW17385   3.003   3.779   7.585
22849SOL    HW117386   3.064   3.807   7.658
22849SOL    HW217387   2.909   3.805   7.608
22850SOL     OW17388   1.906   4.732   6.101
22850SOL    HW117389   1.833   4.772   6.044
22850SOL    HW217390   1.920   4.637   6.075
22851SOL     OW17391  15.620  14.024   0.012
22851SOL    HW117392  15.606  14.113   8.422
22851SOL    HW217393  15.630  14.038   0.111
22852SOL     OW17394  15.188  15.244   2.172
22852SOL    HW117395  15.135  15.166   2.204
22852SOL    HW217396  15.243  15.281   2.247
22853SOL     OW17397  12.740   3.309   6.471
22853SOL    HW117398  12.748   3.262   6.383
22853SOL    HW217399  12.712   3.404   6.455
22854SOL     OW17400   5.287   9.335   0.478
22854SOL    HW117401   5.340   9.272   0.534
22854SOL    HW217402   5.325   9.427   0.486
22855SOL     OW17403  13.166  10.526   2.088
22855SOL    HW117404  13.118  10.546   2.174
22855SOL    HW217405  13.131  10.585   2.016
22856SOL     OW17406   4.903   9.208   1.820
22856SOL    HW117407   4.993   9.167   1.832
22856SOL    HW217408   4.886   9.223   1.723
22857SOL     OW17409  14.032  11.678   1.086
22857SOL    HW117410  13.997  11.703   1.176
22857SOL    HW217411  13.973  11.717   1.015
22858SOL     OW17412  16.244   8.620   6.849
22858SOL    HW117413  16.241   8.696   6.784
22858SOL    HW217414  16.338   8.587   6.858
22859SOL     OW17415   8.760  16.115   0.948
22859SOL    HW117416   8.664  16.131   0.925
22859SOL    HW217417   8.780  16.017   0.937
22860SOL     OW17418   4.543   8.524   1.007
22860SOL    HW117419   4.633   8.514   1.051
22860SOL    HW217420   4.474   8.543   1.076
22861SOL     OW17421   4.255  12.060   1.577
22861SOL    HW117422   4.343  12.065   1.624
22861SOL    HW217423   4.239  11.967   1.545
22862SOL     OW17424  14.853  10.160   6.943
22862SOL    HW117425  14.760  10.187   6.917
22862SOL    HW217426  14.893  10.106   6.869
22863SOL     OW17427   4.433   7.448   0.416
22863SOL    HW117428   4.417   7.516   0.487
22863SOL    HW217429   4.521   7.466   0.372
22864SOL     OW17430   0.360  16.848   6.948
22864SOL    HW117431   0.373  16.918   7.018
22864SOL    HW217432   0.436  16.851   6.883
22865SOL     OW17433   6.687   7.126   2.062
22865SOL    HW117434   6.759   7.196   2.063
22865SOL    HW217435   6.614   7.154   2.000
22866SOL     OW17436   8.180  16.683   1.246
22866SOL    HW117437   8.173  16.585   1.231
22866SOL    HW217438   8.256  16.703   1.308
22867SOL     OW17439   2.838  16.023   1.368
22867SOL    HW117440   2.767  15.980   1.312
22867SOL    HW217441   2.819  16.121   1.376
22868SOL     OW17442   5.699   4.406   0.364
22868SOL    HW117443   5.753   4.372   0.441
22868SOL    HW217444   5.723   4.355   0.281
22869SOL     OW17445   7.322   0.293   8.201
22869SOL    HW117446   7.242   0.234   8.211
22869SOL    HW217447   7.404   0.244   8.232
22870SOL     OW17448   7.554   7.572   1.091
22870SOL    HW117449   7.545   7.623   1.006
22870SOL    HW217450   7.651   7.557   1.112
22871SOL     OW17451  12.132  15.319   8.428
22871SOL    HW117452  12.117  15.220   8.425
22871SOL    HW217453  12.045  15.364   8.446
22872SOL     OW17454  13.022   1.142   0.910
22872SOL    HW117455  12.988   1.066   0.855
22872SOL    HW217456  13.098   1.110   0.967
22873SOL     OW17457  15.595  15.699   6.315
22873SOL    HW117458  15.550  15.788   6.327
22873SOL    HW217459  15.553  15.650   6.239
22874SOL     OW17460  14.975  12.811   1.805
22874SOL    HW117461  14.974  12.770   1.896
22874SOL    HW217462  15.022  12.899   1.809
22875SOL     OW17463  15.763   0.820   7.771
22875SOL    HW117464  15.742   0.822   7.869
22875SOL    HW217465  15.818   0.901   7.748
22876SOL     OW17466  15.248   4.237   7.658
22876SOL    HW117467  15.279   4.155   7.706
22876SOL    HW217468  15.155   4.260   7.687
22877SOL     OW17469   0.126   4.551   0.533
22877SOL    HW117470   0.185   4.494   0.476
22877SOL    HW217471   0.056   4.593   0.476
22878SOL     OW17472   7.298   4.299   0.111
22878SOL    HW117473   7.349   4.326   0.030
22878SOL    HW217474   7.238   4.374   0.140
22879SOL     OW17475  12.403   2.250   0.479
22879SOL    HW117476  12.463   2.212   0.549
22879SOL    HW217477  12.399   2.349   0.487
22880SOL     OW17478   9.831  11.647   7.190
22880SOL    HW117479   9.780  11.634   7.105
22880SOL    HW217480   9.860  11.558   7.225
22881SOL     OW17481   6.372  15.952   2.123
22881SOL    HW117482   6.407  15.861   2.098
22881SOL    HW217483   6.273  15.946   2.137
22882SOL     OW17484   2.315  14.916   1.572
22882SOL    HW117485   2.243  14.860   1.614
22882SOL    HW217486   2.368  14.860   1.509
22883SOL     OW17487  10.781  10.890   7.062
22883SOL    HW117488  10.683  10.877   7.051
22883SOL    HW217489  10.803  10.901   7.159
22884SOL     OW17490   1.449   0.950   0.059
22884SOL    HW117491   1.429   0.936   8.417
22884SOL    HW217492   1.506   0.875   0.093
22885SOL     OW17493  10.554   9.841   8.089
22885SOL    HW117494  10.585   9.927   8.129
22885SOL    HW217495  10.518   9.782   8.161
22886SOL     OW17496  15.132  11.167   1.064
22886SOL    HW117497  15.061  11.235   1.047
22886SOL    HW217498  15.091  11.076   1.067
22887SOL     OW17499   0.529   5.295   1.094
22887SOL    HW117500   0.463   5.245   1.037
22887SOL    HW217501   0.493   5.386   1.114
22888SOL     OW17502  12.376   9.113   7.419
22888SOL    HW117503  12.338   9.022   7.402
22888SOL    HW217504  12.405   9.120   7.514
22889SOL     OW17505   1.456   1.221   2.175
22889SOL    HW117506   1.441   1.134   2.221
22889SOL    HW217507   1.522   1.275   2.227
22890SOL     OW17508   9.173  15.770   0.771
22890SOL    HW117509   9.235  15.847   0.755
22890SOL    HW217510   9.171  15.712   0.689
22891SOL     OW17511  14.831  15.266   0.932
22891SOL    HW117512  14.739  15.299   0.953
22891SOL    HW217513  14.860  15.301   0.843
22892SOL     OW17514  15.867   2.083   1.038
22892SOL    HW117515  15.934   2.045   0.974
22892SOL    HW217516  15.888   2.051   1.131
22893SOL     OW17517  14.642   2.073   8.296
22893SOL    HW117518  14.672   2.032   8.382
22893SOL    HW217519  14.580   2.011   8.248
22894SOL     OW17520   9.986  11.514   1.329
22894SOL    HW117521   9.902  11.460   1.320
22894SOL    HW217522   9.985  11.561   1.417
22895SOL     OW17523  14.022  10.434   0.783
22895SOL    HW117524  13.967  10.402   0.861
22895SOL    HW217525  14.004  10.531   0.768
22896SOL     OW17526   2.614   0.673   1.015
22896SOL    HW117527   2.613   0.573   1.008
22896SOL    HW217528   2.520   0.707   1.020
22897SOL     OW17529   8.208  14.278   8.190
22897SOL    HW117530   8.211  14.319   8.099
22897SOL    HW217531   8.170  14.343   8.255
22898SOL     OW17532  11.545   5.018   7.065
22898SOL    HW117533  11.524   4.922   7.050
22898SOL    HW217534  11.627   5.043   7.013
22899SOL     OW17535  10.740  16.408   8.283
22899SOL    HW117536  10.676  16.454   8.344
22899SOL    HW217537  10.691  16.374   8.203
22900SOL     OW17538   1.867  10.248   2.458
22900SOL    HW117539   1.788  10.307   2.476
22900SOL    HW217540   1.943  10.276   2.516
22901SOL     OW17541   8.542   4.936   8.046
22901SOL    HW117542   8.556   4.881   7.964
22901SOL    HW217543   8.508   4.876   8.120
22902SOL     OW17544   5.483   8.023   7.845
22902SOL    HW117545   5.545   8.083   7.895
22902SOL    HW217546   5.496   7.928   7.875
22903SOL     OW17547  15.285  16.559   7.448
22903SOL    HW117548  15.380  16.556   7.479
22903SOL    HW217549  15.280  16.524   7.354
22904SOL     OW17550  14.133   8.248   6.711
22904SOL    HW117551  14.132   8.293   6.621
22904SOL    HW217552  14.189   8.302   6.774
22905SOL     OW17553   9.191   0.647   5.938
22905SOL    HW117554   9.280   0.631   5.896
22905SOL    HW217555   9.125   0.677   5.869
22906SOL     OW17556   9.982  10.185   0.998
22906SOL    HW117557   9.931  10.210   1.081
22906SOL    HW217558  10.066  10.138   1.024
22907SOL     OW17559   6.823   5.157   8.451
22907SOL    HW117560   6.799   5.252   8.437
22907SOL    HW217561   6.890   5.128   8.382
22908SOL     OW17562   5.631   3.843   6.265
22908SOL    HW117563   5.560   3.897   6.221
22908SOL    HW217564   5.590   3.765   6.313
22909SOL     OW17565  15.566  10.870   1.023
22909SOL    HW117566  15.615  10.790   1.058
22909SOL    HW217567  15.475  10.843   0.993
22910SOL     OW17568  16.469   2.249   2.224
22910SOL    HW117569  16.517   2.292   2.147
22910SOL    HW217570  16.402   2.313   2.261
22911SOL     OW17571  12.771   6.910   7.858
22911SOL    HW117572  12.785   6.922   7.759
22911SOL    HW217573  12.756   6.999   7.900
22912SOL     OW17574  10.855  14.653   6.070
22912SOL    HW117575  10.852  14.555   6.051
22912SOL    HW217576  10.949  14.681   6.091
22913SOL     OW17577  14.033  15.903   0.034
22913SOL    HW117578  13.938  15.903   0.001
22913SOL    HW217579  14.084  15.975   8.440
22914SOL     OW17580  13.076  12.371   1.315
22914SOL    HW117581  13.077  12.463   1.355
22914SOL    HW217582  13.169  12.335   1.312
22915SOL     OW17583   7.984   5.982   7.088
22915SOL    HW117584   7.897   5.945   7.056
22915SOL    HW217585   8.009   5.937   7.174
22916SOL     OW17586   3.524   5.626   0.265
22916SOL    HW117587   3.589   5.638   0.191
22916SOL    HW217588   3.433   5.604   0.227
22917SOL     OW17589   0.463  15.523   7.719
22917SOL    HW117590   0.494  15.473   7.800
22917SOL    HW217591   0.537  15.582   7.687
22918SOL     OW17592   0.522   1.013   8.411
22918SOL    HW117593   0.515   1.035   0.054
22918SOL    HW217594   0.589   0.940   8.397
22919SOL     OW17595   4.439  13.977   7.584
22919SOL    HW117596   4.491  14.042   7.529
22919SOL    HW217597   4.347  14.014   7.602
22920SOL     OW17598   7.989   0.580   8.190
22920SOL    HW117599   8.026   0.668   8.160
22920SOL    HW217600   7.889   0.583   8.187
22921SOL     OW17601  12.506  10.710   1.359
22921SOL    HW117602  12.592  10.702   1.308
22921SOL    HW217603  12.429  10.710   1.296
22922SOL     OW17604   7.529   3.454   1.188
22922SOL    HW117605   7.560   3.518   1.117
22922SOL    HW217606   7.585   3.466   1.270
22923SOL     OW17607   0.232   2.422   6.841
22923SOL    HW117608   0.237   2.459   6.748
22923SOL    HW217609   0.157   2.356   6.846
22924SOL     OW17610   0.553  16.388   0.458
22924SOL    HW117611   0.610  16.336   0.394
22924SOL    HW217612   0.601  16.471   0.486
22925SOL     OW17613  15.167   8.086   8.105
22925SOL    HW117614  15.218   8.146   8.166
22925SOL    HW217615  15.118   8.018   8.158
22926SOL     OW17616  10.677   1.110   8.418
22926SOL    HW117617  10.692   1.203   8.384
22926SOL    HW217618  10.598   1.070   8.370
22927SOL     OW17619  15.111   3.548   0.136
22927SOL    HW117620  15.059   3.632   0.119
22927SOL    HW217621  15.051   3.469   0.123
22928SOL     OW17622   2.269   6.558   7.825
22928SOL    HW117623   2.225   6.627   7.882
22928SOL    HW217624   2.292   6.598   7.736
22929SOL     OW17625   3.741   2.515   0.531
22929SOL    HW117626   3.646   2.512   0.501
22929SOL    HW217627   3.767   2.610   0.549
22930SOL     OW17628  12.310  15.794   8.260
22930SOL    HW117629  12.395  15.841   8.237
22930SOL    HW217630  12.315  15.700   8.228
22931SOL     OW17631  12.281  10.777   0.123
22931SOL    HW117632  12.234  10.722   0.054
22931SOL    HW217633  12.266  10.737   0.213
22932SOL     OW17634  11.882  12.530   0.774
22932SOL    HW117635  11.797  12.510   0.725
22932SOL    HW217636  11.959  12.520   0.712
22933SOL     OW17637   1.877  13.604   1.256
22933SOL    HW117638   1.826  13.542   1.315
22933SOL    HW217639   1.827  13.616   1.170
22934SOL     OW17640   2.102   1.237   6.789
22934SOL    HW117641   2.124   1.217   6.694
22934SOL    HW217642   2.017   1.191   6.814
22935SOL     OW17643   3.698   1.789   7.376
22935SOL    HW117644   3.634   1.814   7.303
22935SOL    HW217645   3.648   1.743   7.449
22936SOL     OW17646   5.528   1.574   7.235
22936SOL    HW117647   5.475   1.490   7.228
22936SOL    HW217648   5.554   1.605   7.143
22937SOL     OW17649   4.174  14.015   8.317
22937SOL    HW117650   4.245  14.058   8.261
22937SOL    HW217651   4.145  14.080   8.388
22938SOL     OW17652   9.533   2.405   7.496
22938SOL    HW117653   9.509   2.466   7.571
22938SOL    HW217654   9.487   2.435   7.412
22939SOL     OW17655  14.707   8.713   2.251
22939SOL    HW117656  14.722   8.615   2.246
22939SOL    HW217657  14.623   8.732   2.303
22940SOL     OW17658  13.720   4.806   5.342
22940SOL    HW117659  13.789   4.802   5.270
22940SOL    HW217660  13.682   4.714   5.356
22941SOL     OW17661   0.639   0.903   0.348
22941SOL    HW117662   0.731   0.937   0.330
22941SOL    HW217663   0.572   0.966   0.310
22942SOL     OW17664   8.053  14.654   7.984
22942SOL    HW117665   7.976  14.647   8.046
22942SOL    HW217666   8.095  14.745   7.991
22943SOL     OW17667   3.516   0.687   7.268
22943SOL    HW117668   3.510   0.647   7.360
22943SOL    HW217669   3.519   0.787   7.276
22944SOL     OW17670   1.301  14.921   1.150
22944SOL    HW117671   1.235  14.993   1.168
22944SOL    HW217672   1.259  14.832   1.167
22945SOL     OW17673  12.331  15.536   8.161
22945SOL    HW117674  12.253  15.474   8.154
22945SOL    HW217675  12.364  15.559   8.069
22946SOL     OW17676   7.272   0.166   0.948
22946SOL    HW117677   7.219   0.084   0.968
22946SOL    HW217678   7.337   0.147   0.874
22947SOL     OW17679   7.234   0.834   1.486
22947SOL    HW117680   7.318   0.819   1.538
22947SOL    HW217681   7.193   0.746   1.462
22948SOL     OW17682   1.619   5.984   1.065
22948SOL    HW117683   1.542   5.920   1.061
22948SOL    HW217684   1.629   6.029   0.976
22949SOL     OW17685   4.707   8.107   7.766
22949SOL    HW117686   4.735   8.073   7.856
22949SOL    HW217687   4.768   8.182   7.739
22950SOL     OW17688   4.194   7.580   1.031
22950SOL    HW117689   4.255   7.652   0.998
22950SOL    HW217690   4.249   7.507   1.072
22951SOL     OW17691   7.331  12.208   8.270
22951SOL    HW117692   7.311  12.303   8.294
22951SOL    HW217693   7.253  12.169   8.222
22952SOL     OW17694   2.943   9.785   8.053
22952SOL    HW117695   2.961   9.828   7.965
22952SOL    HW217696   3.029   9.773   8.103
22953SOL     OW17697   5.808  16.430   1.960
22953SOL    HW117698   5.764  16.501   2.016
22953SOL    HW217699   5.757  16.345   1.966
22954SOL     OW17700  12.499   0.353   7.168
22954SOL    HW117701  12.520   0.405   7.086
22954SOL    HW217702  12.575   0.290   7.189
22955SOL     OW17703  14.399  15.044   1.202
22955SOL    HW117704  14.439  15.007   1.118
22955SOL    HW217705  14.423  15.140   1.211
22956SOL     OW17706  16.511   2.507   5.879
22956SOL    HW117707  16.504   2.421   5.827
22956SOL    HW217708  16.421   2.551   5.880
22957SOL     OW17709   5.966   5.446   0.070
22957SOL    HW117710   5.980   5.377   8.453
22957SOL    HW217711   5.928   5.529   0.030
22958SOL     OW17712  10.018  10.290   0.349
22958SOL    HW117713  10.067  10.266   0.265
22958SOL    HW217714   9.951  10.361   0.329
22959SOL     OW17715   2.916   8.149   0.706
22959SOL    HW117716   2.971   8.193   0.777
22959SOL    HW217717   2.848   8.214   0.672
22960SOL     OW17718  16.029   2.836   6.137
22960SOL    HW117719  16.018   2.799   6.044
22960SOL    HW217720  16.082   2.920   6.133
22961SOL     OW17721   7.977   7.902   0.928
22961SOL    HW117722   8.002   7.827   0.989
22961SOL    HW217723   7.942   7.865   0.842
22962SOL     OW17724   6.012   2.174   7.525
22962SOL    HW117725   5.991   2.094   7.469
22962SOL    HW217726   5.996   2.152   7.622
22963SOL     OW17727   0.717  10.435   1.868
22963SOL    HW117728   0.809  10.396   1.878
22963SOL    HW217729   0.721  10.534   1.884
22964SOL     OW17730   7.358  11.658   1.723
22964SOL    HW117731   7.382  11.663   1.626
22964SOL    HW217732   7.330  11.565   1.747
22965SOL     OW17733  11.382   2.594   8.293
22965SOL    HW117734  11.287   2.588   8.264
22965SOL    HW217735  11.419   2.684   8.269
22966SOL     OW17736  10.388   7.828   6.601
22966SOL    HW117737  10.422   7.762   6.534
22966SOL    HW217738  10.300   7.795   6.638
22967SOL     OW17739   4.294   3.027   8.029
22967SOL    HW117740   4.358   3.005   8.103
22967SOL    HW217741   4.342   3.023   7.941
22968SOL     OW17742   0.403  15.989   8.181
22968SOL    HW117743   0.349  15.915   8.220
22968SOL    HW217744   0.500  15.966   8.186
22969SOL     OW17745   0.626   1.614   1.468
22969SOL    HW117746   0.628   1.515   1.450
22969SOL    HW217747   0.618   1.663   1.381
22970SOL     OW17748   5.207   4.596   0.531
22970SOL    HW117749   5.213   4.695   0.526
22970SOL    HW217750   5.115   4.566   0.505
22971SOL     OW17751   3.532   5.807   1.077
22971SOL    HW117752   3.442   5.845   1.055
22971SOL    HW217753   3.564   5.752   0.999
22972SOL     OW17754  10.203  12.616   6.424
22972SOL    HW117755  10.282  12.676   6.411
22972SOL    HW217756  10.234  12.528   6.462
22973SOL     OW17757  16.017  14.477   8.043
22973SOL    HW117758  16.038  14.535   8.122
22973SOL    HW217759  15.940  14.517   7.993
22974SOL     OW17760   0.770   2.145   8.095
22974SOL    HW117761   0.798   2.133   8.000
22974SOL    HW217762   0.848   2.180   8.148
22975SOL     OW17763  11.102  12.092   1.496
22975SOL    HW117764  11.072  12.187   1.505
22975SOL    HW217765  11.201  12.087   1.509
22976SOL     OW17766   7.436  14.079   7.955
22976SOL    HW117767   7.480  14.006   8.008
22976SOL    HW217768   7.340  14.086   7.982
22977SOL     OW17769  11.839   8.653   6.470
22977SOL    HW117770  11.865   8.749   6.480
22977SOL    HW217771  11.744   8.647   6.440
22978SOL     OW17772   4.586   3.378   1.700
22978SOL    HW117773   4.488   3.396   1.699
22978SOL    HW217774   4.615   3.359   1.794
22979SOL     OW17775   6.204   3.595   7.889
22979SOL    HW117776   6.144   3.552   7.821
22979SOL    HW217777   6.166   3.582   7.981
22980SOL     OW17778   8.219  16.969   5.755
22980SOL    HW117779   8.243  16.873   5.745
22980SOL    HW217780   8.190   0.022   5.666
22981SOL     OW17781  10.250  13.388   6.838
22981SOL    HW117782  10.318  13.429   6.899
22981SOL    HW217783  10.274  13.410   6.743
22982SOL     OW17784   8.821  10.335   6.735
22982SOL    HW117785   8.896  10.380   6.784
22982SOL    HW217786   8.762  10.405   6.693
22983SOL     OW17787  15.781  10.588   1.675
22983SOL    HW117788  15.833  10.605   1.758
22983SOL    HW217789  15.839  10.541   1.608
22984SOL     OW17790   7.367   4.422   7.514
22984SOL    HW117791   7.349   4.379   7.426
22984SOL    HW217792   7.309   4.503   7.524
22985SOL     OW17793  13.528  15.840   6.498
22985SOL    HW117794  13.475  15.923   6.479
22985SOL    HW217795  13.518  15.776   6.422
22986SOL     OW17796  14.336  10.938   7.164
22986SOL    HW117797  14.261  10.981   7.114
22986SOL    HW217798  14.369  11.001   7.235
22987SOL     OW17799  10.599   6.138   0.468
22987SOL    HW117800  10.674   6.086   0.430
22987SOL    HW217801  10.559   6.196   0.397
22988SOL     OW17802   9.403   3.776   8.305
22988SOL    HW117803   9.420   3.697   8.246
22988SOL    HW217804   9.331   3.832   8.264
22989SOL     OW17805   1.798   7.328   0.184
22989SOL    HW117806   1.786   7.343   0.086
22989SOL    HW217807   1.854   7.247   0.199
22990SOL     OW17808   5.165   9.140   2.270
22990SOL    HW117809   5.208   9.185   2.348
22990SOL    HW217810   5.072   9.112   2.294
22991SOL     OW17811   9.997   1.069   7.612
22991SOL    HW117812  10.004   1.087   7.513
22991SOL    HW217813   9.914   1.113   7.647
22992SOL     OW17814   8.621   1.092   7.664
22992SOL    HW117815   8.529   1.064   7.637
22992SOL    HW217816   8.670   1.126   7.584
22993SOL     OW17817   6.852   7.227   0.702
22993SOL    HW117818   6.805   7.315   0.704
22993SOL    HW217819   6.785   7.154   0.717
22994SOL     OW17820   3.793  11.133   7.227
22994SOL    HW117821   3.787  11.037   7.256
22994SOL    HW217822   3.883  11.169   7.250
22995SOL     OW17823   6.399  15.015   1.520
22995SOL    HW117824   6.458  14.943   1.483
22995SOL    HW217825   6.310  14.976   1.545
22996SOL     OW17826  15.222   5.269   1.256
22996SOL    HW117827  15.174   5.197   1.305
22996SOL    HW217828  15.179   5.357   1.275
22997SOL     OW17829  13.088  15.480   8.353
22997SOL    HW117830  13.044  15.471   8.443
22997SOL    HW217831  13.187  15.477   8.365
22998SOL     OW17832   5.940  12.007   1.873
22998SOL    HW117833   5.949  11.924   1.928
22998SOL    HW217834   5.883  12.073   1.922
22999SOL     OW17835   3.968  11.723   0.869
22999SOL    HW117836   4.049  11.747   0.816
22999SOL    HW217837   3.893  11.786   0.845
23000SOL     OW17838   3.631  15.911   1.363
23000SOL    HW117839   3.560  15.963   1.316
23000SOL    HW217840   3.721  15.939   1.328
23001SOL     OW17841  11.190  14.653   6.777
23001SOL    HW117842  11.119  14.661   6.707
23001SOL    HW217843  11.277  14.685   6.740
23002SOL     OW17844   1.208  15.615   1.192
23002SOL    HW117845   1.184  15.712   1.186
23002SOL    HW217846   1.292  15.604   1.244
23003SOL     OW17847   0.056  13.486   8.154
23003SOL    HW117848   0.083  13.410   8.095
23003SOL    HW217849  16.945  13.511   8.135
23004SOL     OW17850   4.629  14.010   6.390
23004SOL    HW117851   4.673  14.094   6.357
23004SOL    HW217852   4.688  13.932   6.370
23005SOL     OW17853   9.086   8.090   1.447
23005SOL    HW117854   9.031   8.077   1.529
23005SOL    HW217855   9.182   8.073   1.468
23006SOL     OW17856  12.143   3.079   6.649
23006SOL    HW117857  12.130   3.178   6.647
23006SOL    HW217858  12.235   3.058   6.682
23007SOL     OW17859   2.803   5.741   7.480
23007SOL    HW117860   2.871   5.778   7.417
23007SOL    HW217861   2.712   5.775   7.454
23008SOL     OW17862   2.543  16.585   0.778
23008SOL    HW117863   2.606  16.651   0.736
23008SOL    HW217864   2.534  16.604   0.875
23009SOL     OW17865  14.217  12.697   8.206
23009SOL    HW117866  14.185  12.788   8.179
23009SOL    HW217867  14.302  12.676   8.158
23010SOL     OW17868  13.556   7.267   7.297
23010SOL    HW117869  13.624   7.326   7.252
23010SOL    HW217870  13.603   7.205   7.360
23011SOL     OW17871  12.271  11.956   1.959
23011SOL    HW117872  12.308  11.920   2.045
23011SOL    HW217873  12.246  12.052   1.972
23012SOL     OW17874  16.861   7.768   6.452
23012SOL    HW117875  16.860   7.737   6.357
23012SOL    HW217876  16.785   7.831   6.468
23013SOL     OW17877  14.638   9.902   2.090
23013SOL    HW117878  14.557   9.960   2.078
23013SOL    HW217879  14.721   9.956   2.074
23014SOL     OW17880   6.762  13.542   7.742
23014SOL    HW117881   6.691  13.472   7.741
23014SOL    HW217882   6.724  13.627   7.781
23015SOL     OW17883  15.016   6.232   0.794
23015SOL    HW117884  14.951   6.249   0.720
23015SOL    HW217885  15.109   6.232   0.757
23016SOL     OW17886   0.065  12.434   8.038
23016SOL    HW117887  16.963  12.474   8.073
23016SOL    HW217888   0.142  12.490   8.068
23017SOL     OW17889   5.446  15.396   6.752
23017SOL    HW117890   5.509  15.372   6.679
23017SOL    HW217891   5.359  15.428   6.712
23018SOL     OW17892  13.728   7.595   6.648
23018SOL    HW117893  13.783   7.630   6.573
23018SOL    HW217894  13.691   7.672   6.701
23019SOL     OW17895  14.296   8.383   6.897
23019SOL    HW117896  14.343   8.457   6.947
23019SOL    HW217897  14.352   8.300   6.901
23020SOL     OW17898  16.621   3.272   8.428
23020SOL    HW117899  16.644   3.322   0.057
23020SOL    HW217900  16.705   3.238   8.385
23021SOL     OW17901   9.058   3.382   0.592
23021SOL    HW117902   9.064   3.370   0.691
23021SOL    HW217903   9.081   3.476   0.569
23022SOL     OW17904  10.124   5.001   7.112
23022SOL    HW117905  10.161   5.059   7.184
23022SOL    HW217906  10.146   4.905   7.131
23023SOL     OW17907   5.532   9.104   0.929
23023SOL    HW117908   5.507   9.201   0.930
23023SOL    HW217909   5.589   9.084   1.009
23024SOL     OW17910  16.205   6.819   8.088
23024SOL    HW117911  16.218   6.870   8.174
23024SOL    HW217912  16.195   6.884   8.012
23025SOL     OW17913  15.380  10.609   7.320
23025SOL    HW117914  15.416  10.643   7.233
23025SOL    HW217915  15.298  10.554   7.304
23026SOL     OW17916   4.929  13.604   7.236
23026SOL    HW117917   4.914  13.629   7.332
23026SOL    HW217918   4.994  13.528   7.231
23027SOL     OW17919  11.201  15.201   0.393
23027SOL    HW117920  11.120  15.228   0.445
23027SOL    HW217921  11.197  15.243   0.302
23028SOL     OW17922   4.420  16.455   8.244
23028SOL    HW117923   4.484  16.380   8.253
23028SOL    HW217924   4.346  16.429   8.181
23029SOL     OW17925  12.937   0.015   6.827
23029SOL    HW117926  12.839   0.001   6.842
23029SOL    HW217927  12.952   0.049   6.734
23030SOL     OW17928  11.321   1.852   7.289
23030SOL    HW117929  11.290   1.766   7.330
23030SOL    HW217930  11.242   1.899   7.248
23031SOL     OW17931   7.350  12.629   8.176
23031SOL    HW117932   7.278  12.681   8.130
23031SOL    HW217933   7.309  12.560   8.235
23032SOL     OW17934   5.640   3.350   0.346
23032SOL    HW117935   5.718   3.407   0.369
23032SOL    HW217936   5.600   3.313   0.430
23033SOL     OW17937   8.585  13.074   1.743
23033SOL    HW117938   8.575  13.100   1.647
23033SOL    HW217939   8.509  13.015   1.770
23034SOL     OW17940  14.142   5.112   7.893
23034SOL    HW117941  14.049   5.082   7.874
23034SOL    HW217942  14.167   5.185   7.829
23035SOL     OW17943   4.465   0.549   6.558
23035SOL    HW117944   4.384   0.585   6.511
23035SOL    HW217945   4.453   0.451   6.576
23036SOL     OW17946  10.618   5.204   8.194
23036SOL    HW117947  10.584   5.245   8.279
23036SOL    HW217948  10.545   5.206   8.125
23037SOL     OW17949  12.660   0.070   1.898
23037SOL    HW117950  12.653   0.132   1.820
23037SOL    HW217951  12.674  16.960   1.865
23038SOL     OW17952   9.444   4.726   0.323
23038SOL    HW117953   9.517   4.723   0.254
23038SOL    HW217954   9.435   4.820   0.357
23039SOL     OW17955  14.126   6.700   8.371
23039SOL    HW117956  14.042   6.718   8.422
23039SOL    HW217957  14.139   6.601   8.363
23040SOL     OW17958   3.368  16.867   0.888
23040SOL    HW117959   3.365  16.967   0.890
23040SOL    HW217960   3.367  16.832   0.982
23041SOL     OW17961   2.217  12.998   0.658
23041SOL    HW117962   2.231  12.935   0.734
23041SOL    HW217963   2.196  13.089   0.694
23042SOL     OW17964   2.025  13.646   7.254
23042SOL    HW117965   2.104  13.705   7.236
23042SOL    HW217966   1.961  13.694   7.314
23043SOL     OW17967  15.434   5.546   6.880
23043SOL    HW117968  15.404   5.624   6.827
23043SOL    HW217969  15.374   5.468   6.863
23044SOL     OW17970   5.455  15.036   7.418
23044SOL    HW117971   5.416  15.115   7.369
23044SOL    HW217972   5.547  15.059   7.450
23045SOL     OW17973   9.481  16.017   7.540
23045SOL    HW117974   9.537  16.050   7.464
23045SOL    HW217975   9.518  16.051   7.626
23046SOL     OW17976  14.813  12.194   6.768
23046SOL    HW117977  14.780  12.109   6.728
23046SOL    HW217978  14.794  12.270   6.705
23047SOL     OW17979   3.159  16.230   7.243
23047SOL    HW117980   3.137  16.157   7.179
23047SOL    HW217981   3.140  16.319   7.199
23048SOL     OW17982   0.869   9.637   6.855
23048SOL    HW117983   0.942   9.691   6.815
23048SOL    HW217984   0.793   9.631   6.791
23049SOL     OW17985   6.283   1.388   0.096
23049SOL    HW117986   6.225   1.329   0.041
23049SOL    HW217987   6.379   1.365   0.080
23050SOL     OW17988   3.617   0.484   0.545
23050SOL    HW117989   3.535   0.450   0.591
23050SOL    HW217990   3.697   0.433   0.578
23051SOL     OW17991  12.203   6.061   0.577
23051SOL    HW117992  12.169   6.003   0.503
23051SOL    HW217993  12.150   6.145   0.581
23052SOL     OW17994  14.422   4.967   7.247
23052SOL    HW117995  14.395   5.046   7.191
23052SOL    HW217996  14.371   4.886   7.216
23053SOL     OW17997   0.770  11.541   7.302
23053SOL    HW117998   0.857  11.588   7.286
23053SOL    HW217999   0.708  11.558   7.225
23054SOL     OW18000  13.610   4.305   8.198
23054SOL    HW118001  13.676   4.346   8.136
23054SOL    HW218002  13.590   4.211   8.168
23055SOL     OW18003   4.919   1.563   0.061
23055SOL    HW118004   4.878   1.520   8.435
23055SOL    HW218005   4.869   1.647   0.083
23056SOL     OW18006   0.391   1.421   7.652
23056SOL    HW118007   0.473   1.454   7.607
23056SOL    HW218008   0.388   1.453   7.747
23057SOL     OW18009   6.855  10.023   6.195
23057SOL    HW118010   6.762  10.023   6.230
23057SOL    HW218011   6.854  10.018   6.095
23058SOL     OW18012  13.326   3.348   6.220
23058SOL    HW118013  13.353   3.289   6.296
23058SOL    HW218014  13.277   3.294   6.151
23059SOL     OW18015  13.524   3.191   7.278
23059SOL    HW118016  13.455   3.120   7.289
23059SOL    HW218017  13.536   3.211   7.181
23060SOL     OW18018   1.680   5.097   0.638
23060SOL    HW118019   1.734   5.075   0.557
23060SOL    HW218020   1.693   5.026   0.707
23061SOL     OW18021  11.204  16.025   7.516
23061SOL    HW118022  11.203  15.939   7.464
23061SOL    HW218023  11.146  16.092   7.471
23062SOL     OW18024   7.320  14.747   6.597
23062SOL    HW118025   7.277  14.664   6.563
23062SOL    HW218026   7.419  14.743   6.581
23063SOL     OW18027   0.427   9.220   0.188
23063SOL    HW118028   0.503   9.280   0.163
23063SOL    HW218029   0.373   9.199   0.107
23064SOL     OW18030   2.585   1.277   7.491
23064SOL    HW118031   2.509   1.224   7.529
23064SOL    HW218032   2.672   1.240   7.525
23065SOL     OW18033   0.102  15.963   0.656
23065SOL    HW118034   0.004  15.975   0.638
23065SOL    HW218035   0.116  15.949   0.754
23066SOL     OW18036   9.023   9.946   0.520
23066SOL    HW118037   9.103   9.967   0.464
23066SOL    HW218038   8.976  10.031   0.543
23067SOL     OW18039  13.461   8.782   6.670
23067SOL    HW118040  13.513   8.737   6.742
23067SOL    HW218041  13.505   8.765   6.582
23068SOL     OW18042  14.419  14.652   1.752
23068SOL    HW118043  14.370  14.648   1.665
23068SOL    HW218044  14.353  14.656   1.827
23069SOL     OW18045   9.278   7.697   0.033
23069SOL    HW118046   9.251   7.607   0.067
23069SOL    HW218047   9.337   7.687   8.407
23070SOL     OW18048  16.123   7.273   1.119
23070SOL    HW118049  16.114   7.257   1.021
23070SOL    HW218050  16.096   7.190   1.169
23071SOL     OW18051  10.806   4.350   5.900
23071SOL    HW118052  10.894   4.395   5.912
23071SOL    HW218053  10.737   4.418   5.873
23072SOL     OW18054   9.638   6.349   8.166
23072SOL    HW118055   9.546   6.319   8.191
23072SOL    HW218056   9.706   6.289   8.209
23073SOL     OW18057   2.993   6.426   7.385
23073SOL    HW118058   3.046   6.491   7.440
23073SOL    HW218059   2.926   6.381   7.443
23074SOL     OW18060  10.949   5.683   0.201
23074SOL    HW118061  10.967   5.688   0.102
23074SOL    HW218062  11.018   5.736   0.250
23075SOL     OW18063   8.756  15.845   7.865
23075SOL    HW118064   8.780  15.802   7.778
23075SOL    HW218065   8.822  15.918   7.885
23076SOL     OW18066   7.881   6.724   8.236
23076SOL    HW118067   7.905   6.638   8.281
23076SOL    HW218068   7.782   6.729   8.223
23077SOL     OW18069  16.261  12.950   7.660
23077SOL    HW118070  16.170  12.963   7.699
23077SOL    HW218071  16.266  12.860   7.617
23078SOL     OW18072   9.702   0.145   1.540
23078SOL    HW118073   9.655   0.230   1.563
23078SOL    HW218074   9.799   0.164   1.523
23079SOL     OW18075   0.666   2.869   1.684
23079SOL    HW118076   0.584   2.859   1.628
23079SOL    HW218077   0.640   2.907   1.773
23080SOL     OW18078   3.997  14.580   0.673
23080SOL    HW118079   4.076  14.523   0.650
23080SOL    HW218080   4.024  14.648   0.742
23081SOL     OW18081   3.643  10.945   1.162
23081SOL    HW118082   3.622  11.028   1.111
23081SOL    HW218083   3.615  10.865   1.109
23082SOL     OW18084   9.841   7.927   2.111
23082SOL    HW118085   9.749   7.951   2.080
23082SOL    HW218086   9.849   7.944   2.209
23083SOL     OW18087  12.085   4.179   0.272
23083SOL    HW118088  12.180   4.187   0.301
23083SOL    HW218089  12.072   4.092   0.224
23084SOL     OW18090  11.089   3.937   6.333
23084SOL    HW118091  11.163   3.879   6.296
23084SOL    HW218092  11.005   3.883   6.340
23085SOL     OW18093   9.164   3.140   8.412
23085SOL    HW118094   9.079   3.186   8.389
23085SOL    HW218095   9.241   3.200   8.391
23086SOL     OW18096   5.863   8.651   0.698
23086SOL    HW118097   5.886   8.553   0.700
23086SOL    HW218098   5.804   8.670   0.619
23087SOL     OW18099   4.722  10.994   0.718
23087SOL    HW118100   4.670  10.929   0.662
23087SOL    HW218101   4.659  11.040   0.781
23088SOL     OW18102   9.712   6.734   7.924
23088SOL    HW118103   9.639   6.801   7.907
23088SOL    HW218104   9.775   6.772   7.992
23089SOL     OW18105   6.213  12.947   1.009
23089SOL    HW118106   6.288  12.942   0.943
23089SOL    HW218107   6.201  13.042   1.038
23090SOL     OW18108   2.904   4.152   1.524
23090SOL    HW118109   2.955   4.174   1.607
23090SOL    HW218110   2.955   4.085   1.470
23091SOL     OW18111   1.171   0.858   0.336
23091SOL    HW118112   1.135   0.934   0.389
23091SOL    HW218113   1.226   0.799   0.395
23092SOL     OW18114   7.709   2.578   8.246
23092SOL    HW118115   7.776   2.620   8.184
23092SOL    HW218116   7.623   2.628   8.241
23093SOL     OW18117  16.769  13.984   0.651
23093SOL    HW118118  16.693  14.023   0.703
23093SOL    HW218119  16.734  13.949   0.564
23094SOL     OW18120  11.532  14.847   1.388
23094SOL    HW118121  11.441  14.824   1.423
23094SOL    HW218122  11.598  14.778   1.419
23095SOL     OW18123   1.592   1.335   1.093
23095SOL    HW118124   1.556   1.412   1.040
23095SOL    HW218125   1.689   1.323   1.073
23096SOL     OW18126  12.383  15.376   0.062
23096SOL    HW118127  12.291  15.371   0.025
23096SOL    HW218128  12.417  15.470   0.055
23097SOL     OW18129   2.980   5.095   7.720
23097SOL    HW118130   3.078   5.079   7.733
23097SOL    HW218131   2.966   5.153   7.639
23098SOL     OW18132   7.338   1.734   0.769
23098SOL    HW118133   7.260   1.753   0.828
23098SOL    HW218134   7.419   1.718   0.826
23099SOL     OW18135   5.069  10.795   7.960
23099SOL    HW118136   5.093  10.715   8.015
23099SOL    HW218137   4.981  10.831   7.990
23100SOL     OW18138  14.239   5.181   0.798
23100SOL    HW118139  14.155   5.155   0.751
23100SOL    HW218140  14.292   5.243   0.740
23101SOL     OW18141   6.372   3.970   6.351
23101SOL    HW118142   6.423   3.930   6.275
23101SOL    HW218143   6.391   4.068   6.357
23102SOL     OW18144  11.123   4.333   0.026
23102SOL    HW118145  11.207   4.307   0.075
23102SOL    HW218146  11.116   4.433   0.025
23103SOL     OW18147   0.807  14.305   0.633
23103SOL    HW118148   0.754  14.329   0.715
23103SOL    HW218149   0.886  14.365   0.626
23104SOL     OW18150   4.058   8.183   1.998
23104SOL    HW118151   3.982   8.237   2.034
23104SOL    HW218152   4.039   8.086   2.013
23105SOL     OW18153  15.647  15.978   0.786
23105SOL    HW118154  15.605  16.068   0.796
23105SOL    HW218155  15.743  15.990   0.758
23106SOL     OW18156   6.844   8.171   1.473
23106SOL    HW118157   6.840   8.079   1.435
23106SOL    HW218158   6.752   8.201   1.499
23107SOL     OW18159   4.854   5.198   8.165
23107SOL    HW118160   4.825   5.294   8.157
23107SOL    HW218161   4.925   5.190   8.235
23108SOL     OW18162  11.719  14.571   0.972
23108SOL    HW118163  11.799  14.575   1.031
23108SOL    HW218164  11.706  14.659   0.926
23109SOL     OW18165  11.249   9.890   1.927
23109SOL    HW118166  11.309   9.964   1.956
23109SOL    HW218167  11.229   9.830   2.004
23110SOL     OW18168   9.607   6.475   7.928
23110SOL    HW118169   9.613   6.433   8.019
23110SOL    HW218170   9.642   6.569   7.932
23111SOL     OW18171   8.728   4.045   7.461
23111SOL    HW118172   8.719   4.123   7.523
23111SOL    HW218173   8.707   3.961   7.511
23112SOL     OW18174   5.741   5.627   7.378
23112SOL    HW118175   5.817   5.682   7.343
23112SOL    HW218176   5.766   5.587   7.466
23113SOL     OW18177   6.626   3.827   7.109
23113SOL    HW118178   6.640   3.735   7.145
23113SOL    HW218179   6.686   3.841   7.030
23114SOL     OW18180  16.204   4.083   7.086
23114SOL    HW118181  16.300   4.063   7.067
23114SOL    HW218182  16.158   4.113   7.003
23115SOL     OW18183   0.487   6.595   8.068
23115SOL    HW118184   0.414   6.528   8.056
23115SOL    HW218185   0.528   6.616   7.979
23116SOL     OW18186   4.285  13.464   1.913
23116SOL    HW118187   4.237  13.520   1.845
23116SOL    HW218188   4.284  13.510   2.001
23117SOL     OW18189   1.338   5.766   0.087
23117SOL    HW118190   1.241   5.754   0.107
23117SOL    HW218191   1.392   5.740   0.167
23118SOL     OW18192   0.247   7.638   6.671
23118SOL    HW118193   0.211   7.587   6.593
23118SOL    HW218194   0.177   7.701   6.705
23119SOL     OW18195   5.677   8.385   0.743
23119SOL    HW118196   5.623   8.316   0.791
23119SOL    HW218197   5.625   8.471   0.738
23120SOL     OW18198  11.411   7.212   0.266
23120SOL    HW118199  11.337   7.234   0.203
23120SOL    HW218200  11.480   7.158   0.218
23121SOL     OW18201   9.309   2.750   0.815
23121SOL    HW118202   9.321   2.824   0.882
23121SOL    HW218203   9.234   2.691   0.844
23122SOL     OW18204   3.080   1.275   1.911
23122SOL    HW118205   3.047   1.290   2.005
23122SOL    HW218206   3.036   1.340   1.849
23123SOL     OW18207  11.486  10.118   7.537
23123SOL    HW118208  11.491  10.099   7.634
23123SOL    HW218209  11.449  10.210   7.523
23124SOL     OW18210  11.062   2.569   6.160
23124SOL    HW118211  11.090   2.530   6.072
23124SOL    HW218212  11.009   2.652   6.143
23125SOL     OW18213  15.748  15.031   7.817
23125SOL    HW118214  15.843  15.000   7.822
23125SOL    HW218215  15.727  15.058   7.723
23126SOL     OW18216   9.845  13.000   8.279
23126SOL    HW118217   9.938  13.014   8.311
23126SOL    HW218218   9.781  13.019   8.353
23127SOL     OW18219   6.880  11.708   1.032
23127SOL    HW118220   6.832  11.769   1.095
23127SOL    HW218221   6.850  11.725   0.939
23128SOL     OW18222  10.626   1.530   1.261
23128SOL    HW118223  10.609   1.608   1.200
23128SOL    HW218224  10.710   1.546   1.312
23129SOL     OW18225  15.979   9.545   1.671
23129SOL    HW118226  15.925   9.513   1.593
23129SOL    HW218227  15.949   9.637   1.696
23130SOL     OW18228  14.954  16.228   1.096
23130SOL    HW118229  14.951  16.328   1.106
23130SOL    HW218230  14.860  16.192   1.094
23131SOL     OW18231  12.952   2.369   0.826
23131SOL    HW118232  12.929   2.343   0.920
23131SOL    HW218233  12.868   2.387   0.775
23132SOL     OW18234   4.617   7.301   2.474
23132SOL    HW118235   4.608   7.203   2.490
23132SOL    HW218236   4.574   7.351   2.549
23133SOL     OW18237   4.194   2.467   1.526
23133SOL    HW118238   4.287   2.480   1.490
23133SOL    HW218239   4.197   2.408   1.607
23134SOL     OW18240   9.663  12.788   0.706
23134SOL    HW118241   9.569  12.759   0.687
23134SOL    HW218242   9.662  12.866   0.768
23135SOL     OW18243  14.513   4.688   0.333
23135SOL    HW118244  14.422   4.677   0.373
23135SOL    HW218245  14.579   4.708   0.406
23136SOL     OW18246  10.102  13.779   2.333
23136SOL    HW118247  10.039  13.713   2.375
23136SOL    HW218248  10.171  13.806   2.399
23137SOL     OW18249  12.483   5.817   0.699
23137SOL    HW118250  12.403   5.757   0.703
23137SOL    HW218251  12.518   5.832   0.792
23138SOL     OW18252   9.343  11.540   7.040
23138SOL    HW118253   9.249  11.523   7.011
23138SOL    HW218254   9.352  11.634   7.071
23139SOL     OW18255   9.224  11.225   8.331
23139SOL    HW118256   9.166  11.219   8.413
23139SOL    HW218257   9.177  11.180   8.254
23140SOL     OW18258  10.158  15.661   7.168
23140SOL    HW118259  10.237  15.662   7.106
23140SOL    HW218260  10.116  15.751   7.168
23141SOL     OW18261  14.559  13.986   7.765
23141SOL    HW118262  14.616  13.937   7.699
23141SOL    HW218263  14.479  14.022   7.718
23142SOL     OW18264   9.283  10.804   1.105
23142SOL    HW118265   9.251  10.898   1.099
23142SOL    HW218266   9.205  10.742   1.102
23143SOL     OW18267   7.182   5.292   0.913
23143SOL    HW118268   7.191   5.236   0.831
23143SOL    HW218269   7.116   5.250   0.975
23144SOL     OW18270  10.272   8.144   2.023
23144SOL    HW118271  10.314   8.234   2.030
23144SOL    HW218272  10.286   8.094   2.109
23145SOL     OW18273   1.189   9.725   7.140
23145SOL    HW118274   1.228   9.689   7.225
23145SOL    HW218275   1.262   9.734   7.072
23146SOL     OW18276  16.460   4.958   7.149
23146SOL    HW118277  16.435   4.861   7.145
23146SOL    HW218278  16.468   4.987   7.245
23147SOL     OW18279   8.346   9.275   6.274
23147SOL    HW118280   8.350   9.374   6.263
23147SOL    HW218281   8.361   9.231   6.185
23148SOL     OW18282  12.659   6.267   8.158
23148SOL    HW118283  12.565   6.298   8.172
23148SOL    HW218284  12.663   6.168   8.170
23149SOL     OW18285  10.419   1.177   6.739
23149SOL    HW118286  10.362   1.159   6.659
23149SOL    HW218287  10.426   1.095   6.795
23150SOL     OW18288  16.519   0.333   0.895
23150SOL    HW118289  16.518   0.332   0.995
23150SOL    HW218290  16.561   0.418   0.864
23151SOL     OW18291   1.221  12.172   0.888
23151SOL    HW118292   1.203  12.212   0.978
23151SOL    HW218293   1.174  12.084   0.881
23152SOL     OW18294   5.355   8.623   1.805
23152SOL    HW118295   5.313   8.709   1.834
23152SOL    HW218296   5.454   8.628   1.819
23153SOL     OW18297   2.635  16.667   6.824
23153SOL    HW118298   2.721  16.718   6.831
23153SOL    HW218299   2.643  16.596   6.754
23154SOL     OW18300   1.969  10.181   7.793
23154SOL    HW118301   1.924  10.152   7.708
23154SOL    HW218302   2.022  10.105   7.830
23155SOL     OW18303   1.074  10.631   8.219
23155SOL    HW118304   1.135  10.702   8.184
23155SOL    HW218305   1.022  10.667   8.296
23156SOL     OW18306   8.900   6.611   6.813
23156SOL    HW118307   8.937   6.546   6.747
23156SOL    HW218308   8.905   6.572   6.905
23157SOL     OW18309  14.586  10.202   6.606
23157SOL    HW118310  14.623  10.184   6.515
23157SOL    HW218311  14.500  10.151   6.617
23158SOL     OW18312  16.597  12.971   1.705
23158SOL    HW118313  16.537  13.051   1.704
23158SOL    HW218314  16.689  12.998   1.732
23159SOL     OW18315  10.643   1.832   0.315
23159SOL    HW118316  10.719   1.767   0.308
23159SOL    HW218317  10.559   1.783   0.340
23160SOL     OW18318   4.988   6.241   7.764
23160SOL    HW118319   4.998   6.143   7.780
23160SOL    HW218320   4.944   6.283   7.843
23161SOL     OW18321  14.281  13.524   0.429
23161SOL    HW118322  14.242  13.438   0.462
23161SOL    HW218323  14.361  13.505   0.372
23162SOL     OW18324  13.676   9.144   6.868
23162SOL    HW118325  13.687   9.115   6.773
23162SOL    HW218326  13.624   9.075   6.918
23163SOL     OW18327  11.643   1.654   6.690
23163SOL    HW118328  11.682   1.740   6.722
23163SOL    HW218329  11.543   1.662   6.689
23164SOL     OW18330  16.639   6.467   6.738
23164SOL    HW118331  16.631   6.403   6.661
23164SOL    HW218332  16.565   6.450   6.803
23165SOL     OW18333   9.031   2.557   1.553
23165SOL    HW118334   9.115   2.507   1.574
23165SOL    HW218335   9.008   2.616   1.631
23166SOL     OW18336  13.777   8.683   0.651
23166SOL    HW118337  13.858   8.652   0.602
23166SOL    HW218338  13.731   8.605   0.693
23167SOL     OW18339   1.521  11.609   7.521
23167SOL    HW118340   1.533  11.705   7.547
23167SOL    HW218341   1.610  11.566   7.511
23168SOL     OW18342  12.088  15.747   6.847
23168SOL    HW118343  12.034  15.819   6.892
23168SOL    HW218344  12.042  15.718   6.763
23169SOL     OW18345   2.496   4.026   0.249
23169SOL    HW118346   2.488   3.948   0.187
23169SOL    HW218347   2.456   4.107   0.207
23170SOL     OW18348   0.531   4.235   7.315
23170SOL    HW118349   0.467   4.216   7.390
23170SOL    HW218350   0.593   4.309   7.343
23171SOL     OW18351   4.507   7.913   0.554
23171SOL    HW118352   4.419   7.951   0.524
23171SOL    HW218353   4.565   7.987   0.589
23172SOL     OW18354  10.404  12.993   7.566
23172SOL    HW118355  10.331  12.960   7.626
23172SOL    HW218356  10.489  13.000   7.618
23173SOL     OW18357   1.240   3.089   0.440
23173SOL    HW118358   1.257   2.990   0.445
23173SOL    HW218359   1.265   3.131   0.527
23174SOL     OW18360   0.759   7.867   0.922
23174SOL    HW118361   0.680   7.923   0.895
23174SOL    HW218362   0.842   7.902   0.879
23175SOL     OW18363   6.782   7.813   6.628
23175SOL    HW118364   6.881   7.819   6.624
23175SOL    HW218365   6.746   7.880   6.693
23176SOL     OW18366   4.361   7.397   8.380
23176SOL    HW118367   4.408   7.323   8.332
23176SOL    HW218368   4.428   7.455   8.427
23177SOL     OW18369   2.815  11.736   7.292
23177SOL    HW118370   2.913  11.717   7.279
23177SOL    HW218371   2.789  11.813   7.234
23178SOL     OW18372   4.913   4.021   7.320
23178SOL    HW118373   4.879   3.931   7.292
23178SOL    HW218374   4.867   4.049   7.404
23179SOL     OW18375   9.089   4.592   6.959
23179SOL    HW118376   9.002   4.550   6.988
23179SOL    HW218377   9.071   4.685   6.926
23180SOL     OW18378   3.793   9.124   1.723
23180SOL    HW118379   3.748   9.207   1.689
23180SOL    HW218380   3.834   9.143   1.813
23181SOL     OW18381   7.862  13.806   2.280
23181SOL    HW118382   7.763  13.816   2.283
23181SOL    HW218383   7.891  13.776   2.190
23182SOL     OW18384   1.937  14.838   1.080
23182SOL    HW118385   1.907  14.755   1.034
23182SOL    HW218386   2.034  14.855   1.058
23183SOL     OW18387  11.386   3.636   0.554
23183SOL    HW118388  11.341   3.562   0.604
23183SOL    HW218389  11.337   3.653   0.468
23184SOL     OW18390   2.537   4.653   7.016
23184SOL    HW118391   2.622   4.662   7.068
23184SOL    HW218392   2.544   4.707   6.931
23185SOL     OW18393  12.849   2.548   6.199
23185SOL    HW118394  12.893   2.585   6.280
23185SOL    HW218395  12.919   2.522   6.132
23186SOL     OW18396   0.731  11.417   1.004
23186SOL    HW118397   0.767  11.471   1.080
23186SOL    HW218398   0.731  11.473   0.921
23187SOL     OW18399   1.608   7.946   7.962
23187SOL    HW118400   1.575   8.040   7.952
23187SOL    HW218401   1.683   7.930   7.898
23188SOL     OW18402   9.395   8.357   0.007
23188SOL    HW118403   9.365   8.453   0.012
23188SOL    HW218404   9.321   8.297   0.038
23189SOL     OW18405  10.049  16.283   8.284
23189SOL    HW118406   9.988  16.247   8.354
23189SOL    HW218407  10.132  16.319   8.327
23190SOL     OW18408  11.803  12.383   0.996
23190SOL    HW118409  11.839  12.441   0.923
23190SOL    HW218410  11.759  12.441   1.065
23191SOL     OW18411   0.159   9.559   6.946
23191SOL    HW118412   0.235   9.529   7.004
23191SOL    HW218413   0.191   9.566   6.851
23192SOL     OW18414   0.784  16.797   0.687
23192SOL    HW118415   0.733  16.874   0.723
23192SOL    HW218416   0.882  16.820   0.684
23193SOL     OW18417  10.803   7.124   7.942
23193SOL    HW118418  10.846   7.064   8.009
23193SOL    HW218419  10.717   7.160   7.978
23194SOL     OW18420   0.676   0.948   0.800
23194SOL    HW118421   0.767   0.911   0.821
23194SOL    HW218422   0.685   1.023   0.735
23195SOL     OW18423  12.129  15.159   7.600
23195SOL    HW118424  12.117  15.175   7.698
23195SOL    HW218425  12.117  15.245   7.551
23196SOL     OW18426  13.368  13.661   7.576
23196SOL    HW118427  13.320  13.713   7.505
23196SOL    HW218428  13.327  13.681   7.665
23197SOL     OW18429   4.798   4.247   8.335
23197SOL    HW118430   4.806   4.344   8.359
23197SOL    HW218431   4.889   4.211   8.315
23198SOL     OW18432  10.868   4.839   0.587
23198SOL    HW118433  10.818   4.886   0.515
23198SOL    HW218434  10.920   4.905   0.640
23199SOL     OW18435   0.402   2.928   5.900
23199SOL    HW118436   0.363   2.888   5.817
23199SOL    HW218437   0.360   3.018   5.916
23200SOL     OW18438  13.852  16.892   0.305
23200SOL    HW118439  13.913  16.907   0.384
23200SOL    HW218440  13.773  16.953   0.312
23201SOL     OW18441   0.645   6.036   1.052
23201SOL    HW118442   0.660   5.977   1.131
23201SOL    HW218443   0.556   6.015   1.011
23202SOL     OW18444   8.574  15.680   7.316
23202SOL    HW118445   8.598  15.764   7.364
23202SOL    HW218446   8.600  15.601   7.373
23203SOL     OW18447   7.674  11.128   7.730
23203SOL    HW118448   7.748  11.194   7.726
23203SOL    HW218449   7.704  11.041   7.689
23204SOL     OW18450  12.149  13.089   7.733
23204SOL    HW118451  12.202  13.091   7.817
23204SOL    HW218452  12.180  13.161   7.672
23205SOL     OW18453   6.710   4.050   8.353
23205SOL    HW118454   6.716   3.981   8.281
23205SOL    HW218455   6.802   4.086   8.372
23206SOL     OW18456   2.654  15.998   7.787
23206SOL    HW118457   2.729  15.940   7.755
23206SOL    HW218458   2.576  15.988   7.725
23207SOL     OW18459  12.077  14.073   1.618
23207SOL    HW118460  12.118  13.983   1.598
23207SOL    HW218461  12.148  14.143   1.612
23208SOL     OW18462   2.980  13.334   0.091
23208SOL    HW118463   2.898  13.378   0.128
23208SOL    HW218464   2.973  13.235   0.102
23209SOL     OW18465   4.483   9.818   1.002
23209SOL    HW118466   4.538   9.794   0.922
23209SOL    HW218467   4.535   9.800   1.085
23210SOL     OW18468   6.730   1.690   6.730
23210SOL    HW118469   6.673   1.694   6.812
23210SOL    HW218470   6.797   1.616   6.740
23211SOL     OW18471  16.928  16.245   6.866
23211SOL    HW118472  16.929  16.151   6.831
23211SOL    HW218473  16.838  16.286   6.848
23212SOL     OW18474   1.425   9.050   0.284
23212SOL    HW118475   1.411   9.014   0.377
23212SOL    HW218476   1.337   9.056   0.238
23213SOL     OW18477  16.116   5.164   7.603
23213SOL    HW118478  16.030   5.188   7.650
23213SOL    HW218479  16.133   5.230   7.530
23214SOL     OW18480   2.038   1.298   0.689
23214SOL    HW118481   2.119   1.300   0.630
23214SOL    HW218482   2.048   1.367   0.761
23215SOL     OW18483  12.813  13.787   1.548
23215SOL    HW118484  12.889  13.834   1.593
23215SOL    HW218485  12.848  13.722   1.481
23216SOL     OW18486   7.515   4.314   7.092
23216SOL    HW118487   7.546   4.288   7.000
23216SOL    HW218488   7.533   4.411   7.108
23217SOL     OW18489  11.049   0.524   8.408
23217SOL    HW118490  11.011   0.600   8.356
23217SOL    HW218491  11.086   0.455   8.346
23218SOL     OW18492   8.061   0.052   0.674
23218SOL    HW118493   8.049   0.112   0.753
23218SOL    HW218494   8.094   0.106   0.596
23219SOL     OW18495  13.515   8.104   0.549
23219SOL    HW118496  13.546   8.152   0.467
23219SOL    HW218497  13.420   8.130   0.569
23220SOL     OW18498   6.462   2.982   7.217
23220SOL    HW118499   6.470   2.890   7.178
23220SOL    HW218500   6.490   3.050   7.148
23221SOL     OW18501   7.416   3.070   8.431
23221SOL    HW118502   7.405   3.074   8.331
23221SOL    HW218503   7.405   2.976   0.008
23222SOL     OW18504   7.629   6.966   8.383
23222SOL    HW118505   7.675   6.956   0.017
23222SOL    HW218506   7.696   6.991   8.313
23223SOL     OW18507   4.389  16.766   0.238
23223SOL    HW118508   4.352  16.700   0.303
23223SOL    HW218509   4.321  16.784   0.167
23224SOL     OW18510  15.561  13.915   7.029
23224SOL    HW118511  15.556  13.957   6.938
23224SOL    HW218512  15.653  13.928   7.066
23225SOL     OW18513   1.033   7.181   6.966
23225SOL    HW118514   1.044   7.089   7.004
23225SOL    HW218515   0.953   7.184   6.906
23226SOL     OW18516   8.666   8.405   1.530
23226SOL    HW118517   8.764   8.383   1.530
23226SOL    HW218518   8.619   8.345   1.466
23227SOL     OW18519   7.215   5.500   1.979
23227SOL    HW118520   7.270   5.418   1.962
23227SOL    HW218521   7.161   5.487   2.062
23228SOL     OW18522   7.989  14.537   0.507
23228SOL    HW118523   8.028  14.582   0.427
23228SOL    HW218524   7.908  14.586   0.537
23229SOL     OW18525   0.663  12.056   1.650
23229SOL    HW118526   0.678  12.146   1.691
23229SOL    HW218527   0.572  12.022   1.675
23230SOL     OW18528  10.707  12.070   7.035
23230SOL    HW118529  10.747  12.019   7.111
23230SOL    HW218530  10.677  12.006   6.964
23231SOL     OW18531  13.022  16.899   8.001
23231SOL    HW118532  13.103  16.847   8.027
23231SOL    HW218533  13.049   0.003   7.962
23232SOL     OW18534  15.093  12.876   0.904
23232SOL    HW118535  15.169  12.882   0.839
23232SOL    HW218536  15.006  12.888   0.857
23233SOL     OW18537   4.460   0.471   7.340
23233SOL    HW118538   4.373   0.435   7.307
23233SOL    HW218539   4.534   0.407   7.317
23234SOL     OW18540  11.391  16.575   1.842
23234SOL    HW118541  11.334  16.641   1.793
23234SOL    HW218542  11.334  16.502   1.879
23235SOL     OW18543   8.847  15.180   0.783
23235SOL    HW118544   8.751  15.160   0.763
23235SOL    HW218545   8.877  15.258   0.729
23236SOL     OW18546  10.234   9.349   7.164
23236SOL    HW118547  10.143   9.307   7.156
23236SOL    HW218548  10.303   9.277   7.176
23237SOL     OW18549  16.287  12.720   0.989
23237SOL    HW118550  16.230  12.794   1.025
23237SOL    HW218551  16.312  12.658   1.064
23238SOL     OW18552   5.356   6.091   7.841
23238SOL    HW118553   5.309   6.124   7.924
23238SOL    HW218554   5.407   6.008   7.862
23239SOL     OW18555  11.961   5.700   1.677
23239SOL    HW118556  12.014   5.759   1.616
23239SOL    HW218557  11.868   5.735   1.684
23240SOL     OW18558   7.024   9.291   0.715
23240SOL    HW118559   6.969   9.274   0.797
23240SOL    HW218560   6.969   9.274   0.634
23241SOL     OW18561   9.183  10.068   1.454
23241SOL    HW118562   9.092  10.062   1.413
23241SOL    HW218563   9.227  10.152   1.424
23242SOL     OW18564   7.125   1.813   0.920
23242SOL    HW118565   7.042   1.757   0.914
23242SOL    HW218566   7.105   1.906   0.888
23243SOL     OW18567   8.076  10.047   2.399
23243SOL    HW118568   8.120   9.969   2.355
23243SOL    HW218569   8.106  10.052   2.495
23244SOL     OW18570   9.068  15.310   0.431
23244SOL    HW118571   9.036  15.226   0.388
23244SOL    HW218572   9.061  15.386   0.367
23245SOL     OW18573  12.717   7.928   6.453
23245SOL    HW118574  12.722   7.951   6.356
23245SOL    HW218575  12.787   7.980   6.503
23246SOL     OW18576   4.915   0.191   8.280
23246SOL    HW118577   4.991   0.196   8.344
23246SOL    HW218578   4.829   0.181   8.331
23247SOL     OW18579  14.454   2.578   7.125
23247SOL    HW118580  14.524   2.579   7.055
23247SOL    HW218581  14.430   2.483   7.147
23248SOL     OW18582   6.612  14.312   0.611
23248SOL    HW118583   6.621  14.215   0.590
23248SOL    HW218584   6.699  14.348   0.645
23249SOL     OW18585   2.970   3.777   0.395
23249SOL    HW118586   2.960   3.861   0.341
23249SOL    HW218587   3.066   3.764   0.418
23250SOL     OW18588  15.305  16.934   8.001
23250SOL    HW118589  15.294   0.014   7.924
23250SOL    HW218590  15.237  16.954   8.071
23251SOL     OW18591  15.443   8.864   2.399
23251SOL    HW118592  15.500   8.822   2.328
23251SOL    HW218593  15.368   8.802   2.422
23252SOL     OW18594  13.765   4.780   7.820
23252SOL    HW118595  13.850   4.728   7.825
23252SOL    HW218596  13.690   4.720   7.793
23253SOL     OW18597   0.172  14.363   0.313
23253SOL    HW118598   0.244  14.310   0.359
23253SOL    HW218599   0.085  14.315   0.321
23254SOL     OW18600   4.955   8.344   0.776
23254SOL    HW118601   4.972   8.373   0.682
23254SOL    HW218602   5.036   8.298   0.812
23255SOL     OW18603  10.537   2.648   0.771
23255SOL    HW118604  10.545   2.711   0.848
23255SOL    HW218605  10.444   2.610   0.769
23256SOL     OW18606   5.906   1.318   7.969
23256SOL    HW118607   5.818   1.364   7.954
23256SOL    HW218608   5.891   1.230   8.013
23257SOL     OW18609   6.657   5.702   6.244
23257SOL    HW118610   6.667   5.643   6.324
23257SOL    HW218611   6.747   5.732   6.213
23258SOL     OW18612   7.721   1.877   0.715
23258SOL    HW118613   7.748   1.785   0.742
23258SOL    HW218614   7.659   1.915   0.784
23259SOL     OW18615  10.319   5.716   1.254
23259SOL    HW118616  10.396   5.771   1.220
23259SOL    HW218617  10.352   5.657   1.328
23260SOL     OW18618   4.749  14.320   1.167
23260SOL    HW118619   4.711  14.350   1.254
23260SOL    HW218620   4.712  14.377   1.093
23261SOL     OW18621   5.914   4.624   0.608
23261SOL    HW118622   5.980   4.574   0.663
23261SOL    HW218623   5.954   4.645   0.518
23262SOL     OW18624   4.022  12.203   0.369
23262SOL    HW118625   3.933  12.245   0.351
23262SOL    HW218626   4.020  12.159   0.458
23263SOL     OW18627   0.944   4.722   7.361
23263SOL    HW118628   0.916   4.811   7.398
23263SOL    HW218629   0.992   4.670   7.432
23264SOL     OW18630  12.291   8.280   0.109
23264SOL    HW118631  12.310   8.378   0.100
23264SOL    HW218632  12.320   8.248   0.199
23265SOL     OW18633   2.560  11.132   2.008
23265SOL    HW118634   2.635  11.100   2.066
23265SOL    HW218635   2.504  11.198   2.058
23266SOL     OW18636  10.830   5.449   7.082
23266SOL    HW118637  10.745   5.459   7.133
23266SOL    HW218638  10.905   5.491   7.133
23267SOL     OW18639   2.615  16.112   2.053
23267SOL    HW118640   2.610  16.023   2.008
23267SOL    HW218641   2.599  16.100   2.151
23268SOL     OW18642  14.238   1.294   1.552
23268SOL    HW118643  14.174   1.272   1.479
23268SOL    HW218644  14.227   1.230   1.627
23269SOL     OW18645  12.628   5.730   8.237
23269SOL    HW118646  12.569   5.699   8.163
23269SOL    HW218647  12.693   5.658   8.261
23270SOL     OW18648  10.167  15.760   6.458
23270SOL    HW118649  10.092  15.756   6.392
23270SOL    HW218650  10.156  15.840   6.517
23271SOL     OW18651  13.383   0.287   7.426
23271SOL    HW118652  13.434   0.331   7.501
23271SOL    HW218653  13.430   0.303   7.340
23272SOL     OW18654   7.543  13.187   7.846
23272SOL    HW118655   7.640  13.207   7.860
23272SOL    HW218656   7.512  13.123   7.916
23273SOL     OW18657  16.426  16.682   1.726
23273SOL    HW118658  16.420  16.626   1.810
23273SOL    HW218659  16.522  16.698   1.704
23274SOL     OW18660  13.804  11.314   1.303
23274SOL    HW118661  13.774  11.267   1.386
23274SOL    HW218662  13.757  11.402   1.295
23275SOL     OW18663   2.663  16.763   7.409
23275SOL    HW118664   2.662  16.798   7.503
23275SOL    HW218665   2.686  16.665   7.411
23276SOL     OW18666  11.869   2.342   1.381
23276SOL    HW118667  11.852   2.303   1.471
23276SOL    HW218668  11.799   2.410   1.360
23277SOL     OW18669   0.728   8.953   7.370
23277SOL    HW118670   0.691   9.040   7.338
23277SOL    HW218671   0.654   8.886   7.379
23278SOL     OW18672  13.027   5.963   6.793
23278SOL    HW118673  13.115   6.004   6.819
23278SOL    HW218674  13.028   5.940   6.696
23279SOL     OW18675  13.046  15.270   7.739
23279SOL    HW118676  13.049  15.314   7.649
23279SOL    HW218677  13.070  15.337   7.810
23280SOL     OW18678   6.129  13.248   0.335
23280SOL    HW118679   6.225  13.275   0.333
23280SOL    HW218680   6.076  13.316   0.386
23281SOL     OW18681   4.197  10.833   0.889
23281SOL    HW118682   4.277  10.864   0.941
23281SOL    HW218683   4.114  10.865   0.934
23282SOL     OW18684  16.289   4.129   0.047
23282SOL    HW118685  16.334   4.092   8.420
23282SOL    HW218686  16.263   4.053   0.108
23283SOL     OW18687   9.968  13.957   7.909
23283SOL    HW118688   9.956  14.026   7.980
23283SOL    HW218689   9.916  13.983   7.828
23284SOL     OW18690   9.940   3.928   7.559
23284SOL    HW118691   9.872   3.950   7.630
23284SOL    HW218692  10.011   3.869   7.598
23285SOL     OW18693  12.511   0.779   6.964
23285SOL    HW118694  12.580   0.740   7.024
23285SOL    HW218695  12.547   0.785   6.871
23286SOL     OW18696  16.615  11.937   1.944
23286SOL    HW118697  16.677  11.900   2.014
23286SOL    HW218698  16.639  12.032   1.925
23287SOL     OW18699  12.302  15.229   7.154
23287SOL    HW118700  12.308  15.191   7.061
23287SOL    HW218701  12.206  15.239   7.179
23288SOL     OW18702  13.988  14.273   6.828
23288SOL    HW118703  14.074  14.324   6.823
23288SOL    HW218704  13.915  14.327   6.786
23289SOL     OW18705   2.857  13.385   2.445
23289SOL    HW118706   2.833  13.291   2.422
23289SOL    HW218707   2.797  13.417   2.519
23290SOL     OW18708   2.911  12.127   1.238
23290SOL    HW118709   2.901  12.046   1.295
23290SOL    HW218710   2.923  12.208   1.296
23291SOL     OW18711  10.738   6.554   1.831
23291SOL    HW118712  10.781   6.617   1.896
23291SOL    HW218713  10.764   6.580   1.738
23292SOL     OW18714   1.460   4.064   0.531
23292SOL    HW118715   1.454   4.079   0.630
23292SOL    HW218716   1.465   3.965   0.513
23293SOL     OW18717  10.777   6.176   0.965
23293SOL    HW118718  10.768   6.121   0.883
23293SOL    HW218719  10.775   6.117   1.046
23294SOL     OW18720  11.156   2.458   0.599
23294SOL    HW118721  11.142   2.359   0.611
23294SOL    HW218722  11.089   2.493   0.534
23295SOL     OW18723   2.534   7.099   1.166
23295SOL    HW118724   2.505   7.193   1.150
23295SOL    HW218725   2.628   7.086   1.132
23296SOL     OW18726  15.900   1.823   1.623
23296SOL    HW118727  15.923   1.871   1.708
23296SOL    HW218728  15.801   1.822   1.612
23297SOL     OW18729   0.789  11.244   7.319
23297SOL    HW118730   0.813  11.340   7.306
23297SOL    HW218731   0.690  11.234   7.325
23298SOL     OW18732   0.684   9.500   2.458
23298SOL    HW118733   0.594   9.481   2.496
23298SOL    HW218734   0.745   9.531   2.530
23299SOL     OW18735  14.208  10.586   2.327
23299SOL    HW118736  14.195  10.563   2.231
23299SOL    HW218737  14.188  10.506   2.383
23300SOL     OW18738   1.881   0.809   7.860
23300SOL    HW118739   1.826   0.775   7.784
23300SOL    HW218740   1.820   0.839   7.934
23301SOL     OW18741   4.553   0.622   7.553
23301SOL    HW118742   4.584   0.712   7.524
23301SOL    HW218743   4.513   0.574   7.475
23302SOL     OW18744  15.599  11.257   1.809
23302SOL    HW118745  15.651  11.218   1.732
23302SOL    HW218746  15.607  11.356   1.806
23303SOL     OW18747   5.455   6.922   0.975
23303SOL    HW118748   5.418   6.842   0.927
23303SOL    HW218749   5.443   6.909   1.074
23304SOL     OW18750  11.256   3.744   6.213
23304SOL    HW118751  11.334   3.785   6.261
23304SOL    HW218752  11.252   3.646   6.235
23305SOL     OW18753  12.392   1.676   6.962
23305SOL    HW118754  12.418   1.772   6.955
23305SOL    HW218755  12.455   1.629   7.023
23306SOL     OW18756   8.483   1.515   7.538
23306SOL    HW118757   8.516   1.471   7.622
23306SOL    HW218758   8.410   1.461   7.498
23307SOL     OW18759  11.356   7.967   6.919
23307SOL    HW118760  11.324   7.905   6.992
23307SOL    HW218761  11.311   7.944   6.833
23308SOL     OW18762  11.731   1.463   7.219
23308SOL    HW118763  11.698   1.497   7.307
23308SOL    HW218764  11.831   1.462   7.219
23309SOL     OW18765   4.331   2.541   8.239
23309SOL    HW118766   4.329   2.442   8.228
23309SOL    HW218767   4.284   2.566   8.323
23310SOL     OW18768   0.071   3.988   8.090
23310SOL    HW118769   0.039   3.924   8.160
23310SOL    HW218770  16.981   4.052   8.066
23311SOL     OW18771   5.504   3.487   8.089
23311SOL    HW118772   5.531   3.469   8.183
23311SOL    HW218773   5.576   3.455   8.027
23312SOL     OW18774  10.809   2.386   5.912
23312SOL    HW118775  10.807   2.485   5.925
23312SOL    HW218776  10.845   2.365   5.821
23313SOL     OW18777   7.403   5.489   7.089
23313SOL    HW118778   7.389   5.402   7.138
23313SOL    HW218779   7.373   5.565   7.146
23314SOL     OW18780   0.700   8.779   7.795
23314SOL    HW118781   0.751   8.865   7.792
23314SOL    HW218782   0.608   8.796   7.830
23315SOL     OW18783  14.998   4.659   8.115
23315SOL    HW118784  15.052   4.721   8.171
23315SOL    HW218785  15.055   4.623   8.041
23316SOL     OW18786   9.504  16.124   0.504
23316SOL    HW118787   9.430  16.188   0.527
23316SOL    HW218788   9.550  16.154   0.421
23317SOL     OW18789   9.479  13.713   2.229
23317SOL    HW118790   9.569  13.731   2.270
23317SOL    HW218791   9.413  13.780   2.261
23318SOL     OW18792  14.806  10.420   0.792
23318SOL    HW118793  14.729  10.376   0.838
23318SOL    HW218794  14.871  10.453   0.861
23319SOL     OW18795   4.001   6.350   1.165
23319SOL    HW118796   4.082   6.400   1.138
23319SOL    HW218797   3.959   6.393   1.245
23320SOL     OW18798  15.885  11.718   0.991
23320SOL    HW118799  15.871  11.799   1.049
23320SOL    HW218800  15.846  11.735   0.900
23321SOL     OW18801   9.117   3.871   0.183
23321SOL    HW118802   9.175   3.794   0.158
23321SOL    HW218803   9.082   3.914   0.100
23322SOL     OW18804   1.057   9.825   0.034
23322SOL    HW118805   0.984   9.770   8.446
23322SOL    HW218806   1.022   9.867   0.118
23323SOL     OW18807   2.589   8.230   0.842
23323SOL    HW118808   2.652   8.274   0.778
23323SOL    HW218809   2.552   8.299   0.905
23324SOL     OW18810   7.291  16.116   1.073
23324SOL    HW118811   7.343  16.152   0.996
23324SOL    HW218812   7.350  16.107   1.152
23325SOL     OW18813   2.346  14.494   1.374
23325SOL    HW118814   2.251  14.464   1.379
23325SOL    HW218815   2.399  14.449   1.446
23326SOL     OW18816  13.603   9.668   7.651
23326SOL    HW118817  13.532   9.737   7.660
23326SOL    HW218818  13.654   9.661   7.737
23327SOL     OW18819   5.071   8.845   1.244
23327SOL    HW118820   5.157   8.846   1.295
23327SOL    HW218821   5.089   8.828   1.147
23328SOL     OW18822  12.276   2.035   0.800
23328SOL    HW118823  12.214   2.099   0.753
23328SOL    HW218824  12.333   1.989   0.732
23329SOL     OW18825   3.651   6.026   7.332
23329SOL    HW118826   3.704   5.944   7.309
23329SOL    HW218827   3.631   6.077   7.248
23330SOL     OW18828   0.688  16.530   7.697
23330SOL    HW118829   0.767  16.564   7.747
23330SOL    HW218830   0.639  16.606   7.655
23331SOL     OW18831  13.997   7.519   8.422
23331SOL    HW118832  14.053   7.472   0.037
23331SOL    HW218833  14.042   7.514   8.333
23332SOL     OW18834  14.255  13.992   0.588
23332SOL    HW118835  14.274  13.894   0.594
23332SOL    HW218836  14.162  14.006   0.555
23333SOL     OW18837  15.452   6.981   1.860
23333SOL    HW118838  15.509   7.063   1.871
23333SOL    HW218839  15.366   6.994   1.909
23334SOL     OW18840   3.955  12.601   1.927
23334SOL    HW118841   3.868  12.607   1.974
23334SOL    HW218842   4.023  12.658   1.974
23335SOL     OW18843  13.192   3.586   6.177
23335SOL    HW118844  13.241   3.673   6.177
23335SOL    HW218845  13.254   3.513   6.204
23336SOL     OW18846  13.428  11.896   7.556
23336SOL    HW118847  13.452  11.950   7.637
23336SOL    HW218848  13.338  11.854   7.570
23337SOL     OW18849  12.526  14.746   0.176
23337SOL    HW118850  12.525  14.804   0.094
23337SOL    HW218851  12.473  14.663   0.158
23338SOL     OW18852  11.549   1.786   0.273
23338SOL    HW118853  11.489   1.864   0.256
23338SOL    HW218854  11.621   1.814   0.337
23339SOL     OW18855  11.424   6.728   7.559
23339SOL    HW118856  11.507   6.720   7.616
23339SOL    HW218857  11.353   6.776   7.611
23340SOL     OW18858  14.550  10.150   8.100
23340SOL    HW118859  14.529  10.167   8.196
23340SOL    HW218860  14.497  10.071   8.068
23341SOL     OW18861   1.946   8.533   0.404
23341SOL    HW118862   1.998   8.560   0.322
23341SOL    HW218863   2.006   8.534   0.483
23342SOL     OW18864  11.030   5.440   0.832
23342SOL    HW118865  10.957   5.491   0.876
23342SOL    HW218866  11.101   5.503   0.801
23343SOL     OW18867   0.027  16.874   8.323
23343SOL    HW118868  16.933  16.903   8.267
23343SOL    HW218869  16.977  16.833   8.408
23344SOL     OW18870  15.022   9.574   8.051
23344SOL    HW118871  15.001   9.570   8.149
23344SOL    HW218872  15.010   9.483   8.011
23345SOL     OW18873   5.408   4.471   0.373
23345SOL    HW118874   5.355   4.519   0.442
23345SOL    HW218875   5.506   4.484   0.391
23346SOL     OW18876   5.583   7.428   0.585
23346SOL    HW118877   5.499   7.406   0.535
23346SOL    HW218878   5.620   7.345   0.627
23347SOL     OW18879   3.522   1.615   7.858
23347SOL    HW118880   3.587   1.687   7.883
23347SOL    HW218881   3.571   1.536   7.823
23348SOL     OW18882  14.889   5.042   1.742
23348SOL    HW118883  14.824   5.068   1.671
23348SOL    HW218884  14.973   5.094   1.730
23349SOL     OW18885   3.021   7.903   0.083
23349SOL    HW118886   2.956   7.849   0.030
23349SOL    HW218887   3.107   7.913   0.032
23350SOL     OW18888   7.338  12.687   7.817
23350SOL    HW118889   7.287  12.742   7.883
23350SOL    HW218890   7.342  12.735   7.730
23351SOL     OW18891   1.476  15.440   6.368
23351SOL    HW118892   1.479  15.534   6.402
23351SOL    HW218893   1.558  15.392   6.396
23352SOL     OW18894   7.826  12.125   0.760
23352SOL    HW118895   7.861  12.192   0.695
23352SOL    HW218896   7.850  12.152   0.853
23353SOL     OW18897  10.500   9.854   1.072
23353SOL    HW118898  10.504   9.952   1.051
23353SOL    HW218899  10.540   9.838   1.162
23354SOL     OW18900   9.422  13.723   7.578
23354SOL    HW118901   9.421  13.793   7.650
23354SOL    HW218902   9.448  13.766   7.492
23355SOL     OW18903   8.058   2.584   7.061
23355SOL    HW118904   8.149   2.614   7.091
23355SOL    HW218905   7.988   2.634   7.112
23356SOL     OW18906  16.699   4.371   8.345
23356SOL    HW118907  16.693   4.427   8.262
23356SOL    HW218908  16.609   4.365   8.387
23357SOL     OW18909  10.274  13.189   0.618
23357SOL    HW118910  10.245  13.176   0.524
23357SOL    HW218911  10.295  13.101   0.660
23358SOL     OW18912   8.196   5.649   7.104
23358SOL    HW118913   8.197   5.697   7.016
23358SOL    HW218914   8.232   5.708   7.175
23359SOL     OW18915   8.043   3.149   7.377
23359SOL    HW118916   8.093   3.077   7.425
23359SOL    HW218917   7.948   3.151   7.408
23360SOL     OW18918   5.745   6.514   2.107
23360SOL    HW118919   5.739   6.481   2.201
23360SOL    HW218920   5.772   6.439   2.047
23361SOL     OW18921  15.805  11.928   1.150
23361SOL    HW118922  15.730  11.864   1.168
23361SOL    HW218923  15.810  11.995   1.224
23362SOL     OW18924   1.818   3.298   6.988
23362SOL    HW118925   1.900   3.339   6.947
23362SOL    HW218926   1.845   3.241   7.066
23363SOL     OW18927  14.764   4.441   0.381
23363SOL    HW118928  14.694   4.443   0.309
23363SOL    HW218929  14.838   4.504   0.357
23364SOL     OW18930  12.133   0.122   7.952
23364SOL    HW118931  12.090   0.066   7.881
23364SOL    HW218932  12.139   0.069   8.037
23365SOL     OW18933  14.573  10.945   7.505
23365SOL    HW118934  14.518  10.997   7.439
23365SOL    HW218935  14.663  10.988   7.513
23366SOL     OW18936  11.005  16.603   7.915
23366SOL    HW118937  11.002  16.512   7.873
23366SOL    HW218938  10.985  16.595   8.013
23367SOL     OW18939  14.274   4.782   1.710
23367SOL    HW118940  14.180   4.817   1.706
23367SOL    HW218941  14.275   4.695   1.758
23368SOL     OW18942   0.335  10.720   7.638
23368SOL    HW118943   0.336  10.815   7.606
23368SOL    HW218944   0.426  10.695   7.670
23369SOL     OW18945   2.137  11.160   1.828
23369SOL    HW118946   2.146  11.242   1.884
23369SOL    HW218947   2.042  11.150   1.798
23370SOL     OW18948   6.165   5.697   7.420
23370SOL    HW118949   6.147   5.687   7.518
23370SOL    HW218950   6.078   5.707   7.372
23371SOL     OW18951  10.756  12.087   0.231
23371SOL    HW118952  10.703  12.141   0.165
23371SOL    HW218953  10.842  12.057   0.188
23372SOL     OW18954  11.798   4.428   8.332
23372SOL    HW118955  11.865   4.417   8.405
23372SOL    HW218956  11.814   4.514   8.285
23373SOL     OW18957   8.945   7.983   7.507
23373SOL    HW118958   8.889   8.064   7.518
23373SOL    HW218959   8.923   7.938   7.420
23374SOL     OW18960   3.647   1.929   1.399
23374SOL    HW118961   3.746   1.940   1.394
23374SOL    HW218962   3.624   1.854   1.461
23375SOL     OW18963   4.757   3.926   0.561
23375SOL    HW118964   4.848   3.908   0.600
23375SOL    HW218965   4.746   3.871   0.478
23376SOL     OW18966   7.145  12.828   8.360
23376SOL    HW118967   7.179  12.823   8.454
23376SOL    HW218968   7.191  12.902   8.312
23377SOL     OW18969  16.222   7.060   0.620
23377SOL    HW118970  16.147   7.061   0.554
23377SOL    HW218971  16.231   6.969   0.660
23378SOL     OW18972   0.433  14.890   2.504
23378SOL    HW118973   0.366  14.827   2.543
23378SOL    HW218974   0.390  14.979   2.488
23379SOL     OW18975  14.841   2.972   0.563
23379SOL    HW118976  14.894   3.041   0.512
23379SOL    HW218977  14.794   2.913   0.498
23380SOL     OW18978   9.410  16.733   6.660
23380SOL    HW118979   9.495  16.729   6.607
23380SOL    HW218980   9.386  16.829   6.677
23381SOL     OW18981   1.064   4.934   1.398
23381SOL    HW118982   1.130   4.893   1.335
23381SOL    HW218983   1.049   4.873   1.475
23382SOL     OW18984   0.998   0.214   6.439
23382SOL    HW118985   1.082   0.223   6.384
23382SOL    HW218986   0.923   0.261   6.392
23383SOL     OW18987   4.256   2.387   7.563
23383SOL    HW118988   4.248   2.481   7.594
23383SOL    HW218989   4.350   2.369   7.534
23384SOL     OW18990   9.382   5.897   7.588
23384SOL    HW118991   9.404   5.883   7.684
23384SOL    HW218992   9.467   5.905   7.535
23385SOL     OW18993  15.988   4.971   0.162
23385SOL    HW118994  16.076   5.019   0.167
23385SOL    HW218995  15.991   4.890   0.220
23386SOL     OW18996  11.130  13.003   0.264
23386SOL    HW118997  11.039  13.011   0.303
23386SOL    HW218998  11.144  13.075   0.196
23387SOL     OW18999   1.186  10.571   2.251
23387SOL    HW119000   1.211  10.489   2.303
23387SOL    HW219001   1.131  10.632   2.309
23388SOL     OW19002  14.075  14.631   7.964
23388SOL    HW119003  14.168  14.599   7.980
23388SOL    HW219004  14.075  14.698   7.890
23389SOL     OW19005   5.754  14.441   8.133
23389SOL    HW119006   5.849  14.414   8.120
23389SOL    HW219007   5.695  14.381   8.078
23390SOL     OW19008   5.792   2.483   0.252
23390SOL    HW119009   5.727   2.496   0.177
23390SOL    HW219010   5.846   2.567   0.264
23391SOL     OW19011   7.134   1.603   8.184
23391SOL    HW119012   7.094   1.688   8.219
23391SOL    HW219013   7.065   1.530   8.188
23392SOL     OW19014   0.633   1.746   7.052
23392SOL    HW119015   0.682   1.793   7.125
23392SOL    HW219016   0.669   1.653   7.043
23393SOL     OW19017  10.990  13.568   0.442
23393SOL    HW119018  11.046  13.646   0.471
23393SOL    HW219019  10.935  13.535   0.518
23394SOL     OW19020   4.738   3.768   0.340
23394SOL    HW119021   4.699   3.682   0.373
23394SOL    HW219022   4.685   3.801   0.262
23395SOL     OW19023  11.972   6.961   8.365
23395SOL    HW119024  12.040   6.895   8.397
23395SOL    HW219025  12.010   7.053   8.371
23396SOL     OW19026   7.149   7.947   7.934
23396SOL    HW119027   7.194   8.014   7.874
23396SOL    HW219028   7.052   7.969   7.941
23397SOL     OW19029   0.364   9.235   1.422
23397SOL    HW119030   0.361   9.310   1.356
23397SOL    HW219031   0.273   9.194   1.430
23398SOL     OW19032  10.108  16.388   0.494
23398SOL    HW119033  10.033  16.437   0.539
23398SOL    HW219034  10.143  16.443   0.418
23399SOL     OW19035   4.681   0.142   7.845
23399SOL    HW119036   4.670   0.113   7.750
23399SOL    HW219037   4.778   0.156   7.864
23400SOL     OW19038   3.913   8.244   0.732
23400SOL    HW119039   3.851   8.170   0.709
23400SOL    HW219040   3.863   8.331   0.732
23401SOL     OW19041  10.949   5.191   0.918
23401SOL    HW119042  10.879   5.199   0.989
23401SOL    HW219043  10.977   5.283   0.888
23402SOL     OW19044  14.918   7.450   7.417
23402SOL    HW119045  14.866   7.398   7.486
23402SOL    HW219046  14.900   7.411   7.327
23403SOL     OW19047   4.691   1.652   0.448
23403SOL    HW119048   4.708   1.610   0.537
23403SOL    HW219049   4.712   1.586   0.376
23404SOL     OW19050   8.885   7.263   6.915
23404SOL    HW119051   8.913   7.189   6.852
23404SOL    HW219052   8.804   7.308   6.879
23405SOL     OW19053   1.645  12.624   8.045
23405SOL    HW119054   1.676  12.641   7.952
23405SOL    HW219055   1.657  12.527   8.067
23406SOL     OW19056  13.252   5.171   6.475
23406SOL    HW119057  13.284   5.208   6.562
23406SOL    HW219058  13.160   5.133   6.487
23407SOL     OW19059  14.461  14.123   0.469
23407SOL    HW119060  14.544  14.098   0.519
23407SOL    HW219061  14.381  14.084   0.515
23408SOL     OW19062   4.602   4.087   1.229
23408SOL    HW119063   4.580   4.184   1.229
23408SOL    HW219064   4.523   4.035   1.197
23409SOL     OW19065   9.833   4.034   1.233
23409SOL    HW119066   9.866   4.041   1.139
23409SOL    HW219067   9.779   4.116   1.255
23410SOL     OW19068   8.336   0.318   5.955
23410SOL    HW119069   8.310   0.409   5.921
23410SOL    HW219070   8.295   0.248   5.897
23411SOL     OW19071  14.666   3.456   0.310
23411SOL    HW119072  14.632   3.452   0.404
23411SOL    HW219073  14.726   3.535   0.299
23412SOL     OW19074   7.828   6.895   7.166
23412SOL    HW119075   7.869   6.923   7.252
23412SOL    HW219076   7.898   6.892   7.094
23413SOL     OW19077   0.547  13.826   7.911
23413SOL    HW119078   0.633  13.780   7.886
23413SOL    HW219079   0.483  13.821   7.835
23414SOL     OW19080   3.523   1.674   7.572
23414SOL    HW119081   3.494   1.662   7.667
23414SOL    HW219082   3.549   1.586   7.533
23415SOL     OW19083  10.980  16.982   0.571
23415SOL    HW119084  11.065   0.051   0.569
23415SOL    HW219085  10.926   0.018   0.488
23416SOL     OW19086   3.804  13.756   8.162
23416SOL    HW119087   3.755  13.724   8.243
23416SOL    HW219088   3.738  13.792   8.095
23417SOL     OW19089   1.037   9.544   0.219
23417SOL    HW119090   1.090   9.617   0.262
23417SOL    HW219091   1.058   9.540   0.122
23418SOL     OW19092  15.839   3.950   5.992
23418SOL    HW119093  15.865   3.959   5.896
23418SOL    HW219094  15.742   3.972   6.003
23419SOL     OW19095  13.977   2.979   7.783
23419SOL    HW119096  14.004   3.019   7.695
23419SOL    HW219097  14.019   2.889   7.793
23420SOL     OW19098   2.306   8.385   1.207
23420SOL    HW119099   2.222   8.433   1.179
23420SOL    HW219100   2.282   8.293   1.239
23421SOL     OW19101   8.324   2.139   1.681
23421SOL    HW119102   8.306   2.077   1.605
23421SOL    HW219103   8.303   2.092   1.767
23422SOL     OW19104  15.080   6.542   6.321
23422SOL    HW119105  15.101   6.445   6.331
23422SOL    HW219106  15.120   6.576   6.236
23423SOL     OW19107   9.628  15.145   8.093
23423SOL    HW119108   9.724  15.118   8.093
23423SOL    HW219109   9.586  15.120   8.006
23424SOL     OW19110   1.582  15.422   7.404
23424SOL    HW119111   1.515  15.358   7.440
23424SOL    HW219112   1.664  15.373   7.376
23425SOL     OW19113  11.937   3.573   6.689
23425SOL    HW119114  11.944   3.645   6.620
23425SOL    HW219115  11.841   3.552   6.707
23426SOL     OW19116  11.846  15.504   6.382
23426SOL    HW119117  11.924  15.533   6.328
23426SOL    HW219118  11.836  15.405   6.377
23427SOL     OW19119   4.537   4.511   6.550
23427SOL    HW119120   4.517   4.487   6.455
23427SOL    HW219121   4.634   4.532   6.560
23428SOL     OW19122   1.064   8.367   7.485
23428SOL    HW119123   1.013   8.295   7.532
23428SOL    HW219124   1.020   8.388   7.398
23429SOL     OW19125  11.214   9.268   0.717
23429SOL    HW119126  11.299   9.302   0.756
23429SOL    HW219127  11.138   9.327   0.744
23430SOL     OW19128   9.665   7.086   0.526
23430SOL    HW119129   9.583   7.037   0.553
23430SOL    HW219130   9.740   7.063   0.588
23431SOL     OW19131   9.023   2.278   0.823
23431SOL    HW119132   9.103   2.281   0.764
23431SOL    HW219133   8.991   2.184   0.832
23432SOL     OW19134  11.701  11.922   7.094
23432SOL    HW119135  11.782  11.962   7.138
23432SOL    HW219136  11.657  11.859   7.158
23433SOL     OW19137   7.110   6.038   1.047
23433SOL    HW119138   7.040   6.031   1.118
23433SOL    HW219139   7.069   6.022   0.957
23434SOL     OW19140  12.931  15.340   0.811
23434SOL    HW119141  12.883  15.426   0.793
23434SOL    HW219142  12.902  15.304   0.900
23435SOL     OW19143  15.836   9.809   8.089
23435SOL    HW119144  15.887   9.887   8.054
23435SOL    HW219145  15.742   9.837   8.108
23436SOL     OW19146   9.444  12.377   7.467
23436SOL    HW119147   9.495  12.423   7.395
23436SOL    HW219148   9.351  12.359   7.436
23437SOL     OW19149   9.709  14.214   0.415
23437SOL    HW119150   9.697  14.198   0.317
23437SOL    HW219151   9.780  14.283   0.429
23438SOL     OW19152   5.283   9.099   7.291
23438SOL    HW119153   5.272   9.198   7.282
23438SOL    HW219154   5.375   9.072   7.262
23439SOL     OW19155   8.875  16.034   0.400
23439SOL    HW119156   8.859  15.952   0.344
23439SOL    HW219157   8.863  16.116   0.344
23440SOL     OW19158   4.952  10.321   2.245
23440SOL    HW119159   4.959  10.390   2.317
23440SOL    HW219160   4.938  10.231   2.286
23441SOL     OW19161   3.306   3.133   0.112
23441SOL    HW119162   3.277   3.039   0.091
23441SOL    HW219163   3.404   3.134   0.131
23442SOL     OW19164   6.097  13.595   6.001
23442SOL    HW119165   5.998  13.593   5.987
23442SOL    HW219166   6.133  13.502   5.992
23443SOL     OW19167  14.793  11.219   6.620
23443SOL    HW119168  14.840  11.182   6.699
23443SOL    HW219169  14.840  11.191   6.536
23444SOL     OW19170   5.727   4.386   6.684
23444SOL    HW119171   5.674   4.347   6.759
23444SOL    HW219172   5.781   4.314   6.640
23445SOL     OW19173  11.075   4.627   7.127
23445SOL    HW119174  11.109   4.554   7.187
23445SOL    HW219175  11.133   4.707   7.135
23446SOL     OW19176  10.899   6.300   7.915
23446SOL    HW119177  10.799   6.299   7.912
23446SOL    HW219178  10.936   6.273   7.825
23447SOL     OW19179   6.333   0.765   0.098
23447SOL    HW119180   6.383   0.776   0.012
23447SOL    HW219181   6.235   0.760   0.080
23448SOL     OW19182   8.113   8.074   7.208
23448SOL    HW119183   8.114   7.988   7.259
23448SOL    HW219184   8.203   8.089   7.167
23449SOL     OW19185   1.852  10.847   7.733
23449SOL    HW119186   1.862  10.766   7.676
23449SOL    HW219187   1.827  10.925   7.676
23450SOL     OW19188   6.697   7.016   6.444
23450SOL    HW119189   6.628   7.041   6.377
23450SOL    HW219190   6.762   6.952   6.402
23451SOL     OW19191  12.669   2.421   1.903
23451SOL    HW119192  12.668   2.321   1.907
23451SOL    HW219193  12.665   2.450   1.807
23452SOL     OW19194   2.864  11.456   6.693
23452SOL    HW119195   2.859  11.356   6.692
23452SOL    HW219196   2.815  11.492   6.613
23453SOL     OW19197   6.885  16.522   1.300
23453SOL    HW119198   6.857  16.592   1.235
23453SOL    HW219199   6.851  16.433   1.269
23454SOL     OW19200   3.989  10.331   0.395
23454SOL    HW119201   4.003  10.404   0.462
23454SOL    HW219202   3.923  10.265   0.431
23455SOL     OW19203   6.630   1.487   7.499
23455SOL    HW119204   6.615   1.416   7.569
23455SOL    HW219205   6.725   1.484   7.469
23456SOL     OW19206   9.266  16.221   2.133
23456SOL    HW119207   9.339  16.284   2.159
23456SOL    HW219208   9.236  16.169   2.214
23457SOL     OW19209  15.001  11.204   7.276
23457SOL    HW119210  14.964  11.111   7.273
23457SOL    HW219211  15.098  11.200   7.298
23458SOL     OW19212   9.038   5.575   7.181
23458SOL    HW119213   8.987   5.611   7.102
23458SOL    HW219214   9.074   5.485   7.158
23459SOL     OW19215  13.355  13.060   2.145
23459SOL    HW119216  13.272  13.116   2.140
23459SOL    HW219217  13.396  13.070   2.235
23460SOL     OW19218   2.234   8.879   1.749
23460SOL    HW119219   2.256   8.895   1.845
23460SOL    HW219220   2.175   8.799   1.741
23461SOL     OW19221   3.060   7.046   7.013
23461SOL    HW119222   3.055   7.138   6.975
23461SOL    HW219223   2.981   6.993   6.981
23462SOL     OW19224   3.626  13.001   1.180
23462SOL    HW119225   3.722  13.027   1.169
23462SOL    HW219226   3.567  13.076   1.149
23463SOL     OW19227   0.400   3.554   0.410
23463SOL    HW119228   0.417   3.613   0.490
23463SOL    HW219229   0.431   3.601   0.327
23464SOL     OW19230   7.243  16.370   0.517
23464SOL    HW119231   7.291  16.322   0.444
23464SOL    HW219232   7.232  16.310   0.596
23465SOL     OW19233  13.449   3.827   6.507
23465SOL    HW119234  13.479   3.840   6.602
23465SOL    HW219235  13.370   3.765   6.506
23466SOL     OW19236   0.457  10.692   2.211
23466SOL    HW119237   0.385  10.668   2.276
23466SOL    HW219238   0.529  10.742   2.259
23467SOL     OW19239  10.680  11.671   0.908
23467SOL    HW119240  10.588  11.702   0.931
23467SOL    HW219241  10.732  11.655   0.993
23468SOL     OW19242  12.591   0.625   0.103
23468SOL    HW119243  12.661   0.654   0.168
23468SOL    HW219244  12.587   0.690   0.027
23469SOL     OW19245   3.308   1.398   7.248
23469SOL    HW119246   3.255   1.331   7.196
23469SOL    HW219247   3.332   1.359   7.337
23470SOL     OW19248   6.526  11.295   1.905
23470SOL    HW119249   6.554  11.378   1.953
23470SOL    HW219250   6.531  11.217   1.967
23471SOL     OW19251  13.330  10.211   0.769
23471SOL    HW119252  13.429  10.199   0.757
23471SOL    HW219253  13.310  10.309   0.778
23472SOL     OW19254   0.067   0.802   1.117
23472SOL    HW119255   0.065   0.821   1.215
23472SOL    HW219256   0.007   0.867   1.070
23473SOL     OW19257   4.463   4.790   7.046
23473SOL    HW119258   4.505   4.881   7.044
23473SOL    HW219259   4.387   4.787   6.982
23474SOL     OW19260   0.275   1.229   1.428
23474SOL    HW119261   0.241   1.299   1.366
23474SOL    HW219262   0.261   1.259   1.523
23475SOL     OW19263  15.586   0.039   7.154
23475SOL    HW119264  15.638   0.006   7.075
23475SOL    HW219265  15.513  16.958   7.176
23476SOL     OW19266   1.055  16.556   0.158
23476SOL    HW119267   1.080  16.640   0.109
23476SOL    HW219268   1.071  16.569   0.256
23477SOL     OW19269  13.896   6.639   7.553
23477SOL    HW119270  13.952   6.623   7.472
23477SOL    HW219271  13.901   6.559   7.613
23478SOL     OW19272   9.661   4.237   1.280
23478SOL    HW119273   9.653   4.336   1.265
23478SOL    HW219274   9.612   4.212   1.364
23479SOL     OW19275   1.693  10.344   1.357
23479SOL    HW119276   1.668  10.270   1.294
23479SOL    HW219277   1.791  10.363   1.349
23480SOL     OW19278  14.459   3.581   7.949
23480SOL    HW119279  14.405   3.609   8.028
23480SOL    HW219280  14.431   3.633   7.869
23481SOL     OW19281  10.276   3.164   0.723
23481SOL    HW119282  10.297   3.251   0.678
23481SOL    HW219283  10.283   3.090   0.657
23482SOL     OW19284   9.487  11.497   7.279
23482SOL    HW119285   9.526  11.587   7.297
23482SOL    HW219286   9.441  11.498   7.190
23483SOL     OW19287  10.628   4.897   1.511
23483SOL    HW119288  10.727   4.885   1.523
23483SOL    HW219289  10.609   4.991   1.484
23484SOL     OW19290  10.510  10.791   7.015
23484SOL    HW119291  10.416  10.809   6.986
23484SOL    HW219292  10.538  10.701   6.982
23485SOL     OW19293   7.371   8.719   0.852
23485SOL    HW119294   7.463   8.696   0.885
23485SOL    HW219295   7.379   8.771   0.767
23486SOL     OW19296  14.699  14.854   8.101
23486SOL    HW119297  14.773  14.817   8.157
23486SOL    HW219298  14.706  14.818   8.008
23487SOL     OW19299  16.743  11.677   6.864
23487SOL    HW119300  16.724  11.579   6.862
23487SOL    HW219301  16.758  11.710   6.771
23488SOL     OW19302   9.466   0.612   7.130
23488SOL    HW119303   9.439   0.708   7.137
23488SOL    HW219304   9.385   0.555   7.115
23489SOL     OW19305   6.952  16.885   1.732
23489SOL    HW119306   6.918  16.926   1.817
23489SOL    HW219307   6.904  16.924   1.654
23490SOL     OW19308  10.875   7.090   7.093
23490SOL    HW119309  10.903   6.995   7.074
23490SOL    HW219310  10.955   7.142   7.123
23491SOL     OW19311  10.575   7.382   7.162
23491SOL    HW119312  10.522   7.321   7.220
23491SOL    HW219313  10.576   7.347   7.069
23492SOL     OW19314   0.971   6.123   0.687
23492SOL    HW119315   0.885   6.174   0.673
23492SOL    HW219316   0.951   6.040   0.738
23493SOL     OW19317   8.470   4.046   8.312
23493SOL    HW119318   8.484   3.995   8.227
23493SOL    HW219319   8.437   3.984   8.383
23494SOL     OW19320   9.533   1.491   7.982
23494SOL    HW119321   9.452   1.533   8.022
23494SOL    HW219322   9.525   1.391   7.988
23495SOL     OW19323  13.887  14.636   0.227
23495SOL    HW119324  13.916  14.596   0.314
23495SOL    HW219325  13.808  14.585   0.192
23496SOL     OW19326   9.435   2.236   0.002
23496SOL    HW119327   9.399   2.325   8.429
23496SOL    HW219328   9.364   2.184   0.050
23497SOL     OW19329  15.161   4.667   6.194
23497SOL    HW119330  15.168   4.673   6.095
23497SOL    HW219331  15.069   4.636   6.220
23498SOL     OW19332   9.570   3.056   6.564
23498SOL    HW119333   9.613   3.104   6.641
23498SOL    HW219334   9.562   2.959   6.587
23499SOL     OW19335  11.760   0.327   7.664
23499SOL    HW119336  11.755   0.228   7.673
23499SOL    HW219337  11.854   0.353   7.639
23500SOL     OW19338   3.117  10.749   2.096
23500SOL    HW119339   3.052  10.718   2.026
23500SOL    HW219340   3.076  10.823   2.150
23501SOL     OW19341  15.279   8.076   7.596
23501SOL    HW119342  15.225   8.007   7.547
23501SOL    HW219343  15.274   8.058   7.694
23502SOL     OW19344  11.067  11.265   2.462
23502SOL    HW119345  11.126  11.210   2.522
23502SOL    HW219346  11.079  11.362   2.484
23503SOL     OW19347  14.484   7.098   8.149
23503SOL    HW119348  14.442   7.050   8.226
23503SOL    HW219349  14.425   7.173   8.120
23504SOL     OW19350  11.079  11.661   7.007
23504SOL    HW119351  11.122  11.730   6.950
23504SOL    HW219352  11.121  11.572   6.990
23505SOL     OW19353   2.320   3.768   7.019
23505SOL    HW119354   2.297   3.707   6.944
23505SOL    HW219355   2.244   3.771   7.084
23506SOL     OW19356   0.593  13.274   0.018
23506SOL    HW119357   0.524  13.253   8.403
23506SOL    HW219358   0.632  13.189   0.053
23507SOL     OW19359   4.004  10.666   1.240
23507SOL    HW119360   3.939  10.684   1.315
23507SOL    HW219361   3.953  10.643   1.158
23508SOL     OW19362   6.255   1.524   8.156
23508SOL    HW119363   6.253   1.507   8.255
23508SOL    HW219364   6.220   1.445   8.107
23509SOL     OW19365  13.171   5.192   6.057
23509SOL    HW119366  13.233   5.239   6.120
23509SOL    HW219367  13.201   5.097   6.047
23510SOL     OW19368  10.790   2.319   8.133
23510SOL    HW119369  10.836   2.399   8.173
23510SOL    HW219370  10.710   2.295   8.188
23511SOL     OW19371   0.010   4.055   7.365
23511SOL    HW119372   0.093   4.008   7.334
23511SOL    HW219373  16.959   4.010   7.448
23512SOL     OW19374   9.522   1.552   7.077
23512SOL    HW119375   9.594   1.605   7.031
23512SOL    HW219376   9.456   1.521   7.010
23513SOL     OW19377  11.581   7.449   7.649
23513SOL    HW119378  11.660   7.459   7.709
23513SOL    HW219379  11.610   7.406   7.563
23514SOL     OW19380   1.817   3.905   0.374
23514SOL    HW119381   1.851   3.958   0.295
23514SOL    HW219382   1.731   3.861   0.350
23515SOL     OW19383   5.722  14.199   0.430
23515SOL    HW119384   5.722  14.204   0.530
23515SOL    HW219385   5.796  14.255   0.394
23516SOL     OW19386  10.705   9.500   8.308
23516SOL    HW119387  10.734   9.464   8.219
23516SOL    HW219388  10.678   9.425   8.368
23517SOL     OW19389   0.799   6.168   8.317
23517SOL    HW119390   0.873   6.132   8.373
23517SOL    HW219391   0.762   6.251   8.359
23518SOL     OW19392  16.783   1.714   6.335
23518SOL    HW119393  16.874   1.750   6.319
23518SOL    HW219394  16.718   1.761   6.275
23519SOL     OW19395   8.466  14.540   0.166
23519SOL    HW119396   8.439  14.462   0.223
23519SOL    HW219397   8.564  14.533   0.144
23520SOL     OW19398   6.209   4.874   8.410
23520SOL    HW119399   6.199   4.779   8.380
23520SOL    HW219400   6.274   4.921   8.350
23521SOL     OW19401  14.611   9.937   0.340
23521SOL    HW119402  14.620   9.838   0.350
23521SOL    HW219403  14.618   9.962   0.244
23522SOL     OW19404   8.456   5.350   2.437
23522SOL    HW119405   8.451   5.448   2.457
23522SOL    HW219406   8.527   5.309   2.495
23523SOL     OW19407  13.539  13.185   0.545
23523SOL    HW119408  13.466  13.244   0.511
23523SOL    HW219409  13.616  13.187   0.481
23524SOL     OW19410   9.061   2.351   6.509
23524SOL    HW119411   9.007   2.399   6.439
23524SOL    HW219412   9.109   2.274   6.467
23525SOL     OW19413  13.747   5.546   0.306
23525SOL    HW119414  13.794   5.502   0.230
23525SOL    HW219415  13.695   5.478   0.358
23526SOL     OW19416   5.973   1.203   1.857
23526SOL    HW119417   6.060   1.203   1.905
23526SOL    HW219418   5.949   1.296   1.831
23527SOL     OW19419  10.202  16.407   1.923
23527SOL    HW119420  10.139  16.334   1.948
23527SOL    HW219421  10.286  16.398   1.976
23528SOL     OW19422  16.841   4.163   8.030
23528SOL    HW119423  16.804   4.143   7.940
23528SOL    HW219424  16.869   4.259   8.034
23529SOL     OW19425   2.596   5.938   0.072
23529SOL    HW119426   2.602   5.841   0.047
23529SOL    HW219427   2.662   5.990   0.017
23530SOL     OW19428   9.210   0.297   6.262
23530SOL    HW119429   9.110   0.286   6.267
23530SOL    HW219430   9.236   0.326   6.170
23531SOL     OW19431   4.743   9.675   7.863
23531SOL    HW119432   4.833   9.633   7.873
23531SOL    HW219433   4.700   9.643   7.779
23532SOL     OW19434   8.342  13.858   8.090
23532SOL    HW119435   8.422  13.917   8.094
23532SOL    HW219436   8.259  13.913   8.099
23533SOL     OW19437   8.203   0.954   6.832
23533SOL    HW119438   8.284   0.900   6.809
23533SOL    HW219439   8.231   1.035   6.883
23534SOL     OW19440  13.228   5.679   7.269
23534SOL    HW119441  13.327   5.682   7.277
23534SOL    HW219442  13.187   5.744   7.333
23535SOL     OW19443   9.691   2.691   8.198
23535SOL    HW119444   9.639   2.608   8.178
23535SOL    HW219445   9.632   2.756   8.245
23536SOL     OW19446  13.320  14.753   8.142
23536SOL    HW119447  13.338  14.660   8.175
23536SOL    HW219448  13.266  14.803   8.210
23537SOL     OW19449  10.231   2.190   6.909
23537SOL    HW119450  10.297   2.265   6.910
23537SOL    HW219451  10.196   2.176   7.001
23538SOL     OW19452   0.431   6.966   0.696
23538SOL    HW119453   0.510   7.007   0.648
23538SOL    HW219454   0.348   6.986   0.644
23539SOL     OW19455  14.004   1.523   8.452
23539SOL    HW119456  13.973   1.511   8.357
23539SOL    HW219457  13.951   1.596   0.041
23540SOL     OW19458  14.781  13.423   0.662
23540SOL    HW119459  14.701  13.364   0.671
23540SOL    HW219460  14.752  13.516   0.640
23541SOL     OW19461  11.668  11.106   1.455
23541SOL    HW119462  11.739  11.037   1.466
23541SOL    HW219463  11.631  11.131   1.545
23542SOL     OW19464  14.231   3.691   6.413
23542SOL    HW119465  14.299   3.619   6.426
23542SOL    HW219466  14.147   3.666   6.462
23543SOL     OW19467   8.559  15.347   1.372
23543SOL    HW119468   8.508  15.308   1.448
23543SOL    HW219469   8.546  15.446   1.370
23544SOL     OW19470  12.134  16.312   7.723
23544SOL    HW119471  12.117  16.307   7.822
23544SOL    HW219472  12.181  16.398   7.703
23545SOL     OW19473   6.148   9.875   1.952
23545SOL    HW119474   6.152   9.968   1.989
23545SOL    HW219475   6.225   9.862   1.889
23546SOL     OW19476   9.141   2.601   1.162
23546SOL    HW119477   9.208   2.671   1.188
23546SOL    HW219478   9.057   2.614   1.214
23547SOL     OW19479   2.257   7.923   7.405
23547SOL    HW119480   2.232   7.862   7.480
23547SOL    HW219481   2.185   7.991   7.392
23548SOL     OW19482  13.790  13.127   1.282
23548SOL    HW119483  13.770  13.138   1.379
23548SOL    HW219484  13.767  13.211   1.233
23549SOL     OW19485  13.953   2.656   6.344
23549SOL    HW119486  13.896   2.647   6.426
23549SOL    HW219487  13.894   2.662   6.264
23550SOL     OW19488  14.500   2.817   1.463
23550SOL    HW119489  14.521   2.876   1.384
23550SOL    HW219490  14.556   2.845   1.541
23551SOL     OW19491   2.703   5.619   0.582
23551SOL    HW119492   2.730   5.551   0.650
23551SOL    HW219493   2.756   5.703   0.594
23552SOL     OW19494  15.866   0.406   6.968
23552SOL    HW119495  15.785   0.376   7.018
23552SOL    HW219496  15.921   0.326   6.943
23553SOL     OW19497   1.770   8.391   6.356
23553SOL    HW119498   1.788   8.293   6.367
23553SOL    HW219499   1.854   8.442   6.377
23554SOL     OW19500   6.813   3.705   0.569
23554SOL    HW119501   6.812   3.613   0.530
23554SOL    HW219502   6.762   3.767   0.510
23555SOL     OW19503   4.562   5.482   7.662
23555SOL    HW119504   4.605   5.405   7.709
23555SOL    HW219505   4.555   5.560   7.725
23556SOL     OW19506  14.660   6.447   7.261
23556SOL    HW119507  14.671   6.350   7.239
23556SOL    HW219508  14.591   6.488   7.201
23557SOL     OW19509   7.868  11.484   1.869
23557SOL    HW119510   7.943  11.446   1.922
23557SOL    HW219511   7.818  11.550   1.925
23558SOL     OW19512  12.907   1.714   0.293
23558SOL    HW119513  12.946   1.804   0.314
23558SOL    HW219514  12.878   1.712   0.197
23559SOL     OW19515   2.221  12.891   0.932
23559SOL    HW119516   2.205  12.850   1.022
23559SOL    HW219517   2.316  12.923   0.927
23560SOL     OW19518   4.790  13.237   0.522
23560SOL    HW119519   4.693  13.239   0.499
23560SOL    HW219520   4.820  13.142   0.533
23561SOL     OW19521   6.782  14.490   6.596
23561SOL    HW119522   6.746  14.529   6.512
23561SOL    HW219523   6.762  14.392   6.599
23562SOL     OW19524   5.370  13.122   1.433
23562SOL    HW119525   5.449  13.142   1.491
23562SOL    HW219526   5.334  13.032   1.455
23563SOL     OW19527   8.511  13.441   1.692
23563SOL    HW119528   8.591  13.414   1.638
23563SOL    HW219529   8.492  13.538   1.677
23564SOL     OW19530  16.666   5.541   7.880
23564SOL    HW119531  16.696   5.636   7.876
23564SOL    HW219532  16.572   5.537   7.914
23565SOL     OW19533   7.708   8.625   6.849
23565SOL    HW119534   7.751   8.544   6.810
23565SOL    HW219535   7.611   8.625   6.826
23566SOL     OW19536  16.246   3.000   0.667
23566SOL    HW119537  16.249   3.097   0.691
23566SOL    HW219538  16.231   2.946   0.749
23567SOL     OW19539  12.935  15.099   0.674
23567SOL    HW119540  12.950  15.188   0.716
23567SOL    HW219541  13.019  15.070   0.626
23568SOL     OW19542  10.078   6.652   7.451
23568SOL    HW119543  10.000   6.701   7.413
23568SOL    HW219544  10.056   6.622   7.544
23569SOL     OW19545  13.247   1.227   0.589
23569SOL    HW119546  13.186   1.306   0.584
23569SOL    HW219547  13.308   1.226   0.510
23570SOL     OW19548   6.581  11.507   2.059
23570SOL    HW119549   6.521  11.467   2.128
23570SOL    HW219550   6.649  11.565   2.103
23571SOL     OW19551   0.033   3.978   0.997
23571SOL    HW119552  16.921   3.974   0.968
23571SOL    HW219553   0.056   3.895   1.048
23572SOL     OW19554  13.021   6.871   6.896
23572SOL    HW119555  13.009   6.869   6.797
23572SOL    HW219556  13.086   6.801   6.924
23573SOL     OW19557   0.151   5.904   6.101
23573SOL    HW119558   0.219   5.920   6.173
23573SOL    HW219559   0.086   5.980   6.099
23574SOL     OW19560  16.133   8.321   7.406
23574SOL    HW119561  16.048   8.284   7.369
23574SOL    HW219562  16.173   8.255   7.470
23575SOL     OW19563  14.993   1.627   0.089
23575SOL    HW119564  14.975   1.542   0.039
23575SOL    HW219565  14.960   1.617   0.183
23576SOL     OW19566  13.394  16.717   7.774
23576SOL    HW119567  13.339  16.791   7.737
23576SOL    HW219568  13.350  16.630   7.757
23577SOL     OW19569   0.484   4.903   8.017
23577SOL    HW119570   0.410   4.970   8.030
23577SOL    HW219571   0.495   4.850   8.102
23578SOL     OW19572   1.880   4.605   6.648
23578SOL    HW119573   1.836   4.571   6.731
23578SOL    HW219574   1.812   4.619   6.577
23579SOL     OW19575   0.590   2.964   1.923
23579SOL    HW119576   0.547   2.919   2.002
23579SOL    HW219577   0.546   3.052   1.908
23580SOL     OW19578   2.900   8.149   7.411
23580SOL    HW119579   2.961   8.138   7.333
23580SOL    HW219580   2.856   8.239   7.407
23581SOL     OW19581   2.015   4.091   7.264
23581SOL    HW119582   2.107   4.059   7.243
23581SOL    HW219583   1.956   4.075   7.185
23582SOL     OW19584   4.176   4.900   0.485
23582SOL    HW119585   4.234   4.982   0.481
23582SOL    HW219586   4.230   4.823   0.518
23583SOL     OW19587  13.059   6.254   0.403
23583SOL    HW119588  13.043   6.163   0.364
23583SOL    HW219589  13.148   6.287   0.374
23584SOL     OW19590   7.241   8.692   7.852
23584SOL    HW119591   7.173   8.720   7.784
23584SOL    HW219592   7.291   8.613   7.818
23585SOL     OW19593   0.001  12.352   6.905
23585SOL    HW119594   0.094  12.362   6.869
23585SOL    HW219595  16.963  12.255   6.918
23586SOL     OW19596   2.979   8.017   1.044
23586SOL    HW119597   2.974   7.965   0.959
23586SOL    HW219598   2.957   8.113   1.026
23587SOL     OW19599   8.418  12.620   1.882
23587SOL    HW119600   8.505  12.620   1.833
23587SOL    HW219601   8.403  12.530   1.922
23588SOL     OW19602  14.576  12.330   7.626
23588SOL    HW119603  14.659  12.381   7.646
23588SOL    HW219604  14.545  12.282   7.708
23589SOL     OW19605   5.982   6.211   2.112
23589SOL    HW119606   5.920   6.157   2.170
23589SOL    HW219607   6.044   6.264   2.170
23590SOL     OW19608   9.015   3.254   6.327
23590SOL    HW119609   9.067   3.339   6.313
23590SOL    HW219610   9.038   3.188   6.256
23591SOL     OW19611  14.521   8.628   0.076
23591SOL    HW119612  14.460   8.656   0.150
23591SOL    HW219613  14.468   8.615   8.446
23592SOL     OW19614   5.141   9.465   8.223
23592SOL    HW119615   5.161   9.450   8.126
23592SOL    HW219616   5.109   9.380   8.264
23593SOL     OW19617  16.751  13.658   2.300
23593SOL    HW119618  16.710  13.575   2.337
23593SOL    HW219619  16.690  13.736   2.317
23594SOL     OW19620   5.899  10.332   0.816
23594SOL    HW119621   5.828  10.355   0.750
23594SOL    HW219622   5.863  10.339   0.909
23595SOL     OW19623   4.480   4.509   1.038
23595SOL    HW119624   4.415   4.482   0.967
23595SOL    HW219625   4.560   4.551   0.996
23596SOL     OW19626   2.697  13.872   2.691
23596SOL    HW119627   2.757  13.794   2.672
23596SOL    HW219628   2.683  13.880   2.790
23597SOL     OW19629   0.863  13.242   1.127
23597SOL    HW119630   0.764  13.241   1.117
23597SOL    HW219631   0.888  13.201   1.215
23598SOL     OW19632   2.707   7.898   7.635
23598SOL    HW119633   2.659   7.937   7.714
23598SOL    HW219634   2.800   7.934   7.632
23599SOL     OW19635   8.026  11.127   6.608
23599SOL    HW119636   7.958  11.054   6.608
23599SOL    HW219637   8.026  11.172   6.518
23600SOL     OW19638   8.195   1.929   0.399
23600SOL    HW119639   8.144   1.912   0.314
23600SOL    HW219640   8.160   1.870   0.471
23601SOL     OW19641   6.297   9.515   8.251
23601SOL    HW119642   6.310   9.596   8.193
23601SOL    HW219643   6.221   9.460   8.214
23602SOL     OW19644   3.795  13.426   1.632
23602SOL    HW119645   3.766  13.517   1.661
23602SOL    HW219646   3.846  13.432   1.547
23603SOL     OW19647  10.485   2.162   0.563
23603SOL    HW119648  10.504   2.126   0.472
23603SOL    HW219649  10.402   2.120   0.599
23604SOL     OW19650   2.023  16.926   8.100
23604SOL    HW119651   2.073  16.889   8.178
23604SOL    HW219652   2.088  16.965   8.035
23605SOL     OW19653   7.208   2.922   1.821
23605SOL    HW119654   7.280   2.980   1.782
23605SOL    HW219655   7.200   2.838   1.767
23606SOL     OW19656  11.951   3.814   5.760
23606SOL    HW119657  11.985   3.721   5.750
23606SOL    HW219658  11.986   3.870   5.685
23607SOL     OW19659  13.162   0.768   0.756
23607SOL    HW119660  13.224   0.746   0.831
23607SOL    HW219661  13.208   0.750   0.669
23608SOL     OW19662   9.667  13.939   1.192
23608SOL    HW119663   9.742  13.922   1.256
23608SOL    HW219664   9.615  13.855   1.179
23609SOL     OW19665  14.303   8.687   0.255
23609SOL    HW119666  14.214   8.675   0.210
23609SOL    HW219667  14.300   8.644   0.345
23610SOL     OW19668  14.211   7.734   0.918
23610SOL    HW119669  14.236   7.746   0.822
23610SOL    HW219670  14.113   7.749   0.929
23611SOL     OW19671  14.247   5.511   8.430
23611SOL    HW119672  14.274   5.516   8.334
23611SOL    HW219673  14.180   5.582   8.450
23612SOL     OW19674  14.697   9.574   1.644
23612SOL    HW119675  14.759   9.647   1.613
23612SOL    HW219676  14.667   9.520   1.566
23613SOL     OW19677   1.925   9.832   6.656
23613SOL    HW119678   1.886   9.846   6.565
23613SOL    HW219679   1.969   9.917   6.686
23614SOL     OW19680   2.057   0.610   2.047
23614SOL    HW119681   2.012   0.527   2.013
23614SOL    HW219682   2.104   0.588   2.133
23615SOL     OW19683   0.298  16.009   1.905
23615SOL    HW119684   0.279  16.077   1.834
23615SOL    HW219685   0.357  16.049   1.974
23616SOL     OW19686   0.330   0.732   1.055
23616SOL    HW119687   0.372   0.723   1.146
23616SOL    HW219688   0.236   0.766   1.066
23617SOL     OW19689   4.533  12.570   6.849
23617SOL    HW119690   4.502  12.566   6.754
23617SOL    HW219691   4.551  12.665   6.874
23618SOL     OW19692  15.795  15.064   0.647
23618SOL    HW119693  15.710  15.112   0.667
23618SOL    HW219694  15.825  15.087   0.554
23619SOL     OW19695   0.810   2.514   7.124
23619SOL    HW119696   0.802   2.445   7.196
23619SOL    HW219697   0.840   2.471   7.039
23620SOL     OW19698   7.768   3.176   7.432
23620SOL    HW119699   7.722   3.260   7.406
23620SOL    HW219700   7.734   3.145   7.521
23621SOL     OW19701   1.217  10.943   1.286
23621SOL    HW119702   1.284  10.875   1.258
23621SOL    HW219703   1.183  10.992   1.206
23622SOL     OW19704  15.766   9.425   0.320
23622SOL    HW119705  15.829   9.415   0.398
23622SOL    HW219706  15.765   9.521   0.291
23623SOL     OW19707   5.024   0.229   1.294
23623SOL    HW119708   5.067   0.320   1.290
23623SOL    HW219709   5.089   0.161   1.261
23624SOL     OW19710   6.184   9.062   1.360
23624SOL    HW119711   6.137   8.997   1.300
23624SOL    HW219712   6.116   9.117   1.409
23625SOL     OW19713   2.421   2.155   7.239
23625SOL    HW119714   2.489   2.169   7.166
23625SOL    HW219715   2.468   2.127   7.323
23626SOL     OW19716   6.687   1.398   5.941
23626SOL    HW119717   6.599   1.376   5.897
23626SOL    HW219718   6.757   1.409   5.871
23627SOL     OW19719   3.493   6.752   7.766
23627SOL    HW119720   3.435   6.767   7.846
23627SOL    HW219721   3.567   6.689   7.790
23628SOL     OW19722   5.054   8.201   2.082
23628SOL    HW119723   4.995   8.198   2.163
23628SOL    HW219724   5.149   8.188   2.109
23629SOL     OW19725   2.056  13.191   6.688
23629SOL    HW119726   2.142  13.241   6.694
23629SOL    HW219727   2.065  13.116   6.622
23630SOL     OW19728   5.729  10.980   7.769
23630SOL    HW119729   5.820  10.992   7.807
23630SOL    HW219730   5.698  11.067   7.730
23631SOL     OW19731   6.200   7.290   1.202
23631SOL    HW119732   6.275   7.355   1.214
23631SOL    HW219733   6.139   7.295   1.281
23632SOL     OW19734   0.500  14.118   7.530
23632SOL    HW119735   0.482  14.033   7.481
23632SOL    HW219736   0.417  14.148   7.577
23633SOL     OW19737   1.002  13.860   2.346
23633SOL    HW119738   0.925  13.858   2.409
23633SOL    HW219739   1.086  13.880   2.398
23634SOL     OW19740   6.131   7.010   0.835
23634SOL    HW119741   6.052   7.053   0.792
23634SOL    HW219742   6.101   6.936   0.895
23635SOL     OW19743   8.557   4.358   0.176
23635SOL    HW119744   8.534   4.451   0.206
23635SOL    HW219745   8.566   4.298   0.256
23636SOL     OW19746  16.051   7.053   0.392
23636SOL    HW119747  15.969   7.095   0.353
23636SOL    HW219748  16.132   7.095   0.351
23637SOL     OW19749  10.256  13.334   7.762
23637SOL    HW119750  10.207  13.421   7.766
23637SOL    HW219751  10.341  13.346   7.709
23638SOL     OW19752   8.242   3.730   7.371
23638SOL    HW119753   8.183   3.811   7.373
23638SOL    HW219754   8.207   3.665   7.305
23639SOL     OW19755   0.932  13.889   8.012
23639SOL    HW119756   0.969  13.832   8.085
23639SOL    HW219757   0.902  13.976   8.049
23640SOL     OW19758   1.449   7.235   8.212
23640SOL    HW119759   1.514   7.182   8.267
23640SOL    HW219760   1.494   7.318   8.178
23641SOL     OW19761  13.031   0.254   0.185
23641SOL    HW119762  13.010   0.350   0.204
23641SOL    HW219763  13.124   0.247   0.150
23642SOL     OW19764   1.521   5.851   0.764
23642SOL    HW119765   1.579   5.774   0.736
23642SOL    HW219766   1.480   5.831   0.853
23643SOL     OW19767  12.543  10.339   8.096
23643SOL    HW119768  12.634  10.369   8.067
23643SOL    HW219769  12.488  10.419   8.119
23644SOL     OW19770   9.594   5.709   6.492
23644SOL    HW119771   9.684   5.752   6.494
23644SOL    HW219772   9.604   5.613   6.468
23645SOL     OW19773  14.375  14.945   7.774
23645SOL    HW119774  14.454  14.918   7.719
23645SOL    HW219775  14.372  15.045   7.781
23646SOL     OW19776   3.261  11.897   0.196
23646SOL    HW119777   3.198  11.963   0.236
23646SOL    HW219778   3.272  11.917   0.098
23647SOL     OW19779  12.802   8.037   1.864
23647SOL    HW119780  12.887   8.015   1.817
23647SOL    HW219781  12.818   8.039   1.962
23648SOL     OW19782  15.826  15.461   0.013
23648SOL    HW119783  15.744  15.519   0.013
23648SOL    HW219784  15.802  15.369   0.044
23649SOL     OW19785  12.453   0.185   7.685
23649SOL    HW119786  12.374   0.241   7.710
23649SOL    HW219787  12.455   0.102   7.740
23650SOL     OW19788  10.119   7.349   0.015
23650SOL    HW119789  10.206   7.386   8.436
23650SOL    HW219790  10.069   7.308   8.392
23651SOL     OW19791   0.684   2.653   0.182
23651SOL    HW119792   0.769   2.611   0.215
23651SOL    HW219793   0.706   2.734   0.127
23652SOL     OW19794  16.399   9.219   8.117
23652SOL    HW119795  16.441   9.129   8.106
23652SOL    HW219796  16.371   9.230   8.213
23653SOL     OW19797  15.484   3.856   7.587
23653SOL    HW119798  15.450   3.792   7.656
23653SOL    HW219799  15.414   3.870   7.518
23654SOL     OW19800  13.175   7.968   6.725
23654SOL    HW119801  13.097   7.912   6.751
23654SOL    HW219802  13.228   7.992   6.806
23655SOL     OW19803   5.183  13.447   1.074
23655SOL    HW119804   5.255  13.515   1.057
23655SOL    HW219805   5.204  13.396   1.156
23656SOL     OW19806   6.812   0.153   6.397
23656SOL    HW119807   6.859   0.105   6.471
23656SOL    HW219808   6.752   0.223   6.436
23657SOL     OW19809  16.907   7.371   8.164
23657SOL    HW119810  16.917   7.323   8.251
23657SOL    HW219811  16.936   7.466   8.175
23658SOL     OW19812   1.640  15.554   0.488
23658SOL    HW119813   1.649  15.473   0.430
23658SOL    HW219814   1.547  15.559   0.524
23659SOL     OW19815  12.603   2.750   0.847
23659SOL    HW119816  12.566   2.831   0.803
23659SOL    HW219817  12.703   2.756   0.847
23660SOL     OW19818   6.552   5.530   8.292
23660SOL    HW119819   6.534   5.469   8.214
23660SOL    HW219820   6.572   5.622   8.258
23661SOL     OW19821   3.399  13.266   7.261
23661SOL    HW119822   3.495  13.242   7.243
23661SOL    HW219823   3.349  13.185   7.291
23662SOL     OW19824   8.209   9.485   0.512
23662SOL    HW119825   8.306   9.470   0.489
23662SOL    HW219826   8.172   9.557   0.453
23663SOL     OW19827   6.116   9.555   7.432
23663SOL    HW119828   6.164   9.529   7.348
23663SOL    HW219829   6.183   9.569   7.505
23664SOL     OW19830   7.245   0.166   6.863
23664SOL    HW119831   7.222   0.084   6.915
23664SOL    HW219832   7.163   0.222   6.850
23665SOL     OW19833   5.959   8.881   7.399
23665SOL    HW119834   5.898   8.902   7.323
23665SOL    HW219835   6.042   8.837   7.364
23666SOL     OW19836   6.782   8.117   7.699
23666SOL    HW119837   6.698   8.169   7.717
23666SOL    HW219838   6.762   8.046   7.631
23667SOL     OW19839  15.919   9.531   6.548
23667SOL    HW119840  15.910   9.586   6.465
23667SOL    HW219841  16.011   9.542   6.586
23668SOL     OW19842  12.750  13.495   1.051
23668SOL    HW119843  12.751  13.588   1.087
23668SOL    HW219844  12.664  13.480   1.001
23669SOL     OW19845   4.124  14.828   7.782
23669SOL    HW119846   4.186  14.902   7.756
23669SOL    HW219847   4.094  14.842   7.877
23670SOL     OW19848   4.091  16.061   0.966
23670SOL    HW119849   4.068  16.152   1.001
23670SOL    HW219850   4.173  16.027   1.014
23671SOL     OW19851   9.303   0.426   7.392
23671SOL    HW119852   9.230   0.423   7.460
23671SOL    HW219853   9.354   0.511   7.400
23672SOL     OW19854   6.042   7.896   2.221
23672SOL    HW119855   6.047   7.926   2.126
23672SOL    HW219856   6.104   7.951   2.277
23673SOL     OW19857   9.375   3.983   7.509
23673SOL    HW119858   9.433   3.905   7.532
23673SOL    HW219859   9.289   3.976   7.558
23674SOL     OW19860   1.238  13.391   7.414
23674SOL    HW119861   1.220  13.354   7.506
23674SOL    HW219862   1.179  13.344   7.348
23675SOL     OW19863   9.514   8.365   8.210
23675SOL    HW119864   9.470   8.356   8.299
23675SOL    HW219865   9.445   8.390   8.141
23676SOL     OW19866  13.379   4.845   6.987
23676SOL    HW119867  13.306   4.865   6.921
23676SOL    HW219868  13.451   4.913   6.980
23677SOL     OW19869  16.606  10.412   0.031
23677SOL    HW119870  16.664  10.492   0.015
23677SOL    HW219871  16.657  10.344   0.084
23678SOL     OW19872   8.697   7.734   0.809
23678SOL    HW119873   8.620   7.710   0.749
23678SOL    HW219874   8.782   7.725   0.758
23679SOL     OW19875   7.739  15.143   7.853
23679SOL    HW119876   7.672  15.201   7.806
23679SOL    HW219877   7.720  15.047   7.833
23680SOL     OW19878  14.764   3.592   1.439
23680SOL    HW119879  14.739   3.680   1.479
23680SOL    HW219880  14.681   3.541   1.417
23681SOL     OW19881   5.887   6.903   7.591
23681SOL    HW119882   5.838   6.819   7.614
23681SOL    HW219883   5.842   6.981   7.635
23682SOL     OW19884  13.764  13.241   7.936
23682SOL    HW119885  13.694  13.312   7.934
23682SOL    HW219886  13.814  13.246   8.022
23683SOL     OW19887   0.144  15.529   8.327
23683SOL    HW119888   0.161  15.476   8.410
23683SOL    HW219889   0.209  15.502   8.256
23684SOL     OW19890   6.226   9.820   8.410
23684SOL    HW119891   6.212   9.917   8.392
23684SOL    HW219892   6.170   9.765   8.348
23685SOL     OW19893  12.692   0.370   1.184
23685SOL    HW119894  12.744   0.445   1.224
23685SOL    HW219895  12.679   0.385   1.086
23686SOL     OW19896  10.524   4.314   6.422
23686SOL    HW119897  10.578   4.361   6.492
23686SOL    HW219898  10.433   4.294   6.458
23687SOL     OW19899   0.898  15.114   0.409
23687SOL    HW119900   0.968  15.163   0.357
23687SOL    HW219901   0.811  15.163   0.402
23688SOL     OW19902  13.013  13.657   0.139
23688SOL    HW119903  13.033  13.730   0.205
23688SOL    HW219904  13.023  13.692   0.046
23689SOL     OW19905  10.082  11.312   0.950
23689SOL    HW119906   9.985  11.287   0.958
23689SOL    HW219907  10.135  11.230   0.927
23690SOL     OW19908  15.201   0.587   7.317
23690SOL    HW119909  15.106   0.559   7.335
23690SOL    HW219910  15.202   0.683   7.288
23691SOL     OW19911   4.654  16.773   1.630
23691SOL    HW119912   4.638  16.870   1.613
23691SOL    HW219913   4.595  16.718   1.570
23692SOL     OW19914   4.694   1.138   1.715
23692SOL    HW119915   4.712   1.041   1.706
23692SOL    HW219916   4.756   1.177   1.783
23693SOL     OW19917   9.063   4.745   7.484
23693SOL    HW119918   9.137   4.690   7.523
23693SOL    HW219919   8.987   4.751   7.549
23694SOL     OW19920   6.065  11.460   5.844
23694SOL    HW119921   6.033  11.367   5.826
23694SOL    HW219922   6.051  11.516   5.763
23695SOL     OW19923  14.484   7.556   7.163
23695SOL    HW119924  14.493   7.480   7.228
23695SOL    HW219925  14.454   7.520   7.074
23696SOL     OW19926   3.648   5.783   6.534
23696SOL    HW119927   3.633   5.866   6.481
23696SOL    HW219928   3.570   5.721   6.521
23697SOL     OW19929   8.034   3.555   7.895
23697SOL    HW119930   7.982   3.495   7.835
23697SOL    HW219931   7.990   3.645   7.900
23698SOL     OW19932   2.356   2.739   6.772
23698SOL    HW119933   2.260   2.737   6.743
23698SOL    HW219934   2.385   2.833   6.786
23699SOL     OW19935  12.699  15.776   7.063
23699SOL    HW119936  12.777  15.732   7.019
23699SOL    HW219937  12.721  15.872   7.081
23700SOL     OW19938   2.317  14.114   1.120
23700SOL    HW119939   2.272  14.027   1.103
23700SOL    HW219940   2.416  14.101   1.120
23701SOL     OW19941   1.354  10.073   7.508
23701SOL    HW119942   1.435  10.118   7.546
23701SOL    HW219943   1.281  10.140   7.496
23702SOL     OW19944  11.419   1.164   6.289
23702SOL    HW119945  11.336   1.216   6.271
23702SOL    HW219946  11.396   1.075   6.327
23703SOL     OW19947   2.892  11.603   6.919
23703SOL    HW119948   2.880  11.700   6.902
23703SOL    HW219949   2.882  11.552   6.834
23704SOL     OW19950  10.792  16.385   6.996
23704SOL    HW119951  10.866  16.318   7.007
23704SOL    HW219952  10.757  16.410   7.086
23705SOL     OW19953  15.858  15.421   7.808
23705SOL    HW119954  15.905  15.344   7.851
23705SOL    HW219955  15.903  15.444   7.721
23706SOL     OW19956   9.984   7.204   0.420
23706SOL    HW119957   9.921   7.146   0.472
23706SOL    HW219958   9.931   7.268   0.364
23707SOL     OW19959   8.125   2.449   0.795
23707SOL    HW119960   8.193   2.404   0.737
23707SOL    HW219961   8.076   2.380   0.848
23708SOL     OW19962  13.683  14.739   8.189
23708SOL    HW119963  13.639  14.657   8.150
23708SOL    HW219964  13.630  14.771   8.267
23709SOL     OW19965   5.800  16.033   6.696
23709SOL    HW119966   5.778  16.093   6.619
23709SOL    HW219967   5.889  15.990   6.681
23710SOL     OW19968   8.261  12.223   6.616
23710SOL    HW119969   8.212  12.137   6.629
23710SOL    HW219970   8.221  12.273   6.539
23711SOL     OW19971   8.054  11.397   1.393
23711SOL    HW119972   8.002  11.400   1.479
23711SOL    HW219973   8.144  11.439   1.407
23712SOL     OW19974  11.484  10.691   0.257
23712SOL    HW119975  11.579  10.711   0.230
23712SOL    HW219976  11.446  10.622   0.196
23713SOL     OW19977   7.750   5.475   0.756
23713SOL    HW119978   7.689   5.408   0.714
23713SOL    HW219979   7.819   5.503   0.689
23714SOL     OW19980  11.835  16.277   0.961
23714SOL    HW119981  11.858  16.199   1.019
23714SOL    HW219982  11.810  16.355   1.019
23715SOL     OW19983  16.939   6.458   6.475
23715SOL    HW119984  16.850   6.492   6.506
23715SOL    HW219985  16.943   6.359   6.486
23716SOL     OW19986  15.673  10.401   1.324
23716SOL    HW119987  15.751  10.394   1.386
23716SOL    HW219988  15.604  10.334   1.351
23717SOL     OW19989   7.943  14.566   6.906
23717SOL    HW119990   7.923  14.633   6.978
23717SOL    HW219991   8.038  14.575   6.878
23718SOL     OW19992  15.519  12.294   6.073
23718SOL    HW119993  15.481  12.286   6.165
23718SOL    HW219994  15.470  12.366   6.023
23719SOL     OW19995  15.437  16.506   7.841
23719SOL    HW119996  15.529  16.482   7.812
23719SOL    HW219997  15.421  16.603   7.823
23720SOL     OW19998  16.024  10.222   7.464
23720SOL    HW119999  16.117  10.255   7.475
23720SOL    HW220000  15.962  10.299   7.451
23721SOL     OW20001   2.501   4.365   0.458
23721SOL    HW120002   2.574   4.301   0.433
23721SOL    HW220003   2.539   4.457   0.467
23722SOL     OW20004   7.446   8.623   6.788
23722SOL    HW120005   7.385   8.666   6.854
23722SOL    HW220006   7.395   8.555   6.735
23723SOL     OW20007  14.351  10.219   0.549
23723SOL    HW120008  14.431  10.221   0.489
23723SOL    HW220009  14.376  10.180   0.637
23724SOL     OW20010   5.035  12.943   1.419
23724SOL    HW120011   5.001  12.969   1.510
23724SOL    HW220012   4.990  12.858   1.391
23725SOL     OW20013  11.639   0.961   1.795
23725SOL    HW120014  11.650   0.923   1.887
23725SOL    HW220015  11.728   0.980   1.755
23726SOL     OW20016   8.593   1.557   0.914
23726SOL    HW120017   8.624   1.628   0.850
23726SOL    HW220018   8.627   1.579   1.006
23727SOL     OW20019   7.394   8.944   6.752
23727SOL    HW120020   7.419   8.973   6.845
23727SOL    HW220021   7.473   8.901   6.708
23728SOL     OW20022   4.708  15.755   2.461
23728SOL    HW120023   4.772  15.701   2.516
23728SOL    HW220024   4.689  15.841   2.508
23729SOL     OW20025  11.068   7.558   0.365
23729SOL    HW120026  11.160   7.564   0.405
23729SOL    HW220027  11.000   7.580   0.435
23730SOL     OW20028   7.946  13.213   1.805
23730SOL    HW120029   7.986  13.201   1.896
23730SOL    HW220030   7.859  13.261   1.814
23731SOL     OW20031   8.855  11.316   2.583
23731SOL    HW120032   8.892  11.231   2.620
23731SOL    HW220033   8.810  11.368   2.656
23732SOL     OW20034   8.087  11.268   1.818
23732SOL    HW120035   8.092  11.293   1.915
23732SOL    HW220036   8.143  11.331   1.764
23733SOL     OW20037   1.516  14.628   7.524
23733SOL    HW120038   1.444  14.566   7.554
23733SOL    HW220039   1.492  14.666   7.434
23734SOL     OW20040   2.161  15.073   1.401
23734SOL    HW120041   2.229  15.032   1.461
23734SOL    HW220042   2.145  15.168   1.428
23735SOL     OW20043  15.472  15.877   0.581
23735SOL    HW120044  15.533  15.886   0.659
23735SOL    HW220045  15.414  15.958   0.573
23736SOL     OW20046   9.682   7.966   1.586
23736SOL    HW120047   9.603   7.917   1.623
23736SOL    HW220048   9.652   8.024   1.511
23737SOL     OW20049   8.112  10.199   7.530
23737SOL    HW120050   8.153  10.290   7.541
23737SOL    HW220051   8.156  10.136   7.593
23738SOL     OW20052  11.919   2.425   6.314
23738SOL    HW120053  11.941   2.330   6.336
23738SOL    HW220054  11.885   2.471   6.396
23739SOL     OW20055  15.653   3.893   7.360
23739SOL    HW120056  15.615   3.890   7.452
23739SOL    HW220057  15.632   3.981   7.318
23740SOL     OW20058  11.272   5.772   6.995
23740SOL    HW120059  11.273   5.872   7.001
23740SOL    HW220060  11.358   5.736   7.031
23741SOL     OW20061   1.311   7.391   2.219
23741SOL    HW120062   1.400   7.433   2.197
23741SOL    HW220063   1.238   7.445   2.177
23742SOL     OW20064  16.941  10.307   7.059
23742SOL    HW120065   0.045  10.302   7.011
23742SOL    HW220066  16.871  10.346   6.998
23743SOL     OW20067   4.968  10.352   7.375
23743SOL    HW120068   4.991  10.365   7.472
23743SOL    HW220069   4.996  10.432   7.323
23744SOL     OW20070  14.960   7.246   7.856
23744SOL    HW120071  15.057   7.234   7.837
23744SOL    HW220072  14.915   7.157   7.863
23745SOL     OW20073  16.778  12.073   1.427
23745SOL    HW120074  16.692  12.070   1.479
23745SOL    HW220075  16.803  11.980   1.399
23746SOL     OW20076   8.039   6.155   0.838
23746SOL    HW120077   8.098   6.156   0.918
23746SOL    HW220078   7.944   6.139   0.866
23747SOL     OW20079   6.088  11.777   0.045
23747SOL    HW120080   6.134  11.834   0.113
23747SOL    HW220081   6.145  11.697   0.024
23748SOL     OW20082  12.595   2.060   7.818
23748SOL    HW120083  12.557   2.079   7.727
23748SOL    HW220084  12.692   2.085   7.820
23749SOL     OW20085  14.228   7.183   0.805
23749SOL    HW120086  14.294   7.257   0.789
23749SOL    HW220087  14.273   7.109   0.854
23750SOL     OW20088  10.039   9.979   7.511
23750SOL    HW120089  10.124  10.024   7.536
23750SOL    HW220090  10.038   9.962   7.412
23751SOL     OW20091   6.005   2.970   0.236
23751SOL    HW120092   6.059   2.982   0.152
23751SOL    HW220093   5.929   3.035   0.236
23752SOL     OW20094  12.803   8.363   7.916
23752SOL    HW120095  12.863   8.391   7.841
23752SOL    HW220096  12.767   8.272   7.897
23753SOL     OW20097   1.575   1.797   6.568
23753SOL    HW120098   1.517   1.725   6.529
23753SOL    HW220099   1.517   1.868   6.609
23754SOL     OW20100  12.211   3.883   7.392
23754SOL    HW120101  12.194   3.818   7.318
23754SOL    HW220102  12.180   3.843   7.479
23755SOL     OW20103   9.122   5.160   5.708
23755SOL    HW120104   9.095   5.082   5.652
23755SOL    HW220105   9.041   5.213   5.733
23756SOL     OW20106   4.072  11.410   8.206
23756SOL    HW120107   4.159  11.399   8.157
23756SOL    HW220108   4.087  11.466   8.288
23757SOL     OW20109   3.336   0.403   2.630
23757SOL    HW120110   3.424   0.449   2.644
23757SOL    HW220111   3.280   0.414   2.712
23758SOL     OW20112  15.425   2.109   1.444
23758SOL    HW120113  15.511   2.059   1.433
23758SOL    HW220114  15.363   2.055   1.501
23759SOL     OW20115   8.167  16.907   6.462
23759SOL    HW120116   8.191  16.873   6.371
23759SOL    HW220117   8.203   0.016   6.474
23760SOL     OW20118   2.812   3.453   1.144
23760SOL    HW120119   2.764   3.541   1.151
23760SOL    HW220120   2.910   3.468   1.161
23761SOL     OW20121   4.711  12.133   0.811
23761SOL    HW120122   4.722  12.222   0.855
23761SOL    HW220123   4.793  12.111   0.759
23762SOL     OW20124   9.897  10.857   0.242
23762SOL    HW120125   9.835  10.903   0.305
23762SOL    HW220126   9.848  10.786   0.192
23763SOL     OW20127  10.043  15.442   7.029
23763SOL    HW120128  10.005  15.368   7.086
23763SOL    HW220129  10.096  15.504   7.087
23764SOL     OW20130   4.953   6.086   1.013
23764SOL    HW120131   4.859   6.108   1.040
23764SOL    HW220132   4.999   6.170   0.982
23765SOL     OW20133   7.557   5.861   6.359
23765SOL    HW120134   7.635   5.799   6.347
23765SOL    HW220135   7.482   5.830   6.300
23766SOL     OW20136   4.598   5.820   0.784
23766SOL    HW120137   4.691   5.857   0.788
23766SOL    HW220138   4.565   5.805   0.877
23767SOL     OW20139   5.458   2.769   7.827
23767SOL    HW120140   5.417   2.859   7.813
23767SOL    HW220141   5.393   2.709   7.873
23768SOL     OW20142   2.752   6.788   6.352
23768SOL    HW120143   2.779   6.835   6.269
23768SOL    HW220144   2.661   6.818   6.381
23769SOL     OW20145   9.603   9.005   8.297
23769SOL    HW120146   9.571   9.072   8.230
23769SOL    HW220147   9.647   8.929   8.249
23770SOL     OW20148  12.931  16.060   6.513
23770SOL    HW120149  13.020  16.103   6.497
23770SOL    HW220150  12.929  15.971   6.468
23771SOL     OW20151  11.450   8.262   1.722
23771SOL    HW120152  11.493   8.209   1.795
23771SOL    HW220153  11.471   8.359   1.734
23772SOL     OW20154  13.850  15.188   7.529
23772SOL    HW120155  13.832  15.179   7.627
23772SOL    HW220156  13.764  15.199   7.480
23773SOL     OW20157   9.393  11.807   0.627
23773SOL    HW120158   9.318  11.851   0.677
23773SOL    HW220159   9.406  11.854   0.539
23774SOL     OW20160   1.217  15.518   8.154
23774SOL    HW120161   1.187  15.571   8.075
23774SOL    HW220162   1.315  15.498   8.146
23775SOL     OW20163   3.842   8.192   6.606
23775SOL    HW120164   3.836   8.116   6.541
23775SOL    HW220165   3.878   8.273   6.559
23776SOL     OW20166   9.058  12.709   7.179
23776SOL    HW120167   9.005  12.662   7.250
23776SOL    HW220168   9.018  12.799   7.161
23777SOL     OW20169   7.086   3.848   0.263
23777SOL    HW120170   7.081   3.751   0.287
23777SOL    HW220171   7.180   3.879   0.269
23778SOL     OW20172  11.617   9.086   0.763
23778SOL    HW120173  11.641   9.168   0.711
23778SOL    HW220174  11.596   9.012   0.699
23779SOL     OW20175   8.973  13.778   6.543
23779SOL    HW120176   8.902  13.761   6.475
23779SOL    HW220177   9.027  13.858   6.517
23780SOL     OW20178  12.352  15.535   0.925
23780SOL    HW120179  12.344  15.611   0.989
23780SOL    HW220180  12.283  15.546   0.852
23781SOL     OW20181   7.188   5.847   0.337
23781SOL    HW120182   7.225   5.932   0.298
23781SOL    HW220183   7.089   5.859   0.352
23782SOL     OW20184   0.088   0.956   0.342
23782SOL    HW120185   0.017   0.950   0.412
23782SOL    HW220186   0.140   0.871   0.341
23783SOL     OW20187   9.996  10.335   7.011
23783SOL    HW120188   9.923  10.371   7.069
23783SOL    HW220189   9.969  10.246   6.975
23784SOL     OW20190  15.443  12.712   0.858
23784SOL    HW120191  15.417  12.761   0.942
23784SOL    HW220192  15.401  12.621   0.859
23785SOL     OW20193  15.113   6.104   6.870
23785SOL    HW120194  15.116   6.124   6.968
23785SOL    HW220195  15.091   6.187   6.819
23786SOL     OW20196   5.892   4.447   1.831
23786SOL    HW120197   5.980   4.401   1.842
23786SOL    HW220198   5.874   4.504   1.911
23787SOL     OW20199  11.635   4.483   6.419
23787SOL    HW120200  11.573   4.455   6.345
23787SOL    HW220201  11.666   4.402   6.469
23788SOL     OW20202  15.718   9.342   0.689
23788SOL    HW120203  15.659   9.310   0.616
23788SOL    HW220204  15.806   9.372   0.651
23789SOL     OW20205   5.934   7.156   0.688
23789SOL    HW120206   5.840   7.174   0.717
23789SOL    HW220207   5.968   7.232   0.633
23790SOL     OW20208   6.436   0.800   8.299
23790SOL    HW120209   6.535   0.819   8.303
23790SOL    HW220210   6.421   0.710   8.259
23791SOL     OW20211   1.253   0.213   6.342
23791SOL    HW120212   1.322   0.282   6.363
23791SOL    HW220213   1.295   0.123   6.338
23792SOL     OW20214  12.285   9.245   6.467
23792SOL    HW120215  12.275   9.230   6.368
23792SOL    HW220216  12.381   9.262   6.488
23793SOL     OW20217  13.264   5.814   8.001
23793SOL    HW120218  13.207   5.771   7.931
23793SOL    HW220219  13.206   5.847   8.076
23794SOL     OW20220   2.317   1.457   2.061
23794SOL    HW120221   2.312   1.362   2.092
23794SOL    HW220222   2.303   1.518   2.139
23795SOL     OW20223   9.809   2.174   8.102
23795SOL    HW120224   9.871   2.164   8.180
23795SOL    HW220225   9.718   2.199   8.135
23796SOL     OW20226   5.628   5.796   7.652
23796SOL    HW120227   5.681   5.874   7.619
23796SOL    HW220228   5.684   5.713   7.645
23797SOL     OW20229   2.220   9.469   0.039
23797SOL    HW120230   2.282   9.540   0.007
23797SOL    HW220231   2.273   9.389   0.068
23798SOL     OW20232  12.830  11.580   0.186
23798SOL    HW120233  12.856  11.617   0.275
23798SOL    HW220234  12.768  11.643   0.140
23799SOL     OW20235   9.272  10.198   7.864
23799SOL    HW120236   9.370  10.183   7.870
23799SOL    HW220237   9.248  10.284   7.909
23800SOL     OW20238   8.709   2.123   8.210
23800SOL    HW120239   8.792   2.076   8.241
23800SOL    HW220240   8.733   2.215   8.179
23801SOL     OW20241  12.614  11.812   7.063
23801SOL    HW120242  12.693  11.790   7.121
23801SOL    HW220243  12.551  11.734   7.062
23802SOL     OW20244  10.456   6.735   0.427
23802SOL    HW120245  10.510   6.783   0.496
23802SOL    HW220246  10.488   6.641   0.418
23803SOL     OW20247  13.265  15.782   7.551
23803SOL    HW120248  13.250  15.839   7.631
23803SOL    HW220249  13.363  15.774   7.533
23804SOL     OW20250  10.262   8.539   6.526
23804SOL    HW120251  10.346   8.487   6.516
23804SOL    HW220252  10.284   8.636   6.536
23805SOL     OW20253   4.962   2.450   0.333
23805SOL    HW120254   4.885   2.486   0.385
23805SOL    HW220255   4.935   2.366   0.287
23806SOL     OW20256  11.924   8.633   0.592
23806SOL    HW120257  12.019   8.621   0.563
23806SOL    HW220258  11.918   8.707   0.659
23807SOL     OW20259   4.174  11.505   1.309
23807SOL    HW120260   4.094  11.491   1.369
23807SOL    HW220261   4.148  11.565   1.234
23808SOL     OW20262  12.439   8.892   0.718
23808SOL    HW120263  12.447   8.833   0.637
23808SOL    HW220264  12.470   8.984   0.696
23809SOL     OW20265   5.239   8.232   7.188
23809SOL    HW120266   5.291   8.159   7.231
23809SOL    HW220267   5.184   8.279   7.257
23810SOL     OW20268  16.530  14.067   0.777
23810SOL    HW120269  16.528  14.085   0.876
23810SOL    HW220270  16.473  14.136   0.731
23811SOL     OW20271  12.238   6.095   1.306
23811SOL    HW120272  12.303   6.120   1.235
23811SOL    HW220273  12.287   6.061   1.387
23812SOL     OW20274   4.505   1.375   7.569
23812SOL    HW120275   4.419   1.426   7.566
23812SOL    HW220276   4.498   1.293   7.513
23813SOL     OW20277  14.963   8.211   1.854
23813SOL    HW120278  15.048   8.168   1.887
23813SOL    HW220279  14.886   8.152   1.876
23814SOL     OW20280   7.990  14.366   7.460
23814SOL    HW120281   7.996  14.362   7.560
23814SOL    HW220282   7.978  14.460   7.431
23815SOL     OW20283  13.312  16.724   0.964
23815SOL    HW120284  13.352  16.729   0.872
23815SOL    HW220285  13.214  16.746   0.958
23816SOL     OW20286  15.130  10.161   2.069
23816SOL    HW120287  15.137  10.198   2.161
23816SOL    HW220288  15.216  10.119   2.043
23817SOL     OW20289  13.733   0.710   5.955
23817SOL    HW120290  13.737   0.611   5.942
23817SOL    HW220291  13.796   0.738   6.027
23818SOL     OW20292   1.567   5.817   8.377
23818SOL    HW120293   1.493   5.810   8.443
23818SOL    HW220294   1.596   5.912   8.369
23819SOL     OW20295   3.840  14.277   0.388
23819SOL    HW120296   3.754  14.232   0.412
23819SOL    HW220297   3.914  14.239   0.443
23820SOL     OW20298  12.756  10.342   2.022
23820SOL    HW120299  12.817  10.359   1.945
23820SOL    HW220300  12.810  10.315   2.102
23821SOL     OW20301   4.025   9.639   1.817
23821SOL    HW120302   3.946   9.691   1.849
23821SOL    HW220303   4.106   9.698   1.817
23822SOL     OW20304  11.782  12.051   6.508
23822SOL    HW120305  11.790  11.953   6.524
23822SOL    HW220306  11.686  12.075   6.496
23823SOL     OW20307   3.673   1.198   2.034
23823SOL    HW120308   3.754   1.258   2.034
23823SOL    HW220309   3.697   1.110   2.076
23824SOL     OW20310  15.949  15.721   1.798
23824SOL    HW120311  15.926  15.655   1.870
23824SOL    HW220312  15.971  15.809   1.840
23825SOL     OW20313  16.412   7.345   8.023
23825SOL    HW120314  16.462   7.259   8.030
23825SOL    HW220315  16.432   7.402   8.103
23826SOL     OW20316  16.218  11.939   6.709
23826SOL    HW120317  16.199  12.037   6.714
23826SOL    HW220318  16.313  11.925   6.682
23827SOL     OW20319   3.992   2.866   8.012
23827SOL    HW120320   4.009   2.959   7.980
23827SOL    HW220321   4.024   2.801   7.943
23828SOL     OW20322   6.833  14.167   7.728
23828SOL    HW120323   6.858  14.264   7.731
23828SOL    HW220324   6.778  14.144   7.808
23829SOL     OW20325  13.902   0.392   1.391
23829SOL    HW120326  13.976   0.357   1.333
23829SOL    HW220327  13.917   0.490   1.409
23830SOL     OW20328   0.375   3.372   1.147
23830SOL    HW120329   0.341   3.414   1.063
23830SOL    HW220330   0.328   3.412   1.226
23831SOL     OW20331  12.983  14.392   8.297
23831SOL    HW120332  12.950  14.477   8.256
23831SOL    HW220333  13.003  14.407   8.394
23832SOL     OW20334  16.704  10.188   1.435
23832SOL    HW120335  16.662  10.255   1.497
23832SOL    HW220336  16.683  10.213   1.341
23833SOL     OW20337   5.847  11.562   0.211
23833SOL    HW120338   5.767  11.543   0.269
23833SOL    HW220339   5.823  11.543   0.115
23834SOL     OW20340   0.947   4.319   6.810
23834SOL    HW120341   0.991   4.335   6.722
23834SOL    HW220342   0.876   4.249   6.800
23835SOL     OW20343   8.926   2.472   6.298
23835SOL    HW120344   8.859   2.408   6.259
23835SOL    HW220345   8.883   2.561   6.313
23836SOL     OW20346   1.555   8.470   7.678
23836SOL    HW120347   1.593   8.472   7.586
23836SOL    HW220348   1.622   8.432   7.741
23837SOL     OW20349   1.798  16.556   2.231
23837SOL    HW120350   1.777  16.513   2.318
23837SOL    HW220351   1.880  16.614   2.241
23838SOL     OW20352   9.045  14.703   8.026
23838SOL    HW120353   9.028  14.605   8.016
23838SOL    HW220354   9.139  14.724   7.998
23839SOL     OW20355   1.883  13.147   8.251
23839SOL    HW120356   1.828  13.182   8.175
23839SOL    HW220357   1.850  13.057   8.278
23840SOL     OW20358   1.811   0.454   0.914
23840SOL    HW120359   1.834   0.467   1.011
23840SOL    HW220360   1.729   0.397   0.907
23841SOL     OW20361   3.228   3.297   1.065
23841SOL    HW120362   3.245   3.269   0.971
23841SOL    HW220363   3.245   3.220   1.127
23842SOL     OW20364   3.005   9.842   7.780
23842SOL    HW120365   2.938   9.787   7.730
23842SOL    HW220366   3.003   9.936   7.746
23843SOL     OW20367  10.982   2.132   8.066
23843SOL    HW120368  10.915   2.200   8.099
23843SOL    HW220369  11.020   2.162   7.979
23844SOL     OW20370   1.475   4.272   0.152
23844SOL    HW120371   1.417   4.208   0.201
23844SOL    HW220372   1.542   4.221   0.097
23845SOL     OW20373   4.966   4.413   6.737
23845SOL    HW120374   4.947   4.416   6.835
23845SOL    HW220375   5.034   4.342   6.719
23846SOL     OW20376   1.155   3.143   7.973
23846SOL    HW120377   1.231   3.198   7.938
23846SOL    HW220378   1.181   3.101   8.060
23847SOL     OW20379   5.115  12.074   6.581
23847SOL    HW120380   5.065  12.161   6.583
23847SOL    HW220381   5.120  12.040   6.487
23848SOL     OW20382  15.394   0.229   0.154
23848SOL    HW120383  15.471   0.252   0.214
23848SOL    HW220384  15.425   0.163   0.086
23849SOL     OW20385  11.308  13.188   6.897
23849SOL    HW120386  11.354  13.274   6.876
23849SOL    HW220387  11.367  13.132   6.955
23850SOL     OW20388   2.447   2.793   1.192
23850SOL    HW120389   2.501   2.860   1.242
23850SOL    HW220390   2.367   2.767   1.247
23851SOL     OW20391   3.394   6.429   6.790
23851SOL    HW120392   3.324   6.410   6.858
23851SOL    HW220393   3.351   6.449   6.702
23852SOL     OW20394  15.163  16.055   0.731
23852SOL    HW120395  15.126  15.964   0.712
23852SOL    HW220396  15.232  16.078   0.663
23853SOL     OW20397   5.833  16.185   7.785
23853SOL    HW120398   5.882  16.125   7.722
23853SOL    HW220399   5.745  16.211   7.746
23854SOL     OW20400   8.608   8.680   6.406
23854SOL    HW120401   8.660   8.613   6.354
23854SOL    HW220402   8.628   8.772   6.372
23855SOL     OW20403   1.568  13.077   0.885
23855SOL    HW120404   1.565  13.115   0.793
23855SOL    HW220405   1.611  13.143   0.947
23856SOL     OW20406  10.261   3.961   6.827
23856SOL    HW120407  10.309   3.909   6.898
23856SOL    HW220408  10.323   4.028   6.787
23857SOL     OW20409  11.502   1.511   7.067
23857SOL    HW120410  11.480   1.607   7.052
23857SOL    HW220411  11.583   1.503   7.124
23858SOL     OW20412  10.692   0.597   6.626
23858SOL    HW120413  10.652   0.523   6.680
23858SOL    HW220414  10.748   0.558   6.552
23859SOL     OW20415  15.708   5.566   6.799
23859SOL    HW120416  15.612   5.542   6.814
23859SOL    HW220417  15.752   5.582   6.887
23860SOL     OW20418  16.455  15.258   1.013
23860SOL    HW120419  16.387  15.332   1.017
23860SOL    HW220420  16.506  15.255   1.098
23861SOL     OW20421   9.027  13.172   8.002
23861SOL    HW120422   9.018  13.073   8.012
23861SOL    HW220423   8.949  13.207   7.949
23862SOL     OW20424   4.467  13.470   0.811
23862SOL    HW120425   4.558  13.507   0.832
23862SOL    HW220426   4.442  13.493   0.717
23863SOL     OW20427   3.711   1.891   1.783
23863SOL    HW120428   3.655   1.974   1.787
23863SOL    HW220429   3.673   1.828   1.715
23864SOL     OW20430   1.005   0.656   8.067
23864SOL    HW120431   0.974   0.736   8.118
23864SOL    HW220432   1.061   0.599   8.126
23865SOL     OW20433   6.673   6.781   8.243
23865SOL    HW120434   6.638   6.688   8.241
23865SOL    HW220435   6.675   6.814   8.338
23866SOL     OW20436   6.231   9.192   0.784
23866SOL    HW120437   6.157   9.240   0.736
23866SOL    HW220438   6.194   9.151   0.868
23867SOL     OW20439   2.170  12.337   6.883
23867SOL    HW120440   2.225  12.415   6.852
23867SOL    HW220441   2.223  12.253   6.874
23868SOL     OW20442   3.713  16.384   1.194
23868SOL    HW120443   3.736  16.465   1.248
23868SOL    HW220444   3.795  16.328   1.182
23869SOL     OW20445  13.208   4.468   1.274
23869SOL    HW120446  13.229   4.481   1.177
23869SOL    HW220447  13.162   4.380   1.287
23870SOL     OW20448   8.984  15.926   1.612
23870SOL    HW120449   8.945  15.836   1.590
23870SOL    HW220450   9.084  15.921   1.604
23871SOL     OW20451  16.667   7.523   1.653
23871SOL    HW120452  16.710   7.556   1.569
23871SOL    HW220453  16.568   7.536   1.647
23872SOL     OW20454  13.158   0.129   7.877
23872SOL    HW120455  13.093   0.179   7.820
23872SOL    HW220456  13.203   0.193   7.939
23873SOL     OW20457  11.466   2.585   0.318
23873SOL    HW120458  11.543   2.641   0.287
23873SOL    HW220459  11.417   2.549   0.239
23874SOL     OW20460  15.199   4.574   7.932
23874SOL    HW120461  15.186   4.604   7.837
23874SOL    HW220462  15.287   4.607   7.965
23875SOL     OW20463  10.631  16.393   1.497
23875SOL    HW120464  10.587  16.471   1.542
23875SOL    HW220465  10.728  16.390   1.522
23876SOL     OW20466  10.418  15.519   0.960
23876SOL    HW120467  10.364  15.597   0.993
23876SOL    HW220468  10.356  15.447   0.930
23877SOL     OW20469  10.579  14.403   1.741
23877SOL    HW120470  10.574  14.497   1.707
23877SOL    HW220471  10.596  14.405   1.840
23878SOL     OW20472   1.693   9.252   8.403
23878SOL    HW120473   1.693   9.314   0.027
23878SOL    HW220474   1.701   9.305   8.318
23879SOL     OW20475  11.005   4.117   0.772
23879SOL    HW120476  11.102   4.102   0.792
23879SOL    HW220477  10.958   4.029   0.768
23880SOL     OW20478   3.805   0.193   1.814
23880SOL    HW120479   3.735   0.122   1.822
23880SOL    HW220480   3.774   0.261   1.747
23881SOL     OW20481  11.247   4.994   0.604
23881SOL    HW120482  11.164   4.988   0.659
23881SOL    HW220483  11.272   5.090   0.592
23882SOL     OW20484   8.196   7.022   0.223
23882SOL    HW120485   8.228   6.960   0.295
23882SOL    HW220486   8.158   7.105   0.265
23883SOL     OW20487   9.309  13.253   8.150
23883SOL    HW120488   9.366  13.263   8.069
23883SOL    HW220489   9.215  13.232   8.122
23884SOL     OW20490  11.572   1.667   1.222
23884SOL    HW120491  11.590   1.733   1.149
23884SOL    HW220492  11.540   1.714   1.304
23885SOL     OW20493  13.603  15.004   1.829
23885SOL    HW120494  13.553  14.938   1.886
23885SOL    HW220495  13.691  14.964   1.802
23886SOL     OW20496   7.698  15.384   0.870
23886SOL    HW120497   7.659  15.400   0.961
23886SOL    HW220498   7.636  15.328   0.816
23887SOL     OW20499   7.521  13.377   6.509
23887SOL    HW120500   7.529  13.279   6.495
23887SOL    HW220501   7.445  13.397   6.571
23888SOL     OW20502  11.407  13.773   6.210
23888SOL    HW120503  11.334  13.841   6.217
23888SOL    HW220504  11.367  13.682   6.203
23889SOL     OW20505   8.469   0.582   0.790
23889SOL    HW120506   8.522   0.497   0.787
23889SOL    HW220507   8.413   0.583   0.873
23890SOL     OW20508   2.173  15.406   7.773
23890SOL    HW120509   2.149  15.467   7.849
23890SOL    HW220510   2.192  15.461   7.692
23891SOL     OW20511  14.144   6.963   1.137
23891SOL    HW120512  14.063   6.975   1.079
23891SOL    HW220513  14.145   7.031   1.209
23892SOL     OW20514  15.675  12.997   7.635
23892SOL    HW120515  15.652  12.932   7.707
23892SOL    HW220516  15.630  13.084   7.653
23893SOL     OW20517   6.852  15.744   1.649
23893SOL    HW120518   6.842  15.736   1.550
23893SOL    HW220519   6.780  15.805   1.684
23894SOL     OW20520  13.306   8.098   1.320
23894SOL    HW120521  13.372   8.116   1.393
23894SOL    HW220522  13.221   8.147   1.340
23895SOL     OW20523  13.761  11.515   7.396
23895SOL    HW120524  13.823  11.526   7.475
23895SOL    HW220525  13.679  11.570   7.411
23896SOL     OW20526   0.031  14.627   6.695
23896SOL    HW120527   0.078  14.713   6.675
23896SOL    HW220528   0.036  14.567   6.616
23897SOL     OW20529   2.555   3.152   8.136
23897SOL    HW120530   2.562   3.192   8.227
23897SOL    HW220531   2.636   3.177   8.082
23898SOL     OW20532  13.866   4.083   5.752
23898SOL    HW120533  13.767   4.090   5.757
23898SOL    HW220534  13.905   4.173   5.732
23899SOL     OW20535  11.008   0.635   7.144
23899SOL    HW120536  11.008   0.569   7.219
23899SOL    HW220537  11.067   0.602   7.071
23900SOL     OW20538  16.410   5.826   7.903
23900SOL    HW120539  16.439   5.864   7.991
23900SOL    HW220540  16.403   5.726   7.910
23901SOL     OW20541  12.935  12.382   1.078
23901SOL    HW120542  12.977  12.377   1.169
23901SOL    HW220543  12.989  12.327   1.014
23902SOL     OW20544   1.843  13.958   1.475
23902SOL    HW120545   1.773  13.888   1.488
23902SOL    HW220546   1.906  13.928   1.403
23903SOL     OW20547   7.947  13.746   2.027
23903SOL    HW120548   7.882  13.771   1.955
23903SOL    HW220549   8.016  13.685   1.990
23904SOL     OW20550   1.598   2.748   1.534
23904SOL    HW120551   1.541   2.822   1.571
23904SOL    HW220552   1.583   2.742   1.435
23905SOL     OW20553  13.330   7.705   7.759
23905SOL    HW120554  13.332   7.616   7.715
23905SOL    HW220555  13.249   7.756   7.729
23906SOL     OW20556   0.098  16.579   6.630
23906SOL    HW120557   0.169  16.650   6.632
23906SOL    HW220558   0.116  16.512   6.701
23907SOL     OW20559  10.925   7.635   0.586
23907SOL    HW120560  10.946   7.634   0.684
23907SOL    HW220561  10.883   7.722   0.562
23908SOL     OW20562   4.488   3.484   8.181
23908SOL    HW120563   4.458   3.480   8.086
23908SOL    HW220564   4.413   3.456   8.241
23909SOL     OW20565  14.210  15.571   1.815
23909SOL    HW120566  14.216  15.667   1.786
23909SOL    HW220567  14.278  15.518   1.765
23910SOL     OW20568   9.039  13.301   6.734
23910SOL    HW120569   8.941  13.308   6.715
23910SOL    HW220570   9.057  13.218   6.786
23911SOL     OW20571   0.727   4.763   6.860
23911SOL    HW120572   0.740   4.666   6.880
23911SOL    HW220573   0.802   4.796   6.803
23912SOL     OW20574   4.745  14.667   8.124
23912SOL    HW120575   4.820  14.733   8.121
23912SOL    HW220576   4.671  14.697   8.064
23913SOL     OW20577   7.261   4.146   6.678
23913SOL    HW120578   7.185   4.158   6.615
23913SOL    HW220579   7.257   4.215   6.750
23914SOL     OW20580  11.520   9.955   7.318
23914SOL    HW120581  11.511  10.015   7.397
23914SOL    HW220582  11.503  10.008   7.234
23915SOL     OW20583  12.326   0.638   7.994
23915SOL    HW120584  12.276   0.552   7.996
23915SOL    HW220585  12.302   0.688   7.910
23916SOL     OW20586   8.757   9.650   6.253
23916SOL    HW120587   8.820   9.693   6.189
23916SOL    HW220588   8.748   9.553   6.232
23917SOL     OW20589  11.571   8.737   0.864
23917SOL    HW120590  11.623   8.701   0.942
23917SOL    HW220591  11.516   8.816   0.894
23918SOL     OW20592   6.597   6.947   1.666
23918SOL    HW120593   6.521   6.921   1.607
23918SOL    HW220594   6.673   6.882   1.653
23919SOL     OW20595   3.063   4.721   8.012
23919SOL    HW120596   3.147   4.730   8.066
23919SOL    HW220597   2.991   4.777   8.053
23920SOL     OW20598  16.113   8.265   1.438
23920SOL    HW120599  16.143   8.358   1.419
23920SOL    HW220600  16.188   8.213   1.478
23921SOL     OW20601   9.090   3.720   1.412
23921SOL    HW120602   9.086   3.651   1.340
23921SOL    HW220603   9.077   3.811   1.372
23922SOL     OW20604  14.881   3.489   7.251
23922SOL    HW120605  14.788   3.481   7.215
23922SOL    HW220606  14.933   3.407   7.228
23923SOL     OW20607   8.415   9.284   6.534
23923SOL    HW120608   8.393   9.270   6.438
23923SOL    HW220609   8.497   9.342   6.541
23924SOL     OW20610  13.861  13.226   8.452
23924SOL    HW120611  13.954  13.221   0.035
23924SOL    HW220612  13.818  13.136   0.004
23925SOL     OW20613  15.359  11.124   1.850
23925SOL    HW120614  15.297  11.180   1.905
23925SOL    HW220615  15.444  11.174   1.834
23926SOL     OW20616   2.872  13.093   0.620
23926SOL    HW120617   2.896  13.185   0.651
23926SOL    HW220618   2.868  13.092   0.520
23927SOL     OW20619  12.601  10.533   1.066
23927SOL    HW120620  12.591  10.576   0.977
23927SOL    HW220621  12.657  10.591   1.125
23928SOL     OW20622  14.925  15.938   6.310
23928SOL    HW120623  14.925  16.037   6.296
23928SOL    HW220624  14.870  15.895   6.238
23929SOL     OW20625   4.108   5.510   0.938
23929SOL    HW120626   4.098   5.513   0.838
23929SOL    HW220627   4.030   5.556   0.980
23930SOL     OW20628   2.947   1.695   0.605
23930SOL    HW120629   2.932   1.780   0.554
23930SOL    HW220630   2.913   1.618   0.551
23931SOL     OW20631   5.693   4.646   7.431
23931SOL    HW120632   5.760   4.571   7.429
23931SOL    HW220633   5.601   4.608   7.441
23932SOL     OW20634   7.821  13.866   8.453
23932SOL    HW120635   7.752  13.803   0.034
23932SOL    HW220636   7.911  13.840   0.036
23933SOL     OW20637   7.435   8.482   7.409
23933SOL    HW120638   7.441   8.542   7.330
23933SOL    HW220639   7.454   8.534   7.492
23934SOL     OW20640   0.315  11.755   8.325
23934SOL    HW120641   0.274  11.829   8.271
23934SOL    HW220642   0.409  11.739   8.295
23935SOL     OW20643  15.684   7.980   1.816
23935SOL    HW120644  15.589   8.011   1.820
23935SOL    HW220645  15.712   7.946   1.905
23936SOL     OW20646  11.854   4.135   7.860
23936SOL    HW120647  11.816   4.043   7.871
23936SOL    HW220648  11.837   4.189   7.943
23937SOL     OW20649   5.933  13.629   0.275
23937SOL    HW120650   5.890  13.558   0.219
23937SOL    HW220651   5.878  13.713   0.270
23938SOL     OW20652  15.562   2.707   1.117
23938SOL    HW120653  15.472   2.667   1.138
23938SOL    HW220654  15.573   2.792   1.170
23939SOL     OW20655   6.636   2.790   0.533
23939SOL    HW120656   6.719   2.784   0.479
23939SOL    HW220657   6.576   2.713   0.510
23940SOL     OW20658   9.348  14.257   7.659
23940SOL    HW120659   9.289  14.320   7.609
23940SOL    HW220660   9.292  14.187   7.703
23941SOL     OW20661   6.016  11.170   0.556
23941SOL    HW120662   6.049  11.261   0.583
23941SOL    HW220663   5.938  11.145   0.612
23942SOL     OW20664   3.225   2.836   1.055
23942SOL    HW120665   3.189   2.878   0.972
23942SOL    HW220666   3.268   2.749   1.033
23943SOL     OW20667  11.880  12.493   8.450
23943SOL    HW120668  11.951  12.460   0.057
23943SOL    HW220669  11.829  12.415   8.413
23944SOL     OW20670   7.681  16.728   6.594
23944SOL    HW120671   7.623  16.695   6.669
23944SOL    HW220672   7.641  16.701   6.507
23945SOL     OW20673   9.360   9.889   1.322
23945SOL    HW120674   9.446   9.902   1.371
23945SOL    HW220675   9.290   9.949   1.361
23946SOL     OW20676  10.304   9.756   1.350
23946SOL    HW120677  10.298   9.799   1.440
23946SOL    HW220678  10.396   9.769   1.312
23947SOL     OW20679   5.961   6.654   0.630
23947SOL    HW120680   5.951   6.753   0.620
23947SOL    HW220681   5.874   6.610   0.606
23948SOL     OW20682  11.076   2.473   6.413
23948SOL    HW120683  11.066   2.510   6.320
23948SOL    HW220684  11.170   2.490   6.445
23949SOL     OW20685   2.651   8.646   8.031
23949SOL    HW120686   2.615   8.591   7.956
23949SOL    HW220687   2.600   8.732   8.037
23950SOL     OW20688   0.030  14.409   1.271
23950SOL    HW120689  16.920  14.405   1.307
23950SOL    HW220690   0.039  14.489   1.213
23951SOL     OW20691  14.178   9.836   2.978
23951SOL    HW120692  14.154   9.906   2.912
23951SOL    HW220693  14.277   9.832   2.988
23952SOL     OW20694  12.216  12.600   2.227
23952SOL    HW120695  12.185  12.506   2.240
23952SOL    HW220696  12.176  12.658   2.298
23953SOL     OW20697   3.103   6.222   1.494
23953SOL    HW120698   3.116   6.321   1.490
23953SOL    HW220699   3.030   6.201   1.559
23954SOL     OW20700  12.679   1.794   1.291
23954SOL    HW120701  12.752   1.779   1.358
23954SOL    HW220702  12.590   1.777   1.334
23955SOL     OW20703  13.444  13.115   1.490
23955SOL    HW120704  13.348  13.134   1.512
23955SOL    HW220705  13.449  13.070   1.400
23956SOL     OW20706   9.035  14.777   5.822
23956SOL    HW120707   8.999  14.688   5.794
23956SOL    HW220708   8.973  14.817   5.890
23957SOL     OW20709   8.213  14.055   6.589
23957SOL    HW120710   8.202  14.123   6.517
23957SOL    HW220711   8.141  13.986   6.581
23958SOL     OW20712   5.343   7.272   1.160
23958SOL    HW120713   5.312   7.351   1.211
23958SOL    HW220714   5.273   7.200   1.164
23959SOL     OW20715  16.563   7.837   0.097
23959SOL    HW120716  16.663   7.839   0.101
23959SOL    HW220717  16.527   7.832   0.190
23960SOL     OW20718   7.454   4.797   0.561
23960SOL    HW120719   7.471   4.700   0.573
23960SOL    HW220720   7.365   4.810   0.516
23961SOL     OW20721   3.162   8.674   0.920
23961SOL    HW120722   3.226   8.633   0.984
23961SOL    HW220723   3.200   8.669   0.827
23962SOL     OW20724  14.647   6.522   7.551
23962SOL    HW120725  14.643   6.534   7.452
23962SOL    HW220726  14.736   6.484   7.577
23963SOL     OW20727   6.822  14.136   1.485
23963SOL    HW120728   6.810  14.196   1.564
23963SOL    HW220729   6.736  14.089   1.464
23964SOL     OW20730   0.968   5.560   6.230
23964SOL    HW120731   1.015   5.628   6.174
23964SOL    HW220732   1.033   5.518   6.294
23965SOL     OW20733   9.521  12.048   8.292
23965SOL    HW120734   9.500  12.142   8.266
23965SOL    HW220735   9.580  12.007   8.223
23966SOL     OW20736  11.956   7.373   8.195
23966SOL    HW120737  11.998   7.315   8.265
23966SOL    HW220738  12.025   7.398   8.128
23967SOL     OW20739  13.430   6.083   0.860
23967SOL    HW120740  13.350   6.142   0.848
23967SOL    HW220741  13.401   5.990   0.881
23968SOL     OW20742   5.184   5.481   0.925
23968SOL    HW120743   5.245   5.511   0.852
23968SOL    HW220744   5.169   5.556   0.989
23969SOL     OW20745   8.654   5.173   8.111
23969SOL    HW120746   8.580   5.236   8.132
23969SOL    HW220747   8.617   5.084   8.086
23970SOL     OW20748   6.012  13.711   8.375
23970SOL    HW120749   5.971  13.792   8.418
23970SOL    HW220750   5.941  13.643   8.357
23971SOL     OW20751   0.017   9.479   0.716
23971SOL    HW120752   0.065   9.405   0.763
23971SOL    HW220753  16.923   9.509   0.773
23972SOL     OW20754  10.979   2.007   6.307
23972SOL    HW120755  11.018   2.068   6.376
23972SOL    HW220756  10.944   2.060   6.230
23973SOL     OW20757   8.521   7.634   6.807
23973SOL    HW120758   8.571   7.720   6.821
23973SOL    HW220759   8.445   7.629   6.873
23974SOL     OW20760   5.357  12.181   0.666
23974SOL    HW120761   5.439  12.192   0.721
23974SOL    HW220762   5.372  12.220   0.575
23975SOL     OW20763  11.635  12.526   8.017
23975SOL    HW120764  11.680  12.614   8.022
23975SOL    HW220765  11.575  12.514   8.097
23976SOL     OW20766  10.939   0.983   0.960
23976SOL    HW120767  10.923   0.886   0.977
23976SOL    HW220768  10.857   1.024   0.920
23977SOL     OW20769   0.501  16.962   1.772
23977SOL    HW120770   0.455   0.002   1.857
23977SOL    HW220771   0.545  16.872   1.781
23978SOL     OW20772  11.022   6.104   0.665
23978SOL    HW120773  11.023   6.115   0.566
23978SOL    HW220774  10.932   6.070   0.694
23979SOL     OW20775   9.894   7.561   0.015
23979SOL    HW120776   9.994   7.559   0.022
23979SOL    HW220777   9.862   7.656   0.024
23980SOL     OW20778  10.866   7.436   2.134
23980SOL    HW120779  10.871   7.502   2.058
23980SOL    HW220780  10.924   7.468   2.209
23981SOL     OW20781  10.021  15.615   8.103
23981SOL    HW120782   9.959  15.693   8.096
23981SOL    HW220783  10.115  15.645   8.084
23982SOL     OW20784   2.221   2.719   8.200
23982SOL    HW120785   2.285   2.782   8.155
23982SOL    HW220786   2.268   2.672   8.275
23983SOL     OW20787  15.695  11.428   6.911
23983SOL    HW120788  15.670  11.414   6.815
23983SOL    HW220789  15.656  11.514   6.943
23984SOL     OW20790  14.313   1.607   8.452
23984SOL    HW120791  14.391   1.620   8.390
23984SOL    HW220792  14.232   1.583   8.399
23985SOL     OW20793  14.709  16.751   8.385
23985SOL    HW120794  14.702  16.692   0.011
23985SOL    HW220795  14.729  16.695   8.304
23986SOL     OW20796  11.928   7.475   0.670
23986SOL    HW120797  11.857   7.541   0.645
23986SOL    HW220798  11.895   7.416   0.743
23987SOL     OW20799  16.493   8.404   0.360
23987SOL    HW120800  16.426   8.460   0.410
23987SOL    HW220801  16.477   8.415   0.262
23988SOL     OW20802   9.973   9.410   7.466
23988SOL    HW120803  10.050   9.428   7.527
23988SOL    HW220804   9.906   9.352   7.512
23989SOL     OW20805   7.501  14.747   1.935
23989SOL    HW120806   7.537  14.820   1.877
23989SOL    HW220807   7.405  14.765   1.955
23990SOL     OW20808  12.071   4.738   0.725
23990SOL    HW120809  12.154   4.729   0.671
23990SOL    HW220810  12.093   4.774   0.815
23991SOL     OW20811   7.675   8.821   0.682
23991SOL    HW120812   7.729   8.823   0.598
23991SOL    HW220813   7.580   8.843   0.662
23992SOL     OW20814  15.253  14.036   6.792
23992SOL    HW120815  15.352  14.028   6.799
23992SOL    HW220816  15.212  13.946   6.779
23993SOL     OW20817  11.795   1.500   1.230
23993SOL    HW120818  11.847   1.527   1.149
23993SOL    HW220819  11.715   1.559   1.240
23994SOL     OW20820  11.718   9.768   7.283
23994SOL    HW120821  11.720   9.736   7.188
23994SOL    HW220822  11.655   9.845   7.291
23995SOL     OW20823  11.372  11.325   1.881
23995SOL    HW120824  11.274  11.308   1.893
23995SOL    HW220825  11.393  11.419   1.909
23996SOL     OW20826   4.170  15.382   8.054
23996SOL    HW120827   4.174  15.283   8.066
23996SOL    HW220828   4.149  15.403   7.958
23997SOL     OW20829   1.887   7.814   1.855
23997SOL    HW120830   1.849   7.723   1.871
23997SOL    HW220831   1.985   7.813   1.872
23998SOL     OW20832   9.226  16.361   1.636
23998SOL    HW120833   9.199  16.318   1.723
23998SOL    HW220834   9.317  16.329   1.610
23999SOL     OW20835   9.853   3.665   8.392
23999SOL    HW120836   9.777   3.729   8.385
23999SOL    HW220837   9.938   3.708   8.361
24000SOL     OW20838   4.884   1.317   0.789
24000SOL    HW120839   4.849   1.326   0.882
24000SOL    HW220840   4.830   1.249   0.739
24001SOL     OW20841  14.771   8.445   2.222
24001SOL    HW120842  14.732   8.362   2.182
24001SOL    HW220843  14.857   8.421   2.269
24002SOL     OW20844  10.457   5.508   0.801
24002SOL    HW120845  10.523   5.505   0.726
24002SOL    HW220846  10.389   5.580   0.783
24003SOL     OW20847  13.180   2.267   1.580
24003SOL    HW120848  13.238   2.347   1.595
24003SOL    HW220849  13.101   2.271   1.641
24004SOL     OW20850   1.047  12.418   1.659
24004SOL    HW120851   1.032  12.319   1.654
24004SOL    HW220852   1.125  12.436   1.719
24005SOL     OW20853  14.911  14.321   0.807
24005SOL    HW120854  15.006  14.311   0.838
24005SOL    HW220855  14.901  14.283   0.715
24006SOL     OW20856   1.653   9.231   0.335
24006SOL    HW120857   1.561   9.191   0.336
24006SOL    HW220858   1.720   9.162   0.309
24007SOL     OW20859  15.589   8.630   6.364
24007SOL    HW120860  15.685   8.645   6.340
24007SOL    HW220861  15.550   8.560   6.305
24008SOL     OW20862   6.158  12.377   7.500
24008SOL    HW120863   6.207  12.452   7.545
24008SOL    HW220864   6.150  12.300   7.563
24009SOL     OW20865   0.719   9.269   7.726
24009SOL    HW120866   0.682   9.337   7.790
24009SOL    HW220867   0.655   9.256   7.650
24010SOL     OW20868   1.812  15.776   7.683
24010SOL    HW120869   1.795  15.870   7.713
24010SOL    HW220870   1.739  15.747   7.621
24011SOL     OW20871  10.094   5.794   5.472
24011SOL    HW120872   9.998   5.793   5.443
24011SOL    HW220873  10.137   5.880   5.445
24012SOL     OW20874  13.579   2.090   7.663
24012SOL    HW120875  13.599   2.040   7.579
24012SOL    HW220876  13.640   2.169   7.671
24013SOL     OW20877   3.492   0.874   1.903
24013SOL    HW120878   3.582   0.849   1.867
24013SOL    HW220879   3.423   0.857   1.833
24014SOL     OW20880  13.926   1.642   1.370
24014SOL    HW120881  14.006   1.604   1.417
24014SOL    HW220882  13.842   1.604   1.409
24015SOL     OW20883  13.982   5.668   7.236
24015SOL    HW120884  14.072   5.710   7.221
24015SOL    HW220885  13.928   5.675   7.152
24016SOL     OW20886   8.574  15.022   7.811
24016SOL    HW120887   8.547  15.014   7.907
24016SOL    HW220888   8.509  14.973   7.754
24017SOL     OW20889   1.274  14.504   1.934
24017SOL    HW120890   1.297  14.503   1.837
24017SOL    HW220891   1.350  14.465   1.987
24018SOL     OW20892  11.546   8.117   1.925
24018SOL    HW120893  11.520   8.148   2.017
24018SOL    HW220894  11.551   8.017   1.924
24019SOL     OW20895   8.051   8.531   6.827
24019SOL    HW120896   8.120   8.459   6.817
24019SOL    HW220897   7.961   8.494   6.807
24020SOL     OW20898   5.074   4.017   7.842
24020SOL    HW120899   5.085   3.943   7.908
24020SOL    HW220900   5.116   3.992   7.755
24021SOL     OW20901   5.649   9.101   6.761
24021SOL    HW120902   5.671   9.196   6.784
24021SOL    HW220903   5.701   9.074   6.680
24022SOL     OW20904  13.399  16.368   7.984
24022SOL    HW120905  13.492  16.405   7.988
24022SOL    HW220906  13.336  16.430   8.031
24023SOL     OW20907  11.932  15.621   1.080
24023SOL    HW120908  11.902  15.536   1.038
24023SOL    HW220909  12.012  15.603   1.138
24024SOL     OW20910   0.104   4.525   1.697
24024SOL    HW120911   0.152   4.609   1.723
24024SOL    HW220912   0.131   4.451   1.758
24025SOL     OW20913  15.880   8.220   7.337
24025SOL    HW120914  15.868   8.194   7.242
24025SOL    HW220915  15.837   8.309   7.353
24026SOL     OW20916  11.566  14.904   0.153
24026SOL    HW120917  11.578  14.975   0.083
24026SOL    HW220918  11.559  14.815   0.109
24027SOL     OW20919   9.298   5.127   7.002
24027SOL    HW120920   9.361   5.205   7.004
24027SOL    HW220921   9.314   5.069   7.082
24028SOL     OW20922  11.280   1.043   7.128
24028SOL    HW120923  11.189   1.007   7.108
24028SOL    HW220924  11.292   1.131   7.081
24029SOL     OW20925  15.383  13.388   1.833
24029SOL    HW120926  15.474  13.383   1.791
24029SOL    HW220927  15.393  13.389   1.932
24030SOL     OW20928   7.658   8.497   2.097
24030SOL    HW120929   7.678   8.468   2.190
24030SOL    HW220930   7.681   8.594   2.086
24031SOL     OW20931   5.779  11.894   1.277
24031SOL    HW120932   5.809  11.987   1.254
24031SOL    HW220933   5.687  11.880   1.243
24032SOL     OW20934   7.488   6.627   6.689
24032SOL    HW120935   7.422   6.698   6.664
24032SOL    HW220936   7.568   6.634   6.630
24033SOL     OW20937   0.849   8.184   1.028
24033SOL    HW120938   0.778   8.179   1.098
24033SOL    HW220939   0.850   8.276   0.988
24034SOL     OW20940  14.667   8.671   0.793
24034SOL    HW120941  14.682   8.632   0.884
24034SOL    HW220942  14.686   8.769   0.794
24035SOL     OW20943   0.305   1.886   0.406
24035SOL    HW120944   0.342   1.897   0.498
24035SOL    HW220945   0.213   1.925   0.402
24036SOL     OW20946   5.688  14.109   6.910
24036SOL    HW120947   5.749  14.189   6.913
24036SOL    HW220948   5.606  14.131   6.857
24037SOL     OW20949  16.890   1.241   2.507
24037SOL    HW120950  16.951   1.295   2.564
24037SOL    HW220951  16.834   1.182   2.564
24038SOL     OW20952   4.027   2.683   7.288
24038SOL    HW120953   4.071   2.593   7.298
24038SOL    HW220954   3.969   2.683   7.207
24039SOL     OW20955   2.309  11.993   7.138
24039SOL    HW120956   2.352  12.084   7.138
24039SOL    HW220957   2.381  11.923   7.134
24040SOL     OW20958   7.002   7.203   1.334
24040SOL    HW120959   7.020   7.120   1.386
24040SOL    HW220960   6.954   7.180   1.250
24041SOL     OW20961   7.020  16.947   8.035
24041SOL    HW120962   6.983  16.961   7.943
24041SOL    HW220963   6.957  16.890   8.088
24042SOL     OW20964   8.888  12.793   1.640
24042SOL    HW120965   8.928  12.704   1.661
24042SOL    HW220966   8.948  12.865   1.675
24043SOL     OW20967  14.830   8.172   7.564
24043SOL    HW120968  14.764   8.244   7.583
24043SOL    HW220969  14.903   8.208   7.506
24044SOL     OW20970   9.248   0.158   2.101
24044SOL    HW120971   9.274   0.127   2.192
24044SOL    HW220972   9.282   0.251   2.086
24045SOL     OW20973  16.407  12.081   0.461
24045SOL    HW120974  16.351  12.161   0.439
24045SOL    HW220975  16.353  12.016   0.514
24046SOL     OW20976   6.826   4.385   0.804
24046SOL    HW120977   6.738   4.341   0.787
24046SOL    HW220978   6.854   4.368   0.899
24047SOL     OW20979  13.521  10.027   7.495
24047SOL    HW120980  13.618  10.050   7.484
24047SOL    HW220981  13.465  10.098   7.452
24048SOL     OW20982  11.112   2.540   8.235
24048SOL    HW120983  11.149   2.448   8.253
24048SOL    HW220984  11.018   2.545   8.270
24049SOL     OW20985  16.845   6.195   8.143
24049SOL    HW120986  16.779   6.234   8.207
24049SOL    HW220987  16.893   6.119   8.187
24050SOL     OW20988  10.201   8.180   0.512
24050SOL    HW120989  10.197   8.272   0.474
24050SOL    HW220990  10.297   8.156   0.529
24051SOL     OW20991   3.908   6.230   0.529
24051SOL    HW120992   3.864   6.303   0.476
24051SOL    HW220993   3.838   6.168   0.564
24052SOL     OW20994  15.373   0.394   0.736
24052SOL    HW120995  15.323   0.472   0.698
24052SOL    HW220996  15.443   0.427   0.799
24053SOL     OW20997  13.790  16.336   6.572
24053SOL    HW120998  13.705  16.286   6.586
24053SOL    HW220999  13.864  16.272   6.552
24054SOL     OW21000  11.867   0.210   6.900
24054SOL    HW121001  11.906   0.224   6.991
24054SOL    HW221002  11.869   0.113   6.877
24055SOL     OW21003  12.232   5.533   7.163
24055SOL    HW121004  12.190   5.543   7.253
24055SOL    HW221005  12.166   5.559   7.093
24056SOL     OW21006   7.313   4.010   0.832
24056SOL    HW121007   7.235   4.040   0.777
24056SOL    HW221008   7.282   3.988   0.925
24057SOL     OW21009   8.689   5.094   0.315
24057SOL    HW121010   8.715   5.163   0.247
24057SOL    HW221011   8.729   5.006   0.291
24058SOL     OW21012  13.665   0.622   0.230
24058SOL    HW121013  13.687   0.632   0.327
24058SOL    HW221014  13.567   0.612   0.219
24059SOL     OW21015   9.528   3.157   0.854
24059SOL    HW121016   9.520   3.242   0.906
24059SOL    HW221017   9.622   3.146   0.822
24060SOL     OW21018   3.981  12.344   7.402
24060SOL    HW121019   3.896  12.396   7.397
24060SOL    HW221020   4.044  12.390   7.465
24061SOL     OW21021  13.753  16.307   1.307
24061SOL    HW121022  13.755  16.330   1.404
24061SOL    HW221023  13.658  16.306   1.275
24062SOL     OW21024   7.352  13.405   1.184
24062SOL    HW121025   7.314  13.452   1.264
24062SOL    HW221026   7.448  13.382   1.201
24063SOL     OW21027  15.563   7.272   6.578
24063SOL    HW121028  15.542   7.326   6.496
24063SOL    HW221029  15.626   7.199   6.554
24064SOL     OW21030   2.786   2.878   7.480
24064SOL    HW121031   2.753   2.960   7.526
24064SOL    HW221032   2.730   2.860   7.399
24065SOL     OW21033  11.150   6.781   7.182
24065SOL    HW121034  11.081   6.760   7.251
24065SOL    HW221035  11.194   6.868   7.204
24066SOL     OW21036   9.546   9.554   8.193
24066SOL    HW121037   9.516   9.614   8.119
24066SOL    HW221038   9.596   9.607   8.261
24067SOL     OW21039   4.509   2.625   0.555
24067SOL    HW121040   4.500   2.664   0.646
24067SOL    HW221041   4.458   2.538   0.551
24068SOL     OW21042  10.254   3.544   7.754
24068SOL    HW121043  10.257   3.487   7.836
24068SOL    HW221044  10.205   3.495   7.682
24069SOL     OW21045   7.144  16.707   1.640
24069SOL    HW121046   7.069  16.766   1.674
24069SOL    HW221047   7.214  16.701   1.711
24070SOL     OW21048  11.011   4.363   1.628
24070SOL    HW121049  11.016   4.267   1.656
24070SOL    HW221050  11.080   4.415   1.679
24071SOL     OW21051   1.967  15.710   2.289
24071SOL    HW121052   2.055  15.737   2.250
24071SOL    HW221053   1.971  15.718   2.389
24072SOL     OW21054  15.163  14.898   1.605
24072SOL    HW121055  15.089  14.952   1.645
24072SOL    HW221056  15.247  14.952   1.605
24073SOL     OW21057   6.777   3.469   8.135
24073SOL    HW121058   6.718   3.393   8.161
24073SOL    HW221059   6.744   3.509   8.049
24074SOL     OW21060   9.746  11.318   8.011
24074SOL    HW121061   9.827  11.292   8.064
24074SOL    HW221062   9.680  11.242   8.011
24075SOL     OW21063  12.438   3.855   8.085
24075SOL    HW121064  12.536   3.866   8.071
24075SOL    HW221065  12.413   3.892   8.175
24076SOL     OW21066   2.857   7.322   1.415
24076SOL    HW121067   2.769   7.365   1.435
24076SOL    HW221068   2.842   7.227   1.387
24077SOL     OW21069   2.417  10.393   1.156
24077SOL    HW121070   2.356  10.327   1.200
24077SOL    HW221071   2.415  10.379   1.057
24078SOL     OW21072   7.651  16.541   1.852
24078SOL    HW121073   7.739  16.506   1.884
24078SOL    HW221074   7.590  16.465   1.833
24079SOL     OW21075   0.762   5.693   1.029
24079SOL    HW121076   0.721   5.692   0.938
24079SOL    HW221077   0.721   5.766   1.084
24080SOL     OW21078  14.273  14.006   7.334
24080SOL    HW121079  14.291  13.911   7.311
24080SOL    HW221080  14.181  14.015   7.372
24081SOL     OW21081   7.261  16.826   7.988
24081SOL    HW121082   7.172  16.870   7.999
24081SOL    HW221083   7.310  16.828   8.075
24082SOL     OW21084  13.322   2.610   1.407
24082SOL    HW121085  13.330   2.562   1.494
24082SOL    HW221086  13.250   2.679   1.414
24083SOL     OW21087   0.176   0.331   0.339
24083SOL    HW121088   0.256   0.310   0.282
24083SOL    HW221089   0.207   0.366   0.427
24084SOL     OW21090  13.317  12.688   1.813
24084SOL    HW121091  13.322  12.786   1.832
24084SOL    HW221092  13.341  12.637   1.896
24085SOL     OW21093   0.187  16.395   8.379
24085SOL    HW121094   0.218  16.435   0.012
24085SOL    HW221095   0.255  16.330   8.346
24086SOL     OW21096   5.548   5.271   0.929
24086SOL    HW121097   5.542   5.274   0.829
24086SOL    HW221098   5.616   5.202   0.956
24087SOL     OW21099   4.025   7.186   7.492
24087SOL    HW121100   4.054   7.124   7.419
24087SOL    HW221101   4.061   7.153   7.580
24088SOL     OW21102  15.375   4.997   6.685
24088SOL    HW121103  15.277   5.005   6.706
24088SOL    HW221104  15.386   4.945   6.601
24089SOL     OW21105   7.601  13.554   7.935
24089SOL    HW121106   7.540  13.520   7.863
24089SOL    HW221107   7.569  13.521   8.024
24090SOL     OW21108   2.557   8.439   8.227
24090SOL    HW121109   2.611   8.475   8.150
24090SOL    HW221110   2.478   8.498   8.243
24091SOL     OW21111   7.171   4.744   7.256
24091SOL    HW121112   7.174   4.663   7.198
24091SOL    HW221113   7.191   4.826   7.201
24092SOL     OW21114   6.161  12.154   7.960
24092SOL    HW121115   6.144  12.168   8.057
24092SOL    HW221116   6.196  12.239   7.920
24093SOL     OW21117   0.331  11.480   0.085
24093SOL    HW121118   0.399  11.446   0.020
24093SOL    HW221119   0.249  11.509   0.036
24094SOL     OW21120   8.618  16.889   1.381
24094SOL    HW121121   8.695  16.892   1.444
24094SOL    HW221122   8.651  16.900   1.287
24095SOL     OW21123  13.209   6.132   7.773
24095SOL    HW121124  13.278   6.167   7.837
24095SOL    HW221125  13.149   6.069   7.822
24096SOL     OW21126   8.366  10.511   7.811
24096SOL    HW121127   8.452  10.460   7.815
24096SOL    HW221128   8.316  10.487   7.727
24097SOL     OW21129   2.407   1.552   0.781
24097SOL    HW121130   2.470   1.535   0.705
24097SOL    HW221131   2.456   1.591   0.858
24098SOL     OW21132  15.585  14.402   7.852
24098SOL    HW121133  15.525  14.479   7.875
24098SOL    HW221134  15.532  14.317   7.854
24099SOL     OW21135  13.812   7.015   2.050
24099SOL    HW121136  13.773   7.066   1.973
24099SOL    HW221137  13.887   6.959   2.018
24100SOL     OW21138  13.465  11.008   1.297
24100SOL    HW121139  13.540  10.943   1.312
24100SOL    HW221140  13.415  11.021   1.382
24101SOL     OW21141  14.079   1.072   7.437
24101SOL    HW121142  14.038   1.015   7.508
24101SOL    HW221143  14.053   1.167   7.451
24102SOL     OW21144   2.647   4.605   0.482
24102SOL    HW121145   2.734   4.568   0.513
24102SOL    HW221146   2.637   4.700   0.511
24103SOL     OW21147   0.693   8.833   1.758
24103SOL    HW121148   0.706   8.835   1.857
24103SOL    HW221149   0.709   8.924   1.720
24104SOL     OW21150  16.447   2.192   7.241
24104SOL    HW121151  16.410   2.135   7.168
24104SOL    HW221152  16.508   2.261   7.202
24105SOL     OW21153   3.473  11.970   7.631
24105SOL    HW121154   3.466  11.934   7.724
24105SOL    HW221155   3.481  11.894   7.566
24106SOL     OW21156   0.093  10.881   0.094
24106SOL    HW121157   0.021  10.873   0.026
24106SOL    HW221158   0.121  10.977   0.101
24107SOL     OW21159  11.799   0.050   7.649
24107SOL    HW121160  11.729  16.964   7.667
24107SOL    HW221161  11.882   0.027   7.700
24108SOL     OW21162   1.262   6.098   7.272
24108SOL    HW121163   1.265   6.133   7.366
24108SOL    HW221164   1.354   6.067   7.245
24109SOL     OW21165  14.454   2.308   7.184
24109SOL    HW121166  14.488   2.287   7.276
24109SOL    HW221167  14.529   2.297   7.118
24110SOL     OW21168  16.005   4.750   0.325
24110SOL    HW121169  16.103   4.762   0.343
24110SOL    HW221170  15.962   4.705   0.403
24111SOL     OW21171   2.547   4.791   6.778
24111SOL    HW121172   2.558   4.720   6.708
24111SOL    HW221173   2.450   4.813   6.788
24112SOL     OW21174   4.284   6.948   1.587
24112SOL    HW121175   4.219   6.991   1.650
24112SOL    HW221176   4.370   6.999   1.589
24113SOL     OW21177   3.099   8.172   1.724
24113SOL    HW121178   3.064   8.232   1.797
24113SOL    HW221179   3.176   8.118   1.759
24114SOL     OW21180  12.627   4.118   8.416
24114SOL    HW121181  12.551   4.143   8.357
24114SOL    HW221182  12.614   4.024   8.450
24115SOL     OW21183  11.340   7.609   6.730
24115SOL    HW121184  11.305   7.632   6.638
24115SOL    HW221185  11.407   7.535   6.723
24116SOL     OW21186   2.065  13.284   1.527
24116SOL    HW121187   2.036  13.227   1.450
24116SOL    HW221188   2.152  13.327   1.505
24117SOL     OW21189  12.746  11.327   7.315
24117SOL    HW121190  12.800  11.269   7.254
24117SOL    HW221191  12.794  11.338   7.402
24118SOL     OW21192   2.379   2.905   7.837
24118SOL    HW121193   2.379   3.005   7.831
24118SOL    HW221194   2.384   2.878   7.933
24119SOL     OW21195   3.300   0.766   8.086
24119SOL    HW121196   3.219   0.712   8.061
24119SOL    HW221197   3.381   0.725   8.044
24120SOL     OW21198  14.190   3.011   8.108
24120SOL    HW121199  14.211   3.108   8.123
24120SOL    HW221200  14.257   2.971   8.046
24121SOL     OW21201   4.288  12.482   0.021
24121SOL    HW121202   4.194  12.456   8.451
24121SOL    HW221203   4.301  12.580   0.004
24122SOL     OW21204  11.531  14.636   2.376
24122SOL    HW121205  11.582  14.551   2.383
24122SOL    HW221206  11.485  14.655   2.463
24123SOL     OW21207   0.338  13.554   7.622
24123SOL    HW121208   0.351  13.646   7.659
24123SOL    HW221209   0.354  13.555   7.523
24124SOL     OW21210  10.506   0.834   1.262
24124SOL    HW121211  10.507   0.934   1.264
24124SOL    HW221212  10.556   0.799   1.342
24125SOL     OW21213   7.657   8.403   7.980
24125SOL    HW121214   7.708   8.435   8.060
24125SOL    HW221215   7.693   8.315   7.951
24126SOL     OW21216   0.037   8.646   7.813
24126SOL    HW121217   0.046   8.721   7.878
24126SOL    HW221218   0.074   8.562   7.853
24127SOL     OW21219  16.672   9.534   1.967
24127SOL    HW121220  16.629   9.447   1.992
24127SOL    HW221221  16.603   9.597   1.934
24128SOL     OW21222  13.253  14.992   6.510
24128SOL    HW121223  13.179  14.930   6.536
24128SOL    HW221224  13.288  14.967   6.420
24129SOL     OW21225   1.741   0.691   1.553
24129SOL    HW121226   1.689   0.767   1.514
24129SOL    HW221227   1.681   0.613   1.569
24130SOL     OW21228   9.829   6.030   0.772
24130SOL    HW121229   9.924   6.033   0.804
24130SOL    HW221230   9.777   5.968   0.830
24131SOL     OW21231   0.325  16.183   6.791
24131SOL    HW121232   0.388  16.189   6.868
24131SOL    HW221233   0.312  16.086   6.768
24132SOL     OW21234   6.060  15.961   8.138
24132SOL    HW121235   6.006  16.030   8.186
24132SOL    HW221236   6.116  16.005   8.068
24133SOL     OW21237  15.444   3.008   6.854
24133SOL    HW121238  15.428   2.931   6.793
24133SOL    HW221239  15.386   3.085   6.827
24134SOL     OW21240   6.995   3.128   6.748
24134SOL    HW121241   6.911   3.074   6.736
24134SOL    HW221242   7.008   3.188   6.670
24135SOL     OW21243   3.941  14.093   7.104
24135SOL    HW121244   3.939  14.035   7.022
24135SOL    HW221245   3.874  14.060   7.170
24136SOL     OW21246  12.298   6.424   7.775
24136SOL    HW121247  12.365   6.398   7.706
24136SOL    HW221248  12.206   6.415   7.738
24137SOL     OW21249   3.274   4.314   0.662
24137SOL    HW121250   3.340   4.270   0.601
24137SOL    HW221251   3.304   4.305   0.756
24138SOL     OW21252  13.153   3.582   0.754
24138SOL    HW121253  13.217   3.566   0.829
24138SOL    HW221254  13.204   3.603   0.670
24139SOL     OW21255   1.222   6.949   7.580
24139SOL    HW121256   1.251   6.860   7.545
24139SOL    HW221257   1.151   6.987   7.521
24140SOL     OW21258   8.964   2.181   0.036
24140SOL    HW121259   8.945   2.120   8.413
24140SOL    HW221260   8.879   2.223   0.067
24141SOL     OW21261  12.365   5.410   0.751
24141SOL    HW121262  12.339   5.507   0.747
24141SOL    HW221263  12.305   5.363   0.817
24142SOL     OW21264   7.981   7.696   8.241
24142SOL    HW121265   8.000   7.794   8.236
24142SOL    HW221266   8.000   7.663   8.333
24143SOL     OW21267   3.940   2.010   8.186
24143SOL    HW121268   3.955   2.044   8.093
24143SOL    HW221269   4.027   2.011   8.236
24144SOL     OW21270  10.319   7.932   7.295
24144SOL    HW121271  10.269   7.925   7.382
24144SOL    HW221272  10.396   7.995   7.305
24145SOL     OW21273   1.990  15.639   6.850
24145SOL    HW121274   2.048  15.689   6.914
24145SOL    HW221275   2.019  15.543   6.847
24146SOL     OW21276   6.703  13.653   1.898
24146SOL    HW121277   6.607  13.627   1.889
24146SOL    HW221278   6.751  13.586   1.954
24147SOL     OW21279  12.127  10.070   7.310
24147SOL    HW121280  12.201  10.085   7.375
24147SOL    HW221281  12.090   9.978   7.323
24148SOL     OW21282  16.952  16.299   7.203
24148SOL    HW121283   0.018  16.243   7.138
24148SOL    HW221284  16.982  16.278   7.296
24149SOL     OW21285  13.913   3.056   6.290
24149SOL    HW121286  13.827   3.019   6.325
24149SOL    HW221287  13.921   3.033   6.193
24150SOL     OW21288   5.436   6.526   1.819
24150SOL    HW121289   5.484   6.445   1.853
24150SOL    HW221290   5.350   6.537   1.869
24151SOL     OW21291   6.541  10.925   1.025
24151SOL    HW121292   6.581  11.007   1.066
24151SOL    HW221293   6.515  10.943   0.930
24152SOL     OW21294   6.031   6.875   7.141
24152SOL    HW121295   6.112   6.825   7.111
24152SOL    HW221296   6.023   6.960   7.088
24153SOL     OW21297   0.723  16.368   7.482
24153SOL    HW121298   0.706  16.420   7.566
24153SOL    HW221299   0.747  16.274   7.505
24154SOL     OW21300  14.083   8.535   1.127
24154SOL    HW121301  14.004   8.597   1.130
24154SOL    HW221302  14.053   8.442   1.146
24155SOL     OW21303   1.159  11.280   0.261
24155SOL    HW121304   1.236  11.287   0.324
24155SOL    HW221305   1.106  11.365   0.264
24156SOL     OW21306   0.195   8.182   8.001
24156SOL    HW121307   0.267   8.117   8.025
24156SOL    HW221308   0.119   8.173   8.065
24157SOL     OW21309  12.804  13.547   7.555
24157SOL    HW121310  12.882  13.584   7.505
24157SOL    HW221311  12.808  13.447   7.556
24158SOL     OW21312  16.732   9.023   0.141
24158SOL    HW121313  16.822   9.052   0.174
24158SOL    HW221314  16.661   9.072   0.192
24159SOL     OW21315  10.680   8.700   2.384
24159SOL    HW121316  10.669   8.635   2.459
24159SOL    HW221317  10.703   8.790   2.420
24160SOL     OW21318   0.804   5.454   7.840
24160SOL    HW121319   0.743   5.437   7.917
24160SOL    HW221320   0.758   5.429   7.755
24161SOL     OW21321   2.347   0.738   1.000
24161SOL    HW121322   2.265   0.681   1.008
24161SOL    HW221323   2.355   0.770   0.905
24162SOL     OW21324   5.438   2.431   8.235
24162SOL    HW121325   5.382   2.499   8.281
24162SOL    HW221326   5.532   2.465   8.226
24163SOL     OW21327  13.628   1.976   8.249
24163SOL    HW121328  13.617   1.883   8.215
24163SOL    HW221329  13.663   2.034   8.176
24164SOL     OW21330   5.234   0.218   6.753
24164SOL    HW121331   5.262   0.303   6.708
24164SOL    HW221332   5.183   0.241   6.837
24165SOL     OW21333   4.189   3.106   1.393
24165SOL    HW121334   4.221   3.126   1.486
24165SOL    HW221335   4.134   3.023   1.395
24166SOL     OW21336  14.082   4.655   6.210
24166SOL    HW121337  13.991   4.653   6.168
24166SOL    HW221338  14.100   4.567   6.254
24167SOL     OW21339  13.697   7.692   7.004
24167SOL    HW121340  13.759   7.697   7.083
24167SOL    HW221341  13.737   7.743   6.928
24168SOL     OW21342   6.502  12.873   6.913
24168SOL    HW121343   6.480  12.915   7.002
24168SOL    HW221344   6.427  12.888   6.849
24169SOL     OW21345   0.896  14.247   6.952
24169SOL    HW121346   0.801  14.218   6.960
24169SOL    HW221347   0.915  14.275   6.858
24170SOL     OW21348   1.650  16.831   1.082
24170SOL    HW121349   1.682  16.917   1.041
24170SOL    HW221350   1.587  16.785   1.020
24171SOL     OW21351   1.734  10.114   7.111
24171SOL    HW121352   1.715  10.079   7.203
24171SOL    HW221353   1.652  10.159   7.075
24172SOL     OW21354  10.639  12.227   0.900
24172SOL    HW121355  10.736  12.251   0.902
24172SOL    HW221356  10.585  12.305   0.867
24173SOL     OW21357  14.057  16.529   1.019
24173SOL    HW121358  14.039  16.455   0.955
24173SOL    HW221359  13.977  16.542   1.078
24174SOL     OW21360  13.329  15.693   1.027
24174SOL    HW121361  13.390  15.631   0.977
24174SOL    HW221362  13.372  15.783   1.033
24175SOL     OW21363   6.390   0.965   0.283
24175SOL    HW121364   6.365   0.906   0.207
24175SOL    HW221365   6.368   0.920   0.369
24176SOL     OW21366   3.752   8.025   0.657
24176SOL    HW121367   3.685   7.961   0.694
24176SOL    HW221368   3.835   7.975   0.631
24177SOL     OW21369   1.192   3.399   6.262
24177SOL    HW121370   1.169   3.491   6.296
24177SOL    HW221371   1.111   3.357   6.222
24178SOL     OW21372  10.627   1.482   7.036
24178SOL    HW121373  10.685   1.562   7.019
24178SOL    HW221374  10.568   1.467   6.957
24179SOL     OW21375   6.045  13.085   8.050
24179SOL    HW121376   5.964  13.114   7.999
24179SOL    HW221377   6.087  13.164   8.094
24180SOL     OW21378  16.803   4.822   6.460
24180SOL    HW121379  16.858   4.808   6.378
24180SOL    HW221380  16.798   4.737   6.512
24181SOL     OW21381  13.564   3.349   1.761
24181SOL    HW121382  13.539   3.432   1.810
24181SOL    HW221383  13.568   3.272   1.824
24182SOL     OW21384   1.386  13.747   1.102
24182SOL    HW121385   1.393  13.737   1.002
24182SOL    HW221386   1.465  13.797   1.136
24183SOL     OW21387   2.784  10.250   0.260
24183SOL    HW121388   2.861  10.315   0.257
24183SOL    HW221389   2.795  10.189   0.338
24184SOL     OW21390   0.247  12.651   1.143
24184SOL    HW121391   0.247  12.551   1.147
24184SOL    HW221392   0.175  12.686   1.203
24185SOL     OW21393   5.660  13.964   1.002
24185SOL    HW121394   5.755  13.989   1.022
24185SOL    HW221395   5.608  13.960   1.087
24186SOL     OW21396   2.263  16.412   1.477
24186SOL    HW121397   2.236  16.380   1.568
24186SOL    HW221398   2.180  16.434   1.424
24187SOL     OW21399  15.605   4.716   7.098
24187SOL    HW121400  15.568   4.781   7.032
24187SOL    HW221401  15.553   4.722   7.184
24188SOL     OW21402  11.805   4.248   8.114
24188SOL    HW121403  11.899   4.217   8.123
24188SOL    HW221404  11.785   4.316   8.185
24189SOL     OW21405   3.071   2.822   0.395
24189SOL    HW121406   3.026   2.832   0.307
24189SOL    HW221407   3.148   2.886   0.401
24190SOL     OW21408   4.788   9.173   8.284
24190SOL    HW121409   4.722   9.204   8.352
24190SOL    HW221410   4.880   9.197   8.313
24191SOL     OW21411  10.336   0.905   7.367
24191SOL    HW121412  10.419   0.960   7.372
24191SOL    HW221413  10.336   0.837   7.440
24192SOL     OW21414   1.219   6.028   8.067
24192SOL    HW121415   1.126   6.063   8.078
24192SOL    HW221416   1.239   5.963   8.140
24193SOL     OW21417  13.802   9.592   7.864
24193SOL    HW121418  13.862   9.562   7.938
24193SOL    HW221419  13.783   9.514   7.803
24194SOL     OW21420  14.815   3.968   8.217
24194SOL    HW121421  14.722   3.981   8.251
24194SOL    HW221422  14.853   4.056   8.188
24195SOL     OW21423   4.790  13.154   7.724
24195SOL    HW121424   4.806  13.135   7.627
24195SOL    HW221425   4.738  13.240   7.732
24196SOL     OW21426  10.283  10.765   6.656
24196SOL    HW121427  10.279  10.862   6.634
24196SOL    HW221428  10.356  10.722   6.603
24197SOL     OW21429  15.667  11.961   2.173
24197SOL    HW121430  15.655  11.946   2.075
24197SOL    HW221431  15.764  11.977   2.193
24198SOL     OW21432   0.509  13.501   0.771
24198SOL    HW121433   0.479  13.406   0.765
24198SOL    HW221434   0.551  13.517   0.860
24199SOL     OW21435  16.389  15.953   0.936
24199SOL    HW121436  16.479  15.995   0.946
24199SOL    HW221437  16.342  15.952   1.025
24200SOL     OW21438  12.651   3.471   7.164
24200SOL    HW121439  12.575   3.514   7.211
24200SOL    HW221440  12.684   3.531   7.091
24201SOL     OW21441   1.454   0.412   7.905
24201SOL    HW121442   1.368   0.373   7.939
24201SOL    HW221443   1.463   0.392   7.807
24202SOL     OW21444   4.654   0.443   7.065
24202SOL    HW121445   4.563   0.476   7.038
24202SOL    HW221446   4.644   0.366   7.128
24203SOL     OW21447   1.128   5.855   7.253
24203SOL    HW121448   1.030   5.877   7.257
24203SOL    HW221449   1.181   5.940   7.258
24204SOL     OW21450   4.251  13.524   0.986
24204SOL    HW121451   4.240  13.623   0.978
24204SOL    HW221452   4.331  13.495   0.933
24205SOL     OW21453  13.753  14.588   7.163
24205SOL    HW121454  13.848  14.604   7.136
24205SOL    HW221455  13.695  14.662   7.128
24206SOL     OW21456   6.825   0.004   1.969
24206SOL    HW121457   6.768   0.045   2.039
24206SOL    HW221458   6.864  16.902   2.003
24207SOL     OW21459   2.539   7.760   0.944
24207SOL    HW121460   2.632   7.727   0.934
24207SOL    HW221461   2.524   7.838   0.883
24208SOL     OW21462   0.448   6.580   0.551
24208SOL    HW121463   0.499   6.567   0.467
24208SOL    HW221464   0.375   6.647   0.536
24209SOL     OW21465   7.101  12.256   7.303
24209SOL    HW121466   7.153  12.192   7.360
24209SOL    HW221467   7.145  12.346   7.306
24210SOL     OW21468  13.595   4.010   7.375
24210SOL    HW121469  13.644   3.980   7.293
24210SOL    HW221470  13.515   3.952   7.389
24211SOL     OW21471  14.772   7.404   0.489
24211SOL    HW121472  14.802   7.497   0.467
24211SOL    HW221473  14.712   7.370   0.416
24212SOL     OW21474   1.840  16.807   0.136
24212SOL    HW121475   1.900  16.730   0.111
24212SOL    HW221476   1.844  16.821   0.234
24213SOL     OW21477  10.295  13.203   1.759
24213SOL    HW121478  10.252  13.251   1.683
24213SOL    HW221479  10.230  13.139   1.800
24214SOL     OW21480  12.627   3.522   1.350
24214SOL    HW121481  12.702   3.528   1.416
24214SOL    HW221482  12.662   3.491   1.262
24215SOL     OW21483   7.110  14.789   0.149
24215SOL    HW121484   7.208  14.801   0.168
24215SOL    HW221485   7.086  14.840   0.066
24216SOL     OW21486  10.486   5.274   6.868
24216SOL    HW121487  10.471   5.370   6.892
24216SOL    HW221488  10.400   5.224   6.876
24217SOL     OW21489  12.614   3.465   6.771
24217SOL    HW121490  12.582   3.373   6.747
24217SOL    HW221491  12.558   3.534   6.726
24218SOL     OW21492   3.172   6.959   8.133
24218SOL    HW121493   3.196   7.036   8.075
24218SOL    HW221494   3.078   6.969   8.166
24219SOL     OW21495   9.510   9.027   6.607
24219SOL    HW121496   9.431   9.030   6.544
24219SOL    HW221497   9.561   8.943   6.592
24220SOL     OW21498   7.413  10.518   8.437
24220SOL    HW121499   7.421  10.617   8.440
24220SOL    HW221500   7.320  10.493   8.409
24221SOL     OW21501  10.762   9.424   8.055
24221SOL    HW121502  10.732   9.336   8.018
24221SOL    HW221503  10.712   9.498   8.009
24222SOL     OW21504   2.895  13.503   1.151
24222SOL    HW121505   2.938  13.586   1.186
24222SOL    HW221506   2.834  13.465   1.220
24223SOL     OW21507   6.805   0.935   6.778
24223SOL    HW121508   6.773   0.843   6.756
24223SOL    HW221509   6.727   0.996   6.792
24224SOL     OW21510   4.255  15.172   8.431
24224SOL    HW121511   4.303  15.085   8.417
24224SOL    HW221512   4.277  15.207   0.068
24225SOL     OW21513   9.869  15.349   8.347
24225SOL    HW121514   9.920  15.350   8.260
24225SOL    HW221515   9.915  15.286   8.410
24226SOL     OW21516  15.088  13.958   0.078
24226SOL    HW121517  15.098  13.971   8.433
24226SOL    HW221518  15.143  14.026   0.126
24227SOL     OW21519   4.060  12.893   0.655
24227SOL    HW121520   4.109  12.841   0.725
24227SOL    HW221521   4.085  12.989   0.661
24228SOL     OW21522   9.362   6.995   1.265
24228SOL    HW121523   9.293   7.067   1.275
24228SOL    HW221524   9.385   6.958   1.355
24229SOL     OW21525   2.223   8.142   8.077
24229SOL    HW121526   2.157   8.119   8.149
24229SOL    HW221527   2.261   8.233   8.094
24230SOL     OW21528  12.090  15.423   7.475
24230SOL    HW121529  12.169  15.484   7.477
24230SOL    HW221530  12.032  15.447   7.397
24231SOL     OW21531   2.046   6.368   7.462
24231SOL    HW121532   2.070   6.366   7.559
24231SOL    HW221533   2.087   6.448   7.419
24232SOL     OW21534   2.294   1.298   8.223
24232SOL    HW121535   2.201   1.276   8.251
24232SOL    HW221536   2.334   1.221   8.174
24233SOL     OW21537   9.827  14.020   7.686
24233SOL    HW121538   9.743  14.071   7.705
24233SOL    HW221539   9.827  13.993   7.589
24234SOL     OW21540   9.382   6.940   1.543
24234SOL    HW121541   9.443   6.881   1.595
24234SOL    HW221542   9.370   7.027   1.592
24235SOL     OW21543   1.705  10.690   6.748
24235SOL    HW121544   1.746  10.600   6.766
24235SOL    HW221545   1.608  10.679   6.724
24236SOL     OW21546   4.687   5.916   6.861
24236SOL    HW121547   4.612   5.909   6.795
24236SOL    HW221548   4.772   5.885   6.818
24237SOL     OW21549   4.166   6.526   1.412
24237SOL    HW121550   4.176   6.578   1.497
24237SOL    HW221551   4.243   6.464   1.401
24238SOL     OW21552   9.237   7.196   7.975
24238SOL    HW121553   9.258   7.123   7.910
24238SOL    HW221554   9.157   7.170   8.029
24239SOL     OW21555  13.309  15.005   1.397
24239SOL    HW121556  13.297  15.101   1.420
24239SOL    HW221557  13.406  14.982   1.396
24240SOL     OW21558  16.576   8.250   1.232
24240SOL    HW121559  16.522   8.302   1.166
24240SOL    HW221560  16.583   8.302   1.317
24241SOL     OW21561   7.867   1.717   1.552
24241SOL    HW121562   7.928   1.758   1.620
24241SOL    HW221563   7.780   1.694   1.595
24242SOL     OW21564   2.054  13.180   2.586
24242SOL    HW121565   2.003  13.228   2.657
24242SOL    HW221566   2.058  13.083   2.608
24243SOL     OW21567  14.224  14.893   0.797
24243SOL    HW121568  14.318  14.884   0.762
24243SOL    HW221569  14.181  14.803   0.798
24244SOL     OW21570  15.058   7.996   0.871
24244SOL    HW121571  15.129   8.065   0.856
24244SOL    HW221572  15.050   7.978   0.969
24245SOL     OW21573  16.800   0.318   7.788
24245SOL    HW121574  16.884   0.363   7.756
24245SOL    HW221575  16.775   0.246   7.723
24246SOL     OW21576   6.725  10.396   0.720
24246SOL    HW121577   6.664  10.444   0.783
24246SOL    HW221578   6.735  10.301   0.749
24247SOL     OW21579   5.933   2.877   6.707
24247SOL    HW121580   5.921   2.803   6.640
24247SOL    HW221581   5.868   2.950   6.686
24248SOL     OW21582   6.236  13.697   0.074
24248SOL    HW121583   6.154  13.701   0.018
24248SOL    HW221584   6.211  13.706   0.171
24249SOL     OW21585   9.409   3.507   7.371
24249SOL    HW121586   9.365   3.485   7.458
24249SOL    HW221587   9.465   3.589   7.383
24250SOL     OW21588  10.180   4.395   8.186
24250SOL    HW121589  10.100   4.452   8.169
24250SOL    HW221590  10.164   4.339   8.268
24251SOL     OW21591   9.371   1.480   6.844
24251SOL    HW121592   9.272   1.466   6.841
24251SOL    HW221593   9.418   1.392   6.831
24252SOL     OW21594  14.619   7.961   1.487
24252SOL    HW121595  14.558   7.909   1.427
24252SOL    HW221596  14.593   7.945   1.582
24253SOL     OW21597  16.050   0.681   2.094
24253SOL    HW121598  16.025   0.745   2.167
24253SOL    HW221599  15.977   0.614   2.082
24254SOL     OW21600   5.504  13.564   0.592
24254SOL    HW121601   5.482  13.472   0.627
24254SOL    HW221602   5.432  13.628   0.619
24255SOL     OW21603   4.554  12.553   7.688
24255SOL    HW121604   4.607  12.479   7.729
24255SOL    HW221605   4.602  12.587   7.607
24256SOL     OW21606   1.362   0.918   8.252
24256SOL    HW121607   1.332   0.826   8.276
24256SOL    HW221608   1.401   0.917   8.160
24257SOL     OW21609  10.948  14.540   7.860
24257SOL    HW121610  11.037  14.574   7.831
24257SOL    HW221611  10.958  14.489   7.945
24258SOL     OW21612   4.068   2.691   1.605
24258SOL    HW121613   4.120   2.613   1.570
24258SOL    HW221614   4.058   2.759   1.533
24259SOL     OW21615  12.219  15.978   2.173
24259SOL    HW121616  12.305  16.025   2.193
24259SOL    HW221617  12.143  16.026   2.217
24260SOL     OW21618   1.927   0.033   0.792
24260SOL    HW121619   1.950   0.120   0.748
24260SOL    HW221620   1.862   0.049   0.866
24261SOL     OW21621  10.481   9.259   0.510
24261SOL    HW121622  10.418   9.326   0.550
24261SOL    HW221623  10.534   9.303   0.437
24262SOL     OW21624  11.948   0.067   6.240
24262SOL    HW121625  11.912  16.965   6.204
24262SOL    HW221626  11.903   0.144   6.196
24263SOL     OW21627  14.955   7.407   1.051
24263SOL    HW121628  14.900   7.490   1.040
24263SOL    HW221629  14.908   7.345   1.114
24264SOL     OW21630   5.950   2.464   6.832
24264SOL    HW121631   5.862   2.454   6.880
24264SOL    HW221632   5.937   2.521   6.751
24265SOL     OW21633   4.151   3.003   0.231
24265SOL    HW121634   4.190   2.950   0.156
24265SOL    HW221635   4.216   3.073   0.260
24266SOL     OW21636  14.043   9.205   6.697
24266SOL    HW121637  14.078   9.294   6.727
24266SOL    HW221638  14.004   9.157   6.775
24267SOL     OW21639   1.047   7.624   7.279
24267SOL    HW121640   0.947   7.621   7.285
24267SOL    HW221641   1.079   7.553   7.216
24268SOL     OW21642  10.168   8.440   0.395
24268SOL    HW121643  10.071   8.464   0.388
24268SOL    HW221644  10.203   8.417   0.304
24269SOL     OW21645  11.554  14.084   1.354
24269SOL    HW121646  11.513  14.173   1.375
24269SOL    HW221647  11.649  14.084   1.383
24270SOL     OW21648  12.734   4.262   0.338
24270SOL    HW121649  12.654   4.203   0.347
24270SOL    HW221650  12.808   4.228   0.396
24271SOL     OW21651   3.853   9.996   1.713
24271SOL    HW121652   3.813   9.905   1.724
24271SOL    HW221653   3.899  10.002   1.624
24272SOL     OW21654   3.692  15.601   7.266
24272SOL    HW121655   3.676  15.696   7.238
24272SOL    HW221656   3.697  15.596   7.366
24273SOL     OW21657   3.330   8.835   1.600
24273SOL    HW121658   3.370   8.926   1.608
24273SOL    HW221659   3.297   8.821   1.506
24274SOL     OW21660   8.698   0.250   1.386
24274SOL    HW121661   8.740   0.222   1.299
24274SOL    HW221662   8.764   0.238   1.460
24275SOL     OW21663  12.292  10.461   8.273
24275SOL    HW121664  12.248  10.418   8.195
24275SOL    HW221665  12.228  10.521   8.320
24276SOL     OW21666  13.782   9.557   8.252
24276SOL    HW121667  13.849   9.536   8.180
24276SOL    HW221668  13.692   9.522   8.225
24277SOL     OW21669   7.882  13.459   6.146
24277SOL    HW121670   7.921  13.527   6.084
24277SOL    HW221671   7.879  13.370   6.101
24278SOL     OW21672   4.144   8.687   7.214
24278SOL    HW121673   4.201   8.605   7.214
24278SOL    HW221674   4.197   8.764   7.178
24279SOL     OW21675   2.886   9.444   1.387
24279SOL    HW121676   2.935   9.531   1.377
24279SOL    HW221677   2.811   9.455   1.452
24280SOL     OW21678  14.576  16.461   2.193
24280SOL    HW121679  14.650  16.486   2.255
24280SOL    HW221680  14.562  16.534   2.127
24281SOL     OW21681   4.649  14.549   7.564
24281SOL    HW121682   4.707  14.610   7.510
24281SOL    HW221683   4.581  14.507   7.504
24282SOL     OW21684   0.463   4.742   7.116
24282SOL    HW121685   0.413   4.656   7.121
24282SOL    HW221686   0.480   4.765   7.020
24283SOL     OW21687   0.619   1.348   1.181
24283SOL    HW121688   0.587   1.433   1.138
24283SOL    HW221689   0.616   1.274   1.115
24284SOL     OW21690  10.295   2.523   7.646
24284SOL    HW121691  10.302   2.424   7.638
24284SOL    HW221692  10.199   2.550   7.638
24285SOL     OW21693   5.227   0.623   7.392
24285SOL    HW121694   5.147   0.679   7.370
24285SOL    HW221695   5.262   0.649   7.482
24286SOL     OW21696   0.689   5.526   7.340
24286SOL    HW121697   0.687   5.438   7.295
24286SOL    HW221698   0.711   5.598   7.273
24287SOL     OW21699   4.612   8.486   8.184
24287SOL    HW121700   4.621   8.524   8.276
24287SOL    HW221701   4.688   8.424   8.166
24288SOL     OW21702  11.185   1.254   7.835
24288SOL    HW121703  11.160   1.159   7.816
24288SOL    HW221704  11.136   1.287   7.915
24289SOL     OW21705  14.581   9.759   6.473
24289SOL    HW121706  14.646   9.797   6.538
24289SOL    HW221707  14.568   9.823   6.397
24290SOL     OW21708   6.137  16.204   1.295
24290SOL    HW121709   6.122  16.301   1.276
24290SOL    HW221710   6.120  16.150   1.213
24291SOL     OW21711   4.385  15.694   1.230
24291SOL    HW121712   4.479  15.676   1.204
24291SOL    HW221713   4.356  15.782   1.192
24292SOL     OW21714  14.886   2.303   6.133
24292SOL    HW121715  14.853   2.250   6.211
24292SOL    HW221716  14.808   2.337   6.080
24293SOL     OW21717   3.130   7.697   0.253
24293SOL    HW121718   3.063   7.758   0.211
24293SOL    HW221719   3.216   7.745   0.267
24294SOL     OW21720   7.054   6.725   1.963
24294SOL    HW121721   7.147   6.744   1.996
24294SOL    HW221722   6.996   6.805   1.980
24295SOL     OW21723   0.652   0.024   0.811
24295SOL    HW121724   0.620  16.973   0.899
24295SOL    HW221725   0.720   0.096   0.826
24296SOL     OW21726   4.587   4.725   8.298
24296SOL    HW121727   4.634   4.812   8.282
24296SOL    HW221728   4.523   4.736   8.375
24297SOL     OW21729   2.408  14.880   8.278
24297SOL    HW121730   2.358  14.903   8.362
24297SOL    HW221731   2.352  14.821   8.221
24298SOL     OW21732  12.123  10.381   6.969
24298SOL    HW121733  12.126  10.283   6.991
24298SOL    HW221734  12.207  10.406   6.922
24299SOL     OW21735   1.585  13.730   6.731
24299SOL    HW121736   1.539  13.818   6.739
24299SOL    HW221737   1.517  13.658   6.714
24300SOL     OW21738  13.797   2.432   7.241
24300SOL    HW121739  13.891   2.463   7.256
24300SOL    HW221740  13.770   2.454   7.148
24301SOL     OW21741  15.300   6.569   0.992
24301SOL    HW121742  15.318   6.509   1.070
24301SOL    HW221743  15.202   6.591   0.988
24302SOL     OW21744   4.842   5.947   0.795
24302SOL    HW121745   4.793   6.027   0.761
24302SOL    HW221746   4.897   5.973   0.874
24303SOL     OW21747  16.328   6.272   1.258
24303SOL    HW121748  16.273   6.324   1.192
24303SOL    HW221749  16.366   6.334   1.326
24304SOL     OW21750   8.881   6.159   1.288
24304SOL    HW121751   8.863   6.083   1.226
24304SOL    HW221752   8.903   6.240   1.235
24305SOL     OW21753  15.328   1.299   0.290
24305SOL    HW121754  15.231   1.323   0.301
24305SOL    HW221755  15.379   1.335   0.368
24306SOL     OW21756  13.972  13.002   6.838
24306SOL    HW121757  13.903  13.001   6.910
24306SOL    HW221758  13.934  12.960   6.755
24307SOL     OW21759  15.545  10.453   2.416
24307SOL    HW121760  15.606  10.393   2.467
24307SOL    HW221761  15.517  10.530   2.473
24308SOL     OW21762   1.875   2.795   0.076
24308SOL    HW121763   1.951   2.761   0.131
24308SOL    HW221764   1.903   2.803   8.434
24309SOL     OW21765   3.652  14.491   7.831
24309SOL    HW121766   3.602  14.407   7.808
24309SOL    HW221767   3.601  14.570   7.796
24310SOL     OW21768   4.774  10.729   1.901
24310SOL    HW121769   4.712  10.805   1.880
24310SOL    HW221770   4.759  10.699   1.995
24311SOL     OW21771  14.349   2.184   0.157
24311SOL    HW121772  14.309   2.092   0.163
24311SOL    HW221773  14.319   2.239   0.234
24312SOL     OW21774   7.922  15.971   1.198
24312SOL    HW121775   7.982  15.902   1.157
24312SOL    HW221776   7.950  16.062   1.166
24313SOL     OW21777  16.644   7.533   0.854
24313SOL    HW121778  16.723   7.595   0.856
24313SOL    HW221779  16.659   7.458   0.917
24314SOL     OW21780  13.079   4.090   7.773
24314SOL    HW121781  13.064   4.182   7.810
24314SOL    HW221782  13.177   4.074   7.763
24315SOL     OW21783  15.122  11.996   7.753
24315SOL    HW121784  15.050  11.938   7.716
24315SOL    HW221785  15.197  12.003   7.686
24316SOL     OW21786  16.768   2.664   6.684
24316SOL    HW121787  16.702   2.684   6.611
24316SOL    HW221788  16.725   2.681   6.772
24317SOL     OW21789   0.648   5.948   7.105
24317SOL    HW121790   0.639   6.024   7.041
24317SOL    HW221791   0.563   5.894   7.104
24318SOL     OW21792   0.406  12.709   0.796
24318SOL    HW121793   0.450  12.620   0.802
24318SOL    HW221794   0.306  12.697   0.798
24319SOL     OW21795   4.965  13.425   8.288
24319SOL    HW121796   5.033  13.492   8.316
24319SOL    HW221797   4.882  13.437   8.343
24320SOL     OW21798   3.416  15.033   0.906
24320SOL    HW121799   3.362  15.001   0.829
24320SOL    HW221800   3.357  15.047   0.986
24321SOL     OW21801   1.910   9.025   0.921
24321SOL    HW121802   1.940   9.105   0.869
24321SOL    HW221803   1.814   9.006   0.901
24322SOL     OW21804  12.452  12.343   1.937
24322SOL    HW121805  12.366  12.295   1.953
24322SOL    HW221806  12.521  12.311   2.002
24323SOL     OW21807   3.021  12.723   1.609
24323SOL    HW121808   2.972  12.765   1.534
24323SOL    HW221809   3.044  12.792   1.678
24324SOL     OW21810   4.064  16.509   8.274
24324SOL    HW121811   4.003  16.573   8.227
24324SOL    HW221812   4.117  16.458   8.206
24325SOL     OW21813  10.965   8.424   8.020
24325SOL    HW121814  10.921   8.353   8.076
24325SOL    HW221815  10.985   8.504   8.077
24326SOL     OW21816   0.804   7.832   1.190
24326SOL    HW121817   0.811   7.925   1.227
24326SOL    HW221818   0.792   7.837   1.091
24327SOL     OW21819  11.635   8.122   8.011
24327SOL    HW121820  11.640   8.034   7.963
24327SOL    HW221821  11.697   8.121   8.089
24328SOL     OW21822   3.984  14.228   8.094
24328SOL    HW121823   3.922  14.304   8.110
24328SOL    HW221824   4.070  14.244   8.142
24329SOL     OW21825  10.402   7.033   6.901
24329SOL    HW121826  10.453   6.947   6.906
24329SOL    HW221827  10.323   7.029   6.962
24330SOL     OW21828  12.233   6.375   7.356
24330SOL    HW121829  12.304   6.306   7.343
24330SOL    HW221830  12.163   6.339   7.418
24331SOL     OW21831  11.012   5.603   7.803
24331SOL    HW121832  11.052   5.679   7.752
24331SOL    HW221833  10.946   5.638   7.869
24332SOL     OW21834   1.887   3.306   0.753
24332SOL    HW121835   1.817   3.264   0.811
24332SOL    HW221836   1.844   3.369   0.689
24333SOL     OW21837  15.245  16.609   0.531
24333SOL    HW121838  15.157  16.630   0.489
24333SOL    HW221839  15.319  16.645   0.474
24334SOL     OW21840   6.334   6.584   1.050
24334SOL    HW121841   6.332   6.487   1.074
24334SOL    HW221842   6.288   6.598   0.962
24335SOL     OW21843   2.806  12.602   1.728
24335SOL    HW121844   2.884  12.646   1.683
24335SOL    HW221845   2.724  12.658   1.715
24336SOL     OW21846  11.914   8.968   6.118
24336SOL    HW121847  11.858   9.022   6.056
24336SOL    HW221848  11.982   8.916   6.066
24337SOL     OW21849   1.972   7.617   2.080
24337SOL    HW121850   1.981   7.553   2.003
24337SOL    HW221851   1.903   7.584   2.143
24338SOL     OW21852   2.893  12.070   8.288
24338SOL    HW121853   2.824  12.067   8.215
24338SOL    HW221854   2.963  12.001   8.271
24339SOL     OW21855  12.370   0.074   1.027
24339SOL    HW121856  12.324   0.158   1.057
24339SOL    HW221857  12.405   0.025   1.107
24340SOL     OW21858  13.568   5.194   5.491
24340SOL    HW121859  13.663   5.220   5.472
24340SOL    HW221860  13.537   5.127   5.425
24341SOL     OW21861   8.652   0.973   6.735
24341SOL    HW121862   8.698   1.030   6.804
24341SOL    HW221863   8.720   0.932   6.675
24342SOL     OW21864  10.883  12.773   6.921
24342SOL    HW121865  10.862  12.701   6.855
24342SOL    HW221866  10.898  12.860   6.872
24343SOL     OW21867  12.000   0.923   7.997
24343SOL    HW121868  12.089   0.968   7.990
24343SOL    HW221869  11.927   0.992   7.992
24344SOL     OW21870   5.652  14.626   1.724
24344SOL    HW121871   5.622  14.639   1.818
24344SOL    HW221872   5.733  14.567   1.722
24345SOL     OW21873  14.271  13.757   8.075
24345SOL    HW121874  14.171  13.759   8.073
24345SOL    HW221875  14.307  13.843   8.039
24346SOL     OW21876  12.822   6.387   0.432
24346SOL    HW121877  12.745   6.323   0.422
24346SOL    HW221878  12.908   6.336   0.426
24347SOL     OW21879   3.278   2.502   1.316
24347SOL    HW121880   3.180   2.513   1.304
24347SOL    HW221881   3.299   2.406   1.332
24348SOL     OW21882  10.054   0.623   1.634
24348SOL    HW121883  10.056   0.723   1.633
24348SOL    HW221884  10.134   0.589   1.684
24349SOL     OW21885  11.079  12.311   1.997
24349SOL    HW121886  11.008  12.272   2.055
24349SOL    HW221887  11.157  12.249   1.992
24350SOL     OW21888  12.112  15.187   7.880
24350SOL    HW121889  12.049  15.119   7.918
24350SOL    HW221890  12.206  15.154   7.889
24351SOL     OW21891   0.157   0.263   7.986
24351SOL    HW121892   0.189   0.277   8.079
24351SOL    HW221893   0.067   0.220   7.988
24352SOL     OW21894  12.109   5.886   0.101
24352SOL    HW121895  12.027   5.921   0.056
24352SOL    HW221896  12.171   5.962   0.121
24353SOL     OW21897  12.176   5.961   7.103
24353SOL    HW121898  12.211   6.048   7.070
24353SOL    HW221899  12.249   5.893   7.105
24354SOL     OW21900   4.979   8.395   7.934
24354SOL    HW121901   5.075   8.384   7.960
24354SOL    HW221902   4.960   8.491   7.916
24355SOL     OW21903   0.852   0.238   0.537
24355SOL    HW121904   0.788   0.314   0.545
24355SOL    HW221905   0.813   0.167   0.478
24356SOL     OW21906   1.921  10.412   7.518
24356SOL    HW121907   1.943  10.417   7.420
24356SOL    HW221908   1.897  10.318   7.542
24357SOL     OW21909   1.065   0.320   0.376
24357SOL    HW121910   0.996   0.291   0.442
24357SOL    HW221911   1.156   0.315   0.419
24358SOL     OW21912   5.509   6.221   2.419
24358SOL    HW121913   5.524   6.122   2.426
24358SOL    HW221914   5.445   6.250   2.490
24359SOL     OW21915   6.653   4.940   6.409
24359SOL    HW121916   6.565   4.967   6.370
24359SOL    HW221917   6.652   4.842   6.428
24360SOL     OW21918  12.763   4.469   7.691
24360SOL    HW121919  12.861   4.488   7.684
24360SOL    HW221920  12.749   4.384   7.740
24361SOL     OW21921   9.818  14.010   1.727
24361SOL    HW121922   9.731  13.987   1.772
24361SOL    HW221923   9.892  13.960   1.772
24362SOL     OW21924   1.556  11.602   1.361
24362SOL    HW121925   1.522  11.571   1.272
24362SOL    HW221926   1.575  11.522   1.418
24363SOL     OW21927   2.702   4.419   1.252
24363SOL    HW121928   2.773   4.364   1.208
24363SOL    HW221929   2.708   4.408   1.351
24364SOL     OW21930   7.361   8.377   0.600
24364SOL    HW121931   7.277   8.343   0.642
24364SOL    HW221932   7.341   8.463   0.552
24365SOL     OW21933  10.328   8.607   1.142
24365SOL    HW121934  10.244   8.575   1.097
24365SOL    HW221935  10.389   8.646   1.074
24366SOL     OW21936  15.032  12.363   7.607
24366SOL    HW121937  14.991  12.286   7.558
24366SOL    HW221938  15.121  12.335   7.643
24367SOL     OW21939  14.891   7.550   6.557
24367SOL    HW121940  14.908   7.590   6.647
24367SOL    HW221941  14.902   7.621   6.486
24368SOL     OW21942  12.142   4.101   6.212
24368SOL    HW121943  12.125   4.184   6.159
24368SOL    HW221944  12.222   4.054   6.176
24369SOL     OW21945   5.772   6.868   1.032
24369SOL    HW121946   5.723   6.872   1.119
24369SOL    HW221947   5.714   6.822   0.963
24370SOL     OW21948   9.842   3.727   6.831
24370SOL    HW121949   9.921   3.760   6.780
24370SOL    HW221950   9.759   3.743   6.777
24371SOL     OW21951  15.222   9.296   7.217
24371SOL    HW121952  15.126   9.287   7.243
24371SOL    HW221953  15.277   9.225   7.260
24372SOL     OW21954  16.054  11.830   6.513
24372SOL    HW121955  16.114  11.875   6.579
24372SOL    HW221956  16.105  11.811   6.429
24373SOL     OW21957   8.631   6.259   1.079
24373SOL    HW121958   8.546   6.258   1.028
24373SOL    HW221959   8.686   6.339   1.052
24374SOL     OW21960   0.261  16.227   7.682
24374SOL    HW121961   0.305  16.170   7.752
24374SOL    HW221962   0.286  16.194   7.591
24375SOL     OW21963  12.470   8.857   7.954
24375SOL    HW121964  12.542   8.902   7.903
24375SOL    HW221965  12.498   8.846   8.049
24376SOL     OW21966   4.052   0.782   1.358
24376SOL    HW121967   4.093   0.719   1.293
24376SOL    HW221968   4.108   0.864   1.366
24377SOL     OW21969   8.830  14.276   1.006
24377SOL    HW121970   8.878  14.200   1.051
24377SOL    HW221971   8.823  14.353   1.069
24378SOL     OW21972   5.722   7.314   7.245
24378SOL    HW121973   5.816   7.333   7.217
24378SOL    HW221974   5.669   7.399   7.247
24379SOL     OW21975  11.709   6.373   0.484
24379SOL    HW121976  11.708   6.306   0.558
24379SOL    HW221977  11.731   6.327   0.398
24380SOL     OW21978   1.828   3.619   6.879
24380SOL    HW121979   1.902   3.552   6.883
24380SOL    HW221980   1.815   3.650   6.785
24381SOL     OW21981   9.514  12.203   0.325
24381SOL    HW121982   9.572  12.161   0.256
24381SOL    HW221983   9.571  12.262   0.384
24382SOL     OW21984   1.580  15.076   7.174
24382SOL    HW121985   1.542  15.145   7.112
24382SOL    HW221986   1.639  15.120   7.242
24383SOL     OW21987  15.592   4.693   0.412
24383SOL    HW121988  15.658   4.765   0.433
24383SOL    HW221989  15.639   4.616   0.369
24384SOL     OW21990  14.659   0.204   7.574
24384SOL    HW121991  14.670   0.262   7.654
24384SOL    HW221992  14.584   0.238   7.518
24385SOL     OW21993   9.826   8.029   6.510
24385SOL    HW121994   9.821   7.967   6.432
24385SOL    HW221995   9.751   8.010   6.573
24386SOL     OW21996   2.583  14.725   7.403
24386SOL    HW121997   2.624  14.803   7.452
24386SOL    HW221998   2.486  14.743   7.388
24387SOL     OW21999   3.111   7.618   7.704
24387SOL    HW122000   3.011   7.625   7.696
24387SOL    HW222001   3.144   7.690   7.765
24388SOL     OW22002   4.061   0.465   0.763
24388SOL    HW122003   4.095   0.440   0.853
24388SOL    HW222004   4.138   0.475   0.699
24389SOL     OW22005   5.481  12.060   5.975
24389SOL    HW122006   5.485  12.071   6.074
24389SOL    HW222007   5.573  12.060   5.938
24390SOL     OW22008   3.749   9.739   1.720
24390SOL    HW122009   3.705   9.700   1.801
24390SOL    HW222010   3.703   9.706   1.638
24391SOL     OW22011  10.593   4.130   0.069
24391SOL    HW122012  10.668   4.158   0.129
24391SOL    HW222013  10.517   4.193   0.079
24392SOL     OW22014   6.773   4.036   1.439
24392SOL    HW122015   6.725   4.003   1.520
24392SOL    HW222016   6.862   3.990   1.432
24393SOL     OW22017   7.474   7.996   1.727
24393SOL    HW122018   7.436   7.916   1.682
24393SOL    HW222019   7.518   7.970   1.812
24394SOL     OW22020  10.676   5.058   7.871
24394SOL    HW122021  10.745   5.130   7.862
24394SOL    HW222022  10.606   5.088   7.936
24395SOL     OW22023   0.970  10.343   1.646
24395SOL    HW122024   0.978  10.333   1.547
24395SOL    HW222025   0.961  10.253   1.689
24396SOL     OW22026  15.376   5.101   7.577
24396SOL    HW122027  15.428   5.081   7.660
24396SOL    HW222028  15.345   5.196   7.578
24397SOL     OW22029  11.147  13.200   0.077
24397SOL    HW122030  11.141  13.293   0.112
24397SOL    HW222031  11.073  13.184   0.012
24398SOL     OW22032  14.820  11.055   7.552
24398SOL    HW122033  14.810  11.154   7.561
24398SOL    HW222034  14.847  11.017   7.640
24399SOL     OW22035   6.325  15.885   7.309
24399SOL    HW122036   6.226  15.885   7.323
24399SOL    HW222037   6.350  15.964   7.253
24400SOL     OW22038  12.133   9.227   7.483
24400SOL    HW122039  12.064   9.164   7.447
24400SOL    HW222040  12.224   9.194   7.459
24401SOL     OW22041   8.402   9.220   7.444
24401SOL    HW122042   8.396   9.214   7.344
24401SOL    HW222043   8.335   9.159   7.485
24402SOL     OW22044  11.425  11.356   2.294
24402SOL    HW122045  11.454  11.448   2.269
24402SOL    HW222046  11.458  11.336   2.387
24403SOL     OW22047  13.675   9.389   2.267
24403SOL    HW122048  13.691   9.294   2.294
24403SOL    HW222049  13.577   9.408   2.272
24404SOL     OW22050  16.046  13.363   7.649
24404SOL    HW122051  16.099  13.387   7.731
24404SOL    HW222052  16.071  13.425   7.574
24405SOL     OW22053  10.231   6.263   0.778
24405SOL    HW122054  10.137   6.296   0.773
24405SOL    HW222055  10.291   6.324   0.727
24406SOL     OW22056  16.197  16.607   7.708
24406SOL    HW122057  16.201  16.681   7.775
24406SOL    HW222058  16.173  16.522   7.754
24407SOL     OW22059  10.493  11.558   6.907
24407SOL    HW122060  10.498  11.625   6.981
24407SOL    HW222061  10.431  11.592   6.836
24408SOL     OW22062   4.048  13.705   0.037
24408SOL    HW122063   4.073  13.646   8.414
24408SOL    HW222064   3.964  13.755   0.015
24409SOL     OW22065   6.486  12.387   1.709
24409SOL    HW122066   6.477  12.288   1.719
24409SOL    HW222067   6.445  12.416   1.623
24410SOL     OW22068   2.698   3.093   7.625
24410SOL    HW122069   2.720   3.190   7.615
24410SOL    HW222070   2.601   3.079   7.607
24411SOL     OW22071   8.727   9.388   1.181
24411SOL    HW122072   8.642   9.422   1.221
24411SOL    HW222073   8.710   9.360   1.086
24412SOL     OW22074   1.953   9.811   7.591
24412SOL    HW122075   1.994   9.831   7.502
24412SOL    HW222076   1.857   9.786   7.579
24413SOL     OW22077   4.415  12.761   7.273
24413SOL    HW122078   4.316  12.760   7.286
24413SOL    HW222079   4.441  12.686   7.213
24414SOL     OW22080  14.896  10.951   7.300
24414SOL    HW122081  14.864  10.976   7.392
24414SOL    HW222082  14.935  10.859   7.302
24415SOL     OW22083  13.998   5.153   0.655
24415SOL    HW122084  13.925   5.090   0.631
24415SOL    HW222085  14.024   5.206   0.574
24416SOL     OW22086   5.632  16.881   1.153
24416SOL    HW122087   5.587  16.960   1.111
24416SOL    HW222088   5.731  16.889   1.140
24417SOL     OW22089  15.375   5.218   7.211
24417SOL    HW122090  15.411   5.131   7.245
24417SOL    HW222091  15.397   5.227   7.113
24418SOL     OW22092  10.571  11.256   7.962
24418SOL    HW122093  10.611  11.288   8.047
24418SOL    HW222094  10.529  11.333   7.914
24419SOL     OW22095  13.289   7.509   0.736
24419SOL    HW122096  13.293   7.421   0.689
24419SOL    HW222097  13.206   7.557   0.711
24420SOL     OW22098  16.212  13.333   6.163
24420SOL    HW122099  16.192  13.264   6.094
24420SOL    HW222100  16.286  13.392   6.131
24421SOL     OW22101   7.793  11.834   1.861
24421SOL    HW122102   7.772  11.928   1.887
24421SOL    HW222103   7.764  11.772   1.933
24422SOL     OW22104   0.743  15.493   1.611
24422SOL    HW122105   0.809  15.458   1.677
24422SOL    HW222106   0.665  15.432   1.606
24423SOL     OW22107  15.624  16.562   0.659
24423SOL    HW122108  15.620  16.652   0.616
24423SOL    HW222109  15.602  16.570   0.756
24424SOL     OW22110  12.695   8.046   8.115
24424SOL    HW122111  12.608   8.091   8.133
24424SOL    HW222112  12.724   8.065   8.021
24425SOL     OW22113  11.057   1.546   7.593
24425SOL    HW122114  11.010   1.616   7.646
24425SOL    HW222115  11.134   1.509   7.646
24426SOL     OW22116   9.727   2.822   1.791
24426SOL    HW122117   9.821   2.836   1.821
24426SOL    HW222118   9.669   2.803   1.871
24427SOL     OW22119  10.795   2.934   7.868
24427SOL    HW122120  10.870   2.910   7.808
24427SOL    HW222121  10.709   2.934   7.816
24428SOL     OW22122   3.825   2.984   7.674
24428SOL    HW122123   3.873   2.909   7.627
24428SOL    HW222124   3.749   2.947   7.727
24429SOL     OW22125  12.636   6.083   0.834
24429SOL    HW122126  12.600   6.001   0.878
24429SOL    HW222127  12.736   6.083   0.839
24430SOL     OW22128  11.749   1.051   7.031
24430SOL    HW122129  11.675   1.102   7.075
24430SOL    HW222130  11.837   1.077   7.071
24431SOL     OW22131  16.033  14.305   6.710
24431SOL    HW122132  16.130  14.320   6.690
24431SOL    HW222133  15.979  14.314   6.626
24432SOL     OW22134   3.901  13.923   6.889
24432SOL    HW122135   3.959  13.892   6.814
24432SOL    HW222136   3.823  13.975   6.852
24433SOL     OW22137  12.639   2.477   0.108
24433SOL    HW122138  12.688   2.540   0.168
24433SOL    HW222139  12.658   2.383   0.135
24434SOL     OW22140   6.026   6.771   7.394
24434SOL    HW122141   6.026   6.815   7.304
24434SOL    HW222142   5.984   6.832   7.461
24435SOL     OW22143   3.625   1.387   7.724
24435SOL    HW122144   3.629   1.422   7.630
24435SOL    HW222145   3.590   1.293   7.723
24436SOL     OW22146  15.071  15.870   7.857
24436SOL    HW122147  15.040  15.809   7.930
24436SOL    HW222148  15.146  15.927   7.891
24437SOL     OW22149  12.860  16.546   7.516
24437SOL    HW122150  12.824  16.512   7.602
24437SOL    HW222151  12.916  16.626   7.532
24438SOL     OW22152  11.691  14.265   8.436
24438SOL    HW122153  11.681  14.335   0.053
24438SOL    HW222154  11.626  14.191   0.000
24439SOL     OW22155   5.911  12.837   1.265
24439SOL    HW122156   5.911  12.764   1.333
24439SOL    HW222157   5.821  12.879   1.261
24440SOL     OW22158   2.334   5.116   6.737
24440SOL    HW122159   2.237   5.139   6.747
24440SOL    HW222160   2.363   5.135   6.644
24441SOL     OW22161   9.371  14.912   7.749
24441SOL    HW122162   9.358  14.987   7.684
24441SOL    HW222163   9.466  14.882   7.746
24442SOL     OW22164  12.069   2.662   8.048
24442SOL    HW122165  12.114   2.573   8.055
24442SOL    HW222166  12.080   2.698   7.955
24443SOL     OW22167   2.779   4.665   7.147
24443SOL    HW122168   2.816   4.735   7.208
24443SOL    HW222169   2.766   4.580   7.198
24444SOL     OW22170   8.686   0.934   0.319
24444SOL    HW122171   8.626   0.998   0.270
24444SOL    HW222172   8.693   0.849   0.266
24445SOL     OW22173   6.598   6.016   0.634
24445SOL    HW122174   6.668   5.952   0.665
24445SOL    HW222175   6.586   6.006   0.535
24446SOL     OW22176  15.685   1.136   7.585
24446SOL    HW122177  15.757   1.115   7.651
24446SOL    HW222178  15.680   1.063   7.517
24447SOL     OW22179  10.282   5.722   0.757
24447SOL    HW122180  10.247   5.742   0.665
24447SOL    HW222181  10.207   5.730   0.823
24448SOL     OW22182   0.141   4.990   7.802
24448SOL    HW122183   0.092   5.033   7.726
24448SOL    HW222184   0.191   4.911   7.768
24449SOL     OW22185   5.347  14.128   1.253
24449SOL    HW122186   5.401  14.196   1.205
24449SOL    HW222187   5.258  14.118   1.208
24450SOL     OW22188   9.270  12.317   0.407
24450SOL    HW122189   9.288  12.404   0.454
24450SOL    HW222190   9.356  12.277   0.377
24451SOL     OW22191  10.610  10.371   8.167
24451SOL    HW122192  10.615  10.438   8.093
24451SOL    HW222193  10.542  10.400   8.234
24452SOL     OW22194   5.367   6.499   7.906
24452SOL    HW122195   5.420   6.576   7.941
24452SOL    HW222196   5.428   6.435   7.860
24453SOL     OW22197   3.761   7.192   7.571
24453SOL    HW122198   3.696   7.214   7.498
24453SOL    HW222199   3.853   7.181   7.532
24454SOL     OW22200   8.136   5.214   0.041
24454SOL    HW122201   8.139   5.135   0.102
24454SOL    HW222202   8.132   5.182   8.400
24455SOL     OW22203   6.625   7.214   1.647
24455SOL    HW122204   6.619   7.114   1.658
24455SOL    HW222205   6.617   7.236   1.550
24456SOL     OW22206  11.844  10.219   0.808
24456SOL    HW122207  11.855  10.130   0.764
24456SOL    HW222208  11.832  10.207   0.906
24457SOL     OW22209  11.468  11.561   0.408
24457SOL    HW122210  11.400  11.512   0.461
24457SOL    HW222211  11.445  11.556   0.310
24458SOL     OW22212  15.738  13.538   1.514
24458SOL    HW122213  15.761  13.629   1.548
24458SOL    HW222214  15.649  13.542   1.468
24459SOL     OW22215   3.831   6.364   6.752
24459SOL    HW122216   3.898   6.342   6.823
24459SOL    HW222217   3.873   6.425   6.684
24460SOL     OW22218   0.657   4.687   0.932
24460SOL    HW122219   0.725   4.665   0.862
24460SOL    HW222220   0.684   4.645   1.019
24461SOL     OW22221  16.094   1.997   2.249
24461SOL    HW122222  16.036   1.952   2.181
24461SOL    HW222223  16.037   2.040   2.318
24462SOL     OW22224  16.315   1.441   0.664
24462SOL    HW122225  16.277   1.417   0.574
24462SOL    HW222226  16.260   1.513   0.705
24463SOL     OW22227   7.968   3.841   0.405
24463SOL    HW122228   8.003   3.880   0.490
24463SOL    HW222229   7.908   3.764   0.425
24464SOL     OW22230   2.677   7.463   7.139
24464SOL    HW122231   2.646   7.400   7.211
24464SOL    HW222232   2.656   7.557   7.165
24465SOL     OW22233  12.957  16.624   1.409
24465SOL    HW122234  12.969  16.715   1.370
24465SOL    HW222235  12.977  16.555   1.340
24466SOL     OW22236   6.943   9.263   0.065
24466SOL    HW122237   7.033   9.304   0.081
24466SOL    HW222238   6.945   9.208   8.436
24467SOL     OW22239  10.934   7.195   1.760
24467SOL    HW122240  10.861   7.245   1.712
24467SOL    HW222241  10.925   7.209   1.859
24468SOL     OW22242   6.539   5.331   6.560
24468SOL    HW122243   6.464   5.337   6.495
24468SOL    HW222244   6.504   5.301   6.649
24469SOL     OW22245  12.115  16.224   6.970
24469SOL    HW122246  12.207  16.234   6.933
24469SOL    HW222247  12.113  16.149   7.036
24470SOL     OW22248  11.597   7.236   8.379
24470SOL    HW122249  11.499   7.250   8.362
24470SOL    HW222250  11.647   7.240   8.292
24471SOL     OW22251  15.758   1.120   0.238
24471SOL    HW122252  15.670   1.145   0.198
24471SOL    HW222253  15.744   1.087   0.331
24472SOL     OW22254   6.394  12.914   7.769
24472SOL    HW122255   6.356  12.899   7.678
24472SOL    HW222256   6.323  12.901   7.838
24473SOL     OW22257   2.855   6.310   6.947
24473SOL    HW122258   2.907   6.390   6.916
24473SOL    HW222259   2.823   6.259   6.867
24474SOL     OW22260   6.874   4.777   8.413
24474SOL    HW122261   6.837   4.696   0.004
24474SOL    HW222262   6.920   4.835   0.026
24475SOL     OW22263  11.674   7.550   0.292
24475SOL    HW122264  11.644   7.645   0.298
24475SOL    HW222265  11.671   7.520   0.197
24476SOL     OW22266   4.085  15.902   7.735
24476SOL    HW122267   4.158  15.883   7.800
24476SOL    HW222268   4.063  15.999   7.736
24477SOL     OW22269   2.541   5.201   0.545
24477SOL    HW122270   2.487   5.126   0.582
24477SOL    HW222271   2.627   5.165   0.507
24478SOL     OW22272  13.263  16.794   8.077
24478SOL    HW122273  13.359  16.769   8.064
24478SOL    HW222274  13.258  16.880   8.127
24479SOL     OW22275   6.703   8.620   7.144
24479SOL    HW122276   6.657   8.640   7.058
24479SOL    HW222277   6.765   8.543   7.132
24480SOL     OW22278   9.195  16.306   8.304
24480SOL    HW122279   9.241  16.393   8.289
24480SOL    HW222280   9.098  16.323   8.321
24481SOL     OW22281   5.130  13.554   0.516
24481SOL    HW122282   5.198  13.622   0.543
24481SOL    HW222283   5.105  13.567   0.420
24482SOL     OW22284   5.740   6.272   7.941
24482SOL    HW122285   5.657   6.281   7.886
24482SOL    HW222286   5.792   6.192   7.911
24483SOL     OW22287  16.368   1.992   2.237
24483SOL    HW122288  16.268   1.996   2.247
24483SOL    HW222289  16.406   2.084   2.244
24484SOL     OW22290  11.576   5.746   0.109
24484SOL    HW122291  11.649   5.678   0.110
24484SOL    HW222292  11.594   5.815   0.039
24485SOL     OW22293   1.158   1.373   6.898
24485SOL    HW122294   1.098   1.363   6.819
24485SOL    HW222295   1.203   1.286   6.917
24486SOL     OW22296   2.308   1.064   7.847
24486SOL    HW122297   2.231   1.083   7.907
24486SOL    HW222298   2.359   0.985   7.882
24487SOL     OW22299   7.817   8.395   6.752
24487SOL    HW122300   7.840   8.370   6.657
24487SOL    HW222301   7.769   8.318   6.795
24488SOL     OW22302  13.380   2.314   0.544
24488SOL    HW122303  13.287   2.346   0.525
24488SOL    HW222304  13.376   2.223   0.586
24489SOL     OW22305   8.998  13.226   7.212
24489SOL    HW122306   8.957  13.307   7.170
24489SOL    HW222307   8.983  13.229   7.311
24490SOL     OW22308   8.907   1.607   8.369
24490SOL    HW122309   8.875   1.597   0.009
24490SOL    HW222310   8.952   1.523   8.340
24491SOL     OW22311   8.650  14.970   0.458
24491SOL    HW122312   8.734  14.954   0.511
24491SOL    HW222313   8.575  14.920   0.500
24492SOL     OW22314   1.496   3.070   1.893
24492SOL    HW122315   1.458   3.157   1.862
24492SOL    HW222316   1.457   3.046   1.981
24493SOL     OW22317   5.260  15.868   1.399
24493SOL    HW122318   5.232  15.824   1.314
24493SOL    HW222319   5.232  15.964   1.398
24494SOL     OW22320   0.872   1.400   8.347
24494SOL    HW122321   0.964   1.434   8.326
24494SOL    HW222322   0.841   1.341   8.274
24495SOL     OW22323  14.381   5.897   8.338
24495SOL    HW122324  14.481   5.896   8.329
24495SOL    HW222325  14.355   5.871   8.430
24496SOL     OW22326   6.724   7.847   2.232
24496SOL    HW122327   6.787   7.872   2.306
24496SOL    HW222328   6.674   7.929   2.203
24497SOL     OW22329   7.082  11.886   7.606
24497SOL    HW122330   7.008  11.841   7.556
24497SOL    HW222331   7.046  11.966   7.654
24498SOL     OW22332  11.471  12.684   0.200
24498SOL    HW122333  11.374  12.700   0.182
24498SOL    HW222334  11.497  12.726   0.287
24499SOL     OW22335  11.045   6.584   0.832
24499SOL    HW122336  10.984   6.619   0.903
24499SOL    HW222337  11.040   6.484   0.831
24500SOL     OW22338   8.532   4.190   1.104
24500SOL    HW122339   8.544   4.287   1.124
24500SOL    HW222340   8.439   4.162   1.126
24501SOL     OW22341  13.124  11.243   7.654
24501SOL    HW122342  13.221  11.220   7.650
24501SOL    HW222343  13.084  11.206   7.738
24502SOL     OW22344  16.902  16.775   0.107
24502SOL    HW122345  16.823  16.719   0.084
24502SOL    HW222346  16.957  16.730   0.177
24503SOL     OW22347  13.988  15.560   0.243
24503SOL    HW122348  14.013  15.557   0.339
24503SOL    HW222349  14.070  15.563   0.187
24504SOL     OW22350   9.803  11.687   7.677
24504SOL    HW122351   9.801  11.588   7.683
24504SOL    HW222352   9.854  11.715   7.595
24505SOL     OW22353   5.541   7.847   8.400
24505SOL    HW122354   5.614   7.884   0.004
24505SOL    HW222355   5.572   7.764   8.354
24506SOL     OW22356   3.681  16.007   0.868
24506SOL    HW122357   3.599  16.005   0.925
24506SOL    HW222358   3.654  16.007   0.772
24507SOL     OW22359   1.247   0.156   0.814
24507SOL    HW122360   1.292   0.207   0.887
24507SOL    HW222361   1.154   0.191   0.801
24508SOL     OW22362   1.393   4.696   7.828
24508SOL    HW122363   1.364   4.670   7.920
24508SOL    HW222364   1.435   4.787   7.831
24509SOL     OW22365  15.037   2.057   1.892
24509SOL    HW122366  14.958   2.059   1.954
24509SOL    HW222367  15.041   2.143   1.840
24510SOL     OW22368   5.640   7.771   7.554
24510SOL    HW122369   5.615   7.708   7.627
24510SOL    HW222370   5.736   7.758   7.530
24511SOL     OW22371  15.352   6.787   7.929
24511SOL    HW122372  15.288   6.781   8.006
24511SOL    HW222373  15.311   6.748   7.847
24512SOL     OW22374  15.450   1.411   0.517
24512SOL    HW122375  15.491   1.383   0.604
24512SOL    HW222376  15.359   1.450   0.534
24513SOL     OW22377   7.716  11.023   8.137
24513SOL    HW122378   7.752  11.020   8.230
24513SOL    HW222379   7.654  11.100   8.127
24514SOL     OW22380  12.370   3.223   0.545
24514SOL    HW122381  12.427   3.296   0.582
24514SOL    HW222382  12.428   3.147   0.515
24515SOL     OW22383   7.683   0.680   0.688
24515SOL    HW122384   7.600   0.650   0.641
24515SOL    HW222385   7.762   0.633   0.647
24516SOL     OW22386  16.963  12.549   1.014
24516SOL    HW122387  16.894  12.516   1.078
24516SOL    HW222388   0.035  12.620   1.058
24517SOL     OW22389  10.876  10.874   1.661
24517SOL    HW122390  10.870  10.908   1.755
24517SOL    HW222391  10.956  10.815   1.651
24518SOL     OW22392  15.473  16.587   7.139
24518SOL    HW122393  15.561  16.547   7.164
24518SOL    HW222394  15.400  16.520   7.154
24519SOL     OW22395   4.004  12.288   2.067
24519SOL    HW122396   4.021  12.309   1.971
24519SOL    HW222397   3.908  12.306   2.089
24520SOL     OW22398   6.230  12.551   0.315
24520SOL    HW122399   6.162  12.600   0.261
24520SOL    HW222400   6.234  12.455   0.286
24521SOL     OW22401  14.173   8.566   1.611
24521SOL    HW122402  14.132   8.475   1.624
24521SOL    HW222403  14.268   8.563   1.642
24522SOL     OW22404   5.798   3.171   7.464
24522SOL    HW122405   5.884   3.123   7.482
24522SOL    HW222406   5.738   3.111   7.411
24523SOL     OW22407  16.726   6.925   2.132
24523SOL    HW122408  16.802   6.860   2.141
24523SOL    HW222409  16.746   7.008   2.184
24524SOL     OW22410   1.787  14.269   8.083
24524SOL    HW122411   1.863  14.333   8.091
24524SOL    HW222412   1.796  14.196   8.151
24525SOL     OW22413  13.967   0.981   0.868
24525SOL    HW122414  13.971   0.998   0.967
24525SOL    HW222415  13.984   0.884   0.851
24526SOL     OW22416   9.699   3.668   6.411
24526SOL    HW122417   9.682   3.763   6.385
24526SOL    HW222418   9.647   3.646   6.494
24527SOL     OW22419  15.940   7.109   0.856
24527SOL    HW122420  15.982   7.037   0.911
24527SOL    HW222421  15.912   7.070   0.768
24528SOL     OW22422   0.275   6.560   0.936
24528SOL    HW122423   0.225   6.626   0.993
24528SOL    HW222424   0.355   6.604   0.895
24529SOL     OW22425   4.589  12.825   6.914
24529SOL    HW122426   4.646  12.828   6.832
24529SOL    HW222427   4.645  12.797   6.992
24530SOL     OW22428   1.849  11.297   1.128
24530SOL    HW122429   1.826  11.394   1.115
24530SOL    HW222430   1.913  11.268   1.057
24531SOL     OW22431   9.546   1.438   8.394
24531SOL    HW122432   9.482   1.378   8.442
24531SOL    HW222433   9.619   1.465   0.002
24532SOL     OW22434  14.597   7.295   0.306
24532SOL    HW122435  14.537   7.267   0.381
24532SOL    HW222436  14.564   7.380   0.266
24533SOL     OW22437   5.872  13.884   6.910
24533SOL    HW122438   5.947  13.949   6.896
24533SOL    HW222439   5.785  13.933   6.913
24534SOL     OW22440  11.910  13.851   1.849
24534SOL    HW122441  11.950  13.890   1.933
24534SOL    HW222442  11.811  13.863   1.851
24535SOL     OW22443  11.938  13.342   6.787
24535SOL    HW122444  11.876  13.329   6.709
24535SOL    HW222445  11.988  13.429   6.775
24536SOL     OW22446  12.442   2.973   0.761
24536SOL    HW122447  12.438   2.973   0.661
24536SOL    HW222448  12.359   2.930   0.797
24537SOL     OW22449  11.052   9.868   1.508
24537SOL    HW122450  11.084   9.820   1.590
24537SOL    HW222451  10.975   9.927   1.532
24538SOL     OW22452  14.572  10.335   0.909
24538SOL    HW122453  14.521  10.417   0.886
24538SOL    HW222454  14.527  10.255   0.869
24539SOL     OW22455  15.978  13.779   0.674
24539SOL    HW122456  15.975  13.699   0.733
24539SOL    HW222457  16.033  13.758   0.593
24540SOL     OW22458  14.160  13.542   0.085
24540SOL    HW122459  14.220  13.478   0.036
24540SOL    HW222460  14.215  13.609   0.134
24541SOL     OW22461  10.179  12.603   0.955
24541SOL    HW122462  10.195  12.640   0.864
24541SOL    HW222463  10.080  12.592   0.970
24542SOL     OW22464  13.461  13.134   2.387
24542SOL    HW122465  13.465  13.088   2.476
24542SOL    HW222466  13.414  13.222   2.397
24543SOL     OW22467   2.822  16.210   3.065
24543SOL    HW122468   2.913  16.169   3.059
24543SOL    HW222469   2.831  16.309   3.078
24544SOL     OW22470   0.404  14.824   0.749
24544SOL    HW122471   0.367  14.831   0.657
24544SOL    HW222472   0.458  14.906   0.770
24545SOL     OW22473  16.430   5.305   7.333
24545SOL    HW122474  16.335   5.328   7.356
24545SOL    HW222475  16.451   5.338   7.241
24546SOL     OW22476  15.754   1.027   0.885
24546SOL    HW122477  15.663   1.041   0.845
24546SOL    HW222478  15.752   0.949   0.946
24547SOL     OW22479   4.078   7.881   6.945
24547SOL    HW122480   4.167   7.859   6.903
24547SOL    HW222481   4.011   7.897   6.873
24548SOL     OW22482   3.880   9.779   7.869
24548SOL    HW122483   3.876   9.684   7.838
24548SOL    HW222484   3.915   9.837   7.795
24549SOL     OW22485  16.808  10.863   8.373
24549SOL    HW122486  16.808  10.767   8.402
24549SOL    HW222487  16.827  10.867   8.275
24550SOL     OW22488  14.288  11.784   1.104
24550SOL    HW122489  14.197  11.751   1.080
24550SOL    HW222490  14.348  11.706   1.120
24551SOL     OW22491   5.644   9.576   0.874
24551SOL    HW122492   5.563   9.525   0.904
24551SOL    HW222493   5.635   9.672   0.900
24552SOL     OW22494   5.098  15.685   8.277
24552SOL    HW122495   5.151  15.631   8.343
24552SOL    HW222496   5.022  15.630   8.243
24553SOL     OW22497  14.345   6.974   0.932
24553SOL    HW122498  14.293   6.961   1.017
24553SOL    HW222499  14.347   6.887   0.881
24554SOL     OW22500  16.905  16.040   1.629
24554SOL    HW122501  16.817  16.083   1.644
24554SOL    HW222502  16.972  16.109   1.601
24555SOL     OW22503   0.387   3.425   6.645
24555SOL    HW122504   0.399   3.447   6.742
24555SOL    HW222505   0.358   3.330   6.636
24556SOL     OW22506   0.046  12.518   8.353
24556SOL    HW122507   0.129  12.463   8.345
24556SOL    HW222508  16.953  12.460   8.381
24557SOL     OW22509   4.130   8.765   7.677
24557SOL    HW122510   4.149   8.845   7.621
24557SOL    HW222511   4.064   8.789   7.748
24558SOL     OW22512  16.800  16.410   7.482
24558SOL    HW122513  16.730  16.351   7.523
24558SOL    HW222514  16.885  16.358   7.473
24559SOL     OW22515   2.183  11.107   7.415
24559SOL    HW122516   2.180  11.200   7.453
24559SOL    HW222517   2.092  11.080   7.385
24560SOL     OW22518   8.483   3.288   0.317
24560SOL    HW122519   8.543   3.209   0.299
24560SOL    HW222520   8.442   3.318   0.231
24561SOL     OW22521   0.297   4.123   8.009
24561SOL    HW122522   0.216   4.075   8.043
24561SOL    HW222523   0.358   4.058   7.964
24562SOL     OW22524  13.072   2.633   0.315
24562SOL    HW122525  13.112   2.549   0.351
24562SOL    HW222526  13.145   2.696   0.289
24563SOL     OW22527   6.946  13.497   7.941
24563SOL    HW122528   6.909  13.529   8.029
24563SOL    HW222529   6.877  13.510   7.870
24564SOL     OW22530  16.626   2.421   0.470
24564SOL    HW122531  16.564   2.344   0.453
24564SOL    HW222532  16.720   2.391   0.460
24565SOL     OW22533   3.602  12.095   2.456
24565SOL    HW122534   3.628  12.050   2.541
24565SOL    HW222535   3.657  12.057   2.381
24566SOL     OW22536  13.405   8.399   7.230
24566SOL    HW122537  13.354   8.485   7.243
24566SOL    HW222538  13.491   8.418   7.183
24567SOL     OW22539  16.157  15.484   1.617
24567SOL    HW122540  16.257  15.495   1.611
24567SOL    HW222541  16.133  15.456   1.710
24568SOL     OW22542  15.067   3.132   6.019
24568SOL    HW122543  15.035   3.110   5.927
24568SOL    HW222544  15.045   3.056   6.081
24569SOL     OW22545   7.843   2.224   7.198
24569SOL    HW122546   7.842   2.126   7.181
24569SOL    HW222547   7.926   2.264   7.159
24570SOL     OW22548   7.331   5.992   7.209
24570SOL    HW122549   7.288   6.065   7.156
24570SOL    HW222550   7.324   6.012   7.306
24571SOL     OW22551  10.269  15.187   0.042
24571SOL    HW122552  10.334  15.241   0.095
24571SOL    HW222553  10.264  15.224   8.403
24572SOL     OW22554   8.601  16.064   1.615
24572SOL    HW122555   8.664  16.074   1.538
24572SOL    HW222556   8.652  16.036   1.696
24573SOL     OW22557  12.735   9.505   0.190
24573SOL    HW122558  12.685   9.584   0.157
24573SOL    HW222559  12.686   9.465   0.268
24574SOL     OW22560  15.398  13.747   8.097
24574SOL    HW122561  15.444  13.832   8.070
24574SOL    HW222562  15.411  13.678   8.027
24575SOL     OW22563   9.970  15.720   6.272
24575SOL    HW122564   9.959  15.714   6.173
24575SOL    HW222565   9.880  15.731   6.314
24576SOL     OW22566   4.162  11.683   1.860
24576SOL    HW122567   4.228  11.667   1.786
24576SOL    HW222568   4.211  11.693   1.947
24577SOL     OW22569  10.034   0.427   0.140
24577SOL    HW122570  10.064   0.411   0.234
24577SOL    HW222571   9.935   0.426   0.135
24578SOL     OW22572  12.633  12.508   7.907
24578SOL    HW122573  12.590  12.548   7.988
24578SOL    HW222574  12.712  12.563   7.881
24579SOL     OW22575  16.550   4.137   0.407
24579SOL    HW122576  16.563   4.085   0.323
24579SOL    HW222577  16.454   4.161   0.418
24580SOL     OW22578   8.508  12.778   8.424
24580SOL    HW122579   8.608  12.779   8.416
24580SOL    HW222580   8.483  12.748   0.062
24581SOL     OW22581   9.492   7.765   2.159
24581SOL    HW122582   9.516   7.686   2.216
24581SOL    HW222583   9.393   7.766   2.145
24582SOL     OW22584   9.563  13.722   0.337
24582SOL    HW122585   9.485  13.669   0.368
24582SOL    HW222586   9.600  13.774   0.415
24583SOL     OW22587  16.461  12.144   7.148
24583SOL    HW122588  16.507  12.231   7.130
24583SOL    HW222589  16.389  12.157   7.216
24584SOL     OW22590  10.753  14.607   7.683
24584SOL    HW122591  10.824  14.578   7.747
24584SOL    HW222592  10.795  14.646   7.601
24585SOL     OW22593   2.399  11.741   0.813
24585SOL    HW122594   2.377  11.645   0.830
24585SOL    HW222595   2.338  11.777   0.742
24586SOL     OW22596   0.141  14.986   0.332
24586SOL    HW122597   0.195  15.069   0.317
24586SOL    HW222598   0.115  14.948   0.243
24587SOL     OW22599  16.834  10.965   0.352
24587SOL    HW122600  16.774  10.885   0.341
24587SOL    HW222601  16.837  11.016   0.267
24588SOL     OW22602  16.340   4.287   1.099
24588SOL    HW122603  16.331   4.310   1.196
24588SOL    HW222604  16.264   4.329   1.048
24589SOL     OW22605   9.517   2.162   7.040
24589SOL    HW122606   9.529   2.123   6.949
24589SOL    HW222607   9.571   2.109   7.106
24590SOL     OW22608   3.726  12.083   7.629
24590SOL    HW122609   3.633  12.053   7.610
24590SOL    HW222610   3.791  12.022   7.583
24591SOL     OW22611  10.260   0.525   7.074
24591SOL    HW122612  10.183   0.520   7.011
24591SOL    HW222613  10.302   0.615   7.068
24592SOL     OW22614   5.023   3.137   7.409
24592SOL    HW122615   5.034   3.040   7.430
24592SOL    HW222616   5.006   3.148   7.311
24593SOL     OW22617   6.786  13.053   1.856
24593SOL    HW122618   6.737  12.978   1.899
24593SOL    HW222619   6.883  13.049   1.879
24594SOL     OW22620  11.159  15.852   7.733
24594SOL    HW122621  11.181  15.898   7.819
24594SOL    HW222622  11.175  15.914   7.657
24595SOL     OW22623   7.739   1.386   1.703
24595SOL    HW122624   7.730   1.341   1.614
24595SOL    HW222625   7.684   1.337   1.771
24596SOL     OW22626   4.095   7.040   1.770
24596SOL    HW122627   4.152   7.005   1.843
24596SOL    HW222628   4.019   7.092   1.809
24597SOL     OW22629  16.272   0.031   1.389
24597SOL    HW122630  16.275  16.931   1.333
24597SOL    HW222631  16.210   0.017   1.466
24598SOL     OW22632  13.444  15.959   7.833
24598SOL    HW122633  13.495  15.874   7.829
24598SOL    HW222634  13.465  16.007   7.918
24599SOL     OW22635   9.359   4.977   7.232
24599SOL    HW122636   9.395   5.003   7.321
24599SOL    HW222637   9.420   4.911   7.189
24600SOL     OW22638   5.079   8.974   8.090
24600SOL    HW122639   5.125   9.001   8.174
24600SOL    HW222640   5.021   9.049   8.058
24601SOL     OW22641   8.137   7.459   7.497
24601SOL    HW122642   8.192   7.413   7.428
24601SOL    HW222643   8.084   7.533   7.455
24602SOL     OW22644  12.240  13.838   1.452
24602SOL    HW122645  12.304  13.764   1.432
24602SOL    HW222646  12.165  13.803   1.507
24603SOL     OW22647  12.979   8.779   1.412
24603SOL    HW122648  12.879   8.783   1.416
24603SOL    HW222649  13.015   8.863   1.371
24604SOL     OW22650   4.731   2.855   1.617
24604SOL    HW122651   4.642   2.892   1.589
24604SOL    HW222652   4.755   2.778   1.558
24605SOL     OW22653  11.510  11.326   2.555
24605SOL    HW122654  11.436  11.381   2.592
24605SOL    HW222655  11.509  11.236   2.598
24606SOL     OW22656   5.827   1.581   0.231
24606SOL    HW122657   5.814   1.556   0.135
24606SOL    HW222658   5.916   1.549   0.263
24607SOL     OW22659   3.345  11.184   1.172
24607SOL    HW122660   3.276  11.257   1.168
24607SOL    HW222661   3.306  11.099   1.138
24608SOL     OW22662  11.780   3.611   8.032
24608SOL    HW122663  11.753   3.614   8.129
24608SOL    HW222664  11.704   3.576   7.978
24609SOL     OW22665   1.572   9.503   6.998
24609SOL    HW122666   1.545   9.440   6.925
24609SOL    HW222667   1.527   9.476   7.084
24610SOL     OW22668   5.628  13.752   1.625
24610SOL    HW122669   5.655  13.779   1.718
24610SOL    HW222670   5.650  13.826   1.562
24611SOL     OW22671   3.814  15.010   8.178
24611SOL    HW122672   3.853  15.059   8.257
24611SOL    HW222673   3.829  15.064   8.096
24612SOL     OW22674   8.249  15.575   0.946
24612SOL    HW122675   8.174  15.509   0.946
24612SOL    HW222676   8.334  15.528   0.970
24613SOL     OW22677   0.700  15.165   7.542
24613SOL    HW122678   0.760  15.086   7.553
24613SOL    HW222679   0.643  15.152   7.460
24614SOL     OW22680  10.374  12.971   7.299
24614SOL    HW122681  10.343  12.878   7.279
24614SOL    HW222682  10.390  12.981   7.398
24615SOL     OW22683  10.690   5.449   1.833
24615SOL    HW122684  10.787   5.454   1.856
24615SOL    HW222685  10.640   5.518   1.884
24616SOL     OW22686  15.540   8.058   0.447
24616SOL    HW122687  15.541   7.965   0.411
24616SOL    HW222688  15.622   8.072   0.503
24617SOL     OW22689  15.030   3.734   6.225
24617SOL    HW122690  14.994   3.792   6.152
24617SOL    HW222691  15.086   3.661   6.185
24618SOL     OW22692   1.170   3.471   1.250
24618SOL    HW122693   1.155   3.544   1.184
24618SOL    HW222694   1.202   3.389   1.203
24619SOL     OW22695   2.207   9.382   0.708
24619SOL    HW122696   2.294   9.411   0.748
24619SOL    HW222697   2.223   9.303   0.649
24620SOL     OW22698  13.415  14.699   0.299
24620SOL    HW122699  13.434  14.664   0.207
24620SOL    HW222700  13.319  14.723   0.307
24621SOL     OW22701   1.533   4.781   1.934
24621SOL    HW122702   1.501   4.843   2.007
24621SOL    HW222703   1.619   4.815   1.897
24622SOL     OW22704   3.869  12.991   1.669
24622SOL    HW122705   3.899  13.004   1.574
24622SOL    HW222706   3.940  12.942   1.720
24623SOL     OW22707   8.970  11.231   7.905
24623SOL    HW122708   9.010  11.163   7.843
24623SOL    HW222709   8.876  11.203   7.928
24624SOL     OW22710   8.906   4.531   6.484
24624SOL    HW122711   8.987   4.486   6.447
24624SOL    HW222712   8.894   4.506   6.580
24625SOL     OW22713  11.625   2.765   0.174
24625SOL    HW122714  11.552   2.818   0.131
24625SOL    HW222715  11.693   2.740   0.106
24626SOL     OW22716  15.613   6.801   0.285
24626SOL    HW122717  15.539   6.854   0.327
24626SOL    HW222718  15.633   6.721   0.340
24627SOL     OW22719   7.922   9.480   1.478
24627SOL    HW122720   7.935   9.494   1.576
24627SOL    HW222721   7.901   9.567   1.433
24628SOL     OW22722   9.374   7.686   6.442
24628SOL    HW122723   9.377   7.619   6.515
24628SOL    HW222724   9.283   7.688   6.401
24629SOL     OW22725  16.789   0.084   2.055
24629SOL    HW122726  16.851   0.055   2.128
24629SOL    HW222727  16.696   0.059   2.080
24630SOL     OW22728   7.192  16.233   1.381
24630SOL    HW122729   7.288  16.238   1.354
24630SOL    HW222730   7.159  16.324   1.405
24631SOL     OW22731  12.907   6.006   0.867
24631SOL    HW122732  12.988   6.066   0.867
24631SOL    HW222733  12.902   5.956   0.953
24632SOL     OW22734   7.343   8.264   7.265
24632SOL    HW122735   7.418   8.239   7.203
24632SOL    HW222736   7.369   8.345   7.317
24633SOL     OW22737  13.054   5.912   1.538
24633SOL    HW122738  13.116   5.990   1.546
24633SOL    HW222739  12.959   5.944   1.547
24634SOL     OW22740  14.113   0.756   1.633
24634SOL    HW122741  14.191   0.811   1.602
24634SOL    HW222742  14.092   0.779   1.728
24635SOL     OW22743   9.218  13.505   6.748
24635SOL    HW122744   9.155  13.427   6.739
24635SOL    HW222745   9.167  13.586   6.778
24636SOL     OW22746  10.692   2.166   0.049
24636SOL    HW122747  10.650   2.220   8.430
24636SOL    HW222748  10.786   2.196   0.063
24637SOL     OW22749   8.767  14.023   0.702
24637SOL    HW122750   8.679  14.058   0.735
24637SOL    HW222751   8.768  13.923   0.709
24638SOL     OW22752   6.277   7.332   6.998
24638SOL    HW122753   6.272   7.234   7.017
24638SOL    HW222754   6.224   7.353   6.916
24639SOL     OW22755   2.100  15.029   0.751
24639SOL    HW122756   2.011  15.017   0.706
24639SOL    HW222757   2.141  15.115   0.719
24640SOL     OW22758   1.385   0.123   1.230
24640SOL    HW122759   1.455   0.063   1.267
24640SOL    HW222760   1.307   0.069   1.198
24641SOL     OW22761   0.202  10.952   7.021
24641SOL    HW122762   0.288  10.903   7.030
24641SOL    HW222763   0.126  10.886   7.020
24642SOL     OW22764  15.583   0.396   6.383
24642SOL    HW122765  15.510   0.338   6.419
24642SOL    HW222766  15.586   0.389   6.283
24643SOL     OW22767  12.436  16.662   8.304
24643SOL    HW122768  12.528  16.629   8.281
24643SOL    HW222769  12.429  16.760   8.286
24644SOL     OW22770  16.711  16.379   1.088
24644SOL    HW122771  16.649  16.446   1.130
24644SOL    HW222772  16.717  16.298   1.147
24645SOL     OW22773  13.989   6.576   1.608
24645SOL    HW122774  14.057   6.569   1.535
24645SOL    HW222775  14.009   6.509   1.679
24646SOL     OW22776   9.430   8.816   0.751
24646SOL    HW122777   9.469   8.806   0.842
24646SOL    HW222778   9.502   8.836   0.685
24647SOL     OW22779  13.695  16.710   6.233
24647SOL    HW122780  13.626  16.654   6.188
24647SOL    HW222781  13.776  16.717   6.174
24648SOL     OW22782   6.034  16.613   1.399
24648SOL    HW122783   5.942  16.638   1.431
24648SOL    HW222784   6.080  16.558   1.469
24649SOL     OW22785   8.974  11.837   0.948
24649SOL    HW122786   9.001  11.742   0.965
24649SOL    HW222787   8.966  11.886   1.035
24650SOL     OW22788   1.752   6.183   6.242
24650SOL    HW122789   1.684   6.190   6.169
24650SOL    HW222790   1.841   6.162   6.202
24651SOL     OW22791  10.613   6.630   7.972
24651SOL    HW122792  10.563   6.569   7.910
24651SOL    HW222793  10.583   6.724   7.957
24652SOL     OW22794   9.369   0.572   1.208
24652SOL    HW122795   9.386   0.502   1.277
24652SOL    HW222796   9.401   0.540   1.119
24653SOL     OW22797  13.191  15.659   0.179
24653SOL    HW122798  13.118  15.591   0.172
24653SOL    HW222799  13.153  15.751   0.162
24654SOL     OW22800   2.987  15.807   0.897
24654SOL    HW122801   2.920  15.733   0.890
24654SOL    HW222802   3.047  15.805   0.817
24655SOL     OW22803   0.152  10.019   6.848
24655SOL    HW122804   0.147  10.118   6.859
24655SOL    HW222805   0.222   9.982   6.909
24656SOL     OW22806  14.571   6.401   0.603
24656SOL    HW122807  14.590   6.455   0.522
24656SOL    HW222808  14.491   6.343   0.587
24657SOL     OW22809   8.835   6.596   7.845
24657SOL    HW122810   8.762   6.572   7.780
24657SOL    HW222811   8.869   6.688   7.824
24658SOL     OW22812   3.732   1.469   1.769
24658SOL    HW122813   3.793   1.496   1.694
24658SOL    HW222814   3.787   1.443   1.848
24659SOL     OW22815   9.764   3.983   7.026
24659SOL    HW122816   9.756   4.000   7.124
24659SOL    HW222817   9.859   3.965   7.002
24660SOL     OW22818   4.560   7.553   0.055
24660SOL    HW122819   4.641   7.538   8.453
24660SOL    HW222820   4.585   7.546   0.152
24661SOL     OW22821   0.542   4.385   1.104
24661SOL    HW122822   0.445   4.408   1.092
24661SOL    HW222823   0.591   4.465   1.136
24662SOL     OW22824  14.778   6.518   7.969
24662SOL    HW122825  14.779   6.583   8.045
24662SOL    HW222826  14.854   6.455   7.978
24663SOL     OW22827   3.374  12.726   8.248
24663SOL    HW122828   3.378  12.703   8.345
24663SOL    HW222829   3.323  12.655   8.199
24664SOL     OW22830   0.525  14.090   0.063
24664SOL    HW122831   0.565  14.182   0.064
24664SOL    HW222832   0.454  14.086   8.446
24665SOL     OW22833   7.876   7.393   0.431
24665SOL    HW122834   7.896   7.366   0.525
24665SOL    HW222835   7.817   7.474   0.432
24666SOL     OW22836  15.962  15.713   1.010
24666SOL    HW122837  16.004  15.740   1.096
24666SOL    HW222838  16.033  15.683   0.946
24667SOL     OW22839   6.455   7.544   0.697
24667SOL    HW122840   6.440   7.446   0.706
24667SOL    HW222841   6.392   7.594   0.756
24668SOL     OW22842  12.220  13.262   6.536
24668SOL    HW122843  12.246  13.226   6.446
24668SOL    HW222844  12.275  13.343   6.556
24669SOL     OW22845   9.474   9.423   0.160
24669SOL    HW122846   9.423   9.360   0.218
24669SOL    HW222847   9.569   9.428   0.190
24670SOL     OW22848   4.235   1.882   0.451
24670SOL    HW122849   4.151   1.827   0.448
24670SOL    HW222850   4.313   1.822   0.469
24671SOL     OW22851  13.692  16.974   6.682
24671SOL    HW122852  13.660  16.901   6.742
24671SOL    HW222853  13.724  16.935   6.596
24672SOL     OW22854  14.131  16.261   0.474
24672SOL    HW122855  14.086  16.343   0.439
24672SOL    HW222856  14.068  16.184   0.471
24673SOL     OW22857   3.480  13.770   0.720
24673SOL    HW122858   3.457  13.706   0.646
24673SOL    HW222859   3.406  13.771   0.787
24674SOL     OW22860  11.213  13.853   0.014
24674SOL    HW122861  11.236  13.815   0.104
24674SOL    HW222862  11.280  13.821   8.401
24675SOL     OW22863   4.676  14.697   0.449
24675SOL    HW122864   4.607  14.681   0.378
24675SOL    HW222865   4.640  14.763   0.516
24676SOL     OW22866  15.021   8.286   7.402
24676SOL    HW122867  15.110   8.317   7.438
24676SOL    HW222868  14.970   8.364   7.367
24677SOL     OW22869   3.593   4.075   0.717
24677SOL    HW122870   3.616   4.161   0.762
24677SOL    HW222871   3.568   4.007   0.786
24678SOL     OW22872   4.171  16.254   0.600
24678SOL    HW122873   4.097  16.315   0.629
24678SOL    HW222874   4.222  16.296   0.525
24679SOL     OW22875   4.815   7.065   7.910
24679SOL    HW122876   4.907   7.039   7.941
24679SOL    HW222877   4.761   6.982   7.894
24680SOL     OW22878   5.067   0.413   7.303
24680SOL    HW122879   5.128   0.487   7.333
24680SOL    HW222880   5.014   0.444   7.224
24681SOL     OW22881   0.300   5.154   6.792
24681SOL    HW122882   0.368   5.082   6.777
24681SOL    HW222883   0.341   5.243   6.775
24682SOL     OW22884   4.949  11.816   8.383
24682SOL    HW122885   4.961  11.851   8.290
24682SOL    HW222886   5.026  11.846   8.439
24683SOL     OW22887   8.343  13.147   7.369
24683SOL    HW122888   8.406  13.128   7.294
24683SOL    HW222889   8.265  13.084   7.365
24684SOL     OW22890  10.850  13.849   0.271
24684SOL    HW122891  10.763  13.812   0.303
24684SOL    HW222892  10.904  13.881   0.349
24685SOL     OW22893   0.086   2.557   0.737
24685SOL    HW122894   0.172   2.524   0.698
24685SOL    HW222895   0.048   2.629   0.678
24686SOL     OW22896   2.474  13.327   1.628
24686SOL    HW122897   2.521  13.412   1.654
24686SOL    HW222898   2.435  13.284   1.709
24687SOL     OW22899   3.719   9.757   0.839
24687SOL    HW122900   3.790   9.800   0.896
24687SOL    HW222901   3.687   9.674   0.884
24688SOL     OW22902   8.247   1.965   1.491
24688SOL    HW122903   8.166   1.989   1.437
24688SOL    HW222904   8.242   1.870   1.519
24689SOL     OW22905   3.803  13.339   1.004
24689SOL    HW122906   3.882  13.346   0.943
24689SOL    HW222907   3.719  13.346   0.951
24690SOL     OW22908   5.261  15.737   6.168
24690SOL    HW122909   5.217  15.728   6.079
24690SOL    HW222910   5.350  15.781   6.158
24691SOL     OW22911   0.319   7.081   7.557
24691SOL    HW122912   0.337   7.003   7.618
24691SOL    HW222913   0.252   7.142   7.600
24692SOL     OW22914   6.818   8.285   0.370
24692SOL    HW122915   6.811   8.205   0.310
24692SOL    HW222916   6.727   8.317   0.395
24693SOL     OW22917  11.815   0.375   8.374
24693SOL    HW122918  11.768   0.460   8.399
24693SOL    HW222919  11.785   0.302   8.435
24694SOL     OW22920   1.228   4.392   5.918
24694SOL    HW122921   1.305   4.329   5.932
24694SOL    HW222922   1.228   4.423   5.823
24695SOL     OW22923   9.387  10.464   2.723
24695SOL    HW122924   9.370  10.559   2.748
24695SOL    HW222925   9.313  10.407   2.759
24696SOL     OW22926   7.629  12.245   2.094
24696SOL    HW122927   7.529  12.243   2.099
24696SOL    HW222928   7.658  12.191   2.015
24697SOL     OW22929  15.613   9.584   2.071
24697SOL    HW122930  15.539   9.587   2.138
24697SOL    HW222931  15.700   9.606   2.115
24698SOL     OW22932  11.136  12.313   0.495
24698SOL    HW122933  11.068  12.324   0.423
24698SOL    HW222934  11.129  12.389   0.559
24699SOL     OW22935   7.542   2.730   0.737
24699SOL    HW122936   7.620   2.722   0.799
24699SOL    HW222937   7.489   2.645   0.740
24700SOL     OW22938   6.349   2.134   0.936
24700SOL    HW122939   6.272   2.108   0.994
24700SOL    HW222940   6.367   2.232   0.946
24701SOL     OW22941  15.168  15.104   6.915
24701SOL    HW122942  15.170  15.110   7.015
24701SOL    HW222943  15.087  15.151   6.880
24702SOL     OW22944  14.538  12.472   1.655
24702SOL    HW122945  14.455  12.516   1.620
24702SOL    HW222946  14.525  12.373   1.656
24703SOL     OW22947   3.457   1.763   6.646
24703SOL    HW122948   3.389   1.768   6.573
24703SOL    HW222949   3.412   1.778   6.735
24704SOL     OW22950   4.105  12.554   1.017
24704SOL    HW122951   4.164  12.556   1.098
24704SOL    HW222952   4.126  12.472   0.963
24705SOL     OW22953   1.252   0.773   1.623
24705SOL    HW122954   1.160   0.802   1.650
24705SOL    HW222955   1.268   0.800   1.528
24706SOL     OW22956   5.816   1.085   8.086
24706SOL    HW122957   5.835   1.004   8.030
24706SOL    HW222958   5.720   1.111   8.073
24707SOL     OW22959   1.137  10.426   0.733
24707SOL    HW122960   1.194  10.504   0.759
24707SOL    HW222961   1.166  10.392   0.644
24708SOL     OW22962  14.175   9.202   7.160
24708SOL    HW122963  14.108   9.264   7.119
24708SOL    HW222964  14.250   9.186   7.096
24709SOL     OW22965   4.068   3.294   0.487
24709SOL    HW122966   4.057   3.225   0.558
24709SOL    HW222967   4.010   3.373   0.507
24710SOL     OW22968   5.092  11.512   0.427
24710SOL    HW122969   5.038  11.570   0.366
24710SOL    HW222970   5.068  11.533   0.522
24711SOL     OW22971   5.963   2.184   6.799
24711SOL    HW122972   6.020   2.173   6.718
24711SOL    HW222973   5.956   2.282   6.822
24712SOL     OW22974   0.617  15.397   1.898
24712SOL    HW122975   0.715  15.406   1.881
24712SOL    HW222976   0.600  15.396   1.997
24713SOL     OW22977   3.297   2.993   0.420
24713SOL    HW122978   3.309   3.086   0.454
24713SOL    HW222979   3.351   2.981   0.336
24714SOL     OW22980   0.933   8.933   7.550
24714SOL    HW122981   0.858   8.946   7.486
24714SOL    HW222982   1.002   8.873   7.509
24715SOL     OW22983   6.640  11.766   0.468
24715SOL    HW122984   6.556  11.756   0.521
24715SOL    HW222985   6.674  11.859   0.478
24716SOL     OW22986  12.620   3.561   6.451
24716SOL    HW122987  12.605   3.594   6.358
24716SOL    HW222988  12.677   3.627   6.501
24717SOL     OW22989   8.576   4.439   6.650
24717SOL    HW122990   8.548   4.523   6.604
24717SOL    HW222991   8.517   4.422   6.729
24718SOL     OW22992  10.279  11.960   1.025
24718SOL    HW122993  10.245  11.967   0.931
24718SOL    HW222994  10.344  12.034   1.042
24719SOL     OW22995   4.524   9.414   1.061
24719SOL    HW122996   4.603   9.368   1.102
24719SOL    HW222997   4.445   9.406   1.122
24720SOL     OW22998   4.498  12.849   0.720
24720SOL    HW122999   4.561  12.777   0.749
24720SOL    HW223000   4.472  12.834   0.625
24721SOL     OW23001  14.120   8.356   7.926
24721SOL    HW123002  14.172   8.439   7.903
24721SOL    HW223003  14.101   8.305   7.842
24722SOL     OW23004   5.526  10.289   6.323
24722SOL    HW123005   5.439  10.251   6.291
24722SOL    HW223006   5.600  10.256   6.265
24723SOL     OW23007  16.216  15.748   0.290
24723SOL    HW123008  16.175  15.689   0.221
24723SOL    HW223009  16.308  15.775   0.260
24724SOL     OW23010   6.823  11.904   6.210
24724SOL    HW123011   6.911  11.871   6.244
24724SOL    HW223012   6.803  11.862   6.121
24725SOL     OW23013   9.901   5.428   6.472
24725SOL    HW123014   9.937   5.411   6.564
24725SOL    HW223015   9.976   5.455   6.411
24726SOL     OW23016   9.719   4.478   7.842
24726SOL    HW123017   9.791   4.547   7.845
24726SOL    HW223018   9.760   4.388   7.828
24727SOL     OW23019   4.139   8.729   0.439
24727SOL    HW123020   4.172   8.663   0.507
24727SOL    HW223021   4.167   8.821   0.466
24728SOL     OW23022  16.030  15.125   0.770
24728SOL    HW123023  16.048  15.068   0.851
24728SOL    HW223024  15.939  15.106   0.734
24729SOL     OW23025   9.694  14.301   7.091
24729SOL    HW123026   9.743  14.366   7.033
24729SOL    HW223027   9.695  14.211   7.047
24730SOL     OW23028   0.657  14.342   0.044
24730SOL    HW123029   0.595  14.418   0.059
24730SOL    HW223030   0.751  14.371   0.063
24731SOL     OW23031   2.420  15.664   0.975
24731SOL    HW123032   2.336  15.612   0.990
24731SOL    HW223033   2.464  15.683   1.063
24732SOL     OW23034   1.528   7.801   7.086
24732SOL    HW123035   1.495   7.851   7.166
24732SOL    HW223036   1.569   7.715   7.115
24733SOL     OW23037   1.702   1.212   8.179
24733SOL    HW123038   1.758   1.152   8.236
24733SOL    HW223039   1.613   1.226   8.222
24734SOL     OW23040   9.466   3.722   1.899
24734SOL    HW123041   9.520   3.642   1.927
24734SOL    HW223042   9.373   3.713   1.934
24735SOL     OW23043   9.622  10.448   7.807
24735SOL    HW123044   9.571  10.373   7.850
24735SOL    HW223045   9.560  10.525   7.790
24736SOL     OW23046  14.910   2.613   5.822
24736SOL    HW123047  14.821   2.571   5.807
24736SOL    HW223048  14.910   2.706   5.784
24737SOL     OW23049  10.209  11.763   1.484
24737SOL    HW123050  10.198  11.764   1.385
24737SOL    HW223051  10.138  11.820   1.527
24738SOL     OW23052  13.396   1.295   0.839
24738SOL    HW123053  13.338   1.271   0.761
24738SOL    HW223054  13.442   1.213   0.874
24739SOL     OW23055   4.393   9.219   7.906
24739SOL    HW123056   4.440   9.131   7.898
24739SOL    HW223057   4.294   9.203   7.917
24740SOL     OW23058   4.310  10.376   7.154
24740SOL    HW123059   4.288  10.415   7.244
24740SOL    HW223060   4.404  10.400   7.129
24741SOL     OW23061   4.924   2.173   8.377
24741SOL    HW123062   4.887   2.088   8.338
24741SOL    HW223063   5.006   2.200   8.326
24742SOL     OW23064   8.924   2.900   0.369
24742SOL    HW123065   8.986   2.975   0.391
24742SOL    HW223066   8.839   2.911   0.419
24743SOL     OW23067   7.795  12.390   7.761
24743SOL    HW123068   7.863  12.336   7.810
24743SOL    HW223069   7.704  12.361   7.789
24744SOL     OW23070   7.621  15.357   7.464
24744SOL    HW123071   7.608  15.455   7.447
24744SOL    HW223072   7.718  15.336   7.462
24745SOL     OW23073   2.086   8.716   1.478
24745SOL    HW123074   2.000   8.729   1.528
24745SOL    HW223075   2.078   8.755   1.387
24746SOL     OW23076  11.517   6.803   0.063
24746SOL    HW123077  11.446   6.785   0.131
24746SOL    HW223078  11.552   6.896   0.075
24747SOL     OW23079   9.666  13.360   0.738
24747SOL    HW123080   9.733  13.344   0.665
24747SOL    HW223081   9.667  13.457   0.762
24748SOL     OW23082   4.310   3.210   0.343
24748SOL    HW123083   4.382   3.272   0.312
24748SOL    HW223084   4.236   3.262   0.385
24749SOL     OW23085   1.584   1.109   7.955
24749SOL    HW123086   1.524   1.178   7.913
24749SOL    HW223087   1.637   1.151   8.028
24750SOL     OW23088   6.517   6.370   6.849
24750SOL    HW123089   6.590   6.432   6.878
24750SOL    HW223090   6.448   6.423   6.798
24751SOL     OW23091  16.292  13.270   2.271
24751SOL    HW123092  16.233  13.193   2.246
24751SOL    HW223093  16.251  13.320   2.347
24752SOL     OW23094   9.788   6.059   1.308
24752SOL    HW123095   9.747   6.150   1.304
24752SOL    HW223096   9.743   6.005   1.379
24753SOL     OW23097   8.778  12.785   8.413
24753SOL    HW123098   8.854  12.728   8.444
24753SOL    HW223099   8.814  12.869   8.374
24754SOL     OW23100   5.108  16.469   0.621
24754SOL    HW123101   5.103  16.370   0.607
24754SOL    HW223102   5.185  16.490   0.682
24755SOL     OW23103   5.641   5.141   7.285
24755SOL    HW123104   5.666   5.044   7.292
24755SOL    HW223105   5.710   5.188   7.230
24756SOL     OW23106   5.836   9.761   7.894
24756SOL    HW123107   5.751   9.767   7.841
24756SOL    HW223108   5.906   9.715   7.840
24757SOL     OW23109   0.058   6.588   0.611
24757SOL    HW123110   0.022   6.636   0.692
24757SOL    HW223111   0.118   6.514   0.641
24758SOL     OW23112   5.940   2.087   8.308
24758SOL    HW123113   5.975   2.159   8.249
24758SOL    HW223114   6.016   2.039   8.352
24759SOL     OW23115   2.220   4.206   8.247
24759SOL    HW123116   2.293   4.261   8.286
24759SOL    HW223117   2.234   4.198   8.148
24760SOL     OW23118  10.761   2.213   1.355
24760SOL    HW123119  10.706   2.165   1.424
24760SOL    HW223120  10.742   2.175   1.265
24761SOL     OW23121   5.915  10.878   0.411
24761SOL    HW123122   5.896  10.852   0.316
24761SOL    HW223123   5.842  10.937   0.445
24762SOL     OW23124   4.055   8.855   0.005
24762SOL    HW123125   4.101   8.783   8.405
24762SOL    HW223126   4.114   8.936   0.008
24763SOL     OW23127   2.378   9.422   7.897
24763SOL    HW123128   2.373   9.495   7.965
24763SOL    HW223129   2.396   9.335   7.942
24764SOL     OW23130  13.473  11.387   8.355
24764SOL    HW123131  13.555  11.420   8.308
24764SOL    HW223132  13.500  11.326   8.429
24765SOL     OW23133  13.388   6.852   1.174
24765SOL    HW123134  13.456   6.923   1.156
24765SOL    HW223135  13.431   6.762   1.165
24766SOL     OW23136   4.380  13.954   6.751
24766SOL    HW123137   4.411  13.859   6.741
24766SOL    HW223138   4.374  13.996   6.661
24767SOL     OW23139  14.397   7.444   6.928
24767SOL    HW123140  14.415   7.346   6.918
24767SOL    HW223141  14.418   7.490   6.842
24768SOL     OW23142   1.998   8.366   7.184
24768SOL    HW123143   2.038   8.444   7.233
24768SOL    HW223144   2.010   8.283   7.238
24769SOL     OW23145   8.040   8.116   0.363
24769SOL    HW123146   8.038   8.213   0.340
24769SOL    HW223147   7.990   8.064   0.293
24770SOL     OW23148   2.184   6.766   6.796
24770SOL    HW123149   2.153   6.700   6.865
24770SOL    HW223150   2.105   6.814   6.759
24771SOL     OW23151  14.572  10.971   1.469
24771SOL    HW123152  14.618  10.920   1.396
24771SOL    HW223153  14.488  10.924   1.495
24772SOL     OW23154   6.567  14.736   1.724
24772SOL    HW123155   6.500  14.763   1.793
24772SOL    HW223156   6.653  14.783   1.741
24773SOL     OW23157  11.346  14.307   1.384
24773SOL    HW123158  11.313  14.335   1.293
24773SOL    HW223159  11.271  14.264   1.435
24774SOL     OW23160   7.483   0.755   7.760
24774SOL    HW123161   7.532   0.781   7.677
24774SOL    HW223162   7.401   0.703   7.735
24775SOL     OW23163   4.180  11.933   0.502
24775SOL    HW123164   4.219  12.020   0.534
24775SOL    HW223165   4.243  11.891   0.436
24776SOL     OW23166  15.404   2.897   7.101
24776SOL    HW123167  15.466   2.819   7.094
24776SOL    HW223168  15.411   2.953   7.018
24777SOL     OW23169  10.004   6.776   2.376
24777SOL    HW123170  10.028   6.873   2.365
24777SOL    HW223171   9.906   6.764   2.362
24778SOL     OW23172   5.455   0.621   2.163
24778SOL    HW123173   5.520   0.683   2.119
24778SOL    HW223174   5.404   0.671   2.233
24779SOL     OW23175   1.567  14.117   2.540
24779SOL    HW123176   1.589  14.132   2.637
24779SOL    HW223177   1.470  14.135   2.525
24780SOL     OW23178   9.826   1.333   0.321
24780SOL    HW123179   9.838   1.346   0.419
24780SOL    HW223180   9.909   1.292   0.282
24781SOL     OW23181   9.916  15.062   6.508
24781SOL    HW123182   9.940  15.051   6.411
24781SOL    HW223183   9.987  15.023   6.565
24782SOL     OW23184   3.147  10.307   1.456
24782SOL    HW123185   3.158  10.365   1.537
24782SOL    HW223186   3.085  10.352   1.392
24783SOL     OW23187  15.312   5.184   1.005
24783SOL    HW123188  15.238   5.152   0.947
24783SOL    HW223189  15.275   5.213   1.094
24784SOL     OW23190   6.591  16.823   0.999
24784SOL    HW123191   6.506  16.826   1.052
24784SOL    HW223192   6.591  16.742   0.941
24785SOL     OW23193  13.126   1.692   6.390
24785SOL    HW123194  13.059   1.739   6.448
24785SOL    HW223195  13.209   1.673   6.443
24786SOL     OW23196  12.680   9.211   1.114
24786SOL    HW123197  12.767   9.163   1.100
24786SOL    HW223198  12.608   9.144   1.134
24787SOL     OW23199   3.792   8.835   0.056
24787SOL    HW123200   3.760   8.747   0.019
24787SOL    HW223201   3.889   8.846   0.033
24788SOL     OW23202   4.454  13.726   8.101
24788SOL    HW123203   4.538  13.679   8.127
24788SOL    HW223204   4.463  13.761   8.008
24789SOL     OW23205  11.534   2.670   7.400
24789SOL    HW123206  11.546   2.635   7.307
24789SOL    HW223207  11.441   2.708   7.409
24790SOL     OW23208  14.087   0.269   1.233
24790SOL    HW123209  14.185   0.256   1.248
24790SOL    HW223210  14.049   0.189   1.188
24791SOL     OW23211  16.693  12.865   6.962
24791SOL    HW123212  16.604  12.879   7.005
24791SOL    HW223213  16.693  12.908   6.872
24792SOL     OW23214   9.905   8.291   8.272
24792SOL    HW123215   9.839   8.280   8.198
24792SOL    HW223216   9.957   8.375   8.258
24793SOL     OW23217   8.356  15.663   7.958
24793SOL    HW123218   8.353  15.661   7.858
24793SOL    HW223219   8.263  15.660   7.995
24794SOL     OW23220  11.011   0.437   7.340
24794SOL    HW123221  11.069   0.357   7.325
24794SOL    HW223222  10.931   0.410   7.393
24795SOL     OW23223  14.118  10.560   7.753
24795SOL    HW123224  14.029  10.514   7.755
24795SOL    HW223225  14.191  10.492   7.752
24796SOL     OW23226   8.853   4.481   7.067
24796SOL    HW123227   8.858   4.524   7.157
24796SOL    HW223228   8.769   4.428   7.059
24797SOL     OW23229   0.256   3.511   1.353
24797SOL    HW123230   0.248   3.473   1.445
24797SOL    HW223231   0.202   3.596   1.347
24798SOL     OW23232   3.676   6.137   7.951
24798SOL    HW123233   3.665   6.060   7.888
24798SOL    HW223234   3.634   6.219   7.912
24799SOL     OW23235  13.895   8.944   0.619
24799SOL    HW123236  13.986   8.912   0.648
24799SOL    HW223237  13.831   8.867   0.623
24800SOL     OW23238  10.687  16.025   7.338
24800SOL    HW123239  10.757  16.065   7.280
24800SOL    HW223240  10.632  15.961   7.285
24801SOL     OW23241   1.287   1.604   1.065
24801SOL    HW123242   1.226   1.650   1.000
24801SOL    HW223243   1.375   1.587   1.020
24802SOL     OW23244   5.785   8.350   6.827
24802SOL    HW123245   5.822   8.292   6.755
24802SOL    HW223246   5.734   8.426   6.787
24803SOL     OW23247  10.894   0.147   0.787
24803SOL    HW123248  10.865   0.093   0.866
24803SOL    HW223249  10.917   0.086   0.711
24804SOL     OW23250   9.485  16.189   8.195
24804SOL    HW123251   9.516  16.094   8.204
24804SOL    HW223252   9.388  16.194   8.220
24805SOL     OW23253   6.515   7.926   0.449
24805SOL    HW123254   6.511   7.966   0.541
24805SOL    HW223255   6.466   7.985   0.385
24806SOL     OW23256   9.794   8.729   7.691
24806SOL    HW123257   9.708   8.777   7.701
24806SOL    HW223258   9.870   8.789   7.715
24807SOL     OW23259  14.356   5.260   7.498
24807SOL    HW123260  14.444   5.306   7.509
24807SOL    HW223261  14.369   5.161   7.505
24808SOL     OW23262   9.947   9.405   1.309
24808SOL    HW123263   9.889   9.439   1.235
24808SOL    HW223264   9.991   9.482   1.354
24809SOL     OW23265   2.363  16.485   8.227
24809SOL    HW123266   2.431  16.413   8.240
24809SOL    HW223267   2.402  16.557   8.169
24810SOL     OW23268  10.870   4.060   7.691
24810SOL    HW123269  10.820   4.065   7.778
24810SOL    HW223270  10.849   4.141   7.636
24811SOL     OW23271  12.936   5.704   8.117
24811SOL    HW123272  12.993   5.766   8.172
24811SOL    HW223273  12.889   5.640   8.178
24812SOL     OW23274  13.468  14.042   8.441
24812SOL    HW123275  13.382  14.092   0.001
24812SOL    HW223276  13.451  13.944   8.449
24813SOL     OW23277  16.261  14.560   1.494
24813SOL    HW123278  16.179  14.525   1.448
24813SOL    HW223279  16.235  14.640   1.549
24814SOL     OW23280  10.048   6.402   6.270
24814SOL    HW123281  10.047   6.495   6.232
24814SOL    HW223282  10.143   6.370   6.277
24815SOL     OW23283   5.256   3.181   7.140
24815SOL    HW123284   5.287   3.244   7.211
24815SOL    HW223285   5.156   3.173   7.145
24816SOL     OW23286  14.543   5.907   7.453
24816SOL    HW123287  14.606   5.864   7.388
24816SOL    HW223288  14.569   6.002   7.466
24817SOL     OW23289   1.074   3.486   0.517
24817SOL    HW123290   0.992   3.526   0.557
24817SOL    HW223291   1.052   3.398   0.475
24818SOL     OW23292  11.115  16.243   0.193
24818SOL    HW123293  11.180  16.282   0.259
24818SOL    HW223294  11.095  16.149   0.219
24819SOL     OW23295   7.810  11.536   2.660
24819SOL    HW123296   7.735  11.583   2.708
24819SOL    HW223297   7.893  11.541   2.715
24820SOL     OW23298  11.533   9.187   7.391
24820SOL    HW123299  11.564   9.268   7.341
24820SOL    HW223300  11.453   9.209   7.445
24821SOL     OW23301   7.408   9.960   0.462
24821SOL    HW123302   7.346   9.958   0.385
24821SOL    HW223303   7.502   9.952   0.430
24822SOL     OW23304   8.514   4.435   7.457
24822SOL    HW123305   8.420   4.469   7.452
24822SOL    HW223306   8.574   4.509   7.485
24823SOL     OW23307   9.883  11.000   7.839
24823SOL    HW123308   9.928  11.090   7.843
24823SOL    HW223309   9.813  11.001   7.768
24824SOL     OW23310   4.113  12.404   0.613
24824SOL    HW123311   4.182  12.446   0.671
24824SOL    HW223312   4.116  12.446   0.522
24825SOL     OW23313  12.027  13.014   1.559
24825SOL    HW123314  12.065  12.925   1.586
24825SOL    HW223315  11.962  13.045   1.629
24826SOL     OW23316   2.637   2.812   7.250
24826SOL    HW123317   2.559   2.831   7.190
24826SOL    HW223318   2.647   2.714   7.262
24827SOL     OW23319   3.723   6.534   0.883
24827SOL    HW123320   3.787   6.458   0.896
24827SOL    HW223321   3.631   6.504   0.909
24828SOL     OW23322   6.927  12.211   0.237
24828SOL    HW123323   7.027  12.207   0.245
24828SOL    HW223324   6.899  12.304   0.216
24829SOL     OW23325  11.331   3.772   5.741
24829SOL    HW123326  11.411   3.823   5.711
24829SOL    HW223327  11.251   3.800   5.688
24830SOL     OW23328   4.053   9.626   1.463
24830SOL    HW123329   4.098   9.701   1.512
24830SOL    HW223330   4.013   9.563   1.529
24831SOL     OW23331  11.090   3.995   7.319
24831SOL    HW123332  11.105   3.990   7.418
24831SOL    HW223333  11.151   4.063   7.280
24832SOL     OW23334  12.106   4.896   0.293
24832SOL    HW123335  12.120   4.798   0.310
24832SOL    HW223336  12.195   4.942   0.289
24833SOL     OW23337  16.442  16.068   7.463
24833SOL    HW123338  16.419  15.976   7.494
24833SOL    HW223339  16.404  16.083   7.372
24834SOL     OW23340   8.444   9.384   1.996
24834SOL    HW123341   8.530   9.337   1.977
24834SOL    HW223342   8.407   9.352   2.083
24835SOL     OW23343   8.626  14.534   0.861
24835SOL    HW123344   8.610  14.596   0.939
24835SOL    HW223345   8.590  14.444   0.883
24836SOL     OW23346  13.354   0.623   2.195
24836SOL    HW123347  13.311   0.669   2.117
24836SOL    HW223348  13.387   0.692   2.260
24837SOL     OW23349   5.621   8.655   1.853
24837SOL    HW123350   5.618   8.736   1.912
24837SOL    HW223351   5.700   8.598   1.879
24838SOL     OW23352   5.118  14.728   6.978
24838SOL    HW123353   5.130  14.629   6.970
24838SOL    HW223354   5.160  14.760   7.063
24839SOL     OW23355  13.321  11.294   0.355
24839SOL    HW123356  13.300  11.228   0.282
24839SOL    HW223357  13.416  11.324   0.345
24840SOL     OW23358  11.431  15.631   7.911
24840SOL    HW123359  11.399  15.712   7.960
24840SOL    HW223360  11.356  15.592   7.857
24841SOL     OW23361  15.116  16.271   7.930
24841SOL    HW123362  15.162  16.183   7.932
24841SOL    HW223363  15.112  16.305   7.836
24842SOL     OW23364  14.224   3.723   6.127
24842SOL    HW123365  14.303   3.779   6.102
24842SOL    HW223366  14.213   3.722   6.226
24843SOL     OW23367  14.514   1.111   1.105
24843SOL    HW123368  14.438   1.170   1.130
24843SOL    HW223369  14.555   1.145   1.020
24844SOL     OW23370   7.419  13.242   7.229
24844SOL    HW123371   7.496  13.304   7.217
24844SOL    HW223372   7.442  13.153   7.190
24845SOL     OW23373   0.475  10.683   7.965
24845SOL    HW123374   0.525  10.673   7.879
24845SOL    HW223375   0.423  10.768   7.964
24846SOL     OW23376  16.820  12.832   7.216
24846SOL    HW123377  16.804  12.900   7.289
24846SOL    HW223378  16.770  12.859   7.134
24847SOL     OW23379   6.393   3.543   0.649
24847SOL    HW123380   6.414   3.633   0.610
24847SOL    HW223381   6.442   3.472   0.599
24848SOL     OW23382   9.635  13.344   7.031
24848SOL    HW123383   9.687  13.426   7.058
24848SOL    HW223384   9.566  13.370   6.964
24849SOL     OW23385  16.503  10.414   0.814
24849SOL    HW123386  16.570  10.443   0.882
24849SOL    HW223387  16.535  10.331   0.769
24850SOL     OW23388  12.931   0.547   0.082
24850SOL    HW123389  12.887   0.604   0.151
24850SOL    HW223390  12.869   0.535   0.004
24851SOL     OW23391   0.365  14.234   0.477
24851SOL    HW123392   0.362  14.227   0.577
24851SOL    HW223393   0.460  14.246   0.448
24852SOL     OW23394   9.484  10.607   0.085
24852SOL    HW123395   9.444  10.618   0.176
24852SOL    HW223396   9.412  10.592   0.018
24853SOL     OW23397  12.146   3.651   0.887
24853SOL    HW123398  12.229   3.596   0.896
24853SOL    HW223399  12.073   3.610   0.942
24854SOL     OW23400  11.766  12.772   8.014
24854SOL    HW123401  11.721  12.799   8.099
24854SOL    HW223402  11.865  12.778   8.025
24855SOL     OW23403   9.157  16.012   0.184
24855SOL    HW123404   9.149  16.107   0.215
24855SOL    HW223405   9.196  15.957   0.258
24856SOL     OW23406  13.118   8.442   8.293
24856SOL    HW123407  13.036   8.418   8.241
24856SOL    HW223408  13.134   8.372   8.363
24857SOL     OW23409  10.126   4.285   7.711
24857SOL    HW123410  10.107   4.252   7.619
24857SOL    HW223411  10.202   4.235   7.751
24858SOL     OW23412  11.202  13.712   1.777
24858SOL    HW123413  11.103  13.729   1.773
24858SOL    HW223414  11.232  13.671   1.690
24859SOL     OW23415   9.460   7.236   7.639
24859SOL    HW123416   9.379   7.176   7.642
24859SOL    HW223417   9.450   7.308   7.707
24860SOL     OW23418   8.748   3.509   7.677
24860SOL    HW123419   8.740   3.486   7.774
24860SOL    HW223420   8.660   3.496   7.632
24861SOL     OW23421  16.424   7.576   1.016
24861SOL    HW123422  16.499   7.574   0.949
24861SOL    HW223423  16.416   7.486   1.059
24862SOL     OW23424  14.980  10.251   5.895
24862SOL    HW123425  14.928  10.171   5.927
24862SOL    HW223426  15.057  10.267   5.957
24863SOL     OW23427  15.024   2.002   6.802
24863SOL    HW123428  14.936   2.050   6.799
24863SOL    HW223429  15.077   2.026   6.721
24864SOL     OW23430  10.177  12.373   7.551
24864SOL    HW123431  10.164  12.378   7.452
24864SOL    HW223432  10.161  12.463   7.591
24865SOL     OW23433  15.413  13.571   7.894
24865SOL    HW123434  15.468  13.583   7.812
24865SOL    HW223435  15.334  13.513   7.872
24866SOL     OW23436  10.481   9.660   8.297
24866SOL    HW123437  10.556   9.599   8.271
24866SOL    HW223438  10.459   9.646   8.394
24867SOL     OW23439   4.589   5.803   6.584
24867SOL    HW123440   4.654   5.783   6.511
24867SOL    HW223441   4.511   5.854   6.548
24868SOL     OW23442  14.714   4.885   2.103
24868SOL    HW123443  14.769   4.814   2.146
24868SOL    HW223444  14.695   4.957   2.170
24869SOL     OW23445   9.697  12.781   8.200
24869SOL    HW123446   9.763  12.856   8.209
24869SOL    HW223447   9.667  12.751   8.291
24870SOL     OW23448   7.215  16.313   7.195
24870SOL    HW123449   7.150  16.243   7.225
24870SOL    HW223450   7.201  16.331   7.097
24871SOL     OW23451   0.654   5.101   0.540
24871SOL    HW123452   0.658   5.163   0.462
24871SOL    HW223453   0.718   5.132   0.611
24872SOL     OW23454  16.730  13.105   8.142
24872SOL    HW123455  16.754  13.099   8.239
24872SOL    HW223456  16.805  13.070   8.087
24873SOL     OW23457  15.892   9.291   0.113
24873SOL    HW123458  15.850   9.339   0.190
24873SOL    HW223459  15.835   9.212   0.088
24874SOL     OW23460   9.806   5.729   7.417
24874SOL    HW123461   9.819   5.684   7.329
24874SOL    HW223462   9.748   5.673   7.475
24875SOL     OW23463   8.799   7.398   0.655
24875SOL    HW123464   8.843   7.488   0.663
24875SOL    HW223465   8.870   7.327   0.649
24876SOL     OW23466  13.039   9.488   7.754
24876SOL    HW123467  13.093   9.551   7.698
24876SOL    HW223468  12.973   9.441   7.696
24877SOL     OW23469  15.609   9.361   1.254
24877SOL    HW123470  15.548   9.341   1.330
24877SOL    HW223471  15.589   9.299   1.178
24878SOL     OW23472   0.945   0.002   2.013
24878SOL    HW123473   1.024  16.943   2.059
24878SOL    HW223474   0.896   0.059   2.078
24879SOL     OW23475   9.453   5.049   7.482
24879SOL    HW123476   9.394   5.108   7.536
24879SOL    HW223477   9.492   4.978   7.541
24880SOL     OW23478   3.704   7.550   1.164
24880SOL    HW123479   3.619   7.567   1.214
24880SOL    HW223480   3.710   7.453   1.141
24881SOL     OW23481   0.900  12.574   0.221
24881SOL    HW123482   0.946  12.612   0.302
24881SOL    HW223483   0.964  12.518   0.169
24882SOL     OW23484  12.817  11.461   0.627
24882SOL    HW123485  12.847  11.384   0.683
24882SOL    HW223486  12.896  11.505   0.584
24883SOL     OW23487   5.974   5.000   8.349
24883SOL    HW123488   6.056   4.953   8.382
24883SOL    HW223489   5.897   4.936   8.351
24884SOL     OW23490   4.598  16.095   8.400
24884SOL    HW123491   4.650  16.107   0.031
24884SOL    HW223492   4.503  16.073   8.423
24885SOL     OW23493   4.289   3.286   7.353
24885SOL    HW123494   4.214   3.300   7.418
24885SOL    HW223495   4.358   3.357   7.366
24886SOL     OW23496  10.108   0.707   0.756
24886SOL    HW123497  10.059   0.661   0.831
24886SOL    HW223498  10.076   0.672   0.668
24887SOL     OW23499   0.396   0.264   0.176
24887SOL    HW123500   0.401   0.164   0.178
24887SOL    HW223501   0.397   0.296   0.081
24888SOL     OW23502   7.871  13.146   1.096
24888SOL    HW123503   7.929  13.181   1.169
24888SOL    HW223504   7.826  13.222   1.049
24889SOL     OW23505   0.306   2.019   7.321
24889SOL    HW123506   0.332   1.960   7.245
24889SOL    HW223507   0.339   2.112   7.304
24890SOL     OW23508  13.890   2.063   6.993
24890SOL    HW123509  13.824   2.026   7.059
24890SOL    HW223510  13.956   1.993   6.968
24891SOL     OW23511  16.849  16.561   1.786
24891SOL    HW123512  16.795  16.535   1.866
24891SOL    HW223513  16.941  16.588   1.815
24892SOL     OW23514  16.658   1.611   1.574
24892SOL    HW123515  16.671   1.635   1.670
24892SOL    HW223516  16.628   1.693   1.524
24893SOL     OW23517   7.919  15.816   8.278
24893SOL    HW123518   8.010  15.856   8.289
24893SOL    HW223519   7.909  15.738   8.340
24894SOL     OW23520   5.113  14.761   1.404
24894SOL    HW123521   5.114  14.798   1.311
24894SOL    HW223522   5.054  14.680   1.407
24895SOL     OW23523   6.879   2.073   0.309
24895SOL    HW123524   6.786   2.038   0.315
24895SOL    HW223525   6.884   2.165   0.348
24896SOL     OW23526   8.164  11.452   7.787
24896SOL    HW123527   8.194  11.513   7.860
24896SOL    HW223528   8.139  11.364   7.826
24897SOL     OW23529  14.399   9.500   0.917
24897SOL    HW123530  14.309   9.544   0.905
24897SOL    HW223531  14.387   9.412   0.964
24898SOL     OW23532   1.406  10.765   1.186
24898SOL    HW123533   1.357  10.724   1.110
24898SOL    HW223534   1.454  10.694   1.237
24899SOL     OW23535   5.831   2.222   0.198
24899SOL    HW123536   5.830   2.320   0.219
24899SOL    HW223537   5.787   2.207   0.109
24900SOL     OW23538   8.712   5.808   0.438
24900SOL    HW123539   8.694   5.727   0.382
24900SOL    HW223540   8.648   5.881   0.414
24901SOL     OW23541   3.436   0.296   2.924
24901SOL    HW123542   3.389   0.208   2.914
24901SOL    HW223543   3.526   0.281   2.965
24902SOL     OW23544   0.991   3.718   0.024
24902SOL    HW123545   1.049   3.782   0.075
24902SOL    HW223546   1.048   3.662   8.418
24903SOL     OW23547   3.743  11.985   2.255
24903SOL    HW123548   3.811  11.921   2.219
24903SOL    HW223549   3.696  12.030   2.179
24904SOL     OW23550   0.858   6.729   7.118
24904SOL    HW123551   0.842   6.642   7.070
24904SOL    HW223552   0.781   6.791   7.101
24905SOL     OW23553  12.539   1.228   0.384
24905SOL    HW123554  12.619   1.250   0.440
24905SOL    HW223555  12.558   1.146   0.330
24906SOL     OW23556  10.344  12.750   1.939
24906SOL    HW123557  10.444  12.754   1.940
24906SOL    HW223558  10.308  12.813   2.008
24907SOL     OW23559  12.126  10.726   1.873
24907SOL    HW123560  12.210  10.780   1.870
24907SOL    HW223561  12.119  10.680   1.961
24908SOL     OW23562   2.841  12.063   0.110
24908SOL    HW123563   2.831  11.968   0.138
24908SOL    HW223564   2.858  12.068   0.011
24909SOL     OW23565  15.577   0.105   1.978
24909SOL    HW123566  15.587   0.033   2.047
24909SOL    HW223567  15.662   0.159   1.974
24910SOL     OW23568   7.978   9.123   0.396
24910SOL    HW123569   8.004   9.076   0.311
24910SOL    HW223570   7.989   9.060   0.473
24911SOL     OW23571  15.909   0.234   1.165
24911SOL    HW123572  15.913   0.147   1.213
24911SOL    HW223573  15.928   0.219   1.068
24912SOL     OW23574   6.165  12.189   8.241
24912SOL    HW123575   6.106  12.212   8.319
24912SOL    HW223576   6.248  12.244   8.246
24913SOL     OW23577   6.620   8.084   2.156
24913SOL    HW123578   6.696   8.124   2.105
24913SOL    HW223579   6.565   8.157   2.197
24914SOL     OW23580   1.543  16.514   8.082
24914SOL    HW123581   1.594  16.430   8.062
24914SOL    HW223582   1.468  16.523   8.016
24915SOL     OW23583   2.756   0.051   1.560
24915SOL    HW123584   2.693  16.967   1.521
24915SOL    HW223585   2.710   0.099   1.634
24916SOL     OW23586   6.501  11.164   1.502
24916SOL    HW123587   6.461  11.231   1.440
24916SOL    HW223588   6.429  11.111   1.546
24917SOL     OW23589  12.360   3.492   6.929
24917SOL    HW123590  12.356   3.545   6.845
24917SOL    HW223591  12.447   3.442   6.933
24918SOL     OW23592   0.696  10.396   7.111
24918SOL    HW123593   0.690  10.496   7.105
24918SOL    HW223594   0.748  10.361   7.034
24919SOL     OW23595   9.730   9.863   1.873
24919SOL    HW123596   9.726   9.778   1.820
24919SOL    HW223597   9.675   9.853   1.956
24920SOL     OW23598   6.707   4.994   0.427
24920SOL    HW123599   6.623   4.953   0.391
24920SOL    HW223600   6.700   5.003   0.526
24921SOL     OW23601   4.463   3.872   8.224
24921SOL    HW123602   4.488   3.844   8.131
24921SOL    HW223603   4.539   3.920   8.266
24922SOL     OW23604   0.051   4.909   0.340
24922SOL    HW123605   0.135   4.869   0.303
24922SOL    HW223606   0.044   5.004   0.308
24923SOL     OW23607  14.710   1.042   6.789
24923SOL    HW123608  14.803   1.070   6.769
24923SOL    HW223609  14.646   1.112   6.756
24924SOL     OW23610   8.218  12.395   7.209
24924SOL    HW123611   8.210  12.297   7.225
24924SOL    HW223612   8.140  12.427   7.156
24925SOL     OW23613   0.810  13.794   0.249
24925SOL    HW123614   0.727  13.746   0.278
24925SOL    HW223615   0.835  13.764   0.157
24926SOL     OW23616   7.279  14.471   0.429
24926SOL    HW123617   7.224  14.426   0.499
24926SOL    HW223618   7.321  14.553   0.468
24927SOL     OW23619  15.119   1.578   8.229
24927SOL    HW123620  15.124   1.662   8.176
24927SOL    HW223621  15.200   1.568   8.285
24928SOL     OW23622   8.145   5.576   6.667
24928SOL    HW123623   8.048   5.584   6.642
24928SOL    HW223624   8.198   5.546   6.588
24929SOL     OW23625  16.528   9.316   2.027
24929SOL    HW123626  16.445   9.288   1.978
24929SOL    HW223627  16.552   9.247   2.094
24930SOL     OW23628  14.993   1.092   7.749
24930SOL    HW123629  14.902   1.122   7.777
24930SOL    HW223630  15.059   1.164   7.769
24931SOL     OW23631  13.988  13.633   1.163
24931SOL    HW123632  13.910  13.629   1.225
24931SOL    HW223633  14.051  13.557   1.183
24932SOL     OW23634   1.138  10.201   7.783
24932SOL    HW123635   1.071  10.265   7.747
24932SOL    HW223636   1.228  10.245   7.785
24933SOL     OW23637   7.940   3.392   0.363
24933SOL    HW123638   7.936   3.318   0.430
24933SOL    HW223639   8.017   3.378   0.302
24934SOL     OW23640  10.204   5.288   6.563
24934SOL    HW123641  10.292   5.331   6.582
24934SOL    HW223642  10.190   5.283   6.464
24935SOL     OW23643  14.973  12.172   1.026
24935SOL    HW123644  14.918  12.201   1.104
24935SOL    HW223645  14.918  12.112   0.967
24936SOL     OW23646   1.232   1.991   7.143
24936SOL    HW123647   1.267   2.011   7.051
24936SOL    HW223648   1.308   1.978   7.206
24937SOL     OW23649   8.586   7.971   0.041
24937SOL    HW123650   8.681   7.938   0.035
24937SOL    HW223651   8.587   8.071   0.048
24938SOL     OW23652  10.794   3.132   6.115
24938SOL    HW123653  10.859   3.193   6.069
24938SOL    HW223654  10.765   3.060   6.052
24939SOL     OW23655   1.153   2.284   6.895
24939SOL    HW123656   1.161   2.328   6.806
24939SOL    HW223657   1.193   2.193   6.891
24940SOL     OW23658   3.542   0.671   7.962
24940SOL    HW123659   3.576   0.764   7.944
24940SOL    HW223660   3.614   0.605   7.941
24941SOL     OW23661   9.955  15.034   6.241
24941SOL    HW123662  10.052  15.051   6.221
24941SOL    HW223663   9.921  14.962   6.181
24942SOL     OW23664   3.403   3.471   7.930
24942SOL    HW123665   3.438   3.383   7.961
24942SOL    HW223666   3.473   3.541   7.945
24943SOL     OW23667  11.562  11.407   1.368
24943SOL    HW123668  11.626  11.362   1.305
24943SOL    HW223669  11.604  11.413   1.459
24944SOL     OW23670   9.903   2.569   1.202
24944SOL    HW123671   9.897   2.553   1.104
24944SOL    HW223672   9.980   2.631   1.221
24945SOL     OW23673  16.807   4.783   8.157
24945SOL    HW123674  16.856   4.798   8.071
24945SOL    HW223675  16.759   4.696   8.153
24946SOL     OW23676  10.205   2.839   0.086
24946SOL    HW123677  10.202   2.800   8.448
24946SOL    HW223678  10.179   2.935   0.083
24947SOL     OW23679  15.294  12.802   6.951
24947SOL    HW123680  15.231  12.776   6.878
24947SOL    HW223681  15.356  12.726   6.971
24948SOL     OW23682  15.630   9.922   1.103
24948SOL    HW123683  15.618   9.830   1.140
24948SOL    HW223684  15.557   9.982   1.137
24949SOL     OW23685   2.661   3.661   0.007
24949SOL    HW123686   2.739   3.645   0.067
24949SOL    HW223687   2.669   3.604   8.380
24950SOL     OW23688  15.485  10.450   2.784
24950SOL    HW123689  15.460  10.358   2.757
24950SOL    HW223690  15.416  10.487   2.846
24951SOL     OW23691  12.527  14.610   1.205
24951SOL    HW123692  12.590  14.688   1.198
24951SOL    HW223693  12.493  14.586   1.114
24952SOL     OW23694  10.144  14.131   1.767
24952SOL    HW123695  10.225  14.172   1.725
24952SOL    HW223696  10.136  14.036   1.737
24953SOL     OW23697   3.336   5.537   6.998
24953SOL    HW123698   3.289   5.556   7.084
24953SOL    HW223699   3.355   5.623   6.951
24954SOL     OW23700  11.667   4.167   7.139
24954SOL    HW123701  11.698   4.260   7.160
24954SOL    HW223702  11.606   4.135   7.211
24955SOL     OW23703  14.980  13.181   0.915
24955SOL    HW123704  15.075  13.167   0.884
24955SOL    HW223705  14.961  13.279   0.919
24956SOL     OW23706   9.263   4.486   1.802
24956SOL    HW123707   9.318   4.411   1.838
24956SOL    HW223708   9.279   4.568   1.858
24957SOL     OW23709   7.354   0.172   0.499
24957SOL    HW123710   7.322   0.107   0.431
24957SOL    HW223711   7.364   0.126   0.587
24958SOL     OW23712   4.147  12.079   2.160
24958SOL    HW123713   4.091  12.159   2.138
24958SOL    HW223714   4.132  12.008   2.092
24959SOL     OW23715  14.778  11.023   2.257
24959SOL    HW123716  14.870  11.034   2.219
24959SOL    HW223717  14.765  10.928   2.286
24960SOL     OW23718   5.853   3.087   0.892
24960SOL    HW123719   5.837   2.989   0.883
24960SOL    HW223720   5.930   3.103   0.954
24961SOL     OW23721   4.859   2.443   8.389
24961SOL    HW123722   4.789   2.472   0.000
24961SOL    HW223723   4.867   2.343   8.392
24962SOL     OW23724   6.552  16.677   1.295
24962SOL    HW123725   6.588  16.612   1.227
24962SOL    HW223726   6.484  16.632   1.352
24963SOL     OW23727   5.823   3.957   1.748
24963SOL    HW123728   5.888   3.927   1.817
24963SOL    HW223729   5.872   3.989   1.667
24964SOL     OW23730   9.551   5.534   7.988
24964SOL    HW123731   9.471   5.545   8.048
24964SOL    HW223732   9.557   5.439   7.958
24965SOL     OW23733  11.307  15.221   0.798
24965SOL    HW123734  11.220  15.246   0.840
24965SOL    HW223735  11.380  15.280   0.834
24966SOL     OW23736   2.268   8.305   7.332
24966SOL    HW123737   2.195   8.236   7.337
24966SOL    HW223738   2.228   8.396   7.346
24967SOL     OW23739  16.887   7.397   7.632
24967SOL    HW123740  16.810   7.338   7.656
24967SOL    HW223741  16.895   7.470   7.700
24968SOL     OW23742   5.729  10.253   1.612
24968SOL    HW123743   5.644  10.268   1.563
24968SOL    HW223744   5.713  10.189   1.687
24969SOL     OW23745   0.484   5.661   6.834
24969SOL    HW123746   0.492   5.734   6.767
24969SOL    HW223747   0.574   5.619   6.848
24970SOL     OW23748   6.001   5.264   8.316
24970SOL    HW123749   5.939   5.283   8.239
24970SOL    HW223750   5.994   5.168   8.341
24971SOL     OW23751   9.323   6.196   7.815
24971SOL    HW123752   9.423   6.199   7.803
24971SOL    HW223753   9.281   6.161   7.732
24972SOL     OW23754  12.871  13.460   0.792
24972SOL    HW123755  12.879  13.555   0.763
24972SOL    HW223756  12.843  13.456   0.888
24973SOL     OW23757  16.414  11.224   1.755
24973SOL    HW123758  16.480  11.253   1.824
24973SOL    HW223759  16.360  11.303   1.725
24974SOL     OW23760   0.081   5.616   0.216
24974SOL    HW123761  16.980   5.665   0.193
24974SOL    HW223762   0.077   5.523   0.180
24975SOL     OW23763   7.224  16.551   7.346
24975SOL    HW123764   7.214  16.476   7.281
24975SOL    HW223765   7.217  16.639   7.298
24976SOL     OW23766  12.087   3.947   1.189
24976SOL    HW123767  12.149   3.930   1.112
24976SOL    HW223768  12.112   4.034   1.233
24977SOL     OW23769  16.263  16.706   7.463
24977SOL    HW123770  16.238  16.669   7.552
24977SOL    HW223771  16.228  16.799   7.454
24978SOL     OW23772   5.460   5.960   0.313
24978SOL    HW123773   5.468   6.055   0.346
24978SOL    HW223774   5.364   5.934   0.310
24979SOL     OW23775   7.012   3.911   1.438
24979SOL    HW123776   7.089   3.861   1.398
24979SOL    HW223777   7.045   3.964   1.517
24980SOL     OW23778   9.980  14.958   7.477
24980SOL    HW123779   9.952  14.900   7.400
24980SOL    HW223780  10.038  14.905   7.539
24981SOL     OW23781   8.442   9.462   1.733
24981SOL    HW123782   8.407   9.380   1.688
24981SOL    HW223783   8.458   9.443   1.830
24982SOL     OW23784   0.338   9.838   6.401
24982SOL    HW123785   0.356   9.928   6.361
24982SOL    HW223786   0.268   9.846   6.471
24983SOL     OW23787   7.087   2.134   7.396
24983SOL    HW123788   7.166   2.084   7.431
24983SOL    HW223789   7.083   2.126   7.296
24984SOL     OW23790   3.753   9.403   1.960
24984SOL    HW123791   3.719   9.312   1.983
24984SOL    HW223792   3.818   9.433   2.029
24985SOL     OW23793  11.277   6.720   1.338
24985SOL    HW123794  11.301   6.742   1.433
24985SOL    HW223795  11.350   6.753   1.278
24986SOL     OW23796   9.886   8.344   7.270
24986SOL    HW123797   9.891   8.326   7.369
24986SOL    HW223798   9.978   8.354   7.233
24987SOL     OW23799   6.886  10.954   6.924
24987SOL    HW123800   6.946  11.024   6.964
24987SOL    HW223801   6.798  10.995   6.901
24988SOL     OW23802   3.105  10.966   1.724
24988SOL    HW123803   3.014  10.926   1.725
24988SOL    HW223804   3.145  10.957   1.632
24989SOL     OW23805   8.903   6.495   7.063
24989SOL    HW123806   8.812   6.453   7.064
24989SOL    HW223807   8.911   6.559   7.139
24990SOL     OW23808  13.976   1.029   1.145
24990SOL    HW123809  14.055   1.021   1.205
24990SOL    HW223810  13.946   1.125   1.142
24991SOL     OW23811  10.481   1.949   8.035
24991SOL    HW123812  10.444   2.008   8.106
24991SOL    HW223813  10.579   1.939   8.046
24992SOL     OW23814   0.443   3.723   0.622
24992SOL    HW123815   0.509   3.679   0.683
24992SOL    HW223816   0.473   3.816   0.601
24993SOL     OW23817   1.504  14.804   1.532
24993SOL    HW123818   1.572  14.869   1.499
24993SOL    HW223819   1.549  14.722   1.566
24994SOL     OW23820   9.327   6.994   0.830
24994SOL    HW123821   9.301   7.085   0.860
24994SOL    HW223822   9.383   6.950   0.900
24995SOL     OW23823  13.779   9.944   6.627
24995SOL    HW123824  13.784   9.903   6.718
24995SOL    HW223825  13.855  10.009   6.616
24996SOL     OW23826   7.901  11.287   7.681
24996SOL    HW123827   7.958  11.248   7.609
24996SOL    HW223828   7.944  11.271   7.770
24997SOL     OW23829  11.199  13.806   0.790
24997SOL    HW123830  11.237  13.889   0.831
24997SOL    HW223831  11.109  13.788   0.831
24998SOL     OW23832   0.619   2.039   7.498
24998SOL    HW123833   0.716   2.049   7.473
24998SOL    HW223834   0.599   1.943   7.517
24999SOL     OW23835   0.070   1.029   1.948
24999SOL    HW123836   0.017   0.954   1.907
24999SOL    HW223837   0.019   1.114   1.939
25000SOL     OW23838   6.342  16.487   8.091
25000SOL    HW123839   6.392  16.572   8.074
25000SOL    HW223840   6.247  16.498   8.061
25001SOL     OW23841   4.504   1.598   1.100
25001SOL    HW123842   4.480   1.539   1.023
25001SOL    HW223843   4.604   1.608   1.103
25002SOL     OW23844  13.158   4.524   7.915
25002SOL    HW123845  13.237   4.584   7.914
25002SOL    HW223846  13.135   4.498   8.009
25003SOL     OW23847   1.522   1.497   6.683
25003SOL    HW123848   1.465   1.533   6.758
25003SOL    HW223849   1.491   1.536   6.596
25004SOL     OW23850   4.536   9.596   8.023
25004SOL    HW123851   4.616   9.619   7.967
25004SOL    HW223852   4.461   9.565   7.964
25005SOL     OW23853  13.527  13.304   7.126
25005SOL    HW123854  13.510  13.345   7.037
25005SOL    HW223855  13.561  13.374   7.189
25006SOL     OW23856   9.908   0.457   6.041
25006SOL    HW123857   9.841   0.470   5.968
25006SOL    HW223858   9.976   0.531   6.037
25007SOL     OW23859  10.332  15.262   7.340
25007SOL    HW123860  10.239  15.265   7.378
25007SOL    HW223861  10.363  15.167   7.337
25008SOL     OW23862   1.394   4.306   7.944
25008SOL    HW123863   1.468   4.361   7.906
25008SOL    HW223864   1.333   4.278   7.870
25009SOL     OW23865   1.667   2.885   7.462
25009SOL    HW123866   1.595   2.862   7.397
25009SOL    HW223867   1.720   2.803   7.482
25010SOL     OW23868   2.853  14.582   0.209
25010SOL    HW123869   2.759  14.591   0.176
25010SOL    HW223870   2.906  14.527   0.144
25011SOL     OW23871   2.821  10.075   0.464
25011SOL    HW123872   2.753  10.094   0.535
25011SOL    HW223873   2.912  10.074   0.505
25012SOL     OW23874  12.473   7.008   7.814
25012SOL    HW123875  12.483   6.916   7.850
25012SOL    HW223876  12.551   7.064   7.844
25013SOL     OW23877   5.549   2.064   1.518
25013SOL    HW123878   5.643   2.034   1.502
25013SOL    HW223879   5.523   2.130   1.446
25014SOL     OW23880   3.406   5.643   8.198
25014SOL    HW123881   3.490   5.671   8.153
25014SOL    HW223882   3.402   5.682   8.290
25015SOL     OW23883  14.674  11.877   2.449
25015SOL    HW123884  14.609  11.951   2.462
25015SOL    HW223885  14.688  11.828   2.535
25016SOL     OW23886   8.443  16.048   7.034
25016SOL    HW123887   8.501  16.043   7.116
25016SOL    HW223888   8.368  16.112   7.051
25017SOL     OW23889   9.213  14.670   0.758
25017SOL    HW123890   9.152  14.612   0.704
25017SOL    HW223891   9.250  14.743   0.699
25018SOL     OW23892   9.608   4.311   6.955
25018SOL    HW123893   9.678   4.275   6.894
25018SOL    HW223894   9.541   4.239   6.974
25019SOL     OW23895   2.609   6.815   8.190
25019SOL    HW123896   2.677   6.748   8.221
25019SOL    HW223897   2.521   6.769   8.176
25020SOL     OW23898   3.617   1.782   0.178
25020SOL    HW123899   3.697   1.737   0.218
25020SOL    HW223900   3.566   1.829   0.250
25021SOL     OW23901   1.742  11.772   0.763
25021SOL    HW123902   1.744  11.781   0.862
25021SOL    HW223903   1.727  11.862   0.721
25022SOL     OW23904   6.006  11.358   7.574
25022SOL    HW123905   5.929  11.413   7.607
25022SOL    HW223906   6.092  11.403   7.601
25023SOL     OW23907   7.196   1.874   7.058
25023SOL    HW123908   7.295   1.861   7.059
25023SOL    HW223909   7.156   1.817   6.986
25024SOL     OW23910   5.234   5.722   7.813
25024SOL    HW123911   5.270   5.750   7.724
25024SOL    HW223912   5.284   5.641   7.845
25025SOL     OW23913   7.667  16.714   7.015
25025SOL    HW123914   7.669  16.618   7.041
25025SOL    HW223915   7.755  16.741   6.976
25026SOL     OW23916   1.515  10.248   7.017
25026SOL    HW123917   1.420  10.230   7.044
25026SOL    HW223918   1.519  10.265   6.919
25027SOL     OW23919   7.869   5.903   0.231
25027SOL    HW123920   7.788   5.881   0.286
25027SOL    HW223921   7.920   5.977   0.274
25028SOL     OW23922   4.244  16.508   0.017
25028SOL    HW123923   4.170  16.505   8.403
25028SOL    HW223924   4.331  16.492   8.426
25029SOL     OW23925   0.491   5.513   0.209
25029SOL    HW123926   0.430   5.568   0.266
25029SOL    HW223927   0.563   5.571   0.171
25030SOL     OW23928   0.113  13.137   1.747
25030SOL    HW123929   0.073  13.183   1.668
25030SOL    HW223930   0.186  13.194   1.785
25031SOL     OW23931   8.826  14.196   8.177
25031SOL    HW123932   8.810  14.149   8.091
25031SOL    HW223933   8.920  14.178   8.208
25032SOL     OW23934   9.101   1.749   1.397
25032SOL    HW123935   9.067   1.740   1.491
25032SOL    HW223936   9.185   1.803   1.397
25033SOL     OW23937   5.565   7.329   7.963
25033SOL    HW123938   5.515   7.243   7.959
25033SOL    HW223939   5.540   7.379   8.047
25034SOL     OW23940  14.019   7.389   0.696
25034SOL    HW123941  14.016   7.335   0.781
25034SOL    HW223942  14.092   7.353   0.637
25035SOL     OW23943   0.436   5.114   0.708
25035SOL    HW123944   0.503   5.124   0.635
25035SOL    HW223945   0.468   5.048   0.775
25036SOL     OW23946   5.602  10.778   0.506
25036SOL    HW123947   5.634  10.872   0.500
25036SOL    HW223948   5.657  10.729   0.574
25037SOL     OW23949   6.791   2.491   1.479
25037SOL    HW123950   6.725   2.527   1.413
25037SOL    HW223951   6.761   2.401   1.511
25038SOL     OW23952   7.016   1.006   1.528
25038SOL    HW123953   6.943   0.948   1.565
25038SOL    HW223954   7.097   0.951   1.512
25039SOL     OW23955   2.112   1.118   8.025
25039SOL    HW123956   2.041   1.188   8.030
25039SOL    HW223957   2.119   1.071   8.113
25040SOL     OW23958  16.785   7.217   7.979
25040SOL    HW123959  16.704   7.176   8.020
25040SOL    HW223960  16.827   7.281   8.044
25041SOL     OW23961   5.344   1.385   0.553
25041SOL    HW123962   5.415   1.455   0.548
25041SOL    HW223963   5.321   1.353   0.461
25042SOL     OW23964   6.357   4.330   7.422
25042SOL    HW123965   6.264   4.360   7.442
25042SOL    HW223966   6.414   4.337   7.504
25043SOL     OW23967   8.861  11.903   7.404
25043SOL    HW123968   8.792  11.965   7.366
25043SOL    HW223969   8.835  11.881   7.499
25044SOL     OW23970   2.108   5.869   8.289
25044SOL    HW123971   2.072   5.944   8.234
25044SOL    HW223972   2.130   5.792   8.229
25045SOL     OW23973   6.781   7.282   8.279
25045SOL    HW123974   6.701   7.252   8.226
25045SOL    HW223975   6.778   7.382   8.290
25046SOL     OW23976  15.500   6.916   0.840
25046SOL    HW123977  15.512   6.848   0.912
25046SOL    HW223978  15.514   7.007   0.878
25047SOL     OW23979   7.325   6.366   0.306
25047SOL    HW123980   7.371   6.314   0.378
25047SOL    HW223981   7.256   6.426   0.348
25048SOL     OW23982   9.413  13.296   0.813
25048SOL    HW123983   9.510  13.314   0.797
25048SOL    HW223984   9.359  13.339   0.740
25049SOL     OW23985  15.864   3.429   8.175
25049SOL    HW123986  15.816   3.400   8.257
25049SOL    HW223987  15.810   3.406   8.094
25050SOL     OW23988  11.420  15.561   1.235
25050SOL    HW123989  11.409  15.643   1.292
25050SOL    HW223990  11.515  15.530   1.239
25051SOL     OW23991   2.014  16.014   7.083
25051SOL    HW123992   1.987  16.099   7.039
25051SOL    HW223993   2.058  16.035   7.171
25052SOL     OW23994   8.310  13.106   0.151
25052SOL    HW123995   8.330  13.068   0.061
25052SOL    HW223996   8.389  13.092   0.211
25053SOL     OW23997  13.440  11.183   6.906
25053SOL    HW123998  13.534  11.186   6.870
25053SOL    HW223999  13.399  11.274   6.898
25054SOL     OW24000  16.036   7.802   7.248
25054SOL    HW124001  15.951   7.831   7.291
25054SOL    HW224002  16.052   7.855   7.164
25055SOL     OW24003   9.641  13.508   1.609
25055SOL    HW124004   9.649  13.590   1.553
25055SOL    HW224005   9.545  13.494   1.634
25056SOL     OW24006  15.243   8.103   0.072
25056SOL    HW124007  15.276   8.163   0.145
25056SOL    HW224008  15.153   8.135   0.040
25057SOL     OW24009  16.383   6.014   7.708
25057SOL    HW124010  16.400   5.939   7.773
25057SOL    HW224011  16.284   6.032   7.704
25058SOL     OW24012   9.632   0.786   0.449
25058SOL    HW124013   9.643   0.873   0.400
25058SOL    HW224014   9.572   0.726   0.397
25059SOL     OW24015  15.147   3.316   8.121
25059SOL    HW124016  15.241   3.322   8.088
25059SOL    HW224017  15.097   3.397   8.093
25060SOL     OW24018  12.218   7.728   1.816
25060SOL    HW124019  12.133   7.702   1.862
25060SOL    HW224020  12.289   7.661   1.836
25061SOL     OW24021   0.912  11.937   7.844
25061SOL    HW124022   0.824  11.895   7.821
25061SOL    HW224023   0.986  11.885   7.800
25062SOL     OW24024  10.000  13.665   8.310
25062SOL    HW124025  10.053  13.582   8.327
25062SOL    HW224026  10.023  13.700   8.219
25063SOL     OW24027  16.845  10.512   1.363
25063SOL    HW124028  16.765  10.513   1.303
25063SOL    HW224029  16.831  10.577   1.437
25064SOL     OW24030   0.347  16.612   8.277
25064SOL    HW124031   0.316  16.693   8.228
25064SOL    HW224032   0.269  16.551   8.292
25065SOL     OW24033  16.009   0.005   8.256
25065SOL    HW124034  15.917   0.015   8.294
25065SOL    HW224035  16.069  16.947   8.324
25066SOL     OW24036  11.742   1.890   0.434
25066SOL    HW124037  11.762   1.988   0.429
25066SOL    HW224038  11.729   1.864   0.530
25067SOL     OW24039  13.901  11.814   1.736
25067SOL    HW124040  13.893  11.813   1.836
25067SOL    HW224041  13.995  11.794   1.710
25068SOL     OW24042  10.330  14.240   8.126
25068SOL    HW124043  10.394  14.215   8.053
25068SOL    HW224044  10.380  14.282   8.201
25069SOL     OW24045  14.798  13.415   2.285
25069SOL    HW124046  14.795  13.501   2.337
25069SOL    HW224047  14.779  13.338   2.345
25070SOL     OW24048   8.417   7.049   1.671
25070SOL    HW124049   8.380   7.133   1.711
25070SOL    HW224050   8.384   6.970   1.721
25071SOL     OW24051  10.760  16.817   0.026
25071SOL    HW124052  10.738  16.733   0.075
25071SOL    HW224053  10.713  16.894   0.070
25072SOL     OW24054  13.641   2.024   5.702
25072SOL    HW124055  13.647   2.051   5.799
25072SOL    HW224056  13.700   2.084   5.648
25073SOL     OW24057   5.726  10.410   0.605
25073SOL    HW124058   5.794  10.384   0.536
25073SOL    HW224059   5.739  10.506   0.631
25074SOL     OW24060   8.201   9.499   1.916
25074SOL    HW124061   8.286   9.448   1.926
25074SOL    HW224062   8.214   9.593   1.951
25075SOL     OW24063   5.752   6.667   7.628
25075SOL    HW124064   5.754   6.611   7.545
25075SOL    HW224065   5.782   6.612   7.706
25076SOL     OW24066   4.903  11.627   0.129
25076SOL    HW124067   4.918  11.678   0.045
25076SOL    HW224068   4.883  11.531   0.107
25077SOL     OW24069  11.327  12.555   6.807
25077SOL    HW124070  11.398  12.515   6.748
25077SOL    HW224071  11.238  12.549   6.760
25078SOL     OW24072   0.192  15.310   6.966
25078SOL    HW124073   0.129  15.386   6.949
25078SOL    HW224074   0.179  15.276   7.059
25079SOL     OW24075   8.480   1.089   0.995
25079SOL    HW124076   8.444   1.051   0.910
25079SOL    HW224077   8.497   1.014   1.060
25080SOL     OW24078   5.933   2.373   1.877
25080SOL    HW124079   5.965   2.287   1.918
25080SOL    HW224080   5.919   2.441   1.950
25081SOL     OW24081  15.275   3.366   7.111
25081SOL    HW124082  15.192   3.321   7.144
25081SOL    HW224083  15.259   3.403   7.020
25082SOL     OW24084   9.323  13.524   1.205
25082SOL    HW124085   9.362  13.433   1.189
25082SOL    HW224086   9.265  13.549   1.128
25083SOL     OW24087  12.615   5.801   1.436
25083SOL    HW124088  12.547   5.770   1.503
25083SOL    HW224089  12.683   5.858   1.482
25084SOL     OW24090   7.553  16.450   0.808
25084SOL    HW124091   7.486  16.507   0.761
25084SOL    HW224092   7.629  16.508   0.838
25085SOL     OW24093   5.936   2.407   1.416
25085SOL    HW124094   6.032   2.382   1.424
25085SOL    HW224095   5.928   2.502   1.387
25086SOL     OW24096  13.670  11.969   1.002
25086SOL    HW124097  13.618  11.895   1.044
25086SOL    HW224098  13.668  12.050   1.062
25087SOL     OW24099  15.965  12.371   1.260
25087SOL    HW124100  16.016  12.437   1.205
25087SOL    HW224101  16.027  12.300   1.293
25088SOL     OW24102  14.960   2.922   0.195
25088SOL    HW124103  15.033   2.853   0.196
25088SOL    HW224104  14.945   2.953   0.101
25089SOL     OW24105   8.330  15.925   2.293
25089SOL    HW124106   8.252  15.987   2.289
25089SOL    HW224107   8.299  15.832   2.311
25090SOL     OW24108  11.315  12.456   0.890
25090SOL    HW124109  11.351  12.366   0.863
25090SOL    HW224110  11.267  12.447   0.977
25091SOL     OW24111  11.123  13.731   7.827
25091SOL    HW124112  11.033  13.773   7.821
25091SOL    HW224113  11.115  13.632   7.813
25092SOL     OW24114   9.644  13.016   0.018
25092SOL    HW124115   9.605  13.058   0.101
25092SOL    HW224116   9.588  13.040   8.393
25093SOL     OW24117  15.271  13.280   8.079
25093SOL    HW124118  15.200  13.225   8.123
25093SOL    HW224119  15.228  13.348   8.019
25094SOL     OW24120  15.442   7.946   8.406
25094SOL    HW124121  15.365   7.989   8.452
25094SOL    HW224122  15.495   8.016   8.358
25095SOL     OW24123  10.097  14.374   2.403
25095SOL    HW124124  10.195  14.356   2.408
25095SOL    HW224125  10.081  14.472   2.417
25096SOL     OW24126  16.618   2.882   1.907
25096SOL    HW124127  16.629   2.784   1.923
25096SOL    HW224128  16.525   2.910   1.933
25097SOL     OW24129   7.792   2.181   1.409
25097SOL    HW124130   7.797   2.281   1.412
25097SOL    HW224131   7.774   2.145   1.500
25098SOL     OW24132   0.631  11.969   0.720
25098SOL    HW124133   0.671  11.964   0.811
25098SOL    HW224134   0.676  12.042   0.668
25099SOL     OW24135  13.323   1.406   1.084
25099SOL    HW124136  13.373   1.347   1.146
25099SOL    HW224137  13.324   1.366   0.992
25100SOL     OW24138  11.400   8.988   0.421
25100SOL    HW124139  11.441   9.068   0.379
25100SOL    HW224140  11.462   8.950   0.489
25101SOL     OW24141   1.530   5.103   1.459
25101SOL    HW124142   1.611   5.153   1.490
25101SOL    HW224143   1.501   5.138   1.370
25102SOL     OW24144  11.122  13.117   7.221
25102SOL    HW124145  11.198  13.057   7.196
25102SOL    HW224146  11.156  13.210   7.235
25103SOL     OW24147  13.436  12.969   1.259
25103SOL    HW124148  13.379  12.999   1.183
25103SOL    HW224149  13.526  12.940   1.225
25104SOL     OW24150   3.153   1.767   1.383
25104SOL    HW124151   3.070   1.768   1.327
25104SOL    HW224152   3.233   1.778   1.324
25105SOL     OW24153   9.526   3.812   7.996
25105SOL    HW124154   9.485   3.900   8.021
25105SOL    HW224155   9.626   3.821   7.996
25106SOL     OW24156   6.482  10.443   6.828
25106SOL    HW124157   6.551  10.490   6.884
25106SOL    HW224158   6.512  10.350   6.810
25107SOL     OW24159  13.100  16.092   0.359
25107SOL    HW124160  13.128  16.149   0.436
25107SOL    HW224161  13.017  16.130   0.318
25108SOL     OW24162   8.589   3.684   0.125
25108SOL    HW124163   8.594   3.626   0.207
25108SOL    HW224164   8.633   3.637   0.048
25109SOL     OW24165  11.644  13.736   1.221
25109SOL    HW124166  11.548  13.741   1.193
25109SOL    HW224167  11.702  13.768   1.147
25110SOL     OW24168   4.493   1.391   0.551
25110SOL    HW124169   4.412   1.422   0.601
25110SOL    HW224170   4.465   1.327   0.480
25111SOL     OW24171  12.438   1.441   7.385
25111SOL    HW124172  12.472   1.355   7.421
25111SOL    HW224173  12.443   1.511   7.457
25112SOL     OW24174   8.392   9.693   6.835
25112SOL    HW124175   8.358   9.682   6.741
25112SOL    HW224176   8.337   9.762   6.882
25113SOL     OW24177   4.116  12.161   7.118
25113SOL    HW124178   4.052  12.115   7.056
25113SOL    HW224179   4.105  12.123   7.210
25114SOL     OW24180  13.364  11.811   0.002
25114SOL    HW124181  13.438  11.834   0.065
25114SOL    HW224182  13.331  11.718   0.022
25115SOL     OW24183  14.793  16.527   1.533
25115SOL    HW124184  14.873  16.468   1.521
25115SOL    HW224185  14.819  16.611   1.580
25116SOL     OW24186   8.831  16.096   1.457
25116SOL    HW124187   8.890  16.038   1.513
25116SOL    HW224188   8.851  16.081   1.360
25117SOL     OW24189   4.990   3.621   0.943
25117SOL    HW124190   4.973   3.526   0.915
25117SOL    HW224191   5.084   3.647   0.920
25118SOL     OW24192  13.549   6.337   6.545
25118SOL    HW124193  13.619   6.403   6.516
25118SOL    HW224194  13.593   6.261   6.592
25119SOL     OW24195   3.271   9.246   0.478
25119SOL    HW124196   3.231   9.235   0.569
25119SOL    HW224197   3.370   9.256   0.485
25120SOL     OW24198  14.048   4.106   2.170
25120SOL    HW124199  14.067   4.197   2.207
25120SOL    HW224200  13.951   4.085   2.181
25121SOL     OW24201  15.354  15.684   0.411
25121SOL    HW124202  15.399  15.750   0.472
25121SOL    HW224203  15.385  15.592   0.432
25122SOL     OW24204   2.971  12.120   7.682
25122SOL    HW124205   3.030  12.131   7.762
25122SOL    HW224206   2.981  12.028   7.645
25123SOL     OW24207  13.471   6.617   7.546
25123SOL    HW124208  13.423   6.685   7.490
25123SOL    HW224209  13.466   6.643   7.642
25124SOL     OW24210   2.316   0.738   7.319
25124SOL    HW124211   2.289   0.832   7.299
25124SOL    HW224212   2.274   0.676   7.252
25125SOL     OW24213   5.802  11.062   1.380
25125SOL    HW124214   5.827  11.142   1.325
25125SOL    HW224215   5.717  11.023   1.346
25126SOL     OW24216   0.243  13.732   1.391
25126SOL    HW124217   0.322  13.707   1.448
25126SOL    HW224218   0.211  13.823   1.417
25127SOL     OW24219  14.907  11.392   0.246
25127SOL    HW124220  14.830  11.401   0.309
25127SOL    HW224221  14.970  11.469   0.260
25128SOL     OW24222   4.376  14.071   6.495
25128SOL    HW124223   4.460  14.041   6.450
25128SOL    HW224224   4.297  14.037   6.445
25129SOL     OW24225   3.773  13.304   2.060
25129SOL    HW124226   3.744  13.230   2.121
25129SOL    HW224227   3.822  13.265   1.982
25130SOL     OW24228   6.653   0.091   2.158
25130SOL    HW124229   6.645   0.190   2.171
25130SOL    HW224230   6.656   0.046   2.248
25131SOL     OW24231  10.898  12.552   1.379
25131SOL    HW124232  10.880  12.539   1.281
25131SOL    HW224233  10.837  12.622   1.415
25132SOL     OW24234  10.855   7.202   1.361
25132SOL    HW124235  10.856   7.105   1.385
25132SOL    HW224236  10.871   7.212   1.262
25133SOL     OW24237  16.630  11.763   0.014
25133SOL    HW124238  16.558  11.832   0.012
25133SOL    HW224239  16.655  11.743   0.109
25134SOL     OW24240  12.511  16.860   1.170
25134SOL    HW124241  12.457  16.777   1.153
25134SOL    HW224242  12.585  16.866   1.102
25135SOL     OW24243  16.866   7.993   7.984
25135SOL    HW124244  16.902   8.053   8.055
25135SOL    HW224245  16.778   7.955   8.014
25136SOL     OW24246   9.782   2.402   7.103
25136SOL    HW124247   9.780   2.310   7.141
25136SOL    HW224248   9.707   2.414   7.038
25137SOL     OW24249  10.757   1.586   5.731
25137SOL    HW124250  10.790   1.673   5.693
25137SOL    HW224251  10.835   1.529   5.756
25138SOL     OW24252  11.136   9.074   6.495
25138SOL    HW124253  11.076   9.010   6.541
25138SOL    HW224254  11.090   9.162   6.483
25139SOL     OW24255   0.883   2.685   1.425
25139SOL    HW124256   0.806   2.712   1.367
25139SOL    HW224257   0.915   2.765   1.476
25140SOL     OW24258  16.109   9.612   7.873
25140SOL    HW124259  16.164   9.670   7.933
25140SOL    HW224260  16.029   9.578   7.922
25141SOL     OW24261  12.506   6.061   7.813
25141SOL    HW124262  12.453   6.072   7.728
25141SOL    HW224263  12.444   6.067   7.891
25142SOL     OW24264   4.993  16.388   6.832
25142SOL    HW124265   5.072  16.395   6.894
25142SOL    HW224266   5.008  16.445   6.752
25143SOL     OW24267   8.500  12.429   8.147
25143SOL    HW124268   8.539  12.383   8.226
25143SOL    HW224269   8.457  12.515   8.176
25144SOL     OW24270   0.606   6.293   0.970
25144SOL    HW124271   0.633   6.202   1.003
25144SOL    HW224272   0.516   6.316   1.007
25145SOL     OW24273   4.786   0.575   6.261
25145SOL    HW124274   4.826   0.532   6.181
25145SOL    HW224275   4.686   0.574   6.253
25146SOL     OW24276  16.570   3.366   7.545
25146SOL    HW124277  16.520   3.357   7.459
25146SOL    HW224278  16.631   3.444   7.540
25147SOL     OW24279   5.579   7.940   6.709
25147SOL    HW124280   5.674   7.962   6.687
25147SOL    HW224281   5.546   7.871   6.645
25148SOL     OW24282  11.879   1.802   0.203
25148SOL    HW124283  11.839   1.836   0.288
25148SOL    HW224284  11.807   1.788   0.135
25149SOL     OW24285   6.346  11.225   7.575
25149SOL    HW124286   6.324  11.319   7.602
25149SOL    HW224287   6.264  11.169   7.579
25150SOL     OW24288   9.698   3.818   1.339
25150SOL    HW124289   9.756   3.893   1.306
25150SOL    HW224290   9.604   3.852   1.352
25151SOL     OW24291  15.368  12.546   1.756
25151SOL    HW124292  15.305  12.530   1.679
25151SOL    HW224293  15.335  12.622   1.811
25152SOL     OW24294  15.117  10.057   7.215
25152SOL    HW124295  15.206  10.077   7.257
25152SOL    HW224296  15.128  10.047   7.116
25153SOL     OW24297   0.005   2.593   8.052
25153SOL    HW124298  16.970   2.687   8.023
25153SOL    HW224299  16.913   2.560   8.108
25154SOL     OW24300  13.345   5.731   0.529
25154SOL    HW124301  13.251   5.718   0.559
25154SOL    HW224302  13.359   5.827   0.503
25155SOL     OW24303  11.034   6.194   6.941
25155SOL    HW124304  11.043   6.292   6.959
25155SOL    HW224305  10.943   6.175   6.904
25156SOL     OW24306   3.112   2.312   8.137
25156SOL    HW124307   3.171   2.319   8.217
25156SOL    HW224308   3.037   2.378   8.147
25157SOL     OW24309   3.037  15.069   1.795
25157SOL    HW124310   2.977  15.013   1.738
25157SOL    HW224311   3.126  15.024   1.805
25158SOL     OW24312   4.607   1.308   2.275
25158SOL    HW124313   4.525   1.360   2.301
25158SOL    HW224314   4.683   1.334   2.334
25159SOL     OW24315  16.940   4.882   1.547
25159SOL    HW124316  16.848   4.898   1.582
25159SOL    HW224317   0.013   4.963   1.566
25160SOL     OW24318  13.230  10.621   6.445
25160SOL    HW124319  13.262  10.539   6.397
25160SOL    HW224320  13.133  10.612   6.464
25161SOL     OW24321   6.369   6.911   1.506
25161SOL    HW124322   6.427   6.897   1.425
25161SOL    HW224323   6.293   6.846   1.504
25162SOL     OW24324  12.921  12.327   7.616
25162SOL    HW124325  12.963  12.335   7.707
25162SOL    HW224326  12.856  12.251   7.617
25163SOL     OW24327   5.090   7.390   0.453
25163SOL    HW124328   5.022   7.396   0.379
25163SOL    HW224329   5.094   7.478   0.501
25164SOL     OW24330  16.310   0.012   6.874
25164SOL    HW124331  16.288   0.099   6.830
25164SOL    HW224332  16.406  16.971   6.855
25165SOL     OW24333   5.965   2.245   7.224
25165SOL    HW124334   5.869   2.233   7.196
25165SOL    HW224335   6.008   2.156   7.237
25166SOL     OW24336  15.344   4.119   1.909
25166SOL    HW124337  15.408   4.165   1.971
25166SOL    HW224338  15.255   4.164   1.914
25167SOL     OW24339   4.181   0.634   7.670
25167SOL    HW124340   4.272   0.626   7.712
25167SOL    HW224341   4.172   0.568   7.596
25168SOL     OW24342  16.122   3.218   7.647
25168SOL    HW124343  16.023   3.213   7.637
25168SOL    HW224344  16.148   3.187   7.738
25169SOL     OW24345   4.941   0.004   8.070
25169SOL    HW124346   4.941   0.064   8.151
25169SOL    HW224347   4.951   0.060   7.988
25170SOL     OW24348   4.564   5.368   1.080
25170SOL    HW124349   4.488   5.433   1.076
25170SOL    HW224350   4.622   5.389   1.159
25171SOL     OW24351   0.297  16.246   2.262
25171SOL    HW124352   0.312  16.168   2.323
25171SOL    HW224353   0.272  16.326   2.315
25172SOL     OW24354  14.967  10.518   1.015
25172SOL    HW124355  15.066  10.526   1.008
25172SOL    HW224356  14.939  10.533   1.109
25173SOL     OW24357   7.069   2.408   7.407
25173SOL    HW124358   7.080   2.309   7.406
25173SOL    HW224359   7.046   2.440   7.314
25174SOL     OW24360   5.643  11.383   7.011
25174SOL    HW124361   5.574  11.403   6.942
25174SOL    HW224362   5.692  11.468   7.034
25175SOL     OW24363   6.454   5.880   6.171
25175SOL    HW124364   6.527   5.814   6.189
25175SOL    HW224365   6.467   5.920   6.081
25176SOL     OW24366   8.083   9.668   0.344
25176SOL    HW124367   8.038   9.589   0.304
25176SOL    HW224368   8.016   9.721   0.398
25177SOL     OW24369  11.036   1.470   0.589
25177SOL    HW124370  11.053   1.462   0.687
25177SOL    HW224371  11.078   1.553   0.554
25178SOL     OW24372  11.767  16.519   2.080
25178SOL    HW124373  11.727  16.440   2.128
25178SOL    HW224374  11.866  16.516   2.091
25179SOL     OW24375  15.253  13.519   8.448
25179SOL    HW124376  15.154  13.530   8.435
25179SOL    HW224377  15.299  13.606   8.433
25180SOL     OW24378  16.182  11.791   8.004
25180SOL    HW124379  16.216  11.717   8.061
25180SOL    HW224380  16.090  11.771   7.974
25181SOL     OW24381   1.568   2.190   6.992
25181SOL    HW124382   1.481   2.237   7.008
25181SOL    HW224383   1.562   2.097   7.026
25182SOL     OW24384   5.410  14.519   8.352
25182SOL    HW124385   5.504  14.554   8.360
25182SOL    HW224386   5.351  14.566   8.417
25183SOL     OW24387  13.104  15.059   0.257
25183SOL    HW124388  13.065  14.997   0.189
25183SOL    HW224389  13.174  15.116   0.214
25184SOL     OW24390  14.991  14.360   6.364
25184SOL    HW124391  14.908  14.342   6.311
25184SOL    HW224392  14.969  14.418   6.443
25185SOL     OW24393   7.165   5.463   1.699
25185SOL    HW124394   7.252   5.435   1.657
25185SOL    HW224395   7.179   5.477   1.797
25186SOL     OW24396   6.949  10.274   0.225
25186SOL    HW124397   6.862  10.240   0.260
25186SOL    HW224398   7.024  10.230   0.274
25187SOL     OW24399  10.583   7.892   8.043
25187SOL    HW124400  10.531   7.970   8.077
25187SOL    HW224401  10.547   7.808   8.082
25188SOL     OW24402  14.714   9.222   6.964
25188SOL    HW124403  14.659   9.163   6.905
25188SOL    HW224404  14.655   9.293   7.005
25189SOL     OW24405   6.988   9.145   8.276
25189SOL    HW124406   6.956   9.215   8.212
25189SOL    HW224407   7.039   9.076   8.227
25190SOL     OW24408   2.914   4.523   0.869
25190SOL    HW124409   2.997   4.532   0.814
25190SOL    HW224410   2.855   4.453   0.828
25191SOL     OW24411  13.284   8.902   7.991
25191SOL    HW124412  13.280   8.805   7.967
25191SOL    HW224413  13.343   8.951   7.927
25192SOL     OW24414  10.883  12.301   7.707
25192SOL    HW124415  10.795  12.303   7.754
25192SOL    HW224416  10.879  12.358   7.625
25193SOL     OW24417   7.752   8.616   7.405
25193SOL    HW124418   7.691   8.677   7.456
25193SOL    HW224419   7.747   8.638   7.307
25194SOL     OW24420   1.625   3.170   0.154
25194SOL    HW124421   1.589   3.097   0.096
25194SOL    HW224422   1.691   3.224   0.101
25195SOL     OW24423  15.232  10.769   6.648
25195SOL    HW124424  15.282  10.761   6.562
25195SOL    HW224425  15.149  10.823   6.633
25196SOL     OW24426   7.934  13.628   6.362
25196SOL    HW124427   7.926  13.575   6.278
25196SOL    HW224428   7.851  13.618   6.416
25197SOL     OW24429   3.404   7.154   8.427
25197SOL    HW124430   3.496   7.188   8.408
25197SOL    HW224431   3.396   7.059   8.397
25198SOL     OW24432  15.050  16.975   1.288
25198SOL    HW124433  15.041   0.091   1.291
25198SOL    HW224434  14.994  16.938   1.215
25199SOL     OW24435  13.924   2.060   5.915
25199SOL    HW124436  13.945   1.963   5.925
25199SOL    HW224437  13.987   2.101   5.850
25200SOL     OW24438   0.637   6.403   6.804
25200SOL    HW124439   0.606   6.346   6.728
25200SOL    HW224440   0.614   6.499   6.786
25201SOL     OW24441  13.878   7.754   1.462
25201SOL    HW124442  13.816   7.678   1.442
25201SOL    HW224443  13.965   7.741   1.414
25202SOL     OW24444  12.561   9.725   0.161
25202SOL    HW124445  12.565   9.814   0.116
25202SOL    HW224446  12.563   9.737   0.261
25203SOL     OW24447  15.756   3.345   8.413
25203SOL    HW124448  15.816   3.284   0.010
25203SOL    HW224449  15.726   3.420   0.018
25204SOL     OW24450   7.181   5.500   8.290
25204SOL    HW124451   7.152   5.582   8.339
25204SOL    HW224452   7.212   5.432   8.355
25205SOL     OW24453   7.425   8.502   1.339
25205SOL    HW124454   7.414   8.600   1.321
25205SOL    HW224455   7.445   8.454   1.254
25206SOL     OW24456   9.440  14.009   0.653
25206SOL    HW124457   9.375  14.036   0.582
25206SOL    HW224458   9.392  13.986   0.737
25207SOL     OW24459   1.394   0.609   6.951
25207SOL    HW124460   1.460   0.607   6.875
25207SOL    HW224461   1.430   0.667   7.024
25208SOL     OW24462   9.615  11.705   2.014
25208SOL    HW124463   9.579  11.631   2.071
25208SOL    HW224464   9.557  11.718   1.934
25209SOL     OW24465   7.142   7.723   8.118
25209SOL    HW124466   7.141   7.802   8.057
25209SOL    HW224467   7.228   7.722   8.170
25210SOL     OW24468   8.570   7.066   1.963
25210SOL    HW124469   8.507   7.129   1.918
25210SOL    HW224470   8.518   7.002   2.020
25211SOL     OW24471   0.558   5.866   8.389
25211SOL    HW124472   0.459   5.850   8.395
25211SOL    HW224473   0.578   5.919   8.306
25212SOL     OW24474  14.846  10.857   6.337
25212SOL    HW124475  14.762  10.805   6.322
25212SOL    HW224476  14.846  10.939   6.279
25213SOL     OW24477   0.701  15.217   6.635
25213SOL    HW124478   0.732  15.135   6.589
25213SOL    HW224479   0.728  15.298   6.582
25214SOL     OW24480   0.979   5.657   7.917
25214SOL    HW124481   0.916   5.584   7.889
25214SOL    HW224482   0.998   5.716   7.839
25215SOL     OW24483  12.932  12.140   1.354
25215SOL    HW124484  12.974  12.231   1.343
25215SOL    HW224485  12.843  12.149   1.398
25216SOL     OW24486   8.081   2.496   7.921
25216SOL    HW124487   8.070   2.558   7.998
25216SOL    HW224488   8.020   2.523   7.847
25217SOL     OW24489  15.513  12.177   0.000
25217SOL    HW124490  15.480  12.086   0.025
25217SOL    HW224491  15.450  12.219   8.388
25218SOL     OW24492   2.387   9.674   8.423
25218SOL    HW124493   2.413   9.740   0.039
25218SOL    HW224494   2.343   9.722   8.347
25219SOL     OW24495  12.756  11.408   0.970
25219SOL    HW124496  12.725  11.489   0.921
25219SOL    HW224497  12.837  11.370   0.924
25220SOL     OW24498   7.403   2.852   0.530
25220SOL    HW124499   7.455   2.819   0.609
25220SOL    HW224500   7.361   2.773   0.483
25221SOL     OW24501  13.959  11.068   0.798
25221SOL    HW124502  14.011  11.135   0.852
25221SOL    HW224503  13.923  10.997   0.858
25222SOL     OW24504  14.356  10.649   1.194
25222SOL    HW124505  14.437  10.596   1.220
25222SOL    HW224506  14.384  10.741   1.166
25223SOL     OW24507  11.992   1.012   6.621
25223SOL    HW124508  11.901   1.029   6.658
25223SOL    HW224509  12.051   1.090   6.640
25224SOL     OW24510   0.454  15.513   7.195
25224SOL    HW124511   0.509  15.528   7.113
25224SOL    HW224512   0.462  15.418   7.224
25225SOL     OW24513  14.329   0.675   8.264
25225SOL    HW124514  14.316   0.773   8.278
25225SOL    HW224515  14.253   0.638   8.210
25226SOL     OW24516   9.968   9.118   0.980
25226SOL    HW124517  10.026   9.145   1.057
25226SOL    HW224518   9.942   9.022   0.990
25227SOL     OW24519  14.405   9.939   7.987
25227SOL    HW124520  14.487   9.947   7.931
25227SOL    HW224521  14.325   9.963   7.931
25228SOL     OW24522   0.720   3.287   7.117
25228SOL    HW124523   0.624   3.262   7.115
25228SOL    HW224524   0.760   3.274   7.026
25229SOL     OW24525  10.462   8.088   6.593
25229SOL    HW124526  10.539   8.081   6.530
25229SOL    HW224527  10.418   7.999   6.602
25230SOL     OW24528   3.188   0.030   0.095
25230SOL    HW124529   3.153   0.070   0.010
25230SOL    HW224530   3.189   0.101   0.166
25231SOL     OW24531  15.669  14.667   1.668
25231SOL    HW124532  15.595  14.686   1.733
25231SOL    HW224533  15.667  14.571   1.642
25232SOL     OW24534  12.244   3.482   1.526
25232SOL    HW124535  12.177   3.469   1.453
25232SOL    HW224536  12.260   3.394   1.572
25233SOL     OW24537  15.816  13.593   6.681
25233SOL    HW124538  15.868  13.655   6.740
25233SOL    HW224539  15.718  13.615   6.688
25234SOL     OW24540   9.862  14.259   2.480
25234SOL    HW124541   9.951  14.302   2.466
25234SOL    HW224542   9.815  14.302   2.557
25235SOL     OW24543   2.352  10.706   7.894
25235SOL    HW124544   2.365  10.638   7.965
25235SOL    HW224545   2.291  10.670   7.824
25236SOL     OW24546   1.325   0.286   0.478
25236SOL    HW124547   1.413   0.316   0.441
25236SOL    HW224548   1.328   0.188   0.496
25237SOL     OW24549   4.450  12.538   7.112
25237SOL    HW124550   4.474  12.538   7.015
25237SOL    HW224551   4.364  12.488   7.124
25238SOL     OW24552   1.719   1.823   0.627
25238SOL    HW124553   1.812   1.786   0.619
25238SOL    HW224554   1.656   1.765   0.574
25239SOL     OW24555   0.204   3.464   1.621
25239SOL    HW124556   0.113   3.491   1.588
25239SOL    HW224557   0.213   3.490   1.717
25240SOL     OW24558   6.288   3.734   7.164
25240SOL    HW124559   6.327   3.819   7.129
25240SOL    HW224560   6.302   3.661   7.096
25241SOL     OW24561  15.408  14.185   7.819
25241SOL    HW124562  15.333  14.172   7.884
25241SOL    HW224563  15.371  14.221   7.733
25242SOL     OW24564   6.622   1.712   0.584
25242SOL    HW124565   6.607   1.691   0.681
25242SOL    HW224566   6.535   1.709   0.535
25243SOL     OW24567  12.012  15.330   1.132
25243SOL    HW124568  11.968  15.279   1.206
25243SOL    HW224569  12.072  15.400   1.171
25244SOL     OW24570   9.286  10.831   2.058
25244SOL    HW124571   9.353  10.830   1.983
25244SOL    HW224572   9.334  10.812   2.144
25245SOL     OW24573  15.713   7.921   2.084
25245SOL    HW124574  15.683   8.001   2.135
25245SOL    HW224575  15.796   7.884   2.125
25246SOL     OW24576  15.861  14.937   7.145
25246SOL    HW124577  15.778  14.990   7.128
25246SOL    HW224578  15.841  14.840   7.138
25247SOL     OW24579   8.253  15.170   7.543
25247SOL    HW124580   8.222  15.214   7.459
25247SOL    HW224581   8.258  15.239   7.616
25248SOL     OW24582   8.373   4.841   0.895
25248SOL    HW124583   8.287   4.880   0.928
25248SOL    HW224584   8.365   4.820   0.798
25249SOL     OW24585   9.840   4.360   7.109
25249SOL    HW124586   9.745   4.341   7.083
25249SOL    HW224587   9.897   4.366   7.027
25250SOL     OW24588   0.949   6.096   8.098
25250SOL    HW124589   0.895   6.134   8.173
25250SOL    HW224590   0.919   6.002   8.080
25251SOL     OW24591   3.005  10.416   0.277
25251SOL    HW124592   3.074  10.373   0.335
25251SOL    HW224593   3.043  10.433   0.186
25252SOL     OW24594  15.046   3.524   6.646
25252SOL    HW124595  14.959   3.497   6.605
25252SOL    HW224596  15.104   3.565   6.576
25253SOL     OW24597   9.478   9.712   7.972
25253SOL    HW124598   9.520   9.633   7.927
25253SOL    HW224599   9.455   9.781   7.904
25254SOL     OW24600  16.102  11.302   1.533
25254SOL    HW124601  16.154  11.347   1.605
25254SOL    HW224602  16.118  11.204   1.535
25255SOL     OW24603   9.373   2.444   1.184
25255SOL    HW124604   9.280   2.481   1.183
25255SOL    HW224605   9.438   2.516   1.162
25256SOL     OW24606   8.571  16.870   8.278
25256SOL    HW124607   8.560  16.782   8.324
25256SOL    HW224608   8.580  16.855   8.179
25257SOL     OW24609  16.917  15.493   0.360
25257SOL    HW124610   0.009  15.554   0.335
25257SOL    HW224611  16.940  15.444   0.444
25258SOL     OW24612  14.142   9.266   2.916
25258SOL    HW124613  14.201   9.205   2.863
25258SOL    HW224614  14.158   9.360   2.888
25259SOL     OW24615  12.109   9.057   1.028
25259SOL    HW124616  12.081   9.067   1.123
25259SOL    HW224617  12.029   9.068   0.968
25260SOL     OW24618   2.605  15.877   1.901
25260SOL    HW124619   2.647  15.796   1.942
25260SOL    HW224620   2.641  15.890   1.809
25261SOL     OW24621   9.351  16.966   1.493
25261SOL    HW124622   9.422  16.952   1.423
25261SOL    HW224623   9.261  16.947   1.454
25262SOL     OW24624  14.418   0.668   6.886
25262SOL    HW124625  14.331   0.707   6.856
25262SOL    HW224626  14.492   0.708   6.833
25263SOL     OW24627   6.291  15.695   8.217
25263SOL    HW124628   6.219  15.642   8.172
25263SOL    HW224629   6.330  15.760   8.152
25264SOL     OW24630   2.928  11.910   0.404
25264SOL    HW124631   2.890  11.861   0.325
25264SOL    HW224632   2.988  11.983   0.372
25265SOL     OW24633   4.595  15.996   1.420
25265SOL    HW124634   4.602  16.087   1.379
25265SOL    HW224635   4.508  15.990   1.469
25266SOL     OW24636  14.577   6.950   1.684
25266SOL    HW124637  14.552   6.926   1.777
25266SOL    HW224638  14.501   6.932   1.623
25267SOL     OW24639   0.956  13.650   7.605
25267SOL    HW124640   0.978  13.623   7.511
25267SOL    HW224641   0.975  13.573   7.666
25268SOL     OW24642   7.589  13.714   0.087
25268SOL    HW124643   7.543  13.782   0.030
25268SOL    HW224644   7.520  13.656   0.131
25269SOL     OW24645  16.779   8.421   7.363
25269SOL    HW124646  16.711   8.372   7.309
25269SOL    HW224647  16.776   8.389   7.457
25270SOL     OW24648   6.759   6.730   7.128
25270SOL    HW124649   6.776   6.825   7.153
25270SOL    HW224650   6.711   6.684   7.202
25271SOL     OW24651   2.796  16.518   8.378
25271SOL    HW124652   2.895  16.528   8.384
25271SOL    HW224653   2.769  16.505   8.282
25272SOL     OW24654  11.789  11.512   2.291
25272SOL    HW124655  11.802  11.601   2.334
25272SOL    HW224656  11.738  11.523   2.206
25273SOL     OW24657   1.656  10.138   1.181
25273SOL    HW124658   1.734  10.090   1.142
25273SOL    HW224659   1.603  10.075   1.238
25274SOL     OW24660  11.264   6.438   1.740
25274SOL    HW124661  11.291   6.529   1.772
25274SOL    HW224662  11.273   6.435   1.640
25275SOL     OW24663   8.238   6.192   0.443
25275SOL    HW124664   8.309   6.128   0.475
25275SOL    HW224665   8.276   6.285   0.441
25276SOL     OW24666  14.138   9.180   1.658
25276SOL    HW124667  14.130   9.184   1.757
25276SOL    HW224668  14.217   9.125   1.633
25277SOL     OW24669   8.136  16.472   7.645
25277SOL    HW124670   8.147  16.457   7.744
25277SOL    HW224671   8.216  16.520   7.609
25278SOL     OW24672   4.246   7.465   7.925
25278SOL    HW124673   4.321   7.496   7.866
25278SOL    HW224674   4.158   7.490   7.883
25279SOL     OW24675  13.608   5.342   0.427
25279SOL    HW124676  13.579   5.335   0.522
25279SOL    HW224677  13.627   5.251   0.391
25280SOL     OW24678   5.983   8.710   8.053
25280SOL    HW124679   5.972   8.809   8.039
25280SOL    HW224680   5.898   8.663   8.030
25281SOL     OW24681  14.316   9.200   0.758
25281SOL    HW124682  14.375   9.130   0.719
25281SOL    HW224683  14.330   9.203   0.857
25282SOL     OW24684   9.873  15.298   6.652
25282SOL    HW124685   9.897  15.219   6.596
25282SOL    HW224686   9.956  15.343   6.684
25283SOL     OW24687   5.679   1.561   1.861
25283SOL    HW124688   5.606   1.618   1.823
25283SOL    HW224689   5.639   1.487   1.914
25284SOL     OW24690  15.709   5.837   0.629
25284SOL    HW124691  15.777   5.910   0.639
25284SOL    HW224692  15.637   5.867   0.567
25285SOL     OW24693   6.161  11.784   7.201
25285SOL    HW124694   6.148  11.747   7.109
25285SOL    HW224695   6.127  11.719   7.269
25286SOL     OW24696  15.721   3.722   6.402
25286SOL    HW124697  15.655   3.657   6.365
25286SOL    HW224698  15.689   3.815   6.387
25287SOL     OW24699   5.378   3.726   8.052
25287SOL    HW124700   5.423   3.639   8.068
25287SOL    HW224701   5.412   3.766   7.967
25288SOL     OW24702   1.156  15.876   1.570
25288SOL    HW124703   1.149  15.921   1.659
25288SOL    HW224704   1.210  15.793   1.579
25289SOL     OW24705   4.911   2.065   0.631
25289SOL    HW124706   4.924   2.006   0.712
25289SOL    HW224707   4.816   2.060   0.601
25290SOL     OW24708  11.726  10.475   0.792
25290SOL    HW124709  11.626  10.469   0.785
25290SOL    HW224710  11.765  10.383   0.788
25291SOL     OW24711   8.756  14.488   7.406
25291SOL    HW124712   8.795  14.411   7.457
25291SOL    HW224713   8.792  14.574   7.442
25292SOL     OW24714   3.461  13.422   1.274
25292SOL    HW124715   3.453  13.337   1.220
25292SOL    HW224716   3.557  13.448   1.279
25293SOL     OW24717   5.392   1.010   0.869
25293SOL    HW124718   5.411   0.980   0.962
25293SOL    HW224719   5.418   1.106   0.859
25294SOL     OW24720   1.658   6.083   0.802
25294SOL    HW124721   1.606   6.000   0.784
25294SOL    HW224722   1.701   6.114   0.717
25295SOL     OW24723   8.913   1.533   7.229
25295SOL    HW124724   8.826   1.495   7.260
25295SOL    HW224725   8.985   1.507   7.294
25296SOL     OW24726  11.273   4.065   0.852
25296SOL    HW124727  11.300   4.065   0.948
25296SOL    HW224728  11.331   4.128   0.801
25297SOL     OW24729  14.435   0.395   6.894
25297SOL    HW124730  14.530   0.365   6.895
25297SOL    HW224731  14.432   0.495   6.895
25298SOL     OW24732  11.286   2.171   6.830
25298SOL    HW124733  11.363   2.204   6.885
25298SOL    HW224734  11.317   2.098   6.769
25299SOL     OW24735   1.490  11.949   1.102
25299SOL    HW124736   1.488  11.916   1.196
25299SOL    HW224737   1.484  12.049   1.101
25300SOL     OW24738  13.010  10.443   7.313
25300SOL    HW124739  13.029  10.404   7.223
25300SOL    HW224740  12.918  10.480   7.315
25301SOL     OW24741   0.838  16.053   0.772
25301SOL    HW124742   0.828  16.101   0.684
25301SOL    HW224743   0.914  15.988   0.765
25302SOL     OW24744  14.502   7.513   6.403
25302SOL    HW124745  14.577   7.467   6.356
25302SOL    HW224746  14.517   7.508   6.502
25303SOL     OW24747   9.824  11.774   1.076
25303SOL    HW124748   9.817  11.675   1.086
25303SOL    HW224749   9.860  11.795   0.985
25304SOL     OW24750  14.665   4.451   0.637
25304SOL    HW124751  14.699   4.439   0.544
25304SOL    HW224752  14.697   4.377   0.695
25305SOL     OW24753   5.215   0.318   0.416
25305SOL    HW124754   5.204   0.243   0.351
25305SOL    HW224755   5.125   0.356   0.440
25306SOL     OW24756  14.597  15.190   2.254
25306SOL    HW124757  14.540  15.272   2.261
25306SOL    HW224758  14.692  15.214   2.277
25307SOL     OW24759   5.689   1.461   6.823
25307SOL    HW124760   5.696   1.371   6.868
25307SOL    HW224761   5.679   1.448   6.725
25308SOL     OW24762   8.563   6.605   7.438
25308SOL    HW124763   8.470   6.572   7.424
25308SOL    HW224764   8.593   6.655   7.357
25309SOL     OW24765  12.370  15.732   1.132
25309SOL    HW124766  12.316  15.811   1.100
25309SOL    HW224767  12.437  15.763   1.199
25310SOL     OW24768   1.108   7.407   7.110
25310SOL    HW124769   1.072   7.328   7.061
25310SOL    HW224770   1.181   7.450   7.056
25311SOL     OW24771   5.908  15.635   0.350
25311SOL    HW124772   5.931  15.622   0.254
25311SOL    HW224773   5.942  15.557   0.403
25312SOL     OW24774   5.292   4.021   1.405
25312SOL    HW124775   5.383   3.983   1.425
25312SOL    HW224776   5.224   3.973   1.460
25313SOL     OW24777   3.400   3.498   1.479
25313SOL    HW124778   3.465   3.511   1.404
25313SOL    HW224779   3.398   3.402   1.505
25314SOL     OW24780  14.432  16.310   7.475
25314SOL    HW124781  14.382  16.290   7.560
25314SOL    HW224782  14.379  16.280   7.397
25315SOL     OW24783  16.023   8.121   0.497
25315SOL    HW124784  16.051   8.200   0.551
25315SOL    HW224785  16.059   8.129   0.405
25316SOL     OW24786  10.248  11.689   0.785
25316SOL    HW124787  10.315  11.690   0.859
25316SOL    HW224788  10.210  11.781   0.773
25317SOL     OW24789   7.826   2.654   7.469
25317SOL    HW124790   7.831   2.665   7.370
25317SOL    HW224791   7.731   2.636   7.495
25318SOL     OW24792   3.275   7.070   0.883
25318SOL    HW124793   3.298   7.039   0.791
25318SOL    HW224794   3.345   7.133   0.915
25319SOL     OW24795  16.626  11.237   7.910
25319SOL    HW124796  16.536  11.204   7.936
25319SOL    HW224797  16.665  11.292   7.983
25320SOL     OW24798   2.273   5.125   8.073
25320SOL    HW124799   2.273   5.105   7.975
25320SOL    HW224800   2.213   5.202   8.091
25321SOL     OW24801  14.818  12.198   1.562
25321SOL    HW124802  14.806  12.263   1.637
25321SOL    HW224803  14.832  12.247   1.477
25322SOL     OW24804   5.939   4.857   7.828
25322SOL    HW124805   6.017   4.794   7.827
25322SOL    HW224806   5.934   4.902   7.917
25323SOL     OW24807  13.497   1.030   6.557
25323SOL    HW124808  13.519   0.934   6.569
25323SOL    HW224809  13.569   1.086   6.598
25324SOL     OW24810  10.210   4.357   7.034
25324SOL    HW124811  10.125   4.334   6.988
25324SOL    HW224812  10.191   4.411   7.116
25325SOL     OW24813   9.746   0.418   7.465
25325SOL    HW124814   9.704   0.411   7.555
25325SOL    HW224815   9.734   0.332   7.416
25326SOL     OW24816  13.163  16.101   6.936
25326SOL    HW124817  13.092  16.081   6.869
25326SOL    HW224818  13.252  16.107   6.889
25327SOL     OW24819   9.720   8.815   8.129
25327SOL    HW124820   9.817   8.837   8.125
25327SOL    HW224821   9.707   8.716   8.123
25328SOL     OW24822  10.542   1.264   0.158
25328SOL    HW124823  10.576   1.358   0.152
25328SOL    HW224824  10.601   1.204   0.104
25329SOL     OW24825  12.312  15.840   0.560
25329SOL    HW124826  12.378  15.873   0.627
25329SOL    HW224827  12.338  15.748   0.530
25330SOL     OW24828   7.729   0.300   6.482
25330SOL    HW124829   7.819   0.299   6.437
25330SOL    HW224830   7.675   0.222   6.450
25331SOL     OW24831   9.400   2.809   1.507
25331SOL    HW124832   9.376   2.829   1.602
25331SOL    HW224833   9.499   2.817   1.496
25332SOL     OW24834  10.213   9.103   1.416
25332SOL    HW124835  10.176   9.144   1.499
25332SOL    HW224836  10.177   9.151   1.336
25333SOL     OW24837   0.580   7.566   7.957
25333SOL    HW124838   0.624   7.646   7.998
25333SOL    HW224839   0.649   7.498   7.933
25334SOL     OW24840  14.913   9.864   1.831
25334SOL    HW124841  14.991   9.811   1.864
25334SOL    HW224842  14.891   9.838   1.737
25335SOL     OW24843  14.595  13.868   8.335
25335SOL    HW124844  14.676  13.891   8.390
25335SOL    HW224845  14.561  13.951   8.290
25336SOL     OW24846   9.884  14.875   8.278
25336SOL    HW124847   9.884  14.944   8.205
25336SOL    HW224848   9.976  14.870   8.318
25337SOL     OW24849   7.564   4.283   1.845
25337SOL    HW124850   7.548   4.201   1.789
25337SOL    HW224851   7.598   4.256   1.935
25338SOL     OW24852   7.654   5.700   1.371
25338SOL    HW124853   7.582   5.714   1.304
25338SOL    HW224854   7.654   5.605   1.402
25339SOL     OW24855  13.815   3.242   6.726
25339SOL    HW124856  13.893   3.225   6.665
25339SOL    HW224857  13.789   3.157   6.771
25340SOL     OW24858   1.483   5.168   0.260
25340SOL    HW124859   1.412   5.108   0.298
25340SOL    HW224860   1.444   5.258   0.243
25341SOL     OW24861  12.742  13.761   1.148
25341SOL    HW124862  12.824  13.813   1.123
25341SOL    HW224863  12.682  13.818   1.204
25342SOL     OW24864  11.500  14.180   6.379
25342SOL    HW124865  11.478  14.140   6.289
25342SOL    HW224866  11.460  14.271   6.385
25343SOL     OW24867  16.433  14.108   7.591
25343SOL    HW124868  16.492  14.114   7.510
25343SOL    HW224869  16.480  14.055   7.662
25344SOL     OW24870   0.328   5.185   0.951
25344SOL    HW124871   0.345   5.162   0.855
25344SOL    HW224872   0.239   5.230   0.960
25345SOL     OW24873  13.287   2.254   7.960
25345SOL    HW124874  13.358   2.187   7.943
25345SOL    HW224875  13.252   2.243   8.053
25346SOL     OW24876  10.606   2.450   0.307
25346SOL    HW124877  10.631   2.488   0.396
25346SOL    HW224878  10.618   2.351   0.309
25347SOL     OW24879   0.303   4.749   0.648
25347SOL    HW124880   0.242   4.805   0.703
25347SOL    HW224881   0.249   4.683   0.595
25348SOL     OW24882   0.941  11.411   1.388
25348SOL    HW124883   0.907  11.446   1.476
25348SOL    HW224884   0.902  11.466   1.314
25349SOL     OW24885   2.110   6.057   6.977
25349SOL    HW124886   2.030   6.064   7.037
25349SOL    HW224887   2.176   5.993   7.018
25350SOL     OW24888   3.805  13.170   0.440
25350SOL    HW124889   3.760  13.190   0.353
25350SOL    HW224890   3.896  13.211   0.440
25351SOL     OW24891   7.793   2.457   1.443
25351SOL    HW124892   7.792   2.535   1.381
25351SOL    HW224893   7.838   2.482   1.529
25352SOL     OW24894  10.367  16.326   6.497
25352SOL    HW124895  10.375  16.312   6.398
25352SOL    HW224896  10.307  16.404   6.515
25353SOL     OW24897   2.681   2.541   7.285
25353SOL    HW124898   2.594   2.501   7.314
25353SOL    HW224899   2.703   2.510   7.193
25354SOL     OW24900   8.503   3.834   6.025
25354SOL    HW124901   8.454   3.922   6.029
25354SOL    HW224902   8.457   3.773   5.961
25355SOL     OW24903   1.528   1.491   0.668
25355SOL    HW124904   1.566   1.400   0.648
25355SOL    HW224905   1.550   1.553   0.592
25356SOL     OW24906   9.840   0.945   1.802
25356SOL    HW124907   9.821   0.994   1.888
25356SOL    HW224908   9.792   0.858   1.803
25357SOL     OW24909  14.656   5.353   8.078
25357SOL    HW124910  14.646   5.451   8.093
25357SOL    HW224911  14.629   5.303   8.160
25358SOL     OW24912  14.041   8.233   1.152
25358SOL    HW124913  13.985   8.150   1.158
25358SOL    HW224914  14.126   8.220   1.203
25359SOL     OW24915   3.487   1.054   2.657
25359SOL    HW124916   3.449   1.121   2.594
25359SOL    HW224917   3.525   1.100   2.737
25360SOL     OW24918  16.971  15.011   0.560
25360SOL    HW124919   0.041  14.997   0.477
25360SOL    HW224920  16.883  14.966   0.551
25361SOL     OW24921  10.829   3.758   7.867
25361SOL    HW124922  10.813   3.660   7.857
25361SOL    HW224923  10.748   3.801   7.906
25362SOL     OW24924   8.080   3.083   2.387
25362SOL    HW124925   8.161   3.140   2.402
25362SOL    HW224926   7.998   3.135   2.411
25363SOL     OW24927  15.557   3.808   0.673
25363SOL    HW124928  15.652   3.792   0.700
25363SOL    HW224929  15.498   3.800   0.753
25364SOL     OW24930  11.646  12.469   0.634
25364SOL    HW124931  11.563  12.504   0.590
25364SOL    HW224932  11.653  12.371   0.620
25365SOL     OW24933  11.347  12.223   7.589
25365SOL    HW124934  11.326  12.320   7.602
25365SOL    HW224935  11.445  12.209   7.602
25366SOL     OW24936  13.809  15.912   6.774
25366SOL    HW124937  13.797  15.932   6.676
25366SOL    HW224938  13.720  15.906   6.818
25367SOL     OW24939   2.564  14.491   7.939
25367SOL    HW124940   2.642  14.469   7.880
25367SOL    HW224941   2.540  14.587   7.927
25368SOL     OW24942  12.792  11.139   1.504
25368SOL    HW124943  12.830  11.218   1.455
25368SOL    HW224944  12.863  11.098   1.560
25369SOL     OW24945   0.835   6.699   0.811
25369SOL    HW124946   0.782   6.633   0.864
25369SOL    HW224947   0.925   6.710   0.852
25370SOL     OW24948   8.148  11.096   0.673
25370SOL    HW124949   8.230  11.146   0.644
25370SOL    HW224950   8.071  11.124   0.616
25371SOL     OW24951   6.079  15.545   8.105
25371SOL    HW124952   6.035  15.463   8.140
25371SOL    HW224953   6.018  15.623   8.117
25372SOL     OW24954   7.033   5.928   2.010
25372SOL    HW124955   6.975   5.878   2.074
25372SOL    HW224956   7.118   5.877   1.996
25373SOL     OW24957  14.020  10.617   6.846
25373SOL    HW124958  14.018  10.717   6.844
25373SOL    HW224959  14.035  10.586   6.940
25374SOL     OW24960  10.262   7.513   8.043
25374SOL    HW124961  10.274   7.431   8.100
25374SOL    HW224962  10.337   7.577   8.062
25375SOL     OW24963   1.211  11.535   7.872
25375SOL    HW124964   1.246  11.548   7.779
25375SOL    HW224965   1.284  11.553   7.938
25376SOL     OW24966  11.718   8.537   1.561
25376SOL    HW124967  11.665   8.549   1.477
25376SOL    HW224968  11.762   8.447   1.560
25377SOL     OW24969  10.702   5.820   0.143
25377SOL    HW124970  10.617   5.770   0.129
25377SOL    HW224971  10.779   5.755   0.142
25378SOL     OW24972  14.200  15.527   2.084
25378SOL    HW124973  14.212  15.546   1.987
25378SOL    HW224974  14.252  15.594   2.137
25379SOL     OW24975  14.038   7.014   8.214
25379SOL    HW124976  14.116   6.956   8.190
25379SOL    HW224977  14.018   7.076   8.139
25380SOL     OW24978   6.512   5.351   1.038
25380SOL    HW124979   6.456   5.274   1.069
25380SOL    HW224980   6.499   5.364   0.940
25381SOL     OW24981   0.293  12.368   1.130
25381SOL    HW124982   0.220  12.319   1.178
25381SOL    HW224983   0.312  12.324   1.043
25382SOL     OW24984   8.638   9.504   7.155
25382SOL    HW124985   8.672   9.584   7.106
25382SOL    HW224986   8.630   9.526   7.253
25383SOL     OW24987   4.132  13.734   0.659
25383SOL    HW124988   4.144  13.658   0.596
25383SOL    HW224989   4.182  13.814   0.625
25384SOL     OW24990  14.105   0.161   6.758
25384SOL    HW124991  14.010   0.173   6.787
25384SOL    HW224992  14.111   0.085   6.694
25385SOL     OW24993   3.573  13.901   2.152
25385SOL    HW124994   3.549  13.879   2.247
25385SOL    HW224995   3.666  13.937   2.148
25386SOL     OW24996  11.372   0.920   2.032
25386SOL    HW124997  11.407   0.988   2.097
25386SOL    HW224998  11.355   0.834   2.080
25387SOL     OW24999   4.471   6.212   8.108
25387SOL    HW125000   4.479   6.232   8.205
25387SOL    HW225001   4.556   6.172   8.074
25388SOL     OW25002   7.284  13.233   6.685
25388SOL    HW125003   7.342  13.185   6.751
25388SOL    HW225004   7.237  13.166   6.627
25389SOL     OW25005   0.651   8.650   1.551
25389SOL    HW125006   0.665   8.705   1.633
25389SOL    HW225007   0.656   8.709   1.470
25390SOL     OW25008  13.721   2.838   1.417
25390SOL    HW125009  13.697   2.924   1.463
25390SOL    HW225010  13.696   2.761   1.475
25391SOL     OW25011   1.655  15.094   0.474
25391SOL    HW125012   1.683  15.021   0.412
25391SOL    HW225013   1.664  15.182   0.428
25392SOL     OW25014  11.494   4.270   1.224
25392SOL    HW125015  11.535   4.318   1.147
25392SOL    HW225016  11.480   4.333   1.300
25393SOL     OW25017  14.434   3.493   6.008
25393SOL    HW125018  14.447   3.421   5.940
25393SOL    HW225019  14.348   3.477   6.057
25394SOL     OW25020  12.735   2.901   0.588
25394SOL    HW125021  12.818   2.853   0.559
25394SOL    HW225022  12.758   2.969   0.657
25395SOL     OW25023   3.137   8.374   6.699
25395SOL    HW125024   3.190   8.438   6.644
25395SOL    HW225025   3.144   8.282   6.660
25396SOL     OW25026  13.266  15.337   6.812
25396SOL    HW125027  13.298  15.247   6.782
25396SOL    HW225028  13.253  15.396   6.733
25397SOL     OW25029  11.989   0.693   7.037
25397SOL    HW125030  11.894   0.718   7.058
25397SOL    HW225031  12.011   0.723   6.944
25398SOL     OW25032   9.479   5.609   2.034
25398SOL    HW125033   9.478   5.528   2.093
25398SOL    HW225034   9.386   5.642   2.021
25399SOL     OW25035  11.654   3.682   0.106
25399SOL    HW125036  11.634   3.751   0.176
25399SOL    HW225037  11.661   3.592   0.150
25400SOL     OW25038   8.928  15.201   7.430
25400SOL    HW125039   8.840  15.217   7.384
25400SOL    HW225040   8.934  15.260   7.511
25401SOL     OW25041  13.176  11.791   7.616
25401SOL    HW125042  13.156  11.736   7.697
25401SOL    HW225043  13.133  11.750   7.536
25402SOL     OW25044   4.864  10.701   7.043
25402SOL    HW125045   4.870  10.778   6.980
25402SOL    HW225046   4.869  10.616   6.992
25403SOL     OW25047  10.996   7.493   6.372
25403SOL    HW125048  11.013   7.500   6.274
25403SOL    HW225049  10.989   7.585   6.411
25404SOL     OW25050   4.926  10.390   8.008
25404SOL    HW125051   4.956  10.295   8.016
25404SOL    HW225052   4.868  10.401   7.927
25405SOL     OW25053   5.137  15.229   6.716
25405SOL    HW125054   5.158  15.323   6.688
25405SOL    HW225055   5.137  15.170   6.635
25406SOL     OW25056   7.245  12.089   7.484
25406SOL    HW125057   7.186  12.015   7.519
25406SOL    HW225058   7.340  12.057   7.482
25407SOL     OW25059   3.903  10.201   0.034
25407SOL    HW125060   3.902  10.209   8.388
25407SOL    HW225061   3.994  10.172   0.064
25408SOL     OW25062  14.500   4.966   0.596
25408SOL    HW125063  14.546   4.877   0.588
25408SOL    HW225064  14.514   5.003   0.687
25409SOL     OW25065  13.729   5.493   0.714
25409SOL    HW125066  13.693   5.586   0.707
25409SOL    HW225067  13.655   5.427   0.703
25410SOL     OW25068   8.401   5.929   8.296
25410SOL    HW125069   8.375   5.963   8.205
25410SOL    HW225070   8.396   5.829   8.297
25411SOL     OW25071   5.170   4.205   8.036
25411SOL    HW125072   5.131   4.156   7.958
25411SOL    HW225073   5.270   4.198   8.033
25412SOL     OW25074   1.412   4.223   8.198
25412SOL    HW125075   1.406   4.254   8.103
25412SOL    HW225076   1.462   4.137   8.202
25413SOL     OW25077  12.853   0.757   6.509
25413SOL    HW125078  12.808   0.684   6.459
25413SOL    HW225079  12.866   0.836   6.448
25414SOL     OW25080   3.119  11.306   1.463
25414SOL    HW125081   3.217  11.290   1.477
25414SOL    HW225082   3.074  11.218   1.446
25415SOL     OW25083   1.830   7.633   0.918
25415SOL    HW125084   1.867   7.709   0.971
25415SOL    HW225085   1.841   7.548   0.969
25416SOL     OW25086   3.072   7.334   7.337
25416SOL    HW125087   2.998   7.282   7.378
25416SOL    HW225088   3.039   7.382   7.256
25417SOL     OW25089  16.299   6.075   0.525
25417SOL    HW125090  16.390   6.080   0.483
25417SOL    HW225091  16.272   6.167   0.555
25418SOL     OW25092   9.338   8.091   7.763
25418SOL    HW125093   9.277   8.149   7.818
25418SOL    HW225094   9.292   8.067   7.678
25419SOL     OW25095   2.432   2.931   7.089
25419SOL    HW125096   2.428   2.952   6.991
25419SOL    HW225097   2.340   2.910   7.122
25420SOL     OW25098  15.863  10.697   0.763
25420SOL    HW125099  15.938  10.640   0.729
25420SOL    HW225100  15.883  10.793   0.741
25421SOL     OW25101  11.706   4.166   1.753
25421SOL    HW125102  11.669   4.164   1.846
25421SOL    HW225103  11.800   4.132   1.754
25422SOL     OW25104  12.581   9.402   0.399
25422SOL    HW125105  12.523   9.450   0.464
25422SOL    HW225106  12.523   9.351   0.334
25423SOL     OW25107  14.714   8.306   0.339
25423SOL    HW125108  14.743   8.216   0.371
25423SOL    HW225109  14.786   8.373   0.357
25424SOL     OW25110   4.494  10.901   7.349
25424SOL    HW125111   4.452  10.819   7.389
25424SOL    HW225112   4.585  10.878   7.314
25425SOL     OW25113  13.704  11.044   7.538
25425SOL    HW125114  13.656  11.074   7.456
25425SOL    HW225115  13.723  11.122   7.597
25426SOL     OW25116   3.753   7.075   8.201
25426SOL    HW125117   3.703   7.151   8.243
25426SOL    HW225118   3.826   7.046   8.262
25427SOL     OW25119  16.564  11.628   0.964
25427SOL    HW125120  16.620  11.696   1.012
25427SOL    HW225121  16.535  11.558   1.029
25428SOL     OW25122  13.021  13.282   8.382
25428SOL    HW125123  13.093  13.213   8.383
25428SOL    HW225124  12.939  13.246   8.428
25429SOL     OW25125   6.766  13.513   0.436
25429SOL    HW125126   6.824  13.592   0.458
25429SOL    HW225127   6.770  13.495   0.338
25430SOL     OW25128  15.895   1.219   7.385
25430SOL    HW125129  15.815   1.215   7.445
25430SOL    HW225130  15.908   1.130   7.341
25431SOL     OW25131  16.040   5.880   7.942
25431SOL    HW125132  16.081   5.791   7.922
25431SOL    HW225133  16.071   5.912   8.032
25432SOL     OW25134   8.760  14.003   1.435
25432SOL    HW125135   8.826  14.071   1.402
25432SOL    HW225136   8.671  14.021   1.394
25433SOL     OW25137  10.110   9.464   6.657
25433SOL    HW125138  10.119   9.537   6.725
25433SOL    HW225139  10.037   9.401   6.685
25434SOL     OW25140  14.140   2.932   8.440
25434SOL    HW125141  14.062   2.980   0.026
25434SOL    HW225142  14.110   2.880   8.359
25435SOL     OW25143  10.377   8.369   7.293
25435SOL    HW125144  10.294   8.363   7.237
25435SOL    HW225145  10.425   8.282   7.290
25436SOL     OW25146   4.202  11.895   1.223
25436SOL    HW125147   4.232  11.876   1.317
25436SOL    HW225148   4.271  11.953   1.179
25437SOL     OW25149  11.938   8.204   6.739
25437SOL    HW125150  11.948   8.294   6.698
25437SOL    HW225151  11.980   8.135   6.680
25438SOL     OW25152  14.581   6.865   7.414
25438SOL    HW125153  14.547   6.874   7.507
25438SOL    HW225154  14.506   6.839   7.353
25439SOL     OW25155  16.087   8.748   1.008
25439SOL    HW125156  15.992   8.761   1.034
25439SOL    HW225157  16.120   8.661   1.042
25440SOL     OW25158  14.601  13.364   7.656
25440SOL    HW125159  14.650  13.427   7.595
25440SOL    HW225160  14.664  13.293   7.688
25441SOL     OW25161   5.419   3.723   7.582
25441SOL    HW125162   5.463   3.655   7.523
25441SOL    HW225163   5.320   3.709   7.582
25442SOL     OW25164   6.292  13.380   2.335
25442SOL    HW125165   6.284  13.479   2.321
25442SOL    HW225166   6.213  13.348   2.389
25443SOL     OW25167   7.353   8.478   7.741
25443SOL    HW125168   7.297   8.456   7.661
25443SOL    HW225169   7.450   8.459   7.720
25444SOL     OW25170   6.738   4.575   0.098
25444SOL    HW125171   6.728   4.563   0.197
25444SOL    HW225172   6.726   4.486   0.053
25445SOL     OW25173   9.845  13.161   1.505
25445SOL    HW125174   9.860  13.131   1.411
25445SOL    HW225175   9.753  13.135   1.534
25446SOL     OW25176   4.860   1.145   8.368
25446SOL    HW125177   4.769   1.111   8.392
25446SOL    HW225178   4.911   1.074   8.319
25447SOL     OW25179   6.384  11.069   7.220
25447SOL    HW125180   6.344  10.991   7.268
25447SOL    HW225181   6.454  11.111   7.277
25448SOL     OW25182   5.099   0.010   0.717
25448SOL    HW125183   5.094   0.051   0.808
25448SOL    HW225184   5.173  16.926   0.714
25449SOL     OW25185   8.022   9.396   7.033
25449SOL    HW125186   8.001   9.465   6.964
25449SOL    HW225187   8.083   9.436   7.102
25450SOL     OW25188  16.211   7.729   1.332
25450SOL    HW125189  16.242   7.795   1.264
25450SOL    HW225190  16.164   7.776   1.406
25451SOL     OW25191  16.012  11.139   1.082
25451SOL    HW125192  15.995  11.215   1.144
25451SOL    HW225193  16.067  11.070   1.128
25452SOL     OW25194  12.703  14.760   0.891
25452SOL    HW125195  12.612  14.786   0.860
25452SOL    HW225196  12.711  14.775   0.989
25453SOL     OW25197   9.033   7.455   6.397
25453SOL    HW125198   9.058   7.547   6.365
25453SOL    HW225199   9.115   7.398   6.402
25454SOL     OW25200  16.723  10.991   2.093
25454SOL    HW125201  16.673  11.066   2.135
25454SOL    HW225202  16.738  10.919   2.161
25455SOL     OW25203   8.295   7.006   5.883
25455SOL    HW125204   8.282   7.098   5.920
25455SOL    HW225205   8.377   7.004   5.826
25456SOL     OW25206   1.659  13.194   1.334
25456SOL    HW125207   1.578  13.164   1.384
25456SOL    HW225208   1.697  13.275   1.378
25457SOL     OW25209   7.644   9.636   1.962
25457SOL    HW125210   7.559   9.681   1.938
25457SOL    HW225211   7.637   9.599   2.054
25458SOL     OW25212   3.704  16.590   8.326
25458SOL    HW125213   3.653  16.675   8.330
25458SOL    HW225214   3.645  16.517   8.289
25459SOL     OW25215   7.703   2.799   6.290
25459SOL    HW125216   7.691   2.719   6.349
25459SOL    HW225217   7.679   2.774   6.196
25460SOL     OW25218   9.990   2.074   6.809
25460SOL    HW125219  10.007   1.983   6.770
25460SOL    HW225220  10.078   2.115   6.835
25461SOL     OW25221   5.216  15.233   0.879
25461SOL    HW125222   5.237  15.256   0.783
25461SOL    HW225223   5.139  15.288   0.910
25462SOL     OW25224  15.082  12.859   1.392
25462SOL    HW125225  15.177  12.831   1.406
25462SOL    HW225226  15.022  12.803   1.449
25463SOL     OW25227   0.534  16.721   7.583
25463SOL    HW125228   0.462  16.672   7.533
25463SOL    HW225229   0.492  16.792   7.639
25464SOL     OW25230  16.605   0.455   0.004
25464SOL    HW125231  16.649   0.385   0.060
25464SOL    HW225232  16.673   0.519   8.425
25465SOL     OW25233  14.414   0.637   0.688
25465SOL    HW125234  14.493   0.677   0.641
25465SOL    HW225235  14.331   0.685   0.660
25466SOL     OW25236   5.049  16.628   1.483
25466SOL    HW125237   5.026  16.711   1.432
25466SOL    HW225238   5.063  16.650   1.580
25467SOL     OW25239   6.203   8.710   1.688
25467SOL    HW125240   6.238   8.689   1.779
25467SOL    HW225241   6.257   8.660   1.620
25468SOL     OW25242  15.950  12.393   2.629
25468SOL    HW125243  15.896  12.366   2.709
25468SOL    HW225244  16.037  12.433   2.660
25469SOL     OW25245   1.489  11.108   1.479
25469SOL    HW125246   1.531  11.058   1.404
25469SOL    HW225247   1.389  11.098   1.474
25470SOL     OW25248  16.067  15.294   6.769
25470SOL    HW125249  16.005  15.324   6.697
25470SOL    HW225250  16.016  15.245   6.840
25471SOL     OW25251   0.892   6.596   7.365
25471SOL    HW125252   0.891   6.639   7.275
25471SOL    HW225253   0.852   6.659   7.432
25472SOL     OW25254  12.317  16.434   0.652
25472SOL    HW125255  12.278  16.410   0.741
25472SOL    HW225256  12.244  16.457   0.588
25473SOL     OW25257  14.639   6.054   7.749
25473SOL    HW125258  14.712   6.101   7.798
25473SOL    HW225259  14.639   6.082   7.653
25474SOL     OW25260   7.404   4.085   8.278
25474SOL    HW125261   7.387   4.098   8.181
25474SOL    HW225262   7.319   4.063   8.325
25475SOL     OW25263   8.755  13.120   8.317
25475SOL    HW125264   8.753  13.136   8.416
25475SOL    HW225265   8.813  13.188   8.273
25476SOL     OW25266  12.841   6.794   2.143
25476SOL    HW125267  12.769   6.855   2.176
25476SOL    HW225268  12.801   6.707   2.113
25477SOL     OW25269  12.129  16.961   8.187
25477SOL    HW125270  12.083   0.049   8.241
25477SOL    HW225271  12.087  16.873   8.206
25478SOL     OW25272  16.931   3.526   7.674
25478SOL    HW125273  16.854   3.542   7.612
25478SOL    HW225274  16.898   3.530   7.769
25479SOL     OW25275  10.858   3.793   6.614
25479SOL    HW125276  10.919   3.778   6.692
25479SOL    HW225277  10.800   3.872   6.633
25480SOL     OW25278  13.709   8.144   1.343
25480SOL    HW125279  13.713   8.226   1.286
25480SOL    HW225280  13.692   8.064   1.287
25481SOL     OW25281   0.488  12.281   1.955
25481SOL    HW125282   0.402  12.319   1.921
25481SOL    HW225283   0.471  12.232   2.040
25482SOL     OW25284   7.855  10.479   0.706
25482SOL    HW125285   7.920  10.498   0.781
25482SOL    HW225286   7.906  10.464   0.622
25483SOL     OW25287   6.403  14.419   7.987
25483SOL    HW125288   6.359  14.498   7.946
25483SOL    HW225289   6.495  14.443   8.018
25484SOL     OW25290  12.026   3.234   7.146
25484SOL    HW125291  12.077   3.252   7.062
25484SOL    HW225292  11.929   3.252   7.131
25485SOL     OW25293  10.603  11.263   1.715
25485SOL    HW125294  10.579  11.310   1.630
25485SOL    HW225295  10.522  11.250   1.771
25486SOL     OW25296   3.445   7.281   0.960
25486SOL    HW125297   3.392   7.353   0.915
25486SOL    HW225298   3.543   7.301   0.952
25487SOL     OW25299   6.807   4.845   6.201
25487SOL    HW125300   6.744   4.774   6.171
25487SOL    HW225301   6.759   4.908   6.262
25488SOL     OW25302  16.185  16.096   8.078
25488SOL    HW125303  16.211  16.189   8.103
25488SOL    HW225304  16.200  16.035   8.155
25489SOL     OW25305  13.676  14.325   7.136
25489SOL    HW125306  13.704  14.420   7.148
25489SOL    HW225307  13.755  14.269   7.112
25490SOL     OW25308  13.497   4.395   0.372
25490SOL    HW125309  13.443   4.428   0.293
25490SOL    HW225310  13.446   4.322   0.418
25491SOL     OW25311  15.314   2.404   6.986
25491SOL    HW125312  15.317   2.457   7.071
25491SOL    HW225313  15.227   2.421   6.940
25492SOL     OW25314  16.529  13.859   6.982
25492SOL    HW125315  16.618  13.904   6.978
25492SOL    HW225316  16.487  13.858   6.890
25493SOL     OW25317  10.279  12.926   8.201
25493SOL    HW125318  10.215  12.922   8.124
25493SOL    HW225319  10.328  13.013   8.200
25494SOL     OW25320  12.592   7.431   7.239
25494SOL    HW125321  12.644   7.353   7.204
25494SOL    HW225322  12.587   7.502   7.169
25495SOL     OW25323   0.058   7.174   1.553
25495SOL    HW125324   0.037   7.120   1.635
25495SOL    HW225325   0.133   7.130   1.502
25496SOL     OW25326   9.782   6.497   0.020
25496SOL    HW125327   9.685   6.517   0.034
25496SOL    HW225328   9.800   6.402   0.046
25497SOL     OW25329   5.687   7.068   7.124
25497SOL    HW125330   5.699   7.157   7.169
25497SOL    HW225331   5.694   6.996   7.193
25498SOL     OW25332   2.977  13.049   0.045
25498SOL    HW125333   3.013  13.045   8.405
25498SOL    HW225334   2.877  13.048   0.042
25499SOL     OW25335   8.148   5.720   7.650
25499SOL    HW125336   8.085   5.647   7.622
25499SOL    HW225337   8.237   5.706   7.606
25500SOL     OW25338   9.722  14.201   1.162
25500SOL    HW125339   9.698  14.104   1.161
25500SOL    HW225340   9.706  14.238   1.254
25501SOL     OW25341   0.515  11.252   7.348
25501SOL    HW125342   0.441  11.284   7.408
25501SOL    HW225343   0.497  11.281   7.254
25502SOL     OW25344  14.022   3.651   0.094
25502SOL    HW125345  14.061   3.730   0.142
25502SOL    HW225346  14.095   3.601   0.048
25503SOL     OW25347  10.571   5.154   0.401
25503SOL    HW125348  10.509   5.132   0.327
25503SOL    HW225349  10.638   5.222   0.370
25504SOL     OW25350   0.373   8.101   7.644
25504SOL    HW125351   0.416   8.161   7.712
25504SOL    HW225352   0.273   8.107   7.654
25505SOL     OW25353   2.961   8.009   7.631
25505SOL    HW125354   2.940   8.068   7.552
25505SOL    HW225355   3.024   8.057   7.692
25506SOL     OW25356  14.249   7.879   8.410
25506SOL    HW125357  14.279   7.787   8.386
25506SOL    HW225358  14.298   7.946   8.355
25507SOL     OW25359   0.685   5.680   0.100
25507SOL    HW125360   0.748   5.734   0.154
25507SOL    HW225361   0.641   5.738   0.031
25508SOL     OW25362   6.082   8.356   6.831
25508SOL    HW125363   6.062   8.294   6.755
25508SOL    HW225364   5.996   8.394   6.866
25509SOL     OW25365   9.753   5.792   8.376
25509SOL    HW125366   9.843   5.796   8.419
25509SOL    HW225367   9.700   5.873   8.402
25510SOL     OW25368  14.535   8.440   1.377
25510SOL    HW125369  14.582   8.512   1.428
25510SOL    HW225370  14.463   8.481   1.321
25511SOL     OW25371   5.629  15.919   0.995
25511SOL    HW125372   5.562  15.846   0.981
25511SOL    HW225373   5.658  15.920   1.090
25512SOL     OW25374  16.101  12.796   7.017
25512SOL    HW125375  16.135  12.803   7.111
25512SOL    HW225376  16.139  12.714   6.974
25513SOL     OW25377   6.154   3.148   6.011
25513SOL    HW125378   6.150   3.232   6.064
25513SOL    HW225379   6.183   3.168   5.918
25514SOL     OW25380   2.530  11.827   7.126
25514SOL    HW125381   2.615  11.877   7.107
25514SOL    HW225382   2.516  11.821   7.225
25515SOL     OW25383   7.821   1.763   6.737
25515SOL    HW125384   7.831   1.764   6.637
25515SOL    HW225385   7.724   1.762   6.761
25516SOL     OW25386   7.225   4.534   0.691
25516SOL    HW125387   7.234   4.574   0.782
25516SOL    HW225388   7.316   4.519   0.652
25517SOL     OW25389  11.718  10.714   6.898
25517SOL    HW125390  11.694  10.746   6.806
25517SOL    HW225391  11.817  10.721   6.911
25518SOL     OW25392  12.131   8.730   7.184
25518SOL    HW125393  12.203   8.668   7.214
25518SOL    HW225394  12.056   8.677   7.146
25519SOL     OW25395   7.752   0.807   0.308
25519SOL    HW125396   7.747   0.709   0.290
25519SOL    HW225397   7.812   0.850   0.242
25520SOL     OW25398  13.567  12.471   2.791
25520SOL    HW125399  13.636  12.432   2.853
25520SOL    HW225400  13.612  12.504   2.708
25521SOL     OW25401  15.537   8.637   1.293
25521SOL    HW125402  15.476   8.667   1.366
25521SOL    HW225403  15.522   8.693   1.212
25522SOL     OW25404   5.050   7.978   0.808
25522SOL    HW125405   5.099   8.064   0.825
25522SOL    HW225406   5.032   7.933   0.895
25523SOL     OW25407  14.480  16.257   7.060
25523SOL    HW125408  14.410  16.254   7.132
25523SOL    HW225409  14.470  16.177   7.001
25524SOL     OW25410  15.266  15.773   1.058
25524SOL    HW125411  15.302  15.760   1.150
25524SOL    HW225412  15.233  15.867   1.048
25525SOL     OW25413  13.385  15.551   1.842
25525SOL    HW125414  13.360  15.567   1.938
25525SOL    HW225415  13.390  15.453   1.825
25526SOL     OW25416   6.698  14.049   1.119
25526SOL    HW125417   6.699  14.149   1.129
25526SOL    HW225418   6.612  14.020   1.079
25527SOL     OW25419   0.187   2.679   6.087
25527SOL    HW125420   0.158   2.610   6.021
25527SOL    HW225421   0.286   2.690   6.082
25528SOL     OW25422   9.760  12.329   0.182
25528SOL    HW125423   9.722  12.245   0.141
25528SOL    HW225424   9.858  12.333   0.165
25529SOL     OW25425  11.728   4.408   0.763
25529SOL    HW125426  11.775   4.481   0.715
25529SOL    HW225427  11.742   4.322   0.714
25530SOL     OW25428  13.295  14.027   0.466
25530SOL    HW125429  13.212  14.082   0.455
25530SOL    HW225430  13.270  13.933   0.491
25531SOL     OW25431  12.791   5.125   6.736
25531SOL    HW125432  12.698   5.088   6.733
25531SOL    HW225433  12.789   5.224   6.722
25532SOL     OW25434   1.428   1.472   7.553
25532SOL    HW125435   1.381   1.542   7.500
25532SOL    HW225436   1.366   1.437   7.624
25533SOL     OW25437  13.722   1.784   0.608
25533SOL    HW125438  13.781   1.779   0.689
25533SOL    HW225439  13.654   1.711   0.611
25534SOL     OW25440   1.965   6.016   2.454
25534SOL    HW125441   2.012   6.097   2.489
25534SOL    HW225442   2.016   5.980   2.375
25535SOL     OW25443  14.004   3.139   6.551
25535SOL    HW125444  13.974   3.132   6.456
25535SOL    HW225445  14.013   3.048   6.590
25536SOL     OW25446   7.547  10.926   2.545
25536SOL    HW125447   7.455  10.963   2.559
25536SOL    HW225448   7.615  10.991   2.579
25537SOL     OW25449   0.574  11.635   1.783
25537SOL    HW125450   0.642  11.690   1.735
25537SOL    HW225451   0.524  11.693   1.848
25538SOL     OW25452  12.298  12.582   1.957
25538SOL    HW125453  12.361  12.505   1.948
25538SOL    HW225454  12.271  12.593   2.053
25539SOL     OW25455   5.839   0.556   0.618
25539SOL    HW125456   5.827   0.461   0.647
25539SOL    HW225457   5.885   0.558   0.529
25540SOL     OW25458  11.195  10.912   1.791
25540SOL    HW125459  11.146  10.834   1.752
25540SOL    HW225460  11.140  10.995   1.781
25541SOL     OW25461   6.277   9.873   0.568
25541SOL    HW125462   6.208   9.841   0.633
25541SOL    HW225463   6.257   9.836   0.478
25542SOL     OW25464   5.777  13.638   0.562
25542SOL    HW125465   5.774  13.693   0.478
25542SOL    HW225466   5.686  13.602   0.582
25543SOL     OW25467   6.193  12.853   1.268
25543SOL    HW125468   6.216  12.871   1.172
25543SOL    HW225469   6.095  12.835   1.276
25544SOL     OW25470  13.898  13.762   1.995
25544SOL    HW125471  13.927  13.838   1.936
25544SOL    HW225472  13.872  13.798   2.085
25545SOL     OW25473   3.930   4.704   1.009
25545SOL    HW125474   4.011   4.754   0.979
25545SOL    HW225475   3.866   4.768   1.052
25546SOL     OW25476  10.872  16.728   6.670
25546SOL    HW125477  10.912  16.682   6.749
25546SOL    HW225478  10.944  16.772   6.616
25547SOL     OW25479  16.834  13.227   1.191
25547SOL    HW125480  16.772  13.287   1.141
25547SOL    HW225481  16.896  13.182   1.127
25548SOL     OW25482  12.510   7.911   6.638
25548SOL    HW125483  12.424   7.956   6.614
25548SOL    HW225484  12.570   7.911   6.558
25549SOL     OW25485   1.148  11.796   8.103
25549SOL    HW125486   1.073  11.753   8.052
25549SOL    HW225487   1.227  11.736   8.103
25550SOL     OW25488  12.828  12.812   0.371
25550SOL    HW125489  12.861  12.761   0.292
25550SOL    HW225490  12.729  12.828   0.362
25551SOL     OW25491  12.404   6.147   1.089
25551SOL    HW125492  12.462   6.217   1.048
25551SOL    HW225493  12.461   6.073   1.124
25552SOL     OW25494  15.827   0.374   6.507
25552SOL    HW125495  15.736   0.385   6.466
25552SOL    HW225496  15.855   0.279   6.500
25553SOL     OW25497   1.674  15.876   0.858
25553SOL    HW125498   1.657  15.778   0.866
25553SOL    HW225499   1.623  15.913   0.780
25554SOL     OW25500  11.421   8.100   1.008
25554SOL    HW125501  11.412   8.196   0.982
25554SOL    HW225502  11.493   8.057   0.954
25555SOL     OW25503  10.201   5.322   7.643
25555SOL    HW125504  10.194   5.419   7.618
25555SOL    HW225505  10.161   5.308   7.734
25556SOL     OW25506   7.970  16.218   0.434
25556SOL    HW125507   7.914  16.170   0.367
25556SOL    HW225508   8.020  16.292   0.389
25557SOL     OW25509  13.691  16.366   7.323
25557SOL    HW125510  13.710  16.401   7.415
25557SOL    HW225511  13.617  16.299   7.329
25558SOL     OW25512   7.236   7.326   1.409
25558SOL    HW125513   7.148   7.289   1.378
25558SOL    HW225514   7.287   7.361   1.331
25559SOL     OW25515   6.749   5.874   1.049
25559SOL    HW125516   6.807   5.929   1.109
25559SOL    HW225517   6.796   5.787   1.030
25560SOL     OW25518   4.550  16.475   7.505
25560SOL    HW125519   4.530  16.404   7.437
25560SOL    HW225520   4.466  16.521   7.532
25561SOL     OW25521  12.988   5.281   0.322
25561SOL    HW125522  13.014   5.188   0.298
25561SOL    HW225523  12.914   5.279   0.389
25562SOL     OW25524   4.577   4.535   7.845
25562SOL    HW125525   4.542   4.617   7.802
25562SOL    HW225526   4.628   4.480   7.779
25563SOL     OW25527   6.295   4.518   1.371
25563SOL    HW125528   6.323   4.579   1.446
25563SOL    HW225529   6.202   4.487   1.387
25564SOL     OW25530   6.416   3.031   1.822
25564SOL    HW125531   6.462   2.956   1.870
25564SOL    HW225532   6.368   3.089   1.887
25565SOL     OW25533   3.288  10.975   0.782
25565SOL    HW125534   3.222  10.908   0.747
25565SOL    HW225535   3.379  10.954   0.746
25566SOL     OW25536   9.272   4.477   7.123
25566SOL    HW125537   9.235   4.477   7.216
25566SOL    HW225538   9.209   4.525   7.062
25567SOL     OW25539   9.103   6.129   6.020
25567SOL    HW125540   9.185   6.179   5.995
25567SOL    HW225541   9.082   6.060   5.951
25568SOL     OW25542   7.203  12.204   0.258
25568SOL    HW125543   7.243  12.146   0.186
25568SOL    HW225544   7.263  12.203   0.338
25569SOL     OW25545   4.601   8.742   1.745
25569SOL    HW125546   4.616   8.643   1.736
25569SOL    HW225547   4.520   8.758   1.801
25570SOL     OW25548   0.195   9.608   7.557
25570SOL    HW125549   0.097   9.587   7.564
25570SOL    HW225550   0.241   9.533   7.509
25571SOL     OW25551   1.706   0.357   8.018
25571SOL    HW125552   1.748   0.301   7.947
25571SOL    HW225553   1.615   0.386   7.988
25572SOL     OW25554  14.091  14.647   0.772
25572SOL    HW125555  14.030  14.687   0.704
25572SOL    HW225556  14.154  14.583   0.726
25573SOL     OW25557   3.060   1.843   0.211
25573SOL    HW125558   3.111   1.804   0.287
25573SOL    HW225559   3.043   1.773   0.142
25574SOL     OW25560   0.353   3.008   6.409
25574SOL    HW125561   0.386   2.913   6.409
25574SOL    HW225562   0.420   3.067   6.364
25575SOL     OW25563   2.933  13.364   0.634
25575SOL    HW125564   3.020  13.350   0.586
25575SOL    HW225565   2.861  13.384   0.568
25576SOL     OW25566  14.436  15.540   6.446
25576SOL    HW125567  14.479  15.615   6.396
25576SOL    HW225568  14.457  15.453   6.401
25577SOL     OW25569   1.263   7.977   1.184
25577SOL    HW125570   1.248   7.926   1.268
25577SOL    HW225571   1.206   8.059   1.183
25578SOL     OW25572   3.561   0.167   2.698
25578SOL    HW125573   3.524   0.238   2.758
25578SOL    HW225574   3.513   0.168   2.610
25579SOL     OW25575  15.062  12.412   0.906
25579SOL    HW125576  15.039  12.320   0.939
25579SOL    HW225577  15.036  12.479   0.974
25580SOL     OW25578   2.471  16.975   0.353
25580SOL    HW125579   2.499   0.083   0.324
25580SOL    HW225580   2.537  16.908   0.320
25581SOL     OW25581   0.563  11.672   7.452
25581SOL    HW125582   0.530  11.608   7.520
25581SOL    HW225583   0.632  11.628   7.395
25582SOL     OW25584   7.474  14.558   1.738
25582SOL    HW125585   7.493  14.614   1.819
25582SOL    HW225586   7.449  14.617   1.662
25583SOL     OW25587  11.235   2.849   7.851
25583SOL    HW125588  11.177   2.802   7.918
25583SOL    HW225589  11.326   2.807   7.850
25584SOL     OW25590   0.530   9.246   7.528
25584SOL    HW125591   0.464   9.319   7.509
25584SOL    HW225592   0.576   9.221   7.443
25585SOL     OW25593   8.773  14.441   8.284
25585SOL    HW125594   8.697  14.486   8.237
25585SOL    HW225595   8.791  14.352   8.241
25586SOL     OW25596   6.073  12.465   1.250
25586SOL    HW125597   6.117  12.492   1.165
25586SOL    HW225598   6.021  12.381   1.236
25587SOL     OW25599  16.281   4.724   7.420
25587SOL    HW125600  16.234   4.812   7.415
25587SOL    HW225601  16.329   4.716   7.508
25588SOL     OW25602  15.714  10.166   7.915
25588SOL    HW125603  15.699  10.262   7.891
25588SOL    HW225604  15.710  10.156   8.014
25589SOL     OW25605  11.751   0.401   0.298
25589SOL    HW125606  11.745   0.327   0.231
25589SOL    HW225607  11.669   0.401   0.356
25590SOL     OW25608   4.299   1.417   8.283
25590SOL    HW125609   4.391   1.380   8.274
25590SOL    HW225610   4.304   1.517   8.283
25591SOL     OW25611   9.388  15.948   0.699
25591SOL    HW125612   9.424  16.011   0.630
25591SOL    HW225613   9.439  15.862   0.694
25592SOL     OW25614   5.295  11.512   2.164
25592SOL    HW125615   5.330  11.559   2.246
25592SOL    HW225616   5.260  11.422   2.191
25593SOL     OW25617   9.480   1.586   5.912
25593SOL    HW125618   9.385   1.590   5.945
25593SOL    HW225619   9.480   1.599   5.812
25594SOL     OW25620   4.850  12.628   2.307
25594SOL    HW125621   4.932  12.572   2.320
25594SOL    HW225622   4.783  12.604   2.377
25595SOL     OW25623  10.226   6.840   7.844
25595SOL    HW125624  10.212   6.744   7.867
25595SOL    HW225625  10.153   6.895   7.884
25596SOL     OW25626  12.494   9.031   1.179
25596SOL    HW125627  12.446   8.975   1.111
25596SOL    HW225628  12.524   8.972   1.255
25597SOL     OW25629   2.756   0.543   7.288
25597SOL    HW125630   2.661   0.514   7.301
25597SOL    HW225631   2.773   0.560   7.191
25598SOL     OW25632  10.284   2.534   7.287
25598SOL    HW125633  10.235   2.460   7.333
25598SOL    HW225634  10.264   2.620   7.333
25599SOL     OW25635   7.631   1.858   8.439
25599SOL    HW125636   7.650   1.815   8.350
25599SOL    HW225637   7.704   1.922   0.008
25600SOL     OW25638   0.331  16.039   2.437
25600SOL    HW125639   0.413  16.051   2.493
25600SOL    HW225640   0.260  15.993   2.491
25601SOL     OW25641   3.616   2.956   0.734
25601SOL    HW125642   3.626   2.953   0.833
25601SOL    HW225643   3.636   3.048   0.701
25602SOL     OW25644  15.005  11.197   1.379
25602SOL    HW125645  15.099  11.177   1.349
25602SOL    HW225646  14.980  11.289   1.352
25603SOL     OW25647   6.457   0.290   1.969
25603SOL    HW125648   6.414   0.372   1.932
25603SOL    HW225649   6.515   0.315   2.047
25604SOL     OW25650   5.996  11.682   7.667
25604SOL    HW125651   5.912  11.628   7.663
25604SOL    HW225652   6.025  11.690   7.763
25605SOL     OW25653   6.673  11.300   1.677
25605SOL    HW125654   6.618  11.301   1.761
25605SOL    HW225655   6.622  11.252   1.605
25606SOL     OW25656  14.794   7.630   0.984
25606SOL    HW125657  14.732   7.702   1.014
25606SOL    HW225658  14.861   7.668   0.920
25607SOL     OW25659   3.572   2.552   6.981
25607SOL    HW125660   3.530   2.473   6.935
25607SOL    HW225661   3.505   2.595   7.041
25608SOL     OW25662   6.399  14.526   7.234
25608SOL    HW125663   6.454  14.604   7.206
25608SOL    HW225664   6.416  14.505   7.330
25609SOL     OW25665  14.138  14.875   1.447
25609SOL    HW125666  14.126  14.932   1.528
25609SOL    HW225667  14.195  14.796   1.471
25610SOL     OW25668   8.673  14.539   0.452
25610SOL    HW125669   8.693  14.620   0.397
25610SOL    HW225670   8.636  14.568   0.541
25611SOL     OW25671  16.164   6.446   1.112
25611SOL    HW125672  16.084   6.389   1.093
25611SOL    HW225673  16.151   6.494   1.199
25612SOL     OW25674   1.975   2.346   0.807
25612SOL    HW125675   1.906   2.388   0.867
25612SOL    HW225676   2.031   2.283   0.861
25613SOL     OW25677   7.401   2.829   7.930
25613SOL    HW125678   7.357   2.824   7.841
25613SOL    HW225679   7.500   2.826   7.919
25614SOL     OW25680   6.670  14.438   8.347
25614SOL    HW125681   6.575  14.417   8.370
25614SOL    HW225682   6.730  14.365   8.380
25615SOL     OW25683   5.661   7.260   0.270
25615SOL    HW125684   5.597   7.206   0.325
25615SOL    HW225685   5.755   7.228   0.288
25616SOL     OW25686   2.455   0.858   7.947
25616SOL    HW125687   2.412   0.773   7.979
25616SOL    HW225688   2.530   0.836   7.884
25617SOL     OW25689  15.738   0.794   1.810
25617SOL    HW125690  15.721   0.836   1.899
25617SOL    HW225691  15.761   0.697   1.823
25618SOL     OW25692   2.774  12.445   0.055
25618SOL    HW125693   2.697  12.421   0.113
25618SOL    HW225694   2.809  12.535   0.082
25619SOL     OW25695  13.694  10.593   0.228
25619SOL    HW125696  13.667  10.617   0.134
25619SOL    HW225697  13.618  10.546   0.273
25620SOL     OW25698  16.824   7.963   6.724
25620SOL    HW125699  16.766   7.978   6.644
25620SOL    HW225700  16.839   8.050   6.771
25621SOL     OW25701   8.364   4.053   7.301
25621SOL    HW125702   8.442   4.114   7.287
25621SOL    HW225703   8.383   3.994   7.380
25622SOL     OW25704   3.449  12.630   0.688
25622SOL    HW125705   3.483  12.700   0.750
25622SOL    HW225706   3.403  12.558   0.740
25623SOL     OW25707  13.369  12.879   7.437
25623SOL    HW125708  13.345  12.945   7.508
25623SOL    HW225709  13.438  12.816   7.471
25624SOL     OW25710  16.006   1.397   8.097
25624SOL    HW125711  16.010   1.397   8.197
25624SOL    HW225712  15.919   1.434   8.067
25625SOL     OW25713   3.773   8.375   8.071
25625SOL    HW125714   3.791   8.292   8.019
25625SOL    HW225715   3.718   8.438   8.015
25626SOL     OW25716   1.559   3.585   7.262
25626SOL    HW125717   1.581   3.682   7.253
25626SOL    HW225718   1.564   3.541   7.173
25627SOL     OW25719   4.444  10.979   6.868
25627SOL    HW125720   4.411  10.982   6.962
25627SOL    HW225721   4.430  11.069   6.825
25628SOL     OW25722  15.234  12.954   8.323
25628SOL    HW125723  15.311  12.942   8.261
25628SOL    HW225724  15.173  13.025   8.287
25629SOL     OW25725   3.718   4.731   7.289
25629SOL    HW125726   3.753   4.789   7.216
25629SOL    HW225727   3.621   4.750   7.304
25630SOL     OW25728   6.649  14.490   8.081
25630SOL    HW125729   6.666  14.585   8.054
25630SOL    HW225730   6.662  14.481   8.179
25631SOL     OW25731  16.826   3.463   7.012
25631SOL    HW125732  16.882   3.411   6.947
25631SOL    HW225733  16.770   3.400   7.066
25632SOL     OW25734   7.227   2.731   7.026
25632SOL    HW125735   7.285   2.789   6.969
25632SOL    HW225736   7.133   2.764   7.023
25633SOL     OW25737   3.962   8.396   7.367
25633SOL    HW125738   3.873   8.352   7.350
25633SOL    HW225739   4.035   8.329   7.352
25634SOL     OW25740  15.231   7.106   0.208
25634SOL    HW125741  15.152   7.056   0.172
25634SOL    HW225742  15.200   7.179   0.268
25635SOL     OW25743   3.954   0.185   6.440
25635SOL    HW125744   3.943   0.099   6.489
25635SOL    HW225745   3.864   0.229   6.429
25636SOL     OW25746   7.528   7.059   7.528
25636SOL    HW125747   7.537   7.010   7.441
25636SOL    HW225748   7.468   7.138   7.516
25637SOL     OW25749  10.058  12.219   8.118
25637SOL    HW125750  10.059  12.119   8.115
25637SOL    HW225751  10.049  12.255   8.025
25638SOL     OW25752   9.417   2.901   1.775
25638SOL    HW125753   9.483   2.872   1.844
25638SOL    HW225754   9.333   2.848   1.785
25639SOL     OW25755   3.626  16.968   1.856
25639SOL    HW125756   3.571  16.916   1.920
25639SOL    HW225757   3.673  16.906   1.793
25640SOL     OW25758  13.078  11.725   7.365
25640SOL    HW125759  13.081  11.805   7.305
25640SOL    HW225760  13.154  11.664   7.343
25641SOL     OW25761  16.468   0.751   0.908
25641SOL    HW125762  16.441   0.835   0.861
25641SOL    HW225763  16.387   0.709   0.950
25642SOL     OW25764  12.291  11.750   1.147
25642SOL    HW125765  12.284  11.656   1.180
25642SOL    HW225766  12.387  11.778   1.144
25643SOL     OW25767  16.342  10.215   1.263
25643SOL    HW125768  16.346  10.222   1.362
25643SOL    HW225769  16.317  10.122   1.237
25644SOL     OW25770   7.802   6.192   6.711
25644SOL    HW125771   7.762   6.134   6.640
25644SOL    HW225772   7.883   6.148   6.749
25645SOL     OW25773  11.750   1.515   6.491
25645SOL    HW125774  11.694   1.531   6.410
25645SOL    HW225775  11.719   1.573   6.565
25646SOL     OW25776   9.984   9.465   1.647
25646SOL    HW125777  10.021   9.516   1.570
25646SOL    HW225778   9.897   9.506   1.675
25647SOL     OW25779  16.920   6.806   6.533
25647SOL    HW125780   0.000   6.793   6.457
25647SOL    HW225781  16.846   6.739   6.528
25648SOL     OW25782  15.847  14.317   8.213
25648SOL    HW125783  15.892  14.364   8.138
25648SOL    HW225784  15.853  14.219   8.200
25649SOL     OW25785   1.152   7.834   0.976
25649SOL    HW125786   1.201   7.883   1.047
25649SOL    HW225787   1.091   7.896   0.927
25650SOL     OW25788   7.543  14.956   1.758
25650SOL    HW125789   7.448  14.969   1.731
25650SOL    HW225790   7.603  14.983   1.682
25651SOL     OW25791   1.696   5.661   0.425
25651SOL    HW125792   1.772   5.708   0.379
25651SOL    HW225793   1.707   5.669   0.524
25652SOL     OW25794   7.101  12.346   8.008
25652SOL    HW125795   7.184  12.368   7.957
25652SOL    HW225796   7.029  12.412   7.987
25653SOL     OW25797   2.281   9.060   6.573
25653SOL    HW125798   2.314   9.053   6.478
25653SOL    HW225799   2.225   8.980   6.594
25654SOL     OW25800  16.439   9.558   0.357
25654SOL    HW125801  16.373   9.507   0.303
25654SOL    HW225802  16.516   9.499   0.382
25655SOL     OW25803   8.714  15.108   1.976
25655SOL    HW125804   8.813  15.121   1.972
25655SOL    HW225805   8.692  15.046   2.051
25656SOL     OW25806   2.387  12.912   1.937
25656SOL    HW125807   2.466  12.851   1.941
25656SOL    HW225808   2.315  12.878   1.997
25657SOL     OW25809   4.003  10.573   8.292
25657SOL    HW125810   3.971  10.599   8.201
25657SOL    HW225811   4.070  10.499   8.283
25658SOL     OW25812  16.854  11.827   1.341
25658SOL    HW125813  16.952  11.833   1.326
25658SOL    HW225814  16.807  11.809   1.254
25659SOL     OW25815  12.995   1.307   7.011
25659SOL    HW125816  12.930   1.324   7.085
25659SOL    HW225817  12.958   1.235   6.951
25660SOL     OW25818   2.150   2.184   0.948
25660SOL    HW125819   2.163   2.260   1.011
25660SOL    HW225820   2.142   2.099   1.001
25661SOL     OW25821  13.173  13.108   1.559
25661SOL    HW125822  13.159  13.193   1.611
25661SOL    HW225823  13.145  13.030   1.615
25662SOL     OW25824  16.235  12.475   7.157
25662SOL    HW125825  16.306  12.539   7.187
25662SOL    HW225826  16.203  12.501   7.065
25663SOL     OW25827  13.298   4.764   0.608
25663SOL    HW125828  13.350   4.837   0.652
25663SOL    HW225829  13.310   4.770   0.509
25664SOL     OW25830  10.610  14.097   7.105
25664SOL    HW125831  10.603  14.197   7.097
25664SOL    HW225832  10.563  14.053   7.029
25665SOL     OW25833  12.594  13.005   8.165
25665SOL    HW125834  12.548  12.983   8.079
25665SOL    HW225835  12.689  13.028   8.146
25666SOL     OW25836   1.194   9.008   2.029
25666SOL    HW125837   1.281   9.045   2.062
25666SOL    HW225838   1.165   9.059   1.948
25667SOL     OW25839   1.760  15.892   7.078
25667SOL    HW125840   1.692  15.963   7.098
25667SOL    HW225841   1.851  15.934   7.078
25668SOL     OW25842  11.230  16.079   1.015
25668SOL    HW125843  11.153  16.141   1.003
25668SOL    HW225844  11.298  16.095   0.943
25669SOL     OW25845   8.164   9.439   1.190
25669SOL    HW125846   8.183   9.475   1.281
25669SOL    HW225847   8.233   9.371   1.165
25670SOL     OW25848  10.016   8.173   6.639
25670SOL    HW125849   9.940   8.129   6.589
25670SOL    HW225850  10.062   8.104   6.694
25671SOL     OW25851   5.132  10.189   0.162
25671SOL    HW125852   5.083  10.112   0.204
25671SOL    HW225853   5.227  10.163   0.146
25672SOL     OW25854   6.233   5.834   0.827
25672SOL    HW125855   6.269   5.746   0.854
25672SOL    HW225856   6.133   5.834   0.837
25673SOL     OW25857   6.247  16.811   2.341
25673SOL    HW125858   6.205  16.798   2.430
25673SOL    HW225859   6.190  16.768   2.271
25674SOL     OW25860  15.950  10.030   7.933
25674SOL    HW125861  15.863  10.077   7.917
25674SOL    HW225862  16.020  10.097   7.957
25675SOL     OW25863   0.126   3.189   5.359
25675SOL    HW125864   0.136   3.112   5.422
25675SOL    HW225865   0.031   3.221   5.360
25676SOL     OW25866   1.257   6.941   8.004
25676SOL    HW125867   1.234   6.991   7.920
25676SOL    HW225868   1.199   6.973   8.078
25677SOL     OW25869   2.065  16.007   1.405
25677SOL    HW125870   2.020  16.096   1.411
25677SOL    HW225871   2.001  15.935   1.430
25678SOL     OW25872   8.550   9.192   8.353
25678SOL    HW125873   8.507   9.183   8.442
25678SOL    HW225874   8.481   9.184   8.281
25679SOL     OW25875  15.271   1.773   1.203
25679SOL    HW125876  15.365   1.805   1.212
25679SOL    HW225877  15.264   1.713   1.123
25680SOL     OW25878  11.278  14.982   1.717
25680SOL    HW125879  11.354  14.955   1.776
25680SOL    HW225880  11.277  14.923   1.636
25681SOL     OW25881   3.251   0.623   2.049
25681SOL    HW125882   3.272   0.551   1.983
25681SOL    HW225883   3.331   0.639   2.107
25682SOL     OW25884   6.399  13.723   0.483
25682SOL    HW125885   6.318  13.747   0.429
25682SOL    HW225886   6.390  13.629   0.516
25683SOL     OW25887  16.127   5.055   0.968
25683SOL    HW125888  16.217   5.031   1.005
25683SOL    HW225889  16.056   5.010   1.022
25684SOL     OW25890   4.021  11.772   6.602
25684SOL    HW125891   4.098  11.756   6.541
25684SOL    HW225892   3.945  11.713   6.575
25685SOL     OW25893  16.159   5.348   7.399
25685SOL    HW125894  16.096   5.353   7.322
25685SOL    HW225895  16.150   5.430   7.455
25686SOL     OW25896   0.931  10.891   7.942
25686SOL    HW125897   0.864  10.839   7.994
25686SOL    HW225898   0.966  10.966   7.998
25687SOL     OW25899  15.111   6.050   6.192
25687SOL    HW125900  15.146   5.973   6.244
25687SOL    HW225901  15.074   6.017   6.104
25688SOL     OW25902   8.841  12.905   7.409
25688SOL    HW125903   8.929  12.901   7.457
25688SOL    HW225904   8.786  12.980   7.447
25689SOL     OW25905   7.650   4.377   0.396
25689SOL    HW125906   7.704   4.432   0.332
25689SOL    HW225907   7.705   4.300   0.429
25690SOL     OW25908   3.334  15.939   7.676
25690SOL    HW125909   3.379  15.905   7.759
25690SOL    HW225910   3.402  15.947   7.603
25691SOL     OW25911   1.934   5.103   1.391
25691SOL    HW125912   1.961   5.022   1.338
25691SOL    HW225913   1.973   5.185   1.349
25692SOL     OW25914   6.040   1.683   1.439
25692SOL    HW125915   6.054   1.587   1.460
25692SOL    HW225916   5.945   1.708   1.459
25693SOL     OW25917  14.204  12.082   0.100
25693SOL    HW125918  14.247  12.147   0.038
25693SOL    HW225919  14.115  12.055   0.064
25694SOL     OW25920   8.767   8.492   6.657
25694SOL    HW125921   8.835   8.542   6.604
25694SOL    HW225922   8.684   8.546   6.666
25695SOL     OW25923  15.181   4.138   0.991
25695SOL    HW125924  15.216   4.231   0.980
25695SOL    HW225925  15.254   4.079   1.027
25696SOL     OW25926   7.237   3.785   1.340
25696SOL    HW125927   7.248   3.686   1.335
25696SOL    HW225928   7.293   3.822   1.413
25697SOL     OW25929  10.447   1.322   7.986
25697SOL    HW125930  10.355   1.287   8.001
25697SOL    HW225931  10.472   1.386   8.059
25698SOL     OW25932   3.710  16.074   1.848
25698SOL    HW125933   3.736  16.169   1.830
25698SOL    HW225934   3.766  16.037   1.921
25699SOL     OW25935   1.661   9.541   0.907
25699SOL    HW125936   1.587   9.535   0.840
25699SOL    HW225937   1.663   9.634   0.945
25700SOL     OW25938   8.699   5.384   1.366
25700SOL    HW125939   8.674   5.294   1.402
25700SOL    HW225940   8.795   5.382   1.337
25701SOL     OW25941  14.457   3.026   7.468
25701SOL    HW125942  14.518   2.947   7.478
25701SOL    HW225943  14.404   3.037   7.552
25702SOL     OW25944  13.638   8.444   7.092
25702SOL    HW125945  13.663   8.348   7.079
25702SOL    HW225946  13.699   8.486   7.159
25703SOL     OW25947   1.168  15.497   0.944
25703SOL    HW125948   1.239  15.539   0.889
25703SOL    HW225949   1.174  15.531   1.038
25704SOL     OW25950   9.200   9.082   0.152
25704SOL    HW125951   9.160   8.998   0.187
25704SOL    HW225952   9.253   9.063   0.069
25705SOL     OW25953  11.638  10.653   1.176
25705SOL    HW125954  11.620  10.751   1.178
25705SOL    HW225955  11.709  10.634   1.108
25706SOL     OW25956   4.734  10.018   1.024
25706SOL    HW125957   4.683  10.078   0.963
25706SOL    HW225958   4.818   9.987   0.978
25707SOL     OW25959   5.973  12.638   7.654
25707SOL    HW125960   5.969  12.586   7.740
25707SOL    HW225961   5.912  12.597   7.587
25708SOL     OW25962  15.471   9.151   8.196
25708SOL    HW125963  15.492   9.180   8.289
25708SOL    HW225964  15.416   9.222   8.151
25709SOL     OW25965  16.558   2.700   0.122
25709SOL    HW125966  16.656   2.684   0.131
25709SOL    HW225967  16.512   2.675   0.207
25710SOL     OW25968   6.498  10.633   0.004
25710SOL    HW125969   6.577  10.660   8.403
25710SOL    HW225970   6.494  10.533   0.010
25711SOL     OW25971   8.716   3.734   0.731
25711SOL    HW125972   8.629   3.784   0.731
25711SOL    HW225973   8.699   3.637   0.747
25712SOL     OW25974  11.275   0.489   1.929
25712SOL    HW125975  11.356   0.525   1.883
25712SOL    HW225976  11.282   0.389   1.934
25713SOL     OW25977  16.807   4.386   6.969
25713SOL    HW125978  16.832   4.311   7.030
25713SOL    HW225979  16.714   4.372   6.936
25714SOL     OW25980   7.186   6.068   6.676
25714SOL    HW125981   7.267   6.107   6.721
25714SOL    HW225982   7.140   6.140   6.624
25715SOL     OW25983  11.286   2.192   5.498
25715SOL    HW125984  11.257   2.225   5.408
25715SOL    HW225985  11.252   2.100   5.513
25716SOL     OW25986   6.085  16.609   7.065
25716SOL    HW125987   6.010  16.617   7.000
25716SOL    HW225988   6.053  16.637   7.156
25717SOL     OW25989   9.905   0.941   6.840
25717SOL    HW125990   9.933   0.906   6.751
25717SOL    HW225991   9.985   0.972   6.891
25718SOL     OW25992   3.348   6.013   7.891
25718SOL    HW125993   3.332   6.084   7.822
25718SOL    HW225994   3.272   6.013   7.956
25719SOL     OW25995   2.963   1.303   2.159
25719SOL    HW125996   2.904   1.384   2.161
25719SOL    HW225997   2.950   1.249   2.241
25720SOL     OW25998  16.234   5.546   6.879
25720SOL    HW125999  16.180   5.588   6.805
25720SOL    HW226000  16.192   5.568   6.967
25721SOL     OW26001  15.431   6.112   1.107
25721SOL    HW126002  15.486   6.177   1.160
25721SOL    HW226003  15.457   6.119   1.010
25722SOL     OW26004   7.028  13.119   0.650
25722SOL    HW126005   7.074  13.161   0.572
25722SOL    HW226006   6.929  13.121   0.635
25723SOL     OW26007  10.416   0.938   6.882
25723SOL    HW126008  10.506   0.902   6.858
25723SOL    HW226009  10.381   0.888   6.962
25724SOL     OW26010  11.337  14.266   8.400
25724SOL    HW126011  11.322  14.333   0.019
25724SOL    HW226012  11.393  14.191   8.434
25725SOL     OW26013  10.312  15.850   8.355
25725SOL    HW126014  10.396  15.891   8.392
25725SOL    HW226015  10.326  15.752   8.342
25726SOL     OW26016  10.827   9.820   1.797
25726SOL    HW126017  10.879   9.801   1.880
25726SOL    HW226018  10.829   9.741   1.737
25727SOL     OW26019  12.150   5.911   0.800
25727SOL    HW126020  12.162   5.972   0.879
25727SOL    HW226021  12.185   5.957   0.718
25728SOL     OW26022   7.438   7.028   0.387
25728SOL    HW126023   7.479   7.040   0.477
25728SOL    HW226024   7.339   7.019   0.397
25729SOL     OW26025  15.582  11.877   7.672
25729SOL    HW126026  15.637  11.960   7.677
25729SOL    HW226027  15.590  11.826   7.757
25730SOL     OW26028   2.222   8.715   0.817
25730SOL    HW126029   2.225   8.790   0.750
25730SOL    HW226030   2.309   8.710   0.866
25731SOL     OW26031   6.145  16.884   7.633
25731SOL    HW126032   6.234  16.929   7.634
25731SOL    HW226033   6.076  16.948   7.597
25732SOL     OW26034   9.354  12.044   7.117
25732SOL    HW126035   9.419  12.064   7.044
25732SOL    HW226036   9.340  11.945   7.123
25733SOL     OW26037   6.458   8.462   1.805
25733SOL    HW126038   6.403   8.383   1.778
25733SOL    HW226039   6.400   8.530   1.850
25734SOL     OW26040  14.441   7.510   7.978
25734SOL    HW126041  14.447   7.559   7.891
25734SOL    HW226042  14.356   7.456   7.979
25735SOL     OW26043   9.508   5.225   6.720
25735SOL    HW126044   9.540   5.320   6.716
25735SOL    HW226045   9.541   5.182   6.803
25736SOL     OW26046   9.845  16.303   1.821
25736SOL    HW126047   9.919  16.263   1.873
25736SOL    HW226048   9.766  16.319   1.880
25737SOL     OW26049  14.447  12.480   1.927
25737SOL    HW126050  14.355  12.446   1.908
25737SOL    HW226051  14.488  12.513   1.843
25738SOL     OW26052   6.229  10.155   1.214
25738SOL    HW126053   6.261  10.200   1.297
25738SOL    HW226054   6.297  10.165   1.141
25739SOL     OW26055   4.645   8.142   0.626
25739SOL    HW126056   4.719   8.166   0.689
25739SOL    HW226057   4.628   8.219   0.564
25740SOL     OW26058  15.039   1.657   0.705
25740SOL    HW126059  15.081   1.714   0.775
25740SOL    HW226060  14.990   1.716   0.640
25741SOL     OW26061   9.039   1.048   1.379
25741SOL    HW126062   9.127   1.084   1.350
25741SOL    HW226063   9.022   1.072   1.475
25742SOL     OW26064   5.767   9.228   8.237
25742SOL    HW126065   5.735   9.323   8.246
25742SOL    HW226066   5.825   9.221   8.156
25743SOL     OW26067  10.311   6.595   0.036
25743SOL    HW126068  10.322   6.606   8.391
25743SOL    HW226069  10.346   6.677   0.083
25744SOL     OW26070   9.533   5.976   6.890
25744SOL    HW126071   9.575   5.986   6.800
25744SOL    HW226072   9.561   6.052   6.949
25745SOL     OW26073  15.627  12.877   1.672
25745SOL    HW126074  15.633  12.779   1.695
25745SOL    HW226075  15.531  12.905   1.671
25746SOL     OW26076   6.470  12.673   0.408
25746SOL    HW126077   6.461  12.772   0.414
25746SOL    HW226078   6.384  12.634   0.373
25747SOL     OW26079   5.791  12.578   0.272
25747SOL    HW126080   5.767  12.650   0.337
25747SOL    HW226081   5.709  12.525   0.251
25748SOL     OW26082   2.554   3.121   0.861
25748SOL    HW126083   2.469   3.110   0.810
25748SOL    HW226084   2.627   3.151   0.800
25749SOL     OW26085  11.939   1.427   1.458
25749SOL    HW126086  11.897   1.468   1.377
25749SOL    HW226087  11.935   1.492   1.534
25750SOL     OW26088   2.828   0.369   0.650
25750SOL    HW126089   2.735   0.405   0.663
25750SOL    HW226090   2.823   0.270   0.636
25751SOL     OW26091  15.515  14.786   6.907
25751SOL    HW126092  15.484  14.881   6.902
25751SOL    HW226093  15.612  14.781   6.883
25752SOL     OW26094   7.081  11.593   0.174
25752SOL    HW126095   7.179  11.605   0.158
25752SOL    HW226096   7.068  11.539   0.258
25753SOL     OW26097   2.691   9.352   8.009
25753SOL    HW126098   2.715   9.343   8.106
25753SOL    HW226099   2.703   9.447   7.980
25754SOL     OW26100   9.589   9.827   2.103
25754SOL    HW126101   9.589   9.733   2.137
25754SOL    HW226102   9.612   9.889   2.177
25755SOL     OW26103  11.966  11.327   0.769
25755SOL    HW126104  11.997  11.348   0.862
25755SOL    HW226105  11.932  11.410   0.726
25756SOL     OW26106  11.402   6.194   0.129
25756SOL    HW126107  11.369   6.130   0.197
25756SOL    HW226108  11.420   6.283   0.172
25757SOL     OW26109  14.920   2.374   7.269
25757SOL    HW126110  15.009   2.358   7.312
25757SOL    HW226111  14.852   2.394   7.340
25758SOL     OW26112   2.431   4.367   6.752
25758SOL    HW126113   2.354   4.431   6.757
25758SOL    HW226114   2.426   4.302   6.828
25759SOL     OW26115   8.185   5.993   0.026
25759SOL    HW126116   8.203   5.900   0.056
25759SOL    HW226117   8.255   6.021   8.414
25760SOL     OW26118   8.033   5.854   7.331
25760SOL    HW126119   8.126   5.819   7.335
25760SOL    HW226120   7.968   5.778   7.341
25761SOL     OW26121   5.625   6.166   7.119
25761SOL    HW126122   5.588   6.257   7.102
25761SOL    HW226123   5.710   6.174   7.172
25762SOL     OW26124   4.085  13.542   6.987
25762SOL    HW126125   4.087  13.567   6.890
25762SOL    HW226126   4.064  13.445   6.996
25763SOL     OW26127   4.552  14.021   6.955
25763SOL    HW126128   4.613  14.088   6.913
25763SOL    HW226129   4.486  13.988   6.888
25764SOL     OW26130   2.915   6.466   0.066
25764SOL    HW126131   2.841   6.520   0.106
25764SOL    HW226132   2.876   6.398   0.003
25765SOL     OW26133   6.146   2.068   1.123
25765SOL    HW126134   6.048   2.069   1.103
25765SOL    HW226135   6.164   2.010   1.203
25766SOL     OW26136   9.486   6.673   0.583
25766SOL    HW126137   9.474   6.771   0.574
25766SOL    HW226138   9.531   6.637   0.502
25767SOL     OW26139  13.476   8.765   8.364
25767SOL    HW126140  13.398   8.816   8.328
25767SOL    HW226141  13.444   8.695   8.428
25768SOL     OW26142  11.792  15.842   7.611
25768SOL    HW126143  11.750  15.754   7.636
25768SOL    HW226144  11.721  15.904   7.578
25769SOL     OW26145  10.845   9.315   0.424
25769SOL    HW126146  10.919   9.370   0.384
25769SOL    HW226147  10.878   9.223   0.443
25770SOL     OW26148   6.352   1.962   8.290
25770SOL    HW126149   6.442   1.940   8.252
25770SOL    HW226150   6.281   1.912   8.240
25771SOL     OW26151   8.435   4.001   0.355
25771SOL    HW126152   8.426   3.912   0.400
25771SOL    HW226153   8.360   4.014   0.290
25772SOL     OW26154  13.014  15.384   6.931
25772SOL    HW126155  13.107  15.375   6.894
25772SOL    HW226156  12.964  15.299   6.915
25773SOL     OW26157   5.953   8.398   0.749
25773SOL    HW126158   5.996   8.379   0.837
25773SOL    HW226159   5.856   8.372   0.752
25774SOL     OW26160  11.369   3.372   6.682
25774SOL    HW126161  11.363   3.326   6.593
25774SOL    HW226162  11.455   3.347   6.726
25775SOL     OW26163  14.867  10.463   1.765
25775SOL    HW126164  14.951  10.416   1.789
25775SOL    HW226165  14.793  10.396   1.752
25776SOL     OW26166   5.093   1.268   0.067
25776SOL    HW126167   5.137   1.207   0.001
25776SOL    HW226168   5.004   1.296   0.033
25777SOL     OW26169   3.710  10.690   8.176
25777SOL    HW126170   3.623  10.714   8.132
25777SOL    HW226171   3.782  10.687   8.107
25778SOL     OW26172  11.530  15.397   1.898
25778SOL    HW126173  11.553  15.476   1.842
25778SOL    HW226174  11.460  15.342   1.851
25779SOL     OW26175   0.082  12.716   7.768
25779SOL    HW126176   0.048  12.622   7.763
25779SOL    HW226177   0.009  12.777   7.798
25780SOL     OW26178  11.716   2.342   7.833
25780SOL    HW126179  11.775   2.408   7.786
25780SOL    HW226180  11.668   2.286   7.766
25781SOL     OW26181   0.198   3.417   7.691
25781SOL    HW126182   0.103   3.448   7.689
25781SOL    HW226183   0.211   3.354   7.768
25782SOL     OW26184  12.544   8.837   8.219
25782SOL    HW126185  12.627   8.836   8.274
25782SOL    HW226186  12.499   8.926   8.230
25783SOL     OW26187   8.610  11.144   0.254
25783SOL    HW126188   8.518  11.115   0.231
25783SOL    HW226189   8.676  11.077   0.221
25784SOL     OW26190   3.935  12.574   7.941
25784SOL    HW126191   3.840  12.582   7.969
25784SOL    HW226192   3.995  12.583   8.021
25785SOL     OW26193   3.427   9.872   7.963
25785SOL    HW126194   3.388   9.863   7.872
25785SOL    HW226195   3.403   9.961   8.001
25786SOL     OW26196   6.035  13.635   2.130
25786SOL    HW126197   6.124  13.621   2.171
25786SOL    HW226198   5.971  13.672   2.197
25787SOL     OW26199  10.014  11.540   0.806
25787SOL    HW126200  10.033  11.458   0.859
25787SOL    HW226201  10.099  11.589   0.788
25788SOL     OW26202   5.080  10.413   0.310
25788SOL    HW126203   5.045  10.370   0.394
25788SOL    HW226204   5.101  10.342   0.243
25789SOL     OW26205  15.496   4.101   6.549
25789SOL    HW126206  15.527   4.090   6.643
25789SOL    HW226207  15.498   4.198   6.524
25790SOL     OW26208   5.057   2.423   6.969
25790SOL    HW126209   5.034   2.467   6.882
25790SOL    HW226210   5.128   2.354   6.953
25791SOL     OW26211   2.565   7.015   2.120
25791SOL    HW126212   2.624   6.951   2.170
25791SOL    HW226213   2.617   7.056   2.045
25792SOL     OW26214  13.278   8.398   0.361
25792SOL    HW126215  13.290   8.496   0.378
25792SOL    HW226216  13.367   8.356   0.343
25793SOL     OW26217  12.715  16.806   1.802
25793SOL    HW126218  12.638  16.753   1.837
25793SOL    HW226219  12.730  16.783   1.705
25794SOL     OW26220  10.581   5.793   0.465
25794SOL    HW126221  10.510   5.847   0.511
25794SOL    HW226222  10.657   5.854   0.440
25795SOL     OW26223   1.042  13.745   0.400
25795SOL    HW126224   1.097  13.827   0.413
25795SOL    HW226225   0.953  13.770   0.362
25796SOL     OW26226  13.158  10.675   1.408
25796SOL    HW126227  13.222  10.724   1.466
25796SOL    HW226228  13.111  10.740   1.349
25797SOL     OW26229   2.755  13.139   7.434
25797SOL    HW126230   2.831  13.103   7.379
25797SOL    HW226231   2.732  13.231   7.403
25798SOL     OW26232  14.519  15.554   1.445
25798SOL    HW126233  14.487  15.604   1.365
25798SOL    HW226234  14.592  15.491   1.418
25799SOL     OW26235  16.799  12.465   6.746
25799SOL    HW126236  16.869  12.431   6.808
25799SOL    HW226237  16.772  12.391   6.683
25800SOL     OW26238   6.017  14.562   7.884
25800SOL    HW126239   6.003  14.529   7.791
25800SOL    HW226240   6.011  14.485   7.948
25801SOL     OW26241  15.791  12.349   6.065
25801SOL    HW126242  15.827  12.299   5.986
25801SOL    HW226243  15.691  12.338   6.069
25802SOL     OW26244   4.336   4.683   0.583
25802SOL    HW126245   4.313   4.717   0.674
25802SOL    HW226246   4.413   4.620   0.590
25803SOL     OW26247  14.718  16.377   7.104
25803SOL    HW126248  14.779  16.311   7.147
25803SOL    HW226249  14.629  16.334   7.087
25804SOL     OW26250   9.343   6.188   2.204
25804SOL    HW126251   9.274   6.261   2.203
25804SOL    HW226252   9.411   6.208   2.275
25805SOL     OW26253   2.778   9.141   1.109
25805SOL    HW126254   2.802   9.169   1.202
25805SOL    HW226255   2.860   9.140   1.052
25806SOL     OW26256  11.930   6.994   7.543
25806SOL    HW126257  12.018   6.981   7.497
25806SOL    HW226258  11.945   7.000   7.642
25807SOL     OW26259   2.830  16.164   0.539
25807SOL    HW126260   2.761  16.092   0.535
25807SOL    HW226261   2.791  16.244   0.585
25808SOL     OW26262  12.260   0.300   6.804
25808SOL    HW126263  12.176   0.281   6.753
25808SOL    HW226264  12.301   0.386   6.771
25809SOL     OW26265  13.339   5.298   6.239
25809SOL    HW126266  13.436   5.321   6.234
25809SOL    HW226267  13.319   5.258   6.328
25810SOL     OW26268   1.310  13.861   0.180
25810SOL    HW126269   1.262  13.913   0.110
25810SOL    HW226270   1.302  13.763   0.160
25811SOL     OW26271  15.259  11.342   6.949
25811SOL    HW126272  15.312  11.405   7.006
25811SOL    HW226273  15.189  11.393   6.899
25812SOL     OW26274   7.542  10.139   8.238
25812SOL    HW126275   7.510  10.167   8.147
25812SOL    HW226276   7.576  10.219   8.288
25813SOL     OW26277  10.576  16.920   0.819
25813SOL    HW126278  10.553   0.016   0.874
25813SOL    HW226279  10.525  16.840   0.852
25814SOL     OW26280   5.203   6.110   0.147
25814SOL    HW126281   5.191   6.011   0.148
25814SOL    HW226282   5.206   6.144   0.242
25815SOL     OW26283   9.537   3.095   1.602
25815SOL    HW126284   9.543   3.180   1.654
25815SOL    HW226285   9.492   3.025   1.658
25816SOL     OW26286  14.100  12.514   2.259
25816SOL    HW126287  14.023  12.485   2.315
25816SOL    HW226288  14.144  12.593   2.302
25817SOL     OW26289   0.354   6.256   6.289
25817SOL    HW126290   0.393   6.187   6.228
25817SOL    HW226291   0.322   6.334   6.235
25818SOL     OW26292  13.807   7.975   6.521
25818SOL    HW126293  13.890   8.027   6.499
25818SOL    HW226294  13.727   8.023   6.485
25819SOL     OW26295   1.359   6.481   0.711
25819SOL    HW126296   1.289   6.413   0.735
25819SOL    HW226297   1.329   6.571   0.741
25820SOL     OW26298   8.408  11.462   2.075
25820SOL    HW126299   8.452  11.436   2.161
25820SOL    HW226300   8.310  11.444   2.081
25821SOL     OW26301   3.050  14.954   7.802
25821SOL    HW126302   3.073  15.050   7.822
25821SOL    HW226303   3.095  14.927   7.717
25822SOL     OW26304   3.087   2.899   7.749
25822SOL    HW126305   3.033   2.826   7.792
25822SOL    HW226306   3.076   2.894   7.650
25823SOL     OW26307   5.823  10.607   7.938
25823SOL    HW126308   5.911  10.573   7.905
25823SOL    HW226309   5.831  10.636   8.033
25824SOL     OW26310   1.573  16.887   0.351
25824SOL    HW126311   1.572  16.948   0.272
25824SOL    HW226312   1.539  16.797   0.323
25825SOL     OW26313   3.125   2.393   7.871
25825SOL    HW126314   3.208   2.363   7.824
25825SOL    HW226315   3.121   2.351   7.962
25826SOL     OW26316   0.988   9.070   1.633
25826SOL    HW126317   1.035   8.985   1.609
25826SOL    HW226318   1.041   9.118   1.704
25827SOL     OW26319   7.155  16.804   8.368
25827SOL    HW126320   7.075  16.800   8.307
25827SOL    HW226321   7.238  16.808   8.313
25828SOL     OW26322   7.755  11.300   6.476
25828SOL    HW126323   7.845  11.261   6.454
25828SOL    HW226324   7.728  11.365   6.405
25829SOL     OW26325  11.337   0.095   0.809
25829SOL    HW126326  11.254   0.146   0.830
25829SOL    HW226327  11.325  16.982   0.832
25830SOL     OW26328   4.970   1.434   1.850
25830SOL    HW126329   4.946   1.340   1.874
25830SOL    HW226330   5.051   1.433   1.792
25831SOL     OW26331  14.262   3.680   6.785
25831SOL    HW126332  14.208   3.762   6.804
25831SOL    HW226333  14.216   3.626   6.714
25832SOL     OW26334   2.106  14.031   1.899
25832SOL    HW126335   2.023  13.975   1.906
25832SOL    HW226336   2.083  14.126   1.922
25833SOL     OW26337  16.351   6.038   6.609
25833SOL    HW126338  16.451   6.032   6.610
25833SOL    HW226339  16.323   6.134   6.621
25834SOL     OW26340   5.609   6.910   2.804
25834SOL    HW126341   5.535   6.844   2.816
25834SOL    HW226342   5.571   7.000   2.783
25835SOL     OW26343   1.360   3.324   7.870
25835SOL    HW126344   1.347   3.315   7.772
25835SOL    HW226345   1.321   3.410   7.902
25836SOL     OW26346   2.825   7.881   7.962
25836SOL    HW126347   2.866   7.914   8.046
25836SOL    HW226348   2.851   7.785   7.948
25837SOL     OW26349   3.426  16.208   7.307
25837SOL    HW126350   3.327  16.216   7.296
25837SOL    HW226351   3.472  16.234   7.222
25838SOL     OW26352   8.009   9.888   8.435
25838SOL    HW126353   7.964   9.918   8.351
25838SOL    HW226354   7.940   9.864   0.049
25839SOL     OW26355   5.802  15.762   8.416
25839SOL    HW126356   5.795  15.847   0.014
25839SOL    HW226357   5.872  15.704   0.004
25840SOL     OW26358   4.866  15.575   8.187
25840SOL    HW126359   4.886  15.527   8.102
25840SOL    HW226360   4.800  15.648   8.170
25841SOL     OW26361   4.097   3.770   1.410
25841SOL    HW126362   4.167   3.840   1.428
25841SOL    HW226363   4.019   3.785   1.471
25842SOL     OW26364  12.886  12.235   1.781
25842SOL    HW126365  12.795  12.265   1.752
25842SOL    HW226366  12.927  12.177   1.710
25843SOL     OW26367  14.339   6.227   0.551
25843SOL    HW126368  14.248   6.196   0.524
25843SOL    HW226369  14.407   6.187   0.491
25844SOL     OW26370   7.207   4.512   7.098
25844SOL    HW126371   7.209   4.455   7.016
25844SOL    HW226372   7.253   4.464   7.173
25845SOL     OW26373   0.392   8.937   6.906
25845SOL    HW126374   0.300   8.928   6.868
25845SOL    HW226375   0.396   8.894   6.996
25846SOL     OW26376   6.016   1.417   1.516
25846SOL    HW126377   5.983   1.428   1.610
25846SOL    HW226378   6.081   1.341   1.512
25847SOL     OW26379  15.782   3.279   1.324
25847SOL    HW126380  15.791   3.303   1.421
25847SOL    HW226381  15.688   3.248   1.306
25848SOL     OW26382  14.675  11.686   7.924
25848SOL    HW126383  14.598  11.663   7.984
25848SOL    HW226384  14.672  11.783   7.902
25849SOL     OW26385  13.204  13.734   1.533
25849SOL    HW126386  13.162  13.647   1.557
25849SOL    HW226387  13.301  13.721   1.513
25850SOL     OW26388  11.181  15.783   7.392
25850SOL    HW126389  11.259  15.733   7.428
25850SOL    HW226390  11.165  15.756   7.297
25851SOL     OW26391   9.513   5.368   2.170
25851SOL    HW126392   9.608   5.393   2.192
25851SOL    HW226393   9.483   5.296   2.231
25852SOL     OW26394   8.708   7.986   1.342
25852SOL    HW126395   8.720   7.892   1.309
25852SOL    HW226396   8.783   8.043   1.309
25853SOL     OW26397   7.784   8.835   8.310
25853SOL    HW126398   7.709   8.772   8.329
25853SOL    HW226399   7.849   8.791   8.248
25854SOL     OW26400  14.808  15.411   7.770
25854SOL    HW126401  14.838  15.426   7.675
25854SOL    HW226402  14.749  15.330   7.773
25855SOL     OW26403   7.680   9.881   0.388
25855SOL    HW126404   7.670   9.828   0.472
25855SOL    HW226405   7.759   9.941   0.395
25856SOL     OW26406   3.635   6.445   1.298
25856SOL    HW126407   3.732   6.450   1.322
25856SOL    HW226408   3.605   6.534   1.264
25857SOL     OW26409   5.885  13.225   8.303
25857SOL    HW126410   5.829  13.145   8.284
25857SOL    HW226411   5.922  13.219   8.396
25858SOL     OW26412  10.454  14.298   1.162
25858SOL    HW126413  10.470  14.305   1.064
25858SOL    HW226414  10.516  14.359   1.211
25859SOL     OW26415  16.440   0.221   7.867
25859SOL    HW126416  16.490   0.191   7.786
25859SOL    HW226417  16.455   0.155   7.941
25860SOL     OW26418  14.086   7.967   7.383
25860SOL    HW126419  14.085   7.883   7.330
25860SOL    HW226420  14.097   7.945   7.480
25861SOL     OW26421  13.418   6.765   6.625
25861SOL    HW126422  13.487   6.795   6.559
25861SOL    HW226423  13.445   6.794   6.716
25862SOL     OW26424  11.114   5.625   7.208
25862SOL    HW126425  11.157   5.672   7.131
25862SOL    HW226426  11.163   5.540   7.227
25863SOL     OW26427  16.763  13.614   0.523
25863SOL    HW126428  16.856  13.608   0.487
25863SOL    HW226429  16.704  13.549   0.475
25864SOL     OW26430  14.716   9.450   1.049
25864SOL    HW126431  14.721   9.503   1.134
25864SOL    HW226432  14.731   9.510   0.971
25865SOL     OW26433   3.051  11.357   0.288
25865SOL    HW126434   3.030  11.264   0.317
25865SOL    HW226435   3.143  11.360   0.249
25866SOL     OW26436   1.658   9.801   0.983
25866SOL    HW126437   1.704   9.847   1.059
25866SOL    HW226438   1.560   9.823   0.986
25867SOL     OW26439  10.257  14.658   0.804
25867SOL    HW126440  10.170  14.673   0.756
25867SOL    HW226441  10.309  14.587   0.756
25868SOL     OW26442  16.740   2.645   6.273
25868SOL    HW126443  16.836   2.618   6.277
25868SOL    HW226444  16.714   2.660   6.178
25869SOL     OW26445   1.866   1.414   0.009
25869SOL    HW126446   1.932   1.357   8.413
25869SOL    HW226447   1.839   1.491   8.405
25870SOL     OW26448  10.091  12.198   7.182
25870SOL    HW126449  10.043  12.120   7.223
25870SOL    HW226450  10.115  12.176   7.087
25871SOL     OW26451   9.631   6.088   6.393
25871SOL    HW126452   9.715   6.128   6.356
25871SOL    HW226453   9.553   6.118   6.338
25872SOL     OW26454   1.430   8.626   1.885
25872SOL    HW126455   1.353   8.584   1.933
25872SOL    HW226456   1.511   8.624   1.943
25873SOL     OW26457   0.259   5.017   8.273
25873SOL    HW126458   0.173   5.045   8.315
25873SOL    HW226459   0.260   5.045   8.177
25874SOL     OW26460  14.743   8.902   0.444
25874SOL    HW126461  14.772   8.932   0.353
25874SOL    HW226462  14.739   8.981   0.505
25875SOL     OW26463   9.030  16.937   1.117
25875SOL    HW126464   9.069  16.858   1.069
25875SOL    HW226465   8.930  16.935   1.108
25876SOL     OW26466   2.340  15.206   8.391
25876SOL    HW126467   2.435  15.213   8.358
25876SOL    HW226468   2.328  15.117   8.435
25877SOL     OW26469  14.441   6.547   8.324
25877SOL    HW126470  14.449   6.596   8.237
25877SOL    HW226471  14.351   6.503   8.330
25878SOL     OW26472  16.837  10.661   7.517
25878SOL    HW126473  16.869  10.735   7.577
25878SOL    HW226474  16.874  10.574   7.549
25879SOL     OW26475   3.576   0.088   0.701
25879SOL    HW126476   3.484   0.095   0.739
25879SOL    HW226477   3.571   0.086   0.601
25880SOL     OW26478  15.993  16.793   7.170
25880SOL    HW126479  15.902  16.798   7.213
25880SOL    HW226480  16.028  16.885   7.156
25881SOL     OW26481  11.329   8.653   6.203
25881SOL    HW126482  11.297   8.720   6.136
25881SOL    HW226483  11.268   8.574   6.202
25882SOL     OW26484   5.809   7.274   1.763
25882SOL    HW126485   5.742   7.200   1.769
25882SOL    HW226486   5.791   7.341   1.835
25883SOL     OW26487  14.368  10.126   1.258
25883SOL    HW126488  14.455  10.165   1.230
25883SOL    HW226489  14.295  10.194   1.246
25884SOL     OW26490   2.784  14.183   8.041
25884SOL    HW126491   2.709  14.117   8.036
25884SOL    HW226492   2.780  14.231   8.129
25885SOL     OW26493   9.139   9.734   2.219
25885SOL    HW126494   9.222   9.691   2.253
25885SOL    HW226495   9.124   9.820   2.268
25886SOL     OW26496  13.964   8.460   7.643
25886SOL    HW126497  14.039   8.517   7.609
25886SOL    HW226498  13.997   8.366   7.655
25887SOL     OW26499   0.174   2.633   0.375
25887SOL    HW126500   0.110   2.671   0.441
25887SOL    HW226501   0.137   2.643   0.283
25888SOL     OW26502   4.400   4.742   0.055
25888SOL    HW126503   4.420   4.753   0.153
25888SOL    HW226504   4.336   4.667   0.041
25889SOL     OW26505   4.972  12.989   0.007
25889SOL    HW126506   4.981  13.033   0.096
25889SOL    HW226507   4.987  13.057   8.389
25890SOL     OW26508  11.200   6.677   6.147
25890SOL    HW126509  11.262   6.624   6.089
25890SOL    HW226510  11.106   6.661   6.116
25891SOL     OW26511  10.578   0.610   0.461
25891SOL    HW126512  10.636   0.529   0.460
25891SOL    HW226513  10.632   0.690   0.437
25892SOL     OW26514  16.172   5.058   0.694
25892SOL    HW126515  16.202   4.965   0.671
25892SOL    HW226516  16.149   5.062   0.791
25893SOL     OW26517  10.577  10.379   1.087
25893SOL    HW126518  10.647  10.430   1.037
25893SOL    HW226519  10.493  10.433   1.090
25894SOL     OW26520   9.279  12.697   7.519
25894SOL    HW126521   9.367  12.717   7.563
25894SOL    HW226522   9.290  12.617   7.459
25895SOL     OW26523   4.340   3.473   6.977
25895SOL    HW126524   4.432   3.450   7.009
25895SOL    HW226525   4.327   3.435   6.885
25896SOL     OW26526   5.941  15.696   6.955
25896SOL    HW126527   5.923  15.612   7.007
25896SOL    HW226528   5.865  15.712   6.891
25897SOL     OW26529   2.348   0.885   0.274
25897SOL    HW126530   2.329   0.796   0.314
25897SOL    HW226531   2.398   0.942   0.339
25898SOL     OW26532   2.142  16.345   0.700
25898SOL    HW126533   2.199  16.285   0.644
25898SOL    HW226534   2.188  16.433   0.710
25899SOL     OW26535  15.825   4.956   6.616
25899SOL    HW126536  15.888   5.033   6.606
25899SOL    HW226537  15.800   4.945   6.712
25900SOL     OW26538   9.239   9.460   6.566
25900SOL    HW126539   9.282   9.442   6.655
25900SOL    HW226540   9.304   9.439   6.493
25901SOL     OW26541   9.450  10.801   1.316
25901SOL    HW126542   9.387  10.812   1.239
25901SOL    HW226543   9.431  10.715   1.362
25902SOL     OW26544   9.663  10.770   0.584
25902SOL    HW126545   9.650  10.793   0.680
25902SOL    HW226546   9.747  10.715   0.574
25903SOL     OW26547  14.114  10.219   8.266
25903SOL    HW126548  14.172  10.245   8.188
25903SOL    HW226549  14.171  10.186   8.340
25904SOL     OW26550   2.464   9.191   8.008
25904SOL    HW126551   2.466   9.133   7.926
25904SOL    HW226552   2.550   9.242   8.014
25905SOL     OW26553  15.423  10.798   7.519
25905SOL    HW126554  15.345  10.860   7.523
25905SOL    HW226555  15.411  10.731   7.446
25906SOL     OW26556  15.800   4.218   5.440
25906SOL    HW126557  15.755   4.213   5.350
25906SOL    HW226558  15.847   4.131   5.458
25907SOL     OW26559   8.803   2.431   1.205
25907SOL    HW126560   8.851   2.513   1.236
25907SOL    HW226561   8.705   2.449   1.198
25908SOL     OW26562  14.162   9.425   1.539
25908SOL    HW126563  14.155   9.335   1.582
25908SOL    HW226564  14.129   9.494   1.602
25909SOL     OW26565  13.140  11.868   2.198
25909SOL    HW126566  13.214  11.856   2.264
25909SOL    HW226567  13.088  11.951   2.221
25910SOL     OW26568   6.112  13.136   6.656
25910SOL    HW126569   6.061  13.184   6.728
25910SOL    HW226570   6.051  13.075   6.607
25911SOL     OW26571  13.963  14.341   0.847
25911SOL    HW126572  13.869  14.361   0.820
25911SOL    HW226573  14.025  14.406   0.804
25912SOL     OW26574  10.307   5.010   5.946
25912SOL    HW126575  10.280   4.948   5.873
25912SOL    HW226576  10.226   5.049   5.990
25913SOL     OW26577   5.036  12.640   7.861
25913SOL    HW126578   5.059  12.721   7.915
25913SOL    HW226579   4.995  12.667   7.775
25914SOL     OW26580  10.066  14.743   6.525
25914SOL    HW126581  10.125  14.722   6.446
25914SOL    HW226582   9.983  14.688   6.519
25915SOL     OW26583  15.943   9.183   7.634
25915SOL    HW126584  15.974   9.277   7.644
25915SOL    HW226585  15.851   9.174   7.671
25916SOL     OW26586   7.349   3.936   0.273
25916SOL    HW126587   7.409   3.889   0.207
25916SOL    HW226588   7.386   4.027   0.293
25917SOL     OW26589  12.576   5.970   1.214
25917SOL    HW126590  12.581   5.903   1.288
25917SOL    HW226591  12.626   6.052   1.239
25918SOL     OW26592  16.061   6.198   1.816
25918SOL    HW126593  15.970   6.158   1.805
25918SOL    HW226594  16.130   6.128   1.797
25919SOL     OW26595   6.227   4.355   1.885
25919SOL    HW126596   6.296   4.282   1.887
25919SOL    HW226597   6.188   4.366   1.977
25920SOL     OW26598   8.238   1.380   0.238
25920SOL    HW126599   8.255   1.473   0.268
25920SOL    HW226600   8.208   1.324   0.315
25921SOL     OW26601  11.853   6.607   0.538
25921SOL    HW126602  11.838   6.669   0.461
25921SOL    HW226603  11.809   6.519   0.519
25922SOL     OW26604   7.626   4.904   0.380
25922SOL    HW126605   7.606   5.002   0.377
25922SOL    HW226606   7.575   4.861   0.454
25923SOL     OW26607   2.750   1.034   8.073
25923SOL    HW126608   2.774   1.053   8.169
25923SOL    HW226609   2.769   0.939   8.052
25924SOL     OW26610  15.760   0.232   0.107
25924SOL    HW126611  15.707   0.233   0.192
25924SOL    HW226612  15.777   0.326   0.078
25925SOL     OW26613  15.060  13.248   6.316
25925SOL    HW126614  15.143  13.201   6.286
25925SOL    HW226615  15.080  13.304   6.396
25926SOL     OW26616  11.940  14.188   0.653
25926SOL    HW126617  12.029  14.150   0.627
25926SOL    HW226618  11.885  14.205   0.571
25927SOL     OW26619  16.418   5.255   1.144
25927SOL    HW126620  16.406   5.345   1.185
25927SOL    HW226621  16.438   5.266   1.046
25928SOL     OW26622   0.667   9.341   0.951
25928SOL    HW126623   0.579   9.330   0.996
25928SOL    HW226624   0.667   9.425   0.897
25929SOL     OW26625  12.118   3.808   8.348
25929SOL    HW126626  12.070   3.855   8.422
25929SOL    HW226627  12.076   3.831   8.261
25930SOL     OW26628   5.192  11.916   7.165
25930SOL    HW126629   5.231  11.866   7.242
25930SOL    HW226630   5.134  11.991   7.200
25931SOL     OW26631   1.421  12.828   7.557
25931SOL    HW126632   1.486  12.865   7.624
25931SOL    HW226633   1.382  12.903   7.504
25932SOL     OW26634   5.377  12.538   1.340
25932SOL    HW126635   5.421  12.549   1.429
25932SOL    HW226636   5.437  12.488   1.278
25933SOL     OW26637  13.322  15.926   8.212
25933SOL    HW126638  13.320  15.965   8.304
25933SOL    HW226639  13.378  15.984   8.153
25934SOL     OW26640   1.945   6.527   1.285
25934SOL    HW126641   1.960   6.625   1.304
25934SOL    HW226642   1.858   6.516   1.237
25935SOL     OW26643   0.919   1.374   0.945
25935SOL    HW126644   0.950   1.381   0.850
25935SOL    HW226645   0.995   1.342   1.002
25936SOL     OW26646   1.262   0.055   8.130
25936SOL    HW126647   1.265  16.973   8.054
25936SOL    HW226648   1.352   0.063   8.171
25937SOL     OW26649   5.776   4.158   8.129
25937SOL    HW126650   5.730   4.076   8.095
25937SOL    HW226651   5.735   4.185   8.216
25938SOL     OW26652  13.315  11.690   7.054
25938SOL    HW126653  13.408  11.698   7.017
25938SOL    HW226654  13.275  11.781   7.064
25939SOL     OW26655  10.110  10.398   0.881
25939SOL    HW126656  10.038  10.458   0.846
25939SOL    HW226657  10.068  10.315   0.920
25940SOL     OW26658  14.985  15.636   1.607
25940SOL    HW126659  14.885  15.633   1.609
25940SOL    HW226660  15.016  15.730   1.617
25941SOL     OW26661   2.706  13.836   6.963
25941SOL    HW126662   2.760  13.882   7.034
25941SOL    HW226663   2.682  13.903   6.892
25942SOL     OW26664   8.651   6.114   7.681
25942SOL    HW126665   8.711   6.159   7.615
25942SOL    HW226666   8.705   6.055   7.741
25943SOL     OW26667   8.586   9.262   7.046
25943SOL    HW126668   8.606   9.354   7.082
25943SOL    HW226669   8.541   9.271   6.957
25944SOL     OW26670  11.715   1.351   0.885
25944SOL    HW126671  11.720   1.353   0.786
25944SOL    HW226672  11.764   1.271   0.920
25945SOL     OW26673  15.926   4.568   7.612
25945SOL    HW126674  15.993   4.528   7.549
25945SOL    HW226675  15.872   4.495   7.653
25946SOL     OW26676   0.487   9.921   7.737
25946SOL    HW126677   0.442   9.993   7.789
25946SOL    HW226678   0.430   9.896   7.659
25947SOL     OW26679  15.349   4.931   7.968
25947SOL    HW126680  15.259   4.928   7.924
25947SOL    HW226681  15.381   4.838   7.985
25948SOL     OW26682  10.173  13.458   8.378
25948SOL    HW126683  10.245  13.457   8.447
25948SOL    HW226684  10.107  13.386   8.398
25949SOL     OW26685   1.216  12.557   8.392
25949SOL    HW126686   1.146  12.628   8.383
25949SOL    HW226687   1.288  12.574   8.325
25950SOL     OW26688  15.148  16.522   8.263
25950SOL    HW126689  15.199  16.513   8.349
25950SOL    HW226690  15.204  16.491   8.187
25951SOL     OW26691   3.951  12.176   0.647
25951SOL    HW126692   4.000  12.263   0.640
25951SOL    HW226693   3.946  12.148   0.743
25952SOL     OW26694   1.826  15.008   7.575
25952SOL    HW126695   1.895  15.065   7.619
25952SOL    HW226696   1.771  14.962   7.644
25953SOL     OW26697   1.252   4.878   6.899
25953SOL    HW126698   1.192   4.896   6.977
25953SOL    HW226699   1.233   4.787   6.862
25954SOL     OW26700   2.874   2.658   7.008
25954SOL    HW126701   2.859   2.751   7.042
25954SOL    HW226702   2.971   2.646   6.986
25955SOL     OW26703  16.513   5.937   8.141
25955SOL    HW126704  16.576   5.979   8.075
25955SOL    HW226705  16.534   5.970   8.233
25956SOL     OW26706  13.146   0.308   1.702
25956SOL    HW126707  13.116   0.217   1.730
25956SOL    HW226708  13.156   0.367   1.783
25957SOL     OW26709   4.423   3.008   6.704
25957SOL    HW126710   4.377   2.920   6.691
25957SOL    HW226711   4.386   3.075   6.640
25958SOL     OW26712   3.183  15.211   7.303
25958SOL    HW126713   3.097  15.167   7.330
25958SOL    HW226714   3.169  15.264   7.220
25959SOL     OW26715  14.040   4.380   0.225
25959SOL    HW126716  13.955   4.408   0.268
25959SOL    HW226717  14.113   4.377   0.293
25960SOL     OW26718   4.867   8.842   6.594
25960SOL    HW126719   4.826   8.794   6.517
25960SOL    HW226720   4.802   8.846   6.670
25961SOL     OW26721  14.597   3.462   0.575
25961SOL    HW126722  14.587   3.561   0.591
25961SOL    HW226723  14.662   3.425   0.642
25962SOL     OW26724  15.905   3.367   1.087
25962SOL    HW126725  15.987   3.311   1.075
25962SOL    HW226726  15.863   3.346   1.175
25963SOL     OW26727  13.588   0.924   5.868
25963SOL    HW126728  13.634   0.840   5.896
25963SOL    HW226729  13.653   0.985   5.823
25964SOL     OW26730  11.951  11.186   2.608
25964SOL    HW126731  12.042  11.218   2.634
25964SOL    HW226732  11.893  11.265   2.585
25965SOL     OW26733   5.588  13.769   2.654
25965SOL    HW126734   5.536  13.732   2.731
25965SOL    HW226735   5.616  13.695   2.593
25966SOL     OW26736   5.404  10.198   6.756
25966SOL    HW126737   5.343  10.125   6.787
25966SOL    HW226738   5.457  10.166   6.677
25967SOL     OW26739   0.413  10.968   1.906
25967SOL    HW126740   0.389  10.871   1.918
25967SOL    HW226741   0.398  11.017   1.991
25968SOL     OW26742   7.269   7.470   6.710
25968SOL    HW126743   7.220   7.384   6.715
25968SOL    HW226744   7.294   7.490   6.616
25969SOL     OW26745   8.561  13.289   7.971
25969SOL    HW126746   8.478  13.284   7.916
25969SOL    HW226747   8.548  13.353   8.047
25970SOL     OW26748  11.365  11.468   6.580
25970SOL    HW126749  11.446  11.522   6.559
25970SOL    HW226750  11.328  11.428   6.495
25971SOL     OW26751  10.579   4.418   1.293
25971SOL    HW126752  10.620   4.461   1.374
25971SOL    HW226753  10.557   4.488   1.225
25972SOL     OW26754  10.547   4.329   2.067
25972SOL    HW126755  10.632   4.357   2.023
25972SOL    HW226756  10.487   4.408   2.077
25973SOL     OW26757  11.427   2.385   7.567
25973SOL    HW126758  11.496   2.325   7.607
25973SOL    HW226759  11.381   2.338   7.492
25974SOL     OW26760   3.360  14.299   0.986
25974SOL    HW126761   3.317  14.387   0.967
25974SOL    HW226762   3.408  14.267   0.904
25975SOL     OW26763   2.955  13.113   2.154
25975SOL    HW126764   2.988  13.021   2.132
25975SOL    HW226765   2.958  13.126   2.253
25976SOL     OW26766   3.967  11.886   7.944
25976SOL    HW126767   4.034  11.938   7.996
25976SOL    HW226768   4.013  11.816   7.889
25977SOL     OW26769  14.164  14.954   8.040
25977SOL    HW126770  14.149  14.903   7.956
25977SOL    HW226771  14.248  14.921   8.084
25978SOL     OW26772   6.887  11.641   1.901
25978SOL    HW126773   6.833  11.653   1.984
25978SOL    HW226774   6.968  11.585   1.923
25979SOL     OW26775   8.971   2.436   7.501
25979SOL    HW126776   8.949   2.353   7.451
25979SOL    HW226777   8.886   2.483   7.526
25980SOL     OW26778   3.394   9.411   1.146
25980SOL    HW126779   3.425   9.355   1.069
25980SOL    HW226780   3.406   9.508   1.124
25981SOL     OW26781  11.929  14.362   7.267
25981SOL    HW126782  11.861  14.298   7.303
25981SOL    HW226783  12.016  14.315   7.253
25982SOL     OW26784   9.827   3.448   8.231
25982SOL    HW126785   9.845   3.528   8.289
25982SOL    HW226786   9.869   3.367   8.272
25983SOL     OW26787   5.222  14.653   1.802
25983SOL    HW126788   5.230  14.715   1.880
25983SOL    HW226789   5.140  14.596   1.814
25984SOL     OW26790  14.194   0.778   0.595
25984SOL    HW126791  14.255   0.857   0.588
25984SOL    HW226792  14.123   0.785   0.525
25985SOL     OW26793   1.593   9.612   7.786
25985SOL    HW126794   1.640   9.550   7.849
25985SOL    HW226795   1.544   9.682   7.838
25986SOL     OW26796   4.343   4.180   6.382
25986SOL    HW126797   4.435   4.159   6.349
25986SOL    HW226798   4.296   4.238   6.316
25987SOL     OW26799   8.517   5.638   1.656
25987SOL    HW126800   8.433   5.687   1.632
25987SOL    HW226801   8.503   5.540   1.644
25988SOL     OW26802  10.152   5.509   8.298
25988SOL    HW126803  10.169   5.598   8.340
25988SOL    HW226804  10.054   5.489   8.300
25989SOL     OW26805  10.644  15.806   1.883
25989SOL    HW126806  10.732  15.759   1.875
25989SOL    HW226807  10.654  15.901   1.853
25990SOL     OW26808   6.648  12.505   6.527
25990SOL    HW126809   6.717  12.553   6.473
25990SOL    HW226810   6.630  12.415   6.485
25991SOL     OW26811   1.161  12.306   7.727
25991SOL    HW126812   1.127  12.368   7.797
25991SOL    HW226813   1.247  12.265   7.757
25992SOL     OW26814   6.968   8.821   8.017
25992SOL    HW126815   7.025   8.903   8.028
25992SOL    HW226816   6.964   8.771   8.103
25993SOL     OW26817  15.636  15.779   6.958
25993SOL    HW126818  15.569  15.832   7.010
25993SOL    HW226819  15.724  15.827   6.959
25994SOL     OW26820   1.646   3.796   1.283
25994SOL    HW126821   1.625   3.837   1.372
25994SOL    HW226822   1.672   3.700   1.295
25995SOL     OW26823   3.505  12.083   1.032
25995SOL    HW126824   3.415  12.039   1.025
25995SOL    HW226825   3.548  12.085   0.941
25996SOL     OW26826   0.298   4.422   0.353
25996SOL    HW126827   0.262   4.436   0.261
25996SOL    HW226828   0.370   4.490   0.372
25997SOL     OW26829   1.070   8.861   1.145
25997SOL    HW126830   1.075   8.952   1.103
25997SOL    HW226831   1.087   8.792   1.075
25998SOL     OW26832   7.648  13.264   6.962
25998SOL    HW126833   7.732  13.216   6.988
25998SOL    HW226834   7.628  13.336   7.029
25999SOL     OW26835  13.293   7.191   7.363
25999SOL    HW126836  13.384   7.231   7.354
25999SOL    HW226837  13.224   7.258   7.337
26000SOL     OW26838   3.629  10.635   0.455
26000SOL    HW126839   3.725  10.647   0.478
26000SOL    HW226840   3.621  10.586   0.368
26001SOL     OW26841  10.083   1.853   0.657
26001SOL    HW126842  10.125   1.792   0.725
26001SOL    HW226843   9.984   1.853   0.670
26002SOL     OW26844  10.754   8.676   1.034
26002SOL    HW126845  10.756   8.757   1.093
26002SOL    HW226846  10.831   8.680   0.970
26003SOL     OW26847   7.140   3.009   7.706
26003SOL    HW126848   7.199   2.929   7.692
26003SOL    HW226849   7.054   2.980   7.748
26004SOL     OW26850  14.944   0.176   0.433
26004SOL    HW126851  14.886   0.252   0.402
26004SOL    HW226852  15.039   0.195   0.410
26005SOL     OW26853  10.445   7.145   0.202
26005SOL    HW126854  10.442   7.237   0.241
26005SOL    HW226855  10.351   7.110   0.195
26006SOL     OW26856   8.686  14.382   1.641
26006SOL    HW126857   8.624  14.327   1.585
26006SOL    HW226858   8.710  14.330   1.723
26007SOL     OW26859   6.165  13.809   7.278
26007SOL    HW126860   6.088  13.771   7.329
26007SOL    HW226861   6.198  13.740   7.213
26008SOL     OW26862   5.529  15.107   1.783
26008SOL    HW126863   5.535  15.017   1.739
26008SOL    HW226864   5.555  15.098   1.879
26009SOL     OW26865   6.243  16.814   0.924
26009SOL    HW126866   6.287  16.829   1.013
26009SOL    HW226867   6.276  16.729   0.884
26010SOL     OW26868   2.251  15.171   2.696
26010SOL    HW126869   2.170  15.171   2.755
26010SOL    HW226870   2.277  15.076   2.676
26011SOL     OW26871   1.837   9.084   1.914
26011SOL    HW126872   1.831   8.984   1.907
26011SOL    HW226873   1.790   9.114   1.997
26012SOL     OW26874   8.213  13.466   5.916
26012SOL    HW126875   8.192  13.377   5.956
26012SOL    HW226876   8.287  13.456   5.849
26013SOL     OW26877  12.582  14.753   1.770
26013SOL    HW126878  12.534  14.675   1.730
26013SOL    HW226879  12.572  14.751   1.869
26014SOL     OW26880   2.797   0.099   0.602
26014SOL    HW126881   2.697   0.099   0.612
26014SOL    HW226882   2.837   0.035   0.667
26015SOL     OW26883  10.458   8.432   0.603
26015SOL    HW126884  10.416   8.412   0.691
26015SOL    HW226885  10.413   8.512   0.562
26016SOL     OW26886  14.432  12.194   2.255
26016SOL    HW126887  14.425  12.097   2.232
26016SOL    HW226888  14.363  12.246   2.204
26017SOL     OW26889  12.491   6.871   6.354
26017SOL    HW126890  12.486   6.773   6.373
26017SOL    HW226891  12.505   6.884   6.255
26018SOL     OW26892   3.373  10.116   8.062
26018SOL    HW126893   3.398  10.191   8.001
26018SOL    HW226894   3.321  10.152   8.140
26019SOL     OW26895  13.103  14.262   7.216
26019SOL    HW126896  13.055  14.336   7.264
26019SOL    HW226897  13.087  14.270   7.118
26020SOL     OW26898  11.423   4.943   1.024
26020SOL    HW126899  11.490   4.927   0.952
26020SOL    HW226900  11.343   4.883   1.009
26021SOL     OW26901   6.190   9.984   7.731
26021SOL    HW126902   6.264   9.933   7.688
26021SOL    HW226903   6.116   9.997   7.665
26022SOL     OW26904  10.731  14.252   7.564
26022SOL    HW126905  10.682  14.316   7.624
26022SOL    HW226906  10.681  14.165   7.561
26023SOL     OW26907  16.007   0.682   7.323
26023SOL    HW126908  15.946   0.617   7.369
26023SOL    HW226909  16.024   0.651   7.229
26024SOL     OW26910   7.328  15.986   6.896
26024SOL    HW126911   7.296  16.070   6.851
26024SOL    HW226912   7.426  15.993   6.914
26025SOL     OW26913   9.074   2.498   0.077
26025SOL    HW126914   8.992   2.461   0.034
26025SOL    HW226915   9.078   2.469   0.173
26026SOL     OW26916   5.128   8.950   0.761
26026SOL    HW126917   5.164   8.914   0.674
26026SOL    HW226918   5.171   9.038   0.780
26027SOL     OW26919   3.480   6.597   1.639
26027SOL    HW126920   3.462   6.559   1.549
26027SOL    HW226921   3.423   6.679   1.653
26028SOL     OW26922  15.708  16.465   7.775
26028SOL    HW126923  15.787  16.507   7.729
26028SOL    HW226924  15.711  16.487   7.873
26029SOL     OW26925  16.467   4.819   1.527
26029SOL    HW126926  16.422   4.819   1.616
26029SOL    HW226927  16.472   4.725   1.492
26030SOL     OW26928  15.468   2.486   1.781
26030SOL    HW126929  15.511   2.396   1.774
26030SOL    HW226930  15.376   2.477   1.819
26031SOL     OW26931  11.391   1.463   7.505
26031SOL    HW126932  11.354   1.476   7.597
26031SOL    HW226933  11.331   1.507   7.438
26032SOL     OW26934  10.025   3.173   5.905
26032SOL    HW126935  10.042   3.192   6.002
26032SOL    HW226936  10.088   3.227   5.849
26033SOL     OW26937  14.913   0.131   6.612
26033SOL    HW126938  14.995   0.118   6.557
26033SOL    HW226939  14.841   0.170   6.554
26034SOL     OW26940  12.409   0.523   6.722
26034SOL    HW126941  12.445   0.497   6.632
26034SOL    HW226942  12.370   0.615   6.717
26035SOL     OW26943   0.259   4.265   7.762
26035SOL    HW126944   0.331   4.335   7.752
26035SOL    HW226945   0.272   4.216   7.848
26036SOL     OW26946  15.406   3.218   0.045
26036SOL    HW126947  15.314   3.234   0.009
26036SOL    HW226948  15.470   3.209   8.424
26037SOL     OW26949   0.950   2.929   7.128
26037SOL    HW126950   1.022   2.963   7.068
26037SOL    HW226951   0.869   2.906   7.073
26038SOL     OW26952   1.105   6.499   7.991
26038SOL    HW126953   1.130   6.514   7.895
26038SOL    HW226954   1.168   6.549   8.050
26039SOL     OW26955   9.924   6.485   6.800
26039SOL    HW126956   9.977   6.438   6.871
26039SOL    HW226957   9.949   6.449   6.710
26040SOL     OW26958   6.723   3.162   7.813
26040SOL    HW126959   6.740   3.118   7.724
26040SOL    HW226960   6.789   3.129   7.880
26041SOL     OW26961   8.070   4.737   1.909
26041SOL    HW126962   8.148   4.749   1.969
26041SOL    HW226963   8.065   4.642   1.879
26042SOL     OW26964   4.605  16.856   0.688
26042SOL    HW126965   4.509  16.830   0.675
26042SOL    HW226966   4.665  16.784   0.655
26043SOL     OW26967  13.332   8.798   0.653
26043SOL    HW126968  13.309   8.714   0.702
26043SOL    HW226969  13.418   8.834   0.688
26044SOL     OW26970   3.627   8.146   7.224
26044SOL    HW126971   3.570   8.175   7.301
26044SOL    HW226972   3.672   8.060   7.247
26045SOL     OW26973  10.836   7.091   8.401
26045SOL    HW126974  10.845   7.044   8.314
26045SOL    HW226975  10.853   7.188   8.389
26046SOL     OW26976   9.516  12.515   0.942
26046SOL    HW126977   9.527  12.436   0.882
26046SOL    HW226978   9.429  12.507   0.992
26047SOL     OW26979  16.668   6.561   1.427
26047SOL    HW126980  16.687   6.464   1.440
26047SOL    HW226981  16.702   6.613   1.506
26048SOL     OW26982  14.075  12.656   7.733
26048SOL    HW126983  14.039  12.583   7.675
26048SOL    HW226984  14.022  12.739   7.718
26049SOL     OW26985   0.827  10.409   8.344
26049SOL    HW126986   0.899  10.465   8.384
26049SOL    HW226987   0.796  10.341   8.411
26050SOL     OW26988   4.608   4.305   0.801
26050SOL    HW126989   4.521   4.255   0.804
26050SOL    HW226990   4.666   4.267   0.729
26051SOL     OW26991  13.028   4.783   0.690
26051SOL    HW126992  13.009   4.720   0.765
26051SOL    HW226993  13.126   4.782   0.670
26052SOL     OW26994  13.818   5.055   8.263
26052SOL    HW126995  13.794   5.069   8.167
26052SOL    HW226996  13.880   5.127   8.293
26053SOL     OW26997   8.491   6.458   6.750
26053SOL    HW126998   8.448   6.427   6.834
26053SOL    HW226999   8.526   6.380   6.699
26054SOL     OW27000   2.050  13.334   8.349
26054SOL    HW127001   2.107  13.298   8.422
26054SOL    HW227002   1.988  13.262   8.316
26055SOL     OW27003   0.418   4.703   6.833
26055SOL    HW127004   0.321   4.683   6.850
26055SOL    HW227005   0.469   4.617   6.826
26056SOL     OW27006  14.945  11.150   6.402
26056SOL    HW127007  14.898  11.127   6.317
26056SOL    HW227008  15.036  11.186   6.381
26057SOL     OW27009   8.424   5.128   1.259
26057SOL    HW127010   8.356   5.064   1.224
26057SOL    HW227011   8.425   5.210   1.201
26058SOL     OW27012  14.662   8.000   0.156
26058SOL    HW127013  14.591   8.071   0.159
26058SOL    HW227014  14.665   7.954   0.245
26059SOL     OW27015  16.114  16.980   1.619
26059SOL    HW127016  16.064   0.064   1.673
26059SOL    HW227017  16.062  16.894   1.615
26060SOL     OW27018   9.278   6.507   0.679
26060SOL    HW127019   9.295   6.486   0.775
26060SOL    HW227020   9.345   6.573   0.647
26061SOL     OW27021   2.830   7.996   7.064
26061SOL    HW127022   2.820   7.916   7.005
26061SOL    HW227023   2.742   8.041   7.075
26062SOL     OW27024   1.255   8.250   1.887
26062SOL    HW127025   1.229   8.244   1.790
26062SOL    HW227026   1.244   8.161   1.930
26063SOL     OW27027   4.731  16.174   8.175
26063SOL    HW127028   4.680  16.142   8.256
26063SOL    HW227029   4.668  16.180   8.097
26064SOL     OW27030  13.176  13.944   7.806
26064SOL    HW127031  13.174  13.990   7.895
26064SOL    HW227032  13.214  13.853   7.817
26065SOL     OW27033   7.678  16.030   0.814
26065SOL    HW127034   7.719  16.005   0.726
26065SOL    HW227035   7.656  15.947   0.865
26066SOL     OW27036   2.272  12.651   7.447
26066SOL    HW127037   2.208  12.678   7.376
26066SOL    HW227038   2.331  12.577   7.413
26067SOL     OW27039  11.708  16.601   8.277
26067SOL    HW127040  11.735  16.507   8.297
26067SOL    HW227041  11.686  16.649   8.362
26068SOL     OW27042   7.558  12.284   7.846
26068SOL    HW127043   7.556  12.228   7.764
26068SOL    HW227044   7.553  12.225   7.927
26069SOL     OW27045   8.454  12.691   6.658
26069SOL    HW127046   8.412  12.710   6.569
26069SOL    HW227047   8.437  12.596   6.684
26070SOL     OW27048  13.701  14.868   6.494
26070SOL    HW127049  13.764  14.934   6.452
26070SOL    HW227050  13.712  14.779   6.451
26071SOL     OW27051   5.709   9.941   1.390
26071SOL    HW127052   5.752   9.881   1.323
26071SOL    HW227053   5.769  10.019   1.408
26072SOL     OW27054   7.220  16.200   0.729
26072SOL    HW127055   7.177  16.110   0.716
26072SOL    HW227056   7.308  16.187   0.774
26073SOL     OW27057  16.632  16.731   8.163
26073SOL    HW127058  16.677  16.646   8.191
26073SOL    HW227059  16.697  16.807   8.172
26074SOL     OW27060   0.562  10.992   7.237
26074SOL    HW127061   0.531  11.082   7.267
26074SOL    HW227062   0.556  10.985   7.138
26075SOL     OW27063   7.022   6.773   8.301
26075SOL    HW127064   7.073   6.817   8.375
26075SOL    HW227065   7.026   6.830   8.219
26076SOL     OW27066   0.449   5.660   6.245
26076SOL    HW127067   0.416   5.651   6.340
26076SOL    HW227068   0.544   5.629   6.240
26077SOL     OW27069   7.818   1.794   6.453
26077SOL    HW127070   7.871   1.878   6.464
26077SOL    HW227071   7.733   1.814   6.405
26078SOL     OW27072  16.825   4.421   1.137
26078SOL    HW127073  16.821   4.496   1.071
26078SOL    HW227074  16.758   4.351   1.113
26079SOL     OW27075   4.140  12.024   8.120
26079SOL    HW127076   4.073  12.094   8.145
26079SOL    HW227077   4.226  12.041   8.169
26080SOL     OW27078  14.577  14.797   1.561
26080SOL    HW127079  14.524  14.767   1.640
26080SOL    HW227080  14.576  14.726   1.492
26081SOL     OW27081   4.821  12.309   7.360
26081SOL    HW127082   4.870  12.324   7.274
26081SOL    HW227083   4.734  12.358   7.358
26082SOL     OW27084  16.815  12.485   0.791
26082SOL    HW127085  16.808  12.388   0.767
26082SOL    HW227086  16.876  12.495   0.870
26083SOL     OW27087   3.505   8.158   1.724
26083SOL    HW127088   3.428   8.123   1.777
26083SOL    HW227089   3.561   8.082   1.692
26084SOL     OW27090  14.432   1.022   7.914
26084SOL    HW127091  14.347   0.996   7.960
26084SOL    HW227092  14.509   1.013   7.978
26085SOL     OW27093   3.255  14.459   2.075
26085SOL    HW127094   3.215  14.458   2.166
26085SOL    HW227095   3.342  14.409   2.076
26086SOL     OW27096  14.190   8.966   6.892
26086SOL    HW127097  14.097   9.001   6.901
26086SOL    HW227098  14.255   9.032   6.930
26087SOL     OW27099  10.423   9.603   0.106
26087SOL    HW127100  10.495   9.591   0.174
26087SOL    HW227101  10.374   9.689   0.123
26088SOL     OW27102  14.463   8.765   7.429
26088SOL    HW127103  14.390   8.804   7.485
26088SOL    HW227104  14.545   8.752   7.485
26089SOL     OW27105  16.346   6.871   6.171
26089SOL    HW127106  16.394   6.803   6.114
26089SOL    HW227107  16.323   6.829   6.259
26090SOL     OW27108   2.126  10.839   1.702
26090SOL    HW127109   2.205  10.890   1.736
26090SOL    HW227110   2.158  10.757   1.655
26091SOL     OW27111   1.507  13.546   1.512
26091SOL    HW127112   1.433  13.548   1.446
26091SOL    HW227113   1.473  13.512   1.600
26092SOL     OW27114  16.940   2.301   8.370
26092SOL    HW127115  16.848   2.329   8.396
26092SOL    HW227116  16.936   2.213   8.323
26093SOL     OW27117  16.180   6.814   6.943
26093SOL    HW127118  16.237   6.894   6.963
26093SOL    HW227119  16.084   6.841   6.943
26094SOL     OW27120   5.378  16.603   0.109
26094SOL    HW127121   5.465  16.562   0.137
26094SOL    HW227122   5.395  16.669   0.036
26095SOL     OW27123   3.000  14.439   1.964
26095SOL    HW127124   3.090  14.461   2.004
26095SOL    HW227125   2.937  14.414   2.038
26096SOL     OW27126   5.507  13.062   8.155
26096SOL    HW127127   5.590  13.044   8.209
26096SOL    HW227128   5.492  12.987   8.091
26097SOL     OW27129   3.164   0.670   0.843
26097SOL    HW127130   3.122   0.579   0.840
26097SOL    HW227131   3.101   0.735   0.884
26098SOL     OW27132   2.363   0.843   0.746
26098SOL    HW127133   2.269   0.816   0.725
26098SOL    HW227134   2.369   0.943   0.749
26099SOL     OW27135  10.896  10.239   7.417
26099SOL    HW127136  10.831  10.288   7.359
26099SOL    HW227137  10.969  10.201   7.360
26100SOL     OW27138  16.754   5.197   0.296
26100SOL    HW127139  16.715   5.183   0.387
26100SOL    HW227140  16.684   5.237   0.236
26101SOL     OW27141   2.527   0.829   7.493
26101SOL    HW127142   2.466   0.782   7.429
26101SOL    HW227143   2.485   0.914   7.524
26102SOL     OW27144   0.653  12.582   1.892
26102SOL    HW127145   0.558  12.601   1.866
26102SOL    HW227146   0.714  12.608   1.818
26103SOL     OW27147   6.891  11.460   2.287
26103SOL    HW127148   6.989  11.455   2.271
26103SOL    HW227149   6.871  11.431   2.381
26104SOL     OW27150   2.177   1.326   1.340
26104SOL    HW127151   2.172   1.227   1.357
26104SOL    HW227152   2.084   1.362   1.331
26105SOL     OW27153  16.976   2.967   7.783
26105SOL    HW127154  16.929   2.923   7.860
26105SOL    HW227155   0.091   2.974   7.804
26106SOL     OW27156  13.808  14.595   7.429
26106SOL    HW127157  13.861  14.679   7.446
26106SOL    HW227158  13.787  14.587   7.332
26107SOL     OW27159  14.767  14.681   1.066
26107SOL    HW127160  14.830  14.681   1.144
26107SOL    HW227161  14.691  14.618   1.085
26108SOL     OW27162   0.119  13.259   7.968
26108SOL    HW127163   0.212  13.243   7.933
26108SOL    HW227164   0.055  13.268   7.892
26109SOL     OW27165   1.482  16.463   1.031
26109SOL    HW127166   1.388  16.431   1.043
26109SOL    HW227167   1.538  16.389   0.993
26110SOL     OW27168  11.886   9.377   0.878
26110SOL    HW127169  11.919   9.444   0.945
26110SOL    HW227170  11.904   9.409   0.786
26111SOL     OW27171   8.360  14.683   2.015
26111SOL    HW127172   8.460  14.687   2.005
26111SOL    HW227173   8.337  14.633   2.099
26112SOL     OW27174  12.971  10.880   6.698
26112SOL    HW127175  12.944  10.835   6.783
26112SOL    HW227176  13.000  10.974   6.717
26113SOL     OW27177   7.035  11.383   6.886
26113SOL    HW127178   7.036  11.301   6.943
26113SOL    HW227179   6.948  11.388   6.836
26114SOL     OW27180  13.085   0.818   6.648
26114SOL    HW127181  13.148   0.855   6.580
26114SOL    HW227182  12.996   0.801   6.605
26115SOL     OW27183   0.405   8.968   8.147
26115SOL    HW127184   0.403   8.943   8.244
26115SOL    HW227185   0.346   9.047   8.131
26116SOL     OW27186   0.044  10.526   7.963
26116SOL    HW127187  16.935  10.562   7.975
26116SOL    HW227188   0.040  10.427   7.949
26117SOL     OW27189  15.869   7.123   6.815
26117SOL    HW127190  15.922   7.139   6.731
26117SOL    HW227191  15.900   7.039   6.859
26118SOL     OW27192  15.823  10.523   2.665
26118SOL    HW127193  15.765  10.446   2.641
26118SOL    HW227194  15.877  10.500   2.746
26119SOL     OW27195  13.463  12.312   7.319
26119SOL    HW127196  13.474  12.395   7.265
26119SOL    HW227197  13.458  12.336   7.416
26120SOL     OW27198   0.113   0.787   7.892
26120SOL    HW127199   0.146   0.694   7.907
26120SOL    HW227200   0.022   0.796   7.931
26121SOL     OW27201  10.233   2.808   7.352
26121SOL    HW127202  10.165   2.799   7.279
26121SOL    HW227203  10.295   2.884   7.330
26122SOL     OW27204  11.629   7.778   7.354
26122SOL    HW127205  11.568   7.699   7.352
26122SOL    HW227206  11.712   7.757   7.304
26123SOL     OW27207   5.007  16.537   8.365
26123SOL    HW127208   4.962  16.489   8.290
26123SOL    HW227209   4.949  16.533   8.447
26124SOL     OW27210   9.438  15.341   6.511
26124SOL    HW127211   9.446  15.255   6.561
26124SOL    HW227212   9.431  15.417   6.575
26125SOL     OW27213   4.865  10.365   0.996
26125SOL    HW127214   4.794  10.421   0.953
26125SOL    HW227215   4.936  10.424   1.033
26126SOL     OW27216   3.904  12.134   0.924
26126SOL    HW127217   3.867  12.226   0.915
26126SOL    HW227218   3.951  12.126   1.012
26127SOL     OW27219   4.173  15.739   0.632
26127SOL    HW127220   4.135  15.828   0.658
26127SOL    HW227221   4.152  15.672   0.704
26128SOL     OW27222   6.197   4.755   0.612
26128SOL    HW127223   6.219   4.852   0.620
26128SOL    HW227224   6.138   4.742   0.532
26129SOL     OW27225   2.948   6.205   7.972
26129SOL    HW127226   2.858   6.164   7.986
26129SOL    HW227227   3.018   6.146   8.012
26130SOL     OW27228   3.902  14.074   7.881
26130SOL    HW127229   3.908  13.975   7.892
26130SOL    HW227230   3.945  14.119   7.959
26131SOL     OW27231   3.580  11.173   1.028
26131SOL    HW127232   3.618  11.264   1.008
26131SOL    HW227233   3.494  11.183   1.078
26132SOL     OW27234   1.420   7.669   8.264
26132SOL    HW127235   1.380   7.761   8.260
26132SOL    HW227236   1.390   7.623   8.347
26133SOL     OW27237   5.031   1.717   8.010
26133SOL    HW127238   5.078   1.719   7.921
26133SOL    HW227239   5.099   1.705   8.082
26134SOL     OW27240   0.481   0.748   0.825
26134SOL    HW127241   0.426   0.752   0.909
26134SOL    HW227242   0.542   0.827   0.822
26135SOL     OW27243  15.947  11.182   0.534
26135SOL    HW127244  16.033  11.163   0.487
26135SOL    HW227245  15.956  11.268   0.584
26136SOL     OW27246  12.103   2.794   7.803
26136SOL    HW127247  12.102   2.803   7.703
26136SOL    HW227248  12.060   2.874   7.844
26137SOL     OW27249   0.180   1.709   1.450
26137SOL    HW127250   0.111   1.746   1.511
26137SOL    HW227251   0.258   1.676   1.504
26138SOL     OW27252  16.157   2.248   0.671
26138SOL    HW127253  16.243   2.286   0.708
26138SOL    HW227254  16.081   2.307   0.697
26139SOL     OW27255   4.296  12.171   0.605
26139SOL    HW127256   4.371  12.222   0.563
26139SOL    HW227257   4.218  12.232   0.617
26140SOL     OW27258   9.217  14.318   1.141
26140SOL    HW127259   9.289  14.270   1.091
26140SOL    HW227260   9.162  14.372   1.077
26141SOL     OW27261  14.462   6.769   6.978
26141SOL    HW127262  14.552   6.763   6.934
26141SOL    HW227263  14.391   6.771   6.907
26142SOL     OW27264  14.505   0.392   0.814
26142SOL    HW127265  14.496   0.482   0.770
26142SOL    HW227266  14.582   0.394   0.877
26143SOL     OW27267   2.329   4.039   1.548
26143SOL    HW127268   2.308   4.135   1.526
26143SOL    HW227269   2.283   4.014   1.633
26144SOL     OW27270  10.556  16.344   8.091
26144SOL    HW127271  10.580  16.298   8.005
26144SOL    HW227272  10.519  16.434   8.071
26145SOL     OW27273  12.430   6.573   0.249
26145SOL    HW127274  12.492   6.499   0.222
26145SOL    HW227275  12.468   6.661   0.218
26146SOL     OW27276  12.591   9.980   1.193
26146SOL    HW127277  12.502  10.016   1.221
26146SOL    HW227278  12.650  10.056   1.164
26147SOL     OW27279  14.412   2.941   7.934
26147SOL    HW127280  14.509   2.939   7.908
26147SOL    HW227281  14.358   2.972   7.855
26148SOL     OW27282   4.353  15.617   8.033
26148SOL    HW127283   4.394  15.647   8.119
26148SOL    HW227284   4.274  15.559   8.051
26149SOL     OW27285  13.280   6.438   6.284
26149SOL    HW127286  13.285   6.485   6.196
26149SOL    HW227287  13.327   6.350   6.278
26150SOL     OW27288  10.401  10.211   0.389
26150SOL    HW127289  10.361  10.148   0.322
26150SOL    HW227290  10.379  10.180   0.481
26151SOL     OW27291  16.468   5.898   6.962
26151SOL    HW127292  16.457   5.826   6.893
26151SOL    HW227293  16.540   5.961   6.933
26152SOL     OW27294   3.988  16.825   7.492
26152SOL    HW127295   4.020  16.831   7.586
26152SOL    HW227296   4.064  16.845   7.430
26153SOL     OW27297   2.199  14.061   2.786
26153SOL    HW127298   2.100  14.049   2.800
26153SOL    HW227299   2.234  14.127   2.853
26154SOL     OW27300   6.189   5.695   7.704
26154SOL    HW127301   6.206   5.609   7.752
26154SOL    HW227302   6.272   5.751   7.705
26155SOL     OW27303  13.821   8.008   1.556
26155SOL    HW127304  13.784   8.064   1.482
26155SOL    HW227305  13.837   7.915   1.524
26156SOL     OW27306  16.090   8.129   1.195
26156SOL    HW127307  16.150   8.049   1.190
26156SOL    HW227308  16.092   8.166   1.288
26157SOL     OW27309  12.350   7.744   0.139
26157SOL    HW127310  12.361   7.645   0.145
26157SOL    HW227311  12.291   7.776   0.213
26158SOL     OW27312   7.140   3.320   6.109
26158SOL    HW127313   7.072   3.368   6.054
26158SOL    HW227314   7.230   3.329   6.066
26159SOL     OW27315   2.076   2.203   0.429
26159SOL    HW127316   2.065   2.191   0.330
26159SOL    HW227317   2.173   2.218   0.449
26160SOL     OW27318   5.087   6.542   0.169
26160SOL    HW127319   4.991   6.564   0.150
26160SOL    HW227320   5.119   6.473   0.105
26161SOL     OW27321   1.564   1.668   0.444
26161SOL    HW127322   1.517   1.594   0.396
26161SOL    HW227323   1.517   1.755   0.425
26162SOL     OW27324   9.292   8.169   7.329
26162SOL    HW127325   9.285   8.116   7.245
26162SOL    HW227326   9.275   8.110   7.408
26163SOL     OW27327   5.140   1.181   1.162
26163SOL    HW127328   5.212   1.226   1.215
26163SOL    HW227329   5.153   1.082   1.165
26164SOL     OW27330  13.840  15.207   6.809
26164SOL    HW127331  13.854  15.165   6.899
26164SOL    HW227332  13.771  15.155   6.758
26165SOL     OW27333  15.053  13.075   1.850
26165SOL    HW127334  15.088  13.159   1.808
26165SOL    HW227335  14.955  13.086   1.868
26166SOL     OW27336   4.137   3.963   7.133
26166SOL    HW127337   4.174   3.876   7.101
26166SOL    HW227338   4.204   4.035   7.119
26167SOL     OW27339  12.059   1.920   1.251
26167SOL    HW127340  11.990   1.936   1.322
26167SOL    HW227341  12.015   1.892   1.167
26168SOL     OW27342   4.047   7.908   8.152
26168SOL    HW127343   3.997   7.888   8.068
26168SOL    HW227344   4.143   7.881   8.140
26169SOL     OW27345   0.740   5.131   1.011
26169SOL    HW127346   0.786   5.095   1.093
26169SOL    HW227347   0.672   5.199   1.039
26170SOL     OW27348   0.209  12.990   0.477
26170SOL    HW127349   0.144  13.066   0.471
26170SOL    HW227350   0.266  12.988   0.395
26171SOL     OW27351   3.978   3.258   1.043
26171SOL    HW127352   3.939   3.189   1.104
26171SOL    HW227353   4.060   3.222   1.000
26172SOL     OW27354  16.747  10.659   2.069
26172SOL    HW127355  16.743  10.715   2.152
26172SOL    HW227356  16.764  10.564   2.093
26173SOL     OW27357   3.340   0.130   2.207
26173SOL    HW127358   3.395   0.162   2.129
26173SOL    HW227359   3.311   0.036   2.190
26174SOL     OW27360  15.801  10.029   0.207
26174SOL    HW127361  15.809  10.120   0.168
26174SOL    HW227362  15.772   9.964   0.137
26175SOL     OW27363   9.375   7.401   7.842
26175SOL    HW127364   9.323   7.335   7.896
26175SOL    HW227365   9.428   7.460   7.904
26176SOL     OW27366  12.948  16.116   7.275
26176SOL    HW127367  12.943  16.174   7.356
26176SOL    HW227368  12.994  16.030   7.298
26177SOL     OW27369   4.449   6.898   8.399
26177SOL    HW127370   4.469   6.899   8.301
26177SOL    HW227371   4.370   6.956   8.417
26178SOL     OW27372   3.826   8.145   0.267
26178SOL    HW127373   3.747   8.148   0.328
26178SOL    HW227374   3.879   8.229   0.276
26179SOL     OW27375  11.756   1.067   6.757
26179SOL    HW127376  11.758   1.055   6.856
26179SOL    HW227377  11.729   1.161   6.736
26180SOL     OW27378   7.668   4.979   6.952
26180SOL    HW127379   7.675   4.880   6.935
26180SOL    HW227380   7.759   5.017   6.961
26181SOL     OW27381  14.640  12.119   7.453
26181SOL    HW127382  14.607  12.197   7.507
26181SOL    HW227383  14.740  12.121   7.450
26182SOL     OW27384   6.056   4.288   0.096
26182SOL    HW127385   6.116   4.327   0.166
26182SOL    HW227386   6.105   4.216   0.047
26183SOL     OW27387   7.571   9.761   7.287
26183SOL    HW127388   7.561   9.783   7.190
26183SOL    HW227389   7.516   9.824   7.342
26184SOL     OW27390   9.031  10.688   1.110
26184SOL    HW127391   9.008  10.703   1.014
26184SOL    HW227392   8.958  10.724   1.168
26185SOL     OW27393   6.745   9.982   8.216
26185SOL    HW127394   6.647   9.997   8.231
26185SOL    HW227395   6.760   9.889   8.183
26186SOL     OW27396   1.018  10.709   0.880
26186SOL    HW127397   0.958  10.638   0.843
26186SOL    HW227398   1.053  10.681   0.969
26187SOL     OW27399  16.720  16.474   8.245
26187SOL    HW127400  16.667  16.438   8.322
26187SOL    HW227401  16.681  16.442   8.159
26188SOL     OW27402  13.502   7.176   6.752
26188SOL    HW127403  13.461   7.223   6.673
26188SOL    HW227404  13.601   7.172   6.740
26189SOL     OW27405   4.424  11.103   2.277
26189SOL    HW127406   4.481  11.182   2.301
26189SOL    HW227407   4.372  11.074   2.358
26190SOL     OW27408  10.350  13.277   6.338
26190SOL    HW127409  10.252  13.289   6.322
26190SOL    HW227410  10.401  13.302   6.256
26191SOL     OW27411   9.150   0.546   6.779
26191SOL    HW127412   9.204   0.602   6.717
26191SOL    HW227413   9.145   0.590   6.868
26192SOL     OW27414   2.275   5.184   7.178
26192SOL    HW127415   2.204   5.203   7.111
26192SOL    HW227416   2.332   5.108   7.145
26193SOL     OW27417   8.622   4.923   0.961
26193SOL    HW127418   8.526   4.896   0.948
26193SOL    HW227419   8.682   4.857   0.916
26194SOL     OW27420  11.502   3.351   7.464
26194SOL    HW127421  11.498   3.439   7.510
26194SOL    HW227422  11.590   3.307   7.483
26195SOL     OW27423   3.091   2.769   6.403
26195SOL    HW127424   3.178   2.805   6.370
26195SOL    HW227425   3.075   2.679   6.363
26196SOL     OW27426  11.895   6.212   1.013
26196SOL    HW127427  11.838   6.131   1.026
26196SOL    HW227428  11.990   6.184   1.002
26197SOL     OW27429  14.387  12.122   1.814
26197SOL    HW127430  14.438  12.092   1.732
26197SOL    HW227431  14.451  12.160   1.881
26198SOL     OW27432   8.605   1.797   7.563
26198SOL    HW127433   8.690   1.785   7.512
26198SOL    HW227434   8.550   1.714   7.557
26199SOL     OW27435   1.238   3.950   1.255
26199SOL    HW127436   1.171   3.884   1.290
26199SOL    HW227437   1.199   3.997   1.176
26200SOL     OW27438   7.739   2.960   7.260
26200SOL    HW127439   7.757   3.042   7.315
26200SOL    HW227440   7.661   2.911   7.298
26201SOL     OW27441  12.969   1.992   0.306
26201SOL    HW127442  13.049   2.049   0.323
26201SOL    HW227443  12.934   2.010   0.213
26202SOL     OW27444   1.567   9.073   0.668
26202SOL    HW127445   1.546   9.170   0.678
26202SOL    HW227446   1.593   9.036   0.757
26203SOL     OW27447  16.263  16.787   0.424
26203SOL    HW127448  16.210  16.734   0.491
26203SOL    HW227449  16.316  16.857   0.472
26204SOL     OW27450   0.712  13.296   7.252
26204SOL    HW127451   0.641  13.237   7.291
26204SOL    HW227452   0.737  13.263   7.161
26205SOL     OW27453   6.309  16.659   0.501
26205SOL    HW127454   6.250  16.589   0.541
26205SOL    HW227455   6.392  16.669   0.555
26206SOL     OW27456   2.632   4.510   7.910
26206SOL    HW127457   2.730   4.502   7.889
26206SOL    HW227458   2.583   4.433   7.868
26207SOL     OW27459   3.750   1.804   8.205
26207SOL    HW127460   3.821   1.874   8.206
26207SOL    HW227461   3.789   1.716   8.232
26208SOL     OW27462  12.566  16.167   2.022
26208SOL    HW127463  12.597  16.078   1.988
26208SOL    HW227464  12.519  16.155   2.109
26209SOL     OW27465   9.984   4.319   6.882
26209SOL    HW127466   9.918   4.256   6.842
26209SOL    HW227467  10.038   4.362   6.809
26210SOL     OW27468  16.421   5.265   7.965
26210SOL    HW127469  16.372   5.208   7.899
26210SOL    HW227470  16.516   5.233   7.972
26211SOL     OW27471   3.810  14.543   0.478
26211SOL    HW127472   3.812  14.451   0.440
26211SOL    HW227473   3.888  14.556   0.539
26212SOL     OW27474   8.937   3.852   0.637
26212SOL    HW127475   8.924   3.867   0.539
26212SOL    HW227476   8.858   3.803   0.674
26213SOL     OW27477   6.698  16.368   7.351
26213SOL    HW127478   6.700  16.270   7.332
26213SOL    HW227479   6.603  16.398   7.356
26214SOL     OW27480  12.038   8.430   1.402
26214SOL    HW127481  11.990   8.369   1.464
26214SOL    HW227482  12.032   8.524   1.435
26215SOL     OW27483   6.833  15.961   2.308
26215SOL    HW127484   6.925  15.977   2.343
26215SOL    HW227485   6.802  16.043   2.259
26216SOL     OW27486  14.731   1.562   0.650
26216SOL    HW127487  14.807   1.503   0.678
26216SOL    HW227488  14.746   1.654   0.687
26217SOL     OW27489   9.034   0.722   5.728
26217SOL    HW127490   9.072   0.791   5.665
26217SOL    HW227491   8.957   0.676   5.683
26218SOL     OW27492   0.537   5.949   1.465
26218SOL    HW127493   0.480   5.874   1.500
26218SOL    HW227494   0.493   6.036   1.486
26219SOL     OW27495  10.026  14.495   6.168
26219SOL    HW127496  10.019  14.418   6.104
26219SOL    HW227497   9.940  14.546   6.168
26220SOL     OW27498   5.359  14.373   7.089
26220SOL    HW127499   5.403  14.453   7.131
26220SOL    HW227500   5.280  14.403   7.036
26221SOL     OW27501  13.372  15.101   6.726
26221SOL    HW127502  13.471  15.091   6.716
26221SOL    HW227503  13.327  15.069   6.642
26222SOL     OW27504  10.884   8.458   0.317
26222SOL    HW127505  10.976   8.432   0.290
26222SOL    HW227506  10.879   8.467   0.417
26223SOL     OW27507   5.849   3.502   0.426
26223SOL    HW127508   5.891   3.590   0.402
26223SOL    HW227509   5.919   3.439   0.458
26224SOL     OW27510  11.131  10.234   1.089
26224SOL    HW127511  11.108  10.176   1.167
26224SOL    HW227512  11.228  10.224   1.067
26225SOL     OW27513   8.446  12.697   0.224
26225SOL    HW127514   8.423  12.600   0.219
26225SOL    HW227515   8.532  12.708   0.274
26226SOL     OW27516  15.528   2.887   1.343
26226SOL    HW127517  15.585   2.811   1.374
26226SOL    HW227518  15.464   2.913   1.415
26227SOL     OW27519  12.830  10.357   8.405
26227SOL    HW127520  12.740  10.369   8.446
26227SOL    HW227521  12.830  10.276   8.347
26228SOL     OW27522  14.740   2.684   1.357
26228SOL    HW127523  14.707   2.688   1.262
26228SOL    HW227524  14.666   2.709   1.419
26229SOL     OW27525  12.541   0.934   6.649
26229SOL    HW127526  12.607   0.871   6.690
26229SOL    HW227527  12.562   0.946   6.552
26230SOL     OW27528   4.962  11.570   7.227
26230SOL    HW127529   4.987  11.634   7.300
26230SOL    HW227530   5.038  11.508   7.209
26231SOL     OW27531   0.028   3.577   0.796
26231SOL    HW127532   0.008   3.500   0.736
26231SOL    HW227533   0.078   3.647   0.745
26232SOL     OW27534  11.310   5.492   8.079
26232SOL    HW127535  11.352   5.496   7.989
26232SOL    HW227536  11.306   5.584   8.118
26233SOL     OW27537   6.188   3.966   7.967
26233SOL    HW127538   6.279   3.958   7.927
26233SOL    HW227539   6.155   3.876   7.995
26234SOL     OW27540   7.367   8.023   7.401
26234SOL    HW127541   7.412   8.057   7.483
26234SOL    HW227542   7.343   8.099   7.341
26235SOL     OW27543   6.190   3.843   6.523
26235SOL    HW127544   6.249   3.881   6.453
26235SOL    HW227545   6.157   3.917   6.583
26236SOL     OW27546   2.366  10.024   7.701
26236SOL    HW127547   2.285  10.017   7.758
26236SOL    HW227548   2.419  10.105   7.728
26237SOL     OW27549   3.167   3.613   7.939
26237SOL    HW127550   3.093   3.546   7.939
26237SOL    HW227551   3.255   3.566   7.935
26238SOL     OW27552   9.412  16.464   1.041
26238SOL    HW127553   9.481  16.432   0.975
26238SOL    HW227554   9.323  16.427   1.015
26239SOL     OW27555  10.254  10.357   1.731
26239SOL    HW127556  10.310  10.386   1.809
26239SOL    HW227557  10.240  10.435   1.670
26240SOL     OW27558  13.249   4.491   1.006
26240SOL    HW127559  13.335   4.491   0.955
26240SOL    HW227560  13.177   4.450   0.950
26241SOL     OW27561  10.216   2.441   0.521
26241SOL    HW127562  10.246   2.475   0.610
26241SOL    HW227563  10.118   2.421   0.525
26242SOL     OW27564   0.989  16.978   0.933
26242SOL    HW127565   0.942   0.080   0.909
26242SOL    HW227566   1.015  16.930   0.849
26243SOL     OW27567  15.384  11.960   1.549
26243SOL    HW127568  15.476  11.945   1.513
26243SOL    HW227569  15.352  11.878   1.596
26244SOL     OW27570   3.749  10.397   2.654
26244SOL    HW127571   3.815  10.393   2.729
26244SOL    HW227572   3.704  10.486   2.653
26245SOL     OW27573   8.114  10.830   0.731
26245SOL    HW127574   8.088  10.781   0.648
26245SOL    HW227575   8.116  10.929   0.713
26246SOL     OW27576  13.985  16.150   6.539
26246SOL    HW127577  14.064  16.139   6.479
26246SOL    HW227578  13.928  16.068   6.534
26247SOL     OW27579  12.838   2.490   7.741
26247SOL    HW127580  12.918   2.457   7.691
26247SOL    HW227581  12.802   2.417   7.798
26248SOL     OW27582   8.865  14.170   7.186
26248SOL    HW127583   8.830  14.098   7.125
26248SOL    HW227584   8.810  14.252   7.174
26249SOL     OW27585  11.230   2.575   7.619
26249SOL    HW127586  11.305   2.511   7.605
26249SOL    HW227587  11.183   2.552   7.705
26250SOL     OW27588   9.848   6.579   8.222
26250SOL    HW127589   9.766   6.550   8.173
26250SOL    HW227590   9.838   6.559   8.319
26251SOL     OW27591  11.827   8.538   8.443
26251SOL    HW127592  11.913   8.492   0.009
26251SOL    HW227593  11.760   8.470   8.412
26252SOL     OW27594   9.937   1.484   0.951
26252SOL    HW127595  10.025   1.466   0.906
26252SOL    HW227596   9.863   1.465   0.887
26253SOL     OW27597  12.869   4.996   5.726
26253SOL    HW127598  12.814   5.041   5.655
26253SOL    HW227599  12.905   5.064   5.789
26254SOL     OW27600   9.561   8.143   1.400
26254SOL    HW127601   9.609   8.228   1.422
26254SOL    HW227602   9.512   8.154   1.313
26255SOL     OW27603  13.255   8.625   7.257
26255SOL    HW127604  13.292   8.686   7.327
26255SOL    HW227605  13.156   8.617   7.269
26256SOL     OW27606   2.580   3.563   1.401
26256SOL    HW127607   2.542   3.655   1.398
26256SOL    HW227608   2.513   3.500   1.439
26257SOL     OW27609   3.263   9.792   7.465
26257SOL    HW127610   3.182   9.833   7.423
26257SOL    HW227611   3.254   9.692   7.465
26258SOL     OW27612   8.500   0.802   8.410
26258SOL    HW127613   8.473   0.747   0.035
26258SOL    HW227614   8.599   0.811   8.407
26259SOL     OW27615  10.148   3.791   7.692
26259SOL    HW127616  10.217   3.853   7.655
26259SOL    HW227617  10.188   3.701   7.707
26260SOL     OW27618   8.230   8.957   0.974
26260SOL    HW127619   8.138   8.962   1.012
26260SOL    HW227620   8.261   8.862   0.971
26261SOL     OW27621  11.143   5.809   7.668
26261SOL    HW127622  11.233   5.768   7.680
26261SOL    HW227623  11.136   5.892   7.724
26262SOL     OW27624   3.341  16.363   0.250
26262SOL    HW127625   3.418  16.299   0.248
26262SOL    HW227626   3.299  16.361   0.341
26263SOL     OW27627   6.473   7.063   6.621
26263SOL    HW127628   6.554   7.037   6.569
26263SOL    HW227629   6.408   6.987   6.621
26264SOL     OW27630  14.776   7.868   8.408
26264SOL    HW127631  14.732   7.922   0.026
26264SOL    HW227632  14.717   7.867   8.327
26265SOL     OW27633  11.979   1.299   0.208
26265SOL    HW127634  12.013   1.259   0.293
26265SOL    HW227635  11.967   1.397   0.219
26266SOL     OW27636   3.464   9.253   0.921
26266SOL    HW127637   3.543   9.283   0.867
26266SOL    HW227638   3.394   9.217   0.860
26267SOL     OW27639   2.095   9.464   8.131
26267SOL    HW127640   2.144   9.382   8.161
26267SOL    HW227641   2.082   9.526   8.209
26268SOL     OW27642   5.719   8.215   0.062
26268SOL    HW127643   5.706   8.295   0.003
26268SOL    HW227644   5.668   8.229   0.147
26269SOL     OW27645   3.646   2.798   1.527
26269SOL    HW127646   3.607   2.732   1.463
26269SOL    HW227647   3.656   2.756   1.617
26270SOL     OW27648   4.130   1.840   1.692
26270SOL    HW127649   4.191   1.861   1.616
26270SOL    HW227650   4.052   1.903   1.690
26271SOL     OW27651   8.443  11.419   0.392
26271SOL    HW127652   8.534  11.386   0.368
26271SOL    HW227653   8.446  11.518   0.406
26272SOL     OW27654  14.402   6.682   1.055
26272SOL    HW127655  14.401   6.583   1.062
26272SOL    HW227656  14.401   6.708   0.958
26273SOL     OW27657   3.983   5.971   7.118
26273SOL    HW127658   4.066   5.915   7.114
26273SOL    HW227659   3.913   5.924   7.172
26274SOL     OW27660  14.895   3.755   6.994
26274SOL    HW127661  14.942   3.736   7.080
26274SOL    HW227662  14.961   3.755   6.919
26275SOL     OW27663  14.016   3.483   1.678
26275SOL    HW127664  14.027   3.465   1.581
26275SOL    HW227665  13.978   3.402   1.724
26276SOL     OW27666  12.889   1.252   6.388
26276SOL    HW127667  12.924   1.335   6.344
26276SOL    HW227668  12.890   1.265   6.487
26277SOL     OW27669   6.567   7.001   7.025
26277SOL    HW127670   6.586   7.076   6.962
26277SOL    HW227671   6.628   7.007   7.104
26278SOL     OW27672  16.522  12.319   2.100
26278SOL    HW127673  16.530  12.410   2.141
26278SOL    HW227674  16.532  12.249   2.171
26279SOL     OW27675   9.564  10.600   1.841
26279SOL    HW127676   9.601  10.547   1.917
26279SOL    HW227677   9.572  10.548   1.756
26280SOL     OW27678  12.756   5.635   0.408
26280SOL    HW127679  12.701   5.567   0.457
26280SOL    HW227680  12.715   5.726   0.420
26281SOL     OW27681   6.740   6.511   0.716
26281SOL    HW127682   6.798   6.538   0.792
26281SOL    HW227683   6.709   6.592   0.666
26282SOL     OW27684   4.058   6.050   8.184
26282SOL    HW127685   4.021   5.962   8.211
26282SOL    HW227686   3.983   6.115   8.170
26283SOL     OW27687   0.225   3.002   1.206
26283SOL    HW127688   0.137   2.957   1.191
26283SOL    HW227689   0.228   3.039   1.299
26284SOL     OW27690  11.159   6.536   7.045
26284SOL    HW127691  11.158   6.624   7.092
26284SOL    HW227692  11.194   6.465   7.106
26285SOL     OW27693   2.081  10.853   1.187
26285SOL    HW127694   2.012  10.922   1.208
26285SOL    HW227695   2.107  10.861   1.090
26286SOL     OW27696  11.005   6.584   0.558
26286SOL    HW127697  11.094   6.583   0.514
26286SOL    HW227698  11.017   6.582   0.658
26287SOL     OW27699  13.849   5.516   7.715
26287SOL    HW127700  13.754   5.496   7.739
26287SOL    HW227701  13.865   5.615   7.721
26288SOL     OW27702   9.753  16.676   8.049
26288SOL    HW127703   9.806  16.756   8.020
26288SOL    HW227704   9.657  16.704   8.063
26289SOL     OW27705  11.426   0.094   6.272
26289SOL    HW127706  11.338   0.086   6.226
26289SOL    HW227707  11.492   0.138   6.209
26290SOL     OW27708  11.739   3.632   8.310
26290SOL    HW127709  11.813   3.567   8.325
26290SOL    HW227710  11.702   3.662   8.398
26291SOL     OW27711   7.075   6.007   6.927
26291SOL    HW127712   7.113   6.018   6.835
26291SOL    HW227713   7.117   6.073   6.989
26292SOL     OW27714   7.886  14.634   8.407
26292SOL    HW127715   7.831  14.588   0.023
26292SOL    HW227716   7.929  14.715   8.447
26293SOL     OW27717   5.185  16.690   5.992
26293SOL    HW127718   5.206  16.783   5.963
26293SOL    HW227719   5.194  16.627   5.915
26294SOL     OW27720   7.350   0.752   8.301
26294SOL    HW127721   7.416   0.688   8.341
26294SOL    HW227722   7.304   0.802   8.374
26295SOL     OW27723   0.915  11.339   2.107
26295SOL    HW127724   0.821  11.337   2.141
26295SOL    HW227725   0.925  11.413   2.041
26296SOL     OW27726  16.164   6.547   6.887
26296SOL    HW127727  16.167   6.646   6.898
26296SOL    HW227728  16.137   6.505   6.974
26297SOL     OW27729   5.852  12.207   0.221
26297SOL    HW127730   5.889  12.254   0.301
26297SOL    HW227731   5.861  12.108   0.233
26298SOL     OW27732   9.604   7.779   0.991
26298SOL    HW127733   9.604   7.818   0.899
26298SOL    HW227734   9.646   7.688   0.989
26299SOL     OW27735  16.680  16.205   1.635
26299SOL    HW127736  16.609  16.184   1.568
26299SOL    HW227737  16.637  16.238   1.719
26300SOL     OW27738   0.236  13.404   0.383
26300SOL    HW127739   0.176  13.481   0.405
26300SOL    HW227740   0.262  13.408   0.286
26301SOL     OW27741   3.815   6.470   0.409
26301SOL    HW127742   3.730   6.488   0.360
26301SOL    HW227743   3.815   6.519   0.496
26302SOL     OW27744  13.364  10.221   7.383
26302SOL    HW127745  13.271  10.217   7.420
26302SOL    HW227746  13.395  10.316   7.383
26303SOL     OW27747  14.634  13.097   8.120
26303SOL    HW127748  14.573  13.028   8.159
26303SOL    HW227749  14.595  13.132   8.035
26304SOL     OW27750   4.650  14.030   1.390
26304SOL    HW127751   4.730  14.086   1.371
26304SOL    HW227752   4.663  13.982   1.477
26305SOL     OW27753   9.595   3.664   1.137
26305SOL    HW127754   9.503   3.641   1.169
26305SOL    HW227755   9.644   3.714   1.209
26306SOL     OW27756  11.775  10.129   1.559
26306SOL    HW127757  11.726  10.216   1.548
26306SOL    HW227758  11.792  10.112   1.656
26307SOL     OW27759   3.919   2.955   0.908
26307SOL    HW127760   3.832   2.983   0.950
26307SOL    HW227761   3.910   2.862   0.873
26308SOL     OW27762  10.038   4.774   1.083
26308SOL    HW127763  10.122   4.721   1.098
26308SOL    HW227764  10.049   4.865   1.122
26309SOL     OW27765   7.993   7.856   1.549
26309SOL    HW127766   7.977   7.949   1.515
26309SOL    HW227767   8.025   7.859   1.643
26310SOL     OW27768  12.308  13.812   2.234
26310SOL    HW127769  12.241  13.784   2.165
26310SOL    HW227770  12.275  13.784   2.325
26311SOL     OW27771   3.767   7.052   6.529
26311SOL    HW127772   3.846   7.029   6.473
26311SOL    HW227773   3.779   7.142   6.569
26312SOL     OW27774   7.540   3.810   0.091
26312SOL    HW127775   7.593   3.880   0.042
26312SOL    HW227776   7.591   3.781   0.172
26313SOL     OW27777   5.405  11.695   0.585
26313SOL    HW127778   5.505  11.688   0.581
26313SOL    HW227779   5.375  11.773   0.530
26314SOL     OW27780  12.427   1.547   1.171
26314SOL    HW127781  12.431   1.469   1.234
26314SOL    HW227782  12.364   1.615   1.207
26315SOL     OW27783   1.489   9.825   1.702
26315SOL    HW127784   1.429   9.803   1.779
26315SOL    HW227785   1.451   9.785   1.618
26316SOL     OW27786   8.949   8.584   8.194
26316SOL    HW127787   8.972   8.546   8.284
26316SOL    HW227788   9.009   8.662   8.175
26317SOL     OW27789   0.949   2.624   7.476
26317SOL    HW127790   0.884   2.549   7.460
26317SOL    HW227791   0.985   2.655   7.388
26318SOL     OW27792  15.891   4.332   0.482
26318SOL    HW127793  15.819   4.344   0.550
26318SOL    HW227794  15.974   4.378   0.513
26319SOL     OW27795   6.417  12.976   0.836
26319SOL    HW127796   6.498  12.939   0.882
26319SOL    HW227797   6.414  13.075   0.848
26320SOL     OW27798  13.512   4.423   1.297
26320SOL    HW127799  13.558   4.429   1.385
26320SOL    HW227800  13.415   4.443   1.308
26321SOL     OW27801   5.675  15.425   8.138
26321SOL    HW127802   5.631  15.385   8.218
26321SOL    HW227803   5.773  15.405   8.140
26322SOL     OW27804   0.483   2.036   1.450
26322SOL    HW127805   0.430   1.978   1.387
26322SOL    HW227806   0.464   2.010   1.544
26323SOL     OW27807   2.903   5.993   6.373
26323SOL    HW127808   2.958   6.057   6.320
26323SOL    HW227809   2.811   6.030   6.385
26324SOL     OW27810   0.661   9.553   7.350
26324SOL    HW127811   0.726   9.481   7.326
26324SOL    HW227812   0.613   9.584   7.268
26325SOL     OW27813   1.212   1.714   0.536
26325SOL    HW127814   1.209   1.614   0.544
26325SOL    HW227815   1.249   1.752   0.621
26326SOL     OW27816  14.593  10.023   1.694
26326SOL    HW127817  14.565   9.993   1.603
26326SOL    HW227818  14.637   9.948   1.743
26327SOL     OW27819  15.207   2.305   5.540
26327SOL    HW127820  15.162   2.384   5.582
26327SOL    HW227821  15.297   2.291   5.581
26328SOL     OW27822   5.576   7.946   6.979
26328SOL    HW127823   5.540   7.860   7.016
26328SOL    HW227824   5.574   7.943   6.879
26329SOL     OW27825   0.689   5.454   1.497
26329SOL    HW127826   0.728   5.514   1.427
26329SOL    HW227827   0.711   5.490   1.588
26330SOL     OW27828  10.216  13.200   7.999
26330SOL    HW127829  10.242  13.241   7.911
26330SOL    HW227830  10.177  13.109   7.982
26331SOL     OW27831   3.264  15.407   1.514
26331SOL    HW127832   3.337  15.376   1.575
26331SOL    HW227833   3.191  15.338   1.513
26332SOL     OW27834  13.831   4.409   8.069
26332SOL    HW127835  13.850   4.441   7.976
26332SOL    HW227836  13.860   4.479   8.135
26333SOL     OW27837   4.303   2.264   8.211
26333SOL    HW127838   4.251   2.184   8.241
26333SOL    HW227839   4.393   2.264   8.256
26334SOL     OW27840   6.575  10.711   8.096
26334SOL    HW127841   6.560  10.651   8.017
26334SOL    HW227842   6.635  10.666   8.161
26335SOL     OW27843   8.770  10.435   1.825
26335SOL    HW127844   8.751  10.441   1.727
26335SOL    HW227845   8.811  10.346   1.845
26336SOL     OW27846   2.070   2.637   1.119
26336SOL    HW127847   1.973   2.657   1.131
26336SOL    HW227848   2.121   2.670   1.199
26337SOL     OW27849   4.791  14.789   1.531
26337SOL    HW127850   4.867  14.725   1.524
26337SOL    HW227851   4.778  14.816   1.626
26338SOL     OW27852  16.468   3.040   6.462
26338SOL    HW127853  16.402   2.974   6.499
26338SOL    HW227854  16.505   3.005   6.376
26339SOL     OW27855  13.644   8.593   1.014
26339SOL    HW127856  13.549   8.625   1.017
26339SOL    HW227857  13.661   8.548   0.926
26340SOL     OW27858   8.220   8.582   8.043
26340SOL    HW127859   8.243   8.485   8.046
26340SOL    HW227860   8.301   8.637   8.060
26341SOL     OW27861   4.262   0.942   6.741
26341SOL    HW127862   4.245   0.915   6.647
26341SOL    HW227863   4.271   1.042   6.746
26342SOL     OW27864   4.207   8.071   0.800
26342SOL    HW127865   4.222   8.073   0.701
26342SOL    HW227866   4.109   8.085   0.819
26343SOL     OW27867   3.128   8.359   7.309
26343SOL    HW127868   3.178   8.306   7.241
26343SOL    HW227869   3.150   8.327   7.401
26344SOL     OW27870   8.683   1.698   8.231
26344SOL    HW127871   8.604   1.711   8.289
26344SOL    HW227872   8.760   1.665   8.286
26345SOL     OW27873   2.194  15.996   7.792
26345SOL    HW127874   2.132  16.058   7.744
26345SOL    HW227875   2.200  16.023   7.888
26346SOL     OW27876   9.814   1.111   7.972
26346SOL    HW127877   9.799   1.141   7.878
26346SOL    HW227878   9.798   1.188   8.034
26347SOL     OW27879   5.124  11.608   1.961
26347SOL    HW127880   5.186  11.570   2.030
26347SOL    HW227881   5.067  11.679   2.003
26348SOL     OW27882  14.928   1.426   8.362
26348SOL    HW127883  14.886   1.361   8.298
26348SOL    HW227884  14.994   1.483   8.313
26349SOL     OW27885  10.911  15.586   8.354
26349SOL    HW127886  10.816  15.589   8.323
26349SOL    HW227887  10.918  15.621   8.447
26350SOL     OW27888   8.079   4.134   8.205
26350SOL    HW127889   8.110   4.187   8.126
26350SOL    HW227890   8.092   4.037   8.187
26351SOL     OW27891  11.397   8.126   8.191
26351SOL    HW127892  11.424   8.033   8.218
26351SOL    HW227893  11.464   8.163   8.128
26352SOL     OW27894   6.193   8.908   7.866
26352SOL    HW127895   6.135   8.844   7.817
26352SOL    HW227896   6.288   8.876   7.863
26353SOL     OW27897   4.856  16.213   2.174
26353SOL    HW127898   4.936  16.252   2.219
26353SOL    HW227899   4.788  16.188   2.243
26354SOL     OW27900  13.634   6.328   7.681
26354SOL    HW127901  13.605   6.333   7.585
26354SOL    HW227902  13.555   6.341   7.741
26355SOL     OW27903   7.866  14.909   1.918
26355SOL    HW127904   7.823  14.917   2.008
26355SOL    HW227905   7.835  14.983   1.860
26356SOL     OW27906  13.916   3.056   0.084
26356SOL    HW127907  13.820   3.038   0.061
26356SOL    HW227908  13.939   3.150   0.059
26357SOL     OW27909   8.607   6.559   7.701
26357SOL    HW127910   8.599   6.571   7.602
26357SOL    HW227911   8.545   6.623   7.747
26358SOL     OW27912  15.022  15.069   8.416
26358SOL    HW127913  15.085  15.008   8.367
26358SOL    HW227914  15.027  15.049   0.060
26359SOL     OW27915  10.819  14.985   1.396
26359SOL    HW127916  10.740  14.975   1.456
26359SOL    HW227917  10.813  14.919   1.321
26360SOL     OW27918   2.139   7.643   1.589
26360SOL    HW127919   2.104   7.735   1.572
26360SOL    HW227920   2.062   7.581   1.601
26361SOL     OW27921  12.207   0.159   6.218
26361SOL    HW127922  12.114   0.123   6.223
26361SOL    HW227923  12.241   0.150   6.124
26362SOL     OW27924   2.858  16.954   8.371
26362SOL    HW127925   2.864  16.919   0.010
26362SOL    HW227926   2.828  16.881   8.310
26363SOL     OW27927  14.318  10.362   7.741
26363SOL    HW127928  14.398  10.404   7.699
26363SOL    HW227929  14.297  10.276   7.696
26364SOL     OW27930  11.862   2.429   8.426
26364SOL    HW127931  11.961   2.439   8.412
26364SOL    HW227932  11.826   2.363   8.361
26365SOL     OW27933  10.686  11.302   8.217
26365SOL    HW127934  10.686  11.207   8.249
26365SOL    HW227935  10.749  11.356   8.274
26366SOL     OW27936   2.692   4.170   0.398
26366SOL    HW127937   2.719   4.128   0.485
26366SOL    HW227938   2.635   4.106   0.347
26367SOL     OW27939   0.250  15.111   8.154
26367SOL    HW127940   0.275  15.159   8.070
26367SOL    HW227941   0.318  15.129   8.225
26368SOL     OW27942   6.974   4.210   7.961
26368SOL    HW127943   6.957   4.250   8.051
26368SOL    HW227944   7.063   4.240   7.928
26369SOL     OW27945  10.553  14.427   7.724
26369SOL    HW127946  10.476  14.427   7.660
26369SOL    HW227947  10.617  14.500   7.699
26370SOL     OW27948   4.912   2.651   7.354
26370SOL    HW127949   4.878   2.690   7.268
26370SOL    HW227950   4.975   2.576   7.333
26371SOL     OW27951  10.932  14.328   6.286
26371SOL    HW127952  10.880  14.352   6.204
26371SOL    HW227953  10.941  14.229   6.291
26372SOL     OW27954   5.156   8.655   0.225
26372SOL    HW127955   5.215   8.726   0.263
26372SOL    HW227956   5.209   8.601   0.159
26373SOL     OW27957  14.222   9.554   8.361
26373SOL    HW127958  14.205   9.481   8.427
26373SOL    HW227959  14.241   9.639   8.410
26374SOL     OW27960  12.605   7.853   0.089
26374SOL    HW127961  12.612   7.855   8.443
26374SOL    HW227962  12.511   7.834   0.115
26375SOL     OW27963   7.507  16.642   6.787
26375SOL    HW127964   7.536  16.681   6.875
26375SOL    HW227965   7.426  16.690   6.754
26376SOL     OW27966   3.235  16.342   0.498
26376SOL    HW127967   3.233  16.424   0.554
26376SOL    HW227968   3.189  16.267   0.546
26377SOL     OW27969   1.406   3.293   1.759
26377SOL    HW127970   1.322   3.330   1.720
26377SOL    HW227971   1.483   3.353   1.737
26378SOL     OW27972  10.159   2.413   0.984
26378SOL    HW127973  10.192   2.429   1.077
26378SOL    HW227974  10.067   2.452   0.974
26379SOL     OW27975   3.256  15.981   6.544
26379SOL    HW127976   3.332  15.920   6.565
26379SOL    HW227977   3.196  15.938   6.476
26380SOL     OW27978   3.954   0.784   1.000
26380SOL    HW127979   4.026   0.741   1.054
26380SOL    HW227980   3.897   0.713   0.958
26381SOL     OW27981   2.166  10.736   8.341
26381SOL    HW127982   2.192  10.787   8.258
26381SOL    HW227983   2.245  10.684   8.374
26382SOL     OW27984  12.406   8.319   1.519
26382SOL    HW127985  12.501   8.343   1.542
26382SOL    HW227986  12.405   8.256   1.441
26383SOL     OW27987   0.326   7.333   0.110
26383SOL    HW127988   0.417   7.336   0.151
26383SOL    HW227989   0.308   7.419   0.062
26384SOL     OW27990  10.584  14.218   0.109
26384SOL    HW127991  10.661  14.171   0.152
26384SOL    HW227992  10.599  14.221   0.010
26385SOL     OW27993  11.739  11.079   7.369
26385SOL    HW127994  11.768  11.172   7.344
26385SOL    HW227995  11.793  11.013   7.318
26386SOL     OW27996   0.244  12.417   7.609
26386SOL    HW127997   0.209  12.472   7.534
26386SOL    HW227998   0.344  12.411   7.603
26387SOL     OW27999   2.734  15.434   0.489
26387SOL    HW128000   2.698  15.359   0.433
26387SOL    HW228001   2.763  15.509   0.429
26388SOL     OW28002  10.512   0.487   1.009
26388SOL    HW128003  10.536   0.584   1.007
26388SOL    HW228004  10.515   0.451   0.916
26389SOL     OW28005   4.487  13.715   2.041
26389SOL    HW128006   4.405  13.674   2.081
26389SOL    HW228007   4.557  13.645   2.030
26390SOL     OW28008   7.209   8.502   0.240
26390SOL    HW128009   7.110   8.516   0.245
26390SOL    HW228010   7.253   8.545   0.319
26391SOL     OW28011  15.492  13.635   0.296
26391SOL    HW128012  15.422  13.573   0.331
26391SOL    HW228013  15.528  13.598   0.210
26392SOL     OW28014  12.068   2.636   1.280
26392SOL    HW128015  12.062   2.692   1.197
26392SOL    HW228016  11.998   2.665   1.345
26393SOL     OW28017  15.795  10.642   0.020
26393SOL    HW128018  15.851  10.609   0.095
26393SOL    HW228019  15.747  10.564   8.432
26394SOL     OW28020  16.587   8.391   1.477
26394SOL    HW128021  16.681   8.425   1.470
26394SOL    HW228022  16.524   8.467   1.487
26395SOL     OW28023   8.081   1.338   7.652
26395SOL    HW128024   8.019   1.416   7.654
26395SOL    HW228025   8.100   1.307   7.745
26396SOL     OW28026  11.948  10.898   0.692
26396SOL    HW128027  12.018  10.916   0.623
26396SOL    HW228028  11.888  10.978   0.701
26397SOL     OW28029   7.507  11.721   7.668
26397SOL    HW128030   7.511  11.793   7.599
26397SOL    HW228031   7.448  11.647   7.635
26398SOL     OW28032  12.674  14.902   8.051
26398SOL    HW128033  12.630  14.990   8.067
26398SOL    HW228034  12.765  14.903   8.094
26399SOL     OW28035   2.701  16.032   7.034
26399SOL    HW128036   2.749  15.962   6.980
26399SOL    HW228037   2.736  16.031   7.128
26400SOL     OW28038   0.760  16.162   8.242
26400SOL    HW128039   0.724  16.190   8.153
26400SOL    HW228040   0.738  16.066   8.259
26401SOL     OW28041   5.377  10.688   6.949
26401SOL    HW128042   5.440  10.727   7.015
26401SOL    HW228043   5.397  10.591   6.936
26402SOL     OW28044   4.724   7.775   7.491
26402SOL    HW128045   4.764   7.765   7.400
26402SOL    HW228046   4.688   7.687   7.522
26403SOL     OW28047   7.893   8.036   6.082
26403SOL    HW128048   7.814   8.016   6.024
26403SOL    HW228049   7.875   8.119   6.135
26404SOL     OW28050   7.556   3.584   7.200
26404SOL    HW128051   7.596   3.665   7.157
26404SOL    HW228052   7.486   3.613   7.265
26405SOL     OW28053   3.946   5.480   1.906
26405SOL    HW128054   3.922   5.574   1.884
26405SOL    HW228055   3.903   5.454   1.993
26406SOL     OW28056  10.689   8.305   0.573
26406SOL    HW128057  10.600   8.351   0.579
26406SOL    HW228058  10.762   8.373   0.582
26407SOL     OW28059   9.899  14.949   1.262
26407SOL    HW128060   9.815  14.961   1.209
26407SOL    HW228061   9.899  15.012   1.340
26408SOL     OW28062   9.310   1.755   7.693
26408SOL    HW128063   9.333   1.665   7.656
26408SOL    HW228064   9.368   1.824   7.651
26409SOL     OW28065  13.642  15.071   6.661
26409SOL    HW128066  13.636  15.158   6.611
26409SOL    HW228067  13.661  14.997   6.597
26410SOL     OW28068  16.107   6.081   7.723
26410SOL    HW128069  16.081   6.013   7.791
26410SOL    HW228070  16.044   6.159   7.728
26411SOL     OW28071   0.782   9.368   6.640
26411SOL    HW128072   0.780   9.284   6.586
26411SOL    HW228073   0.806   9.445   6.581
26412SOL     OW28074  10.865  10.021   8.361
26412SOL    HW128075  10.851   9.923   8.349
26412SOL    HW228076  10.853  10.044   0.003
26413SOL     OW28077   7.564  15.319   7.727
26413SOL    HW128078   7.575  15.329   7.628
26413SOL    HW228079   7.481  15.267   7.746
26414SOL     OW28080  11.805  13.781   1.429
26414SOL    HW128081  11.831  13.878   1.431
26414SOL    HW228082  11.738  13.766   1.356
26415SOL     OW28083   0.659   6.034   6.478
26415SOL    HW128084   0.750   6.065   6.506
26415SOL    HW228085   0.664   5.991   6.388
26416SOL     OW28086  15.093   1.325   1.169
26416SOL    HW128087  15.051   1.415   1.177
26416SOL    HW228088  15.175   1.320   1.227
26417SOL     OW28089   8.188   7.663   6.526
26417SOL    HW128090   8.186   7.738   6.460
26417SOL    HW228091   8.180   7.700   6.618
26418SOL     OW28092  13.670  11.557   1.190
26418SOL    HW128093  13.615  11.639   1.175
26418SOL    HW228094  13.699  11.520   1.102
26419SOL     OW28095   5.142   9.942   8.444
26419SOL    HW128096   5.100   9.935   0.080
26419SOL    HW228097   5.092   9.884   8.379
26420SOL     OW28098   0.104  16.174   0.360
26420SOL    HW128099   0.159  16.094   0.383
26420SOL    HW228100   0.117  16.245   0.429
26421SOL     OW28101  16.531   1.618   7.620
26421SOL    HW128102  16.590   1.697   7.639
26421SOL    HW228103  16.585   1.534   7.622
26422SOL     OW28104   9.425   0.515   0.941
26422SOL    HW128105   9.492   0.478   0.877
26422SOL    HW228106   9.336   0.472   0.923
26423SOL     OW28107   8.966   3.360   1.569
26423SOL    HW128108   8.935   3.454   1.581
26423SOL    HW228109   8.957   3.333   1.474
26424SOL     OW28110  16.688   0.661   6.886
26424SOL    HW128111  16.682   0.752   6.845
26424SOL    HW228112  16.736   0.600   6.824
26425SOL     OW28113  13.394   8.585   0.095
26425SOL    HW128114  13.455   8.623   0.165
26425SOL    HW228115  13.299   8.609   0.116
26426SOL     OW28116  16.863   0.900   7.186
26426SOL    HW128117  16.822   0.896   7.277
26426SOL    HW228118  16.959   0.872   7.192
26427SOL     OW28119   3.293  14.375   7.735
26427SOL    HW128120   3.227  14.307   7.706
26427SOL    HW228121   3.382  14.332   7.751
26428SOL     OW28122  10.749   4.095   7.932
26428SOL    HW128123  10.721   4.178   7.980
26428SOL    HW228124  10.707   4.015   7.977
26429SOL     OW28125  10.643  10.647   7.432
26429SOL    HW128126  10.627  10.659   7.530
26429SOL    HW228127  10.587  10.712   7.381
26430SOL     OW28128  16.587   7.233   6.768
26430SOL    HW128129  16.573   7.323   6.727
26430SOL    HW228130  16.684   7.208   6.761
26431SOL     OW28131  11.674   4.332   1.535
26431SOL    HW128132  11.578   4.354   1.516
26431SOL    HW228133  11.680   4.278   1.619
26432SOL     OW28134  12.975   9.135   0.255
26432SOL    HW128135  12.987   9.201   0.181
26432SOL    HW228136  12.917   9.175   0.326
26433SOL     OW28137  11.064   7.922   8.117
26433SOL    HW128138  11.118   7.909   8.034
26433SOL    HW228139  10.972   7.950   8.093
26434SOL     OW28140  13.282   5.994   0.204
26434SOL    HW128141  13.285   6.051   0.121
26434SOL    HW228142  13.202   5.934   0.199
26435SOL     OW28143  12.035   4.089   7.346
26435SOL    HW128144  12.056   4.164   7.409
26435SOL    HW228145  12.105   4.019   7.353
26436SOL     OW28146   1.739  16.686   8.160
26436SOL    HW128147   1.802  16.710   8.086
26436SOL    HW228148   1.665  16.630   8.124
26437SOL     OW28149   8.153  11.069   0.339
26437SOL    HW128150   8.161  10.970   0.344
26437SOL    HW228151   8.075  11.100   0.393
26438SOL     OW28152  16.665  15.783   1.088
26438SOL    HW128153  16.759  15.763   1.061
26438SOL    HW228154  16.638  15.872   1.052
26439SOL     OW28155  11.809   7.734   1.201
26439SOL    HW128156  11.722   7.741   1.151
26439SOL    HW228157  11.880   7.784   1.152
26440SOL     OW28158   4.706  10.655   2.151
26440SOL    HW128159   4.611  10.684   2.146
26440SOL    HW228160   4.722  10.609   2.239
26441SOL     OW28161   3.943  12.663   1.653
26441SOL    HW128162   3.848  12.666   1.622
26441SOL    HW228163   3.945  12.664   1.753
26442SOL     OW28164   0.127  10.745   7.809
26442SOL    HW128165   0.100  10.663   7.860
26442SOL    HW228166   0.198  10.722   7.743
26443SOL     OW28167  15.862  15.854   0.504
26443SOL    HW128168  15.910  15.876   0.418
26443SOL    HW228169  15.843  15.756   0.506
26444SOL     OW28170   0.798   8.508   0.186
26444SOL    HW128171   0.870   8.439   0.190
26444SOL    HW228172   0.836   8.598   0.205
26445SOL     OW28173   9.168  14.247   1.828
26445SOL    HW128174   9.185  14.236   1.926
26445SOL    HW228175   9.147  14.342   1.808
26446SOL     OW28176  14.218  11.591   0.331
26446SOL    HW128177  14.237  11.687   0.311
26446SOL    HW228178  14.304  11.541   0.340
26447SOL     OW28179   9.030   3.801   6.633
26447SOL    HW128180   9.109   3.809   6.693
26447SOL    HW228181   9.028   3.710   6.593
26448SOL     OW28182   1.213   1.033   2.138
26448SOL    HW128183   1.283   1.006   2.204
26448SOL    HW228184   1.224   1.130   2.116
26449SOL     OW28185   0.820  11.880   8.430
26449SOL    HW128186   0.860  11.891   0.067
26449SOL    HW228187   0.801  11.784   8.414
26450SOL     OW28188   2.940   4.001   0.233
26450SOL    HW128189   2.908   3.988   0.140
26450SOL    HW228190   2.941   4.099   0.255
26451SOL     OW28191   7.763  10.652   7.609
26451SOL    HW128192   7.746  10.600   7.526
26451SOL    HW228193   7.785  10.589   7.684
26452SOL     OW28194   2.756  14.152   1.320
26452SOL    HW128195   2.808  14.225   1.274
26452SOL    HW228196   2.681  14.124   1.260
26453SOL     OW28197  13.843  15.984   1.458
26453SOL    HW128198  13.934  16.001   1.496
26453SOL    HW228199  13.852  15.955   1.362
26454SOL     OW28200   3.425   4.335   8.444
26454SOL    HW128201   3.357   4.304   0.056
26454SOL    HW228202   3.496   4.265   8.435
26455SOL     OW28203  16.454  10.638   2.172
26455SOL    HW128204  16.388  10.689   2.228
26455SOL    HW228205  16.511  10.582   2.231
26456SOL     OW28206  15.708   4.756   8.002
26456SOL    HW128207  15.719   4.770   7.904
26456SOL    HW228208  15.760   4.825   8.052
26457SOL     OW28209   2.912  12.461   1.936
26457SOL    HW128210   2.953  12.518   2.007
26457SOL    HW228211   2.857  12.519   1.875
26458SOL     OW28212  11.538  11.184   1.711
26458SOL    HW128213  11.497  11.093   1.696
26458SOL    HW228214  11.477  11.237   1.770
26459SOL     OW28215   9.676  11.652   6.944
26459SOL    HW128216   9.718  11.578   6.892
26459SOL    HW228217   9.586  11.673   6.906
26460SOL     OW28218   5.752   4.612   1.319
26460SOL    HW128219   5.653   4.621   1.308
26460SOL    HW228220   5.773   4.562   1.403
26461SOL     OW28221  13.534   0.553   1.976
26461SOL    HW128222  13.456   0.556   2.038
26461SOL    HW228223  13.618   0.560   2.029
26462SOL     OW28224   1.255   4.546   7.216
26462SOL    HW128225   1.158   4.546   7.191
26462SOL    HW228226   1.290   4.639   7.216
26463SOL     OW28227   7.916   9.875   7.418
26463SOL    HW128228   7.884   9.808   7.351
26463SOL    HW228229   8.005   9.910   7.390
26464SOL     OW28230  15.168   4.744   5.923
26464SOL    HW128231  15.143   4.723   5.829
26464SOL    HW228232  15.246   4.807   5.924
26465SOL     OW28233   4.343  12.311   7.401
26465SOL    HW128234   4.301  12.334   7.313
26465SOL    HW228235   4.292  12.355   7.475
26466SOL     OW28236  12.814   9.373   7.627
26466SOL    HW128237  12.789   9.464   7.593
26466SOL    HW228238  12.767   9.303   7.574
26467SOL     OW28239  13.137  15.712   6.461
26467SOL    HW128240  13.194  15.711   6.379
26467SOL    HW228241  13.048  15.753   6.439
26468SOL     OW28242  14.914   8.051   7.798
26468SOL    HW128243  14.883   7.957   7.804
26468SOL    HW228244  14.883   8.091   7.712
26469SOL     OW28245   1.338   9.472   8.261
26469SOL    HW128246   1.400   9.481   8.339
26469SOL    HW228247   1.360   9.388   8.211
26470SOL     OW28248  13.796   3.576   0.502
26470SOL    HW128249  13.896   3.580   0.498
26470SOL    HW228250  13.767   3.500   0.560
26471SOL     OW28251  13.517   3.496   6.557
26471SOL    HW128252  13.543   3.400   6.545
26471SOL    HW228253  13.553   3.550   6.481
26472SOL     OW28254  13.727  15.811   0.461
26472SOL    HW128255  13.801  15.805   0.393
26472SOL    HW228256  13.695  15.905   0.467
26473SOL     OW28257  14.789   0.690   0.191
26473SOL    HW128258  14.877   0.644   0.200
26473SOL    HW228259  14.720   0.625   0.161
26474SOL     OW28260   6.603   1.685   0.864
26474SOL    HW128261   6.602   1.613   0.933
26474SOL    HW228262   6.541   1.759   0.892
26475SOL     OW28263  12.733  13.277   0.646
26475SOL    HW128264  12.775  13.348   0.702
26475SOL    HW228265  12.657  13.316   0.593
26476SOL     OW28266   6.847   1.807   7.025
26476SOL    HW128267   6.830   1.905   7.028
26476SOL    HW228268   6.760   1.758   7.017
26477SOL     OW28269   6.501  11.110   7.768
26477SOL    HW128270   6.470  11.144   7.857
26477SOL    HW228271   6.452  11.157   7.695
26478SOL     OW28272  15.628   3.025   7.648
26478SOL    HW128273  15.600   2.930   7.635
26478SOL    HW228274  15.662   3.037   7.741
26479SOL     OW28275  13.034   4.025   6.921
26479SOL    HW128276  12.981   4.080   6.986
26479SOL    HW228277  13.124   4.007   6.959
26480SOL     OW28278   0.533  12.821   7.852
26480SOL    HW128279   0.482  12.883   7.911
26480SOL    HW228280   0.476  12.744   7.826
26481SOL     OW28281   9.119   4.311   0.258
26481SOL    HW128282   9.195   4.372   0.281
26481SOL    HW228283   9.083   4.271   0.343
26482SOL     OW28284  12.583   2.033   1.174
26482SOL    HW128285  12.496   2.008   1.130
26482SOL    HW228286  12.624   1.952   1.216
26483SOL     OW28287  12.488  11.488   7.744
26483SOL    HW128288  12.513  11.397   7.776
26483SOL    HW228289  12.475  11.548   7.822
26484SOL     OW28290   4.813  10.259   1.653
26484SOL    HW128291   4.771  10.343   1.617
26484SOL    HW228292   4.819  10.191   1.580
26485SOL     OW28293  13.675  11.568   2.695
26485SOL    HW128294  13.738  11.641   2.721
26485SOL    HW228295  13.602  11.562   2.763
26486SOL     OW28296   8.815   0.187   7.135
26486SOL    HW128297   8.728   0.147   7.106
26486SOL    HW228298   8.857   0.129   7.205
26487SOL     OW28299  13.769  16.836   6.457
26487SOL    HW128300  13.848  16.788   6.494
26487SOL    HW228301  13.738  16.790   6.373
26488SOL     OW28302   8.664  16.885   0.680
26488SOL    HW128303   8.616  16.907   0.765
26488SOL    HW228304   8.606  16.908   0.602
26489SOL     OW28305  15.304   3.970   6.082
26489SOL    HW128306  15.262   3.890   6.038
26489SOL    HW228307  15.314   4.043   6.015
26490SOL     OW28308   2.817  12.763   0.396
26490SOL    HW128309   2.770  12.738   0.480
26490SOL    HW228310   2.915  12.746   0.407
26491SOL     OW28311   8.143   8.422   6.518
26491SOL    HW128312   8.179   8.392   6.606
26491SOL    HW228313   8.049   8.387   6.507
26492SOL     OW28314  16.561   3.471   8.225
26492SOL    HW128315  16.555   3.398   8.293
26492SOL    HW228316  16.474   3.521   8.222
26493SOL     OW28317  14.466   1.881   6.377
26493SOL    HW128318  14.397   1.882   6.304
26493SOL    HW228319  14.546   1.829   6.347
26494SOL     OW28320  10.794  13.283   1.692
26494SOL    HW128321  10.839  13.214   1.635
26494SOL    HW228322  10.862  13.331   1.747
26495SOL     OW28323  16.422   3.299   6.806
26495SOL    HW128324  16.385   3.350   6.884
26495SOL    HW228325  16.490   3.234   6.838
26496SOL     OW28326  15.043  10.142   7.833
26496SOL    HW128327  15.061  10.181   7.923
26496SOL    HW228328  15.095  10.057   7.822
26497SOL     OW28329  15.464   5.952   6.524
26497SOL    HW128330  15.467   5.873   6.463
26497SOL    HW228331  15.543   6.011   6.506
26498SOL     OW28332  15.587   4.427   0.034
26498SOL    HW128333  15.635   4.421   0.121
26498SOL    HW228334  15.529   4.509   0.034
26499SOL     OW28335  11.248   3.920   7.994
26499SOL    HW128336  11.333   3.956   7.955
26499SOL    HW228337  11.186   3.893   7.920
26500SOL     OW28338   9.045   4.204   0.513
26500SOL    HW128339   9.034   4.289   0.565
26500SOL    HW228340   8.960   4.183   0.465
26501SOL     OW28341  12.786   6.120   0.150
26501SOL    HW128342  12.698   6.075   0.165
26501SOL    HW228343  12.854   6.083   0.214
26502SOL     OW28344   8.087   4.755   0.658
26502SOL    HW128345   8.038   4.708   0.584
26502SOL    HW228346   8.184   4.763   0.634
26503SOL     OW28347   4.545  14.143   2.492
26503SOL    HW128348   4.475  14.117   2.426
26503SOL    HW228349   4.518  14.113   2.584
26504SOL     OW28350  12.011  14.816   0.679
26504SOL    HW128351  11.972  14.755   0.610
26504SOL    HW228352  12.068  14.884   0.634
26505SOL     OW28353   7.595  10.700   2.405
26505SOL    HW128354   7.580  10.781   2.462
26505SOL    HW228355   7.522  10.633   2.422
26506SOL     OW28356  10.494   2.358   7.343
26506SOL    HW128357  10.424   2.423   7.313
26506SOL    HW228358  10.455   2.267   7.348
26507SOL     OW28359  11.757  16.357   0.377
26507SOL    HW128360  11.825  16.359   0.304
26507SOL    HW228361  11.779  16.428   0.445
26508SOL     OW28362  14.110  11.235   0.949
26508SOL    HW128363  14.190  11.179   0.968
26508SOL    HW228364  14.132  11.332   0.965
26509SOL     OW28365   7.768  13.903   7.776
26509SOL    HW128366   7.767  13.839   7.700
26509SOL    HW228367   7.814  13.987   7.749
26510SOL     OW28368  11.335   7.260   8.331
26510SOL    HW128369  11.277   7.263   8.413
26510SOL    HW228370  11.329   7.347   8.283
26511SOL     OW28371  14.478  16.884   0.000
26511SOL    HW128372  14.423  16.811   0.040
26511SOL    HW228373  14.562  16.846   8.415
26512SOL     OW28374   6.907   6.256   8.080
26512SOL    HW128375   6.994   6.256   8.130
26512SOL    HW228376   6.922   6.217   7.989
26513SOL     OW28377   8.818  15.025   0.106
26513SOL    HW128378   8.859  15.068   0.025
26513SOL    HW228379   8.807  14.927   0.089
26514SOL     OW28380  12.484  10.893   8.214
26514SOL    HW128381  12.501  10.889   8.312
26514SOL    HW228382  12.471  10.800   8.178
26515SOL     OW28383  11.958  13.084   1.300
26515SOL    HW128384  11.873  13.137   1.307
26515SOL    HW228385  11.984  13.051   1.390
26516SOL     OW28386  11.114   9.461   1.778
26516SOL    HW128387  11.112   9.413   1.690
26516SOL    HW228388  11.081   9.400   1.850
26517SOL     OW28389  13.578   9.035   0.502
26517SOL    HW128390  13.581   8.978   0.584
26517SOL    HW228391  13.498   9.010   0.448
26518SOL     OW28392  10.800  14.525   1.539
26518SOL    HW128393  10.721  14.575   1.574
26518SOL    HW228394  10.864  14.508   1.614
26519SOL     OW28395   2.320  16.906   2.535
26519SOL    HW128396   2.242  16.968   2.541
26519SOL    HW228397   2.288  16.813   2.519
26520SOL     OW28398   9.208  16.033   7.502
26520SOL    HW128399   9.192  15.965   7.431
26520SOL    HW228400   9.306  16.038   7.522
26521SOL     OW28401   1.634  15.090   2.236
26521SOL    HW128402   1.543  15.064   2.206
26521SOL    HW228403   1.628  15.174   2.290
26522SOL     OW28404   1.248  16.678   1.047
26522SOL    HW128405   1.213  16.586   1.032
26522SOL    HW228406   1.325  16.695   0.985
26523SOL     OW28407  11.738   5.782   7.221
26523SOL    HW128408  11.809   5.820   7.162
26523SOL    HW228409  11.713   5.849   7.290
26524SOL     OW28410   9.496   8.757   1.986
26524SOL    HW128411   9.441   8.797   2.059
26524SOL    HW228412   9.523   8.829   1.921
26525SOL     OW28413   7.287   6.629   0.894
26525SOL    HW128414   7.242   6.716   0.914
26525SOL    HW228415   7.286   6.571   0.975
26526SOL     OW28416  16.633  10.299   1.928
26526SOL    HW128417  16.616  10.203   1.906
26526SOL    HW228418  16.546  10.347   1.941
26527SOL     OW28419   1.784   5.402   1.168
26527SOL    HW128420   1.712   5.402   1.238
26527SOL    HW228421   1.871   5.380   1.211
26528SOL     OW28422  13.987  16.842   7.103
26528SOL    HW128423  13.973  16.799   7.192
26528SOL    HW228424  14.077  16.887   7.101
26529SOL     OW28425   5.281   2.045   1.812
26529SOL    HW128426   5.374   2.077   1.830
26529SOL    HW228427   5.277   2.002   1.722
26530SOL     OW28428  12.490   0.191   6.907
26530SOL    HW128429  12.401   0.211   6.867
26530SOL    HW228430  12.540   0.276   6.921
26531SOL     OW28431   0.897  15.196   1.613
26531SOL    HW128432   0.908  15.198   1.713
26531SOL    HW228433   0.964  15.257   1.571
26532SOL     OW28434  13.444   9.007   7.793
26532SOL    HW128435  13.507   8.930   7.785
26532SOL    HW228436  13.497   9.092   7.806
26533SOL     OW28437   4.516   0.608   0.557
26533SOL    HW128438   4.497   0.703   0.532
26533SOL    HW228439   4.596   0.576   0.505
26534SOL     OW28440   3.212   9.762   7.013
26534SOL    HW128441   3.216   9.684   6.950
26534SOL    HW228442   3.120   9.770   7.050
26535SOL     OW28443  13.711  13.293   6.773
26535SOL    HW128444  13.809  13.290   6.795
26535SOL    HW228445  13.682  13.202   6.744
26536SOL     OW28446  15.923  11.111   1.786
26536SOL    HW128447  15.991  11.044   1.816
26536SOL    HW228448  15.939  11.198   1.833
26537SOL     OW28449  13.412  13.785   8.046
26537SOL    HW128450  13.480  13.854   8.020
26537SOL    HW228451  13.457  13.709   8.092
26538SOL     OW28452   2.356  11.737   2.134
26538SOL    HW128453   2.440  11.686   2.151
26538SOL    HW228454   2.277  11.679   2.156
26539SOL     OW28455   1.291  16.855   7.931
26539SOL    HW128456   1.239  16.821   7.852
26539SOL    HW228457   1.285  16.788   8.005
26540SOL     OW28458   4.844  15.518   0.001
26540SOL    HW128459   4.774  15.449   0.020
26540SOL    HW228460   4.852  15.532   8.356
26541SOL     OW28461  10.688  15.037   7.268
26541SOL    HW128462  10.722  15.105   7.333
26541SOL    HW228463  10.756  14.964   7.259
26542SOL     OW28464   3.299   8.534   6.551
26542SOL    HW128465   3.365   8.521   6.477
26542SOL    HW228466   3.243   8.615   6.532
26543SOL     OW28467  14.997  12.912   7.657
26543SOL    HW128468  14.971  12.980   7.589
26543SOL    HW228469  15.080  12.865   7.628
26544SOL     OW28470   4.791   7.110   0.249
26544SOL    HW128471   4.830   7.129   0.340
26544SOL    HW228472   4.706   7.058   0.260
26545SOL     OW28473  16.489  12.813   0.801
26545SOL    HW128474  16.579  12.780   0.828
26545SOL    HW228475  16.420  12.779   0.865
26546SOL     OW28476   1.602   9.605   0.505
26546SOL    HW128477   1.564   9.640   0.420
26546SOL    HW228478   1.541   9.626   0.581
26547SOL     OW28479   3.657   0.865   8.332
26547SOL    HW128480   3.713   0.873   8.414
26547SOL    HW228481   3.700   0.914   8.256
26548SOL     OW28482   3.988   0.847   8.268
26548SOL    HW128483   4.023   0.898   8.347
26548SOL    HW228484   3.916   0.900   8.223
26549SOL     OW28485   8.499   3.887   8.088
26549SOL    HW128486   8.532   3.794   8.072
26549SOL    HW228487   8.416   3.903   8.034
26550SOL     OW28488   4.636  10.455   0.855
26550SOL    HW128489   4.613  10.470   0.759
26550SOL    HW228490   4.610  10.362   0.881
26551SOL     OW28491   4.162   7.289   2.436
26551SOL    HW128492   4.170   7.367   2.499
26551SOL    HW228493   4.067   7.259   2.432
26552SOL     OW28494  10.860  16.367   0.248
26552SOL    HW128495  10.945  16.327   0.214
26552SOL    HW228496  10.783  16.307   0.224
26553SOL     OW28497  10.714  10.792   0.208
26553SOL    HW128498  10.794  10.733   0.200
26553SOL    HW228499  10.742  10.888   0.195
26554SOL     OW28500  13.367   6.015   0.471
26554SOL    HW128501  13.283   6.018   0.526
26554SOL    HW228502  13.344   6.020   0.374
26555SOL     OW28503  16.507   5.437   0.571
26555SOL    HW128504  16.446   5.358   0.577
26555SOL    HW228505  16.454   5.518   0.545
26556SOL     OW28506  15.710   3.079   7.210
26556SOL    HW128507  15.791   3.126   7.173
26556SOL    HW228508  15.739   2.994   7.254
26557SOL     OW28509  13.853  11.891   7.952
26557SOL    HW128510  13.819  11.842   7.872
26557SOL    HW228511  13.953  11.894   7.949
26558SOL     OW28512   4.862  10.930   6.880
26558SOL    HW128513   4.786  10.913   6.817
26558SOL    HW228514   4.936  10.976   6.831
26559SOL     OW28515   1.169   3.247   1.085
26559SOL    HW128516   1.126   3.194   1.158
26559SOL    HW228517   1.098   3.297   1.034
26560SOL     OW28518   2.058  11.412   8.278
26560SOL    HW128519   2.014  11.413   8.188
26560SOL    HW228520   2.122  11.336   8.283
26561SOL     OW28521   5.699   3.910   0.820
26561SOL    HW128522   5.637   3.985   0.798
26561SOL    HW228523   5.707   3.900   0.919
26562SOL     OW28524   5.058  14.297   1.374
26562SOL    HW128525   5.026  14.206   1.399
26562SOL    HW228526   5.134  14.323   1.433
26563SOL     OW28527   8.396   1.726   6.260
26563SOL    HW128528   8.421   1.729   6.163
26563SOL    HW228529   8.472   1.757   6.316
26564SOL     OW28530   9.415  15.139   5.879
26564SOL    HW128531   9.351  15.072   5.844
26564SOL    HW228532   9.434  15.208   5.809
26565SOL     OW28533  10.224   9.418   0.039
26565SOL    HW128534  10.294   9.486   0.064
26565SOL    HW228535  10.262   9.327   0.051
26566SOL     OW28536  15.852  13.851   1.196
26566SOL    HW128537  15.901  13.822   1.279
26566SOL    HW228538  15.764  13.891   1.222
26567SOL     OW28539   4.855   5.092   0.831
26567SOL    HW128540   4.913   5.030   0.884
26567SOL    HW228541   4.903   5.179   0.819
26568SOL     OW28542   4.595   4.536   0.255
26568SOL    HW128543   4.584   4.455   0.313
26568SOL    HW228544   4.539   4.610   0.292
26569SOL     OW28545   1.507   6.565   7.149
26569SOL    HW128546   1.457   6.489   7.190
26569SOL    HW228547   1.597   6.533   7.120
26570SOL     OW28548  15.155   4.504   6.563
26570SOL    HW128549  15.231   4.530   6.504
26570SOL    HW228550  15.092   4.581   6.572
26571SOL     OW28551   5.708   6.345   0.033
26571SOL    HW128552   5.743   6.336   8.394
26571SOL    HW228553   5.677   6.255   0.065
26572SOL     OW28554  12.272  16.547   7.673
26572SOL    HW128555  12.316  16.564   7.762
26572SOL    HW228556  12.333  16.578   7.600
26573SOL     OW28557   6.399   7.260   7.584
26573SOL    HW128558   6.390   7.201   7.664
26573SOL    HW228559   6.464   7.334   7.604
26574SOL     OW28560  14.043   2.479   0.430
26574SOL    HW128561  14.015   2.516   0.518
26574SOL    HW228562  14.033   2.549   0.359
26575SOL     OW28563   1.444   3.582   1.479
26575SOL    HW128564   1.348   3.601   1.455
26575SOL    HW228565   1.461   3.616   1.572
26576SOL     OW28566   7.605   0.476   7.229
26576SOL    HW128567   7.586   0.507   7.322
26576SOL    HW228568   7.539   0.516   7.166
26577SOL     OW28569   8.244   2.777   7.926
26577SOL    HW128570   8.197   2.753   7.841
26577SOL    HW228571   8.324   2.834   7.905
26578SOL     OW28572   2.007   7.292   0.533
26578SOL    HW128573   1.944   7.217   0.550
26578SOL    HW228574   1.991   7.365   0.601
26579SOL     OW28575  14.867   6.217   7.814
26579SOL    HW128576  14.867   6.283   7.739
26579SOL    HW228577  14.908   6.258   7.895
26580SOL     OW28578  10.175   4.589   0.398
26580SOL    HW128579  10.161   4.675   0.447
26580SOL    HW228580  10.231   4.528   0.454
26581SOL     OW28581  11.449  12.716   2.233
26581SOL    HW128582  11.475  12.654   2.307
26581SOL    HW228583  11.350  12.718   2.224
26582SOL     OW28584   2.196  13.783   0.148
26582SOL    HW128585   2.212  13.767   0.246
26582SOL    HW228586   2.123  13.723   0.116
26583SOL     OW28587   8.183   8.314   1.058
26583SOL    HW128588   8.187   8.232   1.001
26583SOL    HW228589   8.103   8.309   1.118
26584SOL     OW28590   9.544   8.851   7.703
26584SOL    HW128591   9.473   8.789   7.670
26584SOL    HW228592   9.528   8.872   7.799
26585SOL     OW28593  14.236   4.628   7.408
26585SOL    HW128594  14.215   4.698   7.476
26585SOL    HW228595  14.153   4.577   7.385
26586SOL     OW28596  14.395   8.251   7.676
26586SOL    HW128597  14.459   8.219   7.746
26586SOL    HW228598  14.440   8.319   7.619
26587SOL     OW28599   7.778  15.948   0.570
26587SOL    HW128600   7.876  15.965   0.582
26587SOL    HW228601   7.764  15.890   0.489
26588SOL     OW28602   3.282   5.930   1.054
26588SOL    HW128603   3.194   5.902   1.092
26588SOL    HW228604   3.315   6.011   1.103
26589SOL     OW28605   3.591   3.367   1.063
26589SOL    HW128606   3.563   3.283   1.109
26589SOL    HW228607   3.658   3.345   0.992
26590SOL     OW28608  14.133  14.666   6.909
26590SOL    HW128609  14.159  14.583   6.860
26590SOL    HW228610  14.097  14.642   6.999
26591SOL     OW28611  15.225  13.454   2.503
26591SOL    HW128612  15.221  13.421   2.598
26591SOL    HW228613  15.302  13.411   2.456
26592SOL     OW28614   2.634  15.089   1.340
26592SOL    HW128615   2.606  15.176   1.300
26592SOL    HW228616   2.605  15.086   1.436
26593SOL     OW28617   1.811   2.942   1.054
26593SOL    HW128618   1.812   2.999   1.137
26593SOL    HW228619   1.803   2.846   1.080
26594SOL     OW28620   1.755   5.249   1.533
26594SOL    HW128621   1.810   5.308   1.592
26594SOL    HW228622   1.815   5.189   1.481
26595SOL     OW28623  12.159   9.835   7.624
26595SOL    HW128624  12.221   9.773   7.673
26595SOL    HW228625  12.065   9.821   7.656
26596SOL     OW28626   2.580   6.636   1.072
26596SOL    HW128627   2.512   6.658   1.143
26596SOL    HW228628   2.533   6.609   0.989
26597SOL     OW28629   9.879  10.483   6.815
26597SOL    HW128630   9.928  10.567   6.793
26597SOL    HW228631   9.929  10.432   6.884
26598SOL     OW28632  12.926   7.834   6.759
26598SOL    HW128633  12.895   7.783   6.679
26598SOL    HW228634  12.849   7.884   6.799
26599SOL     OW28635  11.674  16.416   7.066
26599SOL    HW128636  11.582  16.456   7.061
26599SOL    HW228637  11.679  16.338   7.003
26600SOL     OW28638  10.690   7.668   0.170
26600SOL    HW128639  10.754   7.743   0.183
26600SOL    HW228640  10.677   7.620   0.257
26601SOL     OW28641  10.837   2.345   6.319
26601SOL    HW128642  10.911   2.402   6.354
26601SOL    HW228643  10.867   2.297   6.238
26602SOL     OW28644  13.573  14.152   0.436
26602SOL    HW128645  13.479  14.120   0.447
26602SOL    HW228646  13.594  14.158   0.339
26603SOL     OW28647  15.992   7.736   0.766
26603SOL    HW128648  15.901   7.697   0.778
26603SOL    HW228649  16.060   7.678   0.811
26604SOL     OW28650   2.439   3.014   7.566
26604SOL    HW128651   2.343   3.038   7.550
26604SOL    HW228652   2.443   2.939   7.633
26605SOL     OW28653   3.818   6.483   8.091
26605SOL    HW128654   3.795   6.510   7.997
26605SOL    HW228655   3.750   6.519   8.154
26606SOL     OW28656   8.008   6.962   0.924
26606SOL    HW128657   8.041   7.047   0.883
26606SOL    HW228658   7.923   6.980   0.973
26607SOL     OW28659   6.315   6.321   7.415
26607SOL    HW128660   6.357   6.314   7.324
26607SOL    HW228661   6.249   6.397   7.415
26608SOL     OW28662   0.636  15.015   8.166
26608SOL    HW128663   0.592  14.925   8.169
26608SOL    HW228664   0.579  15.080   8.216
26609SOL     OW28665   9.666   0.724   0.087
26609SOL    HW128666   9.666   0.820   0.060
26609SOL    HW228667   9.595   0.708   0.156
26610SOL     OW28668   8.167  14.028   7.836
26610SOL    HW128669   8.141  13.938   7.800
26610SOL    HW228670   8.151  14.030   7.935
26611SOL     OW28671   4.135  15.541   0.810
26611SOL    HW128672   4.050  15.495   0.836
26611SOL    HW228673   4.212  15.482   0.829
26612SOL     OW28674  16.951   5.491   8.285
26612SOL    HW128675  16.864   5.531   8.315
26612SOL    HW228676  16.939   5.447   8.196
26613SOL     OW28677   4.796  16.820   2.591
26613SOL    HW128678   4.725  16.749   2.590
26613SOL    HW228679   4.832  16.829   2.684
26614SOL     OW28680   0.481  13.271   1.936
26614SOL    HW128681   0.399  13.281   1.993
26614SOL    HW228682   0.453  13.257   1.841
26615SOL     OW28683  11.985   0.485   6.263
26615SOL    HW128684  11.946   0.401   6.228
26615SOL    HW228685  11.947   0.563   6.214
26616SOL     OW28686  14.149   2.509   7.971
26616SOL    HW128687  14.121   2.416   7.950
26616SOL    HW228688  14.130   2.528   8.067
26617SOL     OW28689  11.406  13.361   1.774
26617SOL    HW128690  11.331  13.394   1.717
26617SOL    HW228691  11.373  13.344   1.866
26618SOL     OW28692  11.985  11.432   7.489
26618SOL    HW128693  12.079  11.424   7.524
26618SOL    HW228694  11.964  11.352   7.433
26619SOL     OW28695  14.428  14.260   1.338
26619SOL    HW128696  14.412  14.202   1.258
26619SOL    HW228697  14.521  14.246   1.372
26620SOL     OW28698   4.201   7.396   1.440
26620SOL    HW128699   4.161   7.473   1.390
26620SOL    HW228700   4.152   7.312   1.416
26621SOL     OW28701   9.275  13.985   0.868
26621SOL    HW128702   9.302  13.945   0.955
26621SOL    HW228703   9.176  13.987   0.861
26622SOL     OW28704  12.935   4.765   0.428
26622SOL    HW128705  12.933   4.668   0.402
26622SOL    HW228706  12.968   4.773   0.523
26623SOL     OW28707  10.585   8.635   6.624
26623SOL    HW128708  10.683   8.656   6.630
26623SOL    HW228709  10.539   8.666   6.707
26624SOL     OW28710  12.894   0.978   6.349
26624SOL    HW128711  12.946   0.961   6.265
26624SOL    HW228712  12.899   1.075   6.373
26625SOL     OW28713  10.789   5.344   6.611
26625SOL    HW128714  10.845   5.377   6.688
26625SOL    HW228715  10.799   5.245   6.603
26626SOL     OW28716   8.594   4.287   7.963
26626SOL    HW128717   8.659   4.345   7.914
26626SOL    HW228718   8.504   4.294   7.918
26627SOL     OW28719  16.146   7.870   8.269
26627SOL    HW128720  16.139   7.930   8.349
26627SOL    HW228721  16.055   7.853   8.231
26628SOL     OW28722   8.340   4.336   7.832
26628SOL    HW128723   8.264   4.312   7.893
26628SOL    HW228724   8.313   4.321   7.737
26629SOL     OW28725   1.212   7.118   7.792
26629SOL    HW128726   1.279   7.189   7.770
26629SOL    HW228727   1.206   7.053   7.716
26630SOL     OW28728  13.344   4.756   0.341
26630SOL    HW128729  13.281   4.735   0.267
26630SOL    HW228730  13.435   4.773   0.304
26631SOL     OW28731   5.520   5.861   7.901
26631SOL    HW128732   5.545   5.780   7.954
26631SOL    HW228733   5.553   5.852   7.807
26632SOL     OW28734   1.101   4.770   0.120
26632SOL    HW128735   1.035   4.735   0.187
26632SOL    HW228736   1.194   4.758   0.155
26633SOL     OW28737   6.984   3.880   7.630
26633SOL    HW128738   6.917   3.897   7.558
26633SOL    HW228739   6.938   3.883   7.719
26634SOL     OW28740   6.267   7.265   0.441
26634SOL    HW128741   6.291   7.186   0.497
26634SOL    HW228742   6.183   7.306   0.477
26635SOL     OW28743   5.992   1.534   2.164
26635SOL    HW128744   6.082   1.502   2.134
26635SOL    HW228745   5.959   1.476   2.238
26636SOL     OW28746  16.080   1.784   7.161
26636SOL    HW128747  16.078   1.731   7.077
26636SOL    HW228748  16.175   1.796   7.191
26637SOL     OW28749  12.392   5.321   6.757
26637SOL    HW128750  12.382   5.295   6.853
26637SOL    HW228751  12.360   5.415   6.743
26638SOL     OW28752   6.739  14.437   7.450
26638SOL    HW128753   6.743  14.337   7.460
26638SOL    HW228754   6.645  14.468   7.465
26639SOL     OW28755  11.527  13.050   1.269
26639SOL    HW128756  11.446  13.022   1.320
26639SOL    HW228757  11.500  13.102   1.188
26640SOL     OW28758  10.094   3.106   0.384
26640SOL    HW128759  10.067   3.181   0.444
26640SOL    HW228760  10.145   3.038   0.436
26641SOL     OW28761  11.515  10.392   7.161
26641SOL    HW128762  11.581  10.412   7.233
26641SOL    HW228763  11.495  10.475   7.109
26642SOL     OW28764   3.937  14.092   6.586
26642SOL    HW128765   3.869  14.148   6.632
26642SOL    HW228766   3.903  14.066   6.495
26643SOL     OW28767   8.058  14.852   1.281
26643SOL    HW128768   8.064  14.768   1.227
26643SOL    HW228769   7.984  14.844   1.348
26644SOL     OW28770  10.321   2.240   6.284
26644SOL    HW128771  10.417   2.228   6.259
26644SOL    HW228772  10.268   2.262   6.202
26645SOL     OW28773   7.809  15.074   0.860
26645SOL    HW128774   7.907  15.070   0.878
26645SOL    HW228775   7.762  15.118   0.937
26646SOL     OW28776   4.132   7.034   7.287
26646SOL    HW128777   4.065   6.961   7.275
26646SOL    HW228778   4.171   7.059   7.199
26647SOL     OW28779  14.919   4.591   1.174
26647SOL    HW128780  14.946   4.670   1.229
26647SOL    HW228781  14.965   4.509   1.210
26648SOL     OW28782  11.950  12.145   0.997
26648SOL    HW128783  11.906  12.235   0.993
26648SOL    HW228784  11.944  12.110   1.090
26649SOL     OW28785  16.826   8.524   1.413
26649SOL    HW128786  16.780   8.565   1.335
26649SOL    HW228787  16.913   8.483   1.384
26650SOL     OW28788   6.914   4.883   8.163
26650SOL    HW128789   6.937   4.978   8.186
26650SOL    HW228790   6.896   4.832   8.247
26651SOL     OW28791   9.723  11.028   7.608
26651SOL    HW128792   9.663  11.089   7.659
26651SOL    HW228793   9.681  11.004   7.520
26652SOL     OW28794  14.112   9.489   1.929
26652SOL    HW128795  14.203   9.521   1.955
26652SOL    HW228796  14.045   9.519   1.997
26653SOL     OW28797  16.209  13.427   7.857
26653SOL    HW128798  16.290  13.485   7.867
26653SOL    HW228799  16.230  13.334   7.885
26654SOL     OW28800  12.101  11.902   0.187
26654SOL    HW128801  12.015  11.897   0.237
26654SOL    HW228802  12.169  11.952   0.241
26655SOL     OW28803  15.165   2.732   0.188
26655SOL    HW128804  15.177   2.718   0.287
26655SOL    HW228805  15.126   2.649   0.148
26656SOL     OW28806   3.885  10.181   2.137
26656SOL    HW128807   3.802  10.147   2.180
26656SOL    HW228808   3.964  10.130   2.172
26657SOL     OW28809   2.587   1.240   1.345
26657SOL    HW128810   2.615   1.160   1.292
26657SOL    HW228811   2.657   1.262   1.413
26658SOL     OW28812  12.673  16.972   6.866
26658SOL    HW128813  12.600   0.052   6.894
26658SOL    HW228814  12.661  16.884   6.913
26659SOL     OW28815  10.214   1.699   0.840
26659SOL    HW128816  10.211   1.599   0.841
26659SOL    HW228817  10.255   1.732   0.926
26660SOL     OW28818  12.183   8.064   7.766
26660SOL    HW128819  12.189   8.162   7.747
26660SOL    HW228820  12.245   8.041   7.842
26661SOL     OW28821   0.356   0.086   7.139
26661SOL    HW128822   0.329   0.076   7.234
26661SOL    HW228823   0.322   0.173   7.104
26662SOL     OW28824   0.039  13.207   0.440
26662SOL    HW128825   0.116  13.270   0.431
26662SOL    HW228826  16.942  13.245   0.394
26663SOL     OW28827   0.177  14.137   7.880
26663SOL    HW128828   0.123  14.220   7.865
26663SOL    HW228829   0.146  14.092   7.964
26664SOL     OW28830   8.109   4.298   7.984
26664SOL    HW128831   8.014   4.274   7.965
26664SOL    HW228832   8.113   4.392   8.019
26665SOL     OW28833   9.605   4.003   1.734
26665SOL    HW128834   9.659   3.919   1.744
26665SOL    HW228835   9.537   4.007   1.806
26666SOL     OW28836   6.733   4.844   7.957
26666SOL    HW128837   6.678   4.764   7.980
26666SOL    HW228838   6.798   4.862   8.030
26667SOL     OW28839   9.129   9.228   0.673
26667SOL    HW128840   9.177   9.156   0.723
26667SOL    HW228841   9.096   9.192   0.586
26668SOL     OW28842  16.658   4.478   0.623
26668SOL    HW128843  16.635   4.398   0.678
26668SOL    HW228844  16.740   4.522   0.659
26669SOL     OW28845   4.173  10.845   0.240
26669SOL    HW128846   4.233  10.819   0.164
26669SOL    HW228847   4.084  10.802   0.228
26670SOL     OW28848  14.737  16.033   8.119
26670SOL    HW128849  14.718  16.129   8.136
26670SOL    HW228850  14.786  16.023   8.032
26671SOL     OW28851  10.394  13.231   0.240
26671SOL    HW128852  10.306  13.213   0.284
26671SOL    HW228853  10.407  13.165   0.165
26672SOL     OW28854  10.176  12.408   0.501
26672SOL    HW128855  10.178  12.346   0.422
26672SOL    HW228856  10.249  12.476   0.491
26673SOL     OW28857   5.690  14.961   1.451
26673SOL    HW128858   5.697  15.057   1.476
26673SOL    HW228859   5.635  14.913   1.519
26674SOL     OW28860  11.420   5.531   0.835
26674SOL    HW128861  11.341   5.587   0.808
26674SOL    HW228862  11.484   5.587   0.887
26675SOL     OW28863  14.942  11.802   7.677
26675SOL    HW128864  14.909  11.757   7.593
26675SOL    HW228865  15.011  11.744   7.720
26676SOL     OW28866   0.108  16.673   1.189
26676SOL    HW128867   0.016  16.656   1.225
26676SOL    HW228868   0.170  16.601   1.221
26677SOL     OW28869   3.358  12.217   7.751
26677SOL    HW128870   3.398  12.141   7.701
26677SOL    HW228871   3.346  12.295   7.690
26678SOL     OW28872   3.984   1.426   7.553
26678SOL    HW128873   3.929   1.424   7.469
26678SOL    HW228874   3.928   1.398   7.630
26679SOL     OW28875  10.173  11.950   6.601
26679SOL    HW128876  10.145  11.892   6.677
26679SOL    HW228877  10.124  11.923   6.518
26680SOL     OW28878   4.342   0.905   2.693
26680SOL    HW128879   4.291   0.956   2.762
26680SOL    HW228880   4.391   0.830   2.737
26681SOL     OW28881   2.526   6.234   6.992
26681SOL    HW128882   2.557   6.173   7.065
26681SOL    HW228883   2.536   6.329   7.022
26682SOL     OW28884  11.290   7.165   1.493
26682SOL    HW128885  11.234   7.087   1.464
26682SOL    HW228886  11.354   7.188   1.420
26683SOL     OW28887   7.363  10.316   1.192
26683SOL    HW128888   7.329  10.223   1.197
26683SOL    HW228889   7.463  10.315   1.197
26684SOL     OW28890   8.425   0.481   1.703
26684SOL    HW128891   8.363   0.480   1.782
26684SOL    HW228892   8.376   0.518   1.624
26685SOL     OW28893   7.656   6.117   6.937
26685SOL    HW128894   7.682   6.023   6.958
26685SOL    HW228895   7.705   6.148   6.855
26686SOL     OW28896   5.763  11.914   0.627
26686SOL    HW128897   5.861  11.901   0.613
26686SOL    HW228898   5.732  11.856   0.703
26687SOL     OW28899  10.878   5.917   1.639
26687SOL    HW128900  10.946   5.860   1.593
26687SOL    HW228901  10.838   5.981   1.574
26688SOL     OW28902   9.594  14.465   0.607
26688SOL    HW128903   9.580  14.375   0.648
26688SOL    HW228904   9.520  14.484   0.543
26689SOL     OW28905   3.675  15.224   1.240
26689SOL    HW128906   3.693  15.322   1.245
26689SOL    HW228907   3.760  15.175   1.222
26690SOL     OW28908   1.516  12.787   0.675
26690SOL    HW128909   1.523  12.786   0.775
26690SOL    HW228910   1.420  12.787   0.649
26691SOL     OW28911  10.905   7.290   7.732
26691SOL    HW128912  10.859   7.232   7.799
26691SOL    HW228913  10.993   7.322   7.769
26692SOL     OW28914   6.824   6.984   7.233
26692SOL    HW128915   6.798   6.931   7.313
26692SOL    HW228916   6.898   7.047   7.257
26693SOL     OW28917   3.304   1.645   0.034
26693SOL    HW128918   3.373   1.690   8.432
26693SOL    HW228919   3.349   1.593   0.107
26694SOL     OW28920   6.700   0.892   7.305
26694SOL    HW128921   6.701   0.980   7.351
26694SOL    HW228922   6.686   0.819   7.372
26695SOL     OW28923  14.288  14.267   1.698
26695SOL    HW128924  14.280  14.316   1.612
26695SOL    HW228925  14.381  14.233   1.709
26696SOL     OW28926  15.746   7.635   0.779
26696SOL    HW128927  15.705   7.594   0.860
26696SOL    HW228928  15.707   7.594   0.697
26697SOL     OW28929  16.399  12.606   1.641
26697SOL    HW128930  16.377  12.662   1.561
26697SOL    HW228931  16.330  12.535   1.652
26698SOL     OW28932  11.629  11.899   8.025
26698SOL    HW128933  11.710  11.926   7.974
26698SOL    HW228934  11.639  11.805   8.057
26699SOL     OW28935   7.338  15.361   6.917
26699SOL    HW128936   7.432  15.395   6.912
26699SOL    HW228937   7.307  15.363   7.012
26700SOL     OW28938  10.756   4.972   8.204
26700SOL    HW128939  10.850   4.981   8.171
26700SOL    HW228940  10.711   5.061   8.201
26701SOL     OW28941   7.854   8.865   7.605
26701SOL    HW128942   7.823   8.956   7.576
26701SOL    HW228943   7.925   8.833   7.543
26702SOL     OW28944  13.896   4.473   7.791
26702SOL    HW128945  13.869   4.448   7.698
26702SOL    HW228946  13.968   4.542   7.787
26703SOL     OW28947   7.979   2.198   1.026
26703SOL    HW128948   8.049   2.220   1.094
26703SOL    HW228949   8.003   2.113   0.979
26704SOL     OW28950   9.520  14.473   7.226
26704SOL    HW128951   9.508  14.431   7.316
26704SOL    HW228952   9.572  14.412   7.166
26705SOL     OW28953   9.121  16.514   8.065
26705SOL    HW128954   9.205  16.519   8.119
26705SOL    HW228955   9.106  16.420   8.034
26706SOL     OW28956   2.367   7.290   8.138
26706SOL    HW128957   2.444   7.344   8.173
26706SOL    HW228958   2.281   7.327   8.174
26707SOL     OW28959   4.293   6.941   7.938
26707SOL    HW128960   4.291   7.040   7.953
26707SOL    HW228961   4.206   6.901   7.968
26708SOL     OW28962  11.779  14.221   0.429
26708SOL    HW128963  11.708  14.291   0.433
26708SOL    HW228964  11.737  14.130   0.427
26709SOL     OW28965   0.224   7.246   6.843
26709SOL    HW128966   0.306   7.292   6.877
26709SOL    HW228967   0.146   7.307   6.851
26710SOL     OW28968  14.619  11.022   8.297
26710SOL    HW128969  14.576  11.101   8.253
26710SOL    HW228970  14.589  11.018   8.392
26711SOL     OW28971  15.820   7.854   7.409
26711SOL    HW128972  15.815   7.939   7.461
26711SOL    HW228973  15.799   7.776   7.468
26712SOL     OW28974  11.949  16.692   7.176
26712SOL    HW128975  12.038  16.738   7.178
26712SOL    HW228976  11.961  16.598   7.145
26713SOL     OW28977   2.303  13.130   1.358
26713SOL    HW128978   2.208  13.110   1.336
26713SOL    HW228979   2.315  13.229   1.366
26714SOL     OW28980   5.186  12.186   0.282
26714SOL    HW128981   5.134  12.123   0.339
26714SOL    HW228982   5.255  12.233   0.337
26715SOL     OW28983  11.405   0.914   7.937
26715SOL    HW128984  11.310   0.938   7.958
26715SOL    HW228985  11.408   0.852   7.859
26716SOL     OW28986   1.505  14.111   6.373
26716SOL    HW128987   1.417  14.116   6.325
26716SOL    HW228988   1.507  14.181   6.445
26717SOL     OW28989   5.486  14.381   1.920
26717SOL    HW128990   5.494  14.481   1.919
26717SOL    HW228991   5.523  14.344   1.834
26718SOL     OW28992  12.336   5.254   5.780
26718SOL    HW128993  12.328   5.333   5.840
26718SOL    HW228994  12.245   5.216   5.762
26719SOL     OW28995   8.644   1.705   0.618
26719SOL    HW128996   8.725   1.689   0.675
26719SOL    HW228997   8.641   1.802   0.592
26720SOL     OW28998  12.733  10.034   0.734
26720SOL    HW128999  12.712   9.948   0.687
26720SOL    HW229000  12.655  10.060   0.792
26721SOL     OW29001   5.650   4.274   7.901
26721SOL    HW129002   5.696   4.247   7.985
26721SOL    HW229003   5.700   4.350   7.859
26722SOL     OW29004  12.330   1.777   5.812
26722SOL    HW129005  12.236   1.800   5.838
26722SOL    HW229006  12.346   1.806   5.718
26723SOL     OW29007  14.063   5.887   8.032
26723SOL    HW129008  14.016   5.805   8.066
26723SOL    HW229009  14.160   5.882   8.055
26724SOL     OW29010  10.615  11.851   7.526
26724SOL    HW129011  10.536  11.810   7.570
26724SOL    HW229012  10.648  11.791   7.454
26725SOL     OW29013  13.137  16.152   8.035
26725SOL    HW129014  13.194  16.208   8.095
26725SOL    HW229015  13.091  16.082   8.089
26726SOL     OW29016   7.725   6.465   1.693
26726SOL    HW129017   7.673   6.512   1.764
26726SOL    HW229018   7.742   6.371   1.720
26727SOL     OW29019   1.101   9.406   7.860
26727SOL    HW129020   1.121   9.501   7.884
26727SOL    HW229021   1.039   9.403   7.782
26728SOL     OW29022   3.587   8.579   7.991
26728SOL    HW129023   3.560   8.525   8.071
26728SOL    HW229024   3.506   8.621   7.949
26729SOL     OW29025  14.091   0.864   6.342
26729SOL    HW129026  14.060   0.934   6.406
26729SOL    HW229027  14.185   0.838   6.364
26730SOL     OW29028   3.298  11.369   0.175
26730SOL    HW129029   3.383  11.318   0.158
26730SOL    HW229030   3.320  11.462   0.204
26731SOL     OW29031  15.786   3.770   0.401
26731SOL    HW129032  15.714   3.700   0.410
26731SOL    HW229033  15.874   3.729   0.423
26732SOL     OW29034  14.284   7.590   5.927
26732SOL    HW129035  14.252   7.498   5.907
26732SOL    HW229036  14.384   7.590   5.933
26733SOL     OW29037   2.834  15.402   2.926
26733SOL    HW129038   2.780  15.461   2.866
26733SOL    HW229039   2.830  15.437   3.019
26734SOL     OW29040  10.149   2.713   1.224
26734SOL    HW129041  10.199   2.749   1.303
26734SOL    HW229042  10.178   2.761   1.141
26735SOL     OW29043   7.412   0.383   6.867
26735SOL    HW129044   7.448   0.399   6.775
26735SOL    HW229045   7.347   0.308   6.865
26736SOL     OW29046   8.690   8.556   0.865
26736SOL    HW129047   8.641   8.564   0.778
26736SOL    HW229048   8.677   8.464   0.902
26737SOL     OW29049   4.337  10.175   8.163
26737SOL    HW129050   4.334  10.077   8.183
26737SOL    HW229051   4.403  10.192   8.090
26738SOL     OW29052  11.966  10.176   7.662
26738SOL    HW129053  11.899  10.176   7.587
26738SOL    HW229054  11.936  10.115   7.734
26739SOL     OW29055  13.578  12.638   7.765
26739SOL    HW129056  13.582  12.651   7.666
26739SOL    HW229057  13.663  12.669   7.806
26740SOL     OW29058   1.710  16.764   6.953
26740SOL    HW129059   1.733  16.787   6.858
26740SOL    HW229060   1.773  16.810   7.015
26741SOL     OW29061   2.483  11.816   7.389
26741SOL    HW129062   2.390  11.788   7.411
26741SOL    HW229063   2.523  11.865   7.466
26742SOL     OW29064  14.869   7.089   0.754
26742SOL    HW129065  14.864   7.102   0.655
26742SOL    HW229066  14.782   7.054   0.788
26743SOL     OW29067  16.313  10.907   8.089
26743SOL    HW129068  16.248  10.901   8.164
26743SOL    HW229069  16.398  10.862   8.115
26744SOL     OW29070  15.941   3.895   6.234
26744SOL    HW129071  15.906   3.917   6.142
26744SOL    HW229072  15.870   3.912   6.302
26745SOL     OW29073  13.855  16.650   1.636
26745SOL    HW129074  13.818  16.736   1.600
26745SOL    HW229075  13.905  16.669   1.721
26746SOL     OW29076   0.637   0.553   7.446
26746SOL    HW129077   0.571   0.615   7.488
26746SOL    HW229078   0.727   0.597   7.443
26747SOL     OW29079  10.954  16.549   8.182
26747SOL    HW129080  11.044  16.510   8.200
26747SOL    HW229081  10.884  16.492   8.224
26748SOL     OW29082   6.634   9.944   6.905
26748SOL    HW129083   6.620   9.896   6.818
26748SOL    HW229084   6.610   9.884   6.981
26749SOL     OW29085  14.932   8.432   1.038
26749SOL    HW129086  14.842   8.474   1.051
26749SOL    HW229087  15.003   8.502   1.042
26750SOL     OW29088   6.685  12.925   6.138
26750SOL    HW129089   6.660  13.011   6.094
26750SOL    HW229090   6.740  12.869   6.075
26751SOL     OW29091   7.372   8.104   0.087
26751SOL    HW129092   7.305   8.151   0.144
26751SOL    HW229093   7.340   8.010   0.070
26752SOL     OW29094  12.051   3.557   5.761
26752SOL    HW129095  11.975   3.524   5.817
26752SOL    HW229096  12.052   3.509   5.674
26753SOL     OW29097   3.088   2.995   0.860
26753SOL    HW129098   3.048   3.032   0.943
26753SOL    HW229099   3.016   2.964   0.798
26754SOL     OW29100   2.286   9.711   7.362
26754SOL    HW129101   2.321   9.709   7.268
26754SOL    HW229102   2.208   9.774   7.367
26755SOL     OW29103   8.691  11.993   1.273
26755SOL    HW129104   8.639  11.925   1.325
26755SOL    HW229105   8.658  11.996   1.179
26756SOL     OW29106   6.385  11.398   2.215
26756SOL    HW129107   6.334  11.316   2.188
26756SOL    HW229108   6.389  11.403   2.315
26757SOL     OW29109  10.536   4.750   0.448
26757SOL    HW129110  10.589   4.665   0.445
26757SOL    HW229111  10.596   4.828   0.431
26758SOL     OW29112   2.478  12.999   0.903
26758SOL    HW129113   2.529  13.023   0.986
26758SOL    HW229114   2.542  12.975   0.830
26759SOL     OW29115  11.013   2.978   1.960
26759SOL    HW129116  11.058   2.907   2.015
26759SOL    HW229117  10.977   3.048   2.022
26760SOL     OW29118   9.642  12.724   0.010
26760SOL    HW129119   9.629  12.822   0.025
26760SOL    HW229120   9.678  12.681   0.093
26761SOL     OW29121   5.839   1.632   0.885
26761SOL    HW129122   5.865   1.726   0.862
26761SOL    HW229123   5.834   1.623   0.985
26762SOL     OW29124   2.439  12.630   0.513
26762SOL    HW129125   2.346  12.605   0.541
26762SOL    HW229126   2.438  12.657   0.416
26763SOL     OW29127   9.793   4.204   1.720
26763SOL    HW129128   9.752   4.287   1.757
26763SOL    HW229129   9.727   4.129   1.725
26764SOL     OW29130  12.230   5.669   5.610
26764SOL    HW129131  12.161   5.741   5.602
26764SOL    HW229132  12.196   5.584   5.569
26765SOL     OW29133   6.463  13.864   6.985
26765SOL    HW129134   6.433  13.944   7.037
26765SOL    HW229135   6.558  13.843   7.007
26766SOL     OW29136   8.140  15.783   7.359
26766SOL    HW129137   8.064  15.773   7.295
26766SOL    HW229138   8.139  15.875   7.399
26767SOL     OW29139  16.149   9.222   7.992
26767SOL    HW129140  16.146   9.151   7.922
26767SOL    HW229141  16.242   9.227   8.030
26768SOL     OW29142  15.906   1.066   7.733
26768SOL    HW129143  15.951   1.117   7.806
26768SOL    HW229144  15.974   1.040   7.664
26769SOL     OW29145  14.795  11.443   6.872
26769SOL    HW129146  14.756  11.365   6.921
26769SOL    HW229147  14.736  11.466   6.794
26770SOL     OW29148   9.039  16.708   0.932
26770SOL    HW129149   9.115  16.677   0.875
26770SOL    HW229150   8.997  16.630   0.978
26771SOL     OW29151   9.995   7.213   1.321
26771SOL    HW129152   9.907   7.170   1.342
26771SOL    HW229153  10.044   7.231   1.405
26772SOL     OW29154   8.776   7.023   0.555
26772SOL    HW129155   8.844   7.076   0.605
26772SOL    HW229156   8.803   7.015   0.459
26773SOL     OW29157  13.119   0.442   8.224
26773SOL    HW129158  13.054   0.501   8.175
26773SOL    HW229159  13.148   0.486   8.308
26774SOL     OW29160   9.842   5.657   7.153
26774SOL    HW129161   9.760   5.693   7.109
26774SOL    HW229162   9.864   5.567   7.114
26775SOL     OW29163   1.724  10.625   1.098
26775SOL    HW129164   1.671  10.620   1.182
26775SOL    HW229165   1.664  10.605   1.020
26776SOL     OW29166  16.430   4.082   6.747
26776SOL    HW129167  16.379   4.005   6.783
26776SOL    HW229168  16.399   4.102   6.654
26777SOL     OW29169   4.793  10.002   2.044
26777SOL    HW129170   4.848  10.021   1.963
26777SOL    HW229171   4.771   9.905   2.048
26778SOL     OW29172  15.404   7.595   0.646
26778SOL    HW129173  15.494   7.559   0.621
26778SOL    HW229174  15.336   7.523   0.640
26779SOL     OW29175   7.292  13.295   0.941
26779SOL    HW129176   7.316  13.338   1.028
26779SOL    HW229177   7.361  13.226   0.918
26780SOL     OW29178  12.541   2.475   0.862
26780SOL    HW129179  12.449   2.448   0.891
26780SOL    HW229180  12.545   2.574   0.852
26781SOL     OW29181   5.443   0.484   1.267
26781SOL    HW129182   5.508   0.500   1.193
26781SOL    HW229183   5.475   0.529   1.350
26782SOL     OW29184  13.737  10.229   8.119
26782SOL    HW129185  13.775  10.174   8.193
26782SOL    HW229186  13.808  10.290   8.083
26783SOL     OW29187  16.136   1.799   7.635
26783SOL    HW129188  16.081   1.754   7.565
26783SOL    HW229189  16.228   1.817   7.600
26784SOL     OW29190  14.244   7.622   0.475
26784SOL    HW129191  14.310   7.656   0.409
26784SOL    HW229192  14.243   7.522   0.473
26785SOL     OW29193   5.114  11.751   0.874
26785SOL    HW129194   5.155  11.839   0.849
26785SOL    HW229195   5.050  11.765   0.951
26786SOL     OW29196   4.152  10.348   8.252
26786SOL    HW129197   4.063  10.305   8.237
26786SOL    HW229198   4.224  10.286   8.222
26787SOL     OW29199   0.270   3.524   0.934
26787SOL    HW129200   0.180   3.542   0.895
26787SOL    HW229201   0.309   3.609   0.970
26788SOL     OW29202   0.725   1.797   2.089
26788SOL    HW129203   0.763   1.793   2.181
26788SOL    HW229204   0.686   1.709   2.064
26789SOL     OW29205   4.672  16.584   8.184
26789SOL    HW129206   4.578  16.571   8.215
26789SOL    HW229207   4.686  16.681   8.160
26790SOL     OW29208   6.964   6.391   5.952
26790SOL    HW129209   7.002   6.313   5.902
26790SOL    HW229210   6.896   6.438   5.896
26791SOL     OW29211  14.777  12.357   1.781
26791SOL    HW129212  14.726  12.441   1.762
26791SOL    HW229213  14.872  12.379   1.800
26792SOL     OW29214  16.731   1.937   8.454
26792SOL    HW129215  16.725   1.837   0.006
26792SOL    HW229216  16.648   1.973   8.409
26793SOL     OW29217  16.650  13.247   7.453
26793SOL    HW129218  16.555  13.272   7.435
26793SOL    HW229219  16.711  13.301   7.396
26794SOL     OW29220   7.510  10.771   7.062
26794SOL    HW129221   7.412  10.751   7.069
26794SOL    HW229222   7.524  10.870   7.064
26795SOL     OW29223  15.961  13.461   1.366
26795SOL    HW129224  15.927  13.384   1.312
26795SOL    HW229225  15.889  13.492   1.428
26796SOL     OW29226  13.026   5.447   5.840
26796SOL    HW129227  12.954   5.506   5.877
26796SOL    HW229228  12.996   5.351   5.846
26797SOL     OW29229   9.083   5.733   0.462
26797SOL    HW129230   9.028   5.652   0.443
26797SOL    HW229231   9.180   5.712   0.448
26798SOL     OW29232   5.039   5.369   1.297
26798SOL    HW129233   5.098   5.446   1.322
26798SOL    HW229234   5.095   5.291   1.271
26799SOL     OW29235   0.996  16.128   7.695
26799SOL    HW129236   0.916  16.123   7.634
26799SOL    HW229237   1.075  16.162   7.644
26800SOL     OW29238  14.469  16.200   2.190
26800SOL    HW129239  14.394  16.188   2.254
26800SOL    HW229240  14.506  16.292   2.198
26801SOL     OW29241   1.476  14.869   0.921
26801SOL    HW129242   1.461  14.881   1.019
26801SOL    HW229243   1.394  14.831   0.879
26802SOL     OW29244   7.614   7.400   1.961
26802SOL    HW129245   7.674   7.328   1.929
26802SOL    HW229246   7.622   7.409   2.061
26803SOL     OW29247   7.839   4.885   6.568
26803SOL    HW129248   7.816   4.982   6.559
26803SOL    HW229249   7.755   4.833   6.588
26804SOL     OW29250  12.484   7.633   8.274
26804SOL    HW129251  12.390   7.666   8.288
26804SOL    HW229252  12.548   7.709   8.279
26805SOL     OW29253   8.151   5.644   7.912
26805SOL    HW129254   8.153   5.682   7.820
26805SOL    HW229255   8.234   5.590   7.927
26806SOL     OW29256   5.704   9.674   0.027
26806SOL    HW129257   5.784   9.733   0.030
26806SOL    HW229258   5.716   9.607   8.408
26807SOL     OW29259  14.465  12.628   0.590
26807SOL    HW129260  14.495  12.639   0.495
26807SOL    HW229261  14.457  12.530   0.611
26808SOL     OW29262  11.784   3.794   0.492
26808SOL    HW129263  11.851   3.796   0.419
26808SOL    HW229264  11.788   3.707   0.540
26809SOL     OW29265  16.236  11.694   1.365
26809SOL    HW129266  16.277  11.746   1.291
26809SOL    HW229267  16.307  11.667   1.430
26810SOL     OW29268   6.511   7.469   6.489
26810SOL    HW129269   6.603   7.506   6.497
26810SOL    HW229270   6.465   7.509   6.409
26811SOL     OW29271   6.941   5.568   6.884
26811SOL    HW129272   6.996   5.484   6.889
26811SOL    HW229273   6.979   5.637   6.946
26812SOL     OW29274  10.467   6.269   0.248
26812SOL    HW129275  10.489   6.215   0.167
26812SOL    HW229276  10.378   6.313   0.235
26813SOL     OW29277  10.961   2.881   0.767
26813SOL    HW129278  11.040   2.820   0.765
26813SOL    HW229279  10.971   2.946   0.843
26814SOL     OW29280   6.370  13.467   0.574
26814SOL    HW129281   6.300  13.422   0.630
26814SOL    HW229282   6.381  13.417   0.488
26815SOL     OW29283   3.042  12.894   1.837
26815SOL    HW129284   3.084  12.983   1.823
26815SOL    HW229285   3.048  12.869   1.934
26816SOL     OW29286   7.724  15.627   0.742
26816SOL    HW129287   7.716  15.537   0.786
26816SOL    HW229288   7.698  15.619   0.645
26817SOL     OW29289  15.438   9.255   1.458
26817SOL    HW129290  15.508   9.198   1.502
26817SOL    HW229291  15.386   9.303   1.529
26818SOL     OW29292  15.233  15.569   5.976
26818SOL    HW129293  15.208  15.647   5.918
26818SOL    HW229294  15.158  15.504   5.978
26819SOL     OW29295   1.488  16.286   1.493
26819SOL    HW129296   1.449  16.210   1.543
26819SOL    HW229297   1.551  16.252   1.423
26820SOL     OW29298   5.001  11.301   0.780
26820SOL    HW129299   4.928  11.348   0.829
26820SOL    HW229300   5.062  11.368   0.738
26821SOL     OW29301  10.912   6.947   8.137
26821SOL    HW129302  10.869   6.857   8.137
26821SOL    HW229303  10.998   6.943   8.189
26822SOL     OW29304   8.804   9.463   1.745
26822SOL    HW129305   8.841   9.547   1.787
26822SOL    HW229306   8.765   9.405   1.817
26823SOL     OW29307  16.498   6.812   1.002
26823SOL    HW129308  16.542   6.771   1.082
26823SOL    HW229309  16.479   6.908   1.019
26824SOL     OW29310  12.047   9.816   7.374
26824SOL    HW129311  11.988   9.737   7.383
26824SOL    HW229312  12.102   9.827   7.457
26825SOL     OW29313   9.155   9.693   0.547
26825SOL    HW129314   9.208   9.701   0.632
26825SOL    HW229315   9.099   9.775   0.536
26826SOL     OW29316  12.934   8.400   0.623
26826SOL    HW129317  12.985   8.481   0.595
26826SOL    HW229318  12.878   8.422   0.703
26827SOL     OW29319   5.750   0.206   6.952
26827SOL    HW129320   5.848   0.189   6.942
26827SOL    HW229321   5.724   0.285   6.898
26828SOL     OW29322   8.039   6.549   2.400
26828SOL    HW129323   8.003   6.481   2.463
26828SOL    HW229324   8.107   6.506   2.340
26829SOL     OW29325   0.200  12.745   2.197
26829SOL    HW129326   0.202  12.829   2.251
26829SOL    HW229327   0.294  12.712   2.184
26830SOL     OW29328   4.439   7.743   7.116
26830SOL    HW129329   4.459   7.838   7.140
26830SOL    HW229330   4.472   7.725   7.023
26831SOL     OW29331  10.074   2.339   1.844
26831SOL    HW129332  10.135   2.383   1.910
26831SOL    HW229333  10.125   2.318   1.761
26832SOL     OW29334   7.080   9.621   1.634
26832SOL    HW129335   7.087   9.668   1.546
26832SOL    HW229336   6.996   9.650   1.681
26833SOL     OW29337  16.551  14.623   0.663
26833SOL    HW129338  16.563  14.543   0.721
26833SOL    HW229339  16.561  14.707   0.717
26834SOL     OW29340   8.192  10.644   7.113
26834SOL    HW129341   8.167  10.731   7.069
26834SOL    HW229342   8.166  10.568   7.054
26835SOL     OW29343  15.165  14.355   8.288
26835SOL    HW129344  15.138  14.418   8.215
26835SOL    HW229345  15.083  14.319   8.333
26836SOL     OW29346   1.956   3.846   6.964
26836SOL    HW129347   2.005   3.879   6.883
26836SOL    HW229348   1.900   3.767   6.940
26837SOL     OW29349  15.667  11.373   6.643
26837SOL    HW129350  15.606  11.319   6.584
26837SOL    HW229351  15.762  11.358   6.615
26838SOL     OW29352   4.813   4.578   6.585
26838SOL    HW129353   4.875   4.640   6.537
26838SOL    HW229354   4.866   4.514   6.641
26839SOL     OW29355   8.862   2.910   1.380
26839SOL    HW129356   8.958   2.932   1.398
26839SOL    HW229357   8.808   2.927   1.463
26840SOL     OW29358  15.645   8.685   0.244
26840SOL    HW129359  15.713   8.645   0.306
26840SOL    HW229360  15.692   8.724   0.165
26841SOL     OW29361   5.948  10.003   2.387
26841SOL    HW129362   5.968  10.051   2.473
26841SOL    HW229363   5.937   9.905   2.405
26842SOL     OW29364   7.893  11.360   0.822
26842SOL    HW129365   7.850  11.271   0.810
26842SOL    HW229366   7.867  11.399   0.910
26843SOL     OW29367  15.375   0.542   6.865
26843SOL    HW129368  15.309   0.610   6.830
26843SOL    HW229369  15.359   0.527   6.962
26844SOL     OW29370  10.665  11.468   7.597
26844SOL    HW129371  10.721  11.391   7.628
26844SOL    HW229372  10.725  11.544   7.572
26845SOL     OW29373   4.063  16.548   7.159
26845SOL    HW129374   4.140  16.609   7.145
26845SOL    HW229375   3.990  16.570   7.095
26846SOL     OW29376   1.430  10.634   6.692
26846SOL    HW129377   1.404  10.554   6.638
26846SOL    HW229378   1.425  10.716   6.634
26847SOL     OW29379  10.013  13.797   2.079
26847SOL    HW129380  10.047  13.785   2.172
26847SOL    HW229381   9.969  13.887   2.071
26848SOL     OW29382   7.475  14.858   0.961
26848SOL    HW129383   7.551  14.847   0.897
26848SOL    HW229384   7.407  14.920   0.922
26849SOL     OW29385   3.650  13.654   7.151
26849SOL    HW129386   3.628  13.596   7.073
26849SOL    HW229387   3.744  13.687   7.142
26850SOL     OW29388  10.252   2.913   0.515
26850SOL    HW129389  10.352   2.916   0.517
26850SOL    HW229390  10.222   2.844   0.449
26851SOL     OW29391   1.554  16.870   2.253
26851SOL    HW129392   1.560  16.962   2.294
26851SOL    HW229393   1.566  16.801   2.325
26852SOL     OW29394   6.291  11.764   0.998
26852SOL    HW129395   6.305  11.855   0.959
26852SOL    HW229396   6.380  11.725   1.023
26853SOL     OW29397   3.760  10.117   7.301
26853SOL    HW129398   3.673  10.096   7.256
26853SOL    HW229399   3.757  10.088   7.396
26854SOL     OW29400   2.002   8.165   6.596
26854SOL    HW129401   2.075   8.219   6.556
26854SOL    HW229402   1.938   8.135   6.525
26855SOL     OW29403  16.905   3.823   8.256
26855SOL    HW129404  16.825   3.883   8.247
26855SOL    HW229405  16.879   3.730   8.234
26856SOL     OW29406  10.790  10.540   0.906
26856SOL    HW129407  10.765  10.612   0.971
26856SOL    HW229408  10.824  10.582   0.821
26857SOL     OW29409   5.255   0.775   7.946
26857SOL    HW129410   5.233   0.715   8.023
26857SOL    HW229411   5.332   0.833   7.969
26858SOL     OW29412  13.042   0.532   7.296
26858SOL    HW129413  13.030   0.617   7.347
26858SOL    HW229414  12.953   0.494   7.272
26859SOL     OW29415   4.866   0.774   6.632
26859SOL    HW129416   4.881   0.782   6.533
26859SOL    HW229417   4.942   0.815   6.681
26860SOL     OW29418   8.546   7.894   0.455
26860SOL    HW129419   8.471   7.951   0.423
26860SOL    HW229420   8.625   7.953   0.476
26861SOL     OW29421   9.467  11.960   7.890
26861SOL    HW129422   9.493  11.919   7.802
26861SOL    HW229423   9.380  12.007   7.879
26862SOL     OW29424   2.805   5.577   1.014
26862SOL    HW129425   2.893   5.600   0.975
26862SOL    HW229426   2.789   5.633   1.096
26863SOL     OW29427   5.228   8.981   7.535
26863SOL    HW129428   5.254   9.027   7.449
26863SOL    HW229429   5.133   9.003   7.557
26864SOL     OW29430  13.811  16.904   1.512
26864SOL    HW129431  13.787  16.933   1.605
26864SOL    HW229432  13.737  16.927   1.449
26865SOL     OW29433  10.594   3.948   7.467
26865SOL    HW129434  10.589   3.940   7.367
26865SOL    HW229435  10.672   3.894   7.500
26866SOL     OW29436  16.057   4.083   1.755
26866SOL    HW129437  16.046   4.124   1.845
26866SOL    HW229438  16.152   4.091   1.726
26867SOL     OW29439  15.440   0.929   0.983
26867SOL    HW129440  15.352   0.921   1.029
26867SOL    HW229441  15.466   0.841   0.944
26868SOL     OW29442  15.280   4.335   6.078
26868SOL    HW129443  15.344   4.411   6.065
26868SOL    HW229444  15.298   4.264   6.010
26869SOL     OW29445   4.124  13.939   1.877
26869SOL    HW129446   4.199  13.948   1.943
26869SOL    HW229447   4.161  13.925   1.785
26870SOL     OW29448   9.771   6.272   7.591
26870SOL    HW129449   9.868   6.258   7.607
26870SOL    HW229450   9.741   6.217   7.513
26871SOL     OW29451  11.490   0.612   1.803
26871SOL    HW129452  11.464   0.696   1.756
26871SOL    HW229453  11.582   0.585   1.776
26872SOL     OW29454   9.243   4.565   7.601
26872SOL    HW129455   9.216   4.505   7.526
26872SOL    HW229456   9.340   4.552   7.621
26873SOL     OW29457   9.692  16.706   6.803
26873SOL    HW129458   9.787  16.675   6.801
26873SOL    HW229459   9.667  16.741   6.712
26874SOL     OW29460   5.920   8.813   0.194
26874SOL    HW129461   5.980   8.783   0.269
26874SOL    HW229462   5.860   8.738   0.168
26875SOL     OW29463   6.861  16.582   6.901
26875SOL    HW129464   6.952  16.581   6.860
26875SOL    HW229465   6.856  16.513   6.973
26876SOL     OW29466   1.072   2.254   8.204
26876SOL    HW129467   1.071   2.348   8.239
26876SOL    HW229468   1.161   2.235   8.162
26877SOL     OW29469   4.992  13.529   0.751
26877SOL    HW129470   5.033  13.445   0.787
26877SOL    HW229471   5.026  13.546   0.658
26878SOL     OW29472  15.076  10.285   0.395
26878SOL    HW129473  15.151  10.261   0.456
26878SOL    HW229474  14.991  10.290   0.447
26879SOL     OW29475  12.465  16.519   7.302
26879SOL    HW129476  12.438  16.430   7.338
26879SOL    HW229477  12.460  16.588   7.374
26880SOL     OW29478  12.450   7.768   7.246
26880SOL    HW129479  12.496   7.724   7.169
26880SOL    HW229480  12.391   7.702   7.292
26881SOL     OW29481  12.969   8.187   1.152
26881SOL    HW129482  13.007   8.215   1.241
26881SOL    HW229483  12.971   8.265   1.090
26882SOL     OW29484  16.292  13.398   8.326
26882SOL    HW129485  16.235  13.434   8.252
26882SOL    HW229486  16.278  13.299   8.334
26883SOL     OW29487   5.186   8.718   7.479
26883SOL    HW129488   5.184   8.659   7.560
26883SOL    HW229489   5.206   8.812   7.506
26884SOL     OW29490  10.032   1.242   1.270
26884SOL    HW129491  10.024   1.150   1.308
26884SOL    HW229492   9.942   1.273   1.240
26885SOL     OW29493  16.595   9.328   7.498
26885SOL    HW129494  16.686   9.321   7.538
26885SOL    HW229495  16.602   9.334   7.398
26886SOL     OW29496   4.356   5.922   6.457
26886SOL    HW129497   4.404   5.968   6.382
26886SOL    HW229498   4.259   5.945   6.453
26887SOL     OW29499   2.065   2.485   2.065
26887SOL    HW129500   2.148   2.538   2.084
26887SOL    HW229501   2.014   2.472   2.150
26888SOL     OW29502  15.735   1.465   8.058
26888SOL    HW129503  15.718   1.420   8.146
26888SOL    HW229504  15.661   1.528   8.038
26889SOL     OW29505   0.750   3.280   1.472
26889SOL    HW129506   0.697   3.359   1.501
26889SOL    HW229507   0.846   3.305   1.461
26890SOL     OW29508   1.507  11.104   0.136
26890SOL    HW129509   1.545  11.073   0.049
26890SOL    HW229510   1.465  11.194   0.124
26891SOL     OW29511   0.517  16.934   8.092
26891SOL    HW129512   0.421  16.916   8.116
26891SOL    HW229513   0.520   0.024   8.024
26892SOL     OW29514   4.630   7.081   1.833
26892SOL    HW129515   4.582   7.043   1.911
26892SOL    HW229516   4.696   7.150   1.864
26893SOL     OW29517   8.754  13.668   7.772
26893SOL    HW129518   8.693  13.721   7.713
26893SOL    HW229519   8.706  13.646   7.857
26894SOL     OW29520  10.883   1.796   6.758
26894SOL    HW129521  10.850   1.816   6.666
26894SOL    HW229522  10.933   1.876   6.793
26895SOL     OW29523  10.518  16.605   1.639
26895SOL    HW129524  10.511  16.610   1.738
26895SOL    HW229525  10.463  16.679   1.598
26896SOL     OW29526   4.617   8.493   7.912
26896SOL    HW129527   4.605   8.510   8.010
26896SOL    HW229528   4.571   8.408   7.886
26897SOL     OW29529  12.298  14.617   1.365
26897SOL    HW129530  12.223  14.556   1.341
26897SOL    HW229531  12.376  14.599   1.305
26898SOL     OW29532   0.581   2.666   7.135
26898SOL    HW129533   0.561   2.694   7.229
26898SOL    HW229534   0.663   2.608   7.134
26899SOL     OW29535   6.093   7.448   0.785
26899SOL    HW129536   6.144   7.532   0.801
26899SOL    HW229537   6.135   7.373   0.835
26900SOL     OW29538   0.150   3.429   0.408
26900SOL    HW129539   0.095   3.420   0.491
26900SOL    HW229540   0.235   3.477   0.429
26901SOL     OW29541   6.406  10.386   7.601
26901SOL    HW129542   6.378  10.323   7.674
26901SOL    HW229543   6.505  10.401   7.606
26902SOL     OW29544  12.936  15.696   8.268
26902SOL    HW129545  12.864  15.666   8.205
26902SOL    HW229546  12.991  15.618   8.295
26903SOL     OW29547  10.483  10.674   6.495
26903SOL    HW129548  10.484  10.619   6.411
26903SOL    HW229549  10.544  10.752   6.484
26904SOL     OW29550   1.974  13.998   8.001
26904SOL    HW129551   2.071  13.998   8.024
26904SOL    HW229552   1.961  14.033   7.909
26905SOL     OW29553   8.802   2.581   6.592
26905SOL    HW129554   8.791   2.629   6.505
26905SOL    HW229555   8.775   2.485   6.582
26906SOL     OW29556  16.939   7.788   8.307
26906SOL    HW129557  16.972   7.728   8.380
26906SOL    HW229558  16.936   7.883   8.340
26907SOL     OW29559  10.533   0.435   1.623
26907SOL    HW129560  10.616   0.452   1.570
26907SOL    HW229561  10.547   0.464   1.718
26908SOL     OW29562   8.954   6.672   7.268
26908SOL    HW129563   9.004   6.748   7.227
26908SOL    HW229564   9.006   6.637   7.346
26909SOL     OW29565  10.832   5.123   6.386
26909SOL    HW129566  10.758   5.150   6.324
26909SOL    HW229567  10.900   5.196   6.390
26910SOL     OW29568   7.649  16.424   0.131
26910SOL    HW129569   7.601  16.491   0.076
26910SOL    HW229570   7.746  16.448   0.136
26911SOL     OW29571  16.316   5.085   7.775
26911SOL    HW129572  16.391   5.041   7.725
26911SOL    HW229573  16.248   5.119   7.709
26912SOL     OW29574  11.077  16.670   7.120
26912SOL    HW129575  11.171  16.697   7.097
26912SOL    HW229576  11.025  16.752   7.144
26913SOL     OW29577   3.139   2.892   1.471
26913SOL    HW129578   3.112   2.967   1.411
26913SOL    HW229579   3.233   2.904   1.501
26914SOL     OW29580  16.092   6.563   1.352
26914SOL    HW129581  16.064   6.659   1.364
26914SOL    HW229582  16.122   6.526   1.440
26915SOL     OW29583  15.960  14.896   2.276
26915SOL    HW129584  15.949  14.990   2.307
26915SOL    HW229585  15.988  14.838   2.352
26916SOL     OW29586   9.566  14.182   6.400
26916SOL    HW129587   9.515  14.128   6.334
26916SOL    HW229588   9.611  14.259   6.354
26917SOL     OW29589  11.677   2.539   1.303
26917SOL    HW129590  11.598   2.493   1.344
26917SOL    HW229591  11.647   2.598   1.228
26918SOL     OW29592   8.098  12.947   8.318
26918SOL    HW129593   8.086  12.961   8.220
26918SOL    HW229594   8.193  12.966   8.343
26919SOL     OW29595   3.123   1.224   7.120
26919SOL    HW129596   3.129   1.124   7.129
26919SOL    HW229597   3.031   1.254   7.144
26920SOL     OW29598  13.552  11.898   0.187
26920SOL    HW129599  13.616  11.965   0.223
26920SOL    HW229600  13.469  11.898   0.242
26921SOL     OW29601  15.009   5.484   6.870
26921SOL    HW129602  14.921   5.454   6.833
26921SOL    HW229603  15.018   5.583   6.857
26922SOL     OW29604  16.405  13.344   7.379
26922SOL    HW129605  16.377  13.439   7.363
26922SOL    HW229606  16.337  13.298   7.435
26923SOL     OW29607  12.966   9.449   7.370
26923SOL    HW129608  12.867   9.463   7.377
26923SOL    HW229609  12.989   9.358   7.406
26924SOL     OW29610   9.702  13.477   0.304
26924SOL    HW129611   9.635  13.433   0.245
26924SOL    HW229612   9.675  13.571   0.321
26925SOL     OW29613  10.831   6.684   8.133
26925SOL    HW129614  10.850   6.604   8.190
26925SOL    HW229615  10.750   6.666   8.077
26926SOL     OW29616   1.891  13.116   0.341
26926SOL    HW129617   1.930  13.040   0.394
26926SOL    HW229618   1.843  13.080   0.261
26927SOL     OW29619  16.203  14.853   1.255
26927SOL    HW129620  16.242  14.932   1.207
26927SOL    HW229621  16.115  14.879   1.295
26928SOL     OW29622  12.306  10.335   0.073
26928SOL    HW129623  12.304  10.378   8.437
26928SOL    HW229624  12.251  10.251   0.071
26929SOL     OW29625   4.069  14.273   1.821
26929SOL    HW129626   4.084  14.199   1.887
26929SOL    HW229627   4.022  14.349   1.867
26930SOL     OW29628   6.459   0.644   0.318
26930SOL    HW129629   6.417   0.695   0.393
26930SOL    HW229630   6.421   0.676   0.231
26931SOL     OW29631   2.152   2.858   0.519
26931SOL    HW129632   2.075   2.798   0.500
26931SOL    HW229633   2.118   2.946   0.554
26932SOL     OW29634   0.362  13.739   7.008
26932SOL    HW129635   0.440  13.797   7.033
26932SOL    HW229636   0.392  13.643   7.008
26933SOL     OW29637  13.940  11.563   7.609
26933SOL    HW129638  13.875  11.619   7.660
26933SOL    HW229639  14.019  11.543   7.667
26934SOL     OW29640  14.548   0.457   5.781
26934SOL    HW129641  14.644   0.437   5.801
26934SOL    HW229642  14.496   0.372   5.778
26935SOL     OW29643   7.482  16.537   5.680
26935SOL    HW129644   7.525  16.610   5.733
26935SOL    HW229645   7.552  16.471   5.651
26936SOL     OW29646   0.761  11.886   6.921
26936SOL    HW129647   0.838  11.891   6.857
26936SOL    HW229648   0.691  11.951   6.894
26937SOL     OW29649   0.109   6.745   7.516
26937SOL    HW129650   0.070   6.836   7.534
26937SOL    HW229651   0.063   6.678   7.575
26938SOL     OW29652   2.622   4.990   0.819
26938SOL    HW129653   2.599   4.925   0.892
26938SOL    HW229654   2.687   5.057   0.854
26939SOL     OW29655  15.104  16.590   1.345
26939SOL    HW129656  15.106  16.673   1.401
26939SOL    HW229657  15.081  16.512   1.403
26940SOL     OW29658   1.847  10.627   0.166
26940SOL    HW129659   1.844  10.547   0.107
26940SOL    HW229660   1.832  10.600   0.261
26941SOL     OW29661   2.909   4.818   7.704
26941SOL    HW129662   3.000   4.777   7.708
26941SOL    HW229663   2.918   4.918   7.703
26942SOL     OW29664   6.363  16.514   1.407
26942SOL    HW129665   6.294  16.497   1.477
26942SOL    HW229666   6.354  16.446   1.334
26943SOL     OW29667  14.218  15.264   0.139
26943SOL    HW129668  14.173  15.176   0.151
26943SOL    HW229669  14.286  15.276   0.212
26944SOL     OW29670  15.078  15.825   0.027
26944SOL    HW129671  15.159  15.804   8.426
26944SOL    HW229672  15.020  15.744   0.033
26945SOL     OW29673   1.994   0.330   1.341
26945SOL    HW129674   1.981   0.314   1.439
26945SOL    HW229675   2.092   0.324   1.320
26946SOL     OW29676  11.151  13.780   0.512
26946SOL    HW129677  11.184  13.782   0.606
26946SOL    HW229678  11.090  13.858   0.497
26947SOL     OW29679   6.436  11.191   6.610
26947SOL    HW129680   6.427  11.216   6.513
26947SOL    HW229681   6.483  11.103   6.618
26948SOL     OW29682   5.011   5.887   8.388
26948SOL    HW129683   5.110   5.873   8.394
26948SOL    HW229684   4.968   5.805   8.352
26949SOL     OW29685   5.250  16.876   1.606
26949SOL    HW129686   5.276  16.969   1.580
26949SOL    HW229687   5.322  16.812   1.578
26950SOL     OW29688   1.996  12.267   1.056
26950SOL    HW129689   2.059  12.205   1.102
26950SOL    HW229690   1.904  12.227   1.054
26951SOL     OW29691   9.317  10.823   0.745
26951SOL    HW129692   9.261  10.903   0.768
26951SOL    HW229693   9.405  10.830   0.793
26952SOL     OW29694  12.922   8.291   6.253
26952SOL    HW129695  12.823   8.290   6.241
26952SOL    HW229696  12.962   8.209   6.211
26953SOL     OW29697  13.383   9.352   7.710
26953SOL    HW129698  13.326   9.276   7.677
26953SOL    HW229699  13.414   9.407   7.632
26954SOL     OW29700   7.547   9.813   7.028
26954SOL    HW129701   7.473   9.874   7.000
26954SOL    HW229702   7.591   9.774   6.947
26955SOL     OW29703   4.634  14.397   1.401
26955SOL    HW129704   4.666  14.381   1.494
26955SOL    HW229705   4.545  14.352   1.388
26956SOL     OW29706  16.773  15.207   7.106
26956SOL    HW129707  16.842  15.144   7.069
26956SOL    HW229708  16.695  15.211   7.044
26957SOL     OW29709   0.666   5.282   8.302
26957SOL    HW129710   0.584   5.231   8.326
26957SOL    HW229711   0.715   5.309   8.385
26958SOL     OW29712   7.483   7.598   6.247
26958SOL    HW129713   7.462   7.544   6.165
26958SOL    HW229714   7.449   7.551   6.328
26959SOL     OW29715   4.686   1.350   1.975
26959SOL    HW129716   4.710   1.258   2.005
26959SOL    HW229717   4.679   1.411   2.054
26960SOL     OW29718   6.885   2.115   7.891
26960SOL    HW129719   6.947   2.046   7.930
26960SOL    HW229720   6.922   2.207   7.909
26961SOL     OW29721   8.655   1.991   7.779
26961SOL    HW129722   8.631   1.924   7.709
26961SOL    HW229723   8.753   1.984   7.799
26962SOL     OW29724   1.614  15.509   1.007
26962SOL    HW129725   1.679  15.573   1.047
26962SOL    HW229726   1.664  15.434   0.962
26963SOL     OW29727   5.545   9.809   6.799
26963SOL    HW129728   5.541   9.711   6.822
26963SOL    HW229729   5.463   9.835   6.749
26964SOL     OW29730   9.974   5.580   1.404
26964SOL    HW129731   9.975   5.613   1.499
26964SOL    HW229732   9.996   5.483   1.402
26965SOL     OW29733   5.806  14.177   2.577
26965SOL    HW129734   5.799  14.277   2.583
26965SOL    HW229735   5.897  14.148   2.606
26966SOL     OW29736   7.860  12.486   1.201
26966SOL    HW129737   7.875  12.404   1.256
26966SOL    HW229738   7.947  12.516   1.160
26967SOL     OW29739  12.826   0.471   0.709
26967SOL    HW129740  12.804   0.518   0.624
26967SOL    HW229741  12.925   0.465   0.719
26968SOL     OW29742  16.587  16.950   1.237
26968SOL    HW129743  16.515  16.978   1.174
26968SOL    HW229744  16.669   0.023   1.221
26969SOL     OW29745  10.391   4.323   0.091
26969SOL    HW129746  10.373   4.347   0.186
26969SOL    HW229747  10.420   4.405   0.040
26970SOL     OW29748  14.270   6.366   5.782
26970SOL    HW129749  14.299   6.451   5.738
26970SOL    HW229750  14.348   6.304   5.791
26971SOL     OW29751  10.155   7.155   0.205
26971SOL    HW129752  10.140   7.232   0.144
26971SOL    HW229753  10.098   7.166   0.287
26972SOL     OW29754   3.880  16.639   2.577
26972SOL    HW129755   3.809  16.659   2.645
26972SOL    HW229756   3.964  16.687   2.602
26973SOL     OW29757   4.969   4.476   7.454
26973SOL    HW129758   4.981   4.420   7.372
26973SOL    HW229759   4.997   4.570   7.435
26974SOL     OW29760   9.359   8.191   0.748
26974SOL    HW129761   9.390   8.177   0.654
26974SOL    HW229762   9.433   8.169   0.811
26975SOL     OW29763  16.477  10.581   1.724
26975SOL    HW129764  16.444  10.540   1.809
26975SOL    HW229765  16.415  10.654   1.695
26976SOL     OW29766   5.015   8.314   8.401
26976SOL    HW129767   5.106   8.303   8.361
26976SOL    HW229768   4.972   8.225   8.411
26977SOL     OW29769   9.260   3.888   0.940
26977SOL    HW129770   9.245   3.946   1.020
26977SOL    HW229771   9.358   3.873   0.927
26978SOL     OW29772   0.250  15.538   0.616
26978SOL    HW129773   0.286  15.603   0.549
26978SOL    HW229774   0.289  15.447   0.597
26979SOL     OW29775  11.202  10.194   6.661
26979SOL    HW129776  11.248  10.240   6.586
26979SOL    HW229777  11.260  10.121   6.696
26980SOL     OW29778   0.691   6.585   8.262
26980SOL    HW129779   0.608   6.585   8.206
26980SOL    HW229780   0.768   6.613   8.205
26981SOL     OW29781   2.372   9.175   1.135
26981SOL    HW129782   2.341   9.099   1.192
26981SOL    HW229783   2.401   9.141   1.046
26982SOL     OW29784   2.990  14.609   0.451
26982SOL    HW129785   2.965  14.538   0.517
26982SOL    HW229786   2.934  14.601   0.369
26983SOL     OW29787   7.688  16.138   7.977
26983SOL    HW129788   7.723  16.199   7.906
26983SOL    HW229789   7.630  16.068   7.936
26984SOL     OW29790  12.950  13.922   1.084
26984SOL    HW129791  13.046  13.904   1.107
26984SOL    HW229792  12.945  14.003   1.026
26985SOL     OW29793  15.009   3.995   7.161
26985SOL    HW129794  15.027   3.901   7.189
26985SOL    HW229795  15.040   4.009   7.067
26986SOL     OW29796   2.496   5.285   6.884
26986SOL    HW129797   2.440   5.215   6.840
26986SOL    HW229798   2.446   5.372   6.885
26987SOL     OW29799  11.089  15.513   8.142
26987SOL    HW129800  11.046  15.517   8.052
26987SOL    HW229801  11.024  15.545   8.212
26988SOL     OW29802  10.557   9.543   0.697
26988SOL    HW129803  10.558   9.633   0.739
26988SOL    HW229804  10.464   9.520   0.669
26989SOL     OW29805  11.296  10.281   7.307
26989SOL    HW129806  11.316  10.319   7.397
26989SOL    HW229807  11.367  10.310   7.242
26990SOL     OW29808   0.480   4.096   6.763
26990SOL    HW129809   0.571   4.113   6.800
26990SOL    HW229810   0.458   3.998   6.773
26991SOL     OW29811   6.158   2.361   1.712
26991SOL    HW129812   6.239   2.335   1.765
26991SOL    HW229813   6.077   2.351   1.769
26992SOL     OW29814   0.998   2.776   1.107
26992SOL    HW129815   1.020   2.821   1.020
26992SOL    HW229816   0.908   2.807   1.138
26993SOL     OW29817  10.052   0.664   0.010
26993SOL    HW129818  10.046   0.574   0.052
26993SOL    HW229819  10.025   0.657   8.367
26994SOL     OW29820  12.615   0.902   7.965
26994SOL    HW129821  12.557   0.888   8.045
26994SOL    HW229822  12.561   0.942   7.891
26995SOL     OW29823   3.729   0.031   8.224
26995SOL    HW129824   3.736  16.951   8.147
26995SOL    HW229825   3.699   0.120   8.191
26996SOL     OW29826   4.579   7.815   1.565
26996SOL    HW129827   4.485   7.787   1.548
26996SOL    HW229828   4.583   7.913   1.579
26997SOL     OW29829   0.013   3.308   1.144
26997SOL    HW129830   0.016   3.285   1.241
26997SOL    HW229831   0.075   3.249   1.093
26998SOL     OW29832   2.773   4.097   6.532
26998SOL    HW129833   2.811   4.096   6.439
26998SOL    HW229834   2.692   4.155   6.534
26999SOL     OW29835   4.194   3.826   8.146
26999SOL    HW129836   4.190   3.731   8.115
26999SOL    HW229837   4.288   3.849   8.171
27000SOL     OW29838   1.083   5.454   1.678
27000SOL    HW129839   1.026   5.392   1.625
27000SOL    HW229840   1.060   5.448   1.774
27001SOL     OW29841  16.670  13.585   7.466
27001SOL    HW129842  16.727  13.527   7.406
27001SOL    HW229843  16.577  13.588   7.429
27002SOL     OW29844   6.370   7.631   6.745
27002SOL    HW129845   6.416   7.543   6.740
27002SOL    HW229846   6.319   7.647   6.661
27003SOL     OW29847  15.387   4.112   0.011
27003SOL    HW129848  15.334   4.027   0.022
27003SOL    HW229849  15.324   4.186   8.442
27004SOL     OW29850  11.786  11.390   2.530
27004SOL    HW129851  11.789  11.431   2.439
27004SOL    HW229852  11.692  11.370   2.555
27005SOL     OW29853   3.481   7.681   0.512
27005SOL    HW129854   3.514   7.746   0.443
27005SOL    HW229855   3.551   7.613   0.530
27006SOL     OW29856   6.891   1.654   0.894
27006SOL    HW129857   6.798   1.684   0.875
27006SOL    HW229858   6.915   1.578   0.833
27007SOL     OW29859   7.560   9.156   7.363
27007SOL    HW129860   7.493   9.186   7.431
27007SOL    HW229861   7.525   9.075   7.315
27008SOL     OW29862   1.189   0.241   0.145
27008SOL    HW129863   1.201   0.146   0.173
27008SOL    HW229864   1.141   0.291   0.217
27009SOL     OW29865  16.154  13.503   8.118
27009SOL    HW129866  16.068  13.551   8.141
27009SOL    HW229867  16.149  13.470   8.024
27010SOL     OW29868   7.629   5.705   8.295
27010SOL    HW129869   7.674   5.647   8.362
27010SOL    HW229870   7.698   5.757   8.244
27011SOL     OW29871   8.804  13.103   6.447
27011SOL    HW129872   8.865  13.038   6.402
27011SOL    HW229873   8.730  13.128   6.384
27012SOL     OW29874   9.442  15.531   6.712
27012SOL    HW129875   9.510  15.594   6.675
27012SOL    HW229876   9.477  15.490   6.797
27013SOL     OW29877  13.075  14.887   7.559
27013SOL    HW129878  13.081  14.928   7.650
27013SOL    HW229879  13.167  14.869   7.525
27014SOL     OW29880   4.445   7.798   8.451
27014SOL    HW129881   4.480   7.709   0.027
27014SOL    HW229882   4.349   7.789   8.425
27015SOL     OW29883   9.523  13.697   6.892
27015SOL    HW129884   9.620  13.687   6.871
27015SOL    HW229885   9.479  13.607   6.889
27016SOL     OW29886   7.487  14.166   0.029
27016SOL    HW129887   7.586  14.162   0.018
27016SOL    HW229888   7.465  14.218   0.112
27017SOL     OW29889  15.920  12.202   7.240
27017SOL    HW129890  15.882  12.242   7.156
27017SOL    HW229891  15.976  12.271   7.287
27018SOL     OW29892   4.543   0.298   0.881
27018SOL    HW129893   4.580   0.252   0.800
27018SOL    HW229894   4.612   0.298   0.953
27019SOL     OW29895   2.085  13.792   2.245
27019SOL    HW129896   2.152  13.852   2.202
27019SOL    HW229897   2.026  13.846   2.306
27020SOL     OW29898  14.470   6.953   6.702
27020SOL    HW129899  14.395   6.894   6.732
27020SOL    HW229900  14.524   6.906   6.633
27021SOL     OW29901   0.391   4.147   0.323
27021SOL    HW129902   0.445   4.157   0.239
27021SOL    HW229903   0.354   4.236   0.349
27022SOL     OW29904  13.389  10.286   6.560
27022SOL    HW129905  13.312  10.226   6.581
27022SOL    HW229906  13.373  10.333   6.473
27023SOL     OW29907  15.190   0.705   1.339
27023SOL    HW129908  15.120   0.642   1.307
27023SOL    HW229909  15.160   0.746   1.426
27024SOL     OW29910   1.755  10.796   1.395
27024SOL    HW129911   1.718  10.874   1.344
27024SOL    HW229912   1.690  10.720   1.393
27025SOL     OW29913  13.437   2.223   6.932
27025SOL    HW129914  13.485   2.179   6.857
27025SOL    HW229915  13.453   2.321   6.929
27026SOL     OW29916   3.536   9.438   0.139
27026SOL    HW129917   3.459   9.496   0.165
27026SOL    HW229918   3.510   9.383   0.060
27027SOL     OW29919   3.897   4.874   7.783
27027SOL    HW129920   3.980   4.861   7.730
27027SOL    HW229921   3.921   4.907   7.874
27028SOL     OW29922   4.595  16.191   7.938
27028SOL    HW129923   4.658  16.172   7.863
27028SOL    HW229924   4.549  16.279   7.923
27029SOL     OW29925   1.936  14.995   6.561
27029SOL    HW129926   1.974  14.916   6.513
27029SOL    HW229927   1.919  15.069   6.496
27030SOL     OW29928  15.635   2.696   1.724
27030SOL    HW129929  15.598   2.786   1.747
27030SOL    HW229930  15.574   2.625   1.759
27031SOL     OW29931  14.618   6.376   0.879
27031SOL    HW129932  14.533   6.404   0.925
27031SOL    HW229933  14.612   6.398   0.782
27032SOL     OW29934  14.235  11.307   7.457
27032SOL    HW129935  14.207  11.398   7.426
27032SOL    HW229936  14.158  11.263   7.504
27033SOL     OW29937   3.460  15.701   8.156
27033SOL    HW129938   3.379  15.646   8.140
27033SOL    HW229939   3.539  15.641   8.170
27034SOL     OW29940   7.017   5.131   6.477
27034SOL    HW129941   7.052   5.088   6.561
27034SOL    HW229942   6.918   5.143   6.485
27035SOL     OW29943   6.357   9.613   0.866
27035SOL    HW129944   6.258   9.614   0.856
27035SOL    HW229945   6.391   9.520   0.853
27036SOL     OW29946  10.841   8.208   0.919
27036SOL    HW129947  10.905   8.215   0.996
27036SOL    HW229948  10.814   8.113   0.906
27037SOL     OW29949   5.041   2.576   0.089
27037SOL    HW129950   4.979   2.543   0.018
27037SOL    HW229951   5.021   2.530   0.176
27038SOL     OW29952   1.593  16.233   6.751
27038SOL    HW129953   1.618  16.298   6.680
27038SOL    HW229954   1.583  16.142   6.710
27039SOL     OW29955  14.111  10.100   0.451
27039SOL    HW129956  14.198  10.143   0.473
27039SOL    HW229957  14.087  10.119   0.355
27040SOL     OW29958   8.740   8.486   6.244
27040SOL    HW129959   8.725   8.387   6.239
27040SOL    HW229960   8.825   8.510   6.198
27041SOL     OW29961  12.746  13.588   0.106
27041SOL    HW129962  12.843  13.612   0.114
27041SOL    HW229963  12.716  13.601   0.011
27042SOL     OW29964  11.166   4.294   6.737
27042SOL    HW129965  11.131   4.216   6.684
27042SOL    HW229966  11.196   4.365   6.674
27043SOL     OW29967  16.565   5.025   0.059
27043SOL    HW129968  16.638   5.010   8.447
27043SOL    HW229969  16.557   5.122   0.079
27044SOL     OW29970  12.196  15.787   1.979
27044SOL    HW129971  12.193  15.852   2.055
27044SOL    HW229972  12.291  15.769   1.954
27045SOL     OW29973   9.027  16.763   6.691
27045SOL    HW129974   8.976  16.836   6.646
27045SOL    HW229975   9.071  16.706   6.622
27046SOL     OW29976   1.054   4.177   0.342
27046SOL    HW129977   1.023   4.154   0.249
27046SOL    HW229978   1.002   4.256   0.375
27047SOL     OW29979   4.844   7.785   8.180
27047SOL    HW129980   4.922   7.757   8.237
27047SOL    HW229981   4.834   7.722   8.104
27048SOL     OW29982   2.537   7.753   1.898
27048SOL    HW129983   2.619   7.811   1.898
27048SOL    HW229984   2.464   7.799   1.948
27049SOL     OW29985   2.651   3.725   0.833
27049SOL    HW129986   2.678   3.736   0.929
27049SOL    HW229987   2.726   3.755   0.774
27050SOL     OW29988  14.583  14.802   7.072
27050SOL    HW129989  14.639  14.729   7.034
27050SOL    HW229990  14.608  14.889   7.028
27051SOL     OW29991  15.784  10.654   1.019
27051SOL    HW129992  15.813  10.671   0.925
27051SOL    HW229993  15.772  10.556   1.033
27052SOL     OW29994   1.444  12.131   1.450
27052SOL    HW129995   1.464  12.044   1.406
27052SOL    HW229996   1.497  12.204   1.406
27053SOL     OW29997   9.818   7.982   7.827
27053SOL    HW129998   9.742   8.047   7.830
27053SOL    HW229999   9.787   7.894   7.792
27054SOL     OW30000   5.269  14.836   1.606
27054SOL    HW130001   5.213  14.811   1.526
27054SOL    HW230002   5.245  14.777   1.683
27055SOL     OW30003  15.167  14.617   7.302
27055SOL    HW130004  15.164  14.535   7.245
27055SOL    HW230005  15.117  14.601   7.387
27056SOL     OW30006  13.884   9.580   6.377
27056SOL    HW130007  13.801   9.576   6.321
27056SOL    HW230008  13.907   9.488   6.410
27057SOL     OW30009  14.184   0.988   0.283
27057SOL    HW130010  14.283   0.999   0.283
27057SOL    HW230011  14.142   1.068   0.328
27058SOL     OW30012  12.197   7.897   7.543
27058SOL    HW130013  12.181   7.964   7.615
27058SOL    HW230014  12.281   7.847   7.562
27059SOL     OW30015   8.027   2.608   0.593
27059SOL    HW130016   8.050   2.706   0.597
27059SOL    HW230017   8.065   2.561   0.672
27060SOL     OW30018   4.195   4.655   7.301
27060SOL    HW130019   4.109   4.665   7.351
27060SOL    HW230020   4.269   4.696   7.355
27061SOL     OW30021  11.373  13.927   1.728
27061SOL    HW130022  11.359  14.001   1.793
27061SOL    HW230023  11.318  13.848   1.755
27062SOL     OW30024   1.522   3.018   1.235
27062SOL    HW130025   1.476   3.067   1.161
27062SOL    HW230026   1.613   3.057   1.250
27063SOL     OW30027   7.466   8.216   7.577
27063SOL    HW130028   7.452   8.297   7.521
27063SOL    HW230029   7.563   8.194   7.581
27064SOL     OW30030  13.407  15.663   8.210
27064SOL    HW130031  13.377  15.605   8.286
27064SOL    HW230032  13.365  15.753   8.219
27065SOL     OW30033  14.081   5.556   6.193
27065SOL    HW130034  14.089   5.599   6.103
27065SOL    HW230035  14.169   5.562   6.240
27066SOL     OW30036   8.691   6.728   7.240
27066SOL    HW130037   8.786   6.699   7.252
27066SOL    HW230038   8.688   6.811   7.184
27067SOL     OW30039  13.192   0.230   5.860
27067SOL    HW130040  13.256   0.152   5.861
27067SOL    HW230041  13.133   0.223   5.780
27068SOL     OW30042   9.484   6.887   1.041
27068SOL    HW130043   9.425   6.926   1.112
27068SOL    HW230044   9.561   6.840   1.084
27069SOL     OW30045   0.007   4.468   6.780
27069SOL    HW130046   0.072   4.529   6.823
27069SOL    HW230047  16.927   4.433   6.850
27070SOL     OW30048   4.176   1.730   7.974
27070SOL    HW130049   4.249   1.756   7.912
27070SOL    HW230050   4.088   1.735   7.926
27071SOL     OW30051  12.708   5.824   6.500
27071SOL    HW130052  12.690   5.922   6.490
27071SOL    HW230053  12.673   5.776   6.419
27072SOL     OW30054  11.118   3.871   5.604
27072SOL    HW130055  11.077   3.805   5.542
27072SOL    HW230056  11.108   3.963   5.567
27073SOL     OW30057  14.196   5.100   6.837
27073SOL    HW130058  14.192   5.060   6.745
27073SOL    HW230059  14.155   5.037   6.903
27074SOL     OW30060  10.261   6.820   6.120
27074SOL    HW130061  10.290   6.903   6.169
27074SOL    HW230062  10.308   6.817   6.031
27075SOL     OW30063   9.898   9.784   1.580
27075SOL    HW130064   9.847   9.835   1.511
27075SOL    HW230065   9.836   9.727   1.633
27076SOL     OW30066  14.366   9.114   2.285
27076SOL    HW130067  14.437   9.122   2.216
27076SOL    HW230068  14.317   9.201   2.293
27077SOL     OW30069   2.121  14.894   7.440
27077SOL    HW130070   2.031  14.850   7.429
27077SOL    HW230071   2.110  14.993   7.432
27078SOL     OW30072   5.525   3.245   1.349
27078SOL    HW130073   5.465   3.185   1.401
27078SOL    HW230074   5.616   3.244   1.389
27079SOL     OW30075  16.711  11.227   1.117
27079SOL    HW130076  16.737  11.185   1.031
27079SOL    HW230077  16.684  11.156   1.182
27080SOL     OW30078   6.384  12.546   1.921
27080SOL    HW130079   6.397  12.532   2.019
27080SOL    HW230080   6.421  12.468   1.870
27081SOL     OW30081  13.083  11.356   8.020
27081SOL    HW130082  13.061  11.273   7.969
27081SOL    HW230083  13.011  11.424   8.008
27082SOL     OW30084   5.437   7.606   1.127
27082SOL    HW130085   5.400   7.567   1.211
27082SOL    HW230086   5.495   7.539   1.081
27083SOL     OW30087  10.323   1.849   8.353
27083SOL    HW130088  10.263   1.868   8.431
27083SOL    HW230089  10.326   1.929   8.294
27084SOL     OW30090  12.398  16.924   8.253
27084SOL    HW130091  12.462  16.956   8.184
27084SOL    HW230092  12.304  16.945   8.225
27085SOL     OW30093   1.379  15.307   7.935
27085SOL    HW130094   1.433  15.355   8.004
27085SOL    HW230095   1.441  15.266   7.868
27086SOL     OW30096   1.422   8.200   1.575
27086SOL    HW130097   1.323   8.208   1.577
27086SOL    HW230098   1.453   8.138   1.647
27087SOL     OW30099   7.839   0.282   6.785
27087SOL    HW130100   7.924   0.316   6.825
27087SOL    HW230101   7.860   0.234   6.699
27088SOL     OW30102   6.830   2.401   1.082
27088SOL    HW130103   6.877   2.485   1.053
27088SOL    HW230104   6.896   2.340   1.126
27089SOL     OW30105  15.145  11.489   2.453
27089SOL    HW130106  15.209  11.562   2.476
27089SOL    HW230107  15.128  11.489   2.355
27090SOL     OW30108   2.702   2.236   0.102
27090SOL    HW130109   2.665   2.326   0.125
27090SOL    HW230110   2.644   2.166   0.142
27091SOL     OW30111   2.783  10.492   1.460
27091SOL    HW130112   2.715  10.431   1.419
27091SOL    HW230113   2.869  10.485   1.408
27092SOL     OW30114   9.345  15.124   7.572
27092SOL    HW130115   9.284  15.145   7.496
27092SOL    HW230116   9.328  15.188   7.647
27093SOL     OW30117   4.743  15.444   7.109
27093SOL    HW130118   4.808  15.387   7.060
27093SOL    HW230119   4.674  15.387   7.154
27094SOL     OW30120   8.287   7.411   8.238
27094SOL    HW130121   8.348   7.360   8.178
27094SOL    HW230122   8.339   7.442   8.318
27095SOL     OW30123   9.825   1.956   7.004
27095SOL    HW130124   9.808   2.024   7.076
27095SOL    HW230125   9.876   1.998   6.929
27096SOL     OW30126   5.348  11.714   8.117
27096SOL    HW130127   5.290  11.650   8.067
27096SOL    HW230128   5.307  11.805   8.115
27097SOL     OW30129   1.478  11.823   7.173
27097SOL    HW130130   1.433  11.908   7.146
27097SOL    HW230131   1.555  11.843   7.234
27098SOL     OW30132  14.660   2.135   6.584
27098SOL    HW130133  14.701   2.138   6.493
27098SOL    HW230134  14.571   2.089   6.579
27099SOL     OW30135  12.970   3.482   6.304
27099SOL    HW130136  13.045   3.529   6.256
27099SOL    HW230137  12.912   3.436   6.238
27100SOL     OW30138   6.106  12.954   8.304
27100SOL    HW130139   6.036  12.951   8.375
27100SOL    HW230140   6.071  13.001   8.223
27101SOL     OW30141   7.861  10.659   6.540
27101SOL    HW130142   7.911  10.683   6.457
27101SOL    HW230143   7.792  10.590   6.520
27102SOL     OW30144  16.201   7.575   0.853
27102SOL    HW130145  16.271   7.575   0.924
27102SOL    HW230146  16.201   7.487   0.805
27103SOL     OW30147   2.116   5.356   8.090
27103SOL    HW130148   2.120   5.403   8.002
27103SOL    HW230149   2.024   5.363   8.127
27104SOL     OW30150   1.451  12.583   0.383
27104SOL    HW130151   1.445  12.636   0.468
27104SOL    HW230152   1.464  12.486   0.405
27105SOL     OW30153   3.031  12.360   8.060
27105SOL    HW130154   3.006  12.343   8.156
27105SOL    HW230155   2.950  12.391   8.010
27106SOL     OW30156   8.098   8.598   8.433
27106SOL    HW130157   8.009   8.580   0.022
27106SOL    HW230158   8.155   8.516   8.438
27107SOL     OW30159   4.092  12.895   1.810
27107SOL    HW130160   4.153  12.900   1.731
27107SOL    HW230161   4.136  12.842   1.882
27108SOL     OW30162   8.619  10.344   7.813
27108SOL    HW130163   8.634  10.280   7.889
27108SOL    HW230164   8.597  10.293   7.730
27109SOL     OW30165   9.421   4.255   0.052
27109SOL    HW130166   9.324   4.242   0.032
27109SOL    HW230167   9.442   4.213   0.141
27110SOL     OW30168  15.690   4.086   1.843
27110SOL    HW130169  15.670   3.998   1.886
27110SOL    HW230170  15.730   4.149   1.910
27111SOL     OW30171   8.308  11.941   8.164
27111SOL    HW130172   8.386  11.964   8.222
27111SOL    HW230173   8.340  11.921   8.071
27112SOL     OW30174   0.046   1.512   1.679
27112SOL    HW130175  16.969   1.490   1.602
27112SOL    HW230176   0.052   1.611   1.689
27113SOL     OW30177   0.723   9.108   1.699
27113SOL    HW130178   0.708   9.183   1.763
27113SOL    HW230179   0.820   9.101   1.678
27114SOL     OW30180   6.288   4.737   5.859
27114SOL    HW130181   6.328   4.784   5.937
27114SOL    HW230182   6.360   4.707   5.797
27115SOL     OW30183   6.723   5.192   7.523
27115SOL    HW130184   6.770   5.262   7.576
27115SOL    HW230185   6.783   5.114   7.509
27116SOL     OW30186   9.859  14.403   0.567
27116SOL    HW130187   9.891  14.357   0.649
27116SOL    HW230188   9.765  14.432   0.579
27117SOL     OW30189   7.925   8.672   2.223
27117SOL    HW130190   8.013   8.631   2.247
27117SOL    HW230191   7.887   8.718   2.304
27118SOL     OW30192  15.305  15.053   1.156
27118SOL    HW130193  15.253  15.110   1.221
27118SOL    HW230194  15.402  15.061   1.175
27119SOL     OW30195   0.178   0.302   7.570
27119SOL    HW130196   0.236   0.253   7.635
27119SOL    HW230197   0.114   0.361   7.621
27120SOL     OW30198   9.437   2.230   1.339
27120SOL    HW130199   9.353   2.190   1.375
27120SOL    HW230200   9.414   2.310   1.283
27121SOL     OW30201   1.889   9.982   2.521
27121SOL    HW130202   1.875  10.076   2.489
27121SOL    HW230203   1.806   9.949   2.566
27122SOL     OW30204   9.287   4.961   6.768
27122SOL    HW130205   9.292   4.998   6.676
27122SOL    HW230206   9.293   5.035   6.835
27123SOL     OW30207  14.804  16.017   1.629
27123SOL    HW130208  14.711  16.054   1.640
27123SOL    HW230209  14.819  15.995   1.533
27124SOL     OW30210  14.206   4.591   6.943
27124SOL    HW130211  14.222   4.623   6.850
27124SOL    HW230212  14.278   4.526   6.969
27125SOL     OW30213  13.626   6.470   0.665
27125SOL    HW130214  13.713   6.421   0.665
27125SOL    HW230215  13.554   6.411   0.629
27126SOL     OW30216  12.297  14.747   2.082
27126SOL    HW130217  12.287  14.765   2.180
27126SOL    HW230218  12.390  14.713   2.064
27127SOL     OW30219   2.589  15.453   8.155
27127SOL    HW130220   2.593  15.374   8.216
27127SOL    HW230221   2.521  15.518   8.189
27128SOL     OW30222   8.826   6.565   0.441
27128SOL    HW130223   8.803   6.468   0.433
27128SOL    HW230224   8.862   6.599   0.355
27129SOL     OW30225   0.651   8.186   1.230
27129SOL    HW130226   0.641   8.268   1.286
27129SOL    HW230227   0.571   8.176   1.171
27130SOL     OW30228   9.372  14.805   6.454
27130SOL    HW130229   9.287  14.855   6.439
27130SOL    HW230230   9.439  14.832   6.385
27131SOL     OW30231  11.596   3.461   0.503
27131SOL    HW130232  11.680   3.487   0.549
27131SOL    HW230233  11.525   3.529   0.520
27132SOL     OW30234   2.010  14.176   7.238
27132SOL    HW130235   2.022  14.273   7.218
27132SOL    HW230236   1.918  14.148   7.211
27133SOL     OW30237   7.091  10.225   8.440
27133SOL    HW130238   7.057  10.134   8.418
27133SOL    HW230239   7.057  10.253   0.075
27134SOL     OW30240   2.172  10.553   7.178
27134SOL    HW130241   2.269  10.549   7.153
27134SOL    HW230242   2.128  10.628   7.127
27135SOL     OW30243   2.498   8.938   0.593
27135SOL    HW130244   2.553   8.862   0.630
27135SOL    HW230245   2.401   8.916   0.602
27136SOL     OW30246  16.862  12.318   8.454
27136SOL    HW130247  16.906  12.228   0.001
27136SOL    HW230248  16.782  12.316   8.394
27137SOL     OW30249   6.857   1.019   1.300
27137SOL    HW130250   6.913   1.020   1.383
27137SOL    HW230251   6.771   1.068   1.317
27138SOL     OW30252   7.175  14.168   2.156
27138SOL    HW130253   7.170  14.265   2.135
27138SOL    HW230254   7.082  14.132   2.167
27139SOL     OW30255  11.882   2.577   6.788
27139SOL    HW130256  11.951   2.508   6.812
27139SOL    HW230257  11.833   2.604   6.870
27140SOL     OW30258  15.785  16.570   1.024
27140SOL    HW130259  15.699  16.600   0.981
27140SOL    HW230260  15.802  16.625   1.106
27141SOL     OW30261   1.988   9.382   7.894
27141SOL    HW130262   2.035   9.425   7.817
27141SOL    HW230263   2.028   9.414   7.980
27142SOL     OW30264  10.439   5.957   7.994
27142SOL    HW130265  10.484   5.945   7.906
27142SOL    HW230266  10.387   6.043   7.993
27143SOL     OW30267   7.905  10.149   8.039
27143SOL    HW130268   7.950  10.104   7.962
27143SOL    HW230269   7.970  10.211   8.084
27144SOL     OW30270  14.107   7.942   7.656
27144SOL    HW130271  14.043   7.876   7.696
27144SOL    HW230272  14.185   7.955   7.718
27145SOL     OW30273   0.446   3.494   6.178
27145SOL    HW130274   0.460   3.407   6.131
27145SOL    HW230275   0.467   3.569   6.116
27146SOL     OW30276   8.103  10.912   8.335
27146SOL    HW130277   8.126  10.835   8.395
27146SOL    HW230278   8.187  10.959   8.308
27147SOL     OW30279  16.286  15.877   0.529
27147SOL    HW130280  16.332  15.958   0.492
27147SOL    HW230281  16.246  15.825   0.454
27148SOL     OW30282   0.259  10.951   1.426
27148SOL    HW130283   0.317  10.951   1.345
27148SOL    HW230284   0.315  10.944   1.508
27149SOL     OW30285  12.804  14.746   0.208
27149SOL    HW130286  12.818  14.805   0.287
27149SOL    HW230287  12.706  14.731   0.194
27150SOL     OW30288  14.943   5.511   6.029
27150SOL    HW130289  14.902   5.510   5.938
27150SOL    HW230290  15.029   5.561   6.026
27151SOL     OW30291   4.625  12.717   8.196
27151SOL    HW130292   4.659  12.771   8.273
27151SOL    HW230293   4.668  12.627   8.197
27152SOL     OW30294  13.322   3.749   7.700
27152SOL    HW130295  13.247   3.758   7.765
27152SOL    HW230296  13.347   3.652   7.690
27153SOL     OW30297   7.753  15.796   7.789
27153SOL    HW130298   7.754  15.705   7.746
27153SOL    HW230299   7.784  15.788   7.884
27154SOL     OW30300   6.224  14.555   2.069
27154SOL    HW130301   6.200  14.598   2.156
27154SOL    HW230302   6.296  14.607   2.024
27155SOL     OW30303   4.896   4.712   1.111
27155SOL    HW130304   4.974   4.653   1.131
27155SOL    HW230305   4.846   4.731   1.196
27156SOL     OW30306   6.992  15.216   8.433
27156SOL    HW130307   6.932  15.195   0.056
27156SOL    HW230308   6.975  15.309   8.401
27157SOL     OW30309   5.035  13.917   8.401
27157SOL    HW130310   5.043  14.013   8.425
27157SOL    HW230311   5.084  13.861   0.013
27158SOL     OW30312   3.230   4.708   0.220
27158SOL    HW130313   3.240   4.750   0.130
27158SOL    HW230314   3.135   4.715   0.251
27159SOL     OW30315  13.228  13.861   1.140
27159SOL    HW130316  13.276  13.839   1.055
27159SOL    HW230317  13.283  13.925   1.195
27160SOL     OW30318  10.410   3.283   6.044
27160SOL    HW130319  10.384   3.307   5.950
27160SOL    HW230320  10.384   3.188   6.063
27161SOL     OW30321  16.003   4.187   1.512
27161SOL    HW130322  16.016   4.142   1.600
27161SOL    HW230323  16.060   4.269   1.507
27162SOL     OW30324  16.552  16.529   7.409
27162SOL    HW130325  16.646  16.496   7.416
27162SOL    HW230326  16.552  16.629   7.406
27163SOL     OW30327   3.816   5.500   6.934
27163SOL    HW130328   3.856   5.413   6.904
27163SOL    HW230329   3.804   5.560   6.855
27164SOL     OW30330  14.164  16.369   6.853
27164SOL    HW130331  14.082  16.403   6.806
27164SOL    HW230332  14.173  16.271   6.835
27165SOL     OW30333   6.431  16.445   7.312
27165SOL    HW130334   6.350  16.388   7.299
27165SOL    HW230335   6.410  16.517   7.378
27166SOL     OW30336   3.736   7.909   7.312
27166SOL    HW130337   3.835   7.899   7.316
27166SOL    HW230338   3.701   7.929   7.403
27167SOL     OW30339  10.919  15.815   7.884
27167SOL    HW130340  11.001  15.815   7.827
27167SOL    HW230341  10.883  15.908   7.890
27168SOL     OW30342  10.172  16.770   1.198
27168SOL    HW130343  10.200  16.849   1.253
27168SOL    HW230344  10.253  16.715   1.176
27169SOL     OW30345   5.654   3.344   7.632
27169SOL    HW130346   5.670   3.435   7.594
27169SOL    HW230347   5.702   3.275   7.577
27170SOL     OW30348   0.797  12.502   1.218
27170SOL    HW130349   0.705  12.512   1.181
27170SOL    HW230350   0.843  12.426   1.172
27171SOL     OW30351  14.827   4.641   6.905
27171SOL    HW130352  14.802   4.636   6.808
27171SOL    HW230353  14.917   4.601   6.918
27172SOL     OW30354   1.899   1.435   6.673
27172SOL    HW130355   1.997   1.432   6.688
27172SOL    HW230356   1.872   1.526   6.643
27173SOL     OW30357   6.225  14.953   6.734
27173SOL    HW130358   6.226  15.004   6.648
27173SOL    HW230359   6.265  14.862   6.720
27174SOL     OW30360   6.038  11.897   0.576
27174SOL    HW130361   6.086  11.978   0.542
27174SOL    HW230362   6.019  11.836   0.500
27175SOL     OW30363   1.034   5.633   1.046
27175SOL    HW130364   1.088   5.711   1.016
27175SOL    HW230365   0.937   5.655   1.037
27176SOL     OW30366   1.356  16.259   0.232
27176SOL    HW130367   1.359  16.342   0.176
27176SOL    HW230368   1.274  16.261   0.289
27177SOL     OW30369   6.375   0.049   7.640
27177SOL    HW130370   6.381   0.107   7.558
27177SOL    HW230371   6.386   0.106   7.722
27178SOL     OW30372   5.625   7.073   1.802
27178SOL    HW130373   5.598   7.119   1.886
27178SOL    HW230374   5.614   6.974   1.814
27179SOL     OW30375   8.668   4.224   8.220
27179SOL    HW130376   8.640   4.250   8.128
27179SOL    HW230377   8.601   4.160   8.259
27180SOL     OW30378  12.440   7.510   0.665
27180SOL    HW130379  12.539   7.521   0.665
27180SOL    HW230380  12.413   7.448   0.739
27181SOL     OW30381   4.614  15.175   0.370
27181SOL    HW130382   4.706  15.154   0.336
27181SOL    HW230383   4.598  15.273   0.366
27182SOL     OW30384  12.331   8.563   0.791
27182SOL    HW130385  12.293   8.599   0.705
27182SOL    HW230386  12.355   8.467   0.779
27183SOL     OW30387   8.505   3.069   8.081
27183SOL    HW130388   8.595   3.107   8.061
27183SOL    HW230389   8.472   3.018   8.001
27184SOL     OW30390   4.812   5.289   2.394
27184SOL    HW130391   4.784   5.359   2.459
27184SOL    HW230392   4.886   5.234   2.435
27185SOL     OW30393   2.206   1.256   7.533
27185SOL    HW130394   2.189   1.271   7.435
27185SOL    HW230395   2.119   1.241   7.580
27186SOL     OW30396  10.307   7.419   0.791
27186SOL    HW130397  10.259   7.336   0.819
27186SOL    HW230398  10.316   7.480   0.870
27187SOL     OW30399   2.369   5.697   7.257
27187SOL    HW130400   2.441   5.661   7.198
27187SOL    HW230401   2.307   5.623   7.284
27188SOL     OW30402   8.594  15.989   2.361
27188SOL    HW130403   8.622  16.080   2.331
27188SOL    HW230404   8.497  15.974   2.338
27189SOL     OW30405   5.907  15.218   7.190
27189SOL    HW130406   5.978  15.168   7.239
27189SOL    HW230407   5.823  15.164   7.189
27190SOL     OW30408   5.548   6.366   7.516
27190SOL    HW130409   5.619   6.424   7.476
27190SOL    HW230410   5.555   6.274   7.478
27191SOL     OW30411   3.115   2.956   6.601
27191SOL    HW130412   3.168   3.032   6.562
27191SOL    HW230413   3.099   2.887   6.531
27192SOL     OW30414  16.341   5.213   8.230
27192SOL    HW130415  16.319   5.116   8.226
27192SOL    HW230416  16.350   5.249   8.137
27193SOL     OW30417  11.559  14.522   7.534
27193SOL    HW130418  11.591  14.599   7.478
27193SOL    HW230419  11.532  14.446   7.474
27194SOL     OW30420   3.928   1.718   7.834
27194SOL    HW130421   3.842   1.753   7.872
27194SOL    HW230422   3.956   1.776   7.757
27195SOL     OW30423   0.469  10.138   1.813
27195SOL    HW130424   0.446  10.171   1.905
27195SOL    HW230425   0.525  10.206   1.767
27196SOL     OW30426  15.793   8.790   1.494
27196SOL    HW130427  15.740   8.855   1.440
27196SOL    HW230428  15.820   8.713   1.437
27197SOL     OW30429   1.003   1.727   7.498
27197SOL    HW130430   0.980   1.736   7.596
27197SOL    HW230431   0.960   1.801   7.447
27198SOL     OW30432   2.112   4.810   0.946
27198SOL    HW130433   2.117   4.724   0.896
27198SOL    HW230434   2.051   4.873   0.898
27199SOL     OW30435   8.078   6.449   1.252
27199SOL    HW130436   8.061   6.356   1.286
27199SOL    HW230437   8.173   6.457   1.222
27200SOL     OW30438  10.536   0.042   7.369
27200SOL    HW130439  10.498   0.068   7.280
27200SOL    HW230440  10.481  16.951   7.409
27201SOL     OW30441   7.406  15.272   2.100
27201SOL    HW130442   7.350  15.232   2.172
27201SOL    HW230443   7.461  15.201   2.056
27202SOL     OW30444  14.138   0.230   8.105
27202SOL    HW130445  14.209   0.213   8.173
27202SOL    HW230446  14.172   0.293   8.036
27203SOL     OW30447   6.396   7.996   0.967
27203SOL    HW130448   6.408   7.933   1.043
27203SOL    HW230449   6.307   7.979   0.924
27204SOL     OW30450  16.164   4.922   6.727
27204SOL    HW130451  16.209   4.862   6.793
27204SOL    HW230452  16.128   4.868   6.652
27205SOL     OW30453   7.286  13.055   1.383
27205SOL    HW130454   7.267  13.071   1.480
27205SOL    HW230455   7.217  13.101   1.327
27206SOL     OW30456  10.186   6.279   6.569
27206SOL    HW130457  10.232   6.289   6.481
27206SOL    HW230458  10.092   6.312   6.562
27207SOL     OW30459   5.198  10.078   6.461
27207SOL    HW130460   5.159   9.986   6.459
27207SOL    HW230461   5.238  10.099   6.371
27208SOL     OW30462  10.446   1.017   8.297
27208SOL    HW130463  10.428   0.921   8.317
27208SOL    HW230464  10.452   1.030   8.198
27209SOL     OW30465  10.048   9.948   8.081
27209SOL    HW130466  10.044   9.848   8.074
27209SOL    HW230467   9.965   9.982   8.124
27210SOL     OW30468   7.550  12.327   7.351
27210SOL    HW130469   7.516  12.418   7.328
27210SOL    HW230470   7.537  12.266   7.273
27211SOL     OW30471  13.673   5.872   6.671
27211SOL    HW130472  13.691   5.970   6.666
27211SOL    HW230473  13.704   5.828   6.587
27212SOL     OW30474   8.150  11.681   0.568
27212SOL    HW130475   8.241  11.715   0.593
27212SOL    HW230476   8.080  11.737   0.612
27213SOL     OW30477   7.375  16.183   0.338
27213SOL    HW130478   7.416  16.134   0.414
27213SOL    HW230479   7.443  16.196   0.265
27214SOL     OW30480  11.908   5.340   6.689
27214SOL    HW130481  11.887   5.242   6.682
27214SOL    HW230482  11.922   5.364   6.785
27215SOL     OW30483   4.020  10.663   2.565
27215SOL    HW130484   3.991  10.710   2.648
27215SOL    HW230485   4.090  10.717   2.519
27216SOL     OW30486   0.333   4.254   0.009
27216SOL    HW130487   0.271   4.176   0.001
27216SOL    HW230488   0.427   4.221   0.005
27217SOL     OW30489   3.763   4.819   2.136
27217SOL    HW130490   3.802   4.883   2.069
27217SOL    HW230491   3.771   4.858   2.228
27218SOL     OW30492   6.124  10.433   7.618
27218SOL    HW130493   6.221  10.421   7.596
27218SOL    HW230494   6.116  10.482   7.705
27219SOL     OW30495  13.373  10.529   8.078
27219SOL    HW130496  13.438  10.599   8.108
27219SOL    HW230497  13.420  10.441   8.072
27220SOL     OW30498   5.606   6.049   1.050
27220SOL    HW130499   5.517   6.092   1.065
27220SOL    HW230500   5.662   6.107   0.992
27221SOL     OW30501  15.440   3.563   6.031
27221SOL    HW130502  15.461   3.472   5.994
27221SOL    HW230503  15.449   3.631   5.958
27222SOL     OW30504   9.166   1.447   7.667
27222SOL    HW130505   9.261   1.468   7.644
27222SOL    HW230506   9.164   1.372   7.734
27223SOL     OW30507   9.982  16.201   7.630
27223SOL    HW130508  10.070  16.226   7.588
27223SOL    HW230509   9.923  16.282   7.634
27224SOL     OW30510  16.896  11.619   2.062
27224SOL    HW130511  16.947  11.630   1.977
27224SOL    HW230512  16.947  11.660   2.137
27225SOL     OW30513  14.431   7.058   0.170
27225SOL    HW130514  14.430   7.003   0.254
27225SOL    HW230515  14.521   7.101   0.160
27226SOL     OW30516  13.163   0.634   7.637
27226SOL    HW130517  13.148   0.539   7.609
27226SOL    HW230518  13.260   0.657   7.623
27227SOL     OW30519   3.058   8.360   1.931
27227SOL    HW130520   3.138   8.324   1.981
27227SOL    HW230521   2.980   8.364   1.994
27228SOL     OW30522   9.789  16.967   0.956
27228SOL    HW130523   9.740  16.880   0.953
27228SOL    HW230524   9.725   0.056   0.982
27229SOL     OW30525  15.903   2.178   0.330
27229SOL    HW130526  15.997   2.201   0.307
27229SOL    HW230527  15.880   2.217   0.420
27230SOL     OW30528  16.294   2.604   0.689
27230SOL    HW130529  16.356   2.677   0.659
27230SOL    HW230530  16.199   2.635   0.679
27231SOL     OW30531   4.686   8.770   7.476
27231SOL    HW130532   4.704   8.725   7.389
27231SOL    HW230533   4.768   8.768   7.533
27232SOL     OW30534   5.529   4.486   8.153
27232SOL    HW130535   5.478   4.455   8.073
27232SOL    HW230536   5.467   4.533   8.216
27233SOL     OW30537   7.266  16.550   1.058
27233SOL    HW130538   7.213  16.488   1.001
27233SOL    HW230539   7.205  16.618   1.099
27234SOL     OW30540   4.632   6.165   7.240
27234SOL    HW130541   4.667   6.158   7.146
27234SOL    HW230542   4.682   6.102   7.299
27235SOL     OW30543  10.701  14.674   0.616
27235SOL    HW130544  10.693  14.686   0.715
27235SOL    HW230545  10.711  14.763   0.573
27236SOL     OW30546   6.035   9.337   0.664
27236SOL    HW130547   5.960   9.351   0.729
27236SOL    HW230548   5.997   9.319   0.573
27237SOL     OW30549   1.271   9.430   1.292
27237SOL    HW130550   1.346   9.441   1.357
27237SOL    HW230551   1.183   9.436   1.340
27238SOL     OW30552   4.337   5.159   2.002
27238SOL    HW130553   4.240   5.137   2.014
27238SOL    HW230554   4.367   5.219   2.077
27239SOL     OW30555   9.801   1.350   1.153
27239SOL    HW130556   9.854   1.399   1.084
27239SOL    HW230557   9.744   1.281   1.109
27240SOL     OW30558   7.005   1.338   0.047
27240SOL    HW130559   6.932   1.350   0.115
27240SOL    HW230560   7.089   1.382   0.079
27241SOL     OW30561  16.447  12.912   7.063
27241SOL    HW130562  16.411  12.921   6.970
27241SOL    HW230563  16.430  12.997   7.113
27242SOL     OW30564   5.200   0.929   1.748
27242SOL    HW130565   5.161   1.001   1.691
27242SOL    HW230566   5.217   0.965   1.840
27243SOL     OW30567  15.135   7.868   7.485
27243SOL    HW130568  15.123   7.782   7.535
27243SOL    HW230569  15.046   7.905   7.461
27244SOL     OW30570   2.980  10.797   0.943
27244SOL    HW130571   3.000  10.881   0.992
27244SOL    HW230572   2.884  10.770   0.959
27245SOL     OW30573   0.717   8.626   8.206
27245SOL    HW130574   0.658   8.586   8.135
27245SOL    HW230575   0.709   8.726   8.203
27246SOL     OW30576   0.411   2.796   1.184
27246SOL    HW130577   0.355   2.719   1.216
27246SOL    HW230578   0.356   2.879   1.185
27247SOL     OW30579   3.561   2.119   1.758
27247SOL    HW130580   3.548   2.130   1.660
27247SOL    HW230581   3.586   2.207   1.799
27248SOL     OW30582  12.546   0.983   5.854
27248SOL    HW130583  12.554   0.926   5.772
27248SOL    HW230584  12.498   1.068   5.831
27249SOL     OW30585   0.760   8.609   1.113
27249SOL    HW130586   0.666   8.575   1.115
27249SOL    HW230587   0.759   8.708   1.106
27250SOL     OW30588   8.743   0.688   7.414
27250SOL    HW130589   8.793   0.608   7.448
27250SOL    HW230590   8.653   0.692   7.458
27251SOL     OW30591   5.222   4.686   6.822
27251SOL    HW130592   5.306   4.645   6.788
27251SOL    HW230593   5.243   4.766   6.879
27252SOL     OW30594   0.207  11.728   2.212
27252SOL    HW130595   0.289  11.681   2.245
27252SOL    HW230596   0.129  11.704   2.270
27253SOL     OW30597  12.799   8.695   6.410
27253SOL    HW130598  12.780   8.744   6.326
27253SOL    HW230599  12.873   8.629   6.395
27254SOL     OW30600   2.860   5.461   8.318
27254SOL    HW130601   2.818   5.449   8.408
27254SOL    HW230602   2.798   5.424   8.248
27255SOL     OW30603  11.276   2.776   7.434
27255SOL    HW130604  11.284   2.867   7.475
27255SOL    HW230605  11.255   2.709   7.505
27256SOL     OW30606   9.926  16.632   7.439
27256SOL    HW130607   9.897  16.694   7.366
27256SOL    HW230608   9.972  16.553   7.398
27257SOL     OW30609  12.974   8.929   7.121
27257SOL    HW130610  13.032   8.886   7.053
27257SOL    HW230611  13.004   9.023   7.135
27258SOL     OW30612  10.987   5.245   8.194
27258SOL    HW130613  11.001   5.149   8.171
27258SOL    HW230614  11.015   5.302   8.116
27259SOL     OW30615  10.945  13.845   7.487
27259SOL    HW130616  10.933  13.914   7.416
27259SOL    HW230617  11.042  13.839   7.511
27260SOL     OW30618   9.672   9.971   8.438
27260SOL    HW130619   9.742  10.020   0.036
27260SOL    HW230620   9.584   9.978   0.033
27261SOL     OW30621   7.873   3.237   8.203
27261SOL    HW130622   7.791   3.293   8.219
27261SOL    HW230623   7.941   3.291   8.154
27262SOL     OW30624  16.924  16.952   7.452
27262SOL    HW130625  16.889   0.003   7.365
27262SOL    HW230626  16.908  16.854   7.458
27263SOL     OW30627   6.257   1.272   1.021
27263SOL    HW130628   6.322   1.292   0.947
27263SOL    HW230629   6.307   1.262   1.107
27264SOL     OW30630  16.942   4.867   6.934
27264SOL    HW130631  16.912   4.902   6.845
27264SOL    HW230632  16.885   4.789   6.960
27265SOL     OW30633   6.748  10.808   7.747
27265SOL    HW130634   6.765  10.906   7.738
27265SOL    HW230635   6.729  10.769   7.657
27266SOL     OW30636   5.328  16.836   0.439
27266SOL    HW130637   5.385  16.876   0.367
27266SOL    HW230638   5.235  16.870   0.431
27267SOL     OW30639   6.444   8.797   7.845
27267SOL    HW130640   6.512   8.865   7.818
27267SOL    HW230641   6.488   8.708   7.857
27268SOL     OW30642   0.729  10.288   0.502
27268SOL    HW130643   0.690  10.364   0.554
27268SOL    HW230644   0.812  10.320   0.456
27269SOL     OW30645  13.541   3.249   7.016
27269SOL    HW130646  13.602   3.314   6.971
27269SOL    HW230647  13.462   3.231   6.957
27270SOL     OW30648   1.690   1.562   7.554
27270SOL    HW130649   1.597   1.530   7.535
27270SOL    HW230650   1.736   1.586   7.468
27271SOL     OW30651  14.570  11.580   6.425
27271SOL    HW130652  14.593  11.532   6.510
27271SOL    HW230653  14.490  11.538   6.384
27272SOL     OW30654  16.663   0.827   1.094
27272SOL    HW130655  16.644   0.784   1.182
27272SOL    HW230656  16.594   0.798   1.027
27273SOL     OW30657   8.375  13.122   1.341
27273SOL    HW130658   8.339  13.209   1.374
27273SOL    HW230659   8.465  13.137   1.299
27274SOL     OW30660  15.480  14.565   0.731
27274SOL    HW130661  15.458  14.652   0.775
27274SOL    HW230662  15.576  14.565   0.702
27275SOL     OW30663  16.515   6.877   6.532
27275SOL    HW130664  16.582   6.803   6.542
27275SOL    HW230665  16.428   6.839   6.499
27276SOL     OW30666   3.111  15.202   7.894
27276SOL    HW130667   3.020  15.243   7.888
27276SOL    HW230668   3.135  15.185   7.989
27277SOL     OW30669   0.945  11.884   7.118
27277SOL    HW130670   0.871  11.872   7.051
27277SOL    HW230671   0.975  11.980   7.118
27278SOL     OW30672  14.603   7.769   0.714
27278SOL    HW130673  14.625   7.672   0.719
27278SOL    HW230674  14.686   7.823   0.731
27279SOL     OW30675   2.102   0.603   1.016
27279SOL    HW130676   2.034   0.571   1.082
27279SOL    HW230677   2.056   0.654   0.943
27280SOL     OW30678   6.152   0.088   0.893
27280SOL    HW130679   6.105   0.112   0.978
27280SOL    HW230680   6.192  16.979   0.902
27281SOL     OW30681   6.413   9.074   0.619
27281SOL    HW130682   6.422   9.126   0.535
27281SOL    HW230683   6.342   9.114   0.676
27282SOL     OW30684   6.789   7.003   7.784
27282SOL    HW130685   6.867   6.965   7.734
27282SOL    HW230686   6.778   6.955   7.871
27283SOL     OW30687  13.525   7.708   1.336
27283SOL    HW130688  13.475   7.740   1.417
27283SOL    HW230689  13.597   7.644   1.364
27284SOL     OW30690  11.881  11.585   1.240
27284SOL    HW130691  11.819  11.645   1.289
27284SOL    HW230692  11.932  11.637   1.172
27285SOL     OW30693   6.267  10.088   1.647
27285SOL    HW130694   6.198  10.138   1.701
27285SOL    HW230695   6.310  10.019   1.705
27286SOL     OW30696   6.682  12.657   6.959
27286SOL    HW130697   6.645  12.590   7.023
27286SOL    HW230698   6.613  12.728   6.941
27287SOL     OW30699   1.112  16.478   7.250
27287SOL    HW130700   1.166  16.483   7.167
27287SOL    HW230701   1.084  16.383   7.267
27288SOL     OW30702   1.476  14.612   0.170
27288SOL    HW130703   1.492  14.711   0.174
27288SOL    HW230704   1.435  14.581   0.256
27289SOL     OW30705  16.787   0.312   0.591
27289SOL    HW130706  16.838   0.367   0.658
27289SOL    HW230707  16.852   0.262   0.534
27290SOL     OW30708   8.868  14.559   6.525
27290SOL    HW130709   8.845  14.642   6.578
27290SOL    HW230710   8.828  14.566   6.434
27291SOL     OW30711  15.628   7.505   0.986
27291SOL    HW130712  15.680   7.457   1.056
27291SOL    HW230713  15.549   7.450   0.959
27292SOL     OW30714  11.904  14.533   8.171
27292SOL    HW130715  11.972  14.549   8.242
27292SOL    HW230716  11.940  14.562   8.082
27293SOL     OW30717   1.106   6.247   6.460
27293SOL    HW130718   1.174   6.319   6.477
27293SOL    HW230719   1.119   6.209   6.369
27294SOL     OW30720  15.149  10.456   7.252
27294SOL    HW130721  15.100  10.437   7.167
27294SOL    HW230722  15.127  10.385   7.319
27295SOL     OW30723  12.784  14.881   6.647
27295SOL    HW130724  12.748  14.973   6.665
27295SOL    HW230725  12.735  14.841   6.569
27296SOL     OW30726  15.163   6.080   1.184
27296SOL    HW130727  15.175   6.042   1.275
27296SOL    HW230728  15.252   6.104   1.146
27297SOL     OW30729  10.127  13.196   6.665
27297SOL    HW130730  10.186  13.229   6.739
27297SOL    HW230731  10.086  13.274   6.617
27298SOL     OW30732   7.874   4.364   2.032
27298SOL    HW130733   7.914   4.368   2.124
27298SOL    HW230734   7.788   4.313   2.035
27299SOL     OW30735  10.192   0.252   1.346
27299SOL    HW130736  10.240   0.262   1.434
27299SOL    HW230737  10.227   0.319   1.281
27300SOL     OW30738   8.291  15.015   6.138
27300SOL    HW130739   8.240  14.955   6.077
27300SOL    HW230740   8.304  15.104   6.095
27301SOL     OW30741   1.834   5.284   0.924
27301SOL    HW130742   1.815   5.333   1.009
27301SOL    HW230743   1.792   5.332   0.847
27302SOL     OW30744   5.256  14.052   6.723
27302SOL    HW130745   5.163  14.088   6.717
27302SOL    HW230746   5.261  13.964   6.675
27303SOL     OW30747  13.538  12.179   1.457
27303SOL    HW130748  13.508  12.100   1.510
27303SOL    HW230749  13.573  12.250   1.518
27304SOL     OW30750  10.446   4.152   6.739
27304SOL    HW130751  10.479   4.224   6.800
27304SOL    HW230752  10.389   4.193   6.667
27305SOL     OW30753   6.360   9.460   0.052
27305SOL    HW130754   6.382   9.547   0.095
27305SOL    HW230755   6.337   9.476   8.409
27306SOL     OW30756   2.402   5.230   0.019
27306SOL    HW130757   2.339   5.158   0.050
27306SOL    HW230758   2.393   5.310   0.080
27307SOL     OW30759   7.062  13.856   7.902
27307SOL    HW130760   7.107  13.767   7.896
27307SOL    HW230761   6.978  13.848   7.955
27308SOL     OW30762   1.159   9.196   1.811
27308SOL    HW130763   1.257   9.176   1.818
27308SOL    HW230764   1.145   9.282   1.763
27309SOL     OW30765  14.035  11.192   7.608
27309SOL    HW130766  13.946  11.223   7.642
27309SOL    HW230767  14.085  11.147   7.681
27310SOL     OW30768  12.696   4.918   7.232
27310SOL    HW130769  12.688   4.863   7.149
27310SOL    HW230770  12.626   4.889   7.298
27311SOL     OW30771   3.486   8.230   7.458
27311SOL    HW130772   3.526   8.316   7.426
27311SOL    HW230773   3.392   8.245   7.489
27312SOL     OW30774   8.698   5.422   7.062
27312SOL    HW130775   8.694   5.358   7.139
27312SOL    HW230776   8.621   5.485   7.068
27313SOL     OW30777   6.411   4.007   1.218
27313SOL    HW130778   6.365   4.082   1.266
27313SOL    HW230779   6.384   3.919   1.259
27314SOL     OW30780  16.900  11.706   7.094
27314SOL    HW130781  16.848  11.697   7.010
27314SOL    HW230782  16.942  11.618   7.117
27315SOL     OW30783   0.910   5.288   1.548
27315SOL    HW130784   0.822   5.335   1.539
27315SOL    HW230785   0.895   5.198   1.588
27316SOL     OW30786  12.194  11.439   1.358
27316SOL    HW130787  12.239  11.407   1.274
27316SOL    HW230788  12.103  11.398   1.364
27317SOL     OW30789   1.590  13.964   0.876
27317SOL    HW130790   1.682  13.927   0.871
27317SOL    HW230791   1.546  13.956   0.786
27318SOL     OW30792   1.776   4.480   7.639
27318SOL    HW130793   1.869   4.481   7.601
27318SOL    HW230794   1.722   4.554   7.598
27319SOL     OW30795   9.594  11.274   1.599
27319SOL    HW130796   9.545  11.360   1.608
27319SOL    HW230797   9.541  11.211   1.542
27320SOL     OW30798   3.231   4.148   7.317
27320SOL    HW130799   3.283   4.123   7.235
27320SOL    HW230800   3.294   4.162   7.393
27321SOL     OW30801   5.773   5.946   0.592
27321SOL    HW130802   5.867   5.943   0.557
27321SOL    HW230803   5.745   5.854   0.619
27322SOL     OW30804  11.029  16.885   0.037
27322SOL    HW130805  10.933  16.857   0.034
27322SOL    HW230806  11.048  16.949   8.416
27323SOL     OW30807  12.357   3.995   6.083
27323SOL    HW130808  12.330   3.969   5.991
27323SOL    HW230809  12.449   3.962   6.102
27324SOL     OW30810   3.657  15.067   1.779
27324SOL    HW130811   3.682  14.978   1.742
27324SOL    HW230812   3.586  15.055   1.849
27325SOL     OW30813   5.227  16.879   2.044
27325SOL    HW130814   5.140  16.859   1.998
27325SOL    HW230815   5.210  16.906   2.138
27326SOL     OW30816   3.505   7.746   7.274
27326SOL    HW130817   3.575   7.818   7.267
27326SOL    HW230818   3.414   7.786   7.267
27327SOL     OW30819   8.634  14.218   2.394
27327SOL    HW130820   8.714  14.190   2.446
27327SOL    HW230821   8.562  14.148   2.403
27328SOL     OW30822  15.734   4.409   7.741
27328SOL    HW130823  15.751   4.424   7.838
27328SOL    HW230824  15.636   4.413   7.723
27329SOL     OW30825   9.544  14.368   7.483
27329SOL    HW130826   9.567  14.449   7.537
27329SOL    HW230827   9.471  14.317   7.529
27330SOL     OW30828  11.039   9.371   8.195
27330SOL    HW130829  11.129   9.390   8.155
27330SOL    HW230830  10.968   9.410   8.137
27331SOL     OW30831  14.295   2.342   7.736
27331SOL    HW130832  14.351   2.397   7.798
27331SOL    HW230833  14.310   2.371   7.642
27332SOL     OW30834  10.081  13.036   8.423
27332SOL    HW130835  10.051  13.131   8.431
27332SOL    HW230836  10.179  13.034   8.405
27333SOL     OW30837   7.333  10.614   7.606
27333SOL    HW130838   7.308  10.563   7.688
27333SOL    HW230839   7.320  10.556   7.525
27334SOL     OW30840   7.103  15.075   1.114
27334SOL    HW130841   7.040  14.997   1.104
27334SOL    HW230842   7.055  15.150   1.160
27335SOL     OW30843  11.305  14.968   0.273
27335SOL    HW130844  11.403  14.965   0.251
27335SOL    HW230845  11.283  15.058   0.310
27336SOL     OW30846   5.683   4.760   7.847
27336SOL    HW130847   5.770   4.802   7.821
27336SOL    HW230848   5.685   4.735   7.943
27337SOL     OW30849  12.596  15.213   1.655
27337SOL    HW130850  12.588  15.201   1.754
27337SOL    HW230851  12.675  15.270   1.635
27338SOL     OW30852  11.631  15.516   8.074
27338SOL    HW130853  11.684  15.463   8.008
27338SOL    HW230854  11.556  15.561   8.027
27339SOL     OW30855   7.610  16.928   7.515
27339SOL    HW130856   7.608  16.877   7.429
27339SOL    HW230857   7.540   0.016   7.514
27340SOL     OW30858   2.118  12.648   7.682
27340SOL    HW130859   2.090  12.552   7.681
27340SOL    HW230860   2.184  12.664   7.608
27341SOL     OW30861  10.759   8.081   1.346
27341SOL    HW130862  10.795   8.171   1.323
27341SOL    HW230863  10.675   8.064   1.294
27342SOL     OW30864  12.333   8.256   0.599
27342SOL    HW130865  12.233   8.250   0.601
27342SOL    HW230866  12.371   8.202   0.674
27343SOL     OW30867   2.120   0.424   8.139
27343SOL    HW130868   2.197   0.485   8.118
27343SOL    HW230869   2.149   0.356   8.206
27344SOL     OW30870   2.836   7.761   8.391
27344SOL    HW130871   2.749   7.799   8.421
27344SOL    HW230872   2.829   7.661   8.388
27345SOL     OW30873  13.656  10.184   6.347
27345SOL    HW130874  13.601  10.251   6.296
27345SOL    HW230875  13.595  10.120   6.394
27346SOL     OW30876   9.659   3.501   6.193
27346SOL    HW130877   9.694   3.544   6.110
27346SOL    HW230878   9.683   3.557   6.272
27347SOL     OW30879  16.590   2.400   7.120
27347SOL    HW130880  16.537   2.475   7.159
27347SOL    HW230881  16.687   2.415   7.136
27348SOL     OW30882   0.917   5.880   0.804
27348SOL    HW130883   0.822   5.854   0.819
27348SOL    HW230884   0.963   5.808   0.752
27349SOL     OW30885  14.688  11.374   0.426
27349SOL    HW130886  14.686  11.397   0.523
27349SOL    HW230887  14.601  11.398   0.384
27350SOL     OW30888  14.126   1.119   0.691
27350SOL    HW130889  14.205   1.066   0.661
27350SOL    HW230890  14.069   1.063   0.751
27351SOL     OW30891   6.516   9.236   8.446
27351SOL    HW130892   6.611   9.264   0.005
27351SOL    HW230893   6.455   9.314   0.010
27352SOL     OW30894   4.491  15.650   2.321
27352SOL    HW130895   4.569  15.685   2.373
27352SOL    HW230896   4.420  15.720   2.315
27353SOL     OW30897   5.697   7.982   0.922
27353SOL    HW130898   5.746   8.025   0.998
27353SOL    HW230899   5.761   7.935   0.862
27354SOL     OW30900  11.880   0.628   0.219
27354SOL    HW130901  11.953   0.642   0.285
27354SOL    HW230902  11.828   0.546   0.243
27355SOL     OW30903   9.235   3.597   1.605
27355SOL    HW130904   9.330   3.625   1.607
27355SOL    HW230905   9.190   3.638   1.525
27356SOL     OW30906  16.033   0.955   5.814
27356SOL    HW130907  16.110   0.981   5.872
27356SOL    HW230908  16.065   0.890   5.745
27357SOL     OW30909  15.388  15.734   7.584
27357SOL    HW130910  15.420  15.683   7.664
27357SOL    HW230911  15.290  15.751   7.593
27358SOL     OW30912  11.527  10.543   1.889
27358SOL    HW130913  11.497  10.586   1.974
27358SOL    HW230914  11.587  10.466   1.911
27359SOL     OW30915   9.388   3.520   6.177
27359SOL    HW130916   9.484   3.496   6.192
27359SOL    HW230917   9.366   3.509   6.081
27360SOL     OW30918   8.203  14.422   7.947
27360SOL    HW130919   8.286  14.439   7.893
27360SOL    HW230920   8.155  14.508   7.961
27361SOL     OW30921  12.382   8.586   1.590
27361SOL    HW130922  12.381   8.490   1.561
27361SOL    HW230923  12.319   8.638   1.534
27362SOL     OW30924   5.862  11.309   7.345
27362SOL    HW130925   5.925  11.318   7.423
27362SOL    HW230926   5.842  11.399   7.308
27363SOL     OW30927   0.824   6.017   7.529
27363SOL    HW130928   0.724   6.011   7.529
27363SOL    HW230929   0.858   5.998   7.437
27364SOL     OW30930   0.973   5.832   8.334
27364SOL    HW130931   0.929   5.762   8.390
27364SOL    HW230932   0.928   5.835   8.245
27365SOL     OW30933  10.997   3.831   0.201
27365SOL    HW130934  10.934   3.844   0.278
27365SOL    HW230935  11.011   3.919   0.154
27366SOL     OW30936  10.993   0.291   0.295
27366SOL    HW130937  11.084   0.255   0.277
27366SOL    HW230938  10.987   0.384   0.258
27367SOL     OW30939   2.968   6.545   0.712
27367SOL    HW130940   2.948   6.505   0.802
27367SOL    HW230941   3.002   6.638   0.724
27368SOL     OW30942   6.588  14.461   1.708
27368SOL    HW130943   6.499  14.416   1.716
27368SOL    HW230944   6.576  14.560   1.714
27369SOL     OW30945   7.561   0.419   0.873
27369SOL    HW130946   7.554   0.378   0.782
27369SOL    HW230947   7.512   0.506   0.874
27370SOL     OW30948  16.902   4.933   1.272
27370SOL    HW130949  16.802   4.934   1.275
27370SOL    HW230950  16.938   4.912   1.363
27371SOL     OW30951   9.720  12.227   1.489
27371SOL    HW130952   9.644  12.243   1.552
27371SOL    HW230953   9.720  12.131   1.462
27372SOL     OW30954   9.016   9.676   8.015
27372SOL    HW130955   9.041   9.620   8.094
27372SOL    HW230956   9.075   9.756   8.011
27373SOL     OW30957  16.110  16.257   6.377
27373SOL    HW130958  16.037  16.193   6.356
27373SOL    HW230959  16.177  16.256   6.302
27374SOL     OW30960  13.090   9.036   1.341
27374SOL    HW130961  13.182   9.004   1.365
27374SOL    HW230962  13.096   9.128   1.303
27375SOL     OW30963   7.256  10.870   8.001
27375SOL    HW130964   7.353  10.849   8.010
27375SOL    HW230965   7.226  10.926   8.078
27376SOL     OW30966   9.485   9.128   6.873
27376SOL    HW130967   9.500   9.224   6.852
27376SOL    HW230968   9.485   9.075   6.788
27377SOL     OW30969   3.099   3.569   6.514
27377SOL    HW130970   3.106   3.645   6.448
27377SOL    HW230971   3.152   3.491   6.479
27378SOL     OW30972  16.665  12.980   6.710
27378SOL    HW130973  16.669  13.078   6.695
27378SOL    HW230974  16.701  12.933   6.629
27379SOL     OW30975  13.251  10.367   0.328
27379SOL    HW130976  13.180  10.353   0.259
27379SOL    HW230977  13.253  10.289   0.391
27380SOL     OW30978  12.023   6.490   1.191
27380SOL    HW130979  12.045   6.531   1.103
27380SOL    HW230980  12.083   6.528   1.262
27381SOL     OW30981  10.730   1.116   0.574
27381SOL    HW130982  10.808   1.055   0.557
27381SOL    HW230983  10.646   1.072   0.544
27382SOL     OW30984  11.578   2.410   6.490
27382SOL    HW130985  11.608   2.320   6.459
27382SOL    HW230986  11.658   2.470   6.500
27383SOL     OW30987  11.438   0.518   0.013
27383SOL    HW130988  11.401   0.570   8.391
27383SOL    HW230989  11.535   0.540   0.024
27384SOL     OW30990   1.634   2.390   0.203
27384SOL    HW130991   1.731   2.407   0.219
27384SOL    HW230992   1.621   2.295   0.173
27385SOL     OW30993   1.452   6.448   8.120
27385SOL    HW130994   1.436   6.416   8.213
27385SOL    HW230995   1.398   6.530   8.103
27386SOL     OW30996  16.653  16.914   0.475
27386SOL    HW130997  16.671  16.816   0.483
27386SOL    HW230998  16.706  16.951   0.399
27387SOL     OW30999  11.203  13.806   7.571
27387SOL    HW131000  11.190  13.791   7.669
27387SOL    HW231001  11.282  13.866   7.557
27388SOL     OW31002   8.010  14.304   6.981
27388SOL    HW131003   8.082  14.270   6.922
27388SOL    HW231004   7.968  14.385   6.940
27389SOL     OW31005   8.339  13.232   2.478
27389SOL    HW131006   8.421  13.177   2.492
27389SOL    HW231007   8.339  13.310   2.541
27390SOL     OW31008   4.254   8.899   2.231
27390SOL    HW131009   4.327   8.910   2.163
27390SOL    HW231010   4.293   8.863   2.316
27391SOL     OW31011  15.193  15.442   0.024
27391SOL    HW131012  15.111  15.402   0.065
27391SOL    HW231013  15.169  15.486   8.391
27392SOL     OW31014   6.698  10.040   7.405
27392SOL    HW131015   6.730  10.102   7.335
27392SOL    HW231016   6.606  10.066   7.434
27393SOL     OW31017  15.574  15.283   1.488
27393SOL    HW131018  15.579  15.312   1.392
27393SOL    HW231019  15.513  15.204   1.495
27394SOL     OW31020  10.445   1.552   7.236
27394SOL    HW131021  10.517   1.531   7.169
27394SOL    HW231022  10.479   1.533   7.328
27395SOL     OW31023  14.861  14.213   0.554
27395SOL    HW131024  14.795  14.143   0.582
27395SOL    HW231025  14.941  14.169   0.514
27396SOL     OW31026   2.895   6.399   0.944
27396SOL    HW131027   2.955   6.320   0.960
27396SOL    HW231028   2.850   6.425   1.029
27397SOL     OW31029   8.027  14.607   2.181
27397SOL    HW131030   7.984  14.546   2.248
27397SOL    HW231031   8.126  14.604   2.192
27398SOL     OW31032   7.380   8.772   1.320
27398SOL    HW131033   7.311   8.824   1.269
27398SOL    HW231034   7.366   8.786   1.418
27399SOL     OW31035  15.187   9.730   7.037
27399SOL    HW131036  15.104   9.742   7.091
27399SOL    HW231037  15.215   9.818   6.999
27400SOL     OW31038  15.504   8.761   1.035
27400SOL    HW131039  15.521   8.835   0.969
27400SOL    HW231040  15.447   8.691   0.992
27401SOL     OW31041   7.526  12.154   7.129
27401SOL    HW131042   7.620  12.120   7.133
27401SOL    HW231043   7.466  12.082   7.094
27402SOL     OW31044   7.291   2.725   0.948
27402SOL    HW131045   7.242   2.717   1.034
27402SOL    HW231046   7.381   2.767   0.964
27403SOL     OW31047  15.779   9.351   7.154
27403SOL    HW131048  15.803   9.299   7.236
27403SOL    HW231049  15.818   9.443   7.161
27404SOL     OW31050  12.219  12.967   8.197
27404SOL    HW131051  12.262  12.909   8.267
27404SOL    HW231052  12.189  13.053   8.238
27405SOL     OW31053  16.875   3.909   7.576
27405SOL    HW131054  16.883   3.881   7.672
27405SOL    HW231055  16.782   3.889   7.543
27406SOL     OW31056  16.165   4.717   8.248
27406SOL    HW131057  16.199   4.639   8.302
27406SOL    HW231058  16.082   4.753   8.290
27407SOL     OW31059   0.218   7.209   8.341
27407SOL    HW131060   0.119   7.212   8.357
27407SOL    HW231061   0.265   7.249   8.419
27408SOL     OW31062  16.873   3.228   8.293
27408SOL    HW131063  16.966   3.195   8.275
27408SOL    HW231064  16.877   3.314   8.343
27409SOL     OW31065  15.416   6.623   0.744
27409SOL    HW131066  15.463   6.710   0.756
27409SOL    HW231067  15.372   6.596   0.830
27410SOL     OW31068  14.347  13.108   0.771
27410SOL    HW131069  14.333  13.173   0.846
27410SOL    HW231070  14.443  13.082   0.767
27411SOL     OW31071  14.201   2.018   0.792
27411SOL    HW131072  14.300   2.019   0.780
27411SOL    HW231073  14.164   1.932   0.758
27412SOL     OW31074   1.920   9.026   6.652
27412SOL    HW131075   1.884   9.067   6.569
27412SOL    HW231076   1.948   9.098   6.716
27413SOL     OW31077   3.570  14.659   8.233
27413SOL    HW131078   3.562  14.564   8.205
27413SOL    HW231079   3.478  14.699   8.241
27414SOL     OW31080   6.499   0.757   7.129
27414SOL    HW131081   6.559   0.827   7.166
27414SOL    HW231082   6.438   0.797   7.061
27415SOL     OW31083   9.645   7.514   6.778
27415SOL    HW131084   9.563   7.516   6.720
27415SOL    HW231085   9.624   7.554   6.867
27416SOL     OW31086  14.241   1.902   0.160
27416SOL    HW131087  14.189   1.951   0.231
27416SOL    HW231088  14.260   1.809   0.191
27417SOL     OW31089  10.107   5.509   6.306
27417SOL    HW131090  10.090   5.546   6.215
27417SOL    HW231091  10.150   5.419   6.297
27418SOL     OW31092  11.335  11.485   1.014
27418SOL    HW131093  11.378  11.511   0.928
27418SOL    HW231094  11.236  11.492   1.006
27419SOL     OW31095  13.060  10.264   6.806
27419SOL    HW131096  12.962  10.245   6.806
27419SOL    HW231097  13.104  10.218   6.729
27420SOL     OW31098  14.961  12.672   1.562
27420SOL    HW131099  14.964  12.714   1.652
27420SOL    HW231100  14.866  12.653   1.536
27421SOL     OW31101   9.475   5.704   7.245
27421SOL    HW131102   9.425   5.617   7.251
27421SOL    HW231103   9.519   5.711   7.156
27422SOL     OW31104  14.654   7.978   6.160
27422SOL    HW131105  14.746   7.994   6.123
27422SOL    HW231106  14.611   8.065   6.182
27423SOL     OW31107   3.263   0.945   7.447
27423SOL    HW131108   3.349   0.949   7.397
27423SOL    HW231109   3.209   1.027   7.427
27424SOL     OW31110   5.565  10.052   0.626
27424SOL    HW131111   5.538  10.140   0.587
27424SOL    HW231112   5.546  10.052   0.725
27425SOL     OW31113  16.526  10.310   8.241
27425SOL    HW131114  16.607  10.296   8.186
27425SOL    HW231115  16.552  10.344   8.332
27426SOL     OW31116   9.648  13.155   7.229
27426SOL    HW131117   9.652  13.222   7.155
27426SOL    HW231118   9.564  13.166   7.281
27427SOL     OW31119  13.471  16.202   7.376
27427SOL    HW131120  13.413  16.278   7.349
27427SOL    HW231121  13.465  16.189   7.475
27428SOL     OW31122   4.546   3.224   7.954
27428SOL    HW131123   4.511   3.149   7.899
27428SOL    HW231124   4.633   3.197   7.995
27429SOL     OW31125   1.157   3.009   8.217
27429SOL    HW131126   1.192   3.012   8.310
27429SOL    HW231127   1.060   3.032   8.217
27430SOL     OW31128  15.411   6.251   0.205
27430SOL    HW131129  15.493   6.217   0.158
27430SOL    HW231130  15.434   6.334   0.256
27431SOL     OW31131   7.492   5.849   7.031
27431SOL    HW131132   7.444   5.909   7.096
27431SOL    HW231133   7.425   5.796   6.980
27432SOL     OW31134   7.872  15.931   7.576
27432SOL    HW131135   7.870  15.847   7.522
27432SOL    HW231136   7.836  15.912   7.668
27433SOL     OW31137   7.947  13.589   1.419
27433SOL    HW131138   8.018  13.560   1.355
27433SOL    HW231139   7.971  13.677   1.460
27434SOL     OW31140   9.211   7.506   7.651
27434SOL    HW131141   9.278   7.459   7.708
27434SOL    HW231142   9.210   7.466   7.560
27435SOL     OW31143   6.994   2.867   6.961
27435SOL    HW131144   6.975   2.837   6.868
27435SOL    HW231145   6.944   2.951   6.980
27436SOL     OW31146  12.992   5.743   1.330
27436SOL    HW131147  13.023   5.801   1.405
27436SOL    HW231148  13.056   5.667   1.317
27437SOL     OW31149   8.658   5.548   8.334
27437SOL    HW131150   8.740   5.507   8.293
27437SOL    HW231151   8.684   5.623   8.395
27438SOL     OW31152   0.096   6.070   7.492
27438SOL    HW131153   0.151   6.138   7.445
27438SOL    HW231154   0.106   6.081   7.591
27439SOL     OW31155   0.733   4.738   5.999
27439SOL    HW131156   0.828   4.766   6.014
27439SOL    HW231157   0.680   4.816   5.964
27440SOL     OW31158   6.601   8.936   8.443
27440SOL    HW131159   6.645   8.932   0.079
27440SOL    HW231160   6.555   9.024   8.432
27441SOL     OW31161   7.270   1.783   1.358
27441SOL    HW131162   7.308   1.753   1.446
27441SOL    HW231163   7.171   1.796   1.367
27442SOL     OW31164   7.899   8.996   0.048
27442SOL    HW131165   7.862   8.938   8.429
27442SOL    HW231166   7.931   8.939   0.124
27443SOL     OW31167   0.363   7.124   6.235
27443SOL    HW131168   0.275   7.094   6.270
27443SOL    HW231169   0.366   7.224   6.233
27444SOL     OW31170  10.351   2.622   7.038
27444SOL    HW131171  10.444   2.657   7.040
27444SOL    HW231172  10.324   2.595   7.131
27445SOL     OW31173   5.892   3.549   0.859
27445SOL    HW131174   5.807   3.592   0.828
27445SOL    HW231175   5.898   3.457   0.819
27446SOL     OW31176   9.444  11.407   8.020
27446SOL    HW131177   9.472  11.311   8.029
27446SOL    HW231178   9.517  11.466   8.056
27447SOL     OW31179   2.047  14.509   2.628
27447SOL    HW131180   2.124  14.474   2.682
27447SOL    HW231181   2.061  14.486   2.532
27448SOL     OW31182  14.161   9.408   0.141
27448SOL    HW131183  14.095   9.479   0.165
27448SOL    HW231184  14.218   9.386   0.221
27449SOL     OW31185   1.961  14.913   1.510
27449SOL    HW131186   2.008  14.849   1.571
27449SOL    HW231187   2.028  14.967   1.459
27450SOL     OW31188  13.562   8.576   7.916
27450SOL    HW131189  13.580   8.569   8.015
27450SOL    HW231190  13.465   8.592   7.901
27451SOL     OW31191  15.811   8.024   0.129
27451SOL    HW131192  15.776   8.110   0.165
27451SOL    HW231193  15.744   7.951   0.145
27452SOL     OW31194   8.048   1.047   1.186
27452SOL    HW131195   7.975   1.094   1.236
27452SOL    HW231196   8.133   1.100   1.192
27453SOL     OW31197  10.903   0.243   2.006
27453SOL    HW131198  10.889   0.287   2.095
27453SOL    HW231199  10.966   0.166   2.017
27454SOL     OW31200   8.850   6.047   1.536
27454SOL    HW131201   8.853   6.082   1.442
27454SOL    HW231202   8.802   5.959   1.537
27455SOL     OW31203   8.013   6.896   0.062
27455SOL    HW131204   8.042   6.801   0.052
27455SOL    HW231205   8.081   6.946   0.116
27456SOL     OW31206  13.356  16.412   1.868
27456SOL    HW131207  13.262  16.428   1.837
27456SOL    HW231208  13.363  16.434   1.965
27457SOL     OW31209   1.878   8.244   6.973
27457SOL    HW131210   1.917   8.297   7.048
27457SOL    HW231211   1.795   8.198   7.005
27458SOL     OW31212  10.689   5.364   7.641
27458SOL    HW131213  10.602   5.317   7.653
27458SOL    HW231214  10.749   5.345   7.719
27459SOL     OW31215  10.760   3.832   0.972
27459SOL    HW131216  10.858   3.811   0.974
27459SOL    HW231217  10.738   3.875   0.884
27460SOL     OW31218   1.514   6.997   7.910
27460SOL    HW131219   1.562   7.058   7.972
27460SOL    HW231220   1.427   6.968   7.951
27461SOL     OW31221  16.734   3.725   0.455
27461SOL    HW131222  16.830   3.752   0.439
27461SOL    HW231223  16.684   3.803   0.493
27462SOL     OW31224   3.762  10.875   7.303
27462SOL    HW131225   3.787  10.779   7.288
27462SOL    HW231226   3.668  10.880   7.336
27463SOL     OW31227   0.999   9.596   1.830
27463SOL    HW131228   1.038   9.666   1.890
27463SOL    HW231229   0.917   9.557   1.873
27464SOL     OW31230   1.405   6.113   7.720
27464SOL    HW131231   1.355   6.029   7.740
27464SOL    HW231232   1.429   6.158   7.806
27465SOL     OW31233   1.923   4.550   7.143
27465SOL    HW131234   1.903   4.466   7.193
27465SOL    HW231235   2.008   4.590   7.178
27466SOL     OW31236  10.443   9.313   8.034
27466SOL    HW131237  10.516   9.275   7.976
27466SOL    HW231238  10.444   9.266   8.122
27467SOL     OW31239  12.186   8.341   7.721
27467SOL    HW131240  12.146   8.392   7.797
27467SOL    HW231241  12.274   8.381   7.696
27468SOL     OW31242   6.365   4.675   1.578
27468SOL    HW131243   6.301   4.663   1.654
27468SOL    HW231244   6.440   4.735   1.607
27469SOL     OW31245  15.267   3.858   0.038
27469SOL    HW131246  15.245   3.852   0.136
27469SOL    HW231247  15.292   3.767   0.004
27470SOL     OW31248   9.416  13.987   6.550
27470SOL    HW131249   9.318  13.997   6.532
27470SOL    HW231250   9.466  14.059   6.501
27471SOL     OW31251   0.418   2.739   6.385
27471SOL    HW131252   0.412   2.734   6.286
27471SOL    HW231253   0.330   2.712   6.425
27472SOL     OW31254   1.446   3.682   6.593
27472SOL    HW131255   1.373   3.730   6.544
27472SOL    HW231256   1.525   3.671   6.533
27473SOL     OW31257   5.628   1.758   7.652
27473SOL    HW131258   5.633   1.659   7.665
27473SOL    HW231259   5.635   1.780   7.555
27474SOL     OW31260   1.707   9.418   7.943
27474SOL    HW131261   1.646   9.340   7.926
27474SOL    HW231262   1.799   9.395   7.914
27475SOL     OW31263  13.345   1.425   8.265
27475SOL    HW131264  13.272   1.384   8.210
27475SOL    HW231265  13.349   1.523   8.249
27476SOL     OW31266   6.087   5.422   0.975
27476SOL    HW131267   5.999   5.398   0.935
27476SOL    HW231268   6.073   5.458   1.067
27477SOL     OW31269   2.374  13.491   7.197
27477SOL    HW131270   2.281  13.457   7.178
27477SOL    HW231271   2.396  13.564   7.133
27478SOL     OW31272  10.345   1.746   6.841
27478SOL    HW131273  10.294   1.678   6.894
27478SOL    HW231274  10.325   1.735   6.744
27479SOL     OW31275   1.362  13.699   0.823
27479SOL    HW131276   1.387  13.708   0.727
27479SOL    HW231277   1.263  13.692   0.831
27480SOL     OW31278  12.093   9.130   0.141
27480SOL    HW131279  12.047   9.174   0.064
27480SOL    HW231280  12.155   9.058   0.107
27481SOL     OW31281   0.347  13.319   7.240
27481SOL    HW131282   0.368  13.349   7.147
27481SOL    HW231283   0.409  13.244   7.265
27482SOL     OW31284  10.670   7.656   6.847
27482SOL    HW131285  10.667   7.740   6.795
27482SOL    HW231286  10.762   7.617   6.842
27483SOL     OW31287  13.309  10.946   6.856
27483SOL    HW131288  13.288  10.915   6.763
27483SOL    HW231289  13.353  11.037   6.852
27484SOL     OW31290  12.663  11.495   1.393
27484SOL    HW131291  12.742  11.436   1.374
27484SOL    HW231292  12.629  11.476   1.486
27485SOL     OW31293  15.399   7.132   1.272
27485SOL    HW131294  15.473   7.140   1.338
27485SOL    HW231295  15.321   7.186   1.303
27486SOL     OW31296   0.655  16.216   7.993
27486SOL    HW131297   0.617  16.137   7.946
27486SOL    HW231298   0.581  16.279   8.019
27487SOL     OW31299  16.223  12.216   0.118
27487SOL    HW131300  16.301  12.254   0.067
27487SOL    HW231301  16.139  12.231   0.065
27488SOL     OW31302   6.705  10.699   1.067
27488SOL    HW131303   6.658  10.622   1.110
27488SOL    HW231304   6.644  10.779   1.065
27489SOL     OW31305  14.124   0.576   8.119
27489SOL    HW131306  14.046   0.539   8.170
27489SOL    HW231307  14.143   0.517   8.041
27490SOL     OW31308   5.476   3.589   1.567
27490SOL    HW131309   5.510   3.586   1.473
27490SOL    HW231310   5.529   3.654   1.620
27491SOL     OW31311   0.623   5.994   0.165
27491SOL    HW131312   0.596   5.957   0.076
27491SOL    HW231313   0.602   6.092   0.168
27492SOL     OW31314   1.989   8.400   7.703
27492SOL    HW131315   1.961   8.468   7.635
27492SOL    HW231316   2.089   8.394   7.704
27493SOL     OW31317   8.243   0.368   1.000
27493SOL    HW131318   8.259   0.466   1.010
27493SOL    HW231319   8.330   0.321   0.983
27494SOL     OW31320   6.210  15.259   7.555
27494SOL    HW131321   6.223  15.356   7.574
27494SOL    HW231322   6.294  15.209   7.577
27495SOL     OW31323   3.235   4.938   0.627
27495SOL    HW131324   3.313   4.876   0.637
27495SOL    HW231325   3.267   5.029   0.601
27496SOL     OW31326   7.069   8.483   2.329
27496SOL    HW131327   7.007   8.561   2.321
27496SOL    HW231328   7.144   8.505   2.391
27497SOL     OW31329  10.565   0.552   6.310
27497SOL    HW131330  10.573   0.623   6.240
27497SOL    HW231331  10.656   0.524   6.341
27498SOL     OW31332  10.049  10.809   0.474
27498SOL    HW131333  10.148  10.819   0.485
27498SOL    HW231334  10.024  10.831   0.380
27499SOL     OW31335  14.621   1.191   6.476
27499SOL    HW131336  14.604   1.277   6.429
27499SOL    HW231337  14.579   1.193   6.567
27500SOL     OW31338  10.281   8.538   1.727
27500SOL    HW131339  10.244   8.622   1.687
27500SOL    HW231340  10.287   8.549   1.827
27501SOL     OW31341   3.010   4.027   7.433
27501SOL    HW131342   3.026   3.931   7.454
27501SOL    HW231343   3.087   4.063   7.381
27502SOL     OW31344   8.932  15.027   7.111
27502SOL    HW131345   8.836  15.001   7.095
27502SOL    HW231346   8.976  14.958   7.169
27503SOL     OW31347   7.156   1.459   1.501
27503SOL    HW131348   7.253   1.441   1.517
27503SOL    HW231349   7.130   1.545   1.544
27504SOL     OW31350   1.060   1.163   1.702
27504SOL    HW131351   1.077   1.227   1.777
27504SOL    HW231352   1.142   1.156   1.645
27505SOL     OW31353   7.750  13.830   1.854
27505SOL    HW131354   7.692  13.762   1.810
27505SOL    HW231355   7.696  13.883   1.920
27506SOL     OW31356   1.153   8.209   1.633
27506SOL    HW131357   1.107   8.126   1.667
27506SOL    HW231358   1.107   8.241   1.550
27507SOL     OW31359  13.111  15.005   7.802
27507SOL    HW131360  13.099  15.102   7.784
27507SOL    HW231361  13.186  14.992   7.868
27508SOL     OW31362  15.363  11.839   0.686
27508SOL    HW131363  15.284  11.873   0.737
27508SOL    HW231364  15.415  11.776   0.744
27509SOL     OW31365  12.802   3.872   6.857
27509SOL    HW131366  12.890   3.913   6.882
27509SOL    HW231367  12.732   3.943   6.856
27510SOL     OW31368   9.542   4.810   6.142
27510SOL    HW131369   9.495   4.780   6.058
27510SOL    HW231370   9.628   4.760   6.151
27511SOL     OW31371  13.006   1.080   0.529
27511SOL    HW131372  13.093   1.127   0.545
27511SOL    HW231373  12.983   1.024   0.609
27512SOL     OW31374  11.391  12.014   6.751
27512SOL    HW131375  11.454  12.054   6.818
27512SOL    HW231376  11.426  12.029   6.659
27513SOL     OW31377   9.270   6.014   6.389
27513SOL    HW131378   9.323   5.992   6.471
27513SOL    HW231379   9.325   6.070   6.328
27514SOL     OW31380   0.164  14.890   1.775
27514SOL    HW131381   0.147  14.800   1.735
27514SOL    HW231382   0.112  14.899   1.859
27515SOL     OW31383   4.595   4.893   2.180
27515SOL    HW131384   4.598   4.986   2.216
27515SOL    HW231385   4.509   4.850   2.208
27516SOL     OW31386   4.965   5.014   7.670
27516SOL    HW131387   4.911   4.930   7.673
27516SOL    HW231388   4.974   5.051   7.763
27517SOL     OW31389  15.994   5.417   7.186
27517SOL    HW131390  16.039   5.502   7.159
27517SOL    HW231391  15.969   5.365   7.104
27518SOL     OW31392   4.636   9.513   7.225
27518SOL    HW131393   4.581   9.592   7.199
27518SOL    HW231394   4.732   9.531   7.207
27519SOL     OW31395  10.561  14.661   1.621
27519SOL    HW131396  10.462  14.649   1.623
27519SOL    HW231397  10.583  14.757   1.602
27520SOL     OW31398  16.677   0.901   6.768
27520SOL    HW131399  16.720   0.958   6.838
27520SOL    HW231400  16.607   0.955   6.720
27521SOL     OW31401   9.287  16.271   0.581
27521SOL    HW131402   9.219  16.202   0.559
27521SOL    HW231403   9.276  16.300   0.676
27522SOL     OW31404   8.709   2.383   8.083
27522SOL    HW131405   8.648   2.325   8.029
27522SOL    HW231406   8.745   2.456   8.024
27523SOL     OW31407  13.975  14.969   0.404
27523SOL    HW131408  13.901  15.026   0.365
27523SOL    HW231409  14.047  14.958   0.336
27524SOL     OW31410  16.571  15.245   1.265
27524SOL    HW131411  16.602  15.150   1.262
27524SOL    HW231412  16.646  15.305   1.237
27525SOL     OW31413   0.454  16.467   2.545
27525SOL    HW131414   0.458  16.555   2.590
27525SOL    HW231415   0.363  16.452   2.506
27526SOL     OW31416   1.140   6.817   0.551
27526SOL    HW131417   1.135   6.719   0.531
27526SOL    HW231418   1.068   6.864   0.500
27527SOL     OW31419   3.642  15.233   7.773
27527SOL    HW131420   3.545  15.223   7.797
27527SOL    HW231421   3.651  15.264   7.679
27528SOL     OW31422  11.753  13.078   7.604
27528SOL    HW131423  11.807  13.091   7.687
27528SOL    HW231424  11.718  13.165   7.572
27529SOL     OW31425   1.712  15.485   1.623
27529SOL    HW131426   1.683  15.573   1.661
27529SOL    HW231427   1.807  15.467   1.648
27530SOL     OW31428   8.840   9.004   0.609
27530SOL    HW131429   8.759   9.050   0.645
27530SOL    HW231430   8.896   8.971   0.685
27531SOL     OW31431   1.776   9.635   8.419
27531SOL    HW131432   1.758   9.588   0.051
27531SOL    HW231433   1.755   9.574   8.343
27532SOL     OW31434   6.768   3.393   6.902
27532SOL    HW131435   6.670   3.393   6.919
27532SOL    HW231436   6.811   3.317   6.952
27533SOL     OW31437   4.034   5.615   7.626
27533SOL    HW131438   4.025   5.713   7.612
27533SOL    HW231439   4.114   5.596   7.682
27534SOL     OW31440  13.995   4.087   7.134
27534SOL    HW131441  13.918   4.025   7.152
27534SOL    HW231442  14.008   4.097   7.036
27535SOL     OW31443   6.200   2.289   0.008
27535SOL    HW131444   6.292   2.274   8.426
27535SOL    HW231445   6.156   2.363   8.412
27536SOL     OW31446   9.192  13.772   0.603
27536SOL    HW131447   9.097  13.741   0.600
27536SOL    HW231448   9.195  13.871   0.588
27537SOL     OW31449   0.919  14.949   6.931
27537SOL    HW131450   0.892  14.916   6.840
27537SOL    HW231451   0.964  15.038   6.923
27538SOL     OW31452   5.964  11.784   2.037
27538SOL    HW131453   6.050  11.797   2.087
27538SOL    HW231454   5.960  11.691   2.001
27539SOL     OW31455   3.685   8.337   1.853
27539SOL    HW131456   3.642   8.269   1.795
27539SOL    HW231457   3.618   8.372   1.919
27540SOL     OW31458  12.345   4.333   8.443
27540SOL    HW131459  12.400   4.374   8.371
27540SOL    HW231460  12.356   4.386   0.074
27541SOL     OW31461  15.167   6.822   8.146
27541SOL    HW131462  15.074   6.858   8.137
27541SOL    HW231463  15.228   6.896   8.175
27542SOL     OW31464  11.231   3.868   6.844
27542SOL    HW131465  11.147   3.816   6.830
27542SOL    HW231466  11.300   3.840   6.777
27543SOL     OW31467  15.593   4.784   7.616
27543SOL    HW131468  15.641   4.764   7.531
27543SOL    HW231469  15.651   4.838   7.676
27544SOL     OW31470  16.274   4.903   1.330
27544SOL    HW131471  16.344   4.884   1.399
27544SOL    HW231472  16.318   4.925   1.243
27545SOL     OW31473   2.585  11.948   7.615
27545SOL    HW131474   2.626  12.023   7.666
27545SOL    HW231475   2.651  11.873   7.608
27546SOL     OW31476  13.952  16.491   6.725
27546SOL    HW131477  13.905  16.540   6.798
27546SOL    HW231478  13.886  16.436   6.674
27547SOL     OW31479   7.294   5.033   7.955
27547SOL    HW131480   7.367   4.993   7.898
27547SOL    HW231481   7.249   5.107   7.905
27548SOL     OW31482  10.013  15.345   8.110
27548SOL    HW131483  10.007  15.444   8.104
27548SOL    HW231484  10.044  15.308   8.022
27549SOL     OW31485  11.977   6.609   8.296
27549SOL    HW131486  11.904   6.574   8.354
27549SOL    HW231487  12.045   6.657   8.352
27550SOL     OW31488  10.636   7.509   0.390
27550SOL    HW131489  10.558   7.451   0.367
27550SOL    HW231490  10.687   7.468   0.466
27551SOL     OW31491   2.591  12.500   8.120
27551SOL    HW131492   2.560  12.586   8.079
27551SOL    HW231493   2.558  12.495   8.214
27552SOL     OW31494   3.678  12.206   8.113
27552SOL    HW131495   3.593  12.252   8.087
27552SOL    HW231496   3.704  12.143   8.040
27553SOL     OW31497   3.812   1.709   0.706
27553SOL    HW131498   3.775   1.772   0.639
27553SOL    HW231499   3.897   1.747   0.744
27554SOL     OW31500   7.121   9.695   1.378
27554SOL    HW131501   7.182   9.773   1.394
27554SOL    HW231502   7.132   9.663   1.284
27555SOL     OW31503  16.673   3.575   1.192
27555SOL    HW131504  16.686   3.584   1.291
27555SOL    HW231505  16.762   3.573   1.147
27556SOL     OW31506   9.168   8.030   8.091
27556SOL    HW131507   9.200   8.049   8.184
27556SOL    HW231508   9.185   8.110   8.033
27557SOL     OW31509   0.737   3.422   1.087
27557SOL    HW131510   0.689   3.359   1.148
27557SOL    HW231511   0.685   3.507   1.079
27558SOL     OW31512   6.051   8.557   7.217
27558SOL    HW131513   5.981   8.594   7.155
27558SOL    HW231514   6.100   8.633   7.260
27559SOL     OW31515  16.618   7.916   7.612
27559SOL    HW131516  16.570   7.831   7.588
27559SOL    HW231517  16.646   7.964   7.529
27560SOL     OW31518  15.456  13.167   1.003
27560SOL    HW131519  15.539  13.110   1.007
27560SOL    HW231520  15.400  13.149   1.083
27561SOL     OW31521   3.731  12.034   1.214
27561SOL    HW131522   3.826  12.054   1.194
27561SOL    HW231523   3.674  12.060   1.137
27562SOL     OW31524   5.492  16.648   0.549
27562SOL    HW131525   5.425  16.710   0.507
27562SOL    HW231526   5.543  16.698   0.619
27563SOL     OW31527  16.740  14.689   0.151
27563SOL    HW131528  16.819  14.647   0.196
27563SOL    HW231529  16.673  14.717   0.220
27564SOL     OW31530   7.673   4.774   0.901
27564SOL    HW131531   7.599   4.840   0.916
27564SOL    HW231532   7.751   4.821   0.858
27565SOL     OW31533   0.603  14.477   7.784
27565SOL    HW131534   0.554  14.391   7.794
27565SOL    HW231535   0.626  14.513   7.875
27566SOL     OW31536  11.748   3.283   7.128
27566SOL    HW131537  11.702   3.219   7.067
27566SOL    HW231538  11.756   3.243   7.219
27567SOL     OW31539  12.325   5.586   6.816
27567SOL    HW131540  12.235   5.602   6.855
27567SOL    HW231541  12.395   5.600   6.886
27568SOL     OW31542  15.781   0.104   6.734
27568SOL    HW131543  15.834   0.111   6.649
27568SOL    HW231544  15.683   0.108   6.712
27569SOL     OW31545  11.666  16.907   8.162
27569SOL    HW131546  11.627  16.980   8.105
27569SOL    HW231547  11.593  16.865   8.216
27570SOL     OW31548  15.862   2.144   7.321
27570SOL    HW131549  15.927   2.116   7.392
27570SOL    HW231550  15.779   2.089   7.330
27571SOL     OW31551   3.511   7.213   7.908
27571SOL    HW131552   3.568   7.144   7.864
27571SOL    HW231553   3.544   7.304   7.882
27572SOL     OW31554  14.206   8.114   0.111
27572SOL    HW131555  14.207   8.027   0.062
27572SOL    HW231556  14.168   8.185   0.052
27573SOL     OW31557   1.273   1.680   7.456
27573SOL    HW131558   1.324   1.749   7.507
27573SOL    HW231559   1.175   1.695   7.467
27574SOL     OW31560  13.871   5.797   7.709
27574SOL    HW131561  13.859   5.797   7.610
27574SOL    HW231562  13.944   5.860   7.734
27575SOL     OW31563   2.838   7.647   7.681
27575SOL    HW131564   2.828   7.629   7.779
27575SOL    HW231565   2.787   7.729   7.657
27576SOL     OW31566  10.273  16.405   8.407
27576SOL    HW131567  10.366  16.432   8.384
27576SOL    HW231568  10.224  16.483   8.447
27577SOL     OW31569  16.684   2.381   8.430
27577SOL    HW131570  16.595   2.402   8.389
27577SOL    HW231571  16.671   2.319   0.054
27578SOL     OW31572   5.448  12.484   0.945
27578SOL    HW131573   5.497  12.551   0.889
27578SOL    HW231574   5.494  12.475   1.033
27579SOL     OW31575   7.516   8.084   6.557
27579SOL    HW131576   7.602   8.111   6.514
27579SOL    HW231577   7.445   8.076   6.487
27580SOL     OW31578   4.315  14.694   7.334
27580SOL    HW131579   4.257  14.698   7.415
27580SOL    HW231580   4.375  14.774   7.331
27581SOL     OW31581  11.492   6.658   8.281
27581SOL    HW131582  11.501   6.712   8.364
27581SOL    HW231583  11.532   6.707   8.204
27582SOL     OW31584  13.067   5.939   5.990
27582SOL    HW131585  12.978   5.971   5.957
27582SOL    HW231586  13.126   5.917   5.912
27583SOL     OW31587   7.449  14.326   0.262
27583SOL    HW131588   7.515  14.277   0.319
27583SOL    HW231589   7.380  14.370   0.320
27584SOL     OW31590   0.889   8.636   7.062
27584SOL    HW131591   0.874   8.717   7.118
27584SOL    HW231592   0.980   8.640   7.020
27585SOL     OW31593   8.479   7.280   6.976
27585SOL    HW131594   8.491   7.187   7.008
27585SOL    HW231595   8.387   7.291   6.937
27586SOL     OW31596   3.033   8.302   0.907
27586SOL    HW131597   3.119   8.287   0.956
27586SOL    HW231598   2.986   8.381   0.946
27587SOL     OW31599   1.537   9.203   7.894
27587SOL    HW131600   1.445   9.191   7.857
27587SOL    HW231601   1.602   9.153   7.836
27588SOL     OW31602   4.790   3.383   7.164
27588SOL    HW131603   4.736   3.313   7.117
27588SOL    HW231604   4.756   3.473   7.140
27589SOL     OW31605   9.592  16.360   0.865
27589SOL    HW131606   9.635  16.399   0.783
27589SOL    HW231607   9.634  16.272   0.887
27590SOL     OW31608  13.941  14.925   7.568
27590SOL    HW131609  13.862  14.895   7.621
27590SOL    HW231610  13.932  15.023   7.548
27591SOL     OW31611   0.258   3.026   0.002
27591SOL    HW131612   0.272   2.974   0.086
27591SOL    HW231613   0.327   3.000   8.388
27592SOL     OW31614  10.479  12.229   7.033
27592SOL    HW131615  10.463  12.259   6.939
27592SOL    HW231616  10.571  12.190   7.040
27593SOL     OW31617  16.234  13.196   7.528
27593SOL    HW131618  16.157  13.240   7.575
27593SOL    HW231619  16.251  13.107   7.568
27594SOL     OW31620  14.072   5.912   6.134
27594SOL    HW131621  14.160   5.895   6.179
27594SOL    HW231622  14.087   5.957   6.046
27595SOL     OW31623   1.815  11.208   0.696
27595SOL    HW131624   1.879  11.192   0.771
27595SOL    HW231625   1.779  11.121   0.663
27596SOL     OW31626  16.401   3.707   7.016
27596SOL    HW131627  16.354   3.773   6.957
27596SOL    HW231628  16.493   3.691   6.982
27597SOL     OW31629   3.686   6.772   0.058
27597SOL    HW131630   3.607   6.732   0.012
27597SOL    HW231631   3.763   6.709   0.053
27598SOL     OW31632  10.812   9.992   1.226
27598SOL    HW131633  10.799  10.015   1.130
27598SOL    HW231634  10.733   9.939   1.258
27599SOL     OW31635  16.599   6.298   6.528
27599SOL    HW131636  16.535   6.299   6.452
27599SOL    HW231637  16.614   6.204   6.559
27600SOL     OW31638   8.394  16.379   6.952
27600SOL    HW131639   8.393  16.450   6.881
27600SOL    HW231640   8.488  16.360   6.979
27601SOL     OW31641  11.545   7.440   1.410
27601SOL    HW131642  11.505   7.365   1.357
27601SOL    HW231643  11.479   7.514   1.417
27602SOL     OW31644   3.885  14.602   7.914
27602SOL    HW131645   3.806  14.553   7.877
27602SOL    HW231646   3.969  14.569   7.869
27603SOL     OW31647   4.560   7.497   1.708
27603SOL    HW131648   4.519   7.428   1.767
27603SOL    HW231649   4.657   7.477   1.696
27604SOL     OW31650   6.559  14.107   2.090
27604SOL    HW131651   6.628  14.104   2.017
27604SOL    HW231652   6.597  14.154   2.170
27605SOL     OW31653   8.265   6.823   1.285
27605SOL    HW131654   8.172   6.856   1.298
27605SOL    HW231655   8.270   6.725   1.304
27606SOL     OW31656  12.569   5.811   0.058
27606SOL    HW131657  12.578   5.808   8.412
27606SOL    HW231658  12.581   5.719   0.096
27607SOL     OW31659   0.398  12.962   0.680
27607SOL    HW131660   0.398  12.870   0.719
27607SOL    HW231661   0.326  12.969   0.610
27608SOL     OW31662  14.275   4.444   6.544
27608SOL    HW131663  14.253   4.520   6.606
27608SOL    HW231664  14.363   4.404   6.570
27609SOL     OW31665   6.783   7.937   1.328
27609SOL    HW131666   6.740   7.947   1.238
27609SOL    HW231667   6.712   7.922   1.397
27610SOL     OW31668  14.620  13.720   0.336
27610SOL    HW131669  14.563  13.639   0.338
27610SOL    HW231670  14.566  13.799   0.307
27611SOL     OW31671   6.034   6.801   1.001
27611SOL    HW131672   5.936   6.817   1.008
27611SOL    HW231673   6.069   6.770   1.090
27612SOL     OW31674  10.934  13.040   7.577
27612SOL    HW131675  11.005  13.107   7.601
27612SOL    HW231676  10.940  13.019   7.479
27613SOL     OW31677   8.925  16.958   8.025
27613SOL    HW131678   9.017  16.960   7.984
27613SOL    HW231679   8.886  16.867   8.011
27614SOL     OW31680  16.780  15.395   1.180
27614SOL    HW131681  16.838  15.418   1.102
27614SOL    HW231682  16.829  15.416   1.265
27615SOL     OW31683   0.865  13.534   0.773
27615SOL    HW131684   0.808  13.596   0.720
27615SOL    HW231685   0.830  13.440   0.762
27616SOL     OW31686   1.414  15.357   0.206
27616SOL    HW131687   1.369  15.361   0.296
27616SOL    HW231688   1.347  15.329   0.137
27617SOL     OW31689   4.435   3.826   7.686
27617SOL    HW131690   4.376   3.906   7.698
27617SOL    HW231691   4.422   3.788   7.594
27618SOL     OW31692  13.453  16.682   7.351
27618SOL    HW131693  13.520  16.750   7.382
27618SOL    HW231694  13.373  16.683   7.411
27619SOL     OW31695  12.497   2.977   0.481
27619SOL    HW131696  12.453   2.902   0.433
27619SOL    HW231697  12.588   2.950   0.511
27620SOL     OW31698   3.572   4.215   1.294
27620SOL    HW131699   3.531   4.296   1.336
27620SOL    HW231700   3.508   4.174   1.229
27621SOL     OW31701  14.228  12.318   8.106
27621SOL    HW131702  14.248  12.251   8.034
27621SOL    HW231703  14.184  12.398   8.065
27622SOL     OW31704   5.470  11.611   1.669
27622SOL    HW131705   5.509  11.703   1.671
27622SOL    HW231706   5.467  11.574   1.762
27623SOL     OW31707  11.398   7.584   7.073
27623SOL    HW131708  11.348   7.516   7.019
27623SOL    HW231709  11.492   7.589   7.041
27624SOL     OW31710   2.151  11.559   2.205
27624SOL    HW131711   2.065  11.598   2.170
27624SOL    HW231712   2.135  11.519   2.295
27625SOL     OW31713   9.105   3.989   6.982
27625SOL    HW131714   9.155   4.060   7.032
27625SOL    HW231715   9.013   4.023   6.960
27626SOL     OW31716   2.350   7.806   6.736
27626SOL    HW131717   2.373   7.709   6.733
27626SOL    HW231718   2.350   7.843   6.643
27627SOL     OW31719   4.376  16.350   1.363
27627SOL    HW131720   4.339  16.370   1.272
27627SOL    HW231721   4.425  16.430   1.397
27628SOL     OW31722   7.781   2.104   0.034
27628SOL    HW131723   7.798   2.080   0.130
27628SOL    HW231724   7.818   2.195   0.016
27629SOL     OW31725   7.544  16.509   0.378
27629SOL    HW131726   7.590  16.480   0.294
27629SOL    HW231727   7.554  16.438   0.448
27630SOL     OW31728   7.478  15.241   7.265
27630SOL    HW131729   7.482  15.141   7.268
27630SOL    HW231730   7.520  15.279   7.347
27631SOL     OW31731  11.975  11.938   8.401
27631SOL    HW131732  11.997  12.028   8.363
27631SOL    HW231733  12.029  11.923   0.030
27632SOL     OW31734   6.929  10.897   0.448
27632SOL    HW131735   6.871  10.950   0.510
27632SOL    HW231736   6.883  10.812   0.423
27633SOL     OW31737   6.719  12.338   1.113
27633SOL    HW131738   6.683  12.424   1.151
27633SOL    HW231739   6.795  12.306   1.170
27634SOL     OW31740   7.498   2.582   6.626
27634SOL    HW131741   7.437   2.503   6.620
27634SOL    HW231742   7.560   2.582   6.548
27635SOL     OW31743  12.170   5.912   7.875
27635SOL    HW131744  12.240   5.960   7.928
27635SOL    HW231745  12.080   5.952   7.895
27636SOL     OW31746  15.897   6.615   8.191
27636SOL    HW131747  15.836   6.536   8.186
27636SOL    HW231748  15.968   6.608   8.121
27637SOL     OW31749  13.976   3.889   8.231
27637SOL    HW131750  13.909   3.831   8.276
27637SOL    HW231751  13.940   3.982   8.220
27638SOL     OW31752  11.228  11.037   7.446
27638SOL    HW131753  11.306  11.099   7.432
27638SOL    HW231754  11.192  11.009   7.358
27639SOL     OW31755  10.293   0.564   6.325
27639SOL    HW131756  10.276   0.652   6.279
27639SOL    HW231757  10.392   0.548   6.327
27640SOL     OW31758   7.166   6.402   6.909
27640SOL    HW131759   7.261   6.418   6.883
27640SOL    HW231760   7.112   6.484   6.892
27641SOL     OW31761  10.702   2.551   6.796
27641SOL    HW131762  10.622   2.546   6.737
27641SOL    HW231763  10.785   2.542   6.740
27642SOL     OW31764  16.156  10.956   1.226
27642SOL    HW131765  16.191  10.957   1.320
27642SOL    HW231766  16.086  10.886   1.217
27643SOL     OW31767   9.624  14.908   0.755
27643SOL    HW131768   9.644  14.849   0.677
27643SOL    HW231769   9.551  14.867   0.810
27644SOL     OW31770   9.332   4.462   0.340
27644SOL    HW131771   9.392   4.408   0.398
27644SOL    HW231772   9.374   4.552   0.323
27645SOL     OW31773  15.897   0.614   5.716
27645SOL    HW131774  15.801   0.634   5.698
27645SOL    HW231775  15.905   0.531   5.771
27646SOL     OW31776  12.298  11.413   6.453
27646SOL    HW131777  12.385  11.457   6.472
27646SOL    HW231778  12.268  11.434   6.360
27647SOL     OW31779  16.907  15.311   7.328
27647SOL    HW131780  16.858  15.274   7.249
27647SOL    HW231781  16.879  15.405   7.344
27648SOL     OW31782  16.222  14.563   6.979
27648SOL    HW131783  16.152  14.493   6.987
27648SOL    HW231784  16.190  14.649   7.019
27649SOL     OW31785   5.846   1.908   1.708
27649SOL    HW131786   5.788   1.926   1.787
27649SOL    HW231787   5.941   1.897   1.737
27650SOL     OW31788   4.813   0.960   1.260
27650SOL    HW131789   4.714   0.946   1.262
27650SOL    HW231790   4.854   0.898   1.193
27651SOL     OW31791   7.508  15.545   8.342
27651SOL    HW131792   7.494  15.447   8.356
27651SOL    HW231793   7.553  15.560   8.254
27652SOL     OW31794   3.674   5.622   0.026
27652SOL    HW131795   3.615   5.544   0.006
27652SOL    HW231796   3.658   5.694   8.413
27653SOL     OW31797   5.210   9.434   7.959
27653SOL    HW131798   5.231   9.345   7.919
27653SOL    HW231799   5.274   9.502   7.924
27654SOL     OW31800   2.182   0.371   0.874
27654SOL    HW131801   2.166   0.457   0.922
27654SOL    HW231802   2.187   0.296   0.939
27655SOL     OW31803   6.098   6.194   6.902
27655SOL    HW131804   6.120   6.264   6.835
27655SOL    HW231805   6.030   6.131   6.864
27656SOL     OW31806  11.230  10.407   8.339
27656SOL    HW131807  11.191  10.498   8.324
27656SOL    HW231808  11.165  10.337   8.310
27657SOL     OW31809   0.143  11.844   1.337
27657SOL    HW131810   0.219  11.893   1.295
27657SOL    HW231811   0.171  11.752   1.361
27658SOL     OW31812   9.966  12.672   8.005
27658SOL    HW131813   9.950  12.644   8.100
27658SOL    HW231814   9.930  12.602   7.943
27659SOL     OW31815  13.624  14.187   0.166
27659SOL    HW131816  13.562  14.130   0.112
27659SOL    HW231817  13.704  14.210   0.111
27660SOL     OW31818   3.272  10.321   6.299
27660SOL    HW131819   3.206  10.254   6.268
27660SOL    HW231820   3.308  10.372   6.221
27661SOL     OW31821   7.749   0.019   8.115
27661SOL    HW131822   7.789  16.911   8.112
27661SOL    HW231823   7.821   0.087   8.096
27662SOL     OW31824   8.674  12.975   0.638
27662SOL    HW131825   8.772  12.990   0.647
27662SOL    HW231826   8.656  12.876   0.631
27663SOL     OW31827   9.852   7.568   1.495
27663SOL    HW131828   9.869   7.649   1.551
27663SOL    HW231829   9.883   7.584   1.402
27664SOL     OW31830   9.163   6.896   1.955
27664SOL    HW131831   9.232   6.834   1.991
27664SOL    HW231832   9.085   6.899   2.018
27665SOL     OW31833   7.517  12.590   1.612
27665SOL    HW131834   7.489  12.547   1.527
27665SOL    HW231835   7.467  12.675   1.625
27666SOL     OW31836  13.374   7.018   0.360
27666SOL    HW131837  13.284   6.994   0.325
27666SOL    HW231838  13.384   7.117   0.364
27667SOL     OW31839  10.674   7.715   1.069
27667SOL    HW131840  10.690   7.621   1.039
27667SOL    HW231841  10.595   7.753   1.022
27668SOL     OW31842   1.919   9.466   6.718
27668SOL    HW131843   1.836   9.421   6.752
27668SOL    HW231844   1.934   9.440   6.623
27669SOL     OW31845  12.499   7.135   0.515
27669SOL    HW131846  12.419   7.155   0.571
27669SOL    HW231847  12.562   7.212   0.517
27670SOL     OW31848  15.647   7.195   1.831
27670SOL    HW131849  15.701   7.250   1.894
27670SOL    HW231850  15.708   7.143   1.771
27671SOL     OW31851   5.615   2.835   7.026
27671SOL    HW131852   5.528   2.885   7.026
27671SOL    HW231853   5.691   2.901   7.031
27672SOL     OW31854   0.667  16.183   1.199
27672SOL    HW131855   0.575  16.164   1.165
27672SOL    HW231856   0.685  16.127   1.280
27673SOL     OW31857  16.043  13.075   8.062
27673SOL    HW131858  16.044  13.057   8.160
27673SOL    HW231859  15.952  13.108   8.035
27674SOL     OW31860   5.510   2.905   6.225
27674SOL    HW131861   5.489   2.974   6.156
27674SOL    HW231862   5.494   2.814   6.186
27675SOL     OW31863   0.243  10.263   1.267
27675SOL    HW131864   0.279  10.279   1.359
27675SOL    HW231865   0.174  10.332   1.245
27676SOL     OW31866   9.210   3.744   1.990
27676SOL    HW131867   9.211   3.825   2.049
27676SOL    HW231868   9.164   3.766   1.904
27677SOL     OW31869  11.870   5.551   7.618
27677SOL    HW131870  11.865   5.556   7.518
27677SOL    HW231871  11.961   5.520   7.646
27678SOL     OW31872   1.617   8.174   0.936
27678SOL    HW131873   1.626   8.233   0.856
27678SOL    HW231874   1.607   8.230   1.018
27679SOL     OW31875   0.320   8.513   7.517
27679SOL    HW131876   0.382   8.458   7.460
27679SOL    HW231877   0.237   8.460   7.535
27680SOL     OW31878   6.462  16.045   7.118
27680SOL    HW131879   6.481  16.113   7.047
27680SOL    HW231880   6.468  15.953   7.078
27681SOL     OW31881   4.821   9.654   0.945
27681SOL    HW131882   4.853   9.559   0.936
27681SOL    HW231883   4.749   9.672   0.878
27682SOL     OW31884   5.830   3.652   6.805
27682SOL    HW131885   5.908   3.627   6.862
27682SOL    HW231886   5.861   3.667   6.711
27683SOL     OW31887  16.224  14.981   1.821
27683SOL    HW131888  16.210  15.057   1.758
27683SOL    HW231889  16.153  14.982   1.891
27684SOL     OW31890   0.696   9.750   2.154
27684SOL    HW131891   0.607   9.709   2.177
27684SOL    HW231892   0.695   9.847   2.180
27685SOL     OW31893  12.354   5.159   7.978
27685SOL    HW131894  12.389   5.082   8.032
27685SOL    HW231895  12.295   5.215   8.035
27686SOL     OW31896   1.526   0.076   8.212
27686SOL    HW131897   1.587   0.010   8.255
27686SOL    HW231898   1.543   0.167   8.249
27687SOL     OW31899   7.356   5.475   7.931
27687SOL    HW131900   7.377   5.498   8.026
27687SOL    HW231901   7.439   5.445   7.884
27688SOL     OW31902  12.986  12.073   0.162
27688SOL    HW131903  13.051  12.126   0.108
27688SOL    HW231904  12.939  12.134   0.226
27689SOL     OW31905  12.477   4.707   6.674
27689SOL    HW131906  12.568   4.731   6.709
27689SOL    HW231907  12.451   4.772   6.603
27690SOL     OW31908   3.822  16.329   7.107
27690SOL    HW131909   3.829  16.420   7.067
27690SOL    HW231910   3.905  16.277   7.086
27691SOL     OW31911  15.646   1.234   6.869
27691SOL    HW131912  15.699   1.199   6.948
27691SOL    HW231913  15.707   1.243   6.790
27692SOL     OW31914   4.290   7.081   0.550
27692SOL    HW131915   4.263   6.985   0.549
27692SOL    HW231916   4.285   7.116   0.644
27693SOL     OW31917   3.108  16.126   0.620
27693SOL    HW131918   3.152  16.058   0.561
27693SOL    HW231919   3.011  16.134   0.596
27694SOL     OW31920  11.583  14.233   6.909
27694SOL    HW131921  11.670  14.193   6.938
27694SOL    HW231922  11.567  14.211   6.812
27695SOL     OW31923  13.481   7.834   0.589
27695SOL    HW131924  13.491   7.931   0.565
27695SOL    HW231925  13.571   7.792   0.596
27696SOL     OW31926  15.370   7.002   8.201
27696SOL    HW131927  15.395   7.048   8.116
27696SOL    HW231928  15.434   6.926   8.218
27697SOL     OW31929   4.553  13.368   1.814
27697SOL    HW131930   4.558  13.279   1.769
27697SOL    HW231931   4.458  13.386   1.841
27698SOL     OW31932  13.018  13.529   1.602
27698SOL    HW131933  12.969  13.543   1.517
27698SOL    HW231934  12.954  13.535   1.679
27699SOL     OW31935  12.953  11.778   1.089
27699SOL    HW131936  12.911  11.801   1.001
27699SOL    HW231937  12.882  11.763   1.157
27700SOL     OW31938   7.325   1.680   1.866
27700SOL    HW131939   7.229   1.683   1.892
27700SOL    HW231940   7.382   1.696   1.946
27701SOL     OW31941   9.812  15.229   1.027
27701SOL    HW131942   9.776  15.230   0.934
27701SOL    HW231943   9.817  15.323   1.062
27702SOL     OW31944   1.431   7.912   7.317
27702SOL    HW131945   1.368   7.844   7.355
27702SOL    HW231946   1.425   7.996   7.371
27703SOL     OW31947   3.234   9.388   8.335
27703SOL    HW131948   3.315   9.335   8.361
27703SOL    HW231949   3.210   9.368   8.241
27704SOL     OW31950   1.838  12.459   2.198
27704SOL    HW131951   1.767  12.389   2.196
27704SOL    HW231952   1.905  12.437   2.269
27705SOL     OW31953   5.298   7.727   0.045
27705SOL    HW131954   5.381   7.764   0.005
27705SOL    HW231955   5.320   7.644   0.097
27706SOL     OW31956   8.211  16.901   7.250
27706SOL    HW131957   8.281  16.972   7.255
27706SOL    HW231958   8.135  16.932   7.194
27707SOL     OW31959   6.070   9.366   8.199
27707SOL    HW131960   6.034   9.415   8.279
27707SOL    HW231961   6.075   9.268   8.219
27708SOL     OW31962  13.461   2.785   7.803
27708SOL    HW131963  13.503   2.873   7.824
27708SOL    HW231964  13.462   2.728   7.885
27709SOL     OW31965   6.690  16.834   0.538
27709SOL    HW131966   6.638  16.755   0.571
27709SOL    HW231967   6.644  16.918   0.566
27710SOL     OW31968   7.669  13.136   1.534
27710SOL    HW131969   7.596  13.164   1.596
27710SOL    HW231970   7.716  13.218   1.499
27711SOL     OW31971  13.703   2.366   0.107
27711SOL    HW131972  13.802   2.355   0.093
27711SOL    HW231973  13.676   2.319   0.190
27712SOL     OW31974  12.108  12.530   1.754
27712SOL    HW131975  12.111  12.431   1.743
27712SOL    HW231976  12.170  12.557   1.828
27713SOL     OW31977  15.284   6.215   0.680
27713SOL    HW131978  15.279   6.142   0.611
27713SOL    HW231979  15.301   6.302   0.634
27714SOL     OW31980   1.767   8.086   8.190
27714SOL    HW131981   1.707   8.090   8.270
27714SOL    HW231982   1.733   8.016   8.127
27715SOL     OW31983   2.748   7.127   0.090
27715SOL    HW131984   2.718   7.141   8.449
27715SOL    HW231985   2.816   7.197   0.113
27716SOL     OW31986  16.316   2.467   7.954
27716SOL    HW131987  16.277   2.557   7.933
27716SOL    HW231988  16.252   2.416   8.010
27717SOL     OW31989   1.901  15.802   1.497
27717SOL    HW131990   1.896  15.814   1.596
27717SOL    HW231991   1.968  15.732   1.475
27718SOL     OW31992   5.349   5.085   6.210
27718SOL    HW131993   5.278   5.052   6.147
27718SOL    HW231994   5.418   5.137   6.158
27719SOL     OW31995   8.898   4.657   8.086
27719SOL    HW131996   8.933   4.567   8.059
27719SOL    HW231997   8.960   4.728   8.052
27720SOL     OW31998   0.746   9.438   8.324
27720SOL    HW131999   0.693   9.396   8.250
27720SOL    HW232000   0.815   9.373   8.356
27721SOL     OW32001  15.793  14.673   7.109
27721SOL    HW132002  15.807  14.576   7.129
27721SOL    HW232003  15.788  14.687   7.011
27722SOL     OW32004   9.989   6.444   0.285
27722SOL    HW132005  10.032   6.407   0.368
27722SOL    HW232006   9.892   6.423   0.286
27723SOL     OW32007   0.622   3.912   0.967
27723SOL    HW132008   0.566   3.995   0.970
27723SOL    HW232009   0.707   3.930   0.918
27724SOL     OW32010  13.336   9.222   7.116
27724SOL    HW132011  13.397   9.301   7.112
27724SOL    HW232012  13.339   9.173   7.028
27725SOL     OW32013   1.383  12.938   7.899
27725SOL    HW132014   1.415  12.937   7.994
27725SOL    HW232015   1.462  12.932   7.837
27726SOL     OW32016   5.309  16.047   0.466
27726SOL    HW132017   5.305  15.985   0.388
27726SOL    HW232018   5.354  16.132   0.438
27727SOL     OW32019   7.143  11.470   0.716
27727SOL    HW132020   7.059  11.432   0.755
27727SOL    HW232021   7.212  11.398   0.710
27728SOL     OW32022   1.160  11.227   2.458
27728SOL    HW132023   1.091  11.283   2.504
27728SOL    HW232024   1.148  11.132   2.485
27729SOL     OW32025   9.818  11.252   0.966
27729SOL    HW132026   9.777  11.196   0.894
27729SOL    HW232027   9.797  11.211   1.055
27730SOL     OW32028  10.988   4.602   0.979
27730SOL    HW132029  10.971   4.533   0.909
27730SOL    HW232030  10.902   4.624   1.025
27731SOL     OW32031  15.756   4.930   6.879
27731SOL    HW132032  15.821   4.859   6.903
27731SOL    HW232033  15.663   4.894   6.887
27732SOL     OW32034   8.933   7.248   6.078
27732SOL    HW132035   8.871   7.171   6.094
27732SOL    HW232036   9.022   7.214   6.050
27733SOL     OW32037   4.187  11.599   0.429
27733SOL    HW132038   4.211  11.504   0.409
27733SOL    HW232039   4.257  11.660   0.393
27734SOL     OW32040  11.255   3.396   0.314
27734SOL    HW132041  11.244   3.495   0.327
27734SOL    HW232042  11.346   3.368   0.342
27735SOL     OW32043   1.135   6.515   7.472
27735SOL    HW132044   1.049   6.534   7.427
27735SOL    HW232045   1.152   6.416   7.470
27736SOL     OW32046   2.695  10.836   0.687
27736SOL    HW132047   2.731  10.818   0.596
27736SOL    HW232048   2.703  10.753   0.742
27737SOL     OW32049   6.665   9.693   7.885
27737SOL    HW132050   6.656   9.778   7.833
27737SOL    HW232051   6.729   9.632   7.839
27738SOL     OW32052   7.816  16.727   8.083
27738SOL    HW132053   7.731  16.702   8.131
27738SOL    HW232054   7.846  16.650   8.027
27739SOL     OW32055  10.709   9.903   7.734
27739SOL    HW132056  10.618   9.933   7.763
27739SOL    HW232057  10.775   9.922   7.807
27740SOL     OW32058   2.758   3.132   6.948
27740SOL    HW132059   2.708   3.140   6.862
27740SOL    HW232060   2.712   3.185   7.019
27741SOL     OW32061   9.862   6.843   8.133
27741SOL    HW132062   9.881   6.750   8.165
27741SOL    HW232063   9.811   6.893   8.203
27742SOL     OW32064   8.624  16.228   0.195
27742SOL    HW132065   8.601  16.158   0.129
27742SOL    HW232066   8.723  16.240   0.199
27743SOL     OW32067   9.279   8.877   1.536
27743SOL    HW132068   9.325   8.960   1.565
27743SOL    HW232069   9.234   8.834   1.614
27744SOL     OW32070   2.786   1.241   0.584
27744SOL    HW132071   2.829   1.297   0.655
27744SOL    HW232072   2.731   1.169   0.627
27745SOL     OW32073  13.359   4.387   1.612
27745SOL    HW132074  13.441   4.404   1.666
27745SOL    HW232075  13.315   4.303   1.642
27746SOL     OW32076   1.952  16.259   6.983
27746SOL    HW132077   1.967  16.290   6.889
27746SOL    HW232078   1.858  16.280   7.010
27747SOL     OW32079   5.388  14.200   0.888
27747SOL    HW132080   5.448  14.131   0.846
27747SOL    HW232081   5.429  14.233   0.972
27748SOL     OW32082  14.442   5.827   6.861
27748SOL    HW132083  14.424   5.729   6.870
27748SOL    HW232084  14.427   5.856   6.767
27749SOL     OW32085   1.981   8.303   8.430
27749SOL    HW132086   2.046   8.303   0.051
27749SOL    HW232087   1.998   8.224   8.370
27750SOL     OW32088  16.249   6.407   1.872
27750SOL    HW132089  16.339   6.382   1.909
27750SOL    HW232090  16.189   6.327   1.872
27751SOL     OW32091   0.729   3.401   5.600
27751SOL    HW132092   0.815   3.351   5.611
27751SOL    HW232093   0.665   3.374   5.671
27752SOL     OW32094  13.629   2.166   6.451
27752SOL    HW132095  13.719   2.122   6.455
27752SOL    HW232096  13.558   2.096   6.444
27753SOL     OW32097  13.387   3.585   5.858
27753SOL    HW132098  13.312   3.529   5.824
27753SOL    HW232099  13.430   3.632   5.780
27754SOL     OW32100  14.591  11.338   7.251
27754SOL    HW132101  14.537  11.423   7.250
27754SOL    HW232102  14.682  11.357   7.287
27755SOL     OW32103   7.105   3.562   8.451
27755SOL    HW132104   7.076   3.479   0.044
27755SOL    HW232105   7.184   3.601   0.045
27756SOL     OW32106  14.817  14.085   1.757
27756SOL    HW132107  14.847  14.060   1.664
27756SOL    HW232108  14.897  14.093   1.816
27757SOL     OW32109   0.125   0.967   1.613
27757SOL    HW132110   0.043   1.016   1.642
27757SOL    HW232111   0.202   0.994   1.671
27758SOL     OW32112   7.103  16.740   1.166
27758SOL    HW132113   7.133  16.772   1.256
27758SOL    HW232114   7.003  16.732   1.166
27759SOL     OW32115   1.261  14.884   0.450
27759SOL    HW132116   1.300  14.900   0.541
27759SOL    HW232117   1.202  14.803   0.453
27760SOL     OW32118  11.294   9.379   8.084
27760SOL    HW132119  11.299   9.398   7.986
27760SOL    HW232120  11.338   9.291   8.104
27761SOL     OW32121   7.063   3.333   0.154
27761SOL    HW132122   7.135   3.272   0.190
27761SOL    HW232123   7.030   3.297   0.067
27762SOL     OW32124   5.377  10.278   2.418
27762SOL    HW132125   5.417  10.361   2.456
27762SOL    HW232126   5.451  10.218   2.385
27763SOL     OW32127   8.891  11.396   8.384
27763SOL    HW132128   8.836  11.381   8.302
27763SOL    HW232129   8.843  11.458   8.445
27764SOL     OW32130   7.584   6.339   7.568
27764SOL    HW132131   7.649   6.416   7.568
27764SOL    HW232132   7.621   6.265   7.512
27765SOL     OW32133   5.349  11.236   0.480
27765SOL    HW132134   5.340  11.325   0.525
27765SOL    HW232135   5.434  11.233   0.428
27766SOL     OW32136   4.801   9.752   1.654
27766SOL    HW132137   4.736   9.828   1.651
27766SOL    HW232138   4.781   9.694   1.733
27767SOL     OW32139   3.781  11.921   0.802
27767SOL    HW132140   3.737  11.961   0.721
27767SOL    HW232141   3.828  11.993   0.853
27768SOL     OW32142   1.772   2.204   7.617
27768SOL    HW132143   1.781   2.214   7.716
27768SOL    HW232144   1.822   2.121   7.588
27769SOL     OW32145  15.555   7.506   0.313
27769SOL    HW132146  15.528   7.463   0.226
27769SOL    HW232147  15.517   7.598   0.318
27770SOL     OW32148   6.553   6.541   8.279
27770SOL    HW132149   6.460   6.568   8.304
27770SOL    HW232150   6.593   6.486   8.352
27771SOL     OW32151   4.895   5.932   1.396
27771SOL    HW132152   4.851   5.877   1.325
27771SOL    HW232153   4.935   5.871   1.465
27772SOL     OW32154   3.561   0.350   8.405
27772SOL    HW132155   3.615   0.407   8.343
27772SOL    HW232156   3.463   0.369   8.392
27773SOL     OW32157   7.098  10.397   2.228
27773SOL    HW132158   7.004  10.362   2.229
27773SOL    HW232159   7.105  10.475   2.291
27774SOL     OW32160   1.229   1.373   7.713
27774SOL    HW132161   1.202   1.313   7.637
27774SOL    HW232162   1.148   1.418   7.750
27775SOL     OW32163  14.923   1.337   7.356
27775SOL    HW132164  14.919   1.238   7.340
27775SOL    HW232165  14.949   1.355   7.451
27776SOL     OW32166   7.922   8.858   7.876
27776SOL    HW132167   7.888   8.850   7.783
27776SOL    HW232168   7.934   8.955   7.900
27777SOL     OW32169  15.107  11.811   8.057
27777SOL    HW132170  15.082  11.908   8.056
27777SOL    HW232171  15.195  11.798   8.011
27778SOL     OW32172   3.441   9.086   1.610
27778SOL    HW132173   3.458   9.136   1.695
27778SOL    HW232174   3.528   9.062   1.566
27779SOL     OW32175   4.002  16.596   1.088
27779SOL    HW132176   3.942  16.663   1.132
27779SOL    HW232177   4.094  16.633   1.081
27780SOL     OW32178   0.400   6.172   7.325
27780SOL    HW132179   0.421   6.250   7.266
27780SOL    HW232180   0.347   6.105   7.273
27781SOL     OW32181   5.430  15.362   1.762
27781SOL    HW132182   5.474  15.273   1.764
27781SOL    HW232183   5.405  15.389   1.855
27782SOL     OW32184   0.962   4.828   6.724
27782SOL    HW132185   1.010   4.778   6.797
27782SOL    HW232186   0.957   4.771   6.642
27783SOL     OW32187   4.200  15.559   0.040
27783SOL    HW132188   4.230  15.518   8.408
27783SOL    HW232189   4.249  15.645   0.054
27784SOL     OW32190   2.298  16.095   6.577
27784SOL    HW132191   2.317  16.119   6.481
27784SOL    HW232192   2.367  16.137   6.636
27785SOL     OW32193  11.858  11.580   0.719
27785SOL    HW132194  11.828  11.573   0.624
27785SOL    HW232195  11.900  11.669   0.735
27786SOL     OW32196  10.172   4.030   6.307
27786SOL    HW132197  10.145   3.996   6.217
27786SOL    HW232198  10.162   4.130   6.309
27787SOL     OW32199   4.799   8.285   8.114
27787SOL    HW132200   4.790   8.190   8.085
27787SOL    HW232201   4.867   8.331   8.057
27788SOL     OW32202   6.636  13.720   8.328
27788SOL    HW132203   6.570  13.789   8.299
27788SOL    HW232204   6.686  13.754   8.408
27789SOL     OW32205  10.569  14.929   1.534
27789SOL    HW132206  10.493  14.991   1.552
27789SOL    HW232207  10.559  14.889   1.443
27790SOL     OW32208   2.663  14.102   8.451
27790SOL    HW132209   2.749  14.064   0.030
27790SOL    HW232210   2.599  14.112   0.073
27791SOL     OW32211  10.498   7.645   8.144
27791SOL    HW132212  10.563   7.576   8.112
27791SOL    HW232213  10.481   7.631   8.242
27792SOL     OW32214  16.730   5.188   8.091
27792SOL    HW132215  16.721   5.120   8.019
27792SOL    HW232216  16.796   5.258   8.063
27793SOL     OW32217  11.906   5.617   8.116
27793SOL    HW132218  11.887   5.634   8.020
27793SOL    HW232219  11.860   5.533   8.145
27794SOL     OW32220   1.425   7.148   7.264
27794SOL    HW132221   1.518   7.113   7.248
27794SOL    HW232222   1.413   7.234   7.216
27795SOL     OW32223   6.011   9.229   1.496
27795SOL    HW132224   5.948   9.277   1.434
27795SOL    HW232225   5.958   9.185   1.568
27796SOL     OW32226   8.869  10.545   0.040
27796SOL    HW132227   8.784  10.530   0.090
27796SOL    HW232228   8.932  10.598   0.097
27797SOL     OW32229   2.451   5.524   1.867
27797SOL    HW132230   2.468   5.443   1.923
27797SOL    HW232231   2.464   5.606   1.921
27798SOL     OW32232   4.274   9.214   7.149
27798SOL    HW132233   4.255   9.292   7.088
27798SOL    HW232234   4.354   9.235   7.206
27799SOL     OW32235   5.167  12.078   1.404
27799SOL    HW132236   5.263  12.073   1.374
27799SOL    HW232237   5.161  12.049   1.499
27800SOL     OW32238   0.129   5.957   6.437
27800SOL    HW132239   0.126   5.869   6.484
27800SOL    HW232240   0.216   5.966   6.389
27801SOL     OW32241  10.007  13.001   7.595
27801SOL    HW132242   9.929  12.991   7.534
27801SOL    HW232243  10.057  13.084   7.572
27802SOL     OW32244  10.485   7.623   6.440
27802SOL    HW132245  10.439   7.614   6.351
27802SOL    HW232246  10.577   7.658   6.427
27803SOL     OW32247  13.174   2.402   5.382
27803SOL    HW132248  13.107   2.329   5.372
27803SOL    HW232249  13.212   2.400   5.474
27804SOL     OW32250   9.824   4.331   7.513
27804SOL    HW132251   9.900   4.276   7.481
27804SOL    HW232252   9.810   4.316   7.611
27805SOL     OW32253  13.021  12.503   7.003
27805SOL    HW132254  13.049  12.577   6.942
27805SOL    HW232255  12.984  12.428   6.949
27806SOL     OW32256   9.856   5.646   0.842
27806SOL    HW132257   9.795   5.716   0.880
27806SOL    HW232258   9.951   5.671   0.859
27807SOL     OW32259   2.346   5.803   6.830
27807SOL    HW132260   2.441   5.803   6.799
27807SOL    HW232261   2.340   5.847   6.920
27808SOL     OW32262   3.060   4.550   7.467
27808SOL    HW132263   3.096   4.517   7.555
27808SOL    HW232264   3.084   4.646   7.455
27809SOL     OW32265   2.479  16.678   8.062
27809SOL    HW132266   2.411  16.690   7.990
27809SOL    HW232267   2.512  16.768   8.092
27810SOL     OW32268   8.403  14.315   0.317
27810SOL    HW132269   8.471  14.245   0.336
27810SOL    HW232270   8.348  14.331   0.399
27811SOL     OW32271  13.772   3.423   6.926
27811SOL    HW132272  13.796   3.357   6.855
27811SOL    HW232273  13.844   3.425   6.996
27812SOL     OW32274   7.621  14.202   0.445
27812SOL    HW132275   7.686  14.131   0.470
27812SOL    HW232276   7.560  14.220   0.522
27813SOL     OW32277   4.958  10.499   1.379
27813SOL    HW132278   4.872  10.451   1.395
27813SOL    HW232279   5.029  10.464   1.441
27814SOL     OW32280   6.654  14.892   0.432
27814SOL    HW132281   6.750  14.872   0.414
27814SOL    HW232282   6.610  14.923   0.348
27815SOL     OW32283  12.261   7.171   0.650
27815SOL    HW132284  12.249   7.184   0.748
27815SOL    HW232285  12.205   7.238   0.601
27816SOL     OW32286   9.700  15.128   0.065
27816SOL    HW132287   9.688  15.097   0.159
27816SOL    HW232288   9.797  15.140   0.046
27817SOL     OW32289   0.991   1.426   0.682
27817SOL    HW132290   0.937   1.397   0.603
27817SOL    HW232291   1.088   1.424   0.659
27818SOL     OW32292  14.200  14.313   7.681
27818SOL    HW132293  14.131  14.338   7.613
27818SOL    HW232294  14.259  14.392   7.699
27819SOL     OW32295  14.796   4.887   8.183
27819SOL    HW132296  14.864   4.943   8.231
27819SOL    HW232297  14.843   4.832   8.113
27820SOL     OW32298  14.705   4.887   6.129
27820SOL    HW132299  14.633   4.844   6.076
27820SOL    HW232300  14.792   4.879   6.080
27821SOL     OW32301   9.644   2.065   1.266
27821SOL    HW132302   9.729   2.115   1.285
27821SOL    HW232303   9.566   2.124   1.284
27822SOL     OW32304   0.457   9.269   2.071
27822SOL    HW132305   0.367   9.241   2.039
27822SOL    HW232306   0.447   9.334   2.146
27823SOL     OW32307   6.346  14.724   6.671
27823SOL    HW132308   6.445  14.718   6.680
27823SOL    HW232309   6.305  14.635   6.692
27824SOL     OW32310  10.393   0.740   8.335
27824SOL    HW132311  10.361   0.740   8.430
27824SOL    HW232312  10.316   0.754   8.274
27825SOL     OW32313  13.346   0.773   1.024
27825SOL    HW132314  13.254   0.756   1.059
27825SOL    HW232315  13.413   0.756   1.096
27826SOL     OW32316   6.198   4.880   0.246
27826SOL    HW132317   6.196   4.971   0.289
27826SOL    HW232318   6.200   4.890   0.147
27827SOL     OW32319   0.125   5.690   6.522
27827SOL    HW132320   0.105   5.631   6.600
27827SOL    HW232321   0.097   5.644   6.438
27828SOL     OW32322   4.349  15.364   0.852
27828SOL    HW132323   4.306  15.315   0.776
27828SOL    HW232324   4.423  15.309   0.890
27829SOL     OW32325   6.250   0.415   0.746
27829SOL    HW132326   6.215   0.329   0.709
27829SOL    HW232327   6.225   0.490   0.685
27830SOL     OW32328   4.672   5.111   1.808
27830SOL    HW132329   4.575   5.106   1.784
27830SOL    HW232330   4.696   5.035   1.868
27831SOL     OW32331   8.686  12.530   2.300
27831SOL    HW132332   8.784  12.513   2.292
27831SOL    HW232333   8.647  12.471   2.371
27832SOL     OW32334   0.470   6.710   0.799
27832SOL    HW132335   0.484   6.653   0.718
27832SOL    HW232336   0.453   6.804   0.771
27833SOL     OW32337  10.046   4.169   7.475
27833SOL    HW132338  10.023   4.077   7.505
27833SOL    HW232339  10.058   4.170   7.376
27834SOL     OW32340   8.195  13.385   1.129
27834SOL    HW132341   8.135  13.419   1.056
27834SOL    HW232342   8.275  13.340   1.089
27835SOL     OW32343   5.945  12.066   6.839
27835SOL    HW132344   6.039  12.101   6.829
27835SOL    HW232345   5.903  12.108   6.920
27836SOL     OW32346  14.996   7.051   7.292
27836SOL    HW132347  15.044   7.032   7.207
27836SOL    HW232348  14.947   6.968   7.321
27837SOL     OW32349  11.725   7.174   0.415
27837SOL    HW132350  11.681   7.262   0.426
27837SOL    HW232351  11.816   7.187   0.374
27838SOL     OW32352   7.686   9.145   0.130
27838SOL    HW132353   7.687   9.149   0.230
27838SOL    HW232354   7.768   9.097   0.098
27839SOL     OW32355   0.144   2.332   6.302
27839SOL    HW132356   0.125   2.235   6.287
27839SOL    HW232357   0.208   2.365   6.232
27840SOL     OW32358  14.420   3.653   0.960
27840SOL    HW132359  14.393   3.684   0.868
27840SOL    HW232360  14.517   3.631   0.960
27841SOL     OW32361   3.875  10.974   0.614
27841SOL    HW132362   3.876  11.058   0.559
27841SOL    HW232363   3.816  10.988   0.694
27842SOL     OW32364   6.552   4.776   0.058
27842SOL    HW132365   6.629   4.713   0.059
27842SOL    HW232366   6.574   4.856   0.003
27843SOL     OW32367   6.945  15.242   1.274
27843SOL    HW132368   6.855  15.199   1.264
27843SOL    HW232369   6.973  15.239   1.370
27844SOL     OW32370   9.143   7.556   7.329
27844SOL    HW132371   9.105   7.588   7.242
27844SOL    HW232372   9.085   7.484   7.366
27845SOL     OW32373  12.151   6.738   0.020
27845SOL    HW132374  12.145   6.663   0.087
27845SOL    HW232375  12.184   6.821   0.066
27846SOL     OW32376  15.182   3.664   6.451
27846SOL    HW132377  15.129   3.694   6.372
27846SOL    HW232378  15.240   3.739   6.484
27847SOL     OW32379  12.740  13.484   0.355
27847SOL    HW132380  12.730  13.520   0.262
27847SOL    HW232381  12.782  13.394   0.351
27848SOL     OW32382   2.258   7.620   0.655
27848SOL    HW132383   2.355   7.622   0.676
27848SOL    HW232384   2.205   7.637   0.738
27849SOL     OW32385  11.726  15.135   7.806
27849SOL    HW132386  11.792  15.080   7.856
27849SOL    HW232387  11.674  15.077   7.744
27850SOL     OW32388   8.919   8.384   6.999
27850SOL    HW132389   8.881   8.292   6.993
27850SOL    HW232390   9.016   8.382   6.975
27851SOL     OW32391   5.839   5.308   1.947
27851SOL    HW132392   5.748   5.344   1.926
27851SOL    HW232393   5.853   5.310   2.046
27852SOL     OW32394  10.157   4.494   7.269
27852SOL    HW132395  10.078   4.516   7.327
27852SOL    HW232396  10.223   4.441   7.322
27853SOL     OW32397   4.287  13.508   8.069
27853SOL    HW132398   4.343  13.585   8.103
27853SOL    HW232399   4.267  13.522   7.972
27854SOL     OW32400  10.334   4.833   6.940
27854SOL    HW132401  10.330   4.933   6.939
27854SOL    HW232402  10.304   4.800   7.029
27855SOL     OW32403   3.124  10.912   8.425
27855SOL    HW132404   3.120  10.940   0.067
27855SOL    HW232405   3.100  10.989   8.367
27856SOL     OW32406   8.046  16.774   6.665
27856SOL    HW132407   8.123  16.760   6.727
27856SOL    HW232408   8.076  16.826   6.586
27857SOL     OW32409   5.982   4.943   6.911
27857SOL    HW132410   6.011   4.881   6.837
27857SOL    HW232411   6.062   4.980   6.957
27858SOL     OW32412  15.671   0.557   0.363
27858SOL    HW132413  15.759   0.560   0.314
27858SOL    HW232414  15.598   0.589   0.303
27859SOL     OW32415   9.951   0.611   8.190
27859SOL    HW132416   9.855   0.629   8.212
27859SOL    HW232417   9.963   0.513   8.171
27860SOL     OW32418   5.504   0.160   6.721
27860SOL    HW132419   5.548   0.245   6.749
27860SOL    HW232420   5.407   0.164   6.742
27861SOL     OW32421   4.411   1.262   7.976
27861SOL    HW132422   4.342   1.285   7.908
27861SOL    HW232423   4.384   1.179   8.024
27862SOL     OW32424   8.679   9.665   8.410
27862SOL    HW132425   8.764   9.718   8.412
27862SOL    HW232426   8.602   9.726   8.432
27863SOL     OW32427  13.428   3.264   1.313
27863SOL    HW132428  13.348   3.322   1.324
27863SOL    HW232429  13.499   3.293   1.378
27864SOL     OW32430   8.925   2.982   1.009
27864SOL    HW132431   8.848   2.967   1.071
27864SOL    HW232432   8.925   2.910   0.938
27865SOL     OW32433   9.291  10.184   6.817
27865SOL    HW132434   9.343  10.134   6.886
27865SOL    HW232435   9.335  10.174   6.728
27866SOL     OW32436  13.001   6.418   1.502
27866SOL    HW132437  13.083   6.453   1.457
27866SOL    HW232438  12.971   6.335   1.455
27867SOL     OW32439  14.069   9.628   1.693
27867SOL    HW132440  14.075   9.584   1.783
27867SOL    HW232441  13.973   9.640   1.669
27868SOL     OW32442  12.459  12.625   0.746
27868SOL    HW132443  12.544  12.600   0.700
27868SOL    HW232444  12.479  12.679   0.828
27869SOL     OW32445   2.751  14.484   6.809
27869SOL    HW132446   2.747  14.489   6.709
27869SOL    HW232447   2.660  14.466   6.845
27870SOL     OW32448   8.680  11.253   7.000
27870SOL    HW132449   8.710  11.262   6.905
27870SOL    HW232450   8.622  11.331   7.023
27871SOL     OW32451  16.859   4.422   0.275
27871SOL    HW132452  16.866   4.347   0.340
27871SOL    HW232453  16.881   4.508   0.320
27872SOL     OW32454   6.062  15.259   6.340
27872SOL    HW132455   6.160  15.280   6.341
27872SOL    HW232456   6.044  15.187   6.273
27873SOL     OW32457   8.016   8.374   0.292
27873SOL    HW132458   7.961   8.426   0.227
27873SOL    HW232459   8.022   8.425   0.378
27874SOL     OW32460  16.747  12.748   0.862
27874SOL    HW132461  16.831  12.797   0.839
27874SOL    HW232462  16.760  12.650   0.847
27875SOL     OW32463   7.603   8.201   7.158
27875SOL    HW132464   7.642   8.111   7.177
27875SOL    HW232465   7.653   8.271   7.211
27876SOL     OW32466  10.597   8.039   2.302
27876SOL    HW132467  10.647   8.014   2.219
27876SOL    HW232468  10.619   7.975   2.375
27877SOL     OW32469   7.030  13.244   0.917
27877SOL    HW132470   7.125  13.275   0.924
27877SOL    HW232471   7.017  13.198   0.829
27878SOL     OW32472   3.119   9.012   8.273
27878SOL    HW132473   3.057   9.058   8.210
27878SOL    HW232474   3.182   8.954   8.222
27879SOL     OW32475   4.662   3.466   0.802
27879SOL    HW132476   4.724   3.491   0.727
27879SOL    HW232477   4.669   3.367   0.819
27880SOL     OW32478  12.712  10.606   1.822
27880SOL    HW132479  12.787  10.540   1.833
27880SOL    HW232480  12.629  10.557   1.795
27881SOL     OW32481   0.366   8.452   0.028
27881SOL    HW132482   0.330   8.395   0.102
27881SOL    HW232483   0.466   8.448   0.030
27882SOL     OW32484  14.834  16.134   0.362
27882SOL    HW132485  14.782  16.162   0.282
27882SOL    HW232486  14.827  16.205   0.433
27883SOL     OW32487  13.252  10.960   8.259
27883SOL    HW132488  13.282  10.926   8.170
27883SOL    HW232489  13.233  11.058   8.252
27884SOL     OW32490   8.072  15.645   7.974
27884SOL    HW132491   8.100  15.652   7.878
27884SOL    HW232492   7.979  15.678   7.985
27885SOL     OW32493  15.830   2.690   7.139
27885SOL    HW132494  15.845   2.599   7.178
27885SOL    HW232495  15.840   2.759   7.211
27886SOL     OW32496  13.865   9.628   7.339
27886SOL    HW132497  13.845   9.720   7.370
27886SOL    HW232498  13.933   9.632   7.265
27887SOL     OW32499   0.552  10.779   7.409
27887SOL    HW132500   0.575  10.842   7.335
27887SOL    HW232501   0.494  10.826   7.475
27888SOL     OW32502   6.810  15.224   0.933
27888SOL    HW132503   6.802  15.221   0.833
27888SOL    HW232504   6.770  15.140   0.971
27889SOL     OW32505  11.921  11.985   7.265
27889SOL    HW132506  11.934  11.886   7.278
27889SOL    HW232507  11.845  12.016   7.322
27890SOL     OW32508  14.936  14.331   6.733
27890SOL    HW132509  14.895  14.255   6.684
27890SOL    HW232510  14.927  14.415   6.679
27891SOL     OW32511  12.125  11.008   7.749
27891SOL    HW132512  12.061  11.084   7.764
27891SOL    HW232513  12.190  11.005   7.824
27892SOL     OW32514   5.687  11.765   0.852
27892SOL    HW132515   5.743  11.827   0.907
27892SOL    HW232516   5.591  11.780   0.872
27893SOL     OW32517  10.523   7.740   7.060
27893SOL    HW132518  10.579   7.709   6.983
27893SOL    HW232519  10.522   7.669   7.131
27894SOL     OW32520   4.177  14.424   1.421
27894SOL    HW132521   4.109  14.491   1.449
27894SOL    HW232522   4.245  14.467   1.362
27895SOL     OW32523  12.880  11.553   7.953
27895SOL    HW132524  12.818  11.568   8.030
27895SOL    HW232525  12.830  11.562   7.867
27896SOL     OW32526   4.689  14.902   0.101
27896SOL    HW132527   4.714  14.805   0.109
27896SOL    HW232528   4.680  14.926   0.004
27897SOL     OW32529  11.257   4.070   1.433
27897SOL    HW132530  11.239   4.168   1.439
27897SOL    HW232531  11.278   4.035   1.525
27898SOL     OW32532  15.231   9.046   7.370
27898SOL    HW132533  15.311   9.027   7.427
27898SOL    HW232534  15.148   9.036   7.425
27899SOL     OW32535   9.968   1.676   7.261
27899SOL    HW132536  10.065   1.680   7.234
27899SOL    HW232537   9.925   1.765   7.243
27900SOL     OW32538   4.573  15.915   7.954
27900SOL    HW132539   4.618  15.878   8.035
27900SOL    HW232540   4.582  16.015   7.954
27901SOL     OW32541   7.877  15.139   1.711
27901SOL    HW132542   7.891  15.200   1.789
27901SOL    HW232543   7.957  15.081   1.699
27902SOL     OW32544  12.953  16.170   1.131
27902SOL    HW132545  12.944  16.075   1.103
27902SOL    HW232546  12.901  16.186   1.215
27903SOL     OW32547  12.116   3.152   0.578
27903SOL    HW132548  12.207   3.191   0.566
27903SOL    HW232549  12.117   3.056   0.550
27904SOL     OW32550   5.004   9.992   7.671
27904SOL    HW132551   5.065  10.067   7.696
27904SOL    HW232552   5.038   9.907   7.712
27905SOL     OW32553  10.286   2.273   7.999
27905SOL    HW132554  10.202   2.260   7.946
27905SOL    HW232555  10.336   2.352   7.963
27906SOL     OW32556   1.017   5.425   1.337
27906SOL    HW132557   0.979   5.372   1.413
27906SOL    HW232558   1.088   5.372   1.291
27907SOL     OW32559   0.364  15.008   0.069
27907SOL    HW132560   0.428  14.933   0.054
27907SOL    HW232561   0.270  14.974   0.064
27908SOL     OW32562   0.057   7.012   0.221
27908SOL    HW132563  16.965   6.984   0.279
27908SOL    HW232564   0.110   7.083   0.266
27909SOL     OW32565  13.346  15.553   7.145
27909SOL    HW132566  13.285  15.588   7.074
27909SOL    HW232567  13.292  15.500   7.211
27910SOL     OW32568   3.671   6.042   1.103
27910SOL    HW132569   3.751   6.055   1.162
27910SOL    HW232570   3.641   5.947   1.109
27911SOL     OW32571  16.618  12.346   7.043
27911SOL    HW132572  16.596  12.313   6.951
27911SOL    HW232573  16.649  12.440   7.038
27912SOL     OW32574   9.140  10.951   0.133
27912SOL    HW132575   9.207  10.972   0.203
27912SOL    HW232576   9.090  11.034   0.108
27913SOL     OW32577   3.695   1.122   1.762
27913SOL    HW132578   3.678   1.152   1.856
27913SOL    HW232579   3.611   1.128   1.709
27914SOL     OW32580   0.752   3.797   0.148
27914SOL    HW132581   0.742   3.874   0.085
27914SOL    HW232582   0.834   3.744   0.123
27915SOL     OW32583   6.578   5.035   8.405
27915SOL    HW132584   6.526   5.070   0.029
27915SOL    HW232585   6.672   5.068   8.410
27916SOL     OW32586  12.428   1.347   1.351
27916SOL    HW132587  12.462   1.255   1.333
27916SOL    HW232588  12.351   1.343   1.414
27917SOL     OW32589   7.634   9.034   1.093
27917SOL    HW132590   7.681   9.027   1.005
27917SOL    HW232591   7.637   8.945   1.140
27918SOL     OW32592   8.197   2.827   1.278
27918SOL    HW132593   8.148   2.763   1.219
27918SOL    HW232594   8.244   2.777   1.350
27919SOL     OW32595  14.278  16.482   1.181
27919SOL    HW132596  14.265  16.501   1.279
27919SOL    HW232597  14.199  16.516   1.130
27920SOL     OW32598   3.705  11.371   2.078
27920SOL    HW132599   3.764  11.431   2.024
27920SOL    HW232600   3.745  11.358   2.169
27921SOL     OW32601   9.590   5.432   6.135
27921SOL    HW132602   9.538   5.358   6.093
27921SOL    HW232603   9.684   5.429   6.102
27922SOL     OW32604  10.048   8.697   6.757
27922SOL    HW132605  10.051   8.609   6.710
27922SOL    HW232606  10.127   8.752   6.729
27923SOL     OW32607  16.674  12.142   0.495
27923SOL    HW132608  16.693  12.232   0.456
27923SOL    HW232609  16.576  12.124   0.492
27924SOL     OW32610  15.081  14.072   0.473
27924SOL    HW132611  15.156  14.112   0.527
27924SOL    HW232612  15.065  13.978   0.503
27925SOL     OW32613  14.343   7.262   1.850
27925SOL    HW132614  14.260   7.207   1.835
27925SOL    HW232615  14.401   7.217   1.918
27926SOL     OW32616  16.354  14.626   0.471
27926SOL    HW132617  16.260  14.621   0.503
27926SOL    HW232618  16.417  14.623   0.549
27927SOL     OW32619  14.292   8.572   0.513
27927SOL    HW132620  14.337   8.482   0.512
27927SOL    HW232621  14.327   8.625   0.590
27928SOL     OW32622  14.403  11.925   2.207
27928SOL    HW132623  14.396  11.896   2.303
27928SOL    HW232624  14.322  11.893   2.157
27929SOL     OW32625   7.894  16.516   1.076
27929SOL    HW132626   7.849  16.525   0.987
27929SOL    HW232627   7.909  16.607   1.115
27930SOL     OW32628   9.816  11.733   7.960
27930SOL    HW132629   9.914  11.718   7.975
27930SOL    HW232630   9.795  11.723   7.863
27931SOL     OW32631  10.277   3.385   8.059
27931SOL    HW132632  10.376   3.393   8.073
27931SOL    HW232633  10.238   3.332   8.135
27932SOL     OW32634   1.856  16.245   6.446
27932SOL    HW132635   1.922  16.320   6.439
27932SOL    HW232636   1.898  16.168   6.493
27933SOL     OW32637   5.108   1.247   0.626
27933SOL    HW132638   5.186   1.308   0.612
27933SOL    HW232639   5.036   1.294   0.677
27934SOL     OW32640  12.151  15.030   8.406
27934SOL    HW132641  12.174  14.993   0.042
27934SOL    HW232642  12.166  14.960   8.336
27935SOL     OW32643  14.627   2.003   1.007
27935SOL    HW132644  14.716   1.964   0.988
27935SOL    HW232645  14.634   2.069   1.082
27936SOL     OW32646   8.986   6.909   1.314
27936SOL    HW132647   9.029   6.915   1.404
27936SOL    HW232648   8.992   6.998   1.268
27937SOL     OW32649  12.472   6.289   6.559
27937SOL    HW132650  12.564   6.275   6.595
27937SOL    HW232651  12.474   6.288   6.459
27938SOL     OW32652   5.386   2.454   7.213
27938SOL    HW132653   5.314   2.505   7.166
27938SOL    HW232654   5.474   2.500   7.198
27939SOL     OW32655   2.179  15.132   1.131
27939SOL    HW132656   2.212  15.226   1.146
27939SOL    HW232657   2.166  15.087   1.219
27940SOL     OW32658   4.818  13.866   8.036
27940SOL    HW132659   4.918  13.874   8.040
27940SOL    HW232660   4.780  13.945   7.988
27941SOL     OW32661  11.998   4.455   7.331
27941SOL    HW132662  12.037   4.393   7.400
27941SOL    HW232663  11.970   4.540   7.376
27942SOL     OW32664  16.217  16.895   8.423
27942SOL    HW132665  16.267  16.810   8.405
27942SOL    HW232666  16.193  16.899   0.066
27943SOL     OW32667  11.181   3.160   0.604
27943SOL    HW132668  11.131   3.194   0.525
27943SOL    HW232669  11.221   3.070   0.583
27944SOL     OW32670  10.158   2.935   5.934
27944SOL    HW132671  10.139   2.865   5.865
27944SOL    HW232672  10.107   3.018   5.914
27945SOL     OW32673   7.629  14.806   7.101
27945SOL    HW132674   7.590  14.818   7.010
27945SOL    HW232675   7.594  14.878   7.162
27946SOL     OW32676   8.149  12.547   6.674
27946SOL    HW132677   8.236  12.521   6.716
27946SOL    HW232678   8.142  12.505   6.584
27947SOL     OW32679  12.500  16.418   7.040
27947SOL    HW132680  12.483  16.441   7.136
27947SOL    HW232681  12.442  16.341   7.014
27948SOL     OW32682  11.743   4.957   7.800
27948SOL    HW132683  11.835   4.990   7.782
27948SOL    HW232684  11.678   5.032   7.787
27949SOL     OW32685  12.133   4.044   7.760
27949SOL    HW132686  12.043   4.070   7.794
27949SOL    HW232687  12.130   3.951   7.725
27950SOL     OW32688   7.763  11.550   0.477
27950SOL    HW132689   7.716  11.582   0.560
27950SOL    HW232690   7.851  11.509   0.503
27951SOL     OW32691  16.441   2.613   0.368
27951SOL    HW132692  16.433   2.693   0.428
27951SOL    HW232693  16.500   2.545   0.412
27952SOL     OW32694  16.867  16.602   1.336
27952SOL    HW132695  16.783  16.655   1.346
27952SOL    HW232696  16.862  16.520   1.394
27953SOL     OW32697  13.098   5.019   0.974
27953SOL    HW132698  13.136   4.926   0.968
27953SOL    HW232699  13.022   5.028   0.911
27954SOL     OW32700   2.770  12.942   1.829
27954SOL    HW132701   2.771  13.038   1.858
27954SOL    HW232702   2.864  12.908   1.824
27955SOL     OW32703  11.474   7.319   1.645
27955SOL    HW132704  11.519   7.363   1.567
27955SOL    HW232705  11.403   7.257   1.612
27956SOL     OW32706   3.350   0.153   0.876
27956SOL    HW132707   3.277   0.184   0.816
27956SOL    HW232708   3.356   0.213   0.956
27957SOL     OW32709   9.253   1.788   6.934
27957SOL    HW132710   9.296   1.746   6.855
27957SOL    HW232711   9.217   1.878   6.909
27958SOL     OW32712   9.328  15.380   6.268
27958SOL    HW132713   9.361  15.359   6.360
27958SOL    HW232714   9.328  15.479   6.255
27959SOL     OW32715   7.190  16.620   0.120
27959SOL    HW132716   7.150  16.530   0.101
27959SOL    HW232717   7.178  16.680   0.041
27960SOL     OW32718   2.363   9.261   0.159
27960SOL    HW132719   2.368   9.326   0.235
27960SOL    HW232720   2.454   9.222   0.142
27961SOL     OW32721  13.020   5.009   0.254
27961SOL    HW132722  13.113   5.015   0.219
27961SOL    HW232723  13.010   4.924   0.306
27962SOL     OW32724   6.188  16.450   0.645
27962SOL    HW132725   6.093  16.480   0.647
27962SOL    HW232726   6.190  16.351   0.632
27963SOL     OW32727   4.743   2.759   8.356
27963SOL    HW132728   4.740   2.858   8.352
27963SOL    HW232729   4.817   2.725   8.297
27964SOL     OW32730   1.419  12.516   6.872
27964SOL    HW132731   1.329  12.480   6.850
27964SOL    HW232732   1.463  12.549   6.789
27965SOL     OW32733   7.571  13.159   1.984
27965SOL    HW132734   7.483  13.206   1.987
27965SOL    HW232735   7.604  13.146   2.078
27966SOL     OW32736  13.916   4.567   1.533
27966SOL    HW132737  14.005   4.538   1.568
27966SOL    HW232738  13.878   4.638   1.592
27967SOL     OW32739  10.258   9.437   7.714
27967SOL    HW132740  10.246   9.342   7.684
27967SOL    HW232741  10.235   9.444   7.811
27968SOL     OW32742  15.918  12.806   6.569
27968SOL    HW132743  15.893  12.802   6.473
27968SOL    HW232744  15.898  12.719   6.613
27969SOL     OW32745   2.363  15.831   2.403
27969SOL    HW132746   2.292  15.856   2.469
27969SOL    HW232747   2.440  15.791   2.451
27970SOL     OW32748  13.487   9.461   1.473
27970SOL    HW132749  13.520   9.555   1.459
27970SOL    HW232750  13.452   9.425   1.387
27971SOL     OW32751   9.285   7.334   6.433
27971SOL    HW132752   9.364   7.278   6.407
27971SOL    HW232753   9.312   7.398   6.505
27972SOL     OW32754   6.379   8.774   8.153
27972SOL    HW132755   6.357   8.793   8.058
27972SOL    HW232756   6.475   8.794   8.170
27973SOL     OW32757   6.104  11.516   6.664
27973SOL    HW132758   6.150  11.435   6.698
27973SOL    HW232759   6.045  11.492   6.587
27974SOL     OW32760   7.946  12.299   0.578
27974SOL    HW132761   7.912  12.244   0.502
27974SOL    HW232762   8.044  12.285   0.589
27975SOL     OW32763   0.441  10.945   1.630
27975SOL    HW132764   0.427  10.966   1.726
27975SOL    HW232765   0.505  11.011   1.590
27976SOL     OW32766  10.478  12.714   7.680
27976SOL    HW132767  10.380  12.731   7.681
27976SOL    HW232768  10.527  12.800   7.694
27977SOL     OW32769   6.153   0.191   1.637
27977SOL    HW132770   6.058   0.188   1.669
27977SOL    HW232771   6.173   0.109   1.583
27978SOL     OW32772   7.525  11.409   7.082
27978SOL    HW132773   7.558  11.489   7.032
27978SOL    HW232774   7.603  11.351   7.106
27979SOL     OW32775   7.807  10.282   0.067
27979SOL    HW132776   7.783  10.185   0.068
27979SOL    HW232777   7.741  10.333   0.012
27980SOL     OW32778  15.022   4.135   0.773
27980SOL    HW132779  15.039   4.228   0.739
27980SOL    HW232780  15.070   4.121   0.859
27981SOL     OW32781   8.955  12.639   1.900
27981SOL    HW132782   9.020  12.623   1.974
27981SOL    HW232783   8.901  12.557   1.884
27982SOL     OW32784  13.242  10.157   0.506
27982SOL    HW132785  13.303  10.079   0.488
27982SOL    HW232786  13.253  10.186   0.601
27983SOL     OW32787  10.931   5.011   7.515
27983SOL    HW132788  10.840   5.008   7.473
27983SOL    HW232789  10.935   4.945   7.590
27984SOL     OW32790  13.602   2.468   6.053
27984SOL    HW132791  13.638   2.387   6.099
27984SOL    HW232792  13.661   2.547   6.072
27985SOL     OW32793   2.453   0.346   1.660
27985SOL    HW132794   2.382   0.283   1.629
27985SOL    HW232795   2.454   0.428   1.603
27986SOL     OW32796  14.215   9.334   7.398
27986SOL    HW132797  14.297   9.390   7.387
27986SOL    HW232798  14.197   9.284   7.313
27987SOL     OW32799  13.080   9.345   7.995
27987SOL    HW132800  13.103   9.420   8.057
27987SOL    HW232801  13.073   9.380   7.902
27988SOL     OW32802   6.331  14.632   6.980
27988SOL    HW132803   6.301  14.586   6.898
27988SOL    HW232804   6.352  14.565   7.051
27989SOL     OW32805   8.771  10.968   7.727
27989SOL    HW132806   8.825  10.887   7.749
27989SOL    HW232807   8.687  10.968   7.781
27990SOL     OW32808  16.041  14.469   7.593
27990SOL    HW132809  15.970  14.537   7.608
27990SOL    HW232810  16.020  14.387   7.646
27991SOL     OW32811  14.109  15.001   7.157
27991SOL    HW132812  14.172  14.946   7.102
27991SOL    HW232813  14.160  15.071   7.206
27992SOL     OW32814   5.895   2.598   7.669
27992SOL    HW132815   5.797   2.605   7.690
27992SOL    HW232816   5.909   2.528   7.599
27993SOL     OW32817   3.165   6.891   2.091
27993SOL    HW132818   3.229   6.964   2.113
27993SOL    HW232819   3.096   6.884   2.164
27994SOL     OW32820   5.111  11.974   6.323
27994SOL    HW132821   5.039  11.907   6.340
27994SOL    HW232822   5.093  12.021   6.236
27995SOL     OW32823   8.136   0.537   0.466
27995SOL    HW132824   8.131   0.506   0.371
27995SOL    HW232825   8.230   0.565   0.487
27996SOL     OW32826   1.871   8.322   1.494
27996SOL    HW132827   1.970   8.317   1.506
27996SOL    HW232828   1.826   8.290   1.577
27997SOL     OW32829  15.787  14.675   6.580
27997SOL    HW132830  15.755  14.625   6.500
27997SOL    HW232831  15.764  14.771   6.571
27998SOL     OW32832  10.440  11.554   1.193
27998SOL    HW132833  10.507  11.485   1.169
27998SOL    HW232834  10.348  11.515   1.185
27999SOL     OW32835   1.592  16.380   7.766
27999SOL    HW132836   1.526  16.453   7.782
27999SOL    HW232837   1.642  16.360   7.850
28000SOL     OW32838  11.589   3.502   7.868
28000SOL    HW132839  11.614   3.405   7.861
28000SOL    HW232840  11.558   3.535   7.779
28001SOL     OW32841   4.223  12.923   1.546
28001SOL    HW132842   4.205  12.864   1.467
28001SOL    HW232843   4.212  13.019   1.520
28002SOL     OW32844   6.258   2.685   0.173
28002SOL    HW132845   6.191   2.712   0.104
28002SOL    HW232846   6.238   2.592   0.205
28003SOL     OW32847   5.984   6.052   0.920
28003SOL    HW132848   5.967   5.958   0.892
28003SOL    HW232849   6.056   6.054   0.989
28004SOL     OW32850   1.002  12.980   7.722
28004SOL    HW132851   0.913  12.936   7.706
28004SOL    HW232852   1.036  13.019   7.636
28005SOL     OW32853  15.953   6.310   0.616
28005SOL    HW132854  16.051   6.301   0.635
28005SOL    HW232855  15.938   6.379   0.546
28006SOL     OW32856  10.594   2.928   7.672
28006SOL    HW132857  10.528   2.858   7.645
28006SOL    HW232858  10.550   3.018   7.669
28007SOL     OW32859   4.036  16.906   8.002
28007SOL    HW132860   4.125  16.953   7.997
28007SOL    HW232861   4.043  16.831   8.067
28008SOL     OW32862  10.333  12.829   1.674
28008SOL    HW132863  10.328  12.797   1.769
28008SOL    HW232864  10.395  12.908   1.669
28009SOL     OW32865  10.339   3.944   7.568
28009SOL    HW132866  10.436   3.938   7.547
28009SOL    HW232867  10.287   3.949   7.483
28010SOL     OW32868   7.839  12.785   0.451
28010SOL    HW132869   7.897  12.705   0.462
28010SOL    HW232870   7.777  12.793   0.530
28011SOL     OW32871   4.906   0.204   0.662
28011SOL    HW132872   4.894   0.252   0.749
28011SOL    HW232873   4.977   0.135   0.673
28012SOL     OW32874  14.854   6.796   6.640
28012SOL    HW132875  14.835   6.894   6.635
28012SOL    HW232876  14.847   6.756   6.549
28013SOL     OW32877   7.685   6.719   1.196
28013SOL    HW132878   7.767   6.686   1.244
28013SOL    HW232879   7.689   6.690   1.101
28014SOL     OW32880  14.094   5.957   7.771
28014SOL    HW132881  14.084   5.935   7.869
28014SOL    HW232882  14.170   5.905   7.733
28015SOL     OW32883   5.867   7.526   0.008
28015SOL    HW132884   5.823   7.547   0.095
28015SOL    HW232885   5.890   7.428   0.005
28016SOL     OW32886  11.421  11.226   1.051
28016SOL    HW132887  11.404  11.323   1.033
28016SOL    HW232888  11.387  11.202   1.142
28017SOL     OW32889  15.955  11.540   8.271
28017SOL    HW132890  15.905  11.521   8.186
28017SOL    HW232891  15.921  11.625   8.310
28018SOL     OW32892  15.698  15.786   0.981
28018SOL    HW132893  15.795  15.765   0.988
28018SOL    HW232894  15.685  15.860   0.914
28019SOL     OW32895   5.188   6.342   0.007
28019SOL    HW132896   5.140   6.336   8.373
28019SOL    HW232897   5.182   6.253   0.053
28020SOL     OW32898  12.915  10.415   2.484
28020SOL    HW132899  12.844  10.389   2.549
28020SOL    HW232900  13.005  10.392   2.522
28021SOL     OW32901   0.603   3.066   0.030
28021SOL    HW132902   0.539   3.036   8.413
28021SOL    HW232903   0.650   3.149   0.000
28022SOL     OW32904  14.075   4.677   7.770
28022SOL    HW132905  14.091   4.738   7.692
28022SOL    HW232906  14.163   4.654   7.812
28023SOL     OW32907   9.947   4.569   1.599
28023SOL    HW132908   9.853   4.588   1.629
28023SOL    HW232909   9.957   4.594   1.503
28024SOL     OW32910   3.426  10.030   1.982
28024SOL    HW132911   3.418   9.985   2.070
28024SOL    HW232912   3.480  10.114   1.992
28025SOL     OW32913   7.508  13.116   7.585
28025SOL    HW132914   7.522  13.134   7.682
28025SOL    HW232915   7.430  13.169   7.551
28026SOL     OW32916   4.784   5.131   7.497
28026SOL    HW132917   4.862   5.104   7.554
28026SOL    HW232918   4.764   5.058   7.431
28027SOL     OW32919   5.925  15.071   6.500
28027SOL    HW132920   5.933  14.984   6.451
28027SOL    HW232921   5.978  15.141   6.454
28028SOL     OW32922  11.958  13.608   8.211
28028SOL    HW132923  11.929  13.689   8.161
28028SOL    HW232924  12.014  13.550   8.152
28029SOL     OW32925   4.680   6.834   7.853
28029SOL    HW132926   4.663   6.847   7.755
28029SOL    HW232927   4.692   6.737   7.872
28030SOL     OW32928   2.327   1.720   6.779
28030SOL    HW132929   2.247   1.662   6.764
28030SOL    HW232930   2.378   1.730   6.694
28031SOL     OW32931  12.052   5.356   0.404
28031SOL    HW132932  11.972   5.414   0.392
28031SOL    HW232933  12.023   5.261   0.415
28032SOL     OW32934  13.876  10.722   1.193
28032SOL    HW132935  13.965  10.760   1.217
28032SOL    HW232936  13.875  10.624   1.211
28033SOL     OW32937  14.369  13.985   7.969
28033SOL    HW132938  14.440  13.978   7.899
28033SOL    HW232939  14.310  14.063   7.950
28034SOL     OW32940  14.476   1.208   0.689
28034SOL    HW132941  14.545   1.193   0.760
28034SOL    HW232942  14.423   1.290   0.711
28035SOL     OW32943   0.647  16.303   2.450
28035SOL    HW132944   0.733  16.350   2.471
28035SOL    HW232945   0.570  16.356   2.484
28036SOL     OW32946  13.587   8.871   0.730
28036SOL    HW132947  13.614   8.911   0.817
28036SOL    HW232948  13.651   8.799   0.705
28037SOL     OW32949   6.987   0.622   7.406
28037SOL    HW132950   7.045   0.546   7.435
28037SOL    HW232951   7.043   0.703   7.390
28038SOL     OW32952  13.822   2.270   0.697
28038SOL    HW132953  13.762   2.207   0.648
28038SOL    HW232954  13.767   2.341   0.741
28039SOL     OW32955  10.510  14.738   6.815
28039SOL    HW132956  10.473  14.645   6.824
28039SOL    HW232957  10.600  14.741   6.859
28040SOL     OW32958   7.824  15.483   6.214
28040SOL    HW132959   7.765  15.470   6.293
28040SOL    HW232960   7.770  15.509   6.135
28041SOL     OW32961   7.151   6.533   0.433
28041SOL    HW132962   7.190   6.606   0.489
28041SOL    HW232963   7.068   6.566   0.388
28042SOL     OW32964   5.543  15.893   7.056
28042SOL    HW132965   5.550  15.846   7.144
28042SOL    HW232966   5.503  15.831   6.988
28043SOL     OW32967   5.732   6.198   1.534
28043SOL    HW132968   5.759   6.293   1.549
28043SOL    HW232969   5.790   6.158   1.462
28044SOL     OW32970   4.315  13.037   0.313
28044SOL    HW132971   4.388  12.993   0.366
28044SOL    HW232972   4.356  13.089   0.238
28045SOL     OW32973  10.215  15.915   7.412
28045SOL    HW132974  10.166  15.922   7.325
28045SOL    HW232975  10.230  15.818   7.434
28046SOL     OW32976  12.202  13.101   7.365
28046SOL    HW132977  12.282  13.124   7.310
28046SOL    HW232978  12.199  13.001   7.377
28047SOL     OW32979   9.775   0.913   7.124
28047SOL    HW132980   9.775   1.005   7.085
28047SOL    HW232981   9.714   0.910   7.203
28048SOL     OW32982   6.321  13.650   7.109
28048SOL    HW132983   6.367  13.720   7.054
28048SOL    HW232984   6.382  13.622   7.184
28049SOL     OW32985   1.297   2.507   0.460
28049SOL    HW132986   1.254   2.593   0.488
28049SOL    HW232987   1.331   2.515   0.367
28050SOL     OW32988  11.075  14.638   1.489
28050SOL    HW132989  11.076  14.593   1.578
28050SOL    HW232990  10.981  14.642   1.454
28051SOL     OW32991   1.916  13.685   0.664
28051SOL    HW132992   1.821  13.694   0.695
28051SOL    HW232993   1.919  13.632   0.580
28052SOL     OW32994   3.882   4.502   1.418
28052SOL    HW132995   3.943   4.578   1.396
28052SOL    HW232996   3.913   4.456   1.501
28053SOL     OW32997  13.111  10.621   0.660
28053SOL    HW132998  13.178  10.566   0.712
28053SOL    HW232999  13.135  10.620   0.563
28054SOL     OW33000  14.091   5.055   7.291
28054SOL    HW133001  14.124   5.149   7.281
28054SOL    HW233002  14.091   5.009   7.202
28055SOL     OW33003   3.441   5.381   7.408
28055SOL    HW133004   3.502   5.333   7.345
28055SOL    HW233005   3.347   5.349   7.394
28056SOL     OW33006   9.975   9.870   7.763
28056SOL    HW133007   9.997   9.898   7.669
28056SOL    HW233008  10.055   9.827   7.805
28057SOL     OW33009   6.823  10.265   7.947
28057SOL    HW133010   6.849  10.340   7.886
28057SOL    HW233011   6.816  10.299   8.041
28058SOL     OW33012   5.486  11.239   0.789
28058SOL    HW133013   5.437  11.317   0.750
28058SOL    HW233014   5.490  11.248   0.888
28059SOL     OW33015  13.299   8.036   0.099
28059SOL    HW133016  13.392   8.022   0.066
28059SOL    HW233017  13.288   7.991   0.188
28060SOL     OW33018  14.963   2.602   0.990
28060SOL    HW133019  14.868   2.573   1.002
28060SOL    HW233020  14.995   2.572   0.900
28061SOL     OW33021  11.842   5.078   6.670
28061SOL    HW133022  11.927   5.024   6.673
28061SOL    HW233023  11.780   5.038   6.603
28062SOL     OW33024   0.807   8.150   8.073
28062SOL    HW133025   0.779   8.170   8.167
28062SOL    HW233026   0.795   8.232   8.017
28063SOL     OW33027  14.106   6.131   0.449
28063SOL    HW133028  14.115   6.108   0.352
28063SOL    HW233029  14.019   6.098   0.484
28064SOL     OW33030  10.164  11.946   8.079
28064SOL    HW133031  10.255  11.985   8.063
28064SOL    HW233032  10.152  11.926   8.176
28065SOL     OW33033   0.875   9.749   2.437
28065SOL    HW133034   0.879   9.695   2.521
28065SOL    HW233035   0.790   9.728   2.388
28066SOL     OW33036   8.884  11.002   8.280
28066SOL    HW133037   8.907  10.908   8.253
28066SOL    HW233038   8.949  11.065   8.240
28067SOL     OW33039   5.839   5.541   8.152
28067SOL    HW133040   5.826   5.442   8.143
28067SOL    HW233041   5.835   5.565   8.249
28068SOL     OW33042   2.452   9.946   0.511
28068SOL    HW133043   2.385   9.916   0.579
28068SOL    HW233044   2.504  10.023   0.547
28069SOL     OW33045  12.429  16.387   6.642
28069SOL    HW133046  12.342  16.370   6.595
28069SOL    HW233047  12.502  16.400   6.575
28070SOL     OW33048   4.953   6.925   0.107
28070SOL    HW133049   4.893   6.989   0.154
28070SOL    HW233050   5.043   6.924   0.152
28071SOL     OW33051   4.185  16.102   8.026
28071SOL    HW133052   4.229  16.022   7.985
28071SOL    HW233053   4.096  16.116   7.983
28072SOL     OW33054   1.934   4.041   7.514
28072SOL    HW133055   1.979   4.103   7.578
28072SOL    HW233056   1.966   4.059   7.421
28073SOL     OW33057  15.261   0.951   8.076
28073SOL    HW133058  15.305   0.969   7.988
28073SOL    HW233059  15.269   1.032   8.134
28074SOL     OW33060  10.819   3.847   0.419
28074SOL    HW133061  10.815   3.944   0.443
28074SOL    HW233062  10.727   3.814   0.398
28075SOL     OW33063   8.423  14.358   2.031
28075SOL    HW133064   8.503  14.411   2.057
28075SOL    HW233065   8.400  14.376   1.936
28076SOL     OW33066   9.343  11.270   0.933
28076SOL    HW133067   9.358  11.256   1.031
28076SOL    HW233068   9.421  11.318   0.894
28077SOL     OW33069  16.468  11.429   2.194
28077SOL    HW133070  16.528  11.507   2.176
28077SOL    HW233071  16.427  11.438   2.284
28078SOL     OW33072   5.772   6.465   0.915
28078SOL    HW133073   5.760   6.371   0.885
28078SOL    HW233074   5.865   6.477   0.951
28079SOL     OW33075   6.413   1.556   6.678
28079SOL    HW133076   6.428   1.482   6.613
28079SOL    HW233077   6.427   1.644   6.631
28080SOL     OW33078   3.910   1.384   1.217
28080SOL    HW133079   3.883   1.403   1.122
28080SOL    HW233080   3.884   1.460   1.275
28081SOL     OW33081  14.619   5.340   7.553
28081SOL    HW133082  14.658   5.281   7.483
28081SOL    HW233083  14.646   5.307   7.643
28082SOL     OW33084   3.890   4.563   6.999
28082SOL    HW133085   3.891   4.496   7.074
28082SOL    HW233086   3.953   4.637   7.019
28083SOL     OW33087  11.235  10.300   6.235
28083SOL    HW133088  11.257  10.326   6.141
28083SOL    HW233089  11.191  10.210   6.236
28084SOL     OW33090  16.072  10.800   2.127
28084SOL    HW133091  16.025  10.713   2.141
28084SOL    HW233092  16.154  10.804   2.185
28085SOL     OW33093  13.547  15.743   7.126
28085SOL    HW133094  13.532  15.819   7.189
28085SOL    HW233095  13.473  15.676   7.136
28086SOL     OW33096   1.013   8.009   1.753
28086SOL    HW133097   1.058   8.018   1.841
28086SOL    HW233098   1.013   7.913   1.725
28087SOL     OW33099  15.034   0.277   1.302
28087SOL    HW133100  15.029   0.366   1.257
28087SOL    HW233101  15.081   0.287   1.390
28088SOL     OW33102  10.978  13.985   0.475
28088SOL    HW133103  10.909  14.005   0.544
28088SOL    HW233104  11.021  14.071   0.445
28089SOL     OW33105   4.374   4.818   1.484
28089SOL    HW133106   4.385   4.818   1.385
28089SOL    HW233107   4.432   4.747   1.524
28090SOL     OW33108  12.900   8.852   8.043
28090SOL    HW133109  12.843   8.878   8.120
28090SOL    HW233110  12.955   8.930   8.013
28091SOL     OW33111  13.935   4.255   1.099
28091SOL    HW133112  13.991   4.316   1.043
28091SOL    HW233113  13.877   4.200   1.040
28092SOL     OW33114   5.613   0.418   1.760
28092SOL    HW133115   5.637   0.401   1.856
28092SOL    HW233116   5.581   0.512   1.749
28093SOL     OW33117  14.141   4.173   1.272
28093SOL    HW133118  14.112   4.102   1.336
28093SOL    HW233119  14.062   4.204   1.218
28094SOL     OW33120  14.399   3.016   8.391
28094SOL    HW133121  14.432   2.955   8.320
28094SOL    HW233122  14.303   2.996   8.411
28095SOL     OW33123   1.673   4.052   7.407
28095SOL    HW133124   1.641   4.146   7.423
28095SOL    HW233125   1.762   4.040   7.451
28096SOL     OW33126  12.048   2.472   0.661
28096SOL    HW133127  11.963   2.499   0.705
28096SOL    HW233128  12.118   2.542   0.675
28097SOL     OW33129  15.401   8.711   7.695
28097SOL    HW133130  15.462   8.790   7.703
28097SOL    HW233131  15.361   8.708   7.604
28098SOL     OW33132  12.583   7.235   6.876
28098SOL    HW133133  12.600   7.137   6.867
28098SOL    HW233134  12.646   7.286   6.817
28099SOL     OW33135   6.420   8.777   7.151
28099SOL    HW133136   6.476   8.735   7.223
28099SOL    HW233137   6.461   8.758   7.062
28100SOL     OW33138   3.647  13.156   2.710
28100SOL    HW133139   3.731  13.130   2.664
28100SOL    HW233140   3.604  13.074   2.749
28101SOL     OW33141   6.879   7.635   7.285
28101SOL    HW133142   6.901   7.657   7.190
28101SOL    HW233143   6.963   7.609   7.333
28102SOL     OW33144   3.325  12.214   8.233
28102SOL    HW133145   3.290  12.286   8.293
28102SOL    HW233146   3.363  12.254   8.150
28103SOL     OW33147   9.048   8.390   0.260
28103SOL    HW133148   9.053   8.390   0.359
28103SOL    HW233149   8.964   8.344   0.231
28104SOL     OW33150   3.555  11.723   7.465
28104SOL    HW133151   3.621  11.764   7.402
28104SOL    HW233152   3.589  11.634   7.495
28105SOL     OW33153   0.724   5.533   6.859
28105SOL    HW133154   0.683   5.461   6.915
28105SOL    HW233155   0.812   5.559   6.897
28106SOL     OW33156   1.491  13.455   7.497
28106SOL    HW133157   1.528  13.365   7.472
28106SOL    HW233158   1.394  13.459   7.473
28107SOL     OW33159  12.458  13.859   1.809
28107SOL    HW133160  12.371  13.810   1.820
28107SOL    HW233161  12.484  13.859   1.713
28108SOL     OW33162  11.460  12.777   7.376
28108SOL    HW133163  11.382  12.718   7.396
28108SOL    HW233164  11.492  12.820   7.461
28109SOL     OW33165   9.690   1.728   6.932
28109SOL    HW133166   9.658   1.754   6.841
28109SOL    HW233167   9.735   1.806   6.975
28110SOL     OW33168   6.495  16.034   0.644
28110SOL    HW133169   6.399  16.017   0.667
28110SOL    HW233170   6.553  16.003   0.720
28111SOL     OW33171  10.086   5.024   1.199
28111SOL    HW133172  10.032   5.072   1.268
28111SOL    HW233173  10.183   5.037   1.218
28112SOL     OW33174   5.641  16.121   8.408
28112SOL    HW133175   5.546  16.105   8.435
28112SOL    HW233176   5.702  16.074   0.018
28113SOL     OW33177  11.788   8.313   0.351
28113SOL    HW133178  11.747   8.345   0.437
28113SOL    HW233179  11.862   8.374   0.325
28114SOL     OW33180  11.589   8.466   0.782
28114SOL    HW133181  11.682   8.436   0.763
28114SOL    HW233182  11.589   8.563   0.805
28115SOL     OW33183  15.723   4.466   0.287
28115SOL    HW133184  15.787   4.510   0.225
28115SOL    HW233185  15.772   4.407   0.350
28116SOL     OW33186  12.661   3.333   7.761
28116SOL    HW133187  12.672   3.399   7.687
28116SOL    HW233188  12.685   3.242   7.728
28117SOL     OW33189   6.311  14.522   0.160
28117SOL    HW133190   6.366  14.565   0.232
28117SOL    HW233191   6.219  14.558   0.162
28118SOL     OW33192   0.627  13.495   1.984
28118SOL    HW133193   0.572  13.413   1.967
28118SOL    HW233194   0.709  13.470   2.036
28119SOL     OW33195  13.346   5.304   0.003
28119SOL    HW133196  13.301   5.379   0.052
28119SOL    HW233197  13.415   5.342   8.394
28120SOL     OW33198   3.596   5.919   7.783
28120SOL    HW133199   3.509   5.954   7.819
28120SOL    HW233200   3.583   5.825   7.751
28121SOL     OW33201  14.341   0.878   2.160
28121SOL    HW133202  14.271   0.935   2.118
28121SOL    HW233203  14.299   0.799   2.203
28122SOL     OW33204  14.866  11.136   8.346
28122SOL    HW133205  14.785  11.080   8.329
28122SOL    HW233206  14.850  11.229   8.313
28123SOL     OW33207  11.226   4.513   0.489
28123SOL    HW133208  11.273   4.575   0.426
28123SOL    HW233209  11.131   4.543   0.500
28124SOL     OW33210  10.768  14.848   8.084
28124SOL    HW133211  10.850  14.874   8.136
28124SOL    HW233212  10.720  14.775   8.132
28125SOL     OW33213  16.466   4.835   6.596
28125SOL    HW133214  16.412   4.867   6.518
28125SOL    HW233215  16.502   4.914   6.646
28126SOL     OW33216   1.140  14.620   7.360
28126SOL    HW133217   1.047  14.655   7.363
28126SOL    HW233218   1.141  14.525   7.392
28127SOL     OW33219   7.243  11.184   1.654
28127SOL    HW133220   7.307  11.133   1.596
28127SOL    HW233221   7.185  11.242   1.596
28128SOL     OW33222  15.003  13.789   1.835
28128SOL    HW133223  14.998  13.886   1.861
28128SOL    HW233224  14.939  13.771   1.761
28129SOL     OW33225  16.771   4.122   0.004
28129SOL    HW133226  16.841   4.114   0.076
28129SOL    HW233227  16.754   4.219   8.440
28130SOL     OW33228  13.823   6.885   7.869
28130SOL    HW133229  13.780   6.828   7.938
28130SOL    HW233230  13.922   6.873   7.873
28131SOL     OW33231   6.830   5.466   0.858
28131SOL    HW133232   6.865   5.483   0.950
28131SOL    HW233233   6.759   5.533   0.837
28132SOL     OW33234  11.749   2.228   8.266
28132SOL    HW133235  11.750   2.139   8.311
28132SOL    HW233236  11.759   2.215   8.167
28133SOL     OW33237   7.441   7.160   8.425
28133SOL    HW133238   7.474   7.245   8.385
28133SOL    HW233239   7.509   7.088   8.412
28134SOL     OW33240   0.889  16.923   7.688
28134SOL    HW133241   0.877  16.879   7.777
28134SOL    HW233242   0.817   0.008   7.675
28135SOL     OW33243  12.564  11.305   1.940
28135SOL    HW133244  12.602  11.241   1.873
28135SOL    HW233245  12.490  11.358   1.898
28136SOL     OW33246  14.962  15.732   8.070
28136SOL    HW133247  15.001  15.662   8.129
28136SOL    HW233248  14.926  15.807   8.126
28137SOL     OW33249   7.890   7.042   0.596
28137SOL    HW133250   7.808   6.997   0.630
28137SOL    HW233251   7.896   7.135   0.632
28138SOL     OW33252  14.597   8.220   8.306
28138SOL    HW133253  14.670   8.200   8.240
28138SOL    HW233254  14.635   8.268   8.384
28139SOL     OW33255   5.378  11.614   1.184
28139SOL    HW133256   5.376  11.571   1.275
28139SOL    HW233257   5.337  11.552   1.117
28140SOL     OW33258   7.143   0.215   7.293
28140SOL    HW133259   7.228   0.172   7.264
28140SOL    HW233260   7.080   0.220   7.216
28141SOL     OW33261   2.502   8.250   7.699
28141SOL    HW133262   2.513   8.254   7.600
28141SOL    HW233263   2.532   8.160   7.732
28142SOL     OW33264   5.391  15.097   8.300
28142SOL    HW133265   5.412  15.128   8.207
28142SOL    HW233266   5.292  15.086   8.310
28143SOL     OW33267  15.374  14.178   8.194
28143SOL    HW133268  15.450  14.210   8.249
28143SOL    HW233269  15.290  14.227   8.220
28144SOL     OW33270  11.484   3.457   1.205
28144SOL    HW133271  11.543   3.391   1.252
28144SOL    HW233272  11.418   3.496   1.269
28145SOL     OW33273  12.923   2.277   1.099
28145SOL    HW133274  12.839   2.331   1.093
28145SOL    HW233275  12.980   2.312   1.172
28146SOL     OW33276   5.198   9.734   0.720
28146SOL    HW133277   5.263   9.789   0.668
28146SOL    HW233278   5.207   9.755   0.817
28147SOL     OW33279  13.133  13.706   0.812
28147SOL    HW133280  13.133  13.629   0.876
28147SOL    HW233281  13.038  13.731   0.790
28148SOL     OW33282   7.414  12.261   6.622
28148SOL    HW133283   7.401  12.250   6.721
28148SOL    HW233284   7.506  12.230   6.597
28149SOL     OW33285   9.884   7.412   0.252
28149SOL    HW133286   9.877   7.460   0.165
28149SOL    HW233287   9.961   7.449   0.305
28150SOL     OW33288   1.872   8.420   0.836
28150SOL    HW133289   1.941   8.369   0.785
28150SOL    HW233290   1.781   8.401   0.799
28151SOL     OW33291  10.343   4.669   0.649
28151SOL    HW133292  10.275   4.727   0.695
28151SOL    HW233293  10.400   4.726   0.590
28152SOL     OW33294   6.836   3.893   7.394
28152SOL    HW133295   6.758   3.949   7.366
28152SOL    HW233296   6.878   3.852   7.314
28153SOL     OW33297  12.371   4.584   7.410
28153SOL    HW133298  12.350   4.596   7.313
28153SOL    HW233299  12.378   4.486   7.431
28154SOL     OW33300   1.968  12.789   0.828
28154SOL    HW133301   1.932  12.877   0.797
28154SOL    HW233302   2.062  12.800   0.858
28155SOL     OW33303   8.033   9.203   8.370
28155SOL    HW133304   7.975   9.138   8.419
28155SOL    HW233305   8.071   9.158   8.289
28156SOL     OW33306  14.579   1.900   7.763
28156SOL    HW133307  14.493   1.900   7.712
28156SOL    HW233308  14.637   1.975   7.730
28157SOL     OW33309  16.462   3.683   6.129
28157SOL    HW133310  16.433   3.650   6.039
28157SOL    HW233311  16.416   3.630   6.200
28158SOL     OW33312  15.703   0.881   1.552
28158SOL    HW133313  15.719   0.855   1.647
28158SOL    HW233314  15.764   0.955   1.527
28159SOL     OW33315  11.027   8.684   1.336
28159SOL    HW133316  10.934   8.650   1.319
28159SOL    HW233317  11.075   8.619   1.396
28160SOL     OW33318   4.988   3.905   0.339
28160SOL    HW133319   5.004   3.914   0.437
28160SOL    HW233320   4.905   3.852   0.323
28161SOL     OW33321   5.426  12.087   6.254
28161SOL    HW133322   5.427  12.174   6.302
28161SOL    HW233323   5.334  12.048   6.256
28162SOL     OW33324   8.592   9.579   0.873
28162SOL    HW133325   8.521   9.612   0.935
28162SOL    HW233326   8.682   9.606   0.907
28163SOL     OW33327   8.042  14.389   0.166
28163SOL    HW133328   7.952  14.356   0.194
28163SOL    HW233329   8.107  14.313   0.167
28164SOL     OW33330  11.392  10.185   1.010
28164SOL    HW133331  11.404  10.193   0.911
28164SOL    HW233332  11.476  10.210   1.057
28165SOL     OW33333   8.566   5.096   0.741
28165SOL    HW133334   8.471   5.129   0.743
28165SOL    HW233335   8.585   5.045   0.825
28166SOL     OW33336   2.218   7.741   6.325
28166SOL    HW133337   2.303   7.699   6.292
28166SOL    HW233338   2.152   7.745   6.250
28167SOL     OW33339  10.081   2.737   5.765
28167SOL    HW133340  10.097   2.699   5.674
28167SOL    HW233341   9.984   2.758   5.776
28168SOL     OW33342  15.017  11.797   7.074
28168SOL    HW133343  15.108  11.775   7.040
28168SOL    HW233344  14.965  11.712   7.086
28169SOL     OW33345  12.691   7.332   0.486
28169SOL    HW133346  12.784   7.326   0.448
28169SOL    HW233347  12.690   7.397   0.562
28170SOL     OW33348   6.986  13.668   0.810
28170SOL    HW133349   6.889  13.670   0.836
28170SOL    HW233350   7.037  13.735   0.864
28171SOL     OW33351  13.541  15.758   7.509
28171SOL    HW133352  13.565  15.668   7.474
28171SOL    HW233353  13.618  15.795   7.560
28172SOL     OW33354   4.404   3.743   7.427
28172SOL    HW133355   4.312   3.704   7.417
28172SOL    HW233356   4.408   3.831   7.379
28173SOL     OW33357  13.467   4.961   0.718
28173SOL    HW133358  13.495   5.033   0.781
28173SOL    HW233359  13.492   4.986   0.625
28174SOL     OW33360   9.085  12.888   7.531
28174SOL    HW133361   9.152  12.815   7.522
28174SOL    HW233362   9.131  12.977   7.530
28175SOL     OW33363  11.101   3.493   7.398
28175SOL    HW133364  11.114   3.575   7.342
28175SOL    HW233365  11.046   3.515   7.478
28176SOL     OW33366   1.930  13.958   2.396
28176SOL    HW133367   1.933  14.041   2.451
28176SOL    HW233368   1.874  13.974   2.315
28177SOL     OW33369  12.847   5.424   0.919
28177SOL    HW133370  12.793   5.347   0.955
28177SOL    HW233371  12.932   5.432   0.972
28178SOL     OW33372   7.221   3.481   7.803
28178SOL    HW133373   7.235   3.444   7.895
28178SOL    HW233374   7.205   3.406   7.739
28179SOL     OW33375   0.373   0.300   0.839
28179SOL    HW133376   0.363   0.250   0.925
28179SOL    HW233377   0.393   0.236   0.765
28180SOL     OW33378   5.246  10.166   0.764
28180SOL    HW133379   5.165  10.222   0.781
28180SOL    HW233380   5.251  10.143   0.667
28181SOL     OW33381   9.854   7.863   1.112
28181SOL    HW133382   9.884   7.957   1.129
28181SOL    HW233383   9.758   7.864   1.083
28182SOL     OW33384  11.216   7.726   8.229
28182SOL    HW133385  11.154   7.799   8.201
28182SOL    HW233386  11.215   7.717   8.329
28183SOL     OW33387  12.732   2.435   0.666
28183SOL    HW133388  12.661   2.427   0.736
28183SOL    HW233389  12.712   2.512   0.606
28184SOL     OW33390   7.719  11.732   7.221
28184SOL    HW133391   7.758  11.738   7.313
28184SOL    HW233392   7.759  11.653   7.174
28185SOL     OW33393  16.804   9.567   0.879
28185SOL    HW133394  16.832   9.662   0.863
28185SOL    HW233395  16.782   9.555   0.976
28186SOL     OW33396  16.056   1.399   1.880
28186SOL    HW133397  16.081   1.308   1.849
28186SOL    HW233398  15.959   1.416   1.860
28187SOL     OW33399  13.233   6.751   7.776
28187SOL    HW133400  13.307   6.811   7.746
28187SOL    HW233401  13.216   6.766   7.874
28188SOL     OW33402   5.309   3.402   0.656
28188SOL    HW133403   5.247   3.469   0.615
28188SOL    HW233404   5.361   3.445   0.730
28189SOL     OW33405   9.019   7.314   1.500
28189SOL    HW133406   8.983   7.350   1.586
28189SOL    HW233407   8.943   7.282   1.443
28190SOL     OW33408   7.412  11.672   1.451
28190SOL    HW133409   7.337  11.655   1.388
28190SOL    HW233410   7.462  11.754   1.423
28191SOL     OW33411  11.327  14.276   6.633
28191SOL    HW133412  11.334  14.338   6.555
28191SOL    HW233413  11.417  14.235   6.651
28192SOL     OW33414   9.814   1.379   1.685
28192SOL    HW133415   9.798   1.398   1.782
28192SOL    HW233416   9.727   1.376   1.636
28193SOL     OW33417  16.124  16.384   1.246
28193SOL    HW133418  16.095  16.435   1.165
28193SOL    HW233419  16.094  16.289   1.239
28194SOL     OW33420   4.966  15.132   1.842
28194SOL    HW133421   4.953  15.044   1.887
28194SOL    HW233422   5.062  15.160   1.849
28195SOL     OW33423  13.163  16.102   1.480
28195SOL    HW133424  13.107  16.182   1.502
28195SOL    HW233425  13.225  16.083   1.556
28196SOL     OW33426   4.918  10.462   6.913
28196SOL    HW133427   4.909  10.449   6.814
28196SOL    HW233428   5.010  10.435   6.942
28197SOL     OW33429  16.530   9.402   7.961
28197SOL    HW133430  16.467   9.430   7.889
28197SOL    HW233431  16.485   9.335   8.020
28198SOL     OW33432   2.944   9.340   7.837
28198SOL    HW133433   2.846   9.361   7.844
28198SOL    HW233434   2.963   9.255   7.886
28199SOL     OW33435  15.279   1.742   0.413
28199SOL    HW133436  15.257   1.811   0.482
28199SOL    HW233437  15.267   1.650   0.452
28200SOL     OW33438   2.913  15.441   7.472
28200SOL    HW133439   2.897  15.356   7.522
28200SOL    HW233440   3.007  15.471   7.487
28201SOL     OW33441   2.341  14.577   1.709
28201SOL    HW133442   2.376  14.498   1.658
28201SOL    HW233443   2.417  14.628   1.749
28202SOL     OW33444   3.508  11.156   2.533
28202SOL    HW133445   3.474  11.117   2.619
28202SOL    HW233446   3.606  11.174   2.541
28203SOL     OW33447  15.439  10.705   7.066
28203SOL    HW133448  15.367  10.754   7.017
28203SOL    HW233449  15.478  10.634   7.006
28204SOL     OW33450   2.013   7.770   6.974
28204SOL    HW133451   2.015   7.858   6.927
28204SOL    HW233452   2.086   7.712   6.939
28205SOL     OW33453  12.390   9.917   0.656
28205SOL    HW133454  12.404  10.016   0.646
28205SOL    HW233455  12.359   9.879   0.569
28206SOL     OW33456   2.904   4.996   7.064
28206SOL    HW133457   2.901   4.945   7.150
28206SOL    HW233458   2.812   5.031   7.044
28207SOL     OW33459  11.833  10.956   0.020
28207SOL    HW133460  11.905  10.907   8.424
28207SOL    HW233461  11.797  11.030   8.418
28208SOL     OW33462  14.013  13.349   7.569
28208SOL    HW133463  14.042  13.388   7.657
28208SOL    HW233464  14.049  13.404   7.494
28209SOL     OW33465   4.546  10.465   7.065
28209SOL    HW133466   4.617  10.461   7.134
28209SOL    HW233467   4.550  10.554   7.018
28210SOL     OW33468  14.963   6.972   1.372
28210SOL    HW133469  15.031   6.940   1.438
28210SOL    HW233470  14.926   7.060   1.402
28211SOL     OW33471   7.126   6.384   1.643
28211SOL    HW133472   7.176   6.310   1.688
28211SOL    HW233473   7.050   6.346   1.590
28212SOL     OW33474   0.038  14.798   1.326
28212SOL    HW133475  16.940  14.794   1.383
28212SOL    HW233476   0.028  14.735   1.249
28213SOL     OW33477  10.002   9.202   7.119
28213SOL    HW133478  10.010   9.126   7.184
28213SOL    HW233479   9.988   9.166   7.027
28214SOL     OW33480   3.502   8.139   6.984
28214SOL    HW133481   3.562   8.184   6.918
28214SOL    HW233482   3.546   8.137   7.073
28215SOL     OW33483  13.888  13.279   8.181
28215SOL    HW133484  13.942  13.361   8.165
28215SOL    HW233485  13.871  13.269   8.279
28216SOL     OW33486   5.271   6.951   1.910
28216SOL    HW133487   5.322   6.962   1.825
28216SOL    HW233488   5.255   7.041   1.951
28217SOL     OW33489   4.256   9.106   1.122
28217SOL    HW133490   4.247   9.007   1.131
28217SOL    HW233491   4.166   9.148   1.119
28218SOL     OW33492  16.415  11.956   0.001
28218SOL    HW133493  16.411  12.041   8.402
28218SOL    HW233494  16.453  11.974   0.091
28219SOL     OW33495  12.318   2.145   6.861
28219SOL    HW133496  12.315   2.194   6.774
28219SOL    HW233497  12.230   2.154   6.907
28220SOL     OW33498   2.085   8.647   1.808
28220SOL    HW133499   2.018   8.638   1.881
28220SOL    HW233500   2.150   8.571   1.812
28221SOL     OW33501  15.126   5.911   1.669
28221SOL    HW133502  15.139   5.992   1.727
28221SOL    HW233503  15.035   5.914   1.627
28222SOL     OW33504   6.184   9.551   0.579
28222SOL    HW133505   6.154   9.626   0.638
28222SOL    HW233506   6.133   9.468   0.602
28223SOL     OW33507  16.754   5.798   7.876
28223SOL    HW133508  16.725   5.887   7.910
28223SOL    HW233509  16.766   5.803   7.777
28224SOL     OW33510  13.148  10.909   7.076
28224SOL    HW133511  13.051  10.931   7.068
28224SOL    HW233512  13.192  10.920   6.987
28225SOL     OW33513  13.895  12.621   8.151
28225SOL    HW133514  13.870  12.526   8.174
28225SOL    HW233515  13.931  12.666   8.233
28226SOL     OW33516   7.733  14.431   1.820
28226SOL    HW133517   7.791  14.503   1.857
28226SOL    HW233518   7.650  14.471   1.782
28227SOL     OW33519  16.530  16.572   1.197
28227SOL    HW133520  16.574  16.623   1.271
28227SOL    HW233521  16.547  16.617   1.110
28228SOL     OW33522   0.228  11.954   8.167
28228SOL    HW133523   0.312  11.997   8.136
28228SOL    HW233524   0.155  12.022   8.170
28229SOL     OW33525  16.059  11.864   0.417
28229SOL    HW133526  16.091  11.895   0.328
28229SOL    HW233527  16.133  11.869   0.483
28230SOL     OW33528   3.954  13.334   7.968
28230SOL    HW133529   3.914  13.389   8.041
28230SOL    HW233530   4.013  13.263   8.007
28231SOL     OW33531   0.867  11.052   7.513
28231SOL    HW133532   0.935  10.990   7.472
28231SOL    HW233533   0.839  11.119   7.445
28232SOL     OW33534  10.454   4.008   1.361
28232SOL    HW133535  10.444   3.953   1.444
28232SOL    HW233536  10.541   4.057   1.363
28233SOL     OW33537   4.359   4.137   0.022
28233SOL    HW133538   4.400   4.122   8.386
28233SOL    HW233539   4.386   4.227   0.056
28234SOL     OW33540   0.780  13.335   1.556
28234SOL    HW133541   0.791  13.297   1.648
28234SOL    HW233542   0.684  13.356   1.540
28235SOL     OW33543   7.202   6.898   0.955
28235SOL    HW133544   7.210   6.907   1.054
28235SOL    HW233545   7.134   6.962   0.921
28236SOL     OW33546   3.754  16.541   6.724
28236SOL    HW133547   3.795  16.604   6.657
28236SOL    HW233548   3.655  16.544   6.716
28237SOL     OW33549   6.513   0.420   8.032
28237SOL    HW133550   6.569   0.345   8.068
28237SOL    HW233551   6.497   0.405   7.935
28238SOL     OW33552  13.566   1.399   7.045
28238SOL    HW133553  13.614   1.321   7.084
28238SOL    HW233554  13.486   1.368   6.995
28239SOL     OW33555  12.620  14.428   1.899
28239SOL    HW133556  12.679  14.351   1.875
28239SOL    HW233557  12.563  14.452   1.821
28240SOL     OW33558  12.654   1.245   8.066
28240SOL    HW133559  12.592   1.220   7.993
28240SOL    HW233560  12.617   1.322   8.118
28241SOL     OW33561  13.660  10.298   0.497
28241SOL    HW133562  13.758  10.295   0.519
28241SOL    HW233563  13.645  10.254   0.409
28242SOL     OW33564   9.705   5.060   0.294
28242SOL    HW133565   9.694   5.069   0.393
28242SOL    HW233566   9.795   5.095   0.267
28243SOL     OW33567   8.812   0.192   1.142
28243SOL    HW133568   8.811   0.188   1.042
28243SOL    HW233569   8.869   0.269   1.172
28244SOL     OW33570  15.745   6.702   1.531
28244SOL    HW133571  15.674   6.771   1.549
28244SOL    HW233572  15.809   6.700   1.607
28245SOL     OW33573   1.036   5.356   7.719
28245SOL    HW133574   0.952   5.400   7.750
28245SOL    HW233575   1.104   5.425   7.696
28246SOL     OW33576   8.812   1.351   7.789
28246SOL    HW133577   8.713   1.346   7.783
28246SOL    HW233578   8.851   1.260   7.781
28247SOL     OW33579   1.097   4.908   7.122
28247SOL    HW133580   1.098   4.991   7.179
28247SOL    HW233581   1.003   4.875   7.114
28248SOL     OW33582   3.674  14.062   0.855
28248SOL    HW133583   3.685  13.964   0.871
28248SOL    HW233584   3.680  14.111   0.942
28249SOL     OW33585   8.265   1.199   6.953
28249SOL    HW133586   8.341   1.237   6.900
28249SOL    HW233587   8.186   1.261   6.948
28250SOL     OW33588   0.244  10.682   0.195
28250SOL    HW133589   0.331  10.724   0.220
28250SOL    HW233590   0.187  10.749   0.148
28251SOL     OW33591   1.826   8.604   6.637
28251SOL    HW133592   1.812   8.516   6.682
28251SOL    HW233593   1.889   8.593   6.559
28252SOL     OW33594  10.322   7.493   6.616
28252SOL    HW133595  10.366   7.497   6.705
28252SOL    HW233596  10.379   7.539   6.548
28253SOL     OW33597   6.912   6.287   1.482
28253SOL    HW133598   6.970   6.207   1.465
28253SOL    HW233599   6.849   6.267   1.557
28254SOL     OW33600  13.417   0.101   0.521
28254SOL    HW133601  13.458   0.096   0.612
28254SOL    HW233602  13.325   0.061   0.524
28255SOL     OW33603   9.720   3.751   2.376
28255SOL    HW133604   9.677   3.839   2.357
28255SOL    HW233605   9.819   3.760   2.370
28256SOL     OW33606   8.281   1.027   2.180
28256SOL    HW133607   8.182   1.033   2.169
28256SOL    HW233608   8.302   0.987   2.269
28257SOL     OW33609  11.568  11.644   8.133
28257SOL    HW133610  11.570  11.649   8.232
28257SOL    HW233611  11.476  11.618   8.102
28258SOL     OW33612   1.624  10.077   6.605
28258SOL    HW133613   1.724  10.072   6.601
28258SOL    HW233614   1.585  10.015   6.537
28259SOL     OW33615  12.816  16.244   1.354
28259SOL    HW133616  12.876  16.273   1.429
28259SOL    HW233617  12.767  16.322   1.319
28260SOL     OW33618  10.565   7.256   6.912
28260SOL    HW133619  10.660   7.231   6.892
28260SOL    HW233620  10.509   7.173   6.914
28261SOL     OW33621  13.271  13.020   1.036
28261SOL    HW133622  13.188  12.970   1.060
28261SOL    HW233623  13.248  13.099   0.980
28262SOL     OW33624  13.877  15.915   1.194
28262SOL    HW133625  13.886  16.012   1.172
28262SOL    HW233626  13.941  15.862   1.137
28263SOL     OW33627   8.318   2.429   6.730
28263SOL    HW133628   8.226   2.462   6.753
28263SOL    HW233629   8.381   2.453   6.803
28264SOL     OW33630  13.745   4.212   6.121
28264SOL    HW133631  13.698   4.223   6.033
28264SOL    HW233632  13.775   4.117   6.130
28265SOL     OW33633  15.446  15.551   1.509
28265SOL    HW133634  15.372  15.556   1.577
28265SOL    HW233635  15.492  15.463   1.517
28266SOL     OW33636  16.885  10.017   6.723
28266SOL    HW133637  16.969  10.011   6.776
28266SOL    HW233638  16.872   9.932   6.672
28267SOL     OW33639   3.519   2.635   1.340
28267SOL    HW133640   3.430   2.589   1.346
28267SOL    HW233641   3.586   2.572   1.300
28268SOL     OW33642  15.668  13.873   8.244
28268SOL    HW133643  15.656  13.922   8.331
28268SOL    HW233644  15.613  13.917   8.173
28269SOL     OW33645   0.294   4.928   7.241
28269SOL    HW133646   0.370   4.869   7.214
28269SOL    HW233647   0.257   4.975   7.161
28270SOL     OW33648  12.825  11.842   0.854
28270SOL    HW133649  12.786  11.752   0.832
28270SOL    HW233650  12.751  11.908   0.865
28271SOL     OW33651  12.826   6.136   6.868
28271SOL    HW133652  12.855   6.158   6.961
28271SOL    HW233653  12.890   6.069   6.828
28272SOL     OW33654  15.225   5.813   6.268
28272SOL    HW133655  15.311   5.783   6.310
28272SOL    HW233656  15.193   5.745   6.203
28273SOL     OW33657  13.667   6.991   7.167
28273SOL    HW133658  13.676   6.918   7.234
28273SOL    HW233659  13.571   7.019   7.160
28274SOL     OW33660  13.932  12.023   1.242
28274SOL    HW133661  13.933  11.927   1.271
28274SOL    HW233662  13.948  12.027   1.144
28275SOL     OW33663   6.085   5.527   1.226
28275SOL    HW133664   6.041   5.613   1.255
28275SOL    HW233665   6.050   5.452   1.281
28276SOL     OW33666   5.069  12.284   6.869
28276SOL    HW133667   5.007  12.213   6.835
28276SOL    HW233668   5.034  12.374   6.844
28277SOL     OW33669   1.631   9.997   0.525
28277SOL    HW133670   1.558  10.058   0.555
28277SOL    HW233671   1.624   9.982   0.426
28278SOL     OW33672  12.736  10.628   7.094
28278SOL    HW133673  12.699  10.555   7.037
28278SOL    HW233674  12.743  10.596   7.189
28279SOL     OW33675  13.253   9.900   1.056
28279SOL    HW133676  13.161   9.901   1.096
28279SOL    HW233677  13.288   9.993   1.053
28280SOL     OW33678   3.274   4.565   0.968
28280SOL    HW133679   3.321   4.476   0.969
28280SOL    HW233680   3.224   4.575   0.882
28281SOL     OW33681   3.961  12.018   0.020
28281SOL    HW133682   4.039  12.071   0.054
28281SOL    HW233683   3.878  12.046   0.069
28282SOL     OW33684  13.667   6.776   7.336
28282SOL    HW133685  13.655   6.783   7.435
28282SOL    HW233686  13.758   6.740   7.316
28283SOL     OW33687   4.097   4.078   7.938
28283SOL    HW133688   3.999   4.098   7.928
28283SOL    HW233689   4.108   3.997   7.995
28284SOL     OW33690  10.575   3.551   6.755
28284SOL    HW133691  10.577   3.646   6.786
28284SOL    HW233692  10.494   3.537   6.697
28285SOL     OW33693  13.156   6.701   0.234
28285SOL    HW133694  13.088   6.663   0.296
28285SOL    HW233695  13.248   6.679   0.268
28286SOL     OW33696  16.062   3.537   0.926
28286SOL    HW133697  16.035   3.633   0.928
28286SOL    HW233698  15.999   3.483   0.981
28287SOL     OW33699  10.322   3.273   7.258
28287SOL    HW133700  10.342   3.368   7.283
28287SOL    HW233701  10.355   3.256   7.165
28288SOL     OW33702  10.717  11.049   8.323
28288SOL    HW133703  10.777  11.012   8.251
28288SOL    HW233704  10.630  11.000   8.322
28289SOL     OW33705   3.606   5.334   7.626
28289SOL    HW133706   3.556   5.369   7.547
28289SOL    HW233707   3.682   5.395   7.647
28290SOL     OW33708   9.504   8.886   7.973
28290SOL    HW133709   9.584   8.859   8.027
28290SOL    HW233710   9.430   8.820   7.986
28291SOL     OW33711  11.944   4.315   6.659
28291SOL    HW133712  11.848   4.303   6.636
28291SOL    HW233713  12.000   4.262   6.595
28292SOL     OW33714  11.608   6.059   7.686
28292SOL    HW133715  11.602   6.149   7.643
28292SOL    HW233716  11.545   6.055   7.763
28293SOL     OW33717  12.292   3.912   5.827
28293SOL    HW133718  12.285   3.815   5.852
28293SOL    HW233719  12.346   3.921   5.744
28294SOL     OW33720  16.969   2.528   7.365
28294SOL    HW133721  16.877   2.498   7.386
28294SOL    HW233722   0.040   2.452   7.329
28295SOL     OW33723  16.435  12.328   8.425
28295SOL    HW133724  16.454  12.411   0.024
28295SOL    HW233725  16.509  12.312   8.360
28296SOL     OW33726  14.418   9.630   0.275
28296SOL    HW133727  14.384   9.666   0.188
28296SOL    HW233728  14.342   9.617   0.338
28297SOL     OW33729   0.383  16.751   0.851
28297SOL    HW133730   0.286  16.759   0.875
28297SOL    HW233731   0.437  16.810   0.912
28298SOL     OW33732   7.103  10.394   1.727
28298SOL    HW133733   7.125  10.357   1.817
28298SOL    HW233734   7.068  10.487   1.736
28299SOL     OW33735   9.894   2.183   0.362
28299SOL    HW133736   9.819   2.140   0.413
28299SOL    HW233737   9.873   2.183   0.265
28300SOL     OW33738   2.619  12.355   1.492
28300SOL    HW133739   2.619  12.453   1.473
28300SOL    HW233740   2.694  12.333   1.555
28301SOL     OW33741  13.845  15.312   1.209
28301SOL    HW133742  13.936  15.319   1.169
28301SOL    HW233743  13.786  15.383   1.171
28302SOL     OW33744   2.404   2.143   1.435
28302SOL    HW133745   2.453   2.071   1.485
28302SOL    HW233746   2.330   2.179   1.493
28303SOL     OW33747   3.632  16.025   6.840
28303SOL    HW133748   3.643  15.957   6.768
28303SOL    HW233749   3.703  16.013   6.909
28304SOL     OW33750  12.542  13.035   1.099
28304SOL    HW133751  12.507  13.095   1.171
28304SOL    HW233752  12.638  13.056   1.082
28305SOL     OW33753  15.059  11.458   6.796
28305SOL    HW133754  15.059  11.442   6.698
28305SOL    HW233755  14.966  11.450   6.832
28306SOL     OW33756  13.531   1.260   8.376
28306SOL    HW133757  13.459   1.318   8.339
28306SOL    HW233758  13.507   1.164   8.361
28307SOL     OW33759   6.232   0.118   1.907
28307SOL    HW133760   6.209   0.144   1.813
28307SOL    HW233761   6.318   0.161   1.933
28308SOL     OW33762  16.192  13.844   6.924
28308SOL    HW133763  16.269  13.847   6.859
28308SOL    HW233764  16.185  13.932   6.970
28309SOL     OW33765  15.473   7.642   7.534
28309SOL    HW133766  15.475   7.742   7.526
28309SOL    HW233767  15.453   7.601   7.445
28310SOL     OW33768  10.258   6.975   7.610
28310SOL    HW133769  10.293   6.919   7.536
28310SOL    HW233770  10.247   6.918   7.692
28311SOL     OW33771  12.666   9.547   0.700
28311SOL    HW133772  12.583   9.543   0.643
28311SOL    HW233773  12.656   9.485   0.777
28312SOL     OW33774   5.712  10.704   1.747
28312SOL    HW133775   5.795  10.707   1.802
28312SOL    HW233776   5.729  10.652   1.663
28313SOL     OW33777   8.015  11.260   6.373
28313SOL    HW133778   8.019  11.360   6.364
28313SOL    HW233779   8.001  11.219   6.284
28314SOL     OW33780  12.991   3.239   7.186
28314SOL    HW133781  12.940   3.153   7.184
28314SOL    HW233782  13.017   3.265   7.093
28315SOL     OW33783  12.696   6.215   1.275
28315SOL    HW133784  12.792   6.187   1.265
28315SOL    HW233785  12.688   6.313   1.262
28316SOL     OW33786   8.251  13.211   6.470
28316SOL    HW133787   8.264  13.268   6.389
28316SOL    HW233788   8.324  13.144   6.476
28317SOL     OW33789   2.697  16.831   7.734
28317SOL    HW133790   2.715  16.857   7.829
28317SOL    HW233791   2.731  16.902   7.673
28318SOL     OW33792  10.054   3.676   1.125
28318SOL    HW133793  10.074   3.715   1.215
28318SOL    HW233794  10.096   3.733   1.054
28319SOL     OW33795  13.566   2.803   0.703
28319SOL    HW133796  13.532   2.714   0.674
28319SOL    HW233797  13.565   2.809   0.802
28320SOL     OW33798   7.179   4.470   8.210
28320SOL    HW133799   7.194   4.542   8.279
28320SOL    HW233800   7.198   4.507   8.119
28321SOL     OW33801  13.667   7.375   6.510
28321SOL    HW133802  13.570   7.353   6.510
28321SOL    HW233803  13.683   7.458   6.562
28322SOL     OW33804  16.549   7.491   6.688
28322SOL    HW133805  16.493   7.561   6.731
28322SOL    HW233806  16.640   7.529   6.668
28323SOL     OW33807   5.206   6.536   1.970
28323SOL    HW133808   5.250   6.481   2.042
28323SOL    HW233809   5.172   6.621   2.010
28324SOL     OW33810   8.066  15.716   6.953
28324SOL    HW133811   8.015  15.766   6.883
28324SOL    HW233812   8.159  15.752   6.958
28325SOL     OW33813   9.378  16.208   6.907
28325SOL    HW133814   9.434  16.272   6.855
28325SOL    HW233815   9.316  16.159   6.846
28326SOL     OW33816  10.763   5.325   1.370
28326SOL    HW133817  10.794   5.314   1.465
28326SOL    HW233818  10.802   5.409   1.332
28327SOL     OW33819   2.371   6.683   8.132
28327SOL    HW133820   2.324   6.608   8.179
28327SOL    HW233821   2.307   6.732   8.073
28328SOL     OW33822  10.784   8.135   6.645
28328SOL    HW133823  10.771   8.197   6.723
28328SOL    HW233824  10.755   8.180   6.561
28329SOL     OW33825   7.019  16.863   0.160
28329SOL    HW133826   7.070  16.871   0.075
28329SOL    HW233827   7.046  16.778   0.207
28330SOL     OW33828  10.610   7.162   7.531
28330SOL    HW133829  10.568   7.247   7.562
28330SOL    HW233830  10.703   7.181   7.497
28331SOL     OW33831  12.818  10.869   7.978
28331SOL    HW133832  12.807  10.859   7.879
28331SOL    HW233833  12.779  10.789   8.024
28332SOL     OW33834   8.117   3.434   0.909
28332SOL    HW133835   8.129   3.428   0.810
28332SOL    HW233836   8.204   3.462   0.951
28333SOL     OW33837   1.164   9.603   7.617
28333SOL    HW133838   1.158   9.644   7.708
28333SOL    HW233839   1.090   9.536   7.606
28334SOL     OW33840   3.520   1.164   0.443
28334SOL    HW133841   3.593   1.124   0.498
28334SOL    HW233842   3.499   1.256   0.477
28335SOL     OW33843  15.149   0.653   0.951
28335SOL    HW133844  15.231   0.667   0.895
28335SOL    HW233845  15.068   0.654   0.893
28336SOL     OW33846   5.188   6.012   6.526
28336SOL    HW133847   5.119   5.941   6.514
28336SOL    HW233848   5.156   6.098   6.488
28337SOL     OW33849   7.703  16.852   8.418
28337SOL    HW133850   7.711  16.868   0.062
28337SOL    HW233851   7.794  16.854   8.376
28338SOL     OW33852   4.242  10.494   7.397
28338SOL    HW133853   4.324  10.546   7.423
28338SOL    HW233854   4.206  10.446   7.477
28339SOL     OW33855   1.516   6.643   1.972
28339SOL    HW133856   1.502   6.742   1.975
28339SOL    HW233857   1.483   6.601   2.057
28340SOL     OW33858  13.303   7.613   5.833
28340SOL    HW133859  13.271   7.582   5.744
28340SOL    HW233860  13.311   7.535   5.895
28341SOL     OW33861  13.998  13.948   7.399
28341SOL    HW133862  13.991  13.909   7.307
28341SOL    HW233863  13.908  13.982   7.427
28342SOL     OW33864   4.944   4.506   0.469
28342SOL    HW133865   4.853   4.466   0.479
28342SOL    HW233866   4.968   4.509   0.372
28343SOL     OW33867   0.165  14.861   6.656
28343SOL    HW133868   0.180  14.890   6.562
28343SOL    HW233869   0.151  14.942   6.714
28344SOL     OW33870   8.725  15.893   2.578
28344SOL    HW133871   8.685  15.931   2.494
28344SOL    HW233872   8.654  15.850   2.632
28345SOL     OW33873   1.477   5.059   6.458
28345SOL    HW133874   1.421   5.142   6.462
28345SOL    HW233875   1.450   5.004   6.379
28346SOL     OW33876  16.017   2.991   1.040
28346SOL    HW133877  15.989   3.005   1.135
28346SOL    HW233878  15.937   2.998   0.980
28347SOL     OW33879  11.769   5.556   0.110
28347SOL    HW133880  11.745   5.462   0.085
28347SOL    HW233881  11.854   5.581   0.064
28348SOL     OW33882   5.954   4.953   0.635
28348SOL    HW133883   5.942   4.871   0.691
28348SOL    HW233884   6.045   4.990   0.649
28349SOL     OW33885  11.269  14.834   1.478
28349SOL    HW133886  11.213  14.754   1.497
28349SOL    HW233887  11.215  14.900   1.425
28350SOL     OW33888  13.681   4.730   8.394
28350SOL    HW133889  13.633   4.810   8.357
28350SOL    HW233890  13.651   4.714   0.033
28351SOL     OW33891  16.473   8.531   7.155
28351SOL    HW133892  16.514   8.446   7.190
28351SOL    HW233893  16.471   8.600   7.227
28352SOL     OW33894  10.938   4.694   6.362
28352SOL    HW133895  11.012   4.704   6.428
28352SOL    HW233896  10.965   4.631   6.290
28353SOL     OW33897   5.998   7.894   1.256
28353SOL    HW133898   5.904   7.861   1.265
28353SOL    HW233899   6.052   7.828   1.204
28354SOL     OW33900  13.051   2.424   7.586
28354SOL    HW133901  13.107   2.499   7.551
28354SOL    HW233902  13.007   2.378   7.509
28355SOL     OW33903  10.947   6.832   7.000
28355SOL    HW133904  11.025   6.825   7.063
28355SOL    HW233905  10.921   6.740   6.971
28356SOL     OW33906   6.377  12.664   8.361
28356SOL    HW133907   6.469  12.626   8.347
28356SOL    HW233908   6.345  12.704   8.275
28357SOL     OW33909   1.984   6.935   6.711
28357SOL    HW133910   1.995   6.974   6.619
28357SOL    HW233911   2.001   7.006   6.779
28358SOL     OW33912   9.473  15.335   0.781
28358SOL    HW133913   9.513  15.426   0.788
28358SOL    HW233914   9.420  15.328   0.696
28359SOL     OW33915   3.472   4.335   1.807
28359SOL    HW133916   3.434   4.298   1.723
28359SOL    HW233917   3.427   4.292   1.886
28360SOL     OW33918  14.095  16.938   6.578
28360SOL    HW133919  14.060  16.845   6.571
28360SOL    HW233920  14.063   0.009   6.501
28361SOL     OW33921   7.361  11.546   8.083
28361SOL    HW133922   7.332  11.516   7.992
28361SOL    HW233923   7.460  11.541   8.089
28362SOL     OW33924   6.446   6.421   7.638
28362SOL    HW133925   6.532   6.466   7.615
28362SOL    HW233926   6.408   6.378   7.556
28363SOL     OW33927   6.791  10.895   0.046
28363SOL    HW133928   6.757  10.952   0.121
28363SOL    HW233929   6.807  10.803   0.080
28364SOL     OW33930   4.333   1.993   2.507
28364SOL    HW133931   4.373   1.976   2.597
28364SOL    HW233932   4.233   1.987   2.514
28365SOL     OW33933   4.279  13.953   0.570
28365SOL    HW133934   4.245  13.972   0.478
28365SOL    HW233935   4.291  14.038   0.620
28366SOL     OW33936  14.716   6.087   6.378
28366SOL    HW133937  14.710   6.162   6.443
28366SOL    HW233938  14.662   6.109   6.296
28367SOL     OW33939  10.899  12.165   2.149
28367SOL    HW133940  10.938  12.076   2.172
28367SOL    HW233941  10.885  12.218   2.233
28368SOL     OW33942   7.118  14.596   0.911
28368SOL    HW133943   7.112  14.642   1.000
28368SOL    HW233944   7.063  14.513   0.912
28369SOL     OW33945   1.082  11.092   0.079
28369SOL    HW133946   1.106  11.157   0.152
28369SOL    HW233947   0.989  11.060   0.092
28370SOL     OW33948   4.128  15.392   7.299
28370SOL    HW133949   4.052  15.430   7.247
28370SOL    HW233950   4.197  15.462   7.314
28371SOL     OW33951  13.829  12.501   1.559
28371SOL    HW133952  13.751  12.446   1.589
28371SOL    HW233953  13.797  12.573   1.497
28372SOL     OW33954   4.050   6.221   1.646
28372SOL    HW133955   4.097   6.304   1.679
28372SOL    HW233956   4.117   6.147   1.637
28373SOL     OW33957  15.526  14.632   1.067
28373SOL    HW133958  15.588  14.700   1.029
28373SOL    HW233959  15.453  14.679   1.118
28374SOL     OW33960  14.600  10.250   6.885
28374SOL    HW133961  14.586  10.212   6.794
28374SOL    HW233962  14.607  10.350   6.879
28375SOL     OW33963  16.376  14.643   1.242
28375SOL    HW133964  16.312  14.720   1.239
28375SOL    HW233965  16.368  14.596   1.330
28376SOL     OW33966   1.162  13.425   2.050
28376SOL    HW133967   1.148  13.483   2.131
28376SOL    HW233968   1.120  13.468   1.970
28377SOL     OW33969  16.386   8.065   0.943
28377SOL    HW133970  16.369   7.983   0.888
28377SOL    HW233971  16.485   8.075   0.957
28378SOL     OW33972   7.578   9.388   7.797
28378SOL    HW133973   7.478   9.386   7.799
28378SOL    HW233974   7.612   9.444   7.872
28379SOL     OW33975  10.439   3.855   1.591
28379SOL    HW133976  10.521   3.816   1.634
28379SOL    HW233977  10.362   3.792   1.604
28380SOL     OW33978   8.482  14.187   6.369
28380SOL    HW133979   8.526  14.149   6.288
28380SOL    HW233980   8.398  14.235   6.342
28381SOL     OW33981   8.606  14.677   7.747
28381SOL    HW133982   8.637  14.702   7.838
28381SOL    HW233983   8.676  14.701   7.680
28382SOL     OW33984   9.081   3.541   1.213
28382SOL    HW133985   9.065   3.575   1.121
28382SOL    HW233986   9.015   3.470   1.235
28383SOL     OW33987   9.311   3.338   1.638
28383SOL    HW133988   9.267   3.427   1.632
28383SOL    HW233989   9.242   3.268   1.656
28384SOL     OW33990   3.250   6.209   7.713
28384SOL    HW133991   3.153   6.204   7.691
28384SOL    HW233992   3.304   6.198   7.629
28385SOL     OW33993  14.898   0.666   6.542
28385SOL    HW133994  14.806   0.702   6.528
28385SOL    HW233995  14.965   0.731   6.507
28386SOL     OW33996  12.308  16.855   0.857
28386SOL    HW133997  12.356  16.856   0.769
28386SOL    HW233998  12.336  16.934   0.911
28387SOL     OW33999   7.366  13.406   0.442
28387SOL    HW134000   7.367  13.446   0.534
28387SOL    HW234001   7.283  13.350   0.431
28388SOL     OW34002   2.361   0.966   1.145
28388SOL    HW134003   2.357   0.878   1.098
28388SOL    HW234004   2.457   0.991   1.161
28389SOL     OW34005   4.697   1.564   6.815
28389SOL    HW134006   4.609   1.593   6.778
28389SOL    HW234007   4.756   1.533   6.740
28390SOL     OW34008  10.357   0.765   0.626
28390SOL    HW134009  10.277   0.737   0.680
28390SOL    HW234010  10.408   0.684   0.598
28391SOL     OW34011   1.063   8.141   0.272
28391SOL    HW134012   1.158   8.114   0.256
28391SOL    HW234013   1.061   8.225   0.325
28392SOL     OW34014  11.550   7.161   1.854
28392SOL    HW134015  11.533   7.223   1.777
28392SOL    HW234016  11.509   7.072   1.834
28393SOL     OW34017   9.741  12.595   0.232
28393SOL    HW134018   9.837  12.622   0.231
28393SOL    HW234019   9.733  12.497   0.218
28394SOL     OW34020   7.956   0.196   0.262
28394SOL    HW134021   7.945   0.164   0.168
28394SOL    HW234022   8.004   0.127   0.316
28395SOL     OW34023   3.933   7.885   6.711
28395SOL    HW134024   3.898   7.942   6.637
28395SOL    HW234025   4.002   7.822   6.676
28396SOL     OW34026  10.977  16.498   5.984
28396SOL    HW134027  10.975  16.404   5.950
28396SOL    HW234028  10.916  16.555   5.930
28397SOL     OW34029  15.393  13.500   0.707
28397SOL    HW134030  15.405  13.483   0.805
28397SOL    HW234031  15.324  13.438   0.671
28398SOL     OW34032   1.394   2.689   7.677
28398SOL    HW134033   1.426   2.663   7.768
28398SOL    HW234034   1.299   2.658   7.665
28399SOL     OW34035   5.872  13.336   0.724
28399SOL    HW134036   5.837  13.415   0.773
28399SOL    HW234037   5.901  13.265   0.789
28400SOL     OW34038   1.784  12.820   1.038
28400SOL    HW134039   1.690  12.818   1.004
28400SOL    HW234040   1.846  12.794   0.964
28401SOL     OW34041   1.244  11.544   1.630
28401SOL    HW134042   1.243  11.499   1.540
28401SOL    HW234043   1.323  11.606   1.635
28402SOL     OW34044   4.227   6.035   7.495
28402SOL    HW134045   4.274   6.089   7.425
28402SOL    HW234046   4.267   6.055   7.585
28403SOL     OW34047   0.191   1.219   6.530
28403SOL    HW134048   0.277   1.193   6.487
28403SOL    HW234049   0.202   1.306   6.578
28404SOL     OW34050   9.161  16.264   1.888
28404SOL    HW134051   9.090  16.333   1.899
28404SOL    HW234052   9.199  16.240   1.977
28405SOL     OW34053   0.256   0.095   7.401
28405SOL    HW134054   0.191   0.020   7.414
28405SOL    HW234055   0.222   0.177   7.447
28406SOL     OW34056   7.126  10.792   7.656
28406SOL    HW134057   7.207  10.737   7.635
28406SOL    HW234058   7.154  10.885   7.681
28407SOL     OW34059   5.086   7.013   7.725
28407SOL    HW134060   5.077   6.983   7.820
28407SOL    HW234061   5.042   6.947   7.665
28408SOL     OW34062   5.999  12.478   7.305
28408SOL    HW134063   6.070  12.449   7.370
28408SOL    HW234064   5.912  12.485   7.354
28409SOL     OW34065   3.031  13.907   7.364
28409SOL    HW134066   3.082  13.821   7.362
28409SOL    HW234067   3.092  13.981   7.393
28410SOL     OW34068  16.550   1.884   0.887
28410SOL    HW134069  16.494   1.951   0.838
28410SOL    HW234070  16.598   1.930   0.962
28411SOL     OW34071  12.107   4.294   7.529
28411SOL    HW134072  12.206   4.306   7.534
28411SOL    HW234073  12.067   4.306   7.620
28412SOL     OW34074  13.931   3.801   1.049
28412SOL    HW134075  13.963   3.778   1.140
28412SOL    HW234076  13.837   3.835   1.054
28413SOL     OW34077   0.753  10.212   1.065
28413SOL    HW134078   0.664  10.173   1.039
28413SOL    HW234079   0.755  10.227   1.163
28414SOL     OW34080  16.582   1.837   1.439
28414SOL    HW134081  16.628   1.925   1.441
28414SOL    HW234082  16.537   1.825   1.350
28415SOL     OW34083  15.593   8.901   7.787
28415SOL    HW134084  15.677   8.865   7.828
28415SOL    HW234085  15.616   8.977   7.726
28416SOL     OW34086   9.346   5.669   0.418
28416SOL    HW134087   9.338   5.572   0.396
28416SOL    HW234088   9.418   5.710   0.363
28417SOL     OW34089   1.834   1.690   6.576
28417SOL    HW134090   1.736   1.710   6.568
28417SOL    HW234091   1.885   1.776   6.584
28418SOL     OW34092  10.646   5.133   0.677
28418SOL    HW134093  10.727   5.192   0.678
28418SOL    HW234094  10.607   5.132   0.585
28419SOL     OW34095   2.070  16.548   7.799
28419SOL    HW134096   2.137  16.474   7.800
28419SOL    HW234097   2.020  16.546   7.712
28420SOL     OW34098   1.422   7.514   0.703
28420SOL    HW134099   1.341   7.554   0.746
28420SOL    HW234100   1.485   7.483   0.774
28421SOL     OW34101   5.427  10.011   7.910
28421SOL    HW134102   5.433  10.107   7.883
28421SOL    HW234103   5.416   9.954   7.828
28422SOL     OW34104  12.210   8.272   1.253
28422SOL    HW134105  12.166   8.341   1.311
28422SOL    HW234106  12.151   8.193   1.244
28423SOL     OW34107   4.192  11.783   0.731
28423SOL    HW134108   4.290  11.783   0.752
28423SOL    HW234109   4.176  11.835   0.648
28424SOL     OW34110   3.743  13.271   6.962
28424SOL    HW134111   3.695  13.223   6.889
28424SOL    HW234112   3.714  13.367   6.964
28425SOL     OW34113  14.800   6.099   6.735
28425SOL    HW134114  14.786   6.007   6.772
28425SOL    HW234115  14.879   6.099   6.673
28426SOL     OW34116   4.774  12.479   8.215
28426SOL    HW134117   4.704  12.432   8.161
28426SOL    HW234118   4.852  12.419   8.229
28427SOL     OW34119  11.765  13.380   1.063
28427SOL    HW134120  11.810  13.445   1.125
28427SOL    HW234121  11.765  13.418   0.971
28428SOL     OW34122   2.341  16.462   1.016
28428SOL    HW134123   2.243  16.474   1.031
28428SOL    HW234124   2.391  16.529   1.071
28429SOL     OW34125   3.687  12.598   2.013
28429SOL    HW134126   3.673  12.637   1.922
28429SOL    HW234127   3.627  12.644   2.079
28430SOL     OW34128   7.202  10.139   6.525
28430SOL    HW134129   7.166  10.129   6.433
28430SOL    HW234130   7.282  10.080   6.536
28431SOL     OW34131  12.662  12.040   7.363
28431SOL    HW134132  12.736  12.033   7.296
28431SOL    HW234133  12.604  12.119   7.341
28432SOL     OW34134   6.546  14.045   1.458
28432SOL    HW134135   6.472  13.986   1.425
28432SOL    HW234136   6.526  14.140   1.435
28433SOL     OW34137   2.322  14.746   7.346
28433SOL    HW134138   2.283  14.668   7.297
28433SOL    HW234139   2.248  14.800   7.386
28434SOL     OW34140   9.283   8.062   6.165
28434SOL    HW134141   9.235   8.017   6.089
28434SOL    HW234142   9.360   8.114   6.129
28435SOL     OW34143   7.721   1.829   1.092
28435SOL    HW134144   7.720   1.929   1.101
28435SOL    HW234145   7.785   1.790   1.158
28436SOL     OW34146   5.075   0.394   1.719
28436SOL    HW134147   5.057   0.296   1.726
28436SOL    HW234148   4.990   0.442   1.698
28437SOL     OW34149  14.636   2.570   0.576
28437SOL    HW134150  14.718   2.552   0.521
28437SOL    HW234151  14.555   2.570   0.517
28438SOL     OW34152  13.403   5.907   6.673
28438SOL    HW134153  13.502   5.903   6.682
28438SOL    HW234154  13.377   5.881   6.580
28439SOL     OW34155  10.403   6.817   0.167
28439SOL    HW134156  10.484   6.864   0.132
28439SOL    HW234157  10.418   6.791   0.263
28440SOL     OW34158   2.273   7.698   0.126
28440SOL    HW134159   2.224   7.664   0.206
28440SOL    HW234160   2.362   7.733   0.154
28441SOL     OW34161  10.067   7.769   0.691
28441SOL    HW134162  10.004   7.693   0.671
28441SOL    HW234163  10.069   7.786   0.789
28442SOL     OW34164   0.297   8.923   1.079
28442SOL    HW134165   0.313   9.000   1.016
28442SOL    HW234166   0.199   8.914   1.097
28443SOL     OW34167   3.955   9.924   7.646
28443SOL    HW134168   3.869   9.955   7.605
28443SOL    HW234169   3.982   9.837   7.604
28444SOL     OW34170   9.530   0.487   8.105
28444SOL    HW134171   9.571   0.555   8.166
28444SOL    HW234172   9.601   0.450   8.044
28445SOL     OW34173   0.450   1.423   0.711
28445SOL    HW134174   0.533   1.434   0.766
28445SOL    HW234175   0.442   1.327   0.683
28446SOL     OW34176   6.586   4.622   8.033
28446SOL    HW134177   6.494   4.653   8.057
28446SOL    HW234178   6.606   4.537   8.082
28447SOL     OW34179  15.300   9.097   0.084
28447SOL    HW134180  15.210   9.134   0.057
28447SOL    HW234181  15.372   9.158   0.050
28448SOL     OW34182  15.382   7.219   0.664
28448SOL    HW134183  15.481   7.211   0.659
28448SOL    HW234184  15.341   7.128   0.656
28449SOL     OW34185  12.237   3.286   8.250
28449SOL    HW134186  12.263   3.265   8.156
28449SOL    HW234187  12.206   3.381   8.257
28450SOL     OW34188   9.859  13.147   0.969
28450SOL    HW134189   9.941  13.099   0.939
28450SOL    HW234190   9.871  13.246   0.957
28451SOL     OW34191  11.190  11.835   6.811
28451SOL    HW134192  11.116  11.857   6.748
28451SOL    HW234193  11.269  11.894   6.793
28452SOL     OW34194  10.046   7.944   0.475
28452SOL    HW134195  10.099   8.029   0.483
28452SOL    HW234196  10.064   7.886   0.555
28453SOL     OW34197   5.370   9.340   1.777
28453SOL    HW134198   5.383   9.432   1.740
28453SOL    HW234199   5.419   9.332   1.864
28454SOL     OW34200   7.239  11.268   0.037
28454SOL    HW134201   7.140  11.267   0.029
28454SOL    HW234202   7.267  11.211   0.114
28455SOL     OW34203   8.910   7.736   0.401
28455SOL    HW134204   8.818   7.712   0.367
28455SOL    HW234205   8.950   7.805   0.341
28456SOL     OW34206  12.774  10.864   0.010
28456SOL    HW134207  12.675  10.877   0.009
28456SOL    HW234208  12.798  10.785   8.407
28457SOL     OW34209   6.960  11.897   1.831
28457SOL    HW134210   6.932  11.802   1.845
28457SOL    HW234211   7.057  11.899   1.806
28458SOL     OW34212   3.412  13.574   8.136
28458SOL    HW134213   3.412  13.594   8.038
28458SOL    HW234214   3.482  13.506   8.156
28459SOL     OW34215   6.226  12.229   2.193
28459SOL    HW134216   6.199  12.142   2.234
28459SOL    HW234217   6.218  12.302   2.261
28460SOL     OW34218   1.766   4.732   7.286
28460SOL    HW134219   1.693   4.759   7.223
28460SOL    HW234220   1.828   4.668   7.240
28461SOL     OW34221  16.318   0.815   8.263
28461SOL    HW134222  16.338   0.727   8.220
28461SOL    HW234223  16.220   0.825   8.277
28462SOL     OW34224   1.313  16.434   7.569
28462SOL    HW134225   1.296  16.508   7.504
28462SOL    HW234226   1.352  16.471   7.653
28463SOL     OW34227  15.041   2.629   6.363
28463SOL    HW134228  14.974   2.689   6.407
28463SOL    HW234229  15.016   2.617   6.267
28464SOL     OW34230   7.711  14.276   1.091
28464SOL    HW134231   7.639  14.298   1.157
28464SOL    HW234232   7.711  14.345   1.018
28465SOL     OW34233  16.826   2.607   0.170
28465SOL    HW134234  16.921   2.622   0.144
28465SOL    HW234235  16.797   2.516   0.141
28466SOL     OW34236  15.128   2.426   8.115
28466SOL    HW134237  15.139   2.513   8.066
28466SOL    HW234238  15.217   2.393   8.145
28467SOL     OW34239   7.730  13.356   1.893
28467SOL    HW134240   7.757  13.412   1.971
28467SOL    HW234241   7.670  13.282   1.924
28468SOL     OW34242   5.207  11.155   7.284
28468SOL    HW134243   5.161  11.077   7.242
28468SOL    HW234244   5.296  11.126   7.319
28469SOL     OW34245   4.829   8.920   0.184
28469SOL    HW134246   4.752   8.895   0.126
28469SOL    HW234247   4.822   9.017   0.209
28470SOL     OW34248   3.643  10.712   7.616
28470SOL    HW134249   3.632  10.687   7.712
28470SOL    HW234250   3.600  10.643   7.558
28471SOL     OW34251   7.769  13.758   7.550
28471SOL    HW134252   7.750  13.661   7.540
28471SOL    HW234253   7.796  13.797   7.462
28472SOL     OW34254  14.047   4.160   6.868
28472SOL    HW134255  14.018   4.255   6.883
28472SOL    HW234256  14.147   4.154   6.875
28473SOL     OW34257  12.723   1.618   7.587
28473SOL    HW134258  12.768   1.689   7.641
28473SOL    HW234259  12.740   1.529   7.629
28474SOL     OW34260   9.600   1.600   6.439
28474SOL    HW134261   9.649   1.687   6.436
28474SOL    HW234262   9.537   1.596   6.362
28475SOL     OW34263  13.985  10.894   6.843
28475SOL    HW134264  13.912  10.913   6.908
28475SOL    HW234265  13.967  10.943   6.758
28476SOL     OW34266   6.276   2.180   7.434
28476SOL    HW134267   6.283   2.259   7.373
28476SOL    HW234268   6.187   2.180   7.479
28477SOL     OW34269   1.973  16.810   7.531
28477SOL    HW134270   2.060  16.815   7.483
28477SOL    HW234271   1.968  16.883   7.600
28478SOL     OW34272   5.417  16.280   0.388
28478SOL    HW134273   5.372  16.302   0.302
28478SOL    HW234274   5.499  16.337   0.398
28479SOL     OW34275  14.296   5.557   6.369
28479SOL    HW134276  14.394   5.563   6.348
28479SOL    HW234277  14.284   5.521   6.462
28480SOL     OW34278   5.491  11.859   2.556
28480SOL    HW134279   5.585  11.827   2.567
28480SOL    HW234280   5.487  11.957   2.574
28481SOL     OW34281  11.316  10.644   6.764
28481SOL    HW134282  11.341  10.688   6.677
28481SOL    HW234283  11.227  10.679   6.794
28482SOL     OW34284  11.227   8.145   7.810
28482SOL    HW134285  11.279   8.123   7.727
28482SOL    HW234286  11.270   8.221   7.857
28483SOL     OW34287  11.675   8.195   7.520
28483SOL    HW134288  11.751   8.136   7.546
28483SOL    HW234289  11.620   8.150   7.449
28484SOL     OW34290  11.882   7.315   1.626
28484SOL    HW134291  11.868   7.410   1.655
28484SOL    HW234292  11.863   7.254   1.704
28485SOL     OW34293   2.644   5.098   7.036
28485SOL    HW134294   2.574   5.033   7.065
28485SOL    HW234295   2.602   5.172   6.984
28486SOL     OW34296   0.983  11.376   2.599
28486SOL    HW134297   0.961  11.472   2.583
28486SOL    HW234298   0.993  11.360   2.697
28487SOL     OW34299   5.129   3.603   0.521
28487SOL    HW134300   5.124   3.592   0.422
28487SOL    HW234301   5.205   3.663   0.545
28488SOL     OW34302   9.538   2.224   0.326
28488SOL    HW134303   9.529   2.235   0.227
28488SOL    HW234304   9.465   2.276   0.371
28489SOL     OW34305   2.630   3.269   8.387
28489SOL    HW134306   2.683   3.263   0.017
28489SOL    HW234307   2.657   3.351   8.336
28490SOL     OW34308   9.631   4.780   5.714
28490SOL    HW134309   9.645   4.789   5.615
28490SOL    HW234310   9.692   4.843   5.762
28491SOL     OW34311   3.172   0.887   7.698
28491SOL    HW134312   3.203   0.913   7.606
28491SOL    HW234313   3.230   0.813   7.733
28492SOL     OW34314  14.504   1.279   0.426
28492SOL    HW134315  14.505   1.251   0.521
28492SOL    HW234316  14.575   1.348   0.410
28493SOL     OW34317   6.011   2.701   0.023
28493SOL    HW134318   5.942   2.754   8.426
28493SOL    HW234319   5.982   2.692   0.118
28494SOL     OW34320   2.645   9.355   0.978
28494SOL    HW134321   2.597   9.405   1.050
28494SOL    HW234322   2.685   9.272   1.015
28495SOL     OW34323  13.353   9.922   7.005
28495SOL    HW134324  13.392   9.985   7.072
28495SOL    HW234325  13.393   9.939   6.915
28496SOL     OW34326  10.107  11.800   6.827
28496SOL    HW134327  10.032  11.866   6.827
28496SOL    HW234328  10.113  11.756   6.917
28497SOL     OW34329   1.113   3.922   1.605
28497SOL    HW134330   1.086   4.018   1.609
28497SOL    HW234331   1.160   3.897   1.689
28498SOL     OW34332  11.339  16.321   6.424
28498SOL    HW134333  11.378  16.375   6.350
28498SOL    HW234334  11.382  16.231   6.425
28499SOL     OW34335   7.548  16.527   7.802
28499SOL    HW134336   7.508  16.619   7.798
28499SOL    HW234337   7.544  16.493   7.896
28500SOL     OW34338  11.789  10.524   7.627
28500SOL    HW134339  11.810  10.541   7.723
28500SOL    HW234340  11.864  10.559   7.570
28501SOL     OW34341  11.153   2.125   7.577
28501SOL    HW134342  11.205   2.173   7.506
28501SOL    HW234343  11.072   2.083   7.537
28502SOL     OW34344   6.277  14.148   1.011
28502SOL    HW134345   6.277  14.181   1.106
28502SOL    HW234346   6.272  14.226   0.949
28503SOL     OW34347  13.109   7.802   1.556
28503SOL    HW134348  13.070   7.711   1.541
28503SOL    HW234349  13.208   7.799   1.545
28504SOL     OW34350  15.808   9.088   1.125
28504SOL    HW134351  15.787   9.109   1.030
28504SOL    HW234352  15.871   9.158   1.161
28505SOL     OW34353  10.641  15.593   8.287
28505SOL    HW134354  10.669  15.670   8.229
28505SOL    HW234355  10.542  15.591   8.295
28506SOL     OW34356  12.658   0.259   7.984
28506SOL    HW134357  12.629   0.345   8.026
28506SOL    HW234358  12.692   0.277   7.891
28507SOL     OW34359  14.124  15.222   7.738
28507SOL    HW134360  14.097  15.244   7.644
28507SOL    HW234361  14.224  15.220   7.745
28508SOL     OW34362   7.000   1.046   6.939
28508SOL    HW134363   6.977   1.035   7.036
28508SOL    HW234364   6.926   1.008   6.883
28509SOL     OW34365  13.333   6.824   7.418
28509SOL    HW134366  13.364   6.874   7.337
28509SOL    HW234367  13.360   6.874   7.500
28510SOL     OW34368  15.461   1.774   8.238
28510SOL    HW134369  15.427   1.695   8.289
28510SOL    HW234370  15.559   1.785   8.254
28511SOL     OW34371   5.731  12.779   0.447
28511SOL    HW134372   5.754  12.830   0.531
28511SOL    HW234373   5.683  12.840   0.384
28512SOL     OW34374   9.283  15.620   1.524
28512SOL    HW134375   9.277  15.718   1.543
28512SOL    HW234376   9.204  15.574   1.565
28513SOL     OW34377  10.162   2.132   0.407
28513SOL    HW134378  10.066   2.153   0.393
28513SOL    HW234379  10.185   2.145   0.504
28514SOL     OW34380  14.529   5.360   7.042
28514SOL    HW134381  14.611   5.304   7.039
28514SOL    HW234382  14.541   5.434   7.109
28515SOL     OW34383  10.415  16.861   2.070
28515SOL    HW134384  10.358  16.851   2.152
28515SOL    HW234385  10.493  16.921   2.091
28516SOL     OW34386  13.299   9.731   8.013
28516SOL    HW134387  13.335   9.788   8.087
28516SOL    HW234388  13.221   9.678   8.046
28517SOL     OW34389  14.722   3.086   1.475
28517SOL    HW134390  14.751   3.168   1.525
28517SOL    HW234391  14.699   3.014   1.541
28518SOL     OW34392   4.433   9.341   2.486
28518SOL    HW134393   4.395   9.295   2.567
28518SOL    HW234394   4.500   9.409   2.515
28519SOL     OW34395   2.238   0.990   7.232
28519SOL    HW134396   2.326   1.017   7.191
28519SOL    HW234397   2.165   1.003   7.165
28520SOL     OW34398   4.637  11.158   1.357
28520SOL    HW134399   4.691  11.155   1.441
28520SOL    HW234400   4.564  11.225   1.367
28521SOL     OW34401   1.863  15.548   7.833
28521SOL    HW134402   1.841  15.622   7.769
28521SOL    HW234403   1.956  15.562   7.869
28522SOL     OW34404  15.625   7.822   0.131
28522SOL    HW134405  15.569   7.855   0.055
28522SOL    HW234406  15.567   7.796   0.207
28523SOL     OW34407  13.664  11.582   2.426
28523SOL    HW134408  13.658  11.567   2.525
28523SOL    HW234409  13.658  11.680   2.407
28524SOL     OW34410   5.132  11.227   7.542
28524SOL    HW134411   5.218  11.263   7.579
28524SOL    HW234412   5.144  11.206   7.445
28525SOL     OW34413  11.312  11.622   1.707
28525SOL    HW134414  11.352  11.616   1.799
28525SOL    HW234415  11.225  11.573   1.705
28526SOL     OW34416   9.966   0.218   1.513
28526SOL    HW134417  10.039   0.243   1.449
28526SOL    HW234418   9.947   0.295   1.573
28527SOL     OW34419   0.991  12.720   1.222
28527SOL    HW134420   0.937  12.637   1.214
28527SOL    HW234421   0.932  12.794   1.255
28528SOL     OW34422  16.330   3.569   6.340
28528SOL    HW134423  16.233   3.589   6.328
28528SOL    HW234424  16.342   3.472   6.359
28529SOL     OW34425   5.706   3.028   6.360
28529SOL    HW134426   5.657   3.089   6.422
28529SOL    HW234427   5.641   2.968   6.314
28530SOL     OW34428  14.542   2.697   7.737
28530SOL    HW134429  14.594   2.770   7.782
28530SOL    HW234430  14.505   2.635   7.806
28531SOL     OW34431  16.487   7.108   5.844
28531SOL    HW134432  16.530   7.066   5.764
28531SOL    HW234433  16.550   7.174   5.884
28532SOL     OW34434   2.813   6.317   8.313
28532SOL    HW134435   2.806   6.218   8.321
28532SOL    HW234436   2.863   6.341   8.230
28533SOL     OW34437   3.323   3.094   8.072
28533SOL    HW134438   3.348   3.022   8.136
28533SOL    HW234439   3.405   3.145   8.045
28534SOL     OW34440   2.752  11.749   8.371
28534SOL    HW134441   2.842  11.706   8.367
28534SOL    HW234442   2.720  11.769   8.278
28535SOL     OW34443  15.676   5.366   7.101
28535SOL    HW134444  15.721   5.454   7.087
28535SOL    HW234445  15.678   5.314   7.015
28536SOL     OW34446  16.340   2.867   0.062
28536SOL    HW134447  16.368   2.955   0.023
28536SOL    HW234448  16.420   2.808   0.073
28537SOL     OW34449  12.441  13.016   1.651
28537SOL    HW134450  12.408  12.969   1.732
28537SOL    HW234451  12.488  12.950   1.591
28538SOL     OW34452   3.419  10.380   6.520
28538SOL    HW134453   3.515  10.359   6.501
28538SOL    HW234454   3.363  10.355   6.442
28539SOL     OW34455   8.835  14.916   0.880
28539SOL    HW134456   8.840  15.014   0.861
28539SOL    HW234457   8.868  14.897   0.972
28540SOL     OW34458   8.840  15.093   7.776
28540SOL    HW134459   8.742  15.077   7.781
28540SOL    HW234460   8.884  15.054   7.858
28541SOL     OW34461   1.571   0.714   0.120
28541SOL    HW134462   1.641   0.654   0.081
28541SOL    HW234463   1.503   0.659   0.169
28542SOL     OW34464  13.497  16.613   8.275
28542SOL    HW134465  13.587  16.635   8.313
28542SOL    HW234466  13.497  16.630   8.177
28543SOL     OW34467  11.998   3.980   0.076
28543SOL    HW134468  11.903   4.012   0.078
28543SOL    HW234469  12.054   4.045   0.024
28544SOL     OW34470   3.109  14.198   7.641
28544SOL    HW134471   3.047  14.154   7.706
28544SOL    HW234472   3.063  14.273   7.595
28545SOL     OW34473  14.010   9.152   7.759
28545SOL    HW134474  14.023   9.169   7.856
28545SOL    HW234475  14.099   9.155   7.713
28546SOL     OW34476  12.275   6.688   1.920
28546SOL    HW134477  12.317   6.628   1.851
28546SOL    HW234478  12.324   6.676   2.007
28547SOL     OW34479   1.883  12.533   0.747
28547SOL    HW134480   1.914  12.625   0.770
28547SOL    HW234481   1.956  12.467   0.764
28548SOL     OW34482  13.997   7.233   0.977
28548SOL    HW134483  14.092   7.236   0.948
28548SOL    HW234484  13.962   7.140   0.967
28549SOL     OW34485  14.257   1.365   0.333
28549SOL    HW134486  14.187   1.307   0.373
28549SOL    HW234487  14.348   1.335   0.364
28550SOL     OW34488   0.152   5.339   1.142
28550SOL    HW134489   0.227   5.403   1.127
28550SOL    HW234490   0.154   5.306   1.236
28551SOL     OW34491   7.442   9.803   0.116
28551SOL    HW134492   7.502   9.817   0.195
28551SOL    HW234493   7.497   9.808   0.032
28552SOL     OW34494   2.537  16.237   1.814
28552SOL    HW134495   2.451  16.283   1.838
28552SOL    HW234496   2.574  16.192   1.895
28553SOL     OW34497   6.695   8.002   1.066
28553SOL    HW134498   6.734   8.091   1.087
28553SOL    HW234499   6.608   8.013   1.018
28554SOL     OW34500   4.478   3.813   7.021
28554SOL    HW134501   4.388   3.784   7.055
28554SOL    HW234502   4.466   3.886   6.954
28555SOL     OW34503   7.427  12.577   1.337
28555SOL    HW134504   7.368  12.656   1.324
28555SOL    HW234505   7.522  12.603   1.321
28556SOL     OW34506   1.549   4.452   0.595
28556SOL    HW134507   1.562   4.471   0.692
28556SOL    HW234508   1.603   4.373   0.568
28557SOL     OW34509  16.204   3.231   0.088
28557SOL    HW134510  16.205   3.328   0.066
28557SOL    HW234511  16.275   3.184   0.034
28558SOL     OW34512  16.576   3.199   0.867
28558SOL    HW134513  16.496   3.165   0.916
28558SOL    HW234514  16.643   3.234   0.932
28559SOL     OW34515   2.449  14.756   1.394
28559SOL    HW134516   2.411  14.665   1.381
28559SOL    HW234517   2.481  14.791   1.306
28560SOL     OW34518  10.204  13.909   6.956
28560SOL    HW134519  10.269  13.848   6.912
28560SOL    HW234520  10.246  13.951   7.036
28561SOL     OW34521   9.376   1.302   0.110
28561SOL    HW134522   9.284   1.333   0.133
28561SOL    HW234523   9.430   1.294   0.193
28562SOL     OW34524   5.047   9.232   8.358
28562SOL    HW134525   5.062   9.267   8.451
28562SOL    HW234526   5.104   9.152   8.342
28563SOL     OW34527  10.164   7.196   0.847
28563SOL    HW134528  10.099   7.197   0.923
28563SOL    HW234529  10.153   7.112   0.794
28564SOL     OW34530  12.537   3.133   0.251
28564SOL    HW134531  12.538   3.069   0.327
28564SOL    HW234532  12.443   3.150   0.222
28565SOL     OW34533   5.943  12.559   8.140
28565SOL    HW134534   6.012  12.559   8.212
28565SOL    HW234535   5.859  12.516   8.173
28566SOL     OW34536   3.896   4.028   7.019
28566SOL    HW134537   3.881   3.967   6.941
28566SOL    HW234538   3.986   4.010   7.059
28567SOL     OW34539   3.889  10.470   2.423
28567SOL    HW134540   3.939  10.543   2.469
28567SOL    HW234541   3.827  10.426   2.488
28568SOL     OW34542  10.297   4.821   7.692
28568SOL    HW134543  10.268   4.726   7.701
28568SOL    HW234544  10.299   4.865   7.782
28569SOL     OW34545  11.751   1.031   1.064
28569SOL    HW134546  11.806   1.056   0.985
28569SOL    HW234547  11.771   1.094   1.140
28570SOL     OW34548  16.734  15.288   0.307
28570SOL    HW134549  16.797  15.364   0.326
28570SOL    HW234550  16.689  15.260   0.392
28571SOL     OW34551   2.920  14.858   1.643
28571SOL    HW134552   2.986  14.842   1.569
28571SOL    HW234553   2.829  14.832   1.612
28572SOL     OW34554   5.283   4.061   1.136
28572SOL    HW134555   5.272   4.051   1.235
28572SOL    HW234556   5.193   4.072   1.093
28573SOL     OW34557   6.836   0.881   7.722
28573SOL    HW134558   6.929   0.875   7.685
28573SOL    HW234559   6.824   0.971   7.766
28574SOL     OW34560   8.045   4.941   5.685
28574SOL    HW134561   7.996   4.862   5.721
28574SOL    HW234562   8.020   4.955   5.589
28575SOL     OW34563   0.947  10.351   7.649
28575SOL    HW134564   0.980  10.311   7.564
28575SOL    HW234565   0.936  10.450   7.636
28576SOL     OW34566   4.907  11.959   7.439
28576SOL    HW134567   4.816  11.972   7.399
28576SOL    HW234568   4.971  12.025   7.400
28577SOL     OW34569  13.739   2.888   7.068
28577SOL    HW134570  13.761   2.930   7.157
28577SOL    HW234571  13.644   2.857   7.068
28578SOL     OW34572  14.071  16.893   1.417
28578SOL    HW134573  14.138  16.910   1.489
28578SOL    HW234574  13.979  16.911   1.452
28579SOL     OW34575   7.561   9.825   1.199
28579SOL    HW134576   7.597   9.733   1.213
28579SOL    HW234577   7.600   9.886   1.268
28580SOL     OW34578   4.180   7.913   7.846
28580SOL    HW134579   4.085   7.891   7.868
28580SOL    HW234580   4.238   7.895   7.926
28581SOL     OW34581   1.797   2.839   7.826
28581SOL    HW134582   1.761   2.750   7.853
28581SOL    HW234583   1.819   2.838   7.728
28582SOL     OW34584  10.476  14.673   0.184
28582SOL    HW134585  10.397  14.637   0.233
28582SOL    HW234586  10.456  14.766   0.152
28583SOL     OW34587  14.041   3.490   1.394
28583SOL    HW134588  13.983   3.413   1.368
28583SOL    HW234589  14.135   3.473   1.363
28584SOL     OW34590   9.633   5.483   1.850
28584SOL    HW134591   9.654   5.542   1.772
28584SOL    HW234592   9.587   5.537   1.921
28585SOL     OW34593  16.906   6.640   7.945
28585SOL    HW134594  16.961   6.667   8.024
28585SOL    HW234595  16.889   6.721   7.888
28586SOL     OW34596  16.906   0.646   1.516
28586SOL    HW134597  16.971   0.700   1.462
28586SOL    HW234598  16.842   0.708   1.563
28587SOL     OW34599   3.923   8.891   1.671
28587SOL    HW134600   4.003   8.922   1.618
28587SOL    HW234601   3.870   8.970   1.701
28588SOL     OW34602  12.273   5.239   0.552
28588SOL    HW134603  12.308   5.304   0.619
28588SOL    HW234604  12.199   5.280   0.500
28589SOL     OW34605   9.782  14.139   6.577
28589SOL    HW134606   9.791  14.043   6.604
28589SOL    HW234607   9.699  14.151   6.523
28590SOL     OW34608   8.590   6.322   7.844
28590SOL    HW134609   8.598   6.407   7.793
28590SOL    HW234610   8.608   6.245   7.782
28591SOL     OW34611   6.718  13.091   1.172
28591SOL    HW134612   6.784  13.087   1.246
28591SOL    HW234613   6.730  13.177   1.121
28592SOL     OW34614   5.433  10.451   7.432
28592SOL    HW134615   5.367  10.518   7.397
28592SOL    HW234616   5.416  10.363   7.389
28593SOL     OW34617   1.355   8.274   7.065
28593SOL    HW134618   1.411   8.192   7.077
28593SOL    HW234619   1.390   8.346   7.125
28594SOL     OW34620  14.363   2.292   6.397
28594SOL    HW134621  14.283   2.349   6.374
28594SOL    HW234622  14.417   2.276   6.314
28595SOL     OW34623   2.244  14.007   8.040
28595SOL    HW134624   2.263  13.914   8.072
28595SOL    HW234625   2.300  14.025   7.959
28596SOL     OW34626   6.767   1.211   7.197
28596SOL    HW134627   6.842   1.146   7.186
28596SOL    HW234628   6.742   1.218   7.294
28597SOL     OW34629   1.837   4.079   6.728
28597SOL    HW134630   1.911   4.013   6.713
28597SOL    HW234631   1.871   4.155   6.784
28598SOL     OW34632   6.039   1.877   7.633
28598SOL    HW134633   6.137   1.859   7.639
28598SOL    HW234634   6.016   1.957   7.688
28599SOL     OW34635   0.191  13.991   1.456
28599SOL    HW134636   0.117  13.999   1.522
28599SOL    HW234637   0.178  14.058   1.382
28600SOL     OW34638  10.440   2.082   7.390
28600SOL    HW134639  10.418   2.029   7.308
28600SOL    HW234640  10.398   2.038   7.469
28601SOL     OW34641  13.818   1.754   7.705
28601SOL    HW134642  13.776   1.666   7.684
28601SOL    HW234643  13.879   1.781   7.631
28602SOL     OW34644   9.743   9.155   1.862
28602SOL    HW134645   9.748   9.246   1.902
28602SOL    HW234646   9.799   9.091   1.915
28603SOL     OW34647  11.086   1.214   7.365
28603SOL    HW134648  11.139   1.196   7.448
28603SOL    HW234649  11.019   1.141   7.351
28604SOL     OW34650   2.103   9.446   1.967
28604SOL    HW134651   2.071   9.448   2.062
28604SOL    HW234652   2.124   9.352   1.941
28605SOL     OW34653   1.665   0.700   1.238
28605SOL    HW134654   1.582   0.645   1.234
28605SOL    HW234655   1.653   0.774   1.305
28606SOL     OW34656   4.507   6.235   6.052
28606SOL    HW134657   4.427   6.196   6.007
28606SOL    HW234658   4.590   6.196   6.013
28607SOL     OW34659  12.139   2.126   7.805
28607SOL    HW134660  12.234   2.137   7.835
28607SOL    HW234661  12.103   2.215   7.777
28608SOL     OW34662   6.399  13.310   0.352
28608SOL    HW134663   6.481  13.275   0.398
28608SOL    HW234664   6.423  13.339   0.259
28609SOL     OW34665  14.654   3.185   7.346
28609SOL    HW134666  14.588   3.136   7.403
28609SOL    HW234667  14.614   3.204   7.257
28610SOL     OW34668   5.488  11.275   1.060
28610SOL    HW134669   5.555  11.316   1.121
28610SOL    HW234670   5.442  11.200   1.107
28611SOL     OW34671  10.158   5.029   6.642
28611SOL    HW134672  10.237   4.968   6.638
28611SOL    HW234673  10.183   5.118   6.603
28612SOL     OW34674   6.866   8.564   0.033
28612SOL    HW134675   6.919   8.602   8.411
28612SOL    HW234676   6.773   8.600   0.029
28613SOL     OW34677   0.474  12.522   2.402
28613SOL    HW134678   0.528  12.470   2.469
28613SOL    HW234679   0.409  12.581   2.450
28614SOL     OW34680  14.891   3.959   6.715
28614SOL    HW134681  14.814   4.016   6.744
28614SOL    HW234682  14.856   3.878   6.668
28615SOL     OW34683   3.294   9.728   6.442
28615SOL    HW134684   3.368   9.786   6.477
28615SOL    HW234685   3.324   9.633   6.444
28616SOL     OW34686   3.549   8.995   0.993
28616SOL    HW134687   3.537   8.976   1.090
28616SOL    HW234688   3.518   9.088   0.973
28617SOL     OW34689   3.380  12.865   7.833
28617SOL    HW134690   3.310  12.828   7.895
28617SOL    HW234691   3.385  12.964   7.843
28618SOL     OW34692  11.127   7.747   6.842
28618SOL    HW134693  11.135   7.826   6.782
28618SOL    HW234694  11.204   7.685   6.826
28619SOL     OW34695   0.523   1.246   6.165
28619SOL    HW134696   0.591   1.314   6.193
28619SOL    HW234697   0.562   1.154   6.172
28620SOL     OW34698  14.598   5.402   0.299
28620SOL    HW134699  14.611   5.404   0.398
28620SOL    HW234700  14.663   5.339   0.257
28621SOL     OW34701   6.196  10.166   0.305
28621SOL    HW134702   6.125  10.122   0.362
28621SOL    HW234703   6.162  10.176   0.212
28622SOL     OW34704  11.866  15.366   8.218
28622SOL    HW134705  11.873  15.408   8.309
28622SOL    HW234706  11.781  15.396   8.174
28623SOL     OW34707  13.732   9.400   6.946
28623SOL    HW134708  13.715   9.309   6.909
28623SOL    HW234709  13.654   9.429   7.002
28624SOL     OW34710   5.752   0.311   0.726
28624SOL    HW134711   5.658   0.346   0.727
28624SOL    HW234712   5.779   0.284   0.818
28625SOL     OW34713   6.353   4.589   0.076
28625SOL    HW134714   6.298   4.597   8.447
28625SOL    HW234715   6.423   4.660   0.077
28626SOL     OW34716   9.901  12.371   0.602
28626SOL    HW134717   9.992  12.375   0.560
28626SOL    HW234718   9.884  12.455   0.654
28627SOL     OW34719  12.229   2.419   1.230
28627SOL    HW134720  12.176   2.501   1.248
28627SOL    HW234721  12.170   2.338   1.239
28628SOL     OW34722  15.508   1.071   0.763
28628SOL    HW134723  15.473   1.027   0.679
28628SOL    HW234724  15.473   1.023   0.843
28629SOL     OW34725   7.438  11.160   8.127
28629SOL    HW134726   7.356  11.106   8.147
28629SOL    HW234727   7.455  11.224   8.202
28630SOL     OW34728  10.702   6.432   1.074
28630SOL    HW134729  10.602   6.441   1.079
28630SOL    HW234730  10.726   6.336   1.060
28631SOL     OW34731   7.822  10.813   1.267
28631SOL    HW134732   7.814  10.735   1.205
28631SOL    HW234733   7.889  10.792   1.338
28632SOL     OW34734  11.268  14.728   7.275
28632SOL    HW134735  11.230  14.816   7.304
28632SOL    HW234736  11.217  14.695   7.196
28633SOL     OW34737   5.663   5.494   7.144
28633SOL    HW134738   5.563   5.500   7.137
28633SOL    HW234739   5.693   5.542   7.227
28634SOL     OW34740  16.973  11.633   2.356
28634SOL    HW134741  16.877  11.630   2.381
28634SOL    HW234742   0.046  11.621   2.438
28635SOL     OW34743  16.932   9.789   8.213
28635SOL    HW134744  16.965   9.696   8.232
28635SOL    HW234745  16.937   9.805   8.114
28636SOL     OW34746  12.642   4.628   0.017
28636SOL    HW134747  12.645   4.533   0.050
28636SOL    HW234748  12.552   4.667   0.036
28637SOL     OW34749  13.222  11.312   7.287
28637SOL    HW134750  13.272  11.251   7.226
28637SOL    HW234751  13.152  11.260   7.337
28638SOL     OW34752   4.693  12.654   0.850
28638SOL    HW134753   4.667  12.704   0.933
28638SOL    HW234754   4.727  12.564   0.875
28639SOL     OW34755   7.521  12.141   8.074
28639SOL    HW134756   7.545  12.044   8.085
28639SOL    HW234757   7.462  12.170   8.149
28640SOL     OW34758   9.310  16.335   7.769
28640SOL    HW134759   9.406  16.362   7.758
28640SOL    HW234760   9.305  16.247   7.816
28641SOL     OW34761   8.139   7.836   1.310
28641SOL    HW134762   8.169   7.931   1.307
28641SOL    HW234763   8.094   7.818   1.397
28642SOL     OW34764   6.263  10.512   6.679
28642SOL    HW134765   6.341  10.486   6.736
28642SOL    HW234766   6.225  10.430   6.636
28643SOL     OW34767   5.544   2.116   1.801
28643SOL    HW134768   5.555   2.101   1.703
28643SOL    HW234769   5.608   2.058   1.850
28644SOL     OW34770   1.341   2.847   7.315
28644SOL    HW134771   1.264   2.847   7.379
28644SOL    HW234772   1.372   2.941   7.300
28645SOL     OW34773   5.998   3.509   1.128
28645SOL    HW134774   5.945   3.533   1.047
28645SOL    HW234775   6.082   3.462   1.101
28646SOL     OW34776   9.903   8.813   2.240
28646SOL    HW134777   9.829   8.748   2.260
28646SOL    HW234778   9.912   8.877   2.316
28647SOL     OW34779  13.293  11.266   0.623
28647SOL    HW134780  13.219  11.202   0.642
28647SOL    HW234781  13.305  11.276   0.524
28648SOL     OW34782  16.606   2.733   8.298
28648SOL    HW134783  16.557   2.810   8.259
28648SOL    HW234784  16.583   2.724   8.395
28649SOL     OW34785  12.056  15.071   0.318
28649SOL    HW134786  11.970  15.044   0.361
28649SOL    HW234787  12.039  15.143   0.251
28650SOL     OW34788   5.900   5.559   0.716
28650SOL    HW134789   5.810   5.598   0.694
28650SOL    HW234790   5.888   5.472   0.763
28651SOL     OW34791  16.175  13.349   1.509
28651SOL    HW134792  16.236  13.419   1.545
28651SOL    HW234793  16.098  13.392   1.461
28652SOL     OW34794   3.613  12.867   8.437
28652SOL    HW134795   3.635  12.829   8.347
28652SOL    HW234796   3.538  12.815   0.024
28653SOL     OW34797   1.376   5.975   1.553
28653SOL    HW134798   1.437   6.045   1.590
28653SOL    HW234799   1.341   5.919   1.628
28654SOL     OW34800  15.999   8.987   0.757
28654SOL    HW134801  15.994   8.890   0.782
28654SOL    HW234802  16.017   8.995   0.659
28655SOL     OW34803   4.217   0.385   7.218
28655SOL    HW134804   4.119   0.386   7.198
28655SOL    HW234805   4.268   0.421   7.140
28656SOL     OW34806   7.908  15.178   7.053
28656SOL    HW134807   7.936  15.195   6.959
28656SOL    HW234808   7.827  15.233   7.074
28657SOL     OW34809  13.444   9.507   7.939
28657SOL    HW134810  13.394   9.593   7.950
28657SOL    HW234811  13.411   9.460   7.857
28658SOL     OW34812   7.536  15.731   6.195
28658SOL    HW134813   7.581  15.667   6.133
28658SOL    HW234814   7.468  15.682   6.250
28659SOL     OW34815  10.704  12.461   0.249
28659SOL    HW134816  10.635  12.530   0.268
28659SOL    HW234817  10.661  12.379   0.212
28660SOL     OW34818   3.990   8.439   2.245
28660SOL    HW134819   3.924   8.394   2.185
28660SOL    HW234820   3.943   8.509   2.299
28661SOL     OW34821   6.451  12.118   6.579
28661SOL    HW134822   6.362  12.129   6.534
28661SOL    HW234823   6.443  12.051   6.653
28662SOL     OW34824   7.563   5.141   6.751
28662SOL    HW134825   7.632   5.142   6.678
28662SOL    HW234826   7.594   5.081   6.825
28663SOL     OW34827   4.206  16.372   8.082
28663SOL    HW134828   4.216  16.274   8.065
28663SOL    HW234829   4.140  16.410   8.018
28664SOL     OW34830  12.854   9.640   2.222
28664SOL    HW134831  12.788   9.714   2.233
28664SOL    HW234832  12.839   9.571   2.293
28665SOL     OW34833   4.032   4.859   8.310
28665SOL    HW134834   4.091   4.793   8.264
28665SOL    HW234835   4.024   4.835   8.407
28666SOL     OW34836   4.219   8.063   0.519
28666SOL    HW134837   4.242   8.064   0.421
28666SOL    HW234838   4.133   8.016   0.532
28667SOL     OW34839   1.387  15.245   7.502
28667SOL    HW134840   1.322  15.321   7.508
28667SOL    HW234841   1.342  15.166   7.460
28668SOL     OW34842   9.337   1.362   6.232
28668SOL    HW134843   9.368   1.454   6.257
28668SOL    HW234844   9.243   1.367   6.199
28669SOL     OW34845   3.704  12.986   6.664
28669SOL    HW134846   3.763  12.999   6.585
28669SOL    HW234847   3.659  13.072   6.687
28670SOL     OW34848   0.919  12.510   6.700
28670SOL    HW134849   0.877  12.594   6.665
28670SOL    HW234850   0.858  12.433   6.685
28671SOL     OW34851   4.052   9.934   1.977
28671SOL    HW134852   3.972   9.875   1.987
28671SOL    HW234853   4.073   9.977   2.065
28672SOL     OW34854  11.001  14.576   0.772
28672SOL    HW134855  11.080  14.638   0.777
28672SOL    HW234856  10.986  14.550   0.677
28673SOL     OW34857  12.077  12.878   1.997
28673SOL    HW134858  12.169  12.866   1.957
28673SOL    HW234859  12.074  12.833   2.086
28674SOL     OW34860  11.074  14.754   6.418
28674SOL    HW134861  11.075  14.749   6.319
28674SOL    HW234862  11.161  14.790   6.451
28675SOL     OW34863   8.022   3.633   1.610
28675SOL    HW134864   8.083   3.585   1.673
28675SOL    HW234865   8.076   3.672   1.535
28676SOL     OW34866  11.432   0.774   6.072
28676SOL    HW134867  11.392   0.749   5.984
28676SOL    HW234868  11.372   0.742   6.146
28677SOL     OW34869   5.866   7.846   0.752
28677SOL    HW134870   5.862   7.895   0.665
28677SOL    HW234871   5.806   7.766   0.749
28678SOL     OW34872   3.353  12.013   2.365
28678SOL    HW134873   3.276  12.073   2.389
28678SOL    HW234874   3.436  12.047   2.409
28679SOL     OW34875  10.637   1.370   0.671
28679SOL    HW134876  10.694   1.387   0.751
28679SOL    HW234877  10.670   1.288   0.624
28680SOL     OW34878   8.167  10.947   7.946
28680SOL    HW134879   8.235  10.977   8.013
28680SOL    HW234880   8.084  10.917   7.992
28681SOL     OW34881   2.921   1.396   0.769
28681SOL    HW134882   2.957   1.486   0.744
28681SOL    HW234883   2.996   1.329   0.771
28682SOL     OW34884  10.639  11.997   8.224
28682SOL    HW134885  10.614  11.932   8.296
28682SOL    HW234886  10.561  12.011   8.163
28683SOL     OW34887   1.459  11.375   7.385
28683SOL    HW134888   1.455  11.469   7.420
28683SOL    HW234889   1.392  11.365   7.311
28684SOL     OW34890   9.029  14.243   6.479
28684SOL    HW134891   9.081  14.326   6.503
28684SOL    HW234892   8.939  14.246   6.522
28685SOL     OW34893  10.660   6.549   7.014
28685SOL    HW134894  10.755   6.559   6.984
28685SOL    HW234895  10.616   6.476   6.961
28686SOL     OW34896   0.678  13.947   1.798
28686SOL    HW134897   0.761  13.940   1.742
28686SOL    HW234898   0.629  14.031   1.775
28687SOL     OW34899   6.608   0.390   7.343
28687SOL    HW134900   6.654   0.444   7.414
28687SOL    HW234901   6.661   0.308   7.324
28688SOL     OW34902   1.666   0.976   7.066
28688SOL    HW134903   1.622   1.006   6.982
28688SOL    HW234904   1.697   1.056   7.118
28689SOL     OW34905  11.354  13.915   1.456
28689SOL    HW134906  11.426  13.967   1.410
28689SOL    HW234907  11.364  13.925   1.555
28690SOL     OW34908   5.476   1.596   7.970
28690SOL    HW134909   5.460   1.689   8.003
28690SOL    HW234910   5.397   1.564   7.918
28691SOL     OW34911   4.869   5.638   1.080
28691SOL    HW134912   4.827   5.726   1.099
28691SOL    HW234913   4.969   5.646   1.084
28692SOL     OW34914   4.776   5.459   1.266
28692SOL    HW134915   4.857   5.410   1.297
28692SOL    HW234916   4.801   5.524   1.195
28693SOL     OW34917  15.853  10.295   2.199
28693SOL    HW134918  15.771  10.258   2.241
28693SOL    HW234919  15.922  10.223   2.191
28694SOL     OW34920  11.164  10.185   7.793
28694SOL    HW134921  11.174  10.282   7.768
28694SOL    HW234922  11.083  10.147   7.748
28695SOL     OW34923   3.726  13.490   0.240
28695SOL    HW134924   3.668  13.560   0.199
28695SOL    HW234925   3.821  13.520   0.237
28696SOL     OW34926  15.046   0.883   7.921
28696SOL    HW134927  15.029   0.955   7.853
28696SOL    HW234928  15.118   0.912   7.984
28697SOL     OW34929   8.671   1.978   0.538
28697SOL    HW134930   8.589   1.998   0.484
28697SOL    HW234931   8.751   1.973   0.477
28698SOL     OW34932   0.822  12.905   1.330
28698SOL    HW134933   0.852  12.996   1.358
28698SOL    HW234934   0.728  12.890   1.361
28699SOL     OW34935  15.936  11.469   7.040
28699SOL    HW134936  15.852  11.448   6.990
28699SOL    HW234937  15.912  11.520   7.123
28700SOL     OW34938  12.387   1.438   7.966
28700SOL    HW134939  12.376   1.529   7.927
28700SOL    HW234940  12.436   1.444   8.053
28701SOL     OW34941  16.934   1.764   1.974
28701SOL    HW134942  16.901   1.840   2.030
28701SOL    HW234943  16.858   1.724   1.924
28702SOL     OW34944   4.294  14.410   2.028
28702SOL    HW134945   4.257  14.487   1.975
28702SOL    HW234946   4.220  14.346   2.049
28703SOL     OW34947  13.723  16.284   6.881
28703SOL    HW134948  13.680  16.267   6.793
28703SOL    HW234949  13.803  16.225   6.892
28704SOL     OW34950  14.356  13.414   8.374
28704SOL    HW134951  14.446  13.373   8.386
28704SOL    HW234952  14.366  13.511   8.350
28705SOL     OW34953   9.783   5.850   0.364
28705SOL    HW134954   9.703   5.809   0.320
28705SOL    HW234955   9.836   5.778   0.409
28706SOL     OW34956   6.891   6.039   8.444
28706SOL    HW134957   6.847   6.060   8.357
28706SOL    HW234958   6.989   6.026   8.430
28707SOL     OW34959   5.700   0.631   7.335
28707SOL    HW134960   5.674   0.718   7.295
28707SOL    HW234961   5.794   0.609   7.308
28708SOL     OW34962  11.787   4.758   1.227
28708SOL    HW134963  11.713   4.823   1.244
28708SOL    HW234964  11.786   4.687   1.298
28709SOL     OW34965   0.218   7.994   5.980
28709SOL    HW134966   0.291   8.062   5.985
28709SOL    HW234967   0.225   7.944   5.893
28710SOL     OW34968   0.271   7.098   1.397
28710SOL    HW134969   0.342   7.168   1.409
28710SOL    HW234970   0.227   7.110   1.308
28711SOL     OW34971  12.669  16.305   1.653
28711SOL    HW134972  12.723  16.372   1.704
28711SOL    HW234973  12.705  16.213   1.670
28712SOL     OW34974  15.545  12.144   6.572
28712SOL    HW134975  15.482  12.157   6.497
28712SOL    HW234976  15.531  12.053   6.612
28713SOL     OW34977   9.843   2.976   7.663
28713SOL    HW134978   9.849   2.982   7.763
28713SOL    HW234979   9.925   2.929   7.629
28714SOL     OW34980  10.552   5.156   1.466
28714SOL    HW134981  10.615   5.219   1.421
28714SOL    HW234982  10.525   5.193   1.555
28715SOL     OW34983   3.481   2.261   8.192
28715SOL    HW134984   3.489   2.354   8.156
28715SOL    HW234985   3.571   2.229   8.223
28716SOL     OW34986  16.967   2.217   7.784
28716SOL    HW134987  16.948   2.196   7.880
28716SOL    HW234988   0.034   2.303   7.779
28717SOL     OW34989  13.958  10.112   7.900
28717SOL    HW134990  13.872  10.108   7.849
28717SOL    HW234991  13.959  10.195   7.957
28718SOL     OW34992  16.690   3.488   5.295
28718SOL    HW134993  16.597   3.509   5.323
28718SOL    HW234994  16.745   3.572   5.297
28719SOL     OW34995   7.710   9.596   1.224
28719SOL    HW134996   7.760   9.529   1.169
28719SOL    HW234997   7.775   9.652   1.275
28720SOL     OW34998   9.876   3.742   7.248
28720SOL    HW134999   9.858   3.838   7.266
28720SOL    HW235000   9.959   3.733   7.193
28721SOL     OW35001   8.440  14.171   7.127
28721SOL    HW135002   8.465  14.200   7.034
28721SOL    HW235003   8.412  14.251   7.180
28722SOL     OW35004   9.422   7.432   0.684
28722SOL    HW135005   9.475   7.397   0.761
28722SOL    HW235006   9.464   7.402   0.598
28723SOL     OW35007  11.956  15.939   8.057
28723SOL    HW135008  11.909  15.854   8.079
28723SOL    HW235009  11.956  15.953   7.958
28724SOL     OW35010   4.526   8.062   0.088
28724SOL    HW135011   4.570   8.111   0.013
28724SOL    HW235012   4.498   7.971   0.057
28725SOL     OW35013   9.934  12.615   7.038
28725SOL    HW135014   9.906  12.556   7.114
28725SOL    HW235015   9.981  12.696   7.073
28726SOL     OW35016   7.537  13.059   1.278
28726SOL    HW135017   7.599  13.046   1.356
28726SOL    HW235018   7.443  13.060   1.311
28727SOL     OW35019   3.572  13.134   8.102
28727SOL    HW135020   3.491  13.090   8.142
28727SOL    HW235021   3.654  13.083   8.128
28728SOL     OW35022   9.816  10.269   8.343
28728SOL    HW135023   9.730  10.318   8.349
28728SOL    HW235024   9.833  10.219   8.428
28729SOL     OW35025   8.615   2.039   1.080
28729SOL    HW135026   8.566   1.957   1.109
28729SOL    HW235027   8.643   2.030   0.985
28730SOL     OW35028  11.870  16.239   7.719
28730SOL    HW135029  11.967  16.257   7.698
28730SOL    HW235030  11.824  16.325   7.740
28731SOL     OW35031   5.075   4.735   2.245
28731SOL    HW135032   5.073   4.771   2.338
28731SOL    HW235033   5.142   4.661   2.240
28732SOL     OW35034   6.552   1.322   0.064
28732SOL    HW135035   6.600   1.347   8.434
28732SOL    HW235036   6.572   1.227   0.087
28733SOL     OW35037   4.851   7.806   0.205
28733SOL    HW135038   4.795   7.808   0.123
28733SOL    HW235039   4.794   7.784   0.284
28734SOL     OW35040   5.727   4.336   0.781
28734SOL    HW135041   5.778   4.310   0.699
28734SOL    HW235042   5.788   4.330   0.861
28735SOL     OW35043   8.739   6.001   0.849
28735SOL    HW135044   8.735   5.912   0.804
28735SOL    HW235045   8.656   6.053   0.827
28736SOL     OW35046   9.774   6.388   7.148
28736SOL    HW135047   9.867   6.400   7.113
28736SOL    HW235048   9.766   6.433   7.237
28737SOL     OW35049   2.287   2.234   6.575
28737SOL    HW135050   2.300   2.324   6.535
28737SOL    HW235051   2.205   2.191   6.536
28738SOL     OW35052   3.665   9.497   7.615
28738SOL    HW135053   3.626   9.549   7.692
28738SOL    HW235054   3.640   9.541   7.529
28739SOL     OW35055   4.520   3.944   6.568
28739SOL    HW135056   4.489   3.916   6.477
28739SOL    HW235057   4.600   4.004   6.559
28740SOL     OW35058  10.232   9.482   7.993
28740SOL    HW135059  10.183   9.486   8.080
28740SOL    HW235060  10.314   9.425   8.003
28741SOL     OW35061   2.817   1.175   7.599
28741SOL    HW135062   2.847   1.081   7.583
28741SOL    HW235063   2.806   1.190   7.698
28742SOL     OW35064   3.960   8.378   0.336
28742SOL    HW135065   4.029   8.362   0.406
28742SOL    HW235066   3.881   8.424   0.376
28743SOL     OW35067  13.954  14.098   2.168
28743SOL    HW135068  13.889  14.025   2.190
28743SOL    HW235069  14.045  14.059   2.158
28744SOL     OW35070  12.125   1.356   6.014
28744SOL    HW135071  12.195   1.360   6.085
28744SOL    HW235072  12.048   1.414   6.041
28745SOL     OW35073  15.795   7.157   1.086
28745SOL    HW135074  15.791   7.067   1.129
28745SOL    HW235075  15.847   7.151   1.001
28746SOL     OW35076   3.124   7.948   1.536
28746SOL    HW135077   3.090   8.018   1.599
28746SOL    HW235078   3.058   7.934   1.462
28747SOL     OW35079  15.404   1.446   7.853
28747SOL    HW135080  15.438   1.515   7.917
28747SOL    HW235081  15.393   1.487   7.763
28748SOL     OW35082   0.019   1.144   8.016
28748SOL    HW135083   0.021   1.165   7.919
28748SOL    HW235084   0.093   1.080   8.038
28749SOL     OW35085   9.117   5.320   7.103
28749SOL    HW135086   9.030   5.301   7.058
28749SOL    HW235087   9.187   5.258   7.068
28750SOL     OW35088   3.479  10.051   0.277
28750SOL    HW135089   3.474  10.136   0.329
28750SOL    HW235090   3.567  10.047   0.229
28751SOL     OW35091  11.750   5.095   0.236
28751SOL    HW135092  11.754   4.995   0.236
28751SOL    HW235093  11.803   5.130   0.314
28752SOL     OW35094  14.472   6.515   7.074
28752SOL    HW135095  14.462   6.612   7.050
28752SOL    HW235096  14.479   6.461   6.991
28753SOL     OW35097   6.805  16.094   1.527
28753SOL    HW135098   6.849  16.174   1.569
28753SOL    HW235099   6.870  16.050   1.465
28754SOL     OW35100   5.219  12.708   2.005
28754SOL    HW135101   5.254  12.742   1.917
28754SOL    HW235102   5.279  12.636   2.039
28755SOL     OW35103  11.976  13.447   0.610
28755SOL    HW135104  11.907  13.407   0.549
28755SOL    HW235105  12.037  13.506   0.557
28756SOL     OW35106   2.011  11.608   7.398
28756SOL    HW135107   1.953  11.656   7.333
28756SOL    HW235108   1.962  11.527   7.432
28757SOL     OW35109   1.459   5.662   7.307
28757SOL    HW135110   1.465   5.598   7.230
28757SOL    HW235111   1.369   5.651   7.351
28758SOL     OW35112   7.483  13.616   2.222
28758SOL    HW135113   7.524  13.692   2.273
28758SOL    HW235114   7.547  13.539   2.219
28759SOL     OW35115  15.069   3.361   7.548
28759SOL    HW135116  15.020   3.447   7.534
28759SOL    HW235117  15.017   3.287   7.504
28760SOL     OW35118   7.051   7.785   6.591
28760SOL    HW135119   7.091   7.747   6.675
28760SOL    HW235120   7.051   7.715   6.520
28761SOL     OW35121  12.933   9.299   6.273
28761SOL    HW135122  13.023   9.256   6.272
28761SOL    HW235123  12.907   9.324   6.180
28762SOL     OW35124  11.564  15.012   7.592
28762SOL    HW135125  11.572  15.013   7.493
28762SOL    HW235126  11.470  15.033   7.618
28763SOL     OW35127   4.430  13.121   0.685
28763SOL    HW135128   4.461  13.026   0.685
28763SOL    HW235129   4.448  13.162   0.774
28764SOL     OW35130   4.915   5.986   8.147
28764SOL    HW135131   4.985   5.948   8.088
28764SOL    HW235132   4.941   5.972   8.243
28765SOL     OW35133   3.090   1.401   0.367
28765SOL    HW135134   3.075   1.355   0.279
28765SOL    HW235135   3.005   1.441   0.400
28766SOL     OW35136  12.761   0.968   6.011
28766SOL    HW135137  12.679   0.969   5.953
28766SOL    HW235138  12.769   1.056   6.058
28767SOL     OW35139  12.603  10.139   7.554
28767SOL    HW135140  12.527  10.075   7.563
28767SOL    HW235141  12.583  10.203   7.479
28768SOL     OW35142   1.013   1.731   0.341
28768SOL    HW135143   1.089   1.746   0.405
28768SOL    HW235144   0.926   1.743   0.390
28769SOL     OW35145   2.318   5.911   7.084
28769SOL    HW135146   2.335   5.997   7.131
28769SOL    HW235147   2.327   5.835   7.148
28770SOL     OW35148  11.492  13.277   7.762
28770SOL    HW135149  11.431  13.337   7.815
28770SOL    HW235150  11.549  13.225   7.824
28771SOL     OW35151   7.979   0.561   0.013
28771SOL    HW135152   8.043   0.636   0.030
28771SOL    HW235153   7.977   0.541   8.370
28772SOL     OW35154   6.711   2.215   6.460
28772SOL    HW135155   6.730   2.127   6.416
28772SOL    HW235156   6.763   2.287   6.414
28773SOL     OW35157   3.807  16.582   6.989
28773SOL    HW135158   3.806  16.562   6.891
28773SOL    HW235159   3.718  16.620   7.015
28774SOL     OW35160  12.411  15.019   2.079
28774SOL    HW135161  12.376  14.928   2.057
28774SOL    HW235162  12.397  15.038   2.176
28775SOL     OW35163   3.185  10.294   0.445
28775SOL    HW135164   3.282  10.279   0.428
28775SOL    HW235165   3.145  10.213   0.487
28776SOL     OW35166   3.034   3.190   0.038
28776SOL    HW135167   3.038   3.167   8.395
28776SOL    HW235168   3.120   3.165   0.082
28777SOL     OW35169   0.596  15.917   7.594
28777SOL    HW135170   0.565  15.914   7.499
28777SOL    HW235171   0.630  15.826   7.620
28778SOL     OW35172   8.662   7.391   6.808
28778SOL    HW135173   8.632   7.485   6.796
28778SOL    HW235174   8.596   7.341   6.863
28779SOL     OW35175   7.418   2.644   1.557
28779SOL    HW135176   7.477   2.664   1.635
28779SOL    HW235177   7.322   2.656   1.583
28780SOL     OW35178  15.261  11.989   2.445
28780SOL    HW135179  15.331  12.021   2.381
28780SOL    HW235180  15.297  11.910   2.496
28781SOL     OW35181  16.481   1.062   6.668
28781SOL    HW135182  16.475   1.156   6.702
28781SOL    HW235183  16.392   1.033   6.633
28782SOL     OW35184  11.338   2.533   6.465
28782SOL    HW135185  11.422   2.481   6.481
28782SOL    HW235186  11.352   2.627   6.498
28783SOL     OW35187  14.283  15.912   7.786
28783SOL    HW135188  14.243  15.821   7.799
28783SOL    HW235189  14.372  15.916   7.832
28784SOL     OW35190  13.303   2.605   5.250
28784SOL    HW135191  13.283   2.598   5.152
28784SOL    HW235192  13.258   2.529   5.298
28785SOL     OW35193  15.068   8.872   6.637
28785SOL    HW135194  15.044   8.809   6.563
28785SOL    HW235195  15.130   8.943   6.602
28786SOL     OW35196  15.856  15.561   2.002
28786SOL    HW135197  15.873  15.463   1.994
28786SOL    HW235198  15.783  15.577   2.069
28787SOL     OW35199  10.526  12.457   8.235
28787SOL    HW135200  10.609  12.431   8.283
28787SOL    HW235201  10.489  12.541   8.275
28788SOL     OW35202  16.256   8.184   2.220
28788SOL    HW135203  16.332   8.247   2.238
28788SOL    HW235204  16.191   8.188   2.296
28789SOL     OW35205   6.959  10.452   7.021
28789SOL    HW135206   6.990  10.504   7.101
28789SOL    HW235207   6.966  10.355   7.041
28790SOL     OW35208  10.649  15.404   8.029
28790SOL    HW135209  10.711  15.369   7.958
28790SOL    HW235210  10.691  15.391   8.119
28791SOL     OW35211  15.370  11.595   6.779
28791SOL    HW135212  15.338  11.506   6.748
28791SOL    HW235213  15.453  11.620   6.729
28792SOL     OW35214   4.576  14.262   7.760
28792SOL    HW135215   4.626  14.248   7.675
28792SOL    HW235216   4.589  14.356   7.791
28793SOL     OW35217  14.275   4.749   7.164
28793SOL    HW135218  14.255   4.685   7.089
28793SOL    HW235219  14.265   4.702   7.251
28794SOL     OW35220   2.100   3.417   1.298
28794SOL    HW135221   2.094   3.455   1.391
28794SOL    HW235222   2.129   3.488   1.234
28795SOL     OW35223   0.733   3.660   5.537
28795SOL    HW135224   0.736   3.562   5.555
28795SOL    HW235225   0.680   3.677   5.454
28796SOL     OW35226   8.896   1.774   1.888
28796SOL    HW135227   8.894   1.676   1.909
28796SOL    HW235228   8.844   1.824   1.956
28797SOL     OW35229  13.897   7.669   8.045
28797SOL    HW135230  13.824   7.621   7.995
28797SOL    HW235231  13.864   7.759   8.074
28798SOL     OW35232  12.924  10.418   1.810
28798SOL    HW135233  13.007  10.376   1.847
28798SOL    HW235234  12.939  10.444   1.715
28799SOL     OW35235   5.038   8.995   7.197
28799SOL    HW135236   4.972   9.060   7.235
28799SOL    HW235237   5.130   9.026   7.218
28800SOL     OW35238   5.955   6.528   1.762
28800SOL    HW135239   5.925   6.604   1.820
28800SOL    HW235240   6.054   6.519   1.766
28801SOL     OW35241  16.361   4.337   8.169
28801SOL    HW135242  16.284   4.331   8.105
28801SOL    HW235243  16.340   4.404   8.241
28802SOL     OW35244  16.870   4.167   7.133
28802SOL    HW135245  16.913   4.148   7.221
28802SOL    HW235246  16.902   4.101   7.066
28803SOL     OW35247  10.613   3.302   6.230
28803SOL    HW135248  10.684   3.240   6.195
28803SOL    HW235249  10.538   3.307   6.164
28804SOL     OW35250   8.995  14.411   2.266
28804SOL    HW135251   9.086  14.450   2.272
28804SOL    HW235252   8.927  14.478   2.295
28805SOL     OW35253  16.598  10.033   1.839
28805SOL    HW135254  16.506  10.031   1.799
28805SOL    HW235255  16.602   9.968   1.915
28806SOL     OW35256  12.110   7.351   0.512
28806SOL    HW135257  12.039   7.392   0.570
28806SOL    HW235258  12.173   7.422   0.481
28807SOL     OW35259   3.756  14.576   7.095
28807SOL    HW135260   3.658  14.557   7.089
28807SOL    HW235261   3.805  14.493   7.123
28808SOL     OW35262   1.049  12.135   0.037
28808SOL    HW135263   1.052  12.097   8.398
28808SOL    HW235264   1.016  12.065   0.101
28809SOL     OW35265  10.587  10.983   1.133
28809SOL    HW135266  10.662  11.050   1.133
28809SOL    HW235267  10.591  10.930   1.218
28810SOL     OW35268  11.375  13.892   6.836
28810SOL    HW135269  11.298  13.861   6.780
28810SOL    HW235270  11.344  13.908   6.930
28811SOL     OW35271   2.747   6.451   1.184
28811SOL    HW135272   2.681   6.513   1.141
28811SOL    HW235273   2.707   6.361   1.195
28812SOL     OW35274   2.630  16.768   0.266
28812SOL    HW135275   2.618  16.744   0.170
28812SOL    HW235276   2.591  16.695   0.323
28813SOL     OW35277   7.029  15.035   7.506
28813SOL    HW135278   6.981  14.999   7.427
28813SOL    HW235279   6.992  14.994   7.590
28814SOL     OW35280   5.993   1.705   6.784
28814SOL    HW135281   6.082   1.685   6.823
28814SOL    HW235282   5.977   1.647   6.704
28815SOL     OW35283   3.921   3.256   0.252
28815SOL    HW135284   3.988   3.272   0.324
28815SOL    HW235285   3.844   3.203   0.290
28816SOL     OW35286   1.020  11.417   8.365
28816SOL    HW135287   0.968  11.433   8.280
28816SOL    HW235288   1.093  11.351   8.348
28817SOL     OW35289   7.408  12.226   0.445
28817SOL    HW135290   7.469  12.149   0.428
28817SOL    HW235291   7.454  12.311   0.419
28818SOL     OW35292  10.031  12.365   0.138
28818SOL    HW135293  10.072  12.349   0.048
28818SOL    HW235294  10.029  12.463   0.157
28819SOL     OW35295   5.625  16.487   0.171
28819SOL    HW135296   5.636  16.471   0.269
28819SOL    HW235297   5.643  16.403   0.121
28820SOL     OW35298   6.180   2.435   0.249
28820SOL    HW135299   6.130   2.417   0.334
28820SOL    HW235300   6.157   2.366   0.181
28821SOL     OW35301   0.367  11.165   1.097
28821SOL    HW135302   0.288  11.225   1.082
28821SOL    HW235303   0.440  11.189   1.032
28822SOL     OW35304   1.108   8.681   0.950
28822SOL    HW135305   1.201   8.644   0.950
28822SOL    HW235306   1.043   8.605   0.941
28823SOL     OW35307  13.579   2.678   6.320
28823SOL    HW135308  13.549   2.587   6.348
28823SOL    HW235309  13.641   2.670   6.242
28824SOL     OW35310  13.806   6.485   1.422
28824SOL    HW135311  13.871   6.523   1.488
28824SOL    HW235312  13.806   6.541   1.339
28825SOL     OW35313  16.604   6.382   6.149
28825SOL    HW135314  16.607   6.302   6.090
28825SOL    HW235315  16.697   6.408   6.175
28826SOL     OW35316   2.957   1.394   7.496
28826SOL    HW135317   2.962   1.470   7.561
28826SOL    HW235318   2.895   1.324   7.532
28827SOL     OW35319  16.453  12.736   6.142
28827SOL    HW135320  16.496  12.794   6.211
28827SOL    HW235321  16.383  12.789   6.093
28828SOL     OW35322  10.267   0.302   7.231
28828SOL    HW135323  10.333   0.234   7.200
28828SOL    HW235324  10.272   0.383   7.172
28829SOL     OW35325   9.382  11.399   7.745
28829SOL    HW135326   9.388  11.406   7.845
28829SOL    HW235327   9.373  11.491   7.706
28830SOL     OW35328   5.428   8.920   1.190
28830SOL    HW135329   5.399   8.829   1.163
28830SOL    HW235330   5.523   8.935   1.166
28831SOL     OW35331  10.542   0.303   7.565
28831SOL    HW135332  10.457   0.352   7.543
28831SOL    HW235333  10.523   0.233   7.634
28832SOL     OW35334   9.053  14.521   0.590
28832SOL    HW135335   9.020  14.561   0.505
28832SOL    HW235336   8.975  14.488   0.644
28833SOL     OW35337  12.969   4.771   7.828
28833SOL    HW135338  12.978   4.695   7.764
28833SOL    HW235339  13.057   4.815   7.841
28834SOL     OW35340   7.171   8.230   0.229
28834SOL    HW135341   7.192   8.328   0.229
28834SOL    HW235342   7.136   8.202   0.318
28835SOL     OW35343   5.648   0.363   2.033
28835SOL    HW135344   5.703   0.428   2.086
28835SOL    HW235345   5.567   0.338   2.085
28836SOL     OW35346   0.558   8.197   0.177
28836SOL    HW135347   0.495   8.178   0.101
28836SOL    HW235348   0.652   8.180   0.146
28837SOL     OW35349  14.265   8.142   1.281
28837SOL    HW135350  14.245   8.046   1.297
28837SOL    HW235351  14.301   8.183   1.365
28838SOL     OW35352  14.946  15.890   0.435
28838SOL    HW135353  14.982  15.884   0.528
28838SOL    HW235354  14.916  15.984   0.417
28839SOL     OW35355  11.040   3.738   0.543
28839SOL    HW135356  11.023   3.668   0.612
28839SOL    HW235357  10.952   3.770   0.506
28840SOL     OW35358  15.887   6.123   7.031
28840SOL    HW135359  15.898   6.107   6.933
28840SOL    HW235360  15.817   6.193   7.045
28841SOL     OW35361  14.726   9.614   1.272
28841SOL    HW135362  14.813   9.576   1.304
28841SOL    HW235363  14.724   9.712   1.292
28842SOL     OW35364   5.111   9.329   0.149
28842SOL    HW135365   5.060   9.333   0.235
28842SOL    HW235366   5.200   9.285   0.164
28843SOL     OW35367   4.103  11.068   6.940
28843SOL    HW135368   4.175  11.137   6.942
28843SOL    HW235369   4.090  11.031   7.032
28844SOL     OW35370   4.244  16.587   0.388
28844SOL    HW135371   4.178  16.656   0.419
28844SOL    HW235372   4.196  16.516   0.337
28845SOL     OW35373  13.965  13.223   1.627
28845SOL    HW135374  14.037  13.159   1.655
28845SOL    HW235375  13.884  13.171   1.599
28846SOL     OW35376   0.012   8.895   1.469
28846SOL    HW135377  16.932   8.890   1.392
28846SOL    HW235378   0.011   8.809   1.519
28847SOL     OW35379   8.233  12.428   1.227
28847SOL    HW135380   8.215  12.502   1.161
28847SOL    HW235381   8.252  12.468   1.317
28848SOL     OW35382   3.084  12.798   7.308
28848SOL    HW135383   3.169  12.849   7.292
28848SOL    HW235384   3.097  12.737   7.387
28849SOL     OW35385   7.849  12.138   0.380
28849SOL    HW135386   7.894  12.055   0.348
28849SOL    HW235387   7.751  12.121   0.388
28850SOL     OW35388   1.431   1.329   7.892
28850SOL    HW135389   1.350   1.339   7.835
28850SOL    HW235390   1.413   1.365   7.984
28851SOL     OW35391   8.332  16.170   7.368
28851SOL    HW135392   8.298  16.197   7.278
28851SOL    HW235393   8.262  16.117   7.416
28852SOL     OW35394  12.441  14.177   7.186
28852SOL    HW135395  12.489  14.247   7.239
28852SOL    HW235396  12.431  14.095   7.242
28853SOL     OW35397   9.633  16.340   7.772
28853SOL    HW135398   9.644  16.349   7.871
28853SOL    HW235399   9.714  16.376   7.726
28854SOL     OW35400  10.116   5.607   7.422
28854SOL    HW135401  10.174   5.673   7.469
28854SOL    HW235402  10.109   5.632   7.325
28855SOL     OW35403  14.869   9.794   0.569
28855SOL    HW135404  14.848   9.868   0.633
28855SOL    HW235405  14.785   9.764   0.524
28856SOL     OW35406  11.139  15.695   7.131
28856SOL    HW135407  11.094  15.752   7.063
28856SOL    HW235408  11.238  15.700   7.120
28857SOL     OW35409  13.288   7.391   0.102
28857SOL    HW135410  13.378   7.351   0.081
28857SOL    HW235411  13.284   7.484   0.065
28858SOL     OW35412   6.979  14.297   7.991
28858SOL    HW135413   6.969  14.354   7.909
28858SOL    HW235414   6.891  14.255   8.014
28859SOL     OW35415   3.358  14.611   1.171
28859SOL    HW135416   3.344  14.547   1.247
28859SOL    HW235417   3.340  14.704   1.202
28860SOL     OW35418   6.008   9.260   7.304
28860SOL    HW135419   6.106   9.255   7.326
28860SOL    HW235420   5.957   9.288   7.385
28861SOL     OW35421   1.891   6.294   0.274
28861SOL    HW135422   1.910   6.200   0.303
28861SOL    HW235423   1.793   6.310   0.272
28862SOL     OW35424   8.709  16.925   1.123
28862SOL    HW135425   8.748   0.033   1.140
28862SOL    HW235426   8.645  16.930   1.046
28863SOL     OW35427   2.725   3.720   1.126
28863SOL    HW135428   2.716   3.758   1.218
28863SOL    HW235429   2.817   3.737   1.091
28864SOL     OW35430  11.394   4.790   7.766
28864SOL    HW135431  11.313   4.781   7.708
28864SOL    HW235432  11.427   4.699   7.790
28865SOL     OW35433   9.939   1.694   1.138
28865SOL    HW135434   9.893   1.775   1.103
28865SOL    HW235435   9.942   1.624   1.067
28866SOL     OW35436   4.314   0.442   8.248
28866SOL    HW135437   4.281   0.483   8.162
28866SOL    HW235438   4.403   0.399   8.233
28867SOL     OW35439   5.436  12.056   1.336
28867SOL    HW135440   5.492  12.077   1.416
28867SOL    HW235441   5.468  11.970   1.296
28868SOL     OW35442   3.099  10.450   0.023
28868SOL    HW135443   3.072  10.369   8.426
28868SOL    HW235444   3.065  10.532   8.430
28869SOL     OW35445  14.672  16.898   1.300
28869SOL    HW135446  14.582  16.915   1.259
28869SOL    HW235447  14.713   0.002   1.326
28870SOL     OW35448   7.816  15.733   8.044
28870SOL    HW135449   7.736  15.675   8.064
28870SOL    HW235450   7.853  15.768   8.130
28871SOL     OW35451  10.850   1.278   1.266
28871SOL    HW135452  10.783   1.262   1.193
28871SOL    HW235453  10.903   1.361   1.245
28872SOL     OW35454  13.662   8.046   7.330
28872SOL    HW135455  13.577   8.054   7.382
28872SOL    HW235456  13.734   8.097   7.378
28873SOL     OW35457  16.003  11.345   1.263
28873SOL    HW135458  16.020  11.316   1.358
28873SOL    HW235459  16.084  11.390   1.227
28874SOL     OW35460   7.484  14.473   8.311
28874SOL    HW135461   7.560  14.445   8.252
28874SOL    HW235462   7.415  14.401   8.314
28875SOL     OW35463   8.538  16.633   8.414
28875SOL    HW135464   8.504  16.579   8.336
28875SOL    HW235465   8.518  16.584   0.045
28876SOL     OW35466  14.425   0.868   1.169
28876SOL    HW135467  14.428   0.808   1.090
28876SOL    HW235468  14.460   0.959   1.144
28877SOL     OW35469   2.843  12.700   0.128
28877SOL    HW135470   2.764  12.727   0.073
28877SOL    HW235471   2.827  12.727   0.223
28878SOL     OW35472   7.972   0.144   6.579
28878SOL    HW135473   7.988   0.214   6.510
28878SOL    HW235474   8.060   0.106   6.610
28879SOL     OW35475  10.701  11.694   7.315
28879SOL    HW135476  10.629  11.625   7.322
28879SOL    HW235477  10.784  11.653   7.278
28880SOL     OW35478   0.731   2.459   7.835
28880SOL    HW135479   0.714   2.557   7.842
28880SOL    HW235480   0.672   2.410   7.900
28881SOL     OW35481   4.056   3.143   7.986
28881SOL    HW135482   4.147   3.109   8.009
28881SOL    HW235483   4.027   3.208   8.056
28882SOL     OW35484   3.162  16.572   8.116
28882SOL    HW135485   3.124  16.586   8.025
28882SOL    HW235486   3.222  16.649   8.139
28883SOL     OW35487   2.419  16.178   2.583
28883SOL    HW135488   2.464  16.266   2.572
28883SOL    HW235489   2.337  16.189   2.640
28884SOL     OW35490   8.357   8.748   0.697
28884SOL    HW135491   8.381   8.834   0.652
28884SOL    HW235492   8.422   8.677   0.671
28885SOL     OW35493   7.037  11.686   8.361
28885SOL    HW135494   7.089  11.771   8.364
28885SOL    HW235495   7.035  11.645   8.452
28886SOL     OW35496   2.252  16.400   6.783
28886SOL    HW135497   2.275  16.365   6.873
28886SOL    HW235498   2.158  16.373   6.760
28887SOL     OW35499  12.790   8.809   8.363
28887SOL    HW135500  12.879   8.773   8.336
28887SOL    HW235501  12.767   8.778   0.001
28888SOL     OW35502   1.645  16.817   8.382
28888SOL    HW135503   1.712  16.817   0.002
28888SOL    HW235504   1.689  16.785   8.298
28889SOL     OW35505   0.434  10.469   0.846
28889SOL    HW135506   0.438  10.422   0.934
28889SOL    HW235507   0.346  10.517   0.837
28890SOL     OW35508   0.596   0.755   6.953
28890SOL    HW135509   0.656   0.690   6.907
28890SOL    HW235510   0.576   0.831   6.891
28891SOL     OW35511   9.089  13.075   6.890
28891SOL    HW135512   9.151  13.104   6.963
28891SOL    HW235513   8.999  13.056   6.928
28892SOL     OW35514   8.374   5.473   0.842
28892SOL    HW135515   8.405   5.453   0.935
28892SOL    HW235516   8.278   5.501   0.844
28893SOL     OW35517   5.167   7.059   1.163
28893SOL    HW135518   5.153   6.986   1.096
28893SOL    HW235519   5.081   7.078   1.210
28894SOL     OW35520  10.225  10.101   7.930
28894SOL    HW135521  10.165  10.032   7.971
28894SOL    HW235522  10.231  10.180   7.991
28895SOL     OW35523   8.963  11.834   7.163
28895SOL    HW135524   8.931  11.863   7.254
28895SOL    HW235525   9.051  11.787   7.172
28896SOL     OW35526   0.415   1.907   7.094
28896SOL    HW135527   0.462   1.995   7.083
28896SOL    HW235528   0.481   1.833   7.083
28897SOL     OW35529  11.698   1.855   8.037
28897SOL    HW135530  11.745   1.775   8.000
28897SOL    HW235531  11.599   1.840   8.032
28898SOL     OW35532   4.447   0.280   6.603
28898SOL    HW135533   4.515   0.221   6.647
28898SOL    HW235534   4.357   0.237   6.607
28899SOL     OW35535   7.154   5.088   2.157
28899SOL    HW135536   7.132   4.992   2.175
28899SOL    HW235537   7.110   5.145   2.227
28900SOL     OW35538   7.905  14.232   1.717
28900SOL    HW135539   7.838  14.302   1.744
28900SOL    HW235540   7.858  14.153   1.680
28901SOL     OW35541   6.935  11.077   7.505
28901SOL    HW135542   6.883  11.065   7.590
28901SOL    HW235543   6.966  11.172   7.498
28902SOL     OW35544  16.536  16.128   0.054
28902SOL    HW135545  16.563  16.223   0.039
28902SOL    HW235546  16.614  16.077   0.090
28903SOL     OW35547   2.104  11.955   7.765
28903SOL    HW135548   2.069  11.863   7.748
28903SOL    HW235549   2.174  11.977   7.697
28904SOL     OW35550  13.345   5.615   8.182
28904SOL    HW135551  13.339   5.695   8.122
28904SOL    HW235552  13.310   5.535   8.134
28905SOL     OW35553   0.590   4.165   8.447
28905SOL    HW135554   0.630   4.255   8.429
28905SOL    HW235555   0.661   4.095   8.443
28906SOL     OW35556   4.145  12.191   0.129
28906SOL    HW135557   4.099  12.196   0.218
28906SOL    HW235558   4.241  12.170   0.142
28907SOL     OW35559   2.512   5.458   0.453
28907SOL    HW135560   2.583   5.515   0.494
28907SOL    HW235561   2.525   5.363   0.484
28908SOL     OW35562  15.992   9.859   7.224
28908SOL    HW135563  16.091   9.872   7.229
28908SOL    HW235564  15.946   9.938   7.264
28909SOL     OW35565  11.694   0.816   8.287
28909SOL    HW135566  11.774   0.867   8.257
28909SOL    HW235567  11.624   0.879   8.320
28910SOL     OW35568  15.089   7.664   0.575
28910SOL    HW135569  15.127   7.572   0.584
28910SOL    HW235570  15.163   7.730   0.565
28911SOL     OW35571   4.175   7.722   8.410
28911SOL    HW135572   4.178   7.682   8.319
28911SOL    HW235573   4.117   7.666   0.016
28912SOL     OW35574   5.324   8.187   2.145
28912SOL    HW135575   5.343   8.210   2.240
28912SOL    HW235576   5.336   8.269   2.088
28913SOL     OW35577   4.017  13.237   6.444
28913SOL    HW135578   4.033  13.254   6.347
28913SOL    HW235579   3.957  13.157   6.454
28914SOL     OW35580   9.400  13.283   1.092
28914SOL    HW135581   9.311  13.244   1.113
28914SOL    HW235582   9.410  13.291   0.992
28915SOL     OW35583  14.011  10.190   1.838
28915SOL    HW135584  14.014  10.091   1.832
28915SOL    HW235585  13.922  10.218   1.876
28916SOL     OW35586   6.849  13.863   1.280
28916SOL    HW135587   6.831  13.772   1.244
28916SOL    HW235588   6.791  13.929   1.233
28917SOL     OW35589   3.210  13.403   1.762
28917SOL    HW135590   3.252  13.432   1.676
28917SOL    HW235591   3.231  13.471   1.833
28918SOL     OW35592   7.175   8.504   1.458
28918SOL    HW135593   7.264   8.492   1.414
28918SOL    HW235594   7.188   8.533   1.553
28919SOL     OW35595  13.045   7.615   0.680
28919SOL    HW135596  13.001   7.623   0.591
28919SOL    HW235597  12.983   7.570   0.744
28920SOL     OW35598  15.348   3.038   7.640
28920SOL    HW135599  15.336   3.027   7.542
28920SOL    HW235600  15.445   3.047   7.662
28921SOL     OW35601   1.517  14.110   1.803
28921SOL    HW135602   1.467  14.169   1.740
28921SOL    HW235603   1.611  14.100   1.771
28922SOL     OW35604   1.613   3.788   0.217
28922SOL    HW135605   1.694   3.750   0.172
28922SOL    HW235606   1.557   3.835   0.149
28923SOL     OW35607   9.642  14.651   6.922
28923SOL    HW135608   9.659  14.728   6.860
28923SOL    HW235609   9.723  14.592   6.925
28924SOL     OW35610  14.322  16.695   0.109
28924SOL    HW135611  14.320  16.608   0.060
28924SOL    HW235612  14.274  16.686   0.196
28925SOL     OW35613   9.568  16.072   7.796
28925SOL    HW135614   9.606  16.164   7.792
28925SOL    HW235615   9.642  16.007   7.817
28926SOL     OW35616   2.895  16.446   6.791
28926SOL    HW135617   2.796  16.431   6.796
28926SOL    HW235618   2.925  16.435   6.697
28927SOL     OW35619  10.414   3.957   2.237
28927SOL    HW135620  10.340   3.896   2.264
28927SOL    HW235621  10.398   4.048   2.275
28928SOL     OW35622  13.542  13.199   7.557
28928SOL    HW135623  13.607  13.274   7.558
28928SOL    HW235624  13.564  13.135   7.483
28929SOL     OW35625  13.291   3.842   6.174
28929SOL    HW135626  13.355   3.912   6.143
28929SOL    HW235627  13.209   3.885   6.209
28930SOL     OW35628   9.524   4.114   7.717
28930SOL    HW135629   9.465   4.172   7.772
28930SOL    HW235630   9.473   4.079   7.638
28931SOL     OW35631  16.743  14.836   1.803
28931SOL    HW135632  16.785  14.753   1.841
28931SOL    HW235633  16.652  14.848   1.841
28932SOL     OW35634  14.175   1.570   6.642
28932SOL    HW135635  14.133   1.579   6.733
28932SOL    HW235636  14.103   1.552   6.574
28933SOL     OW35637   1.406   2.631   6.915
28933SOL    HW135638   1.503   2.639   6.937
28933SOL    HW235639   1.353   2.628   7.000
28934SOL     OW35640  13.600  10.101   2.372
28934SOL    HW135641  13.560  10.149   2.450
28934SOL    HW235642  13.623  10.007   2.399
28935SOL     OW35643   6.430   7.901   8.181
28935SOL    HW135644   6.421   7.812   8.227
28935SOL    HW235645   6.526   7.921   8.164
28936SOL     OW35646   4.066  13.269   0.440
28936SOL    HW135647   4.103  13.232   0.354
28936SOL    HW235648   4.102  13.216   0.517
28937SOL     OW35649   7.563   3.276   0.445
28937SOL    HW135650   7.628   3.233   0.382
28937SOL    HW235651   7.519   3.353   0.399
28938SOL     OW35652   7.146   9.030   8.063
28938SOL    HW135653   7.161   9.127   8.044
28938SOL    HW235654   7.229   8.978   8.038
28939SOL     OW35655   2.899   0.428   8.150
28939SOL    HW135656   2.952   0.404   8.231
28939SOL    HW235657   2.823   0.487   8.176
28940SOL     OW35658   2.804   7.762   2.115
28940SOL    HW135659   2.808   7.823   2.194
28940SOL    HW235660   2.788   7.816   2.032
28941SOL     OW35661   9.344  12.179   1.150
28941SOL    HW135662   9.331  12.213   1.057
28941SOL    HW235663   9.434  12.207   1.184
28942SOL     OW35664  11.919   9.269   6.522
28942SOL    HW135665  11.956   9.214   6.447
28942SOL    HW235666  11.882   9.355   6.486
28943SOL     OW35667  12.985  15.476   0.154
28943SOL    HW135668  12.886  15.490   0.143
28943SOL    HW235669  13.002  15.416   0.232
28944SOL     OW35670  15.919   8.442   0.822
28944SOL    HW135671  15.958   8.405   0.907
28944SOL    HW235672  15.819   8.436   0.826
28945SOL     OW35673  16.656  13.238   7.738
28945SOL    HW135674  16.651  13.249   7.639
28945SOL    HW235675  16.595  13.164   7.766
28946SOL     OW35676   6.464   1.325   0.836
28946SOL    HW135677   6.499   1.324   0.743
28946SOL    HW235678   6.520   1.265   0.894
28947SOL     OW35679   4.074   4.105   0.415
28947SOL    HW135680   4.044   4.029   0.473
28947SOL    HW235681   4.125   4.069   0.337
28948SOL     OW35682  16.098  14.283   0.698
28948SOL    HW135683  16.072  14.270   0.602
28948SOL    HW235684  16.067  14.204   0.751
28949SOL     OW35685   6.453  14.617   0.379
28949SOL    HW135686   6.541  14.609   0.332
28949SOL    HW235687   6.439  14.713   0.405
28950SOL     OW35688   0.872  16.806   7.938
28950SOL    HW135689   0.781  16.772   7.961
28950SOL    HW235690   0.937  16.730   7.941
28951SOL     OW35691  15.142   5.049   0.832
28951SOL    HW135692  15.154   4.961   0.877
28951SOL    HW235693  15.051   5.052   0.789
28952SOL     OW35694   4.419   9.931   7.311
28952SOL    HW135695   4.433  10.030   7.314
28952SOL    HW235696   4.464   9.889   7.390
28953SOL     OW35697   5.063   4.372   2.131
28953SOL    HW135698   5.067   4.284   2.178
28953SOL    HW235699   5.130   4.434   2.172
28954SOL     OW35700  16.734   2.361   8.003
28954SOL    HW135701  16.808   2.294   8.007
28954SOL    HW235702  16.743   2.426   8.078
28955SOL     OW35703  10.838   4.238   6.571
28955SOL    HW135704  10.842   4.270   6.477
28955SOL    HW235705  10.845   4.316   6.634
28956SOL     OW35706   4.913   0.094   1.507
28956SOL    HW135707   4.960   0.108   1.594
28956SOL    HW235708   4.954   0.152   1.437
28957SOL     OW35709  16.788   5.714   5.867
28957SOL    HW135710  16.767   5.638   5.805
28957SOL    HW235711  16.725   5.789   5.850
28958SOL     OW35712  12.807   5.508   8.262
28958SOL    HW135713  12.768   5.448   8.193
28958SOL    HW235714  12.798   5.465   8.352
28959SOL     OW35715   4.035  15.962   1.656
28959SOL    HW135716   4.086  15.895   1.601
28959SOL    HW235717   3.995  16.030   1.596
28960SOL     OW35718   8.684   2.928   0.514
28960SOL    HW135719   8.698   2.837   0.555
28960SOL    HW235720   8.721   2.998   0.576
28961SOL     OW35721   8.378   0.062   1.332
28961SOL    HW135722   8.323   0.056   1.416
28961SOL    HW235723   8.469   0.025   1.350
28962SOL     OW35724  10.704  16.806   0.601
28962SOL    HW135725  10.794  16.847   0.589
28962SOL    HW235726  10.657  16.849   0.678
28963SOL     OW35727   9.583   5.186   6.449
28963SOL    HW135728   9.604   5.282   6.430
28963SOL    HW235729   9.548   5.177   6.543
28964SOL     OW35730   5.111  16.802   7.920
28964SOL    HW135731   5.052  16.861   7.976
28964SOL    HW235732   5.136  16.851   7.836
28965SOL     OW35733   6.014  15.608   7.494
28965SOL    HW135734   5.935  15.574   7.442
28965SOL    HW235735   6.041  15.697   7.459
28966SOL     OW35736   2.287   1.757   1.819
28966SOL    HW135737   2.383   1.741   1.795
28966SOL    HW235738   2.280   1.779   1.916
28967SOL     OW35739   6.903  13.541   7.508
28967SOL    HW135740   6.843  13.589   7.444
28967SOL    HW235741   6.860  13.537   7.598
28968SOL     OW35742   3.133  12.155   7.899
28968SOL    HW135743   3.104  12.228   7.961
28968SOL    HW235744   3.216  12.184   7.850
28969SOL     OW35745   5.893  11.287   0.934
28969SOL    HW135746   5.884  11.382   0.904
28969SOL    HW235747   5.837  11.229   0.875
28970SOL     OW35748  12.716   9.002   0.443
28970SOL    HW135749  12.618   9.018   0.430
28970SOL    HW235750  12.763   9.090   0.449
28971SOL     OW35751   9.922  14.060   2.079
28971SOL    HW135752   9.823  14.074   2.070
28971SOL    HW235753   9.970  14.138   2.039
28972SOL     OW35754   3.058  12.585   6.269
28972SOL    HW135755   3.146  12.632   6.281
28972SOL    HW235756   3.075  12.487   6.257
28973SOL     OW35757  14.361  13.713   6.368
28973SOL    HW135758  14.429  13.661   6.419
28973SOL    HW235759  14.399  13.741   6.280
28974SOL     OW35760   3.095  12.703   0.413
28974SOL    HW135761   3.186  12.740   0.428
28974SOL    HW235762   3.084  12.617   0.464
28975SOL     OW35763  12.210  14.825   8.229
28975SOL    HW135764  12.306  14.800   8.218
28975SOL    HW235765  12.170  14.842   8.139
28976SOL     OW35766  16.188  11.803   8.412
28976SOL    HW135767  16.206  11.711   8.376
28976SOL    HW235768  16.273  11.854   8.418
28977SOL     OW35769   2.362   2.325   7.997
28977SOL    HW135770   2.276   2.362   8.033
28977SOL    HW235771   2.432   2.396   7.998
28978SOL     OW35772   7.504   0.897   0.405
28978SOL    HW135773   7.499   0.902   0.505
28978SOL    HW235774   7.592   0.857   0.378
28979SOL     OW35775  13.572  16.424   0.540
28979SOL    HW135776  13.493  16.397   0.485
28979SOL    HW235777  13.587  16.356   0.612
28980SOL     OW35778   1.066   9.794   2.014
28980SOL    HW135779   0.979   9.827   1.976
28980SOL    HW235780   1.074   9.824   2.109
28981SOL     OW35781   0.909  11.920   2.494
28981SOL    HW135782   0.957  11.965   2.419
28981SOL    HW235783   0.901  11.984   2.571
28982SOL     OW35784  10.952  15.218   1.985
28982SOL    HW135785  10.861  15.247   1.958
28982SOL    HW235786  10.955  15.202   2.084
28983SOL     OW35787   6.841   3.801   0.088
28983SOL    HW135788   6.867   3.751   0.005
28983SOL    HW235789   6.922   3.817   0.144
28984SOL     OW35790  16.394  13.845   6.732
28984SOL    HW135791  16.476  13.822   6.679
28984SOL    HW235792  16.317  13.858   6.670
28985SOL     OW35793  14.702   1.362   1.328
28985SOL    HW135794  14.699   1.430   1.254
28985SOL    HW235795  14.625   1.377   1.390
28986SOL     OW35796  16.933   0.433   0.228
28986SOL    HW135797  16.910   0.518   0.275
28986SOL    HW235798   0.032   0.394   0.269
28987SOL     OW35799  13.815  16.152   0.890
28987SOL    HW135800  13.843  16.170   0.984
28987SOL    HW235801  13.834  16.057   0.866
28988SOL     OW35802   1.274   2.624   7.162
28988SOL    HW135803   1.175   2.624   7.174
28988SOL    HW235804   1.315   2.696   7.218
28989SOL     OW35805  11.899  13.832   0.330
28989SOL    HW135806  11.831  13.903   0.344
28989SOL    HW235807  11.957  13.856   0.252
28990SOL     OW35808   2.466  13.698   7.031
28990SOL    HW135809   2.540  13.763   7.013
28990SOL    HW235810   2.421  13.674   6.944
28991SOL     OW35811   3.589   9.006   8.403
28991SOL    HW135812   3.574   8.997   8.304
28991SOL    HW235813   3.666   8.949   8.430
28992SOL     OW35814   2.097   9.710   0.152
28992SOL    HW135815   2.158   9.717   0.230
28992SOL    HW235816   2.122   9.630   0.097
28993SOL     OW35817  13.872   3.654   0.829
28993SOL    HW135818  13.889   3.707   0.913
28993SOL    HW235819  13.932   3.687   0.756
28994SOL     OW35820   0.433   6.634   7.002
28994SOL    HW135821   0.438   6.571   7.080
28994SOL    HW235822   0.351   6.614   6.948
28995SOL     OW35823   2.331  10.373   0.869
28995SOL    HW135824   2.278  10.447   0.912
28995SOL    HW235825   2.373  10.408   0.785
28996SOL     OW35826   7.103   9.526   7.657
28996SOL    HW135827   7.164   9.575   7.595
28996SOL    HW235828   7.053   9.456   7.606
28997SOL     OW35829  13.243  14.737   0.583
28997SOL    HW135830  13.168  14.694   0.634
28997SOL    HW235831  13.313  14.668   0.564
28998SOL     OW35832   6.213   7.252   0.933
28998SOL    HW135833   6.178   7.162   0.909
28998SOL    HW235834   6.205   7.266   1.032
28999SOL     OW35835  12.097  13.768   7.327
28999SOL    HW135836  12.046  13.723   7.253
28999SOL    HW235837  12.193  13.741   7.321
29000SOL     OW35838   2.675  14.763   1.561
29000SOL    HW135839   2.605  14.766   1.489
29000SOL    HW235840   2.632  14.741   1.648
29001SOL     OW35841  13.592  15.883   0.802
29001SOL    HW135842  13.689  15.892   0.827
29001SOL    HW235843  13.580  15.802   0.745
29002SOL     OW35844  10.822  11.949   7.247
29002SOL    HW135845  10.788  11.865   7.289
29002SOL    HW235846  10.804  12.026   7.308
29003SOL     OW35847  12.896   8.080   7.589
29003SOL    HW135848  12.947   8.091   7.503
29003SOL    HW235849  12.868   7.985   7.598
29004SOL     OW35850  13.818  12.268   2.142
29004SOL    HW135851  13.808  12.205   2.219
29004SOL    HW235852  13.735  12.322   2.133
29005SOL     OW35853  10.509  14.385   7.340
29005SOL    HW135854  10.509  14.369   7.242
29005SOL    HW235855  10.540  14.479   7.359
29006SOL     OW35856  16.084  12.386   7.371
29006SOL    HW135857  16.140  12.421   7.296
29006SOL    HW235858  16.129  12.405   7.458
29007SOL     OW35859   1.647   9.417   1.838
29007SOL    HW135860   1.680   9.343   1.780
29007SOL    HW235861   1.694   9.413   1.927
29008SOL     OW35862  13.530  16.499   6.873
29008SOL    HW135863  13.592  16.423   6.893
29008SOL    HW235864  13.492  16.534   6.958
29009SOL     OW35865   5.961  14.634   0.332
29009SOL    HW135866   5.940  14.628   0.234
29009SOL    HW235867   5.941  14.725   0.365
29010SOL     OW35868  10.609   4.090   6.283
29010SOL    HW135869  10.686   4.116   6.225
29010SOL    HW235870  10.581   4.169   6.338
29011SOL     OW35871   7.291   9.611   8.424
29011SOL    HW135872   7.349   9.663   0.032
29011SOL    HW235873   7.234   9.673   8.371
29012SOL     OW35874  16.369  13.424   1.021
29012SOL    HW135875  16.292  13.461   1.072
29012SOL    HW235876  16.346  13.334   0.985
29013SOL     OW35877  16.136   5.577   7.547
29013SOL    HW135878  16.227   5.570   7.586
29013SOL    HW235879  16.134   5.653   7.481
29014SOL     OW35880   5.021  16.521   7.230
29014SOL    HW135881   4.951  16.492   7.163
29014SOL    HW235882   4.992  16.494   7.322
29015SOL     OW35883   7.717  12.472   0.596
29015SOL    HW135884   7.669  12.510   0.675
29015SOL    HW235885   7.794  12.416   0.627
29016SOL     OW35886  11.232  15.312   6.677
29016SOL    HW135887  11.181  15.388   6.637
29016SOL    HW235888  11.232  15.235   6.614
29017SOL     OW35889  15.666   4.340   7.251
29017SOL    HW135890  15.622   4.251   7.240
29017SOL    HW235891  15.754   4.338   7.203
29018SOL     OW35892  13.802  10.227   0.066
29018SOL    HW135893  13.802  10.163   8.442
29018SOL    HW235894  13.847  10.312   0.039
29019SOL     OW35895   3.461   7.162   1.212
29019SOL    HW135896   3.444   7.215   1.129
29019SOL    HW235897   3.440   7.218   1.292
29020SOL     OW35898   7.621  15.560   1.904
29020SOL    HW135899   7.555  15.610   1.960
29020SOL    HW235900   7.658  15.484   1.958
29021SOL     OW35901  10.002   5.349   6.739
29021SOL    HW135902  10.081   5.321   6.685
29021SOL    HW235903   9.940   5.271   6.750
29022SOL     OW35904  16.308  15.334   7.232
29022SOL    HW135905  16.405  15.308   7.241
29022SOL    HW235906  16.287  15.351   7.136
29023SOL     OW35907  14.998   8.265   6.829
29023SOL    HW135908  14.952   8.344   6.870
29023SOL    HW235909  14.930   8.204   6.789
29024SOL     OW35910   7.240   6.449   0.053
29024SOL    HW135911   7.286   6.536   0.038
29024SOL    HW235912   7.270   6.409   0.139
29025SOL     OW35913   1.568  11.867   7.601
29025SOL    HW135914   1.632  11.876   7.677
29025SOL    HW235915   1.480  11.909   7.626
29026SOL     OW35916  14.521  10.473   7.576
29026SOL    HW135917  14.450  10.499   7.511
29026SOL    HW235918  14.579  10.552   7.596
29027SOL     OW35919  12.686  16.814   0.260
29027SOL    HW135920  12.631  16.732   0.277
29027SOL    HW235921  12.781  16.796   0.287
29028SOL     OW35922  13.801   1.227   8.445
29028SOL    HW135923  13.707   1.243   8.415
29028SOL    HW235924  13.842   1.314   0.019
29029SOL     OW35925  13.836  11.072   0.546
29029SOL    HW135926  13.866  11.091   0.639
29029SOL    HW235927  13.862  10.979   0.521
29030SOL     OW35928   7.724   0.827   8.399
29030SOL    HW135929   7.799   0.850   0.008
29030SOL    HW235930   7.648   0.788   8.451
29031SOL     OW35931  14.558  15.655   0.948
29031SOL    HW135932  14.609  15.684   0.867
29031SOL    HW235933  14.547  15.733   1.011
29032SOL     OW35934  14.737   6.702   8.180
29032SOL    HW135935  14.639   6.700   8.159
29032SOL    HW235936  14.751   6.673   8.274
29033SOL     OW35937  16.047   0.080   7.156
29033SOL    HW135938  16.017   0.154   7.215
29033SOL    HW235939  16.031   0.105   7.060
29034SOL     OW35940   6.506   4.634   2.184
29034SOL    HW135941   6.451   4.673   2.258
29034SOL    HW235942   6.506   4.534   2.192
29035SOL     OW35943   6.110  15.704   1.423
29035SOL    HW135944   6.156  15.787   1.391
29035SOL    HW235945   6.019  15.698   1.381
29036SOL     OW35946   9.366  13.279   2.268
29036SOL    HW135947   9.300  13.252   2.199
29036SOL    HW235948   9.319  13.306   2.351
29037SOL     OW35949  10.506   3.663   6.410
29037SOL    HW135950  10.599   3.656   6.374
29037SOL    HW235951  10.475   3.758   6.400
29038SOL     OW35952   4.537   7.487   0.787
29038SOL    HW135953   4.603   7.546   0.833
29038SOL    HW235954   4.482   7.541   0.724
29039SOL     OW35955   0.114  14.843   7.520
29039SOL    HW135956   0.119  14.746   7.496
29039SOL    HW235957   0.150  14.898   7.444
29040SOL     OW35958  14.192  16.250   8.116
29040SOL    HW135959  14.183  16.201   8.029
29040SOL    HW235960  14.130  16.328   8.117
29041SOL     OW35961   6.037  11.632   7.386
29041SOL    HW135962   6.032  11.643   7.485
29041SOL    HW235963   5.947  11.606   7.350
29042SOL     OW35964   4.598   6.429   7.153
29042SOL    HW135965   4.627   6.348   7.204
29042SOL    HW235966   4.510   6.411   7.109
29043SOL     OW35967   2.171  11.553   0.193
29043SOL    HW135968   2.248  11.608   0.225
29043SOL    HW235969   2.137  11.590   0.107
29044SOL     OW35970  14.232  16.874   0.533
29044SOL    HW135971  14.268  16.862   0.625
29044SOL    HW235972  14.296  16.928   0.479
29045SOL     OW35973   0.621   0.149   6.751
29045SOL    HW135974   0.717   0.129   6.770
29045SOL    HW235975   0.570   0.064   6.741
29046SOL     OW35976   5.092  14.411   2.781
29046SOL    HW135977   5.097  14.511   2.779
29046SOL    HW235978   5.083  14.381   2.876
29047SOL     OW35979   0.590   7.010   7.798
29047SOL    HW135980   0.658   6.948   7.837
29047SOL    HW235981   0.505   6.960   7.782
29048SOL     OW35982  14.855  15.950   0.108
29048SOL    HW135983  14.942  15.907   0.084
29048SOL    HW235984  14.855  15.973   0.205
29049SOL     OW35985   0.282   5.092   8.012
29049SOL    HW135986   0.219   5.058   7.942
29049SOL    HW235987   0.344   5.159   7.971
29050SOL     OW35988   9.686  12.667   1.095
29050SOL    HW135989   9.625  12.605   1.045
29050SOL    HW235990   9.640  12.755   1.109
29051SOL     OW35991   5.293   8.521   0.026
29051SOL    HW135992   5.286   8.487   8.386
29051SOL    HW235993   5.314   8.445   0.087
29052SOL     OW35994  12.863  11.740   0.424
29052SOL    HW135995  12.771  11.729   0.463
29052SOL    HW235996  12.930  11.699   0.486
29053SOL     OW35997  13.663   7.095   7.751
29053SOL    HW135998  13.635   7.181   7.793
29053SOL    HW235999  13.719   7.043   7.815
29054SOL     OW36000   6.408   1.562   7.927
29054SOL    HW136001   6.369   1.500   7.859
29054SOL    HW236002   6.362   1.551   8.015
29055SOL     OW36003  16.847  11.174   1.661
29055SOL    HW136004  16.862  11.120   1.744
29055SOL    HW236005  16.926  11.164   1.600
29056SOL     OW36006   4.135  16.718   2.382
29056SOL    HW136007   4.137  16.740   2.480
29056SOL    HW236008   4.182  16.631   2.367
29057SOL     OW36009   7.638   9.066   8.222
29057SOL    HW136010   7.550   9.022   8.205
29057SOL    HW236011   7.706   8.997   8.249
29058SOL     OW36012   3.677   0.470   7.186
29058SOL    HW136013   3.606   0.400   7.182
29058SOL    HW236014   3.635   0.557   7.212
29059SOL     OW36015  15.755   4.230   0.871
29059SOL    HW136016  15.698   4.187   0.940
29059SOL    HW236017  15.791   4.161   0.808
29060SOL     OW36018   8.629  11.922   1.803
29060SOL    HW136019   8.713  11.914   1.857
29060SOL    HW236020   8.551  11.935   1.865
29061SOL     OW36021  11.383   3.130   6.022
29061SOL    HW136022  11.354   3.202   5.958
29061SOL    HW236023  11.468   3.089   5.989
29062SOL     OW36024   9.153   2.535   8.152
29062SOL    HW136025   9.075   2.586   8.187
29062SOL    HW236026   9.223   2.599   8.120
29063SOL     OW36027  12.829   6.494   6.817
29063SOL    HW136028  12.883   6.513   6.899
29063SOL    HW236029  12.890   6.461   6.745
29064SOL     OW36030   1.903  14.146   0.897
29064SOL    HW136031   1.996  14.182   0.901
29064SOL    HW236032   1.847  14.207   0.840
29065SOL     OW36033   4.352   9.640   0.188
29065SOL    HW136034   4.375   9.727   0.232
29065SOL    HW236035   4.433   9.580   0.188
29066SOL     OW36036  14.379   6.913   0.409
29066SOL    HW136037  14.385   6.815   0.390
29066SOL    HW236038  14.283   6.941   0.411
29067SOL     OW36039   6.988  11.534   7.929
29067SOL    HW136040   7.028  11.514   8.018
29067SOL    HW236041   7.051  11.589   7.874
29068SOL     OW36042   8.623  14.169   7.402
29068SOL    HW136043   8.709  14.193   7.446
29068SOL    HW236044   8.622  14.204   7.308
29069SOL     OW36045   1.021   2.456   1.379
29069SOL    HW136046   1.051   2.420   1.467
29069SOL    HW236047   0.975   2.544   1.392
29070SOL     OW36048   6.081  11.703   7.932
29070SOL    HW136049   6.133  11.620   7.954
29070SOL    HW236050   6.142  11.782   7.933
29071SOL     OW36051  13.267  13.313   0.483
29071SOL    HW136052  13.189  13.302   0.545
29071SOL    HW236053  13.268  13.240   0.415
29072SOL     OW36054   3.945   5.271   6.850
29072SOL    HW136055   3.943   5.228   6.759
29072SOL    HW236056   4.036   5.311   6.866
29073SOL     OW36057   4.440   8.932   2.018
29073SOL    HW136058   4.521   8.982   1.989
29073SOL    HW236059   4.377   8.922   1.940
29074SOL     OW36060  10.433   6.129   0.001
29074SOL    HW136061  10.421   6.176   8.368
29074SOL    HW236062  10.343   6.106   0.039
29075SOL     OW36063   0.317   8.830   0.464
29075SOL    HW136064   0.244   8.762   0.462
29075SOL    HW236065   0.288   8.913   0.416
29076SOL     OW36066   4.577   3.868   0.145
29076SOL    HW136067   4.623   3.924   0.076
29076SOL    HW236068   4.503   3.817   0.102
29077SOL     OW36069   0.626  12.420   0.595
29077SOL    HW136070   0.565  12.435   0.518
29077SOL    HW236071   0.576  12.433   0.681
29078SOL     OW36072   7.669   5.736   0.811
29078SOL    HW136073   7.677   5.637   0.802
29078SOL    HW236074   7.739   5.780   0.754
29079SOL     OW36075   3.082  11.026   7.440
29079SOL    HW136076   3.065  11.009   7.342
29079SOL    HW236077   3.092  10.938   7.487
29080SOL     OW36078  12.374   1.596   6.008
29080SOL    HW136079  12.353   1.661   5.936
29080SOL    HW236080  12.426   1.519   5.970
29081SOL     OW36081   2.421   4.754   8.348
29081SOL    HW136082   2.469   4.676   8.390
29081SOL    HW236083   2.483   4.832   8.344
29082SOL     OW36084   7.944   5.911   1.754
29082SOL    HW136085   7.952   5.942   1.849
29082SOL    HW236086   7.931   5.812   1.752
29083SOL     OW36087   4.439  13.149   0.060
29083SOL    HW136088   4.471  13.113   8.426
29083SOL    HW236089   4.518  13.172   0.116
29084SOL     OW36090  14.045   3.601   6.591
29084SOL    HW136091  14.003   3.510   6.593
29084SOL    HW236092  13.982   3.668   6.631
29085SOL     OW36093   9.890   2.171   1.308
29085SOL    HW136094   9.960   2.138   1.371
29085SOL    HW236095   9.927   2.171   1.215
29086SOL     OW36096   3.628   9.320   7.143
29086SOL    HW136097   3.580   9.407   7.127
29086SOL    HW236098   3.627   9.266   7.059
29087SOL     OW36099  15.423  16.384   0.604
29087SOL    HW136100  15.341  16.441   0.593
29087SOL    HW236101  15.503  16.443   0.619
29088SOL     OW36102   2.806   1.788   1.772
29088SOL    HW136103   2.892   1.747   1.802
29088SOL    HW236104   2.820   1.885   1.751
29089SOL     OW36105   2.225   0.795   7.592
29089SOL    HW136106   2.269   0.884   7.590
29089SOL    HW236107   2.237   0.750   7.503
29090SOL     OW36108   2.808   7.549   1.077
29090SOL    HW136109   2.752   7.602   1.140
29090SOL    HW236110   2.887   7.512   1.126
29091SOL     OW36111   0.499  15.692   8.197
29091SOL    HW136112   0.493  15.697   8.297
29091SOL    HW236113   0.435  15.623   8.163
29092SOL     OW36114   7.701   2.922   2.164
29092SOL    HW136115   7.751   2.838   2.186
29092SOL    HW236116   7.659   2.959   2.247
29093SOL     OW36117   6.186   6.389   7.090
29093SOL    HW136118   6.280   6.365   7.114
29093SOL    HW236119   6.152   6.322   7.024
29094SOL     OW36120   7.551   1.203   7.766
29094SOL    HW136121   7.533   1.126   7.826
29094SOL    HW236122   7.494   1.281   7.794
29095SOL     OW36123  14.448   7.137   1.269
29095SOL    HW136124  14.446   7.038   1.258
29095SOL    HW236125  14.543   7.169   1.267
29096SOL     OW36126  16.678   0.179   6.602
29096SOL    HW136127  16.619   0.217   6.673
29096SOL    HW236128  16.756   0.239   6.587
29097SOL     OW36129   2.762   3.249   7.966
29097SOL    HW136130   2.847   3.299   7.978
29097SOL    HW236131   2.697   3.305   7.916
29098SOL     OW36132  13.676   9.527   0.531
29098SOL    HW136133  13.639   9.441   0.498
29098SOL    HW236134  13.605   9.597   0.531
29099SOL     OW36135  15.600   1.129   7.219
29099SOL    HW136136  15.621   1.060   7.288
29099SOL    HW236137  15.501   1.142   7.213
29100SOL     OW36138   5.706  14.812   0.544
29100SOL    HW136139   5.682  14.720   0.515
29100SOL    HW236140   5.781  14.847   0.487
29101SOL     OW36141   3.148  11.965   7.364
29101SOL    HW136142   3.129  11.893   7.297
29101SOL    HW236143   3.110  11.938   7.452
29102SOL     OW36144   1.313   4.043   6.877
29102SOL    HW136145   1.252   4.108   6.923
29102SOL    HW236146   1.265   4.001   6.800
29103SOL     OW36147  10.459  16.961   7.834
29103SOL    HW136148  10.417  16.891   7.892
29103SOL    HW236149  10.547  16.927   7.800
29104SOL     OW36150  10.831  12.800   7.643
29104SOL    HW136151  10.878  12.887   7.626
29104SOL    HW236152  10.873  12.728   7.588
29105SOL     OW36153   9.985   5.177   0.911
29105SOL    HW136154  10.008   5.117   0.835
29105SOL    HW236155  10.010   5.133   0.998
29106SOL     OW36156   1.505  16.120   7.762
29106SOL    HW136157   1.534  16.214   7.745
29106SOL    HW236158   1.470  16.080   7.678
29107SOL     OW36159   6.011  10.619   6.736
29107SOL    HW136160   6.102  10.583   6.714
29107SOL    HW236161   5.986  10.591   6.828
29108SOL     OW36162  10.298  15.146   0.634
29108SOL    HW136163  10.207  15.110   0.615
29108SOL    HW236164  10.366  15.072   0.627
29109SOL     OW36165  16.102   3.220   6.842
29109SOL    HW136166  16.130   3.226   6.746
29109SOL    HW236167  16.077   3.312   6.874
29110SOL     OW36168   6.621   2.399   7.945
29110SOL    HW136169   6.620   2.300   7.938
29110SOL    HW236170   6.599   2.427   8.038
29111SOL     OW36171   5.113   6.769   2.075
29111SOL    HW136172   5.164   6.840   2.027
29111SOL    HW236173   5.044   6.811   2.135
29112SOL     OW36174   2.150   1.161   6.536
29112SOL    HW136175   2.086   1.109   6.479
29112SOL    HW236176   2.220   1.202   6.478
29113SOL     OW36177   6.623  13.598   1.447
29113SOL    HW136178   6.691  13.662   1.483
29113SOL    HW236179   6.589  13.540   1.521
29114SOL     OW36180   4.363   1.613   0.215
29114SOL    HW136181   4.338   1.518   0.198
29114SOL    HW236182   4.370   1.629   0.313
29115SOL     OW36183  14.560   7.395   1.747
29115SOL    HW136184  14.621   7.319   1.724
29115SOL    HW236185  14.474   7.359   1.784
29116SOL     OW36186   3.199   1.756   0.423
29116SOL    HW136187   3.235   1.818   0.493
29116SOL    HW236188   3.238   1.665   0.437
29117SOL     OW36189   7.001  12.113   7.728
29117SOL    HW136190   6.967  12.202   7.696
29117SOL    HW236191   7.094  12.125   7.765
29118SOL     OW36192   4.258   2.652   7.645
29118SOL    HW136193   4.236   2.743   7.610
29118SOL    HW236194   4.349   2.654   7.688
29119SOL     OW36195  15.243   4.630   0.738
29119SOL    HW136196  15.204   4.611   0.648
29119SOL    HW236197  15.342   4.635   0.730
29120SOL     OW36198  11.032   9.103   8.119
29120SOL    HW136199  11.076   9.099   8.030
29120SOL    HW236200  11.036   9.196   8.154
29121SOL     OW36201  11.819   5.673   7.855
29121SOL    HW136202  11.840   5.623   7.771
29121SOL    HW236203  11.826   5.771   7.837
29122SOL     OW36204   6.903   8.208   6.648
29122SOL    HW136205   6.871   8.198   6.742
29122SOL    HW236206   6.979   8.145   6.631
29123SOL     OW36207  11.134  13.447   0.241
29123SOL    HW136208  11.208  13.393   0.281
29123SOL    HW236209  11.076  13.484   0.315
29124SOL     OW36210   1.543   3.693   7.975
29124SOL    HW136211   1.639   3.670   7.961
29124SOL    HW236212   1.500   3.711   7.886
29125SOL     OW36213   7.567   3.762   1.333
29125SOL    HW136214   7.652   3.735   1.380
29125SOL    HW236215   7.502   3.798   1.400
29126SOL     OW36216   3.742   3.095   0.396
29126SOL    HW136217   3.810   3.022   0.390
29126SOL    HW236218   3.734   3.125   0.491
29127SOL     OW36219   7.692   1.675   1.988
29127SOL    HW136220   7.735   1.608   2.048
29127SOL    HW236221   7.602   1.700   2.025
29128SOL     OW36222   6.810   7.600   1.078
29128SOL    HW136223   6.832   7.682   1.025
29128SOL    HW236224   6.895   7.550   1.098
29129SOL     OW36225   8.844  11.974   6.955
29129SOL    HW136226   8.915  11.991   6.886
29129SOL    HW236227   8.883  11.921   7.030
29130SOL     OW36228  15.588  15.589   0.015
29130SOL    HW136229  15.553  15.567   8.378
29130SOL    HW236230  15.512  15.615   0.075
29131SOL     OW36231  14.649   4.067   6.812
29131SOL    HW136232  14.582   4.029   6.748
29131SOL    HW236233  14.649   4.013   6.896
29132SOL     OW36234  16.345   1.807   7.228
29132SOL    HW136235  16.384   1.717   7.207
29132SOL    HW236236  16.356   1.825   7.326
29133SOL     OW36237  13.546   2.834   0.222
29133SOL    HW136238  13.536   2.744   0.180
29133SOL    HW236239  13.628   2.836   0.279
29134SOL     OW36240  16.203   0.245   6.747
29134SOL    HW136241  16.202   0.181   6.670
29134SOL    HW236242  16.193   0.338   6.712
29135SOL     OW36243  15.556   1.046   6.425
29135SOL    HW136244  15.483   1.114   6.423
29135SOL    HW236245  15.645   1.092   6.420
29136SOL     OW36246  16.128   8.790   0.321
29136SOL    HW136247  16.092   8.700   0.298
29136SOL    HW236248  16.216   8.803   0.274
29137SOL     OW36249   4.508   9.036   0.511
29137SOL    HW136250   4.582   9.030   0.444
29137SOL    HW236251   4.488   9.132   0.530
29138SOL     OW36252   3.466  10.285   0.421
29138SOL    HW136253   3.507  10.267   0.510
29138SOL    HW236254   3.507  10.367   0.381
29139SOL     OW36255  13.392   6.636   0.352
29139SOL    HW136256  13.475   6.631   0.297
29139SOL    HW236257  13.408   6.695   0.431
29140SOL     OW36258  11.386   0.474   7.124
29140SOL    HW136259  11.312   0.516   7.071
29140SOL    HW236260  11.383   0.507   7.218
29141SOL     OW36261   0.702  16.195   2.199
29141SOL    HW136262   0.684  16.233   2.290
29141SOL    HW236263   0.799  16.202   2.178
29142SOL     OW36264   2.475   1.088   8.119
29142SOL    HW136265   2.571   1.100   8.094
29142SOL    HW236266   2.437   1.009   8.071
29143SOL     OW36267   8.417   1.537   0.578
29143SOL    HW136268   8.490   1.594   0.615
29143SOL    HW236269   8.414   1.450   0.629
29144SOL     OW36270   1.733  16.164   1.682
29144SOL    HW136271   1.668  16.092   1.656
29144SOL    HW236272   1.685  16.252   1.687
29145SOL     OW36273   3.444   6.386   1.097
29145SOL    HW136274   3.517   6.404   1.162
29145SOL    HW236275   3.373   6.456   1.105
29146SOL     OW36276   8.273   5.279   7.738
29146SOL    HW136277   8.258   5.334   7.656
29146SOL    HW236278   8.185   5.248   7.774
29147SOL     OW36279  16.092   6.654   0.932
29147SOL    HW136280  15.998   6.621   0.922
29147SOL    HW236281  16.143   6.592   0.992
29148SOL     OW36282   4.868   3.505   0.615
29148SOL    HW136283   4.902   3.446   0.689
29148SOL    HW236284   4.946   3.546   0.567
29149SOL     OW36285   0.204   7.614   7.148
29149SOL    HW136286   0.234   7.555   7.222
29149SOL    HW236287   0.270   7.610   7.073
29150SOL     OW36288  15.940  16.238   6.740
29150SOL    HW136289  15.937  16.295   6.822
29150SOL    HW236290  16.030  16.245   6.697
29151SOL     OW36291   6.245   5.021   0.686
29151SOL    HW136292   6.225   5.084   0.761
29151SOL    HW236293   6.332   4.976   0.702
29152SOL     OW36294   5.965   5.048   7.415
29152SOL    HW136295   6.043   4.989   7.433
29152SOL    HW236296   5.996   5.132   7.371
29153SOL     OW36297   9.065   5.364   0.159
29153SOL    HW136298   9.141   5.374   0.223
29153SOL    HW236299   9.060   5.445   0.101
29154SOL     OW36300   3.319  13.319   6.792
29154SOL    HW136301   3.226  13.308   6.756
29154SOL    HW236302   3.350  13.413   6.775
29155SOL     OW36303   4.946   5.663   7.263
29155SOL    HW136304   4.995   5.606   7.329
29155SOL    HW236305   4.854   5.625   7.249
29156SOL     OW36306   2.746  10.447   7.056
29156SOL    HW136307   2.834  10.429   7.012
29156SOL    HW236308   2.679  10.476   6.987
29157SOL     OW36309   4.373  16.450   0.769
29157SOL    HW136310   4.443  16.467   0.837
29157SOL    HW236311   4.295  16.510   0.785
29158SOL     OW36312   0.044  15.854   7.857
29158SOL    HW136313   0.046  15.951   7.832
29158SOL    HW236314   0.119  15.806   7.812
29159SOL     OW36315   6.030  11.040   1.546
29159SOL    HW136316   6.010  11.010   1.640
29159SOL    HW236317   5.945  11.044   1.494
29160SOL     OW36318   5.759   7.069   2.189
29160SOL    HW136319   5.701   7.130   2.136
29160SOL    HW236320   5.829   7.028   2.129
29161SOL     OW36321   6.387  12.746   1.742
29161SOL    HW136322   6.482  12.773   1.723
29161SOL    HW236323   6.386  12.677   1.815
29162SOL     OW36324   5.842   7.969   0.508
29162SOL    HW136325   5.926   7.935   0.466
29162SOL    HW236326   5.764   7.949   0.449
29163SOL     OW36327  14.822   3.682   0.295
29163SOL    HW136328  14.853   3.705   0.203
29163SOL    HW236329  14.900   3.682   0.358
29164SOL     OW36330  14.218   0.233   0.268
29164SOL    HW136331  14.141   0.238   0.332
29164SOL    HW236332  14.213   0.146   0.218
29165SOL     OW36333  15.255   2.066   0.937
29165SOL    HW136334  15.319   2.106   1.002
29165SOL    HW236335  15.284   1.973   0.913
29166SOL     OW36336   4.799   2.675   6.586
29166SOL    HW136337   4.865   2.748   6.566
29166SOL    HW236338   4.706   2.708   6.569
29167SOL     OW36339   4.403  13.032   6.866
29167SOL    HW136340   4.470  12.969   6.905
29167SOL    HW236341   4.408  13.028   6.766
29168SOL     OW36342  13.565   1.569   0.655
29168SOL    HW136343  13.583   1.539   0.749
29168SOL    HW236344  13.492   1.513   0.616
29169SOL     OW36345   4.749  13.476   8.449
29169SOL    HW136346   4.715  13.561   0.036
29169SOL    HW236347   4.790  13.419   0.066
29170SOL     OW36348   1.847  14.072   8.259
29170SOL    HW136349   1.877  14.043   8.350
29170SOL    HW236350   1.904  14.029   8.190
29171SOL     OW36351  10.208   6.333   1.199
29171SOL    HW136352  10.117   6.331   1.238
29171SOL    HW236353  10.233   6.240   1.169
29172SOL     OW36354  11.904   5.969   8.393
29172SOL    HW136355  11.938   5.928   8.308
29172SOL    HW236356  11.805   5.958   8.399
29173SOL     OW36357  11.114   7.831   0.904
29173SOL    HW136358  11.095   7.911   0.847
29173SOL    HW236359  11.106   7.857   1.001
29174SOL     OW36360   9.826   1.480   7.382
29174SOL    HW136361   9.861   1.392   7.350
29174SOL    HW236362   9.878   1.554   7.340
29175SOL     OW36363   6.063  12.958   0.726
29175SOL    HW136364   6.120  12.997   0.653
29175SOL    HW236365   6.115  12.887   0.773
29176SOL     OW36366   3.876   6.518   7.064
29176SOL    HW136367   3.937   6.455   7.017
29176SOL    HW236368   3.919   6.608   7.069
29177SOL     OW36369   2.911   8.750   7.702
29177SOL    HW136370   2.838   8.687   7.674
29177SOL    HW236371   2.957   8.786   7.620
29178SOL     OW36372  10.439   8.465   1.346
29178SOL    HW136373  10.501   8.524   1.397
29178SOL    HW236374  10.398   8.517   1.271
29179SOL     OW36375   2.129  15.412   0.466
29179SOL    HW136376   2.044  15.449   0.503
29179SOL    HW236377   2.169  15.348   0.531
29180SOL     OW36378  15.626  11.724   1.231
29180SOL    HW136379  15.532  11.691   1.222
29180SOL    HW236380  15.690  11.651   1.207
29181SOL     OW36381  11.467   0.115   7.428
29181SOL    HW136382  11.429   0.083   7.515
29181SOL    HW236383  11.504   0.207   7.440
29182SOL     OW36384  14.057  10.010   1.350
29182SOL    HW136385  14.134   9.957   1.315
29182SOL    HW236386  14.079  10.107   1.347
29183SOL     OW36387   3.828  15.508   0.314
29183SOL    HW136388   3.858  15.544   0.226
29183SOL    HW236389   3.851  15.411   0.321
29184SOL     OW36390  11.330   9.315   0.054
29184SOL    HW136391  11.232   9.307   0.042
29184SOL    HW236392  11.360   9.406   0.025
29185SOL     OW36393   2.257   7.546   7.145
29185SOL    HW136394   2.289   7.452   7.158
29185SOL    HW236395   2.217   7.554   7.054
29186SOL     OW36396   0.364   9.225   2.706
29186SOL    HW136397   0.428   9.175   2.765
29186SOL    HW236398   0.272   9.187   2.716
29187SOL     OW36399  10.331  16.723   7.187
29187SOL    HW136400  10.401  16.756   7.123
29187SOL    HW236401  10.375  16.693   7.272
29188SOL     OW36402   4.772  10.215   1.208
29188SOL    HW136403   4.814  10.280   1.144
29188SOL    HW236404   4.745  10.133   1.159
29189SOL     OW36405  14.088  13.775   7.097
29189SOL    HW136406  14.117  13.762   7.002
29189SOL    HW236407  13.997  13.816   7.098
29190SOL     OW36408   3.026  13.340   8.276
29190SOL    HW136409   3.008  13.335   8.375
29190SOL    HW236410   3.083  13.420   8.257
29191SOL     OW36411  14.731  12.962   7.139
29191SOL    HW136412  14.817  13.008   7.162
29191SOL    HW236413  14.658  13.030   7.133
29192SOL     OW36414  11.896   2.957   8.450
29192SOL    HW136415  11.867   2.862   8.439
29192SOL    HW236416  11.891   2.983   0.092
29193SOL     OW36417  16.256   9.156   0.392
29193SOL    HW136418  16.255   9.209   0.477
29193SOL    HW236419  16.188   9.084   0.396
29194SOL     OW36420   6.531  14.783   1.438
29194SOL    HW136421   6.525  14.745   1.530
29194SOL    HW236422   6.474  14.730   1.376
29195SOL     OW36423   4.653  10.498   8.304
29195SOL    HW136424   4.683  10.404   8.282
29195SOL    HW236425   4.716  10.563   8.261
29196SOL     OW36426   9.886   5.424   7.007
29196SOL    HW136427   9.935   5.376   6.934
29196SOL    HW236428   9.852   5.357   7.073
29197SOL     OW36429  15.284  10.567   1.274
29197SOL    HW136430  15.283  10.552   1.175
29197SOL    HW236431  15.222  10.502   1.318
29198SOL     OW36432  10.036   0.860   7.166
29198SOL    HW136433  10.066   0.943   7.212
29198SOL    HW236434   9.939   0.868   7.142
29199SOL     OW36435   9.475   9.295   7.230
29199SOL    HW136436   9.546   9.322   7.165
29199SOL    HW236437   9.432   9.210   7.199
29200SOL     OW36438  14.967  12.753   7.339
29200SOL    HW136439  14.869  12.767   7.356
29200SOL    HW236440  14.985  12.754   7.241
29201SOL     OW36441   3.965   5.174   6.584
29201SOL    HW136442   3.939   5.151   6.491
29201SOL    HW236443   4.056   5.216   6.584
29202SOL     OW36444   6.891  11.657   6.703
29202SOL    HW136445   6.902  11.667   6.604
29202SOL    HW236446   6.865  11.563   6.724
29203SOL     OW36447   9.342   8.052   1.536
29203SOL    HW136448   9.421   8.083   1.482
29203SOL    HW236449   9.368   7.970   1.588
29204SOL     OW36450   8.970   0.803   1.249
29204SOL    HW136451   8.920   0.741   1.310
29204SOL    HW236452   8.986   0.890   1.296
29205SOL     OW36453   9.114  16.074   0.526
29205SOL    HW136454   9.173  16.001   0.493
29205SOL    HW236455   9.023  16.065   0.484
29206SOL     OW36456   1.155  15.207   6.666
29206SOL    HW136457   1.180  15.243   6.576
29206SOL    HW236458   1.235  15.165   6.709
29207SOL     OW36459   9.471  14.475   0.177
29207SOL    HW136460   9.565  14.507   0.168
29207SOL    HW236461   9.438  14.492   0.269
29208SOL     OW36462  14.140   0.303   8.452
29208SOL    HW136463  14.079   0.227   8.432
29208SOL    HW236464  14.168   0.298   0.094
29209SOL     OW36465  10.072  13.774   0.099
29209SOL    HW136466  10.110  13.700   0.154
29209SOL    HW236467  10.035  13.737   0.014
29210SOL     OW36468   8.727  13.473   7.412
29210SOL    HW136469   8.781  13.493   7.494
29210SOL    HW236470   8.640  13.431   7.439
29211SOL     OW36471  10.818  12.654   8.300
29211SOL    HW136472  10.759  12.687   8.226
29211SOL    HW236473  10.837  12.729   8.363
29212SOL     OW36474   4.346  11.108   7.937
29212SOL    HW136475   4.277  11.057   7.990
29212SOL    HW236476   4.407  11.156   8.000
29213SOL     OW36477   8.425   3.505   8.271
29213SOL    HW136478   8.348   3.568   8.275
29213SOL    HW236479   8.410   3.439   8.197
29214SOL     OW36480  14.280   5.859   7.517
29214SOL    HW136481  14.236   5.947   7.499
29214SOL    HW236482  14.378   5.867   7.501
29215SOL     OW36483   0.158   8.512   0.879
29215SOL    HW136484   0.095   8.545   0.809
29215SOL    HW236485   0.107   8.457   0.946
29216SOL     OW36486  11.355   7.629   1.421
29216SOL    HW136487  11.266   7.624   1.466
29216SOL    HW236488  11.396   7.719   1.438
29217SOL     OW36489   5.187   8.619   2.183
29217SOL    HW136490   5.202   8.717   2.175
29217SOL    HW236491   5.193   8.591   2.279
29218SOL     OW36492  13.441   1.977   5.530
29218SOL    HW136493  13.451   1.890   5.482
29218SOL    HW236494  13.516   1.987   5.596
29219SOL     OW36495  13.220   1.245   7.151
29219SOL    HW136496  13.292   1.277   7.089
29219SOL    HW236497  13.131   1.256   7.108
29220SOL     OW36498  16.339   6.371   7.312
29220SOL    HW136499  16.348   6.463   7.349
29220SOL    HW236500  16.299   6.311   7.382
29221SOL     OW36501   0.974  10.764   8.444
29221SOL    HW136502   1.066  10.802   8.450
29221SOL    HW236503   0.907  10.833   0.015
29222SOL     OW36504   2.107   4.196   7.669
29222SOL    HW136505   2.178   4.260   7.641
29222SOL    HW236506   2.063   4.229   7.753
29223SOL     OW36507  13.216   3.646   7.161
29223SOL    HW136508  13.155   3.635   7.082
29223SOL    HW236509  13.305   3.678   7.130
29224SOL     OW36510  16.976  15.512   0.713
29224SOL    HW136511  16.946  15.426   0.671
29224SOL    HW236512   0.087  15.531   0.687
29225SOL     OW36513   8.126  12.303   0.867
29225SOL    HW136514   8.108  12.396   0.837
29225SOL    HW236515   8.050  12.272   0.925
29226SOL     OW36516  10.046   0.718   1.202
29226SOL    HW136517  10.135   0.702   1.244
29226SOL    HW236518  10.010   0.806   1.234
29227SOL     OW36519  10.256   3.255   1.589
29227SOL    HW136520  10.241   3.328   1.656
29227SOL    HW236521  10.237   3.289   1.497
29228SOL     OW36522   1.811   4.871   6.971
29228SOL    HW136523   1.798   4.969   6.986
29228SOL    HW236524   1.731   4.821   7.004
29229SOL     OW36525  16.010  16.490   0.062
29229SOL    HW136526  15.994  16.421   8.446
29229SOL    HW236527  16.089  16.463   0.117
29230SOL     OW36528   7.777   3.701   1.514
29230SOL    HW136529   7.725   3.754   1.581
29230SOL    HW236530   7.863   3.672   1.554
29231SOL     OW36531  11.451   1.804   1.442
29231SOL    HW136532  11.454   1.899   1.412
29231SOL    HW236533  11.473   1.798   1.539
29232SOL     OW36534   7.108  15.667   1.956
29232SOL    HW136535   7.137  15.733   2.025
29232SOL    HW236536   7.009  15.654   1.962
29233SOL     OW36537  12.816   9.260   0.449
29233SOL    HW136538  12.732   9.312   0.434
29233SOL    HW236539  12.872   9.305   0.518
29234SOL     OW36540   1.912   6.271   8.279
29234SOL    HW136541   1.924   6.355   8.226
29234SOL    HW236542   1.844   6.286   8.350
29235SOL     OW36543   1.806   9.896   6.415
29235SOL    HW136544   1.832   9.972   6.356
29235SOL    HW236545   1.706   9.889   6.420
29236SOL     OW36546   2.063  11.652   8.417
29236SOL    HW136547   2.071  11.567   8.364
29236SOL    HW236548   2.003  11.715   8.368
29237SOL     OW36549   3.818   2.530   7.089
29237SOL    HW136550   3.876   2.463   7.043
29237SOL    HW236551   3.727   2.529   7.047
29238SOL     OW36552  16.159  12.199   6.748
29238SOL    HW136553  16.207  12.263   6.689
29238SOL    HW236554  16.166  12.229   6.843
29239SOL     OW36555   5.610   2.611   7.186
29239SOL    HW136556   5.615   2.684   7.117
29239SOL    HW236557   5.700   2.569   7.196
29240SOL     OW36558   9.488  16.268   1.612
29240SOL    HW136559   9.502  16.216   1.696
29240SOL    HW236560   9.556  16.341   1.607
29241SOL     OW36561   3.565   6.339   7.577
29241SOL    HW136562   3.556   6.347   7.676
29241SOL    HW236563   3.525   6.252   7.548
29242SOL     OW36564  10.445  13.924   0.171
29242SOL    HW136565  10.374  13.936   0.101
29242SOL    HW236566  10.426  13.983   0.249
29243SOL     OW36567  13.545   4.547   0.593
29243SOL    HW136568  13.529   4.498   0.507
29243SOL    HW236569  13.505   4.639   0.586
29244SOL     OW36570  13.827   5.803   1.728
29244SOL    HW136571  13.914   5.764   1.761
29244SOL    HW236572  13.802   5.881   1.785
29245SOL     OW36573   2.945   5.308   0.574
29245SOL    HW136574   2.884   5.363   0.632
29245SOL    HW236575   3.028   5.285   0.625
29246SOL     OW36576  10.074  14.821   0.203
29246SOL    HW136577  10.156  14.817   0.259
29246SOL    HW236578  10.049  14.728   0.174
29247SOL     OW36579   0.168   0.068   0.026
29247SOL    HW136580   0.122   0.005   8.418
29247SOL    HW236581   0.121   0.157   0.023
29248SOL     OW36582  10.006   1.001   1.408
29248SOL    HW136583  10.063   0.937   1.459
29248SOL    HW236584   9.945   1.049   1.471
29249SOL     OW36585  14.127  11.913   7.982
29249SOL    HW136586  14.193  11.846   7.948
29249SOL    HW236587  14.114  11.900   8.080
29250SOL     OW36588  10.333   4.847   0.290
29250SOL    HW136589  10.304   4.783   0.220
29250SOL    HW236590  10.405   4.806   0.346
29251SOL     OW36591  16.614  13.447   2.396
29251SOL    HW136592  16.657  13.418   2.482
29251SOL    HW236593  16.521  13.479   2.416
29252SOL     OW36594   6.055  12.476   0.777
29252SOL    HW136595   5.969  12.511   0.741
29252SOL    HW236596   6.120  12.461   0.703
29253SOL     OW36597  10.493   8.692   0.944
29253SOL    HW136598  10.587   8.689   0.976
29253SOL    HW236599  10.486   8.752   0.864
29254SOL     OW36600  15.633  14.939   1.582
29254SOL    HW136601  15.650  14.855   1.633
29254SOL    HW236602  15.703  15.007   1.604
29255SOL     OW36603  13.720  16.434   0.305
29255SOL    HW136604  13.675  16.436   0.395
29255SOL    HW236605  13.676  16.366   0.247
29256SOL     OW36606   8.406  13.923   1.953
29256SOL    HW136607   8.403  13.898   2.049
29256SOL    HW236608   8.325  13.888   1.906
29257SOL     OW36609   8.439  13.410   0.577
29257SOL    HW136610   8.455  13.441   0.484
29257SOL    HW236611   8.452  13.311   0.582
29258SOL     OW36612  16.512   5.496   5.875
29258SOL    HW136613  16.591   5.487   5.815
29258SOL    HW236614  16.438   5.438   5.842
29259SOL     OW36615  16.686   9.787   0.562
29259SOL    HW136616  16.734   9.705   0.532
29259SOL    HW236617  16.730   9.868   0.522
29260SOL     OW36618  14.233   4.401   0.026
29260SOL    HW136619  14.209   4.474   8.416
29260SOL    HW236620  14.159   4.388   0.092
29261SOL     OW36621   0.873   0.777   0.157
29261SOL    HW136622   0.881   0.873   0.183
29261SOL    HW236623   0.874   0.720   0.240
29262SOL     OW36624   7.648   4.210   2.088
29262SOL    HW136625   7.573   4.227   2.153
29262SOL    HW236626   7.667   4.112   2.085
29263SOL     OW36627  13.734   6.137   6.242
29263SOL    HW136628  13.769   6.163   6.152
29263SOL    HW236629  13.749   6.040   6.257
29264SOL     OW36630  15.234  15.257   8.157
29264SOL    HW136631  15.140  15.274   8.187
29264SOL    HW236632  15.263  15.328   8.094
29265SOL     OW36633   4.919  15.873   8.360
29265SOL    HW136634   4.896  15.850   0.000
29265SOL    HW236635   4.988  15.809   8.326
29266SOL     OW36636   9.253   0.414   7.116
29266SOL    HW136637   9.256   0.404   7.216
29266SOL    HW236638   9.184   0.353   7.079
29267SOL     OW36639  10.053   8.627   1.438
29267SOL    HW136640  10.095   8.686   1.507
29267SOL    HW236641  10.097   8.537   1.441
29268SOL     OW36642   7.515  14.910   0.405
29268SOL    HW136643   7.609  14.879   0.391
29268SOL    HW236644   7.515  15.006   0.433
29269SOL     OW36645  16.247  10.779   0.386
29269SOL    HW136646  16.322  10.777   0.452
29269SOL    HW236647  16.280  10.748   0.297
29270SOL     OW36648   0.750  14.032   8.361
29270SOL    HW136649   0.823  14.055   8.426
29270SOL    HW236650   0.662  14.032   8.409
29271SOL     OW36651  16.710  14.906   0.560
29271SOL    HW136652  16.663  14.848   0.493
29271SOL    HW236653  16.688  14.874   0.653
29272SOL     OW36654  15.880  10.116   2.621
29272SOL    HW136655  15.876  10.016   2.611
29272SOL    HW236656  15.950  10.140   2.688
29273SOL     OW36657   2.959   8.329   1.553
29273SOL    HW136658   3.012   8.261   1.603
29273SOL    HW236659   2.961   8.416   1.602
29274SOL     OW36660   8.426   4.674   1.115
29274SOL    HW136661   8.354   4.605   1.102
29274SOL    HW236662   8.423   4.740   1.040
29275SOL     OW36663  16.710  13.769   7.668
29275SOL    HW136664  16.697  13.687   7.611
29275SOL    HW236665  16.771  13.747   7.744
29276SOL     OW36666   8.310   5.319   2.213
29276SOL    HW136667   8.220   5.283   2.236
29276SOL    HW236668   8.365   5.327   2.296
29277SOL     OW36669   5.232   5.572   1.340
29277SOL    HW136670   5.249   5.609   1.431
29277SOL    HW236671   5.303   5.505   1.317
29278SOL     OW36672  12.594   6.225   0.407
29278SOL    HW136673  12.575   6.140   0.357
29278SOL    HW236674  12.548   6.222   0.496
29279SOL     OW36675   5.598   8.719   6.956
29279SOL    HW136676   5.526   8.651   6.971
29279SOL    HW236677   5.557   8.811   6.954
29280SOL     OW36678   9.237   5.724   1.977
29280SOL    HW136679   9.204   5.769   1.893
29280SOL    HW236680   9.187   5.760   2.056
29281SOL     OW36681   3.617   6.032   2.392
29281SOL    HW136682   3.607   5.994   2.484
29281SOL    HW236683   3.657   5.963   2.332
29282SOL     OW36684   3.875   0.076   0.618
29282SOL    HW136685   3.838   0.168   0.628
29282SOL    HW236686   3.974   0.079   0.630
29283SOL     OW36687   2.484   6.393   0.671
29283SOL    HW136688   2.574   6.414   0.633
29283SOL    HW236689   2.462   6.461   0.742
29284SOL     OW36690   7.188  11.038   8.204
29284SOL    HW136691   7.150  10.979   8.276
29284SOL    HW236692   7.128  11.118   8.192
29285SOL     OW36693   1.604   5.416   1.375
29285SOL    HW136694   1.507   5.408   1.394
29285SOL    HW236695   1.656   5.361   1.441
29286SOL     OW36696   4.809   9.177   0.272
29286SOL    HW136697   4.755   9.242   0.218
29286SOL    HW236698   4.875   9.227   0.327
29287SOL     OW36699   2.490  10.650   0.887
29287SOL    HW136700   2.406  10.640   0.940
29287SOL    HW236701   2.480  10.602   0.799
29288SOL     OW36702   0.776  13.867   2.503
29288SOL    HW136703   0.712  13.898   2.433
29288SOL    HW236704   0.738  13.887   2.594
29289SOL     OW36705   9.562  16.626   0.157
29289SOL    HW136706   9.575  16.665   0.066
29289SOL    HW236707   9.469  16.646   0.189
29290SOL     OW36708   6.752  10.267   8.226
29290SOL    HW136709   6.655  10.289   8.214
29290SOL    HW236710   6.763  10.168   8.231
29291SOL     OW36711  11.026  16.601   0.680
29291SOL    HW136712  10.983  16.532   0.622
29291SOL    HW236713  11.076  16.666   0.623
29292SOL     OW36714  15.968  13.577   6.449
29292SOL    HW136715  15.912  13.579   6.532
29292SOL    HW236716  15.954  13.662   6.398
29293SOL     OW36717   4.035   4.480   7.876
29293SOL    HW136718   4.081   4.418   7.940
29293SOL    HW236719   4.103   4.531   7.824
29294SOL     OW36720  12.450  12.704   7.788
29294SOL    HW136721  12.354  12.683   7.806
29294SOL    HW236722  12.507  12.626   7.816
29295SOL     OW36723   5.369   8.002   0.373
29295SOL    HW136724   5.333   7.914   0.404
29295SOL    HW236725   5.469   7.997   0.371
29296SOL     OW36726  13.764  14.856   0.788
29296SOL    HW136727  13.668  14.831   0.772
29296SOL    HW236728  13.796  14.815   0.873
29297SOL     OW36729  11.300   8.648   0.217
29297SOL    HW136730  11.286   8.707   0.297
29297SOL    HW236731  11.363   8.693   0.154
29298SOL     OW36732   5.025   6.379   6.689
29298SOL    HW136733   5.062   6.330   6.610
29298SOL    HW236734   5.003   6.314   6.762
29299SOL     OW36735  13.302  11.576   7.303
29299SOL    HW136736  13.279  11.478   7.299
29299SOL    HW236737  13.309  11.611   7.209
29300SOL     OW36738   0.876  16.486   6.943
29300SOL    HW136739   0.830  16.569   6.912
29300SOL    HW236740   0.861  16.474   7.041
29301SOL     OW36741  12.065   4.170   8.139
29301SOL    HW136742  12.103   4.167   8.232
29301SOL    HW236743  12.136   4.196   8.074
29302SOL     OW36744  11.509  11.535   0.805
29302SOL    HW136745  11.513  11.458   0.742
29302SOL    HW236746  11.589  11.534   0.865
29303SOL     OW36747   3.584  16.420   0.949
29303SOL    HW136748   3.492  16.380   0.957
29303SOL    HW236749   3.629  16.417   1.038
29304SOL     OW36750   2.987   4.926   6.275
29304SOL    HW136751   2.890   4.949   6.271
29304SOL    HW236752   2.998   4.827   6.268
29305SOL     OW36753   6.637  13.832   0.355
29305SOL    HW136754   6.566  13.778   0.400
29305SOL    HW236755   6.727  13.795   0.379
29306SOL     OW36756   3.417   5.428   7.798
29306SOL    HW136757   3.437   5.415   7.895
29306SOL    HW236758   3.483   5.376   7.743
29307SOL     OW36759  15.766   4.372   6.605
29307SOL    HW136760  15.809   4.321   6.531
29307SOL    HW236761  15.669   4.387   6.584
29308SOL     OW36762  14.503   3.147   1.043
29308SOL    HW136763  14.463   3.238   1.049
29308SOL    HW236764  14.510   3.120   0.947
29309SOL     OW36765  12.642  10.268   7.800
29309SOL    HW136766  12.553  10.297   7.834
29309SOL    HW236767  12.631  10.221   7.712
29310SOL     OW36768   3.324   1.785   8.164
29310SOL    HW136769   3.395   1.783   8.234
29310SOL    HW236770   3.260   1.859   8.184
29311SOL     OW36771   4.234   9.680   2.516
29311SOL    HW136772   4.272   9.683   2.609
29311SOL    HW236773   4.232   9.772   2.478
29312SOL     OW36774   6.388   8.054   6.989
29312SOL    HW136775   6.394   7.977   7.053
29312SOL    HW236776   6.396   8.020   6.896
29313SOL     OW36777   5.566   1.508   8.410
29313SOL    HW136778   5.509   1.586   8.385
29313SOL    HW236779   5.531   1.466   0.039
29314SOL     OW36780   2.040  12.192   1.561
29314SOL    HW136781   2.121  12.249   1.547
29314SOL    HW236782   1.975  12.240   1.620
29315SOL     OW36783   6.883   4.383   7.765
29315SOL    HW136784   6.905   4.318   7.838
29315SOL    HW236785   6.795   4.427   7.785
29316SOL     OW36786   4.598  10.587   1.742
29316SOL    HW136787   4.668  10.625   1.802
29316SOL    HW236788   4.595  10.640   1.657
29317SOL     OW36789  16.252  12.802   8.078
29317SOL    HW136790  16.318  12.875   8.095
29317SOL    HW236791  16.209  12.775   8.164
29318SOL     OW36792   0.482   3.990   0.546
29318SOL    HW136793   0.446   4.043   0.623
29318SOL    HW236794   0.460   4.037   0.461
29319SOL     OW36795   5.793  11.395   2.353
29319SOL    HW136796   5.769  11.491   2.344
29319SOL    HW236797   5.722  11.348   2.406
29320SOL     OW36798   1.989   4.879   8.250
29320SOL    HW136799   1.974   4.790   8.294
29320SOL    HW236800   2.079   4.879   8.205
29321SOL     OW36801  12.895   9.775   6.054
29321SOL    HW136802  12.950   9.758   6.136
29321SOL    HW236803  12.954   9.768   5.973
29322SOL     OW36804   7.981   7.284   1.541
29322SOL    HW136805   7.973   7.213   1.611
29322SOL    HW236806   8.072   7.325   1.546
29323SOL     OW36807   9.106  12.894   0.006
29323SOL    HW136808   9.109  12.974   0.066
29323SOL    HW236809   9.195  12.883   8.415
29324SOL     OW36810   5.200   7.183   0.069
29324SOL    HW136811   5.145   7.266   0.061
29324SOL    HW236812   5.297   7.207   0.071
29325SOL     OW36813   3.977   0.987   6.411
29325SOL    HW136814   3.895   1.023   6.367
29325SOL    HW236815   3.996   1.039   6.495
29326SOL     OW36816   7.942   3.359   7.214
29326SOL    HW136817   7.887   3.353   7.131
29326SOL    HW236818   7.968   3.267   7.244
29327SOL     OW36819  12.881  13.243   0.307
29327SOL    HW136820  12.959  13.299   0.281
29327SOL    HW236821  12.911  13.174   0.373
29328SOL     OW36822   9.048  13.566   8.191
29328SOL    HW136823   9.103  13.555   8.273
29328SOL    HW236824   9.105  13.600   8.116
29329SOL     OW36825   3.718   2.139   7.896
29329SOL    HW136826   3.723   2.202   7.974
29329SOL    HW236827   3.683   2.187   7.816
29330SOL     OW36828  13.156  15.656   1.558
29330SOL    HW136829  13.107  15.720   1.497
29330SOL    HW236830  13.204  15.708   1.628
29331SOL     OW36831   7.983   9.587   8.072
29331SOL    HW136832   7.990   9.563   8.169
29331SOL    HW236833   8.019   9.680   8.059
29332SOL     OW36834  14.895  16.196   8.446
29332SOL    HW136835  14.897  16.100   0.019
29332SOL    HW236836  14.824  16.244   0.044
29333SOL     OW36837   3.544   4.320   7.106
29333SOL    HW136838   3.624   4.301   7.049
29333SOL    HW236839   3.485   4.239   7.109
29334SOL     OW36840  11.866  13.075   0.472
29334SOL    HW136841  11.835  13.062   0.566
29334SOL    HW236842  11.811  13.019   0.411
29335SOL     OW36843   7.359  13.980   2.254
29335SOL    HW136844   7.299  14.057   2.230
29335SOL    HW236845   7.306  13.912   2.305
29336SOL     OW36846   8.712  16.368   7.576
29336SOL    HW136847   8.612  16.359   7.575
29336SOL    HW236848   8.753  16.277   7.586
29337SOL     OW36849   3.130  12.188   1.783
29337SOL    HW136850   3.054  12.185   1.848
29337SOL    HW236851   3.148  12.283   1.758
29338SOL     OW36852   3.567  14.399   8.154
29338SOL    HW136853   3.558  14.360   8.063
29338SOL    HW236854   3.578  14.325   8.221
29339SOL     OW36855  15.275   5.517   0.639
29339SOL    HW136856  15.338   5.521   0.716
29339SOL    HW236857  15.181   5.514   0.672
29340SOL     OW36858   1.752  12.670   7.792
29340SOL    HW136859   1.825  12.737   7.780
29340SOL    HW236860   1.765  12.594   7.728
29341SOL     OW36861   8.041   9.197   6.762
29341SOL    HW136862   7.946   9.220   6.785
29341SOL    HW236863   8.091   9.175   6.846
29342SOL     OW36864   2.510  15.409   6.762
29342SOL    HW136865   2.428  15.462   6.743
29342SOL    HW236866   2.537  15.358   6.681
29343SOL     OW36867   9.743  12.189   7.354
29343SOL    HW136868   9.671  12.121   7.368
29343SOL    HW236869   9.751  12.246   7.435
29344SOL     OW36870   0.814   6.692   6.621
29344SOL    HW136871   0.737   6.681   6.684
29344SOL    HW236872   0.846   6.787   6.624
29345SOL     OW36873  13.949  16.540   0.662
29345SOL    HW136874  13.868  16.586   0.699
29345SOL    HW236875  13.971  16.461   0.719
29346SOL     OW36876  13.991   4.423   6.931
29346SOL    HW136877  13.916   4.464   6.984
29346SOL    HW236878  14.071   4.482   6.935
29347SOL     OW36879   3.803   0.043   7.492
29347SOL    HW136880   3.867  16.950   7.491
29347SOL    HW236881   3.742   0.037   7.413
29348SOL     OW36882   4.819   2.794   0.642
29348SOL    HW136883   4.810   2.709   0.590
29348SOL    HW236884   4.882   2.855   0.596
29349SOL     OW36885  13.202   8.211   6.365
29349SOL    HW136886  13.129   8.164   6.315
29349SOL    HW236887  13.258   8.263   6.300
29350SOL     OW36888   1.280   3.834   6.432
29350SOL    HW136889   1.341   3.863   6.358
29350SOL    HW236890   1.213   3.770   6.397
29351SOL     OW36891   1.268  16.651   7.392
29351SOL    HW136892   1.229  16.743   7.393
29351SOL    HW236893   1.210  16.591   7.336
29352SOL     OW36894   1.491   4.326   0.994
29352SOL    HW136895   1.470   4.248   0.935
29352SOL    HW236896   1.497   4.296   1.089
29353SOL     OW36897   8.080   1.349   0.760
29353SOL    HW136898   8.005   1.376   0.820
29353SOL    HW236899   8.167   1.379   0.800
29354SOL     OW36900   5.271  15.766   8.081
29354SOL    HW136901   5.362  15.730   8.097
29354SOL    HW236902   5.210  15.738   8.155
29355SOL     OW36903  11.035  11.001   6.941
29355SOL    HW136904  11.049  11.084   6.886
29355SOL    HW236905  10.937  10.991   6.961
29356SOL     OW36906   0.571   6.266   0.181
29356SOL    HW136907   0.619   6.287   0.266
29356SOL    HW236908   0.618   6.311   0.105
29357SOL     OW36909   1.470   0.372   6.408
29357SOL    HW136910   1.538   0.444   6.423
29357SOL    HW236911   1.512   0.295   6.360
29358SOL     OW36912  15.440   1.056   6.814
29358SOL    HW136913  15.513   1.124   6.821
29358SOL    HW236914  15.459   0.994   6.739
29359SOL     OW36915   8.272  12.320   8.021
29359SOL    HW136916   8.237  12.257   8.090
29359SOL    HW236917   8.360  12.358   8.052
29360SOL     OW36918  15.084  15.650   0.385
29360SOL    HW136919  15.034  15.736   0.381
29360SOL    HW236920  15.182  15.668   0.389
29361SOL     OW36921  10.530   4.977   7.650
29361SOL    HW136922  10.457   4.910   7.665
29361SOL    HW236923  10.586   4.985   7.733
29362SOL     OW36924   9.498  11.354   6.905
29362SOL    HW136925   9.449  11.431   6.947
29362SOL    HW236926   9.582  11.387   6.862
29363SOL     OW36927  16.762  10.274   8.067
29363SOL    HW136928  16.855  10.255   8.036
29363SOL    HW236929  16.707  10.307   7.991
29364SOL     OW36930   3.626  13.422   6.564
29364SOL    HW136931   3.595  13.512   6.597
29364SOL    HW236932   3.665  13.431   6.473
29365SOL     OW36933   2.452  12.159   1.419
29365SOL    HW136934   2.519  12.230   1.441
29365SOL    HW236935   2.496  12.086   1.367
29366SOL     OW36936   7.930  15.693   6.538
29366SOL    HW136937   8.008  15.632   6.552
29366SOL    HW236938   7.944  15.746   6.454
29367SOL     OW36939  12.613  15.453   7.795
29367SOL    HW136940  12.654  15.394   7.865
29367SOL    HW236941  12.613  15.406   7.707
29368SOL     OW36942   2.533  14.443   8.215
29368SOL    HW136943   2.548  14.467   8.119
29368SOL    HW236944   2.612  14.393   8.249
29369SOL     OW36945   4.018   5.593   8.181
29369SOL    HW136946   4.003   5.683   8.223
29369SOL    HW236947   3.979   5.593   8.089
29370SOL     OW36948   6.899  11.215   7.947
29370SOL    HW136949   6.968  11.251   7.883
29370SOL    HW236950   6.936  11.217   8.040
29371SOL     OW36951   9.313   7.738   7.437
29371SOL    HW136952   9.344   7.698   7.523
29371SOL    HW236953   9.248   7.676   7.392
29372SOL     OW36954  16.333  12.572   1.231
29372SOL    HW136955  16.332  12.652   1.291
29372SOL    HW236956  16.332  12.489   1.286
29373SOL     OW36957   2.943  13.625   1.739
29373SOL    HW136958   2.927  13.529   1.715
29373SOL    HW236959   2.876  13.682   1.691
29374SOL     OW36960   5.429  16.360   1.522
29374SOL    HW136961   5.506  16.379   1.461
29374SOL    HW236962   5.460  16.361   1.617
29375SOL     OW36963  10.333   8.646   7.810
29375SOL    HW136964  10.286   8.700   7.740
29375SOL    HW236965  10.375   8.566   7.769
29376SOL     OW36966   2.539  15.078   1.593
29376SOL    HW136967   2.458  15.019   1.599
29376SOL    HW236968   2.565  15.108   1.685
29377SOL     OW36969   1.674  13.666   0.010
29377SOL    HW136970   1.736  13.590   0.030
29377SOL    HW236971   1.648  13.663   8.367
29378SOL     OW36972   8.221  14.220   7.433
29378SOL    HW136973   8.133  14.268   7.445
29378SOL    HW236974   8.276  14.269   7.366
29379SOL     OW36975  14.181  10.262   2.050
29379SOL    HW136976  14.122  10.236   1.974
29379SOL    HW236977  14.190  10.361   2.054
29380SOL     OW36978  11.028  13.196   1.515
29380SOL    HW136979  11.034  13.114   1.573
29380SOL    HW236980  10.981  13.174   1.430
29381SOL     OW36981   0.483  14.546   0.093
29381SOL    HW136982   0.497  14.548   0.192
29381SOL    HW236983   0.390  14.514   0.074
29382SOL     OW36984   9.723   0.755   1.286
29382SOL    HW136985   9.713   0.757   1.386
29382SOL    HW236986   9.758   0.665   1.259
29383SOL     OW36987  15.735   6.401   8.130
29383SOL    HW136988  15.642   6.432   8.153
29383SOL    HW236989  15.753   6.422   8.033
29384SOL     OW36990  10.957   9.392   7.307
29384SOL    HW136991  11.048   9.430   7.298
29384SOL    HW236992  10.895   9.438   7.244
29385SOL     OW36993   8.462  11.289   1.860
29385SOL    HW136994   8.448  11.356   1.933
29385SOL    HW236995   8.516  11.213   1.895
29386SOL     OW36996  10.842  11.278   7.711
29386SOL    HW136997  10.921  11.226   7.677
29386SOL    HW236998  10.793  11.222   7.778
29387SOL     OW36999   6.158  13.768   0.337
29387SOL    HW137000   6.118  13.854   0.371
29387SOL    HW237001   6.085  13.701   0.324
29388SOL     OW37002  14.308  14.876   0.432
29388SOL    HW137003  14.364  14.883   0.515
29388SOL    HW237004  14.333  14.793   0.383
29389SOL     OW37005   2.029   6.073   8.131
29389SOL    HW137006   1.990   6.087   8.040
29389SOL    HW237007   1.992   6.142   8.194
29390SOL     OW37008   3.677   6.719   7.426
29390SOL    HW137009   3.584   6.707   7.459
29390SOL    HW237010   3.715   6.630   7.399
29391SOL     OW37011   0.274   6.252   6.550
29391SOL    HW137012   0.293   6.241   6.452
29391SOL    HW237013   0.246   6.347   6.567
29392SOL     OW37014   9.976   7.514   0.918
29392SOL    HW137015   9.972   7.501   0.819
29392SOL    HW237016  10.020   7.602   0.938
29393SOL     OW37017   5.375  12.879   0.457
29393SOL    HW137018   5.319  12.962   0.449
29393SOL    HW237019   5.371  12.845   0.551
29394SOL     OW37020  10.818   6.472   0.111
29394SOL    HW137021  10.777   6.549   0.160
29394SOL    HW237022  10.917   6.473   0.125
29395SOL     OW37023  12.208   0.692   8.451
29395SOL    HW137024  12.297   0.695   8.404
29395SOL    HW237025  12.140   0.650   8.392
29396SOL     OW37026  16.570   9.611   0.741
29396SOL    HW137027  16.603   9.674   0.671
29396SOL    HW237028  16.648   9.574   0.792
29397SOL     OW37029   5.028  10.136   8.005
29397SOL    HW137030   5.093  10.118   8.079
29397SOL    HW237031   5.078  10.153   7.920
29398SOL     OW37032  16.809   0.127   1.217
29398SOL    HW137033  16.782   0.223   1.221
29398SOL    HW237034  16.894   0.118   1.163
29399SOL     OW37035  16.013   1.698   7.418
29399SOL    HW137036  16.017   1.734   7.324
29399SOL    HW237037  16.024   1.599   7.415
29400SOL     OW37038  13.799  12.019   0.537
29400SOL    HW137039  13.774  12.053   0.447
29400SOL    HW237040  13.725  11.963   0.574
29401SOL     OW37041   7.783   0.132   7.129
29401SOL    HW137042   7.730   0.159   7.210
29401SOL    HW237043   7.732   0.155   7.046
29402SOL     OW37044   3.441   0.328   7.421
29402SOL    HW137045   3.449   0.323   7.321
29402SOL    HW237046   3.485   0.249   7.462
29403SOL     OW37047   6.511   6.801   1.073
29403SOL    HW137048   6.516   6.830   1.169
29403SOL    HW237049   6.456   6.718   1.066
29404SOL     OW37050   2.999  10.675   8.357
29404SOL    HW137051   3.038  10.764   8.381
29404SOL    HW237052   2.900  10.678   8.370
29405SOL     OW37053  12.958   5.538   0.249
29405SOL    HW137054  12.885   5.580   0.303
29405SOL    HW237055  12.977   5.447   0.285
29406SOL     OW37056   9.682  15.795   0.996
29406SOL    HW137057   9.749  15.810   1.069
29406SOL    HW237058   9.610  15.864   1.003
29407SOL     OW37059  10.384  10.099   1.720
29407SOL    HW137060  10.349  10.187   1.687
29407SOL    HW237061  10.364  10.089   1.817
29408SOL     OW37062   4.197   4.313   8.038
29408SOL    HW137063   4.296   4.318   8.029
29408SOL    HW237064   4.164   4.225   8.002
29409SOL     OW37065  13.507   1.375   0.176
29409SOL    HW137066  13.516   1.320   0.093
29409SOL    HW237067  13.529   1.470   0.155
29410SOL     OW37068  10.130   2.043   5.976
29410SOL    HW137069  10.170   2.030   5.886
29410SOL    HW237070  10.145   2.137   6.006
29411SOL     OW37071  15.711   8.802   6.846
29411SOL    HW137072  15.649   8.762   6.779
29411SOL    HW237073  15.802   8.814   6.804
29412SOL     OW37074   7.425  13.122   6.890
29412SOL    HW137075   7.413  13.056   6.964
29412SOL    HW237076   7.507  13.177   6.907
29413SOL     OW37077   0.941   7.564   7.739
29413SOL    HW137078   0.910   7.518   7.656
29413SOL    HW237079   0.896   7.524   7.819
29414SOL     OW37080   9.700   4.814   6.580
29414SOL    HW137081   9.771   4.881   6.560
29414SOL    HW237082   9.649   4.841   6.661
29415SOL     OW37083  14.008  14.257   1.955
29415SOL    HW137084  14.100  14.296   1.961
29415SOL    HW237085  13.987  14.208   2.039
29416SOL     OW37086   9.152   0.208   1.132
29416SOL    HW137087   9.087   0.274   1.171
29416SOL    HW237088   9.108   0.119   1.123
29417SOL     OW37089   7.105  10.365   6.111
29417SOL    HW137090   7.190  10.378   6.059
29417SOL    HW237091   7.032  10.338   6.049
29418SOL     OW37092   8.230   4.006   0.174
29418SOL    HW137093   8.131   4.003   0.157
29418SOL    HW237094   8.276   3.943   0.113
29419SOL     OW37095   1.694  16.202   0.688
29419SOL    HW137096   1.781  16.203   0.638
29419SOL    HW237097   1.645  16.117   0.667
29420SOL     OW37098   4.763  13.761   6.738
29420SOL    HW137099   4.663  13.756   6.735
29420SOL    HW237100   4.794  13.749   6.832
29421SOL     OW37101   0.579  15.406   2.167
29421SOL    HW137102   0.489  15.417   2.211
29421SOL    HW237103   0.640  15.356   2.229
29422SOL     OW37104   9.313   0.718   5.541
29422SOL    HW137105   9.245   0.790   5.544
29422SOL    HW237106   9.272   0.635   5.503
29423SOL     OW37107   5.178   4.662   1.716
29423SOL    HW137108   5.129   4.636   1.633
29423SOL    HW237109   5.165   4.591   1.785
29424SOL     OW37110  14.926  15.281   7.182
29424SOL    HW137111  15.014  15.243   7.153
29424SOL    HW237112  14.928  15.380   7.173
29425SOL     OW37113   5.456  13.694   6.753
29425SOL    HW137114   5.492  13.734   6.669
29425SOL    HW237115   5.381  13.631   6.731
29426SOL     OW37116  15.571  14.824   7.785
29426SOL    HW137117  15.589  14.789   7.693
29426SOL    HW237118  15.643  14.889   7.811
29427SOL     OW37119   2.998   9.132   0.946
29427SOL    HW137120   3.060   9.190   0.999
29427SOL    HW237121   2.996   9.164   0.851
29428SOL     OW37122   1.109   1.732   0.885
29428SOL    HW137123   1.178   1.789   0.839
29428SOL    HW237124   1.028   1.727   0.827
29429SOL     OW37125  10.506   0.251   1.970
29429SOL    HW137126  10.407   0.238   1.980
29429SOL    HW237127  10.524   0.342   1.933
29430SOL     OW37128  14.856   8.992   0.202
29430SOL    HW137129  14.921   9.042   0.144
29430SOL    HW237130  14.819   8.914   0.151
29431SOL     OW37131   5.990   6.431   7.278
29431SOL    HW137132   6.035   6.481   7.352
29431SOL    HW237133   6.054   6.416   7.203
29432SOL     OW37134   8.049   6.314   0.606
29432SOL    HW137135   8.033   6.265   0.692
29432SOL    HW237136   8.109   6.260   0.547
29433SOL     OW37137  14.311   6.235   1.787
29433SOL    HW137138  14.333   6.153   1.839
29433SOL    HW237139  14.385   6.255   1.722
29434SOL     OW37140   5.142   1.325   7.354
29434SOL    HW137141   5.116   1.228   7.352
29434SOL    HW237142   5.232   1.337   7.313
29435SOL     OW37143   4.685   7.912   6.789
29435SOL    HW137144   4.627   7.831   6.797
29435SOL    HW237145   4.676   7.951   6.698
29436SOL     OW37146   6.990  16.467   0.470
29436SOL    HW137147   6.969  16.552   0.519
29436SOL    HW237148   7.087  16.446   0.480
29437SOL     OW37149   4.262   2.055   0.845
29437SOL    HW137150   4.202   2.066   0.766
29437SOL    HW237151   4.283   1.958   0.858
29438SOL     OW37152   9.165   6.270   0.585
29438SOL    HW137153   9.234   6.202   0.608
29438SOL    HW237154   9.186   6.356   0.631
29439SOL     OW37155  16.550  16.975   6.455
29439SOL    HW137156  16.616  16.933   6.393
29439SOL    HW237157  16.597   0.059   6.513
29440SOL     OW37158  13.800   2.220   7.415
29440SOL    HW137159  13.795   2.293   7.346
29440SOL    HW237160  13.787   2.260   7.506
29441SOL     OW37161   2.008   4.367   8.367
29441SOL    HW137162   2.083   4.315   8.326
29441SOL    HW237163   1.921   4.334   8.331
29442SOL     OW37164   6.795   4.228   7.287
29442SOL    HW137165   6.780   4.302   7.352
29442SOL    HW237166   6.723   4.159   7.297
29443SOL     OW37167   9.684  13.134   7.652
29443SOL    HW137168   9.659  13.230   7.637
29443SOL    HW237169   9.616  13.090   7.711
29444SOL     OW37170   7.408  14.375   7.233
29444SOL    HW137171   7.486  14.313   7.244
29444SOL    HW237172   7.439  14.469   7.246
29445SOL     OW37173   5.257  15.704   7.403
29445SOL    HW137174   5.194  15.695   7.326
29445SOL    HW237175   5.278  15.800   7.418
29446SOL     OW37176  15.321   2.608   1.185
29446SOL    HW137177  15.335   2.592   1.283
29446SOL    HW237178  15.245   2.672   1.172
29447SOL     OW37179   7.794  16.747   2.126
29447SOL    HW137180   7.869  16.806   2.156
29447SOL    HW237181   7.797  16.660   2.176
29448SOL     OW37182   1.715  11.236   8.253
29448SOL    HW137183   1.695  11.149   8.298
29448SOL    HW237184   1.756  11.299   8.319
29449SOL     OW37185   6.028   5.301   7.301
29449SOL    HW137186   6.096   5.359   7.256
29449SOL    HW237187   5.951   5.286   7.240
29450SOL     OW37188  10.674   3.271   0.651
29450SOL    HW137189  10.632   3.344   0.704
29450SOL    HW237190  10.651   3.183   0.692
29451SOL     OW37191   4.816  14.263   6.561
29451SOL    HW137192   4.782  14.244   6.469
29451SOL    HW237193   4.852  14.357   6.565
29452SOL     OW37194  14.736   4.738   8.407
29452SOL    HW137195  14.757   4.794   8.327
29452SOL    HW237196  14.703   4.796   0.027
29453SOL     OW37197   5.788   2.464   0.525
29453SOL    HW137198   5.741   2.547   0.553
29453SOL    HW237199   5.777   2.451   0.426
29454SOL     OW37200  14.537   4.507   8.096
29454SOL    HW137201  14.524   4.563   8.178
29454SOL    HW237202  14.457   4.450   8.081
29455SOL     OW37203  13.199   4.986   7.620
29455SOL    HW137204  13.199   4.953   7.715
29455SOL    HW237205  13.170   5.081   7.618
29456SOL     OW37206   2.423  14.043   7.816
29456SOL    HW137207   2.490  14.037   7.890
29456SOL    HW237208   2.446  14.121   7.757
29457SOL     OW37209  10.224  14.709   1.791
29457SOL    HW137210  10.221  14.786   1.855
29457SOL    HW237211  10.247  14.743   1.699
29458SOL     OW37212  11.653   3.042   7.003
29458SOL    HW137213  11.678   2.975   7.072
29458SOL    HW237214  11.719   3.040   6.928
29459SOL     OW37215   3.697   1.151   7.219
29459SOL    HW137216   3.730   1.090   7.147
29459SOL    HW237217   3.690   1.244   7.184
29460SOL     OW37218  12.542  11.022   7.718
29460SOL    HW137219  12.525  11.070   7.804
29460SOL    HW237220  12.493  11.068   7.644
29461SOL     OW37221  11.055  10.625   1.305
29461SOL    HW137222  11.046  10.569   1.222
29461SOL    HW237223  11.002  10.582   1.378
29462SOL     OW37224  16.810   6.557   7.480
29462SOL    HW137225  16.865   6.559   7.564
29462SOL    HW237226  16.843   6.484   7.420
29463SOL     OW37227   8.958  14.484   1.998
29463SOL    HW137228   8.859  14.480   1.994
29463SOL    HW237229   8.989  14.449   2.086
29464SOL     OW37230   7.635  11.388   0.293
29464SOL    HW137231   7.566  11.339   0.346
29464SOL    HW237232   7.694  11.440   0.355
29465SOL     OW37233   4.018   7.211   2.143
29465SOL    HW137234   3.992   7.216   2.239
29465SOL    HW237235   4.114   7.237   2.133
29466SOL     OW37236   7.852   2.262   1.878
29466SOL    HW137237   7.905   2.345   1.897
29466SOL    HW237238   7.806   2.232   1.961
29467SOL     OW37239   3.415  14.682   6.501
29467SOL    HW137240   3.392  14.743   6.425
29467SOL    HW237241   3.509  14.700   6.530
29468SOL     OW37242   6.850  16.413   0.238
29468SOL    HW137243   6.896  16.437   0.324
29468SOL    HW237244   6.783  16.483   0.216
29469SOL     OW37245   2.758   1.339   0.144
29469SOL    HW137246   2.713   1.421   0.179
29469SOL    HW237247   2.735   1.261   0.202
29470SOL     OW37248  13.190   4.718   5.906
29470SOL    HW137249  13.179   4.623   5.934
29470SOL    HW237250  13.135   4.735   5.825
29471SOL     OW37251  12.891   0.410   1.950
29471SOL    HW137252  12.982   0.449   1.951
29471SOL    HW237253  12.896   0.312   1.970
29472SOL     OW37254  13.476   9.119   1.107
29472SOL    HW137255  13.438   9.077   1.190
29472SOL    HW237256  13.536   9.195   1.133
29473SOL     OW37257   3.430   9.812   0.401
29473SOL    HW137258   3.444   9.900   0.354
29473SOL    HW237259   3.507   9.794   0.461
29474SOL     OW37260  12.941   5.186   5.918
29474SOL    HW137261  13.031   5.187   5.961
29474SOL    HW237262  12.874   5.148   5.982
29475SOL     OW37263  13.587   5.532   7.123
29475SOL    HW137264  13.675   5.558   7.083
29475SOL    HW237265  13.554   5.607   7.182
29476SOL     OW37266   5.016   9.263   2.578
29476SOL    HW137267   5.109   9.273   2.543
29476SOL    HW237268   4.999   9.168   2.603
29477SOL     OW37269  14.504   5.739   0.816
29477SOL    HW137270  14.450   5.776   0.740
29477SOL    HW237271  14.587   5.794   0.828
29478SOL     OW37272   1.184  15.828   0.282
29478SOL    HW137273   1.257  15.777   0.236
29478SOL    HW237274   1.129  15.875   0.213
29479SOL     OW37275   5.366  15.966   6.488
29479SOL    HW137276   5.287  15.941   6.431
29479SOL    HW237277   5.407  16.050   6.452
29480SOL     OW37278  11.427   2.239   1.600
29480SOL    HW137279  11.372   2.293   1.664
29480SOL    HW237280  11.497   2.189   1.650
29481SOL     OW37281   7.084   2.123   8.201
29481SOL    HW137282   7.139   2.186   8.256
29481SOL    HW237283   6.993   2.161   8.186
29482SOL     OW37284   9.736  16.174   0.648
29482SOL    HW137285   9.748  16.274   0.646
29482SOL    HW237286   9.650  16.150   0.605
29483SOL     OW37287   6.362   5.319   0.345
29483SOL    HW137288   6.316   5.372   0.273
29483SOL    HW237289   6.385   5.379   0.421
29484SOL     OW37290  14.933   2.673   7.529
29484SOL    HW137291  15.003   2.707   7.591
29484SOL    HW237292  14.921   2.737   7.453
29485SOL     OW37293  10.043  16.180   1.965
29485SOL    HW137294  10.024  16.093   1.919
29485SOL    HW237295  10.069  16.163   2.060
29486SOL     OW37296   5.475   4.105   7.032
29486SOL    HW137297   5.478   4.024   6.973
29486SOL    HW237298   5.534   4.090   7.112
29487SOL     OW37299  12.329   8.561   6.979
29487SOL    HW137300  12.320   8.560   7.079
29487SOL    HW237301  12.247   8.520   6.938
29488SOL     OW37302  16.420   0.498   7.854
29488SOL    HW137303  16.426   0.398   7.862
29488SOL    HW237304  16.502   0.533   7.810
29489SOL     OW37305  16.665   1.454   7.934
29489SOL    HW137306  16.679   1.400   8.017
29489SOL    HW237307  16.592   1.521   7.950
29490SOL     OW37308   5.092   0.875   6.767
29490SOL    HW137309   5.170   0.826   6.807
29490SOL    HW237310   5.126   0.941   6.700
29491SOL     OW37311   4.602  14.134   7.397
29491SOL    HW137312   4.664  14.059   7.375
29491SOL    HW237313   4.546  14.154   7.316
29492SOL     OW37314  13.883   4.585   0.572
29492SOL    HW137315  13.834   4.647   0.633
29492SOL    HW237316  13.822   4.554   0.499
29493SOL     OW37317  16.094  13.124   1.283
29493SOL    HW137318  16.005  13.165   1.260
29493SOL    HW237319  16.153  13.194   1.323
29494SOL     OW37320   8.779   4.966   1.435
29494SOL    HW137321   8.866   4.982   1.483
29494SOL    HW237322   8.740   4.879   1.466
29495SOL     OW37323  11.904  13.105   7.847
29495SOL    HW137324  11.925  13.100   7.944
29495SOL    HW237325  11.988  13.092   7.794
29496SOL     OW37326   2.601  15.173   1.851
29496SOL    HW137327   2.631  15.266   1.831
29496SOL    HW237328   2.534  15.175   1.925
29497SOL     OW37329  16.520  11.352   8.336
29497SOL    HW137330  16.556  11.320   8.424
29497SOL    HW237331  16.423  11.329   8.329
29498SOL     OW37332   6.620   2.616   7.782
29498SOL    HW137333   6.614   2.538   7.844
29498SOL    HW237334   6.705   2.611   7.730
29499SOL     OW37335   8.503   3.084   7.619
29499SOL    HW137336   8.594   3.057   7.647
29499SOL    HW237337   8.508   3.135   7.533
29500SOL     OW37338  13.730  11.325   7.211
29500SOL    HW137339  13.745  11.392   7.283
29500SOL    HW237340  13.672  11.365   7.140
29501SOL     OW37341   6.874   5.764   1.432
29501SOL    HW137342   6.811   5.705   1.380
29501SOL    HW237343   6.822   5.832   1.483
29502SOL     OW37344  11.088   4.551   1.242
29502SOL    HW137345  11.071   4.566   1.144
29502SOL    HW237346  11.019   4.601   1.295
29503SOL     OW37347  15.178  16.385   0.216
29503SOL    HW137348  15.218  16.327   0.145
29503SOL    HW237349  15.154  16.329   0.295
29504SOL     OW37350  11.599   5.674   0.977
29504SOL    HW137351  11.624   5.670   1.073
29504SOL    HW237352  11.660   5.736   0.928
29505SOL     OW37353  16.254  12.299   0.385
29505SOL    HW137354  16.245  12.398   0.383
29505SOL    HW237355  16.241  12.262   0.292
29506SOL     OW37356  15.193   0.903   1.096
29506SOL    HW137357  15.146   0.942   1.175
29506SOL    HW237358  15.181   0.804   1.096
29507SOL     OW37359  13.390   7.473   7.219
29507SOL    HW137360  13.446   7.391   7.224
29507SOL    HW237361  13.403   7.518   7.131
29508SOL     OW37362   3.589   5.486   7.094
29508SOL    HW137363   3.666   5.490   7.031
29508SOL    HW237364   3.503   5.485   7.043
29509SOL     OW37365   2.490   8.514   1.360
29509SOL    HW137366   2.576   8.529   1.311
29509SOL    HW237367   2.424   8.471   1.299
29510SOL     OW37368   8.918  10.953   7.493
29510SOL    HW137369   8.871  10.964   7.406
29510SOL    HW237370   8.851  10.948   7.567
29511SOL     OW37371   9.479   6.126   0.360
29511SOL    HW137372   9.537   6.082   0.429
29511SOL    HW237373   9.455   6.218   0.391
29512SOL     OW37374   1.688  12.245   0.129
29512SOL    HW137375   1.698  12.344   0.118
29512SOL    HW237376   1.614  12.213   0.071
29513SOL     OW37377   5.155  13.891   7.078
29513SOL    HW137378   5.161  13.814   7.015
29513SOL    HW237379   5.222  13.960   7.053
29514SOL     OW37380   6.417   2.888   0.851
29514SOL    HW137381   6.419   2.978   0.807
29514SOL    HW237382   6.389   2.819   0.784
29515SOL     OW37383   5.100  10.931   7.173
29515SOL    HW137384   5.005  10.963   7.169
29515SOL    HW237385   5.131  10.908   7.081
29516SOL     OW37386   8.384   7.802   8.016
29516SOL    HW137387   8.445   7.865   7.967
29516SOL    HW237388   8.361   7.841   8.105
29517SOL     OW37389   3.500   3.754   2.045
29517SOL    HW137390   3.580   3.814   2.042
29517SOL    HW237391   3.491   3.714   2.137
29518SOL     OW37392  14.796   5.721   7.935
29518SOL    HW137393  14.862   5.796   7.931
29518SOL    HW237394  14.737   5.724   7.854
29519SOL     OW37395   0.390  15.311   7.557
29519SOL    HW137396   0.297  15.332   7.528
29519SOL    HW237397   0.426  15.385   7.612
29520SOL     OW37398   1.593  11.667   7.891
29520SOL    HW137399   1.633  11.758   7.877
29520SOL    HW237400   1.644  11.600   7.837
29521SOL     OW37401  15.276   8.333   7.498
29521SOL    HW137402  15.362   8.349   7.450
29521SOL    HW237403  15.277   8.242   7.538
29522SOL     OW37404   2.650   5.911   0.972
29522SOL    HW137405   2.587   5.989   0.967
29522SOL    HW237406   2.607   5.838   1.026
29523SOL     OW37407   0.711   8.517   7.416
29523SOL    HW137408   0.738   8.522   7.512
29523SOL    HW237409   0.790   8.487   7.361
29524SOL     OW37410  16.252   5.135   6.582
29524SOL    HW137411  16.227   5.055   6.637
29524SOL    HW237412  16.289   5.206   6.642
29525SOL     OW37413   4.304   5.144   0.891
29525SOL    HW137414   4.332   5.163   0.797
29525SOL    HW237415   4.251   5.059   0.894
29526SOL     OW37416  12.900  11.004   0.953
29526SOL    HW137417  12.844  11.069   1.005
29526SOL    HW237418  12.840  10.951   0.892
29527SOL     OW37419   4.830   3.774   7.223
29527SOL    HW137420   4.756   3.722   7.181
29527SOL    HW237421   4.916   3.751   7.178
29528SOL     OW37422  11.109   6.818   7.940
29528SOL    HW137423  11.161   6.764   8.006
29528SOL    HW237424  11.047   6.880   7.988
29529SOL     OW37425  14.589  12.045   0.311
29529SOL    HW137426  14.688  12.056   0.322
29529SOL    HW237427  14.552  11.995   0.389
29530SOL     OW37428  10.909  13.653   7.139
29530SOL    HW137429  10.877  13.631   7.232
29530SOL    HW237430  10.871  13.740   7.111
29531SOL     OW37431  14.470  16.715   7.321
29531SOL    HW137432  14.512  16.694   7.232
29531SOL    HW237433  14.515  16.662   7.392
29532SOL     OW37434  14.370  10.865   0.007
29532SOL    HW137435  14.296  10.841   0.069
29532SOL    HW237436  14.438  10.920   0.056
29533SOL     OW37437  15.448  16.004   7.619
29533SOL    HW137438  15.428  15.909   7.594
29533SOL    HW237439  15.481  16.008   7.713
29534SOL     OW37440   1.344  14.041   7.202
29534SOL    HW137441   1.354  14.080   7.111
29534SOL    HW237442   1.248  14.038   7.227
29535SOL     OW37443  14.119  10.644   0.399
29535SOL    HW137444  14.173  10.590   0.464
29535SOL    HW237445  14.067  10.582   0.341
29536SOL     OW37446   4.080   3.834   7.583
29536SOL    HW137447   4.110   3.757   7.526
29536SOL    HW237448   4.027   3.799   7.660
29537SOL     OW37449   7.028   7.244   0.490
29537SOL    HW137450   6.978   7.286   0.414
29537SOL    HW237451   6.967   7.235   0.568
29538SOL     OW37452  15.311  15.983   8.214
29538SOL    HW137453  15.241  16.046   8.247
29538SOL    HW237454  15.307  15.899   8.267
29539SOL     OW37455   8.027   2.044   1.338
29539SOL    HW137456   7.944   2.090   1.371
29539SOL    HW237457   8.084   2.109   1.288
29540SOL     OW37458   3.150   5.680   8.116
29540SOL    HW137459   3.242   5.667   8.151
29540SOL    HW237460   3.154   5.731   8.030
29541SOL     OW37461   6.515   3.060   1.273
29541SOL    HW137462   6.546   3.040   1.180
29541SOL    HW237463   6.581   3.024   1.339
29542SOL     OW37464  14.837   7.216   1.955
29542SOL    HW137465  14.783   7.208   2.039
29542SOL    HW237466  14.934   7.214   1.977
29543SOL     OW37467  14.554   1.095   1.472
29543SOL    HW137468  14.530   1.192   1.480
29543SOL    HW237469  14.622   1.083   1.400
29544SOL     OW37470   1.031  12.367   1.985
29544SOL    HW137471   0.995  12.287   1.937
29544SOL    HW237472   0.958  12.413   2.034
29545SOL     OW37473   9.182   7.068   6.477
29545SOL    HW137474   9.217   7.158   6.451
29545SOL    HW237475   9.090   7.056   6.441
29546SOL     OW37476  13.632  15.153   0.500
29546SOL    HW137477  13.703  15.146   0.571
29546SOL    HW237478  13.593  15.063   0.483
29547SOL     OW37479   6.264  11.906   7.942
29547SOL    HW137480   6.226  11.998   7.939
29547SOL    HW237481   6.361  11.909   7.917
29548SOL     OW37482   7.533  16.378   8.044
29548SOL    HW137483   7.602  16.305   8.039
29548SOL    HW237484   7.442  16.338   8.036
29549SOL     OW37485   5.290  10.518   0.591
29549SOL    HW137486   5.307  10.604   0.543
29549SOL    HW237487   5.214  10.530   0.655
29550SOL     OW37488   3.379   1.835   0.858
29550SOL    HW137489   3.390   1.901   0.932
29550SOL    HW237490   3.454   1.769   0.860
29551SOL     OW37491   3.433   5.091   8.438
29551SOL    HW137492   3.471   5.184   8.441
29551SOL    HW237493   3.411   5.061   0.077
29552SOL     OW37494  15.534   8.969   0.859
29552SOL    HW137495  15.473   8.989   0.782
29552SOL    HW237496  15.618   9.022   0.849
29553SOL     OW37497  11.434   7.508   7.932
29553SOL    HW137498  11.425   7.410   7.915
29553SOL    HW237499  11.413   7.558   7.848
29554SOL     OW37500   7.842  13.326   0.345
29554SOL    HW137501   7.922  13.277   0.310
29554SOL    HW237502   7.826  13.406   0.287
29555SOL     OW37503  16.768   3.706   0.746
29555SOL    HW137504  16.748   3.695   0.649
29555SOL    HW237505  16.848   3.653   0.771
29556SOL     OW37506   5.722   9.515   7.984
29556SOL    HW137507   5.808   9.464   7.976
29556SOL    HW237508   5.739   9.611   7.962
29557SOL     OW37509   5.155   9.546   1.613
29557SOL    HW137510   5.130   9.597   1.531
29557SOL    HW237511   5.247   9.572   1.642
29558SOL     OW37512  16.420   9.199   7.124
29558SOL    HW137513  16.469   9.122   7.083
29558SOL    HW237514  16.331   9.168   7.158
29559SOL     OW37515  13.410  10.836   8.450
29559SOL    HW137516  13.390  10.739   0.010
29559SOL    HW237517  13.347  10.874   8.382
29560SOL     OW37518  12.906   8.947   7.395
29560SOL    HW137519  12.928   8.866   7.450
29560SOL    HW237520  12.930   8.930   7.299
29561SOL     OW37521   8.826   4.172   0.354
29561SOL    HW137522   8.810   4.093   0.295
29561SOL    HW237523   8.738   4.208   0.386
29562SOL     OW37524   1.231   3.837   1.831
29562SOL    HW137525   1.294   3.853   1.906
29562SOL    HW237526   1.141   3.814   1.867
29563SOL     OW37527   9.654  11.642   1.441
29563SOL    HW137528   9.631  11.736   1.413
29563SOL    HW237529   9.584  11.608   1.503
29564SOL     OW37530  11.415   5.327   0.049
29564SOL    HW137531  11.404   5.385   0.130
29564SOL    HW237532  11.348   5.252   0.052
29565SOL     OW37533  12.444   2.772   1.072
29565SOL    HW137534  12.514   2.760   1.002
29565SOL    HW237535  12.466   2.715   1.151
29566SOL     OW37536  13.334  12.723   1.332
29566SOL    HW137537  13.340  12.685   1.239
29566SOL    HW237538  13.366  12.817   1.332
29567SOL     OW37539  13.804   4.739   6.484
29567SOL    HW137540  13.726   4.683   6.457
29567SOL    HW237541  13.784   4.835   6.465
29568SOL     OW37542   3.088   3.973   1.408
29568SOL    HW137543   3.042   3.886   1.425
29568SOL    HW237544   3.184   3.966   1.437
29569SOL     OW37545   4.489  14.118   1.719
29569SOL    HW137546   4.491  14.147   1.815
29569SOL    HW237547   4.399  14.138   1.680
29570SOL     OW37548   5.402   5.373   1.252
29570SOL    HW137549   5.492   5.407   1.225
29570SOL    HW237550   5.358   5.329   1.173
29571SOL     OW37551  16.533   0.894   0.321
29571SOL    HW137552  16.491   0.861   0.237
29571SOL    HW237553  16.593   0.823   0.358
29572SOL     OW37554   4.485   3.742   0.827
29572SOL    HW137555   4.565   3.729   0.885
29572SOL    HW237556   4.402   3.727   0.882
29573SOL     OW37557   7.633   9.748   0.631
29573SOL    HW137558   7.572   9.669   0.634
29573SOL    HW237559   7.623   9.801   0.715
29574SOL     OW37560  16.646  15.563   1.438
29574SOL    HW137561  16.652  15.661   1.419
29574SOL    HW237562  16.738  15.522   1.432
29575SOL     OW37563   9.641  13.724   1.442
29575SOL    HW137564   9.593  13.708   1.356
29575SOL    HW237565   9.729  13.768   1.423
29576SOL     OW37566   1.770   3.333   8.423
29576SOL    HW137567   1.737   3.422   0.001
29576SOL    HW237568   1.851   3.346   8.366
29577SOL     OW37569  10.207   8.441   7.516
29577SOL    HW137570  10.252   8.421   7.428
29577SOL    HW237571  10.273   8.428   7.590
29578SOL     OW37572   2.772   4.004   7.270
29578SOL    HW137573   2.810   3.952   7.194
29578SOL    HW237574   2.843   4.022   7.338
29579SOL     OW37575   3.493   0.963   7.293
29579SOL    HW137576   3.453   0.973   7.202
29579SOL    HW237577   3.573   1.022   7.302
29580SOL     OW37578  10.955   3.550   7.630
29580SOL    HW137579  10.888   3.476   7.635
29580SOL    HW237580  11.034   3.527   7.688
29581SOL     OW37581  11.396  12.196   0.826
29581SOL    HW137582  11.377  12.189   0.729
29581SOL    HW237583  11.364  12.113   0.873
29582SOL     OW37584   4.912   3.526   1.380
29582SOL    HW137585   4.929   3.611   1.331
29582SOL    HW237586   4.859   3.546   1.462
29583SOL     OW37587   7.286   9.724   0.539
29583SOL    HW137588   7.333   9.811   0.527
29583SOL    HW237589   7.233   9.726   0.624
29584SOL     OW37590   2.037   6.090   5.874
29584SOL    HW137591   2.099   6.161   5.839
29584SOL    HW237592   2.063   6.002   5.835
29585SOL     OW37593   8.742  10.484   1.540
29585SOL    HW137594   8.731  10.583   1.530
29585SOL    HW237595   8.839  10.461   1.544
29586SOL     OW37596   2.368   8.979   2.254
29586SOL    HW137597   2.455   8.954   2.297
29586SOL    HW237598   2.294   8.971   2.321
29587SOL     OW37599  16.075  10.883   7.063
29587SOL    HW137600  15.992  10.897   7.119
29587SOL    HW237601  16.082  10.787   7.038
29588SOL     OW37602  13.868  14.344   7.736
29588SOL    HW137603  13.921  14.366   7.654
29588SOL    HW237604  13.882  14.248   7.761
29589SOL     OW37605   9.515  16.391   6.761
29589SOL    HW137606   9.592  16.401   6.697
29589SOL    HW237607   9.521  16.462   6.831
29590SOL     OW37608   6.346  10.838   1.846
29590SOL    HW137609   6.333  10.904   1.772
29590SOL    HW237610   6.313  10.876   1.932
29591SOL     OW37611   0.686  11.568   0.780
29591SOL    HW137612   0.609  11.631   0.771
29591SOL    HW237613   0.766  11.607   0.734
29592SOL     OW37614   9.579   4.387   7.392
29592SOL    HW137615   9.672   4.365   7.421
29592SOL    HW237616   9.583   4.443   7.309
29593SOL     OW37617  12.116  14.696   0.900
29593SOL    HW137618  12.130  14.775   0.960
29593SOL    HW237619  12.079  14.726   0.812
29594SOL     OW37620   3.428  13.626   7.856
29594SOL    HW137621   3.354  13.668   7.803
29594SOL    HW237622   3.467  13.550   7.804
29595SOL     OW37623   0.399   6.000   0.925
29595SOL    HW137624   0.422   5.985   0.829
29595SOL    HW237625   0.315   6.054   0.931
29596SOL     OW37626  12.766   0.670   0.959
29596SOL    HW137627  12.740   0.574   0.953
29596SOL    HW237628  12.752   0.715   0.871
29597SOL     OW37629   1.668  16.302   7.007
29597SOL    HW137630   1.646  16.280   6.912
29597SOL    HW237631   1.632  16.393   7.029
29598SOL     OW37632   0.049  12.958   1.484
29598SOL    HW137633  16.959  13.022   1.459
29598SOL    HW237634   0.015  12.892   1.551
29599SOL     OW37635  10.833  11.644   1.139
29599SOL    HW137636  10.878  11.733   1.129
29599SOL    HW237637  10.809  11.629   1.235
29600SOL     OW37638  13.536   6.405   8.089
29600SOL    HW137639  13.630   6.408   8.055
29600SOL    HW237640  13.507   6.497   8.117
29601SOL     OW37641   2.732   5.275   6.103
29601SOL    HW137642   2.707   5.179   6.089
29601SOL    HW237643   2.688   5.331   6.033
29602SOL     OW37644   1.911   1.981   7.960
29602SOL    HW137645   1.982   1.944   7.900
29602SOL    HW237646   1.825   1.933   7.943
29603SOL     OW37647   9.509  13.363   0.155
29603SOL    HW137648   9.503  13.267   0.182
29603SOL    HW237649   9.475  13.374   0.062
29604SOL     OW37650   0.775   0.346   6.343
29604SOL    HW137651   0.773   0.412   6.269
29604SOL    HW237652   0.717   0.268   6.320
29605SOL     OW37653   7.528   9.148   1.861
29605SOL    HW137654   7.561   9.242   1.853
29605SOL    HW237655   7.601   9.085   1.834
29606SOL     OW37656  11.228   0.384   1.565
29606SOL    HW137657  11.305   0.433   1.605
29606SOL    HW237658  11.143   0.433   1.585
29607SOL     OW37659  12.877   6.601   0.808
29607SOL    HW137660  12.803   6.582   0.744
29607SOL    HW237661  12.846   6.584   0.901
29608SOL     OW37662   4.795   2.684   1.918
29608SOL    HW137663   4.865   2.670   1.848
29608SOL    HW237664   4.816   2.766   1.971
29609SOL     OW37665   1.722   8.652   0.530
29609SOL    HW137666   1.732   8.751   0.521
29609SOL    HW237667   1.797   8.607   0.483
29610SOL     OW37668  16.592  14.096   1.986
29610SOL    HW137669  16.589  14.105   2.085
29610SOL    HW237670  16.537  14.168   1.944
29611SOL     OW37671   8.572   9.922   0.935
29611SOL    HW137672   8.606   9.992   0.871
29611SOL    HW237673   8.499   9.870   0.892
29612SOL     OW37674   2.231  16.318   7.804
29612SOL    HW137675   2.163  16.268   7.751
29612SOL    HW237676   2.240  16.276   7.894
29613SOL     OW37677   7.597   5.362   1.167
29613SOL    HW137678   7.609   5.393   1.261
29613SOL    HW237679   7.667   5.404   1.109
29614SOL     OW37680   1.877   4.329   7.293
29614SOL    HW137681   1.785   4.313   7.256
29614SOL    HW237682   1.929   4.244   7.288
29615SOL     OW37683   0.355   3.877   7.499
29615SOL    HW137684   0.289   3.877   7.424
29615SOL    HW237685   0.335   3.801   7.561
29616SOL     OW37686   4.557  14.872   2.226
29616SOL    HW137687   4.595  14.953   2.270
29616SOL    HW237688   4.483  14.835   2.282
29617SOL     OW37689   8.473   7.216   6.158
29617SOL    HW137690   8.382   7.229   6.118
29617SOL    HW237691   8.478   7.265   6.245
29618SOL     OW37692  16.252   0.308   0.826
29618SOL    HW137693  16.204   0.396   0.836
29618SOL    HW237694  16.345   0.317   0.862
29619SOL     OW37695   9.159  14.780   7.642
29619SOL    HW137696   9.231  14.826   7.694
29619SOL    HW237697   9.092  14.847   7.611
29620SOL     OW37698   9.276   3.670   0.082
29620SOL    HW137699   9.341   3.720   0.026
29620SOL    HW237700   9.232   3.599   0.027
29621SOL     OW37701  12.586   7.505   1.236
29621SOL    HW137702  12.643   7.446   1.180
29621SOL    HW237703  12.598   7.483   1.333
29622SOL     OW37704   7.739   2.681   0.946
29622SOL    HW137705   7.817   2.732   0.983
29622SOL    HW237706   7.760   2.583   0.947
29623SOL     OW37707   1.228  11.117   0.767
29623SOL    HW137708   1.306  11.105   0.705
29623SOL    HW237709   1.237  11.204   0.814
29624SOL     OW37710   1.762   1.077   0.146
29624SOL    HW137711   1.775   1.073   0.245
29624SOL    HW237712   1.696   1.150   0.124
29625SOL     OW37713   4.458   9.093   7.626
29625SOL    HW137714   4.464   9.040   7.711
29625SOL    HW237715   4.448   9.190   7.649
29626SOL     OW37716   5.788  13.627   6.563
29626SOL    HW137717   5.861  13.658   6.502
29626SOL    HW237718   5.703  13.675   6.541
29627SOL     OW37719  11.844  11.379   6.509
29627SOL    HW137720  11.824  11.468   6.467
29627SOL    HW237721  11.807  11.378   6.602
29628SOL     OW37722  15.025   2.782   0.648
29628SOL    HW137723  15.082   2.762   0.568
29628SOL    HW237724  14.957   2.851   0.624
29629SOL     OW37725   9.652  16.776   6.536
29629SOL    HW137726   9.610  16.861   6.503
29629SOL    HW237727   9.725  16.749   6.474
29630SOL     OW37728   8.944   9.178   0.094
29630SOL    HW137729   8.936   9.211   8.454
29630SOL    HW237730   9.038   9.149   0.110
29631SOL     OW37731  12.273  15.145   6.892
29631SOL    HW137732  12.347  15.087   6.858
29631SOL    HW237733  12.187  15.117   6.849
29632SOL     OW37734  14.059   3.744   1.285
29632SOL    HW137735  14.056   3.654   1.327
29632SOL    HW237736  14.147   3.758   1.240
29633SOL     OW37737  16.110   9.807   6.475
29633SOL    HW137738  16.149   9.737   6.534
29633SOL    HW237739  16.043   9.765   6.413
29634SOL     OW37740  13.839  13.910   7.149
29634SOL    HW137741  13.797  13.948   7.231
29634SOL    HW237742  13.773  13.853   7.101
29635SOL     OW37743   1.083   3.840   0.524
29635SOL    HW137744   0.989   3.839   0.489
29635SOL    HW237745   1.142   3.789   0.462
29636SOL     OW37746   2.367  13.787   7.708
29636SOL    HW137747   2.307  13.793   7.628
29636SOL    HW237748   2.382  13.878   7.745
29637SOL     OW37749  13.822   2.290   6.853
29637SOL    HW137750  13.875   2.309   6.771
29637SOL    HW237751  13.861   2.211   6.901
29638SOL     OW37752   5.202   0.633   8.171
29638SOL    HW137753   5.297   0.604   8.178
29638SOL    HW237754   5.147   0.582   8.238
29639SOL     OW37755   2.702   6.909   0.478
29639SOL    HW137756   2.614   6.862   0.484
29639SOL    HW237757   2.738   6.901   0.385
29640SOL     OW37758  14.077   8.213   0.880
29640SOL    HW137759  14.063   8.221   0.979
29640SOL    HW237760  14.167   8.251   0.856
29641SOL     OW37761   1.844  16.486   8.325
29641SOL    HW137762   1.890  16.419   8.266
29641SOL    HW237763   1.812  16.562   8.269
29642SOL     OW37764  13.401  10.809   0.457
29642SOL    HW137765  13.346  10.730   0.428
29642SOL    HW237766  13.353  10.858   0.529
29643SOL     OW37767   1.923   0.086   1.795
29643SOL    HW137768   1.971   0.006   1.831
29643SOL    HW237769   1.859   0.120   1.864
29644SOL     OW37770  10.670   3.381   2.028
29644SOL    HW137771  10.649   3.469   2.071
29644SOL    HW237772  10.685   3.312   2.099
29645SOL     OW37773   8.085  13.284   7.972
29645SOL    HW137774   8.170  13.280   7.920
29645SOL    HW237775   8.054  13.379   7.977
29646SOL     OW37776   8.665   4.643   7.539
29646SOL    HW137777   8.674   4.698   7.456
29646SOL    HW237778   8.733   4.673   7.606
29647SOL     OW37779  14.715   0.690   7.159
29647SOL    HW137780  14.618   0.712   7.164
29647SOL    HW237781  14.727   0.592   7.175
29648SOL     OW37782  13.723   1.891   7.159
29648SOL    HW137783  13.684   1.827   7.092
29648SOL    HW237784  13.802   1.848   7.204
29649SOL     OW37785   8.457   4.223   6.515
29649SOL    HW137786   8.492   4.188   6.428
29649SOL    HW237787   8.517   4.297   6.548
29650SOL     OW37788   1.462  12.218   1.124
29650SOL    HW137789   1.394  12.284   1.091
29650SOL    HW237790   1.519  12.261   1.194
29651SOL     OW37791  15.854   7.604   7.809
29651SOL    HW137792  15.911   7.681   7.840
29651SOL    HW237793  15.763   7.612   7.849
29652SOL     OW37794   1.970  11.047   8.383
29652SOL    HW137795   1.939  11.003   8.299
29652SOL    HW237796   1.984  10.977   8.454
29653SOL     OW37797  12.552   1.537   7.142
29653SOL    HW137798  12.496   1.489   7.210
29653SOL    HW237799  12.629   1.581   7.187
29654SOL     OW37800   0.892   6.130   6.577
29654SOL    HW137801   0.970   6.171   6.529
29654SOL    HW237802   0.917   6.112   6.672
29655SOL     OW37803   7.254  12.460   0.168
29655SOL    HW137804   7.188  12.519   0.214
29655SOL    HW237805   7.242  12.366   0.200
29656SOL     OW37806  13.107   4.911   7.374
29656SOL    HW137807  13.133   4.934   7.468
29656SOL    HW237808  13.182   4.933   7.312
29657SOL     OW37809  11.357   8.307   0.312
29657SOL    HW137810  11.394   8.359   0.390
29657SOL    HW237811  11.277   8.354   0.276
29658SOL     OW37812   9.075  12.141   1.091
29658SOL    HW137813   9.172  12.153   1.113
29658SOL    HW237814   9.038  12.064   1.143
29659SOL     OW37815   0.808  14.058   0.331
29659SOL    HW137816   0.796  13.966   0.296
29659SOL    HW237817   0.834  14.054   0.428
29660SOL     OW37818  11.337  16.813   0.871
29660SOL    HW137819  11.433  16.803   0.898
29660SOL    HW237820  11.278  16.768   0.938
29661SOL     OW37821   3.226   6.097   6.905
29661SOL    HW137822   3.143   6.054   6.869
29661SOL    HW237823   3.270   6.034   6.970
29662SOL     OW37824   8.662   2.339   6.831
29662SOL    HW137825   8.669   2.339   6.731
29662SOL    HW237826   8.612   2.419   6.862
29663SOL     OW37827   6.563  10.755   6.752
29663SOL    HW137828   6.586  10.704   6.835
29663SOL    HW237829   6.463  10.764   6.745
29664SOL     OW37830   5.163  13.924   0.360
29664SOL    HW137831   5.079  13.956   0.403
29664SOL    HW237832   5.241  13.948   0.418
29665SOL     OW37833  13.289   7.643   8.451
29665SOL    HW137834  13.264   7.702   8.375
29665SOL    HW237835  13.346   7.693   0.062
29666SOL     OW37836   2.723  12.051   8.064
29666SOL    HW137837   2.644  12.110   8.083
29666SOL    HW237838   2.762  12.075   7.975
29667SOL     OW37839   2.723  14.729   1.033
29667SOL    HW137840   2.698  14.634   1.046
29667SOL    HW237841   2.662  14.788   1.087
29668SOL     OW37842   1.138   2.597   7.664
29668SOL    HW137843   1.070   2.618   7.594
29668SOL    HW237844   1.092   2.568   7.748
29669SOL     OW37845  16.099  14.754   0.772
29669SOL    HW137846  16.111  14.818   0.848
29669SOL    HW237847  16.004  14.755   0.742
29670SOL     OW37848   0.063  10.486   8.343
29670SOL    HW137849   0.130  10.457   8.412
29670SOL    HW237850   0.111  10.529   8.267
29671SOL     OW37851   1.099   5.731   6.064
29671SOL    HW137852   1.072   5.802   5.999
29671SOL    HW237853   1.179   5.682   6.028
29672SOL     OW37854  13.364   9.021   0.319
29672SOL    HW137855  13.424   9.001   0.242
29672SOL    HW237856  13.337   9.117   0.316
29673SOL     OW37857   9.987   1.000   0.378
29673SOL    HW137858   9.949   0.931   0.317
29673SOL    HW237859  10.015   1.079   0.325
29674SOL     OW37860   2.303  16.201   0.204
29674SOL    HW137861   2.363  16.226   0.280
29674SOL    HW237862   2.313  16.104   0.183
29675SOL     OW37863   2.015   7.446   0.311
29675SOL    HW137864   2.014   7.391   0.394
29675SOL    HW237865   1.930   7.431   0.260
29676SOL     OW37866   0.584  16.751   7.174
29676SOL    HW137867   0.596  16.835   7.121
29676SOL    HW237868   0.640  16.755   7.256
29677SOL     OW37869   4.565   3.988   1.486
29677SOL    HW137870   4.570   4.059   1.557
29677SOL    HW237871   4.598   4.026   1.400
29678SOL     OW37872   4.386   5.215   6.897
29678SOL    HW137873   4.405   5.165   6.813
29678SOL    HW237874   4.342   5.153   6.963
29679SOL     OW37875  13.111   5.896   8.215
29679SOL    HW137876  13.159   5.918   8.300
29679SOL    HW237877  13.059   5.976   8.185
29680SOL     OW37878   6.622  11.447   7.735
29680SOL    HW137879   6.626  11.546   7.728
29680SOL    HW237880   6.624  11.420   7.831
29681SOL     OW37881  13.260   3.027   1.538
29681SOL    HW137882  13.252   3.068   1.629
29681SOL    HW237883  13.313   3.088   1.478
29682SOL     OW37884  16.153   5.059   1.799
29682SOL    HW137885  16.094   5.117   1.855
29682SOL    HW237886  16.128   4.963   1.813
29683SOL     OW37887   6.299  13.445   1.056
29683SOL    HW137888   6.275  13.521   0.995
29683SOL    HW237889   6.347  13.481   1.136
29684SOL     OW37890   7.633  10.634   0.641
29684SOL    HW137891   7.581  10.662   0.722
29684SOL    HW237892   7.712  10.578   0.669
29685SOL     OW37893   3.682   3.947   2.069
29685SOL    HW137894   3.751   4.015   2.044
29685SOL    HW237895   3.647   3.967   2.161
29686SOL     OW37896   7.406  11.317   0.442
29686SOL    HW137897   7.391  11.299   0.539
29686SOL    HW237898   7.382  11.411   0.421
29687SOL     OW37899   2.689   7.227   6.557
29687SOL    HW137900   2.681   7.316   6.513
29687SOL    HW237901   2.620   7.164   6.521
29688SOL     OW37902  10.688   4.018   6.677
29688SOL    HW137903  10.746   4.088   6.634
29688SOL    HW237904  10.596   4.055   6.691
29689SOL     OW37905  15.042   7.420   8.266
29689SOL    HW137906  15.090   7.504   8.242
29689SOL    HW237907  14.971   7.402   8.197
29690SOL     OW37908   5.441   0.873   0.636
29690SOL    HW137909   5.493   0.788   0.650
29690SOL    HW237910   5.423   0.916   0.724
29691SOL     OW37911   2.980  13.492   7.883
29691SOL    HW137912   2.886  13.467   7.860
29691SOL    HW237913   2.980  13.576   7.938
29692SOL     OW37914  10.701  16.649   7.548
29692SOL    HW137915  10.613  16.650   7.500
29692SOL    HW237916  10.716  16.559   7.589
29693SOL     OW37917   8.481  16.491   8.188
29693SOL    HW137918   8.436  16.547   8.118
29693SOL    HW237919   8.575  16.472   8.160
29694SOL     OW37920  10.571   2.581   8.261
29694SOL    HW137921  10.551   2.630   8.175
29694SOL    HW237922  10.526   2.629   8.337
29695SOL     OW37923  16.858   3.282   1.757
29695SOL    HW137924  16.831   3.217   1.828
29695SOL    HW237925  16.955   3.271   1.737
29696SOL     OW37926  13.384   6.380   1.487
29696SOL    HW137927  13.469   6.389   1.539
29696SOL    HW237928  13.404   6.380   1.389
29697SOL     OW37929  15.882  14.244   0.965
29697SOL    HW137930  15.834  14.216   1.048
29697SOL    HW237931  15.930  14.165   0.926
29698SOL     OW37932   5.848  11.544   0.827
29698SOL    HW137933   5.938  11.581   0.802
29698SOL    HW237934   5.787  11.620   0.849
29699SOL     OW37935   4.040  14.417   0.228
29699SOL    HW137936   3.999  14.492   0.176
29699SOL    HW237937   3.970  14.375   0.286
29700SOL     OW37938  16.093   3.457   7.871
29700SOL    HW137939  16.191   3.447   7.854
29700SOL    HW237940  16.060   3.540   7.827
29701SOL     OW37941  14.461   3.850   6.375
29701SOL    HW137942  14.381   3.790   6.382
29701SOL    HW237943  14.475   3.897   6.462
29702SOL     OW37944   0.956  14.316   1.578
29702SOL    HW137945   1.026  14.284   1.513
29702SOL    HW237946   0.890  14.373   1.529
29703SOL     OW37947  16.559  10.265   7.218
29703SOL    HW137948  16.642  10.210   7.213
29703SOL    HW237949  16.481  10.207   7.240
29704SOL     OW37950  12.895   0.927   8.008
29704SOL    HW137951  12.799   0.923   7.979
29704SOL    HW237952  12.953   0.888   7.937
29705SOL     OW37953   2.805  10.011   0.126
29705SOL    HW137954   2.804  10.108   0.150
29705SOL    HW237955   2.736   9.963   0.180
29706SOL     OW37956   4.462   2.401   1.450
29706SOL    HW137957   4.560   2.407   1.469
29706SOL    HW237958   4.431   2.308   1.468
29707SOL     OW37959   7.816  10.621   1.079
29707SOL    HW137960   7.903  10.637   1.033
29707SOL    HW237961   7.763  10.552   1.030
29708SOL     OW37962   6.539  16.179   0.234
29708SOL    HW137963   6.518  16.094   0.187
29708SOL    HW237964   6.630  16.174   0.274
29709SOL     OW37965   3.386  10.180   2.826
29709SOL    HW137966   3.436  10.247   2.881
29709SOL    HW237967   3.299  10.219   2.797
29710SOL     OW37968   7.416   8.409   8.110
29710SOL    HW137969   7.498   8.418   8.054
29710SOL    HW237970   7.432   8.343   8.184
29711SOL     OW37971   8.159  15.552   6.633
29711SOL    HW137972   8.188  15.474   6.577
29711SOL    HW237973   8.148  15.523   6.728
29712SOL     OW37974   1.316   0.929   0.831
29712SOL    HW137975   1.376   0.908   0.754
29712SOL    HW237976   1.288   1.025   0.826
29713SOL     OW37977   5.194   3.969   7.594
29713SOL    HW137978   5.195   3.950   7.496
29713SOL    HW237979   5.231   4.060   7.611
29714SOL     OW37980  16.797  13.010   7.431
29714SOL    HW137981  16.729  13.083   7.436
29714SOL    HW237982  16.887  13.045   7.457
29715SOL     OW37983   1.583   6.937   6.966
29715SOL    HW137984   1.500   6.881   6.968
29715SOL    HW237985   1.657   6.887   6.922
29716SOL     OW37986   8.357  14.397   7.261
29716SOL    HW137987   8.426  14.465   7.286
29716SOL    HW237988   8.285  14.441   7.207
29717SOL     OW37989   2.993  10.800   6.970
29717SOL    HW137990   2.905  10.782   6.927
29717SOL    HW237991   3.063  10.738   6.934
29718SOL     OW37992   5.451   4.897   7.798
29718SOL    HW137993   5.373   4.834   7.800
29718SOL    HW237994   5.536   4.845   7.805
29719SOL     OW37995   8.802  10.016   8.250
29719SOL    HW137996   8.716   9.982   8.211
29719SOL    HW237997   8.864  10.042   8.176
29720SOL     OW37998  10.186   2.306   7.403
29720SOL    HW137999  10.091   2.275   7.407
29720SOL    HW238000  10.233   2.280   7.487
29721SOL     OW38001  10.825  13.607   7.400
29721SOL    HW138002  10.876  13.682   7.442
29721SOL    HW238003  10.873  13.521   7.415
29722SOL     OW38004   4.219  12.992   8.452
29722SOL    HW138005   4.147  13.048   8.410
29722SOL    HW238006   4.292  13.051   0.032
29723SOL     OW38007   4.574   6.404   6.723
29723SOL    HW138008   4.520   6.322   6.707
29723SOL    HW238009   4.645   6.411   6.653
29724SOL     OW38010   5.646  15.111   7.146
29724SOL    HW138011   5.624  15.204   7.174
29724SOL    HW238012   5.562  15.060   7.126
29725SOL     OW38013   5.870   5.304   2.221
29725SOL    HW138014   5.945   5.269   2.277
29725SOL    HW238015   5.782   5.276   2.261
29726SOL     OW38016  12.802   0.703   0.270
29726SOL    HW138017  12.848   0.792   0.279
29726SOL    HW238018  12.770   0.673   0.360
29727SOL     OW38019  13.386   0.980   0.648
29727SOL    HW138020  13.345   0.902   0.599
29727SOL    HW238021  13.324   1.058   0.644
29728SOL     OW38022   8.270   6.653   6.738
29728SOL    HW138023   8.276   6.747   6.705
29728SOL    HW238024   8.357   6.606   6.723
29729SOL     OW38025  12.854   3.429   7.340
29729SOL    HW138026  12.783   3.448   7.273
29729SOL    HW238027  12.914   3.357   7.305
29730SOL     OW38028  16.671   1.413   0.019
29730SOL    HW138029  16.761   1.376   0.040
29730SOL    HW238030  16.621   1.426   0.105
29731SOL     OW38031  10.575  15.726   1.377
29731SOL    HW138032  10.584  15.658   1.305
29731SOL    HW238033  10.646  15.712   1.446
29732SOL     OW38034   6.896   6.649   0.906
29732SOL    HW138035   6.852   6.729   0.946
29732SOL    HW238036   6.955   6.677   0.830
29733SOL     OW38037   0.412   2.187   5.934
29733SOL    HW138038   0.436   2.246   5.857
29733SOL    HW238039   0.356   2.111   5.902
29734SOL     OW38040   9.251   5.804   8.072
29734SOL    HW138041   9.159   5.820   8.107
29734SOL    HW238042   9.275   5.708   8.085
29735SOL     OW38043  10.959   2.216   0.110
29735SOL    HW138044  11.025   2.271   0.060
29735SOL    HW238045  10.943   2.258   0.200
29736SOL     OW38046  11.887  15.091   8.262
29736SOL    HW138047  11.885  15.190   8.246
29736SOL    HW238048  11.956  15.070   8.331
29737SOL     OW38049  10.351  16.277   1.082
29737SOL    HW138050  10.333  16.310   1.175
29737SOL    HW238051  10.282  16.314   1.020
29738SOL     OW38052  16.817  15.040   0.990
29738SOL    HW138053  16.747  15.076   0.928
29738SOL    HW238054  16.893  15.004   0.936
29739SOL     OW38055  15.311  10.573   2.955
29739SOL    HW138056  15.379  10.572   3.028
29739SOL    HW238057  15.285  10.667   2.933
29740SOL     OW38058   7.252   8.688   6.986
29740SOL    HW138059   7.198   8.605   6.971
29740SOL    HW238060   7.194   8.768   6.972
29741SOL     OW38061   4.647   2.082   0.574
29741SOL    HW138062   4.574   2.115   0.633
29741SOL    HW238063   4.608   2.034   0.496
29742SOL     OW38064   2.816   3.415   1.731
29742SOL    HW138065   2.789   3.393   1.637
29742SOL    HW238066   2.853   3.333   1.775
29743SOL     OW38067   3.785  15.940   7.426
29743SOL    HW138068   3.796  15.889   7.511
29743SOL    HW238069   3.875  15.957   7.386
29744SOL     OW38070  12.535  14.037   0.674
29744SOL    HW138071  12.488  13.973   0.736
29744SOL    HW238072  12.486  14.123   0.672
29745SOL     OW38073   6.660  13.296   0.830
29745SOL    HW138074   6.657  13.380   0.776
29745SOL    HW238075   6.714  13.312   0.913
29746SOL     OW38076   2.595  15.375   7.890
29746SOL    HW138077   2.520  15.323   7.849
29746SOL    HW238078   2.572  15.397   7.985
29747SOL     OW38079  11.397  15.758   7.065
29747SOL    HW138080  11.381  15.818   6.986
29747SOL    HW238081  11.437  15.672   7.034
29748SOL     OW38082  12.156   6.258   8.117
29748SOL    HW138083  12.097   6.318   8.063
29748SOL    HW238084  12.111   6.236   8.203
29749SOL     OW38085  15.588   9.415   0.929
29749SOL    HW138086  15.630   9.397   0.840
29749SOL    HW238087  15.547   9.331   0.965
29750SOL     OW38088  12.367   5.773   7.144
29750SOL    HW138089  12.439   5.760   7.076
29750SOL    HW238090  12.322   5.686   7.162
29751SOL     OW38091  15.458   0.628   0.212
29751SOL    HW138092  15.448   0.598   0.117
29751SOL    HW238093  15.398   0.574   0.271
29752SOL     OW38094   2.167   7.542   6.508
29752SOL    HW138095   2.180   7.620   6.447
29752SOL    HW238096   2.242   7.477   6.495
29753SOL     OW38097   7.941  15.581   8.429
29753SOL    HW138098   7.856  15.545   0.012
29753SOL    HW238099   8.012  15.579   0.046
29754SOL     OW38100  16.069   8.372   8.317
29754SOL    HW138101  16.166   8.383   8.292
29754SOL    HW238102  16.029   8.298   8.263
29755SOL     OW38103  10.441  10.189   6.907
29755SOL    HW138104  10.515  10.141   6.860
29755SOL    HW238105  10.475  10.229   6.992
29756SOL     OW38106   1.935  10.798   1.903
29756SOL    HW138107   1.973  10.850   1.980
29756SOL    HW238108   1.994  10.811   1.823
29757SOL     OW38109   9.486   7.940   6.456
29757SOL    HW138110   9.530   7.953   6.545
29757SOL    HW238111   9.440   7.851   6.455
29758SOL     OW38112   5.538  14.864   1.653
29758SOL    HW138113   5.441  14.847   1.635
29758SOL    HW238114   5.583  14.778   1.678
29759SOL     OW38115   6.027  14.115   6.898
29759SOL    HW138116   6.116  14.152   6.871
29759SOL    HW238117   5.960  14.189   6.903
29760SOL     OW38118   5.023   7.293   2.208
29760SOL    HW138119   4.923   7.305   2.214
29760SOL    HW238120   5.050   7.217   2.267
29761SOL     OW38121  12.201  10.963   2.594
29761SOL    HW138122  12.111  10.960   2.551
29761SOL    HW238123  12.251  10.879   2.571
29762SOL     OW38124   6.657  10.125   2.305
29762SOL    HW138125   6.636  10.027   2.298
29762SOL    HW238126   6.590  10.169   2.363
29763SOL     OW38127   9.801  11.195   1.787
29763SOL    HW138128   9.734  11.213   1.715
29763SOL    HW238129   9.767  11.122   1.847
29764SOL     OW38130  15.289  11.269   0.482
29764SOL    HW138131  15.199  11.294   0.515
29764SOL    HW238132  15.280  11.212   0.400
29765SOL     OW38133  15.036  14.329   0.180
29765SOL    HW138134  14.987  14.308   0.095
29765SOL    HW238135  15.100  14.255   0.201
29766SOL     OW38136  15.155  10.005   6.949
29766SOL    HW138137  15.087  10.009   6.876
29766SOL    HW238138  15.244  10.035   6.914
29767SOL     OW38139   9.797  14.788   0.933
29767SOL    HW138140   9.737  14.830   0.864
29767SOL    HW238141   9.782  14.833   1.021
29768SOL     OW38142   9.163   0.704   7.776
29768SOL    HW138143   9.086   0.761   7.803
29768SOL    HW238144   9.197   0.654   7.856
29769SOL     OW38145  13.930   1.743   7.266
29769SOL    HW138146  13.891   1.651   7.268
29769SOL    HW238147  13.960   1.768   7.358
29770SOL     OW38148   0.996   7.834   7.814
29770SOL    HW138149   1.070   7.863   7.752
29770SOL    HW238150   0.959   7.746   7.783
29771SOL     OW38151  12.334   7.470   0.198
29771SOL    HW138152  12.313   7.496   0.293
29771SOL    HW238153  12.415   7.411   0.197
29772SOL     OW38154   0.184   3.840   7.884
29772SOL    HW138155   0.142   3.882   7.965
29772SOL    HW238156   0.281   3.863   7.880
29773SOL     OW38157  15.524   6.513   7.465
29773SOL    HW138158  15.526   6.542   7.369
29773SOL    HW238159  15.535   6.592   7.524
29774SOL     OW38160  14.104   2.140   5.731
29774SOL    HW138161  14.202   2.119   5.725
29774SOL    HW238162  14.076   2.191   5.649
29775SOL     OW38163   7.263   0.975   0.847
29775SOL    HW138164   7.166   0.971   0.825
29775SOL    HW238165   7.281   1.054   0.906
29776SOL     OW38166   8.775   2.709   7.376
29776SOL    HW138167   8.809   2.792   7.420
29776SOL    HW238168   8.748   2.643   7.445
29777SOL     OW38169  14.136  16.809   7.709
29777SOL    HW138170  14.191  16.798   7.791
29777SOL    HW238171  14.044  16.839   7.734
29778SOL     OW38172   7.130  11.134   2.093
29778SOL    HW138173   7.197  11.198   2.130
29778SOL    HW238174   7.041  11.179   2.087
29779SOL     OW38175  11.081  13.464   7.768
29779SOL    HW138176  11.095  13.371   7.735
29779SOL    HW238177  10.987  13.474   7.799
29780SOL     OW38178   8.899  14.903   0.561
29780SOL    HW138179   8.853  14.826   0.605
29780SOL    HW238180   8.970  14.939   0.621
29781SOL     OW38181   1.032   4.727   1.592
29781SOL    HW138182   0.935   4.722   1.618
29781SOL    HW238183   1.070   4.635   1.588
29782SOL     OW38184   6.345   8.557   1.514
29782SOL    HW138185   6.355   8.574   1.416
29782SOL    HW238186   6.310   8.465   1.529
29783SOL     OW38187  15.577   8.880   0.421
29783SOL    HW138188  15.491   8.926   0.397
29783SOL    HW238189  15.596   8.809   0.354
29784SOL     OW38190   5.291   4.913   6.968
29784SOL    HW138191   5.377   4.952   6.935
29784SOL    HW238192   5.282   4.928   7.066
29785SOL     OW38193  10.815   5.701   6.272
29785SOL    HW138194  10.783   5.760   6.197
29785SOL    HW238195  10.833   5.609   6.236
29786SOL     OW38196  14.664  11.261   2.194
29786SOL    HW138197  14.567  11.269   2.213
29786SOL    HW238198  14.694  11.167   2.214
29787SOL     OW38199  12.669   0.601   7.665
29787SOL    HW138200  12.694   0.684   7.615
29787SOL    HW238201  12.695   0.611   7.761
29788SOL     OW38202   7.223  12.451   8.347
29788SOL    HW138203   7.124  12.448   8.334
29788SOL    HW238204   7.243  12.461   8.445
29789SOL     OW38205   6.552   5.928   7.467
29789SOL    HW138206   6.618   5.992   7.427
29789SOL    HW238207   6.598   5.871   7.535
29790SOL     OW38208  11.699  13.745   7.711
29790SOL    HW138209  11.778  13.707   7.759
29790SOL    HW238210  11.705  13.722   7.614
29791SOL     OW38211   6.322  10.791   0.156
29791SOL    HW138212   6.329  10.887   0.131
29791SOL    HW238213   6.389  10.738   0.106
29792SOL     OW38214  14.968   5.596   7.342
29792SOL    HW138215  15.001   5.549   7.425
29792SOL    HW238216  15.044   5.643   7.298
29793SOL     OW38217  16.789  11.448   1.644
29793SOL    HW138218  16.804  11.352   1.669
29793SOL    HW238219  16.743  11.495   1.720
29794SOL     OW38220   4.234  11.679   2.366
29794SOL    HW138221   4.163  11.666   2.435
29794SOL    HW238222   4.313  11.724   2.407
29795SOL     OW38223   1.609  12.906   7.743
29795SOL    HW138224   1.659  12.985   7.778
29795SOL    HW238225   1.658  12.823   7.766
29796SOL     OW38226  10.425  11.300   6.950
29796SOL    HW138227  10.334  11.306   6.992
29796SOL    HW238228  10.454  11.392   6.922
29797SOL     OW38229   0.441  10.353   1.105
29797SOL    HW138230   0.364  10.322   1.160
29797SOL    HW238231   0.493  10.422   1.155
29798SOL     OW38232   8.846  10.033   0.243
29798SOL    HW138233   8.939  10.068   0.226
29798SOL    HW238234   8.848   9.933   0.246
29799SOL     OW38235  15.850  12.766   7.350
29799SOL    HW138236  15.858  12.773   7.251
29799SOL    HW238237  15.879  12.852   7.392
29800SOL     OW38238  11.522  10.447   8.113
29800SOL    HW138239  11.530  10.466   8.211
29800SOL    HW238240  11.575  10.365   8.091
29801SOL     OW38241   9.847   2.207   0.082
29801SOL    HW138242   9.857   2.306   0.086
29801SOL    HW238243   9.891   2.172   8.453
29802SOL     OW38244  14.316  12.132   1.352
29802SOL    HW138245  14.362  12.048   1.380
29802SOL    HW238246  14.226  12.137   1.397
29803SOL     OW38247  11.770   7.928   0.492
29803SOL    HW138248  11.765   7.988   0.571
29803SOL    HW238249  11.818   7.975   0.417
29804SOL     OW38250   0.927   8.174   7.631
29804SOL    HW138251   0.862   8.159   7.706
29804SOL    HW238252   0.907   8.111   7.556
29805SOL     OW38253   7.707   9.967   1.392
29805SOL    HW138254   7.668   9.991   1.481
29805SOL    HW238255   7.753  10.046   1.353
29806SOL     OW38256  15.590   0.448   0.918
29806SOL    HW138257  15.680   0.485   0.940
29806SOL    HW238258  15.543   0.423   1.002
29807SOL     OW38259   7.782  11.330   6.917
29807SOL    HW138260   7.739  11.379   6.842
29807SOL    HW238261   7.800  11.393   6.992
29808SOL     OW38262  10.456  14.923   0.610
29808SOL    HW138263  10.454  14.899   0.708
29808SOL    HW238264  10.551  14.925   0.579
29809SOL     OW38265   4.444  10.879   0.999
29809SOL    HW138266   4.446  10.887   1.099
29809SOL    HW238267   4.492  10.957   0.959
29810SOL     OW38268  14.739  14.909   0.921
29810SOL    HW138269  14.829  14.945   0.894
29810SOL    HW238270  14.752  14.823   0.971
29811SOL     OW38271   0.548   8.744   7.395
29811SOL    HW138272   0.491   8.740   7.477
29811SOL    HW238273   0.610   8.665   7.394
29812SOL     OW38274   5.227  10.810   1.626
29812SOL    HW138275   5.181  10.851   1.547
29812SOL    HW238276   5.160  10.787   1.696
29813SOL     OW38277   7.702  12.350   0.154
29813SOL    HW138278   7.697  12.438   0.107
29813SOL    HW238279   7.652  12.357   0.241
29814SOL     OW38280   7.817   2.768   8.420
29814SOL    HW138281   7.914   2.753   8.403
29814SOL    HW238282   7.763   2.702   8.367
29815SOL     OW38283   8.496  12.450   0.611
29815SOL    HW138284   8.559  12.424   0.538
29815SOL    HW238285   8.403  12.455   0.575
29816SOL     OW38286   6.767   8.484   1.277
29816SOL    HW138287   6.720   8.491   1.365
29816SOL    HW238288   6.851   8.538   1.280
29817SOL     OW38289  14.191  13.287   0.547
29817SOL    HW138290  14.220  13.193   0.562
29817SOL    HW238291  14.175  13.332   0.635
29818SOL     OW38292  13.950   8.727   1.619
29818SOL    HW138293  13.938   8.752   1.715
29818SOL    HW238294  14.037   8.679   1.608
29819SOL     OW38295  12.345   6.083   7.586
29819SOL    HW138296  12.373   6.023   7.512
29819SOL    HW238297  12.248   6.066   7.607
29820SOL     OW38298  12.336   5.455   5.975
29820SOL    HW138299  12.365   5.387   6.043
29820SOL    HW238300  12.408   5.523   5.963
29821SOL     OW38301   9.097   4.245   7.715
29821SOL    HW138302   9.122   4.165   7.661
29821SOL    HW238303   9.053   4.216   7.800
29822SOL     OW38304   0.809   5.598   1.293
29822SOL    HW138305   0.892   5.545   1.306
29822SOL    HW238306   0.789   5.607   1.195
29823SOL     OW38307   9.293   8.670   1.344
29823SOL    HW138308   9.239   8.707   1.269
29823SOL    HW238309   9.295   8.735   1.420
29824SOL     OW38310   7.002  12.858   7.652
29824SOL    HW138311   7.005  12.801   7.570
29824SOL    HW238312   7.052  12.943   7.635
29825SOL     OW38313  13.262  16.976   1.954
29825SOL    HW138314  13.231   0.043   2.035
29825SOL    HW238315  13.361  16.979   1.948
29826SOL     OW38316  16.221  15.065   6.756
29826SOL    HW138317  16.301  15.071   6.696
29826SOL    HW238318  16.176  15.154   6.760
29827SOL     OW38319  13.448  14.832   7.754
29827SOL    HW138320  13.406  14.882   7.830
29827SOL    HW238321  13.415  14.869   7.667
29828SOL     OW38322  12.162   9.494   7.408
29828SOL    HW138323  12.157   9.397   7.435
29828SOL    HW238324  12.070   9.534   7.413
29829SOL     OW38325  14.140  12.207   0.333
29829SOL    HW138326  14.182  12.298   0.336
29829SOL    HW238327  14.173  12.158   0.252
29830SOL     OW38328  11.387   2.009   7.662
29830SOL    HW138329  11.299   2.047   7.632
29830SOL    HW238330  11.404   1.923   7.614
29831SOL     OW38331  10.372  11.496   0.637
29831SOL    HW138332  10.322  11.476   0.554
29831SOL    HW238333  10.325  11.568   0.688
29832SOL     OW38334   4.023  14.477   2.240
29832SOL    HW138335   3.980  14.451   2.326
29832SOL    HW238336   4.073  14.563   2.253
29833SOL     OW38337   3.532  14.243   7.773
29833SOL    HW138338   3.584  14.233   7.689
29833SOL    HW238339   3.584  14.205   7.850
29834SOL     OW38340   1.259  11.570   7.605
29834SOL    HW138341   1.353  11.588   7.577
29834SOL    HW238342   1.216  11.507   7.540
29835SOL     OW38343   5.108   9.268   7.621
29835SOL    HW138344   5.187   9.266   7.683
29835SOL    HW238345   5.057   9.183   7.628
29836SOL     OW38346   4.109   9.286   1.646
29836SOL    HW138347   4.184   9.327   1.595
29836SOL    HW238348   4.029   9.347   1.644
29837SOL     OW38349  11.819  13.426   7.035
29837SOL    HW138350  11.859  13.376   6.958
29837SOL    HW238351  11.752  13.367   7.081
29838SOL     OW38352  13.721  16.684   0.178
29838SOL    HW138353  13.728  16.593   0.219
29838SOL    HW238354  13.772  16.750   0.234
29839SOL     OW38355   8.050   7.696   1.092
29839SOL    HW138356   8.124   7.638   1.059
29839SOL    HW238357   8.081   7.745   1.174
29840SOL     OW38358  13.780   4.992   0.597
29840SOL    HW138359  13.773   4.910   0.652
29840SOL    HW238360  13.695   5.005   0.545
29841SOL     OW38361   9.941  15.715   7.692
29841SOL    HW138362   9.957  15.627   7.647
29841SOL    HW238363   9.949  15.789   7.625
29842SOL     OW38364  13.206  14.557   1.446
29842SOL    HW138365  13.194  14.655   1.460
29842SOL    HW238366  13.117  14.515   1.427
29843SOL     OW38367   4.355   0.934   8.401
29843SOL    HW138368   4.261   0.954   8.425
29843SOL    HW238369   4.368   0.835   8.391
29844SOL     OW38370  16.645  13.855   0.440
29844SOL    HW138371  16.550  13.861   0.472
29844SOL    HW238372  16.686  13.769   0.472
29845SOL     OW38373   8.164   9.469   0.781
29845SOL    HW138374   8.186   9.472   0.684
29845SOL    HW238375   8.105   9.390   0.800
29846SOL     OW38376   5.511   7.362   2.261
29846SOL    HW138377   5.553   7.452   2.272
29846SOL    HW238378   5.477   7.330   2.349
29847SOL     OW38379  12.103   6.036   6.228
29847SOL    HW138380  12.181   6.086   6.190
29847SOL    HW238381  12.086   5.954   6.173
29848SOL     OW38382   4.906   1.770   7.647
29848SOL    HW138383   4.988   1.733   7.692
29848SOL    HW238384   4.841   1.696   7.630
29849SOL     OW38385   8.559  12.936   7.643
29849SOL    HW138386   8.481  12.977   7.691
29849SOL    HW238387   8.555  12.837   7.654
29850SOL     OW38388   4.580   6.007   7.725
29850SOL    HW138389   4.487   6.044   7.729
29850SOL    HW238390   4.641   6.076   7.688
29851SOL     OW38391   2.882  11.924   1.423
29851SOL    HW138392   2.793  11.878   1.428
29851SOL    HW238393   2.909  11.953   1.514
29852SOL     OW38394   5.753   3.347   1.888
29852SOL    HW138395   5.812   3.326   1.810
29852SOL    HW238396   5.724   3.262   1.932
29853SOL     OW38397   1.096   7.515   8.308
29853SOL    HW138398   1.139   7.469   8.229
29853SOL    HW238399   1.166   7.533   8.377
29854SOL     OW38400   0.931   3.072   0.104
29854SOL    HW138401   0.886   3.152   0.065
29854SOL    HW238402   0.890   2.989   0.068
29855SOL     OW38403  13.490  10.114   7.152
29855SOL    HW138404  13.437  10.151   7.229
29855SOL    HW238405  13.518  10.189   7.092
29856SOL     OW38406   0.672   5.896   6.241
29856SOL    HW138407   0.697   5.801   6.263
29856SOL    HW238408   0.656   5.904   6.142
29857SOL     OW38409   6.201   5.817   0.045
29857SOL    HW138410   6.211   5.735   8.443
29857SOL    HW238411   6.177   5.790   0.139
29858SOL     OW38412   4.907   9.085   2.364
29858SOL    HW138413   4.870   9.176   2.382
29858SOL    HW238414   4.933   9.041   2.450
29859SOL     OW38415  11.623  12.819   8.245
29859SOL    HW138416  11.533  12.862   8.241
29859SOL    HW238417  11.624  12.749   8.317
29860SOL     OW38418   1.097   9.511   8.394
29860SOL    HW138419   1.034   9.580   8.360
29860SOL    HW238420   1.180   9.511   8.337
29861SOL     OW38421   3.291   8.647   0.674
29861SOL    HW138422   3.302   8.648   0.575
29861SOL    HW238423   3.359   8.707   0.716
29862SOL     OW38424   4.921   8.833   0.431
29862SOL    HW138425   4.894   8.879   0.347
29862SOL    HW238426   4.911   8.734   0.419
29863SOL     OW38427  15.147   2.512   5.726
29863SOL    HW138428  15.059   2.542   5.765
29863SOL    HW238429  15.196   2.591   5.691
29864SOL     OW38430   0.809   3.810   0.426
29864SOL    HW138431   0.748   3.877   0.468
29864SOL    HW238432   0.790   3.804   0.328
29865SOL     OW38433  11.561   0.761   7.314
29865SOL    HW138434  11.510   0.680   7.344
29865SOL    HW238435  11.566   0.828   7.388
29866SOL     OW38436   0.035   2.569   1.479
29866SOL    HW138437   0.099   2.519   1.537
29866SOL    HW238438  16.926   2.532   1.491
29867SOL     OW38439  14.249  15.660   6.848
29867SOL    HW138440  14.280  15.725   6.918
29867SOL    HW238441  14.155  15.681   6.822
29868SOL     OW38442   5.011   2.076   1.818
29868SOL    HW138443   4.970   2.004   1.874
29868SOL    HW238444   5.110   2.065   1.815
29869SOL     OW38445   3.565   7.305   6.965
29869SOL    HW138446   3.487   7.300   6.902
29869SOL    HW238447   3.644   7.341   6.916
29870SOL     OW38448  14.590  10.208   0.402
29870SOL    HW138449  14.608  10.111   0.386
29870SOL    HW238450  14.672  10.251   0.438
29871SOL     OW38451   7.835   1.876   1.866
29871SOL    HW138452   7.770   1.925   1.808
29871SOL    HW238453   7.786   1.806   1.919
29872SOL     OW38454   3.163   9.853   0.485
29872SOL    HW138455   3.115   9.871   0.400
29872SOL    HW238456   3.260   9.836   0.466
29873SOL     OW38457  12.556   6.161   6.891
29873SOL    HW138458  12.654   6.144   6.882
29873SOL    HW238459  12.505   6.094   6.836
29874SOL     OW38460  14.153   3.356   6.357
29874SOL    HW138461  14.150   3.401   6.268
29874SOL    HW238462  14.061   3.333   6.386
29875SOL     OW38463  11.202  11.124   8.364
29875SOL    HW138464  11.239  11.040   8.404
29875SOL    HW238465  11.192  11.111   8.265
29876SOL     OW38466   2.074  10.311   0.485
29876SOL    HW138467   2.154  10.342   0.434
29876SOL    HW238468   2.089  10.218   0.519
29877SOL     OW38469   4.894  10.710   0.191
29877SOL    HW138470   4.861  10.620   0.162
29877SOL    HW238471   4.991  10.705   0.213
29878SOL     OW38472  13.798   2.040   0.241
29878SOL    HW138473  13.805   2.025   0.143
29878SOL    HW238474  13.856   2.117   0.267
29879SOL     OW38475   3.124  13.415   0.897
29879SOL    HW138476   3.131  13.332   0.952
29879SOL    HW238477   3.192  13.412   0.824
29880SOL     OW38478   8.949  12.464   7.375
29880SOL    HW138479   8.933  12.425   7.466
29880SOL    HW238480   8.880  12.534   7.356
29881SOL     OW38481  15.956  12.676   1.184
29881SOL    HW138482  15.940  12.621   1.102
29881SOL    HW238483  16.019  12.751   1.162
29882SOL     OW38484   9.339  14.889   0.310
29882SOL    HW138485   9.271  14.854   0.246
29882SOL    HW238486   9.349  14.988   0.297
29883SOL     OW38487  14.189  15.682   0.050
29883SOL    HW138488  14.272  15.698   8.450
29883SOL    HW238489  14.131  15.763   0.046
29884SOL     OW38490  16.416   4.933   5.962
29884SOL    HW138491  16.371   4.866   5.903
29884SOL    HW238492  16.510   4.946   5.930
29885SOL     OW38493   3.507   6.530   7.114
29885SOL    HW138494   3.553   6.460   7.059
29885SOL    HW238495   3.494   6.497   7.207
29886SOL     OW38496  12.727   1.585   6.202
29886SOL    HW138497  12.725   1.664   6.264
29886SOL    HW238498  12.814   1.537   6.212
29887SOL     OW38499   9.357  14.244   0.904
29887SOL    HW138500   9.332  14.151   0.879
29887SOL    HW238501   9.281  14.306   0.882
29888SOL     OW38502   0.404  14.146   1.117
29888SOL    HW138503   0.388  14.156   1.019
29888SOL    HW238504   0.317  14.153   1.165
29889SOL     OW38505  12.533  13.358   7.810
29889SOL    HW138506  12.494  13.390   7.723
29889SOL    HW238507  12.583  13.273   7.794
29890SOL     OW38508  16.448   5.509   0.888
29890SOL    HW138509  16.532   5.551   0.923
29890SOL    HW238510  16.461   5.411   0.879
29891SOL     OW38511   2.262  15.469   8.441
29891SOL    HW138512   2.304  15.528   8.373
29891SOL    HW238513   2.294  15.375   8.428
29892SOL     OW38514  16.006   6.122   7.279
29892SOL    HW138515  15.932   6.107   7.345
29892SOL    HW238516  15.969   6.118   7.187
29893SOL     OW38517   1.737   4.915   0.846
29893SOL    HW138518   1.741   4.818   0.822
29893SOL    HW238519   1.829   4.955   0.839
29894SOL     OW38520  10.077  14.976   0.554
29894SOL    HW138521  10.030  14.909   0.612
29894SOL    HW238522  10.148  14.929   0.501
29895SOL     OW38523  14.500  13.277   1.932
29895SOL    HW138524  14.574  13.338   1.960
29895SOL    HW238525  14.507  13.191   1.983
29896SOL     OW38526   8.447   7.553   6.556
29896SOL    HW138527   8.479   7.580   6.647
29896SOL    HW238528   8.354   7.587   6.542
29897SOL     OW38529  14.891   5.904   1.514
29897SOL    HW138530  14.796   5.928   1.538
29897SOL    HW238531  14.906   5.922   1.417
29898SOL     OW38532  10.464   3.855   5.816
29898SOL    HW138533  10.474   3.896   5.907
29898SOL    HW238534  10.445   3.757   5.826
29899SOL     OW38535   8.159  15.920   8.341
29899SOL    HW138536   8.115  15.994   8.393
29899SOL    HW238537   8.238  15.887   8.392
29900SOL     OW38538  13.850  10.902   7.971
29900SOL    HW138539  13.790  10.833   7.931
29900SOL    HW238540  13.945  10.884   7.943
29901SOL     OW38541  10.659  10.233   0.305
29901SOL    HW138542  10.722  10.230   0.383
29901SOL    HW238543  10.565  10.229   0.339
29902SOL     OW38544  14.087  11.291   1.364
29902SOL    HW138545  14.131  11.204   1.346
29902SOL    HW238546  13.996  11.292   1.321
29903SOL     OW38547  14.386   4.109   8.073
29903SOL    HW138548  14.359   4.132   8.167
29903SOL    HW238549  14.484   4.126   8.062
29904SOL     OW38550   3.382   9.631   8.296
29904SOL    HW138551   3.334   9.552   8.335
29904SOL    HW238552   3.327   9.671   8.224
29905SOL     OW38553   0.348  10.704   1.962
29905SOL    HW138554   0.369  10.615   1.922
29905SOL    HW238555   0.384  10.709   2.055
29906SOL     OW38556  10.881  13.167   1.277
29906SOL    HW138557  10.893  13.103   1.201
29906SOL    HW238558  10.911  13.258   1.248
29907SOL     OW38559   6.313   2.278   7.025
29907SOL    HW138560   6.390   2.242   6.972
29907SOL    HW238561   6.241   2.208   7.029
29908SOL     OW38562  14.444  11.613   8.058
29908SOL    HW138563  14.438  11.518   8.026
29908SOL    HW238564  14.385  11.671   8.002
29909SOL     OW38565   0.046  12.757   1.292
29909SOL    HW138566  16.930  12.743   1.289
29909SOL    HW238567   0.066  12.845   1.337
29910SOL     OW38568   9.978   2.863   1.878
29910SOL    HW138569  10.065   2.839   1.836
29910SOL    HW238570   9.976   2.832   1.973
29911SOL     OW38571   7.316   1.875   6.676
29911SOL    HW138572   7.323   1.890   6.578
29911SOL    HW238573   7.234   1.919   6.712
29912SOL     OW38574   4.919   4.402   1.252
29912SOL    HW138575   4.869   4.357   1.178
29912SOL    HW238576   5.005   4.438   1.216
29913SOL     OW38577   6.243   1.131   7.524
29913SOL    HW138578   6.192   1.216   7.510
29913SOL    HW238579   6.199   1.057   7.474
29914SOL     OW38580   2.164   3.135   8.430
29914SOL    HW138581   2.175   3.068   0.049
29914SOL    HW238582   2.241   3.199   8.431
29915SOL     OW38583  14.684  16.306   8.109
29915SOL    HW138584  14.701  16.329   8.013
29915SOL    HW238585  14.757  16.344   8.166
29916SOL     OW38586   7.985   1.567   1.134
29916SOL    HW138587   7.980   1.649   1.191
29916SOL    HW238588   8.069   1.517   1.155
29917SOL     OW38589   9.183   2.032   7.376
29917SOL    HW138590   9.195   1.933   7.374
29917SOL    HW238591   9.246   2.072   7.443
29918SOL     OW38592   7.996  15.244   6.801
29918SOL    HW138593   8.055  15.317   6.836
29918SOL    HW238594   7.957  15.272   6.713
29919SOL     OW38595  10.790  15.750   0.530
29919SOL    HW138596  10.788  15.652   0.513
29919SOL    HW238597  10.706  15.778   0.577
29920SOL     OW38598  11.972  11.788   7.666
29920SOL    HW138599  11.875  11.766   7.679
29920SOL    HW238600  11.982  11.886   7.654
29921SOL     OW38601   1.512  14.934   1.779
29921SOL    HW138602   1.504  15.033   1.766
29921SOL    HW238603   1.511  14.888   1.690
29922SOL     OW38604  16.287   4.816   0.627
29922SOL    HW138605  16.269   4.803   0.530
29922SOL    HW238606  16.384   4.837   0.640
29923SOL     OW38607   7.573  12.187   7.590
29923SOL    HW138608   7.556  12.236   7.504
29923SOL    HW238609   7.657  12.133   7.581
29924SOL     OW38610  16.074  14.942   0.968
29924SOL    HW138611  16.144  14.986   1.024
29924SOL    HW238612  16.019  14.882   1.026
29925SOL     OW38613  13.347   3.409   8.088
29925SOL    HW138614  13.417   3.433   8.021
29925SOL    HW238615  13.269   3.471   8.078
29926SOL     OW38616   1.696   9.734   6.782
29926SOL    HW138617   1.692   9.634   6.775
29926SOL    HW238618   1.781   9.767   6.742
29927SOL     OW38619  10.364   1.744   1.472
29927SOL    HW138620  10.300   1.709   1.403
29927SOL    HW238621  10.341   1.704   1.561
29928SOL     OW38622  11.455   7.215   1.281
29928SOL    HW138623  11.552   7.199   1.261
29928SOL    HW238624  11.399   7.160   1.219
29929SOL     OW38625   4.882   1.297   7.818
29929SOL    HW138626   4.890   1.370   7.887
29929SOL    HW238627   4.917   1.330   7.731
29930SOL     OW38628   3.271  11.985   8.373
29930SOL    HW138629   3.294  12.069   8.322
29930SOL    HW238630   3.192  11.941   8.330
29931SOL     OW38631  16.210   1.295   7.574
29931SOL    HW138632  16.170   1.203   7.579
29931SOL    HW238633  16.160   1.349   7.508
29932SOL     OW38634   1.017   3.241   0.392
29932SOL    HW138635   0.979   3.219   0.302
29932SOL    HW238636   1.096   3.183   0.410
29933SOL     OW38637   4.438   6.144   1.521
29933SOL    HW138638   4.506   6.073   1.502
29933SOL    HW238639   4.357   6.102   1.563
29934SOL     OW38640   4.352  12.727   8.163
29934SOL    HW138641   4.330  12.737   8.260
29934SOL    HW238642   4.450  12.710   8.153
29935SOL     OW38643  10.342   5.168   1.939
29935SOL    HW138644  10.294   5.241   1.989
29935SOL    HW238645  10.415   5.131   1.996
29936SOL     OW38646   4.222  10.513   1.574
29936SOL    HW138647   4.304  10.465   1.603
29936SOL    HW238648   4.226  10.528   1.475
29937SOL     OW38649  14.407   0.221   5.792
29937SOL    HW138650  14.316   0.188   5.768
29937SOL    HW238651  14.476   0.159   5.756
29938SOL     OW38652  11.647   6.766   7.732
29938SOL    HW138653  11.607   6.855   7.755
29938SOL    HW238654  11.701   6.733   7.810
29939SOL     OW38655   5.601   9.643   0.281
29939SOL    HW138656   5.647   9.641   0.192
29939SOL    HW238657   5.533   9.716   0.282
29940SOL     OW38658  15.114   7.293   0.376
29940SOL    HW138659  15.145   7.334   0.461
29940SOL    HW238660  15.083   7.364   0.313
29941SOL     OW38661   1.926   1.420   1.277
29941SOL    HW138662   1.896   1.374   1.194
29941SOL    HW238663   1.858   1.487   1.305
29942SOL     OW38664   1.309  12.251   8.242
29942SOL    HW138665   1.226  12.297   8.210
29942SOL    HW238666   1.317  12.162   8.197
29943SOL     OW38667   4.616   9.951   1.599
29943SOL    HW138668   4.546  10.007   1.643
29943SOL    HW238669   4.677  10.010   1.546
29944SOL     OW38670   9.065  13.354   0.827
29944SOL    HW138671   9.049  13.360   0.729
29944SOL    HW238672   9.085  13.259   0.852
29945SOL     OW38673   4.374  11.173   8.379
29945SOL    HW138674   4.314  11.125   8.315
29945SOL    HW238675   4.319  11.214   8.452
29946SOL     OW38676   5.921  16.168   8.251
29946SOL    HW138677   5.924  16.219   8.165
29946SOL    HW238678   5.827  16.168   8.285
29947SOL     OW38679   6.393   5.439   7.371
29947SOL    HW138680   6.358   5.417   7.462
29947SOL    HW238681   6.412   5.537   7.366
29948SOL     OW38682  11.317  10.820   0.916
29948SOL    HW138683  11.373  10.859   0.843
29948SOL    HW238684  11.355  10.845   1.005
29949SOL     OW38685  10.938   9.008   0.930
29949SOL    HW138686  10.965   9.029   0.836
29949SOL    HW238687  10.843   9.035   0.943
29950SOL     OW38688   7.357   1.371   7.899
29950SOL    HW138689   7.366   1.319   7.984
29950SOL    HW238690   7.351   1.469   7.920
29951SOL     OW38691   1.808   1.233   1.705
29951SOL    HW138692   1.891   1.199   1.749
29951SOL    HW238693   1.745   1.268   1.775
29952SOL     OW38694   5.185   9.461   0.823
29952SOL    HW138695   5.188   9.546   0.770
29952SOL    HW238696   5.092   9.443   0.854
29953SOL     OW38697  12.282  12.243   8.426
29953SOL    HW138698  12.336  12.159   8.422
29953SOL    HW238699  12.192  12.227   8.386
29954SOL     OW38700  12.727  10.511   0.558
29954SOL    HW138701  12.756  10.420   0.589
29954SOL    HW238702  12.628  10.513   0.546
29955SOL     OW38703  13.200   4.900   7.880
29955SOL    HW138704  13.186   4.968   7.952
29955SOL    HW238705  13.268   4.833   7.910
29956SOL     OW38706   7.528   8.260   2.066
29956SOL    HW138707   7.573   8.349   2.072
29956SOL    HW238708   7.467   8.247   2.144
29957SOL     OW38709   4.619  11.922   7.053
29957SOL    HW138710   4.688  11.850   7.060
29957SOL    HW238711   4.552  11.898   6.983
29958SOL     OW38712   8.201   8.371   1.411
29958SOL    HW138713   8.263   8.423   1.469
29958SOL    HW238714   8.127   8.430   1.379
29959SOL     OW38715   7.287   1.191   1.022
29959SOL    HW138716   7.311   1.280   0.983
29959SOL    HW238717   7.328   1.182   1.112
29960SOL     OW38718  11.328  10.375   6.827
29960SOL    HW138719  11.326  10.473   6.806
29960SOL    HW238720  11.278  10.325   6.757
29961SOL     OW38721   2.618   2.712   0.020
29961SOL    HW138722   2.617   2.809   8.449
29961SOL    HW238723   2.646   2.658   8.394
29962SOL     OW38724   2.804  14.053   0.639
29962SOL    HW138725   2.797  13.990   0.561
29962SOL    HW238726   2.900  14.077   0.654
29963SOL     OW38727   7.447  15.476   1.700
29963SOL    HW138728   7.368  15.457   1.758
29963SOL    HW238729   7.527  15.493   1.757
29964SOL     OW38730   8.079  14.644   0.268
29964SOL    HW138731   8.067  14.555   0.224
29964SOL    HW238732   8.045  14.716   0.208
29965SOL     OW38733   1.872   1.108   6.851
29965SOL    HW138734   1.798   1.175   6.840
29965SOL    HW238735   1.846   1.022   6.808
29966SOL     OW38736  15.692   9.870   0.421
29966SOL    HW138737  15.722   9.790   0.370
29966SOL    HW238738  15.707   9.952   0.366
29967SOL     OW38739   2.339   8.622   0.482
29967SOL    HW138740   2.251   8.589   0.516
29967SOL    HW238741   2.411   8.598   0.548
29968SOL     OW38742   1.370  13.286   1.228
29968SOL    HW138743   1.342  13.289   1.132
29968SOL    HW238744   1.389  13.379   1.260
29969SOL     OW38745  12.145   2.454   8.366
29969SOL    HW138746  12.225   2.497   8.410
29969SOL    HW238747  12.153   2.463   8.267
29970SOL     OW38748   7.639   4.260   6.846
29970SOL    HW138749   7.639   4.207   6.762
29970SOL    HW238750   7.727   4.250   6.892
29971SOL     OW38751  16.371   5.172   1.664
29971SOL    HW138752  16.299   5.124   1.714
29971SOL    HW238753  16.457   5.162   1.714
29972SOL     OW38754   0.055   5.907   0.819
29972SOL    HW138755   0.092   5.994   0.853
29972SOL    HW238756  16.941   5.901   0.843
29973SOL     OW38757  10.739   8.293   6.425
29973SOL    HW138758  10.829   8.331   6.445
29973SOL    HW238759  10.725   8.292   6.326
29974SOL     OW38760  15.697   0.901   6.913
29974SOL    HW138761  15.722   0.868   6.822
29974SOL    HW238762  15.604   0.938   6.911
29975SOL     OW38763  14.928   3.001   8.387
29975SOL    HW138764  14.952   3.039   8.298
29975SOL    HW238765  14.832   3.022   8.407
29976SOL     OW38766  10.494  13.077   1.093
29976SOL    HW138767  10.518  13.174   1.083
29976SOL    HW238768  10.519  13.028   1.009
29977SOL     OW38769   8.190  15.325   7.313
29977SOL    HW138770   8.228  15.417   7.325
29977SOL    HW238771   8.102  15.332   7.267
29978SOL     OW38772   6.326  15.340   1.106
29978SOL    HW138773   6.284  15.391   1.181
29978SOL    HW238774   6.378  15.403   1.049
29979SOL     OW38775   3.736  12.346   2.104
29979SOL    HW138776   3.704  12.346   2.198
29979SOL    HW238777   3.721  12.437   2.064
29980SOL     OW38778   6.096   4.037   6.697
29980SOL    HW138779   6.084   3.975   6.775
29980SOL    HW238780   6.120   4.128   6.731
29981SOL     OW38781  16.202   0.891   1.499
29981SOL    HW138782  16.159   0.906   1.588
29981SOL    HW238783  16.280   0.830   1.510
29982SOL     OW38784  15.397  16.840   7.201
29982SOL    HW138785  15.322  16.842   7.267
29982SOL    HW238786  15.423  16.746   7.182
29983SOL     OW38787   6.248   5.611   8.325
29983SOL    HW138788   6.249   5.512   8.340
29983SOL    HW238789   6.318   5.635   8.257
29984SOL     OW38790   8.139   9.312   6.532
29984SOL    HW138791   8.095   9.274   6.613
29984SOL    HW238792   8.238   9.303   6.540
29985SOL     OW38793   3.574   3.850   1.300
29985SOL    HW138794   3.554   3.757   1.269
29985SOL    HW238795   3.618   3.901   1.227
29986SOL     OW38796   8.292   1.624   0.356
29986SOL    HW138797   8.332   1.590   0.440
29986SOL    HW238798   8.226   1.696   0.378
29987SOL     OW38799   2.647   4.095   1.413
29987SOL    HW138800   2.570   4.104   1.477
29987SOL    HW238801   2.732   4.116   1.461
29988SOL     OW38802   8.951  12.495   2.249
29988SOL    HW138803   9.016  12.541   2.188
29988SOL    HW238804   8.995  12.418   2.294
29989SOL     OW38805   0.395   8.571   7.789
29989SOL    HW138806   0.395   8.669   7.810
29989SOL    HW238807   0.367   8.557   7.694
29990SOL     OW38808   5.880  16.794   0.302
29990SOL    HW138809   5.884  16.893   0.310
29990SOL    HW238810   5.807  16.768   0.239
29991SOL     OW38811   7.435  16.780   7.787
29991SOL    HW138812   7.362  16.787   7.855
29991SOL    HW238813   7.504  16.850   7.804
29992SOL     OW38814   8.547   5.904   7.934
29992SOL    HW138815   8.642   5.929   7.915
29992SOL    HW238816   8.521   5.824   7.880
29993SOL     OW38817  13.875   4.631   6.723
29993SOL    HW138818  13.852   4.676   6.637
29993SOL    HW238819  13.961   4.581   6.713
29994SOL     OW38820  10.454  10.492   8.374
29994SOL    HW138821  10.505  10.576   8.394
29994SOL    HW238822  10.492  10.417   8.428
29995SOL     OW38823   7.189  16.165   0.130
29995SOL    HW138824   7.246  16.161   0.212
29995SOL    HW238825   7.182  16.073   0.090
29996SOL     OW38826   4.537   6.088   1.970
29996SOL    HW138827   4.605   6.072   2.042
29996SOL    HW238828   4.545   6.015   1.901
29997SOL     OW38829   4.493   8.012   7.171
29997SOL    HW138830   4.568   8.018   7.105
29997SOL    HW238831   4.515   8.069   7.251
29998SOL     OW38832   9.448   5.827   0.621
29998SOL    HW138833   9.541   5.790   0.622
29998SOL    HW238834   9.393   5.774   0.556
29999SOL     OW38835  13.941  10.693   0.762
29999SOL    HW138836  13.937  10.742   0.675
29999SOL    HW238837  13.904  10.751   0.834
30000SOL     OW38838  12.819  13.734   0.463
30000SOL    HW138839  12.734  13.787   0.458
30000SOL    HW238840  12.802  13.642   0.428
30001SOL     OW38841   8.262   0.988   0.413
30001SOL    HW138842   8.256   0.987   0.314
30001SOL    HW238843   8.198   0.921   0.451
30002SOL     OW38844   6.628  10.387   1.968
30002SOL    HW138845   6.612  10.472   2.018
30002SOL    HW238846   6.688  10.327   2.022
30003SOL     OW38847   8.569   7.877   1.016
30003SOL    HW138848   8.609   7.827   0.939
30003SOL    HW238849   8.538   7.813   1.085
30004SOL     OW38850   0.739   4.890   7.925
30004SOL    HW138851   0.642   4.907   7.942
30004SOL    HW238852   0.786   4.869   8.011
30005SOL     OW38853  13.047  11.485   7.132
30005SOL    HW138854  13.102  11.434   7.198
30005SOL    HW238855  13.028  11.428   7.052
30006SOL     OW38856  12.331   4.652   7.141
30006SOL    HW138857  12.407   4.613   7.090
30006SOL    HW238858  12.246   4.604   7.117
30007SOL     OW38859  11.068  16.300   7.073
30007SOL    HW138860  11.091  16.356   7.153
30007SOL    HW238861  11.116  16.337   6.993
30008SOL     OW38862   1.871   2.356   1.910
30008SOL    HW138863   1.954   2.394   1.951
30008SOL    HW238864   1.796   2.362   1.976
30009SOL     OW38865   9.430  13.239   7.391
30009SOL    HW138866   9.391  13.297   7.320
30009SOL    HW238867   9.357  13.192   7.441
30010SOL     OW38868  13.593  14.509   8.065
30010SOL    HW138869  13.686  14.480   8.041
30010SOL    HW238870  13.542  14.531   7.982
30011SOL     OW38871   0.848   3.852   6.026
30011SOL    HW138872   0.947   3.852   6.011
30011SOL    HW238873   0.802   3.816   5.945
30012SOL     OW38874   6.908   8.407   7.113
30012SOL    HW138875   6.972   8.442   7.045
30012SOL    HW238876   6.959   8.365   7.188
30013SOL     OW38877   1.005   6.188   7.642
30013SOL    HW138878   0.928   6.139   7.601
30013SOL    HW238879   0.979   6.221   7.733
30014SOL     OW38880  16.558  10.541   0.577
30014SOL    HW138881  16.525  10.497   0.661
30014SOL    HW238882  16.529  10.637   0.576
30015SOL     OW38883  14.799  10.504   2.228
30015SOL    HW138884  14.802  10.548   2.139
30015SOL    HW238885  14.777  10.407   2.216
30016SOL     OW38886   0.043   1.678   6.776
30016SOL    HW138887  16.936   1.719   6.760
30016SOL    HW238888   0.098   1.740   6.832
30017SOL     OW38889  16.723   9.593   7.262
30017SOL    HW138890  16.814   9.601   7.223
30017SOL    HW238891  16.689   9.499   7.249
30018SOL     OW38892   4.210   6.855   6.933
30018SOL    HW138893   4.290   6.799   6.953
30018SOL    HW238894   4.152   6.807   6.867
30019SOL     OW38895   4.548   6.296   8.373
30019SOL    HW138896   4.501   6.375   8.413
30019SOL    HW238897   4.644   6.319   8.359
30020SOL     OW38898   4.244   4.077   0.998
30020SOL    HW138899   4.293   4.010   1.054
30020SOL    HW238900   4.198   4.143   1.057
30021SOL     OW38901  11.969  10.363   2.061
30021SOL    HW138902  12.004  10.453   2.086
30021SOL    HW238903  12.037  10.315   2.006
30022SOL     OW38904   5.601   6.941   7.863
30022SOL    HW138905   5.666   6.999   7.814
30022SOL    HW238906   5.534   6.999   7.910
30023SOL     OW38907   3.887   9.848   1.044
30023SOL    HW138908   3.866   9.868   1.140
30023SOL    HW238909   3.983   9.822   1.034
30024SOL     OW38910  10.796  13.308   6.657
30024SOL    HW138911  10.762  13.238   6.593
30024SOL    HW238912  10.882  13.277   6.696
30025SOL     OW38913   0.799   6.347   1.551
30025SOL    HW138914   0.881   6.316   1.599
30025SOL    HW238915   0.823   6.418   1.486
30026SOL     OW38916   3.059   3.741   1.597
30026SOL    HW138917   3.108   3.816   1.642
30026SOL    HW238918   2.979   3.716   1.652
30027SOL     OW38919   8.899  14.459   6.966
30027SOL    HW138920   8.826  14.434   7.030
30027SOL    HW238921   8.924  14.378   6.912
30028SOL     OW38922   6.551   5.199   1.770
30028SOL    HW138923   6.481   5.129   1.756
30028SOL    HW238924   6.522   5.262   1.842
30029SOL     OW38925  12.550  12.817   0.329
30029SOL    HW138926  12.479  12.779   0.387
30029SOL    HW238927  12.524  12.910   0.301
30030SOL     OW38928   1.184  13.124   7.868
30030SOL    HW138929   1.113  13.075   7.817
30030SOL    HW238930   1.262  13.063   7.884
30031SOL     OW38931  15.750  14.335   7.640
30031SOL    HW138932  15.835  14.298   7.680
30031SOL    HW238933  15.688  14.363   7.713
30032SOL     OW38934   5.990  13.843   1.523
30032SOL    HW138935   5.957  13.793   1.443
30032SOL    HW238936   5.979  13.785   1.605
30033SOL     OW38937  13.549  16.701   0.545
30033SOL    HW138938  13.565  16.602   0.548
30033SOL    HW238939  13.467  16.723   0.599
30034SOL     OW38940  13.338   3.607   1.683
30034SOL    HW138941  13.291   3.694   1.694
30034SOL    HW238942  13.398   3.590   1.761
30035SOL     OW38943   1.580   7.074   0.190
30035SOL    HW138944   1.503   7.110   0.244
30035SOL    HW238945   1.652   7.043   0.253
30036SOL     OW38946  16.929  10.405   7.584
30036SOL    HW138947  16.892  10.323   7.540
30036SOL    HW238948   0.038  10.386   7.617
30037SOL     OW38949   8.647  12.127   2.434
30037SOL    HW138950   8.585  12.068   2.487
30037SOL    HW238951   8.615  12.222   2.441
30038SOL     OW38952   9.851   0.517   1.234
30038SOL    HW138953   9.871   0.435   1.179
30038SOL    HW238954   9.934   0.572   1.242
30039SOL     OW38955   1.035   1.801   7.149
30039SOL    HW138956   1.024   1.767   7.056
30039SOL    HW238957   1.114   1.863   7.153
30040SOL     OW38958   7.975  11.540   6.385
30040SOL    HW138959   8.001  11.629   6.347
30040SOL    HW238960   7.879  11.521   6.361
30041SOL     OW38961   2.256  13.959   2.124
30041SOL    HW138962   2.355  13.971   2.138
30041SOL    HW238963   2.232  13.985   2.031
30042SOL     OW38964   2.616   1.296   7.214
30042SOL    HW138965   2.606   1.291   7.314
30042SOL    HW238966   2.712   1.314   7.191
30043SOL     OW38967   0.749  16.554   0.810
30043SOL    HW138968   0.760  16.645   0.770
30043SOL    HW238969   0.799  16.487   0.755
30044SOL     OW38970   1.682   5.606   6.438
30044SOL    HW138971   1.723   5.523   6.477
30044SOL    HW238972   1.678   5.597   6.339
30045SOL     OW38973   3.558   8.713   6.915
30045SOL    HW138974   3.564   8.614   6.902
30045SOL    HW238975   3.574   8.735   7.011
30046SOL     OW38976   8.788   3.350   0.551
30046SOL    HW138977   8.773   3.257   0.584
30046SOL    HW238978   8.887   3.369   0.550
30047SOL     OW38979  15.060   2.527   0.745
30047SOL    HW138980  15.034   2.616   0.707
30047SOL    HW238981  15.156   2.509   0.724
30048SOL     OW38982   8.309   2.662   7.138
30048SOL    HW138983   8.310   2.758   7.166
30048SOL    HW238984   8.372   2.648   7.062
30049SOL     OW38985   4.597   7.025   1.011
30049SOL    HW138986   4.547   7.110   0.996
30049SOL    HW238987   4.695   7.043   1.009
30050SOL     OW38988  16.950   2.100   1.401
30050SOL    HW138989   0.036   2.077   1.469
30050SOL    HW238990  16.940   2.025   1.336
30051SOL     OW38991   9.283  15.277   6.923
30051SOL    HW138992   9.251  15.184   6.938
30051SOL    HW238993   9.236  15.316   6.844
30052SOL     OW38994  16.434  15.009   0.269
30052SOL    HW138995  16.415  15.070   0.346
30052SOL    HW238996  16.469  15.063   0.192
30053SOL     OW38997   1.996  10.760   7.344
30053SOL    HW138998   2.075  10.749   7.404
30053SOL    HW238999   2.025  10.756   7.249
30054SOL     OW39000   4.853   6.707   1.525
30054SOL    HW139001   4.941   6.665   1.548
30054SOL    HW239002   4.816   6.752   1.606
30055SOL     OW39003  11.070   2.720   8.034
30055SOL    HW139004  11.098   2.656   8.105
30055SOL    HW239005  10.987   2.768   8.064
30056SOL     OW39006   9.845   7.841   8.072
30056SOL    HW139007   9.825   7.746   8.047
30056SOL    HW239008   9.850   7.897   7.990
30057SOL     OW39009  14.829   9.415   2.692
30057SOL    HW139010  14.908   9.393   2.634
30057SOL    HW239011  14.858   9.474   2.767
30058SOL     OW39012  13.441   7.031   8.437
30058SOL    HW139013  13.484   6.980   0.057
30058SOL    HW239014  13.456   7.129   8.451
30059SOL     OW39015   8.140  13.806   0.734
30059SOL    HW139016   8.220  13.820   0.793
30059SOL    HW239017   8.070  13.874   0.756
30060SOL     OW39018  15.711  11.723   8.168
30060SOL    HW139019  15.773  11.776   8.226
30060SOL    HW239020  15.655  11.663   8.225
30061SOL     OW39021  12.679  10.645   0.176
30061SOL    HW139022  12.727  10.717   0.126
30061SOL    HW239023  12.622  10.686   0.247
30062SOL     OW39024   4.521   5.714   7.809
30062SOL    HW139025   4.539   5.807   7.778
30062SOL    HW239026   4.513   5.713   7.909
30063SOL     OW39027  11.711   9.300   1.496
30063SOL    HW139028  11.613   9.284   1.511
30063SOL    HW239029  11.762   9.270   1.577
30064SOL     OW39030   1.248   1.947   8.045
30064SOL    HW139031   1.260   2.046   8.047
30064SOL    HW239032   1.160   1.923   8.087
30065SOL     OW39033   4.679   5.826   7.124
30065SOL    HW139034   4.686   5.869   7.034
30065SOL    HW239035   4.729   5.880   7.191
30066SOL     OW39036  13.261  13.690   7.833
30066SOL    HW139037  13.313  13.707   7.916
30066SOL    HW239038  13.178  13.638   7.855
30067SOL     OW39039  12.491   2.795   5.624
30067SOL    HW139040  12.509   2.880   5.575
30067SOL    HW239041  12.411   2.750   5.585
30068SOL     OW39042   5.082  10.197   2.042
30068SOL    HW139043   5.031  10.253   2.108
30068SOL    HW239044   5.115  10.114   2.086
30069SOL     OW39045   1.809   2.228   7.893
30069SOL    HW139046   1.861   2.147   7.919
30069SOL    HW239047   1.844   2.307   7.944
30070SOL     OW39048   3.447  14.973   0.011
30070SOL    HW139049   3.445  15.055   0.069
30070SOL    HW239050   3.465  15.000   8.370
30071SOL     OW39051   6.876   7.342   0.284
30071SOL    HW139052   6.819   7.424   0.280
30071SOL    HW239053   6.911   7.321   0.193
30072SOL     OW39054  10.649  14.319   8.304
30072SOL    HW139055  10.716  14.392   8.305
30072SOL    HW239056  10.558  14.357   8.324
30073SOL     OW39057  16.484   9.708   7.173
30073SOL    HW139058  16.444   9.622   7.140
30073SOL    HW239059  16.576   9.691   7.207
30074SOL     OW39060   8.479  10.911   1.496
30074SOL    HW139061   8.475  11.000   1.540
30074SOL    HW239062   8.414  10.908   1.420
30075SOL     OW39063  14.351  10.082   2.449
30075SOL    HW139064  14.283  10.089   2.376
30075SOL    HW239065  14.313  10.121   2.534
30076SOL     OW39066   1.700  15.077   8.319
30076SOL    HW139067   1.613  15.099   8.364
30076SOL    HW239068   1.683  15.013   8.243
30077SOL     OW39069   7.431   6.105   1.350
30077SOL    HW139070   7.408   6.201   1.339
30077SOL    HW239071   7.402   6.054   1.269
30078SOL     OW39072  13.694   7.150   8.073
30078SOL    HW139073  13.644   7.068   8.102
30078SOL    HW239074  13.723   7.201   8.154
30079SOL     OW39075   2.746   9.614   7.933
30079SOL    HW139076   2.656   9.657   7.922
30079SOL    HW239077   2.804   9.673   7.989
30080SOL     OW39078  14.079   3.763   8.004
30080SOL    HW139079  14.108   3.828   7.933
30080SOL    HW239080  14.041   3.813   8.082
30081SOL     OW39081   7.077  15.514   0.136
30081SOL    HW139082   7.033  15.503   0.047
30081SOL    HW239083   7.084  15.611   0.158
30082SOL     OW39084   0.232   4.819   6.231
30082SOL    HW139085   0.290   4.766   6.293
30082SOL    HW239086   0.137   4.787   6.238
30083SOL     OW39087   8.997  11.207   2.200
30083SOL    HW139088   8.923  11.258   2.245
30083SOL    HW239089   9.039  11.146   2.267
30084SOL     OW39090   6.193   0.073   6.587
30084SOL    HW139091   6.150   0.158   6.555
30084SOL    HW239092   6.131  16.979   6.569
30085SOL     OW39093   3.389  14.078   2.045
30085SOL    HW139094   3.461  14.012   2.065
30085SOL    HW239095   3.316  14.068   2.113
30086SOL     OW39096  14.908  13.879   1.246
30086SOL    HW139097  14.987  13.827   1.214
30086SOL    HW239098  14.829  13.819   1.251
30087SOL     OW39099   3.134   6.583   6.342
30087SOL    HW139100   3.121   6.512   6.272
30087SOL    HW239101   3.124   6.673   6.301
30088SOL     OW39102  15.955   0.370   0.611
30088SOL    HW139103  15.870   0.334   0.649
30088SOL    HW239104  15.997   0.302   0.552
30089SOL     OW39105   3.367   1.794   1.217
30089SOL    HW139106   3.377   1.880   1.167
30089SOL    HW239107   3.454   1.746   1.217
30090SOL     OW39108  13.027  10.441   6.233
30090SOL    HW139109  12.945  10.442   6.177
30090SOL    HW239110  13.094  10.378   6.192
30091SOL     OW39111   1.259  13.610   7.182
30091SOL    HW139112   1.253  13.637   7.086
30091SOL    HW239113   1.282  13.513   7.188
30092SOL     OW39114   6.244  15.929   0.716
30092SOL    HW139115   6.193  15.873   0.651
30092SOL    HW239116   6.298  15.871   0.776
30093SOL     OW39117   9.273   9.297   1.409
30093SOL    HW139118   9.198   9.259   1.355
30093SOL    HW239119   9.246   9.383   1.450
30094SOL     OW39120   3.196  14.894   8.029
30094SOL    HW139121   3.200  14.979   8.082
30094SOL    HW239122   3.144  14.909   7.946
30095SOL     OW39123   2.996   7.296   8.351
30095SOL    HW139124   2.996   7.297   8.451
30095SOL    HW239125   3.090   7.302   8.318
30096SOL     OW39126  12.384  10.393   6.859
30096SOL    HW139127  12.414  10.412   6.765
30096SOL    HW239128  12.376  10.295   6.872
30097SOL     OW39129  15.521   2.352   0.864
30097SOL    HW139130  15.618   2.336   0.883
30097SOL    HW239131  15.501   2.323   0.770
30098SOL     OW39132  13.613   1.096   0.549
30098SOL    HW139133  13.534   1.047   0.588
30098SOL    HW239134  13.673   1.127   0.622
30099SOL     OW39135  15.090  12.491   7.108
30099SOL    HW139136  15.065  12.436   7.029
30099SOL    HW239137  15.062  12.586   7.093
30100SOL     OW39138  13.243   2.823   7.112
30100SOL    HW139139  13.288   2.734   7.112
30100SOL    HW239140  13.248   2.863   7.020
30101SOL     OW39141   5.658   3.887   2.236
30101SOL    HW139142   5.727   3.957   2.217
30101SOL    HW239143   5.609   3.909   2.320
30102SOL     OW39144  13.111   1.929   8.433
30102SOL    HW139145  13.197   1.968   8.402
30102SOL    HW239146  13.123   1.831   8.451
30103SOL     OW39147  10.078   3.800   6.693
30103SOL    HW139148  10.148   3.858   6.734
30103SOL    HW239149  10.108   3.704   6.696
30104SOL     OW39150   4.646  14.091   8.215
30104SOL    HW139151   4.673  14.004   8.255
30104SOL    HW239152   4.676  14.095   8.120
30105SOL     OW39153   9.260  16.369   6.008
30105SOL    HW139154   9.163  16.379   6.028
30105SOL    HW239155   9.296  16.453   5.968
30106SOL     OW39156   9.901  10.020   2.191
30106SOL    HW139157   9.807  10.037   2.222
30106SOL    HW239158   9.944   9.952   2.250
30107SOL     OW39159   1.188  10.628   7.126
30107SOL    HW139160   1.211  10.588   7.037
30107SOL    HW239161   1.114  10.694   7.115
30108SOL     OW39162  13.544   5.430   7.721
30108SOL    HW139163  13.560   5.341   7.679
30108SOL    HW239164  13.464   5.473   7.679
30109SOL     OW39165   5.612   7.621   2.301
30109SOL    HW139166   5.539   7.673   2.346
30109SOL    HW239167   5.700   7.665   2.318
30110SOL     OW39168   4.664  13.497   2.037
30110SOL    HW139169   4.726  13.436   2.086
30110SOL    HW239170   4.624  13.449   1.959
30111SOL     OW39171   2.277  13.889   1.745
30111SOL    HW139172   2.230  13.810   1.706
30111SOL    HW239173   2.212  13.941   1.801
30112SOL     OW39174   9.489   1.421   1.730
30112SOL    HW139175   9.540   1.506   1.745
30112SOL    HW239176   9.510   1.385   1.639
30113SOL     OW39177   0.350  10.303   1.520
30113SOL    HW139178   0.331  10.395   1.555
30113SOL    HW239179   0.439  10.272   1.553
30114SOL     OW39180   6.418   0.618   1.202
30114SOL    HW139181   6.349   0.632   1.131
30114SOL    HW239182   6.493   0.563   1.165
30115SOL     OW39183   6.188   9.717   0.356
30115SOL    HW139184   6.094   9.741   0.330
30115SOL    HW239185   6.186   9.640   0.421
30116SOL     OW39186   9.725  15.474   0.566
30116SOL    HW139187   9.738  15.375   0.576
30116SOL    HW239188   9.801  15.513   0.514
30117SOL     OW39189  12.377  11.480   1.837
30117SOL    HW139190  12.289  11.469   1.791
30117SOL    HW239191  12.366  11.540   1.916
30118SOL     OW39192  14.210  12.712   2.426
30118SOL    HW139193  14.169  12.746   2.511
30118SOL    HW239194  14.304  12.683   2.443
30119SOL     OW39195  14.187  10.228   0.931
30119SOL    HW139196  14.215  10.280   1.012
30119SOL    HW239197  14.146  10.290   0.864
30120SOL     OW39198  13.724   9.380   1.649
30120SOL    HW139199  13.739   9.445   1.723
30120SOL    HW239200  13.653   9.415   1.588
30121SOL     OW39201   8.738  10.288   7.158
30121SOL    HW139202   8.707  10.248   7.071
30121SOL    HW239203   8.837  10.303   7.154
30122SOL     OW39204  12.209  13.967   1.036
30122SOL    HW139205  12.255  13.987   1.123
30122SOL    HW239206  12.163  14.049   1.004
30123SOL     OW39207  14.848   7.668   0.439
30123SOL    HW139208  14.933   7.672   0.493
30123SOL    HW239209  14.869   7.690   0.343
30124SOL     OW39210   9.078   6.877   7.138
30124SOL    HW139211   9.033   6.873   7.049
30124SOL    HW239212   9.145   6.952   7.139
30125SOL     OW39213   0.096  11.191   7.133
30125SOL    HW139214   0.009  11.214   7.092
30125SOL    HW239215   0.135  11.111   7.088
30126SOL     OW39216   2.841  16.456   2.132
30126SOL    HW139217   2.769  16.525   2.119
30126SOL    HW239218   2.812  16.390   2.202
30127SOL     OW39219  13.787   0.397   0.866
30127SOL    HW139220  13.735   0.395   0.951
30127SOL    HW239221  13.783   0.488   0.826
30128SOL     OW39222   6.969  12.711   6.744
30128SOL    HW139223   6.914  12.627   6.747
30128SOL    HW239224   6.976  12.742   6.649
30129SOL     OW39225   2.181   4.306   7.079
30129SOL    HW139226   2.097   4.291   7.027
30129SOL    HW239227   2.209   4.401   7.072
30130SOL     OW39228   9.593  11.430   8.382
30130SOL    HW139229   9.620  11.483   8.302
30130SOL    HW239230   9.573  11.493   0.004
30131SOL     OW39231  10.349   6.611   0.852
30131SOL    HW139232  10.374   6.542   0.784
30131SOL    HW239233  10.401   6.695   0.834
30132SOL     OW39234  14.080   5.100   1.279
30132SOL    HW139235  14.020   5.171   1.318
30132SOL    HW239236  14.135   5.138   1.206
30133SOL     OW39237  16.806   9.010   7.615
30133SOL    HW139238  16.894   8.962   7.612
30133SOL    HW239239  16.734   8.950   7.581
30134SOL     OW39240  11.115  10.061   6.224
30134SOL    HW139241  11.186   9.995   6.249
30134SOL    HW239242  11.025  10.022   6.243
30135SOL     OW39243  10.995   8.488   8.418
30135SOL    HW139244  10.910   8.518   0.006
30135SOL    HW239245  11.011   8.539   8.334
30136SOL     OW39246   8.113   9.843   8.026
30136SOL    HW139247   8.155   9.918   8.077
30136SOL    HW239248   8.062   9.881   7.949
30137SOL     OW39249  10.488   4.646   1.487
30137SOL    HW139250  10.399   4.670   1.448
30137SOL    HW239251  10.548   4.726   1.486
30138SOL     OW39252   9.424  10.292   8.180
30138SOL    HW139253   9.481  10.331   8.252
30138SOL    HW239254   9.342  10.251   8.220
30139SOL     OW39255   4.160  14.713   1.125
30139SOL    HW139256   4.142  14.794   1.180
30139SOL    HW239257   4.088  14.646   1.140
30140SOL     OW39258   1.218  10.400   8.178
30140SOL    HW139259   1.165  10.331   8.129
30140SOL    HW239260   1.164  10.484   8.186
30141SOL     OW39261  12.797   3.791   1.119
30141SOL    HW139262  12.869   3.832   1.064
30141SOL    HW239263  12.835   3.758   1.205
30142SOL     OW39264  13.420  15.951   1.013
30142SOL    HW139265  13.350  16.012   0.975
30142SOL    HW239266  13.491  15.935   0.944
30143SOL     OW39267   3.197  15.971   1.625
30143SOL    HW139268   3.288  15.930   1.620
30143SOL    HW239269   3.171  16.004   1.534
30144SOL     OW39270   5.095  16.962   6.741
30144SOL    HW139271   5.150   0.062   6.738
30144SOL    HW239272   5.087  16.930   6.835
30145SOL     OW39273  14.203   5.668   7.702
30145SOL    HW139274  14.144   5.597   7.665
30145SOL    HW239275  14.231   5.730   7.628
30146SOL     OW39276   6.604   1.275   0.592
30146SOL    HW139277   6.529   1.251   0.530
30146SOL    HW239278   6.656   1.351   0.554
30147SOL     OW39279   8.993   8.866   8.415
30147SOL    HW139280   8.900   8.899   8.403
30147SOL    HW239281   9.012   8.856   0.059
30148SOL     OW39282   2.812  12.690   7.819
30148SOL    HW139283   2.750  12.753   7.867
30148SOL    HW239284   2.896  12.739   7.795
30149SOL     OW39285   7.140  10.503   8.375
30149SOL    HW139286   7.106  10.410   8.386
30149SOL    HW239287   7.084  10.551   8.307
30150SOL     OW39288  11.962   4.404   1.300
30150SOL    HW139289  11.926   4.374   1.212
30150SOL    HW239290  11.895   4.463   1.345
30151SOL     OW39291  13.099  10.722   8.365
30151SOL    HW139292  13.003  10.700   8.346
30151SOL    HW239293  13.126  10.804   8.315
30152SOL     OW39294   2.763  11.704   2.020
30152SOL    HW139295   2.741  11.773   1.950
30152SOL    HW239296   2.846  11.732   2.069
30153SOL     OW39297  14.830  10.342   0.519
30153SOL    HW139298  14.826  10.346   0.619
30153SOL    HW239299  14.853  10.432   0.483
30154SOL     OW39300  14.080   5.404   5.833
30154SOL    HW139301  14.153   5.387   5.767
30154SOL    HW239302  14.085   5.499   5.864
30155SOL     OW39303  15.151   3.963   8.270
30155SOL    HW139304  15.184   3.919   8.353
30155SOL    HW239305  15.084   4.034   8.295
30156SOL     OW39306   1.273  16.419   1.737
30156SOL    HW139307   1.185  16.463   1.753
30156SOL    HW239308   1.340  16.487   1.708
30157SOL     OW39309   4.515   2.371   7.485
30157SOL    HW139310   4.580   2.406   7.552
30157SOL    HW239311   4.556   2.376   7.394
30158SOL     OW39312   0.533   5.867   6.651
30158SOL    HW139313   0.578   5.926   6.584
30158SOL    HW239314   0.484   5.923   6.718
30159SOL     OW39315  13.205   9.329   0.028
30159SOL    HW139316  13.258   9.401   8.437
30159SOL    HW239317  13.125   9.370   0.072
30160SOL     OW39318  16.779  12.495   8.081
30160SOL    HW139319  16.766  12.450   7.992
30160SOL    HW239320  16.709  12.565   8.092
30161SOL     OW39321   0.050  11.480   7.209
30161SOL    HW139322   0.076  11.388   7.183
30161SOL    HW239323   0.131  11.538   7.216
30162SOL     OW39324  11.087  15.632   0.363
30162SOL    HW139325  11.089  15.643   0.462
30162SOL    HW239326  11.181  15.621   0.329
30163SOL     OW39327  16.157  11.662   0.995
30163SOL    HW139328  16.172  11.579   1.048
30163SOL    HW239329  16.059  11.679   0.986
30164SOL     OW39330   3.644  12.352   2.359
30164SOL    HW139331   3.701  12.406   2.422
30164SOL    HW239332   3.623  12.264   2.401
30165SOL     OW39333  13.481   6.381   7.419
30165SOL    HW139334  13.496   6.468   7.465
30165SOL    HW239335  13.383   6.371   7.397
30166SOL     OW39336  16.276   4.442   6.447
30166SOL    HW139337  16.282   4.365   6.384
30166SOL    HW239338  16.236   4.412   6.534
30167SOL     OW39339   3.562   4.900   0.863
30167SOL    HW139340   3.602   4.988   0.891
30167SOL    HW239341   3.488   4.876   0.925
30168SOL     OW39342   9.428   3.578   8.108
30168SOL    HW139343   9.465   3.655   8.057
30168SOL    HW239344   9.490   3.500   8.100
30169SOL     OW39345  11.445  12.273   1.639
30169SOL    HW139346  11.510  12.341   1.606
30169SOL    HW239347  11.358  12.317   1.660
30170SOL     OW39348  11.523   8.526   1.754
30170SOL    HW139349  11.596   8.529   1.686
30170SOL    HW239350  11.561   8.541   1.845
30171SOL     OW39351  16.349   9.340   1.624
30171SOL    HW139352  16.380   9.266   1.564
30171SOL    HW239353  16.332   9.304   1.716
30172SOL     OW39354  14.150  13.364   7.014
30172SOL    HW139355  14.089  13.337   6.939
30172SOL    HW239356  14.095  13.385   7.095
30173SOL     OW39357   2.163   7.311   6.719
30173SOL    HW139358   2.078   7.319   6.666
30173SOL    HW239359   2.242   7.317   6.658
30174SOL     OW39360  11.014   6.710   0.273
30174SOL    HW139361  11.041   6.753   0.359
30174SOL    HW239362  10.915   6.715   0.263
30175SOL     OW39363   5.962  10.411   8.255
30175SOL    HW139364   6.036  10.444   8.314
30175SOL    HW239365   5.990  10.327   8.210
30176SOL     OW39366   4.836  12.899   0.811
30176SOL    HW139367   4.791  12.811   0.798
30176SOL    HW239368   4.887  12.898   0.897
30177SOL     OW39369   5.439   2.992   8.359
30177SOL    HW139370   5.527   3.026   8.392
30177SOL    HW239371   5.427   3.018   8.263
30178SOL     OW39372   2.081   9.991   1.235
30178SOL    HW139373   2.046  10.028   1.320
30178SOL    HW239374   2.137   9.911   1.254
30179SOL     OW39375   9.162   3.491   8.363
30179SOL    HW139376   9.081   3.479   8.420
30179SOL    HW239377   9.135   3.520   8.271
30180SOL     OW39378  12.265   7.776   1.547
30180SOL    HW139379  12.211   7.857   1.525
30180SOL    HW239380  12.255   7.755   1.645
30181SOL     OW39381   6.684  16.549   6.694
30181SOL    HW139382   6.745  16.563   6.772
30181SOL    HW239383   6.600  16.601   6.707
30182SOL     OW39384   3.353  12.632   1.628
30182SOL    HW139385   3.345  12.726   1.662
30182SOL    HW239386   3.317  12.627   1.536
30183SOL     OW39387  10.254   0.834   6.508
30183SOL    HW139388  10.263   0.742   6.544
30183SOL    HW239389  10.275   0.834   6.410
30184SOL     OW39390   5.633   7.906   0.340
30184SOL    HW139391   5.609   7.811   0.363
30184SOL    HW239392   5.676   7.909   0.250
30185SOL     OW39393  14.012   2.815   8.211
30185SOL    HW139394  14.077   2.876   8.165
30185SOL    HW239395  13.923   2.821   8.166
30186SOL     OW39396   7.826  12.487   1.638
30186SOL    HW139397   7.742  12.526   1.601
30186SOL    HW239398   7.906  12.532   1.597
30187SOL     OW39399   8.477  14.304   6.879
30187SOL    HW139400   8.506  14.302   6.783
30187SOL    HW239401   8.503  14.391   6.919
30188SOL     OW39402  13.779  13.072   1.874
30188SOL    HW139403  13.713  13.028   1.934
30188SOL    HW239404  13.741  13.080   1.782
30189SOL     OW39405   0.974   2.070   8.378
30189SOL    HW139406   1.006   2.141   8.316
30189SOL    HW239407   1.008   2.088   0.017
30190SOL     OW39408  12.434   9.574   7.479
30190SOL    HW139409  12.340   9.550   7.455
30190SOL    HW239410  12.443   9.673   7.486
30191SOL     OW39411   1.154   5.680   1.540
30191SOL    HW139412   1.203   5.736   1.607
30191SOL    HW239413   1.121   5.597   1.585
30192SOL     OW39414  13.060  11.126   7.416
30192SOL    HW139415  13.115  11.042   7.409
30192SOL    HW239416  13.071  11.165   7.507
30193SOL     OW39417   0.118   7.234   7.671
30193SOL    HW139418   0.040   7.289   7.640
30193SOL    HW239419   0.181   7.292   7.723
30194SOL     OW39420   8.433  10.534   7.198
30194SOL    HW139421   8.507  10.579   7.148
30194SOL    HW239422   8.348  10.585   7.182
30195SOL     OW39423  10.897  11.171   6.606
30195SOL    HW139424  10.849  11.237   6.548
30195SOL    HW239425  10.942  11.103   6.548
30196SOL     OW39426   3.383   2.331   7.765
30196SOL    HW139427   3.364   2.425   7.734
30196SOL    HW239428   3.475   2.305   7.736
30197SOL     OW39429  15.736  12.829   1.251
30197SOL    HW139430  15.808  12.766   1.219
30197SOL    HW239431  15.758  12.859   1.344
30198SOL     OW39432   2.203   1.356   7.008
30198SOL    HW139433   2.301   1.373   7.001
30198SOL    HW239434   2.170   1.314   6.924
30199SOL     OW39435  10.576   9.625   0.428
30199SOL    HW139436  10.577   9.602   0.526
30199SOL    HW239437  10.492   9.676   0.407
30200SOL     OW39438   3.607  12.687   1.230
30200SOL    HW139439   3.543  12.746   1.279
30200SOL    HW239440   3.666  12.742   1.171
30201SOL     OW39441  11.367   0.202   7.092
30201SOL    HW139442  11.458   0.172   7.063
30201SOL    HW239443  11.367   0.302   7.099
30202SOL     OW39444  16.900   9.221   1.066
30202SOL    HW139445  16.811   9.252   1.032
30202SOL    HW239446  16.911   9.247   1.162
30203SOL     OW39447  13.793  10.892   1.537
30203SOL    HW139448  13.878  10.840   1.534
30203SOL    HW239449  13.737  10.870   1.458
30204SOL     OW39450   6.826   0.455   8.230
30204SOL    HW139451   6.851   0.376   8.286
30204SOL    HW239452   6.834   0.433   8.133
30205SOL     OW39453   8.350   6.443   1.176
30205SOL    HW139454   8.352   6.390   1.092
30205SOL    HW239455   8.425   6.508   1.177
30206SOL     OW39456   6.520   6.595   1.400
30206SOL    HW139457   6.501   6.550   1.313
30206SOL    HW239458   6.607   6.644   1.394
30207SOL     OW39459  16.119  16.238   0.898
30207SOL    HW139460  16.154  16.178   0.826
30207SOL    HW239461  16.047  16.190   0.948
30208SOL     OW39462   3.379   0.275   8.116
30208SOL    HW139463   3.352   0.346   8.181
30208SOL    HW239464   3.479   0.264   8.119
30209SOL     OW39465   5.326   6.996   1.623
30209SOL    HW139466   5.401   7.052   1.589
30209SOL    HW239467   5.239   7.043   1.608
30210SOL     OW39468  10.816  14.531   6.737
30210SOL    HW139469  10.730  14.484   6.714
30210SOL    HW239470  10.874  14.536   6.657
30211SOL     OW39471   8.764   8.203   7.455
30211SOL    HW139472   8.670   8.197   7.487
30211SOL    HW239473   8.774   8.153   7.369
30212SOL     OW39474  13.927  13.572   0.424
30212SOL    HW139475  13.950  13.480   0.390
30212SOL    HW239476  13.996  13.637   0.391
30213SOL     OW39477   5.578  12.322   7.949
30213SOL    HW139478   5.597  12.226   7.966
30213SOL    HW239479   5.524  12.359   8.025
30214SOL     OW39480   9.903  11.776   0.357
30214SOL    HW139481   9.993  11.815   0.378
30214SOL    HW239482   9.904  11.679   0.378
30215SOL     OW39483  10.526   8.250   1.190
30215SOL    HW139484  10.492   8.316   1.257
30215SOL    HW239485  10.577   8.298   1.119
30216SOL     OW39486  12.225   4.737   6.077
30216SOL    HW139487  12.193   4.667   6.012
30216SOL    HW239488  12.242   4.822   6.027
30217SOL     OW39489   8.617   0.503   8.253
30217SOL    HW139490   8.627   0.516   8.351
30217SOL    HW239491   8.529   0.459   8.233
30218SOL     OW39492   3.526  16.415   8.206
30218SOL    HW139493   3.572  16.341   8.158
30218SOL    HW239494   3.448  16.378   8.257
30219SOL     OW39495   7.870  11.571   1.285
30219SOL    HW139496   7.936  11.509   1.328
30219SOL    HW239497   7.800  11.596   1.351
30220SOL     OW39498   5.317   9.836   1.253
30220SOL    HW139499   5.251   9.791   1.313
30220SOL    HW239500   5.392   9.774   1.233
30221SOL     OW39501   2.320   2.265   7.728
30221SOL    HW139502   2.374   2.337   7.686
30221SOL    HW239503   2.326   2.272   7.828
30222SOL     OW39504  11.595   0.692   0.438
30222SOL    HW139505  11.507   0.737   0.421
30222SOL    HW239506  11.580   0.599   0.469
30223SOL     OW39507   8.410  15.235   0.417
30223SOL    HW139508   8.507  15.260   0.428
30223SOL    HW239509   8.403  15.156   0.356
30224SOL     OW39510   4.669  12.991   2.201
30224SOL    HW139511   4.729  13.038   2.266
30224SOL    HW239512   4.579  13.034   2.202
30225SOL     OW39513  15.801  11.186   6.971
30225SOL    HW139514  15.747  11.270   6.957
30225SOL    HW239515  15.834  11.183   7.065
30226SOL     OW39516   4.251   4.778   6.866
30226SOL    HW139517   4.270   4.694   6.814
30226SOL    HW239518   4.225   4.851   6.803
30227SOL     OW39519   3.166  10.465   1.675
30227SOL    HW139520   3.150  10.431   1.768
30227SOL    HW239521   3.220  10.549   1.679
30228SOL     OW39522   3.610  11.901   6.867
30228SOL    HW139523   3.521  11.910   6.911
30228SOL    HW239524   3.610  11.818   6.811
30229SOL     OW39525   6.649   2.308   0.902
30229SOL    HW139526   6.716   2.344   0.968
30229SOL    HW239527   6.558   2.341   0.927
30230SOL     OW39528  10.120  12.090   2.342
30230SOL    HW139529  10.085  12.183   2.329
30230SOL    HW239530  10.209  12.094   2.388
30231SOL     OW39531   1.727   3.570   1.429
30231SOL    HW139532   1.774   3.615   1.505
30231SOL    HW239533   1.630   3.559   1.453
30232SOL     OW39534   7.420   5.902   8.329
30232SOL    HW139535   7.477   5.820   8.324
30232SOL    HW239536   7.479   5.982   8.344
30233SOL     OW39537  16.549  13.958   7.789
30233SOL    HW139538  16.611  13.896   7.740
30233SOL    HW239539  16.490  13.905   7.850
30234SOL     OW39540  11.205   6.786   0.728
30234SOL    HW139541  11.162   6.817   0.643
30234SOL    HW239542  11.147   6.718   0.772
30235SOL     OW39543  10.223   9.178   7.622
30235SOL    HW139544  10.138   9.141   7.584
30235SOL    HW239545  10.300   9.148   7.566
30236SOL     OW39546  14.907   6.917   8.139
30236SOL    HW139547  14.862   6.997   8.180
30236SOL    HW239548  14.849   6.837   8.150
30237SOL     OW39549   9.723   5.004   7.177
30237SOL    HW139550   9.796   4.963   7.232
30237SOL    HW239551   9.659   4.933   7.148
30238SOL     OW39552  15.718   0.848   8.039
30238SOL    HW139553  15.686   0.760   8.074
30238SOL    HW239554  15.665   0.922   8.080
30239SOL     OW39555   5.357  16.234   1.233
30239SOL    HW139556   5.314  16.185   1.309
30239SOL    HW239557   5.330  16.330   1.235
30240SOL     OW39558  12.165   9.838   0.040
30240SOL    HW139559  12.122   9.757   0.081
30240SOL    HW239560  12.175   9.824   8.395
30241SOL     OW39561   3.746  13.700   1.690
30241SOL    HW139562   3.772  13.708   1.786
30241SOL    HW239563   3.674  13.766   1.670
30242SOL     OW39564   0.448  12.634   2.156
30242SOL    HW139565   0.517  12.610   2.087
30242SOL    HW239566   0.468  12.586   2.241
30243SOL     OW39567  15.970  16.147   7.098
30243SOL    HW139568  15.957  16.235   7.052
30243SOL    HW239569  16.061  16.145   7.140
30244SOL     OW39570  14.832  13.344   1.784
30244SOL    HW139571  14.929  13.367   1.782
30244SOL    HW239572  14.790  13.383   1.866
30245SOL     OW39573  13.090   3.034   6.224
30245SOL    HW139574  13.114   2.939   6.203
30245SOL    HW239575  13.137   3.095   6.159
30246SOL     OW39576   6.771   7.059   0.279
30246SOL    HW139577   6.732   7.087   0.192
30246SOL    HW239578   6.805   7.140   0.327
30247SOL     OW39579  11.114  11.362   7.019
30247SOL    HW139580  11.149  11.314   6.938
30247SOL    HW239581  11.181  11.357   7.092
30248SOL     OW39582   0.970   3.383   0.939
30248SOL    HW139583   0.886   3.380   0.994
30248SOL    HW239584   0.982   3.475   0.903
30249SOL     OW39585  12.150  11.424   7.846
30249SOL    HW139586  12.130  11.521   7.859
30249SOL    HW239587  12.184  11.409   7.753
30250SOL     OW39588   0.717  13.827   0.698
30250SOL    HW139589   0.731  13.817   0.797
30250SOL    HW239590   0.776  13.900   0.664
30251SOL     OW39591   1.588   2.836   7.167
30251SOL    HW139592   1.605   2.759   7.105
30251SOL    HW239593   1.495   2.827   7.205
30252SOL     OW39594   7.208   4.323   7.880
30252SOL    HW139595   7.264   4.297   7.801
30252SOL    HW239596   7.222   4.420   7.900
30253SOL     OW39597  15.962   1.403   8.378
30253SOL    HW139598  16.003   1.493   8.369
30253SOL    HW239599  15.958   1.377   0.021
30254SOL     OW39600   5.124   2.952   2.074
30254SOL    HW139601   5.166   2.935   1.985
30254SOL    HW239602   5.150   2.879   2.137
30255SOL     OW39603  16.747  15.966   0.126
30255SOL    HW139604  16.751  15.893   0.058
30255SOL    HW239605  16.829  16.023   0.119
30256SOL     OW39606   8.668   3.467   0.764
30256SOL    HW139607   8.714   3.430   0.683
30256SOL    HW239608   8.585   3.415   0.782
30257SOL     OW39609   8.176  16.847   7.524
30257SOL    HW139610   8.089  16.801   7.543
30257SOL    HW239611   8.183  16.866   7.426
30258SOL     OW39612   9.118   6.482   6.028
30258SOL    HW139613   9.160   6.532   5.953
30258SOL    HW239614   9.187   6.428   6.076
30259SOL     OW39615   8.587   4.763   7.830
30259SOL    HW139616   8.542   4.684   7.873
30259SOL    HW239617   8.682   4.740   7.809
30260SOL     OW39618   3.792   0.973   8.109
30260SOL    HW139619   3.736   0.938   8.033
30260SOL    HW239620   3.846   1.050   8.076
30261SOL     OW39621  12.742  16.242   6.886
30261SOL    HW139622  12.657  16.246   6.834
30261SOL    HW239623  12.758  16.330   6.930
30262SOL     OW39624   8.023   6.350   6.040
30262SOL    HW139625   8.040   6.252   6.028
30262SOL    HW239626   8.104   6.401   6.010
30263SOL     OW39627  13.240  12.308   0.426
30263SOL    HW139628  13.229  12.212   0.454
30263SOL    HW239629  13.210  12.368   0.500
30264SOL     OW39630  16.292   0.300   7.591
30264SOL    HW139631  16.238   0.379   7.622
30264SOL    HW239632  16.278   0.286   7.493
30265SOL     OW39633   6.314  10.272   1.448
30265SOL    HW139634   6.316  10.361   1.494
30265SOL    HW239635   6.300  10.200   1.517
30266SOL     OW39636  13.268   5.106   1.345
30266SOL    HW139637  13.318   5.035   1.295
30266SOL    HW239638  13.207   5.063   1.411
30267SOL     OW39639   2.966   7.288   0.172
30267SOL    HW139640   2.981   7.364   0.236
30267SOL    HW239641   3.000   7.203   0.213
30268SOL     OW39642  11.776   8.711   6.966
30268SOL    HW139643  11.835   8.641   7.006
30268SOL    HW239644  11.832   8.790   6.939
30269SOL     OW39645   5.019   3.860   0.613
30269SOL    HW139646   5.044   3.765   0.597
30269SOL    HW239647   5.080   3.900   0.681
30270SOL     OW39648   8.768   0.874   8.393
30270SOL    HW139649   8.845   0.915   8.442
30270SOL    HW239650   8.728   0.942   8.331
30271SOL     OW39651   1.627  10.750   7.856
30271SOL    HW139652   1.710  10.790   7.816
30271SOL    HW239653   1.547  10.790   7.812
30272SOL     OW39654  16.879   9.824   0.848
30272SOL    HW139655  16.792   9.869   0.868
30272SOL    HW239656  16.915   9.859   0.762
30273SOL     OW39657   2.139   8.553   7.333
30273SOL    HW139658   2.197   8.631   7.309
30273SOL    HW239659   2.083   8.577   7.412
30274SOL     OW39660   8.196  12.134   7.279
30274SOL    HW139661   8.257  12.086   7.341
30274SOL    HW239662   8.179  12.078   7.198
30275SOL     OW39663   4.564   1.882   0.892
30275SOL    HW139664   4.637   1.815   0.882
30275SOL    HW239665   4.587   1.965   0.842
30276SOL     OW39666   6.422   7.006   8.430
30276SOL    HW139667   6.428   7.101   0.008
30276SOL    HW239668   6.436   7.003   8.331
30277SOL     OW39669   3.511  10.417   2.908
30277SOL    HW139670   3.499  10.435   2.811
30277SOL    HW239671   3.499  10.502   2.960
30278SOL     OW39672   8.397   4.925   1.889
30278SOL    HW139673   8.365   5.013   1.924
30278SOL    HW239674   8.363   4.852   1.948
30279SOL     OW39675   7.552   0.956   6.782
30279SOL    HW139676   7.524   0.983   6.690
30279SOL    HW239677   7.523   1.025   6.848
30280SOL     OW39678  13.957  14.739   8.193
30280SOL    HW139679  13.994  14.717   8.103
30280SOL    HW239680  13.857  14.734   8.191
30281SOL     OW39681   8.545   9.691   0.260
30281SOL    HW139682   8.500   9.743   0.188
30281SOL    HW239683   8.644   9.702   0.252
30282SOL     OW39684   4.876  16.312   1.233
30282SOL    HW139685   4.852  16.377   1.305
30282SOL    HW239686   4.921  16.360   1.158
30283SOL     OW39687   5.260   8.280   8.273
30283SOL    HW139688   5.248   8.305   8.177
30283SOL    HW239689   5.324   8.203   8.279
30284SOL     OW39690   9.412   8.205   6.917
30284SOL    HW139691   9.494   8.209   6.859
30284SOL    HW239692   9.435   8.239   7.008
30285SOL     OW39693  12.732  16.885   1.003
30285SOL    HW139694  12.759  16.807   1.059
30285SOL    HW239695  12.765  16.871   0.909
30286SOL     OW39696   6.451  15.130   7.581
30286SOL    HW139697   6.425  15.048   7.530
30286SOL    HW239698   6.538  15.164   7.545
30287SOL     OW39699   9.276  10.661   7.821
30287SOL    HW139700   9.209  10.626   7.756
30287SOL    HW239701   9.358  10.690   7.772
30288SOL     OW39702  10.756  11.175   6.838
30288SOL    HW139703  10.806  11.163   6.753
30288SOL    HW239704  10.666  11.132   6.831
30289SOL     OW39705  10.694   0.609   0.092
30289SOL    HW139706  10.706   0.554   0.010
30289SOL    HW239707  10.608   0.582   0.137
30290SOL     OW39708  14.939   7.750   6.362
30290SOL    HW139709  14.902   7.836   6.397
30290SOL    HW239710  15.038   7.757   6.353
30291SOL     OW39711   6.794  11.792   5.956
30291SOL    HW139712   6.800  11.852   5.876
30291SOL    HW239713   6.880  11.741   5.966
30292SOL     OW39714   1.441  13.405   0.721
30292SOL    HW139715   1.482  13.427   0.809
30292SOL    HW239716   1.347  13.440   0.718
30293SOL     OW39717  11.433   2.335   0.805
30293SOL    HW139718  11.441   2.244   0.764
30293SOL    HW239719  11.440   2.405   0.734
30294SOL     OW39720   9.615   1.821   0.889
30294SOL    HW139721   9.678   1.857   0.957
30294SOL    HW239722   9.590   1.727   0.914
30295SOL     OW39723  15.309  10.698   0.535
30295SOL    HW139724  15.349  10.783   0.502
30295SOL    HW239725  15.266  10.713   0.624
30296SOL     OW39726   1.498   6.175   0.474
30296SOL    HW139727   1.438   6.115   0.528
30296SOL    HW239728   1.591   6.169   0.509
30297SOL     OW39729  13.410   8.028   1.692
30297SOL    HW139730  13.418   8.065   1.785
30297SOL    HW239731  13.441   8.097   1.626
30298SOL     OW39732  12.562  11.103   2.122
30298SOL    HW139733  12.650  11.057   2.131
30298SOL    HW239734  12.571  11.181   2.061
30299SOL     OW39735  11.674   1.772   7.612
30299SOL    HW139736  11.716   1.860   7.589
30299SOL    HW239737  11.691   1.752   7.709
30300SOL     OW39738   2.072   8.585   7.953
30300SOL    HW139739   2.045   8.648   7.880
30300SOL    HW239740   2.033   8.495   7.936
30301SOL     OW39741  15.288  11.426   0.150
30301SOL    HW139742  15.327  11.360   0.214
30301SOL    HW239743  15.265  11.379   0.064
30302SOL     OW39744  15.369   2.220   6.262
30302SOL    HW139745  15.439   2.292   6.263
30302SOL    HW239746  15.389   2.155   6.189
30303SOL     OW39747   9.827   1.410   6.434
30303SOL    HW139748   9.801   1.321   6.474
30303SOL    HW239749   9.747   1.470   6.433
30304SOL     OW39750   9.975   0.070   0.769
30304SOL    HW139751   9.954   0.165   0.746
30304SOL    HW239752   9.905   0.036   0.832
30305SOL     OW39753  10.301  13.546   8.158
30305SOL    HW139754  10.257  13.505   8.237
30305SOL    HW239755  10.232  13.566   8.088
30306SOL     OW39756  14.698  12.613   1.481
30306SOL    HW139757  14.651  12.567   1.556
30306SOL    HW239758  14.653  12.592   1.395
30307SOL     OW39759   5.376   5.513   7.921
30307SOL    HW139760   5.454   5.550   7.973
30307SOL    HW239761   5.305   5.484   7.985
30308SOL     OW39762   2.833   6.693   6.755
30308SOL    HW139763   2.860   6.680   6.659
30308SOL    HW239764   2.888   6.634   6.813
30309SOL     OW39765   2.790   5.106   0.447
30309SOL    HW139766   2.817   5.097   0.351
30309SOL    HW239767   2.851   5.171   0.493
30310SOL     OW39768   3.464  13.367   2.715
30310SOL    HW139769   3.380  13.340   2.762
30310SOL    HW239770   3.533  13.297   2.728
30311SOL     OW39771   0.073  11.391   0.224
30311SOL    HW139772   0.019  11.396   0.308
30311SOL    HW239773   0.163  11.433   0.240
30312SOL     OW39774   2.060  15.727   1.129
30312SOL    HW139775   2.118  15.808   1.141
30312SOL    HW239776   2.110  15.657   1.078
30313SOL     OW39777   9.211  14.289   6.745
30313SOL    HW139778   9.195  14.353   6.670
30313SOL    HW239779   9.228  14.339   6.829
30314SOL     OW39780   4.165   6.692   1.639
30314SOL    HW139781   4.220   6.775   1.624
30314SOL    HW239782   4.069   6.718   1.652
30315SOL     OW39783  12.005   4.799   0.041
30315SOL    HW139784  12.052   4.860   0.105
30315SOL    HW239785  12.011   4.837   8.403
30316SOL     OW39786  15.935   6.658   1.722
30316SOL    HW139787  16.007   6.597   1.688
30316SOL    HW239788  15.924   6.645   1.820
30317SOL     OW39789  16.478  11.903   6.642
30317SOL    HW139790  16.542  11.939   6.709
30317SOL    HW239791  16.529  11.859   6.567
30318SOL     OW39792   0.604   7.848   0.182
30318SOL    HW139793   0.662   7.915   0.229
30318SOL    HW239794   0.651   7.817   0.099
30319SOL     OW39795   9.570   3.486   5.809
30319SOL    HW139796   9.579   3.394   5.771
30319SOL    HW239797   9.479   3.497   5.850
30320SOL     OW39798  15.430   0.247   1.784
30320SOL    HW139799  15.481   0.228   1.700
30320SOL    HW239800  15.477   0.206   1.862
30321SOL     OW39801   3.870  16.803   2.014
30321SOL    HW139802   3.969  16.797   2.024
30321SOL    HW239803   3.843  16.898   1.997
30322SOL     OW39804   0.227   6.968   6.869
30322SOL    HW139805   0.223   7.066   6.850
30322SOL    HW239806   0.250   6.953   6.965
30323SOL     OW39807  14.152   7.004   1.571
30323SOL    HW139808  14.230   6.941   1.566
30323SOL    HW239809  14.155   7.067   1.494
30324SOL     OW39810   4.547  11.311   1.799
30324SOL    HW139811   4.584  11.236   1.854
30324SOL    HW239812   4.480  11.275   1.734
30325SOL     OW39813   3.502   0.583   1.726
30325SOL    HW139814   3.444   0.659   1.697
30325SOL    HW239815   3.451   0.523   1.788
30326SOL     OW39816  11.111   2.237   7.177
30326SOL    HW139817  11.038   2.277   7.232
30326SOL    HW239818  11.113   2.281   7.087
30327SOL     OW39819   8.399   1.203   1.984
30327SOL    HW139820   8.381   1.138   2.058
30327SOL    HW239821   8.331   1.276   1.987
30328SOL     OW39822   6.169  13.573   8.161
30328SOL    HW139823   6.256  13.575   8.112
30328SOL    HW239824   6.174  13.633   8.241
30329SOL     OW39825   7.683   9.415   0.339
30329SOL    HW139826   7.590   9.440   0.312
30329SOL    HW239827   7.726   9.493   0.386
30330SOL     OW39828  16.161   8.147   0.259
30330SOL    HW139829  16.136   8.079   0.190
30330SOL    HW239830  16.165   8.237   0.216
30331SOL     OW39831   5.035  10.736   1.816
30331SOL    HW139832   4.940  10.718   1.840
30331SOL    HW239833   5.087  10.651   1.823
30332SOL     OW39834   8.783   2.864   0.129
30332SOL    HW139835   8.759   2.768   0.116
30332SOL    HW239836   8.851   2.873   0.201
30333SOL     OW39837   9.299   1.209   0.657
30333SOL    HW139838   9.278   1.197   0.754
30333SOL    HW239839   9.215   1.203   0.603
30334SOL     OW39840   8.443   2.629   0.078
30334SOL    HW139841   8.389   2.705   0.042
30334SOL    HW239842   8.401   2.595   0.162
30335SOL     OW39843   1.082   7.077   0.797
30335SOL    HW139844   0.995   7.028   0.805
30335SOL    HW239845   1.090   7.115   0.705
30336SOL     OW39846  15.831   0.451   8.053
30336SOL    HW139847  15.914   0.494   8.089
30336SOL    HW239848  15.751   0.506   8.076
30337SOL     OW39849   7.441   5.872   0.873
30337SOL    HW139850   7.367   5.814   0.838
30337SOL    HW239851   7.528   5.826   0.859
30338SOL     OW39852  13.072   4.223   1.288
30338SOL    HW139853  13.039   4.209   1.381
30338SOL    HW239854  13.117   4.140   1.255
30339SOL     OW39855  13.139  10.156   6.563
30339SOL    HW139856  13.132  10.074   6.506
30339SOL    HW239857  13.078  10.227   6.529
30340SOL     OW39858   1.443  13.464   8.131
30340SOL    HW139859   1.457  13.375   8.174
30340SOL    HW239860   1.426  13.452   8.034
30341SOL     OW39861   0.842   3.778   6.295
30341SOL    HW139862   0.811   3.855   6.351
30341SOL    HW239863   0.845   3.806   6.199
30342SOL     OW39864   5.248  12.217   1.780
30342SOL    HW139865   5.209  12.135   1.739
30342SOL    HW239866   5.176  12.267   1.828
30343SOL     OW39867  10.124  10.249   7.364
30343SOL    HW139868  10.037  10.279   7.402
30343SOL    HW239869  10.186  10.222   7.438
30344SOL     OW39870  12.983   8.604   7.303
30344SOL    HW139871  12.902   8.616   7.246
30344SOL    HW239872  12.964   8.637   7.396
30345SOL     OW39873   0.918   4.781   1.144
30345SOL    HW139874   0.885   4.863   1.190
30345SOL    HW239875   0.973   4.807   1.064
30346SOL     OW39876  15.000   0.902   1.938
30346SOL    HW139877  15.079   0.855   1.976
30346SOL    HW239878  14.917   0.855   1.966
30347SOL     OW39879  10.879   4.657   1.389
30347SOL    HW139880  10.893   4.733   1.453
30347SOL    HW239881  10.836   4.580   1.437
30348SOL     OW39882  11.624  12.881   0.926
30348SOL    HW139883  11.572  12.805   0.965
30348SOL    HW239884  11.698  12.905   0.988
30349SOL     OW39885   7.328  13.362   1.643
30349SOL    HW139886   7.427  13.374   1.654
30349SOL    HW239887   7.280  13.421   1.708
30350SOL     OW39888  15.317   1.809   0.832
30350SOL    HW139889  15.416   1.802   0.825
30350SOL    HW239890  15.282   1.733   0.887
30351SOL     OW39891  15.926  13.759   6.145
30351SOL    HW139892  15.914  13.662   6.124
30351SOL    HW239893  15.963  13.806   6.064
30352SOL     OW39894  13.247   0.320   6.755
30352SOL    HW139895  13.201   0.404   6.728
30352SOL    HW239896  13.238   0.307   6.854
30353SOL     OW39897   8.888   6.634   0.180
30353SOL    HW139898   8.791   6.629   0.157
30353SOL    HW239899   8.938   6.568   0.124
30354SOL     OW39900  16.306   2.815   6.528
30354SOL    HW139901  16.310   2.847   6.623
30354SOL    HW239902  16.212   2.826   6.494
30355SOL     OW39903  15.559  10.657   1.301
30355SOL    HW139904  15.460  10.640   1.298
30355SOL    HW239905  15.608  10.570   1.309
30356SOL     OW39906   2.414   4.956   7.096
30356SOL    HW139907   2.370   4.914   7.017
30356SOL    HW239908   2.432   4.886   7.166
30357SOL     OW39909  10.549   5.624   8.169
30357SOL    HW139910  10.452   5.646   8.161
30357SOL    HW239911  10.602   5.708   8.179
30358SOL     OW39912   8.776  10.952   0.131
30358SOL    HW139913   8.709  10.911   0.069
30358SOL    HW239914   8.846  10.999   0.078
30359SOL     OW39915  13.997   7.298   1.658
30359SOL    HW139916  14.051   7.253   1.728
30359SOL    HW239917  13.923   7.238   1.628
30360SOL     OW39918  12.889  12.516   1.803
30360SOL    HW139919  12.910  12.419   1.814
30360SOL    HW239920  12.797  12.526   1.765
30361SOL     OW39921  15.480   0.869   6.617
30361SOL    HW139922  15.566   0.822   6.640
30361SOL    HW239923  15.494   0.925   6.535
30362SOL     OW39924   0.305  14.130   6.756
30362SOL    HW139925   0.219  14.079   6.751
30362SOL    HW239926   0.376  14.081   6.707
30363SOL     OW39927   0.817  12.925   2.111
30363SOL    HW139928   0.741  12.950   2.050
30363SOL    HW239929   0.861  12.842   2.077
30364SOL     OW39930  13.659   9.280   6.452
30364SOL    HW139931  13.755   9.307   6.459
30364SOL    HW239932  13.602   9.362   6.444
30365SOL     OW39933  15.106  14.944   2.001
30365SOL    HW139934  15.069  14.981   2.086
30365SOL    HW239935  15.047  14.870   1.968
30366SOL     OW39936   7.756  16.062   6.749
30366SOL    HW139937   7.727  16.078   6.655
30366SOL    HW239938   7.779  16.149   6.792
30367SOL     OW39939   3.760   4.675   1.867
30367SOL    HW139940   3.785   4.716   1.955
30367SOL    HW239941   3.842   4.652   1.816
30368SOL     OW39942   3.049   0.612   1.282
30368SOL    HW139943   3.135   0.659   1.300
30368SOL    HW239944   3.062   0.542   1.213
30369SOL     OW39945   5.503   0.638   6.707
30369SOL    HW139946   5.564   0.711   6.673
30369SOL    HW239947   5.430   0.679   6.761
30370SOL     OW39948  15.464   0.400   1.157
30370SOL    HW139949  15.385   0.342   1.137
30370SOL    HW239950  15.444   0.457   1.236
30371SOL     OW39951   2.620  15.548   2.343
30371SOL    HW139952   2.670  15.461   2.351
30371SOL    HW239953   2.590  15.578   2.433
30372SOL     OW39954   9.183   7.193   1.311
30372SOL    HW139955   9.124   7.214   1.232
30372SOL    HW239956   9.138   7.225   1.395
30373SOL     OW39957  12.207   7.652   6.332
30373SOL    HW139958  12.146   7.618   6.261
30373SOL    HW239959  12.195   7.751   6.342
30374SOL     OW39960   9.705  16.459   0.634
30374SOL    HW139961   9.673  16.461   0.539
30374SOL    HW239962   9.793  16.505   0.640
30375SOL     OW39963   3.560   3.887   0.912
30375SOL    HW139964   3.551   3.788   0.920
30375SOL    HW239965   3.620   3.921   0.984
30376SOL     OW39966  15.676   5.410   1.511
30376SOL    HW139967  15.675   5.328   1.569
30376SOL    HW239968  15.605   5.401   1.442
30377SOL     OW39969  16.295   0.032   7.652
30377SOL    HW139970  16.248   0.001   7.569
30377SOL    HW239971  16.298   0.132   7.653
30378SOL     OW39972   3.205   5.770   5.786
30378SOL    HW139973   3.236   5.715   5.863
30378SOL    HW239974   3.181   5.710   5.709
30379SOL     OW39975   4.532  10.160   0.624
30379SOL    HW139976   4.447  10.113   0.603
30379SOL    HW239977   4.603  10.132   0.560
30380SOL     OW39978   1.070   8.247   7.095
30380SOL    HW139979   1.043   8.210   7.006
30380SOL    HW239980   1.169   8.260   7.098
30381SOL     OW39981  16.230  14.502   7.860
30381SOL    HW139982  16.144  14.496   7.911
30381SOL    HW239983  16.252  14.412   7.823
30382SOL     OW39984  10.092  12.920   7.980
30382SOL    HW139985  10.051  12.830   7.996
30382SOL    HW239986  10.022  12.982   7.944
30383SOL     OW39987   2.463   9.056   0.904
30383SOL    HW139988   2.438   9.064   0.808
30383SOL    HW239989   2.547   9.003   0.913
30384SOL     OW39990   5.127   0.488   8.405
30384SOL    HW139991   5.226   0.498   8.419
30384SOL    HW239992   5.101   0.393   8.422
30385SOL     OW39993   0.549   4.568   0.057
30385SOL    HW139994   0.585   4.660   0.075
30385SOL    HW239995   0.451   4.567   0.074
30386SOL     OW39996   4.801   1.104   7.460
30386SOL    HW139997   4.761   1.155   7.383
30386SOL    HW239998   4.742   1.113   7.540
30387SOL     OW39999  14.271   2.096   8.065
30387SOL    HW140000  14.356   2.112   8.016
30387SOL    HW240001  14.287   2.107   8.163
30388SOL     OW40002   4.067   5.208   7.274
30388SOL    HW140003   4.051   5.296   7.318
30388SOL    HW240004   4.111   5.146   7.339
30389SOL     OW40005   1.240  11.181   7.682
30389SOL    HW140006   1.227  11.155   7.586
30389SOL    HW240007   1.162  11.236   7.712
30390SOL     OW40008   8.518   4.605   0.285
30390SOL    HW140009   8.515   4.593   0.384
30390SOL    HW240010   8.448   4.670   0.256
30391SOL     OW40011   6.289   6.322   1.129
30391SOL    HW140012   6.363   6.289   1.188
30391SOL    HW240013   6.238   6.244   1.094
30392SOL     OW40014   3.867   1.155   0.212
30392SOL    HW140015   3.845   1.077   0.154
30392SOL    HW240016   3.915   1.124   0.293
30393SOL     OW40017  13.199  12.162   7.778
30393SOL    HW140018  13.124  12.196   7.833
30393SOL    HW240019  13.164  12.128   7.690
30394SOL     OW40020   0.695  15.703   0.126
30394SOL    HW140021   0.728  15.792   0.157
30394SOL    HW240022   0.606  15.713   0.081
30395SOL     OW40023  15.548  14.367   6.434
30395SOL    HW140024  15.471  14.372   6.371
30395SOL    HW240025  15.619  14.432   6.406
30396SOL     OW40026   9.329   5.547   8.143
30396SOL    HW140027   9.264   5.472   8.162
30396SOL    HW240028   9.384   5.564   8.225
30397SOL     OW40029   5.687  15.103   0.820
30397SOL    HW140030   5.666  15.140   0.911
30397SOL    HW240031   5.705  15.005   0.827
30398SOL     OW40032  14.012  14.443   1.253
30398SOL    HW140033  14.049  14.501   1.180
30398SOL    HW240034  13.925  14.482   1.285
30399SOL     OW40035  11.944  13.857   8.088
30399SOL    HW140036  11.868  13.922   8.079
30399SOL    HW240037  12.015  13.896   8.147
30400SOL     OW40038  10.297   6.199   7.963
30400SOL    HW140039  10.317   6.275   7.902
30400SOL    HW240040  10.206   6.162   7.941
30401SOL     OW40041  16.896  16.929   0.796
30401SOL    HW140042  16.822   0.012   0.804
30401SOL    HW240043  16.976  16.971   0.753
30402SOL     OW40044  14.490  11.200   1.352
30402SOL    HW140045  14.466  11.266   1.423
30402SOL    HW240046  14.530  11.118   1.393
30403SOL     OW40047  15.900  14.008   6.815
30403SOL    HW140048  15.911  13.910   6.830
30403SOL    HW240049  15.966  14.058   6.870
30404SOL     OW40050   4.689  16.151   2.381
30404SOL    HW140051   4.682  16.072   2.442
30404SOL    HW240052   4.651  16.232   2.427
30405SOL     OW40053   7.582  11.389   1.803
30405SOL    HW140054   7.572  11.355   1.709
30405SOL    HW240055   7.678  11.414   1.819
30406SOL     OW40056  10.617   4.408   7.267
30406SOL    HW140057  10.611   4.480   7.198
30406SOL    HW240058  10.525   4.384   7.298
30407SOL     OW40059   0.305   3.405   8.447
30407SOL    HW140060   0.239   3.450   0.053
30407SOL    HW240061   0.386   3.379   0.045
30408SOL     OW40062  10.074   1.222   0.230
30408SOL    HW140063  10.150   1.211   0.165
30408SOL    HW240064  10.106   1.270   0.311
30409SOL     OW40065   5.763   0.680   1.963
30409SOL    HW140066   5.820   0.658   1.884
30409SOL    HW240067   5.787   0.619   2.039
30410SOL     OW40068   7.414   0.147   7.530
30410SOL    HW140069   7.345   0.077   7.548
30410SOL    HW240070   7.400   0.225   7.592
30411SOL     OW40071   9.045   6.257   1.541
30411SOL    HW140072   8.978   6.184   1.551
30411SOL    HW240073   9.004   6.334   1.492
30412SOL     OW40074   2.788   0.782   7.425
30412SOL    HW140075   2.693   0.805   7.447
30412SOL    HW240076   2.791   0.693   7.378
30413SOL     OW40077   7.329   3.121   0.480
30413SOL    HW140078   7.416   3.171   0.479
30413SOL    HW240079   7.345   3.026   0.508
30414SOL     OW40080  11.894  15.474   0.012
30414SOL    HW140081  11.819  15.441   0.069
30414SOL    HW240082  11.931  15.559   0.051
30415SOL     OW40083   6.129  11.404   0.649
30415SOL    HW140084   6.189  11.371   0.721
30415SOL    HW240085   6.104  11.499   0.667
30416SOL     OW40086   6.917   3.019   0.799
30416SOL    HW140087   6.861   2.968   0.865
30416SOL    HW240088   7.002   2.969   0.781
30417SOL     OW40089   5.585  11.613   7.473
30417SOL    HW140090   5.531  11.668   7.536
30417SOL    HW240091   5.525  11.550   7.424
30418SOL     OW40092   9.115   2.965   1.483
30418SOL    HW140093   9.203   2.918   1.477
30418SOL    HW240094   9.116   3.029   1.560
30419SOL     OW40095   6.489  15.496   0.931
30419SOL    HW140096   6.487  15.434   0.852
30419SOL    HW240097   6.574  15.485   0.981
30420SOL     OW40098   3.447  16.554   2.396
30420SOL    HW140099   3.495  16.546   2.484
30420SOL    HW240100   3.402  16.468   2.375
30421SOL     OW40101   8.320  12.000   1.115
30421SOL    HW140102   8.275  12.004   1.026
30421SOL    HW240103   8.419  12.014   1.103
30422SOL     OW40104  12.279   2.292   6.628
30422SOL    HW140105  12.367   2.337   6.611
30422SOL    HW240106  12.257   2.232   6.551
30423SOL     OW40107  15.702  12.046   0.650
30423SOL    HW140108  15.780  12.071   0.592
30423SOL    HW240109  15.621  12.036   0.593
30424SOL     OW40110   3.256   1.049   8.058
30424SOL    HW140111   3.177   1.065   7.999
30424SOL    HW240112   3.264   0.951   8.076
30425SOL     OW40113  13.600  16.212   0.720
30425SOL    HW140114  13.677  16.184   0.779
30425SOL    HW240115  13.527  16.144   0.726
30426SOL     OW40116   3.893   3.582   6.860
30426SOL    HW140117   3.851   3.528   6.788
30426SOL    HW240118   3.951   3.523   6.917
30427SOL     OW40119  12.270   4.978   5.955
30427SOL    HW140120  12.230   5.035   5.883
30427SOL    HW240121  12.364   5.007   5.971
30428SOL     OW40122  10.106   4.869   0.454
30428SOL    HW140123  10.022   4.847   0.405
30428SOL    HW240124  10.181   4.880   0.389
30429SOL     OW40125   4.555  10.526   7.861
30429SOL    HW140126   4.457  10.544   7.870
30429SOL    HW240127   4.604  10.613   7.857
30430SOL     OW40128   2.457   7.897   1.505
30430SOL    HW140129   2.447   7.808   1.461
30430SOL    HW240130   2.504   7.960   1.443
30431SOL     OW40131  13.352  11.833   6.642
30431SOL    HW140132  13.285  11.820   6.570
30431SOL    HW240133  13.307  11.875   6.722
30432SOL     OW40134   8.528  11.252   1.219
30432SOL    HW140135   8.564  11.205   1.138
30432SOL    HW240136   8.436  11.221   1.238
30433SOL     OW40137   4.210  10.798   2.419
30433SOL    HW140138   4.292  10.742   2.414
30433SOL    HW240139   4.235  10.891   2.447
30434SOL     OW40140  10.269   8.355   0.153
30434SOL    HW140141  10.355   8.304   0.158
30434SOL    HW240142  10.193   8.292   0.137
30435SOL     OW40143  12.603   9.411   0.933
30435SOL    HW140144  12.603   9.489   0.996
30435SOL    HW240145  12.625   9.328   0.984
30436SOL     OW40146   7.389  16.585   0.618
30436SOL    HW140147   7.328  16.512   0.589
30436SOL    HW240148   7.462  16.596   0.551
30437SOL     OW40149   8.576  14.626   1.586
30437SOL    HW140150   8.491  14.598   1.541
30437SOL    HW240151   8.627  14.544   1.614
30438SOL     OW40152   2.539  16.661   1.835
30438SOL    HW140153   2.578  16.643   1.925
30438SOL    HW240154   2.533  16.759   1.820
30439SOL     OW40155   0.859  11.463   8.150
30439SOL    HW140156   0.818  11.385   8.102
30439SOL    HW240157   0.900  11.525   8.084
30440SOL     OW40158   5.873  10.745   0.994
30440SOL    HW140159   5.905  10.791   1.077
30440SOL    HW240160   5.794  10.687   1.016
30441SOL     OW40161  13.186   2.671   8.398
30441SOL    HW140162  13.244   2.657   0.024
30441SOL    HW240163  13.152   2.583   8.365
30442SOL     OW40164  13.106   2.848   7.576
30442SOL    HW140165  13.113   2.762   7.527
30442SOL    HW240166  13.036   2.905   7.534
30443SOL     OW40167  12.194  10.677   0.359
30443SOL    HW140168  12.094  10.676   0.362
30443SOL    HW240169  12.230  10.701   0.449
30444SOL     OW40170   4.087   2.861   1.117
30444SOL    HW140171   4.173   2.911   1.125
30444SOL    HW240172   4.030   2.903   1.046
30445SOL     OW40173   4.200   4.679   8.203
30445SOL    HW140174   4.281   4.673   8.145
30445SOL    HW240175   4.163   4.587   8.218
30446SOL     OW40176   9.959  13.444   7.192
30446SOL    HW140177   9.990  13.394   7.111
30446SOL    HW240178   9.879  13.500   7.168
30447SOL     OW40179  13.091  11.634   1.831
30447SOL    HW140180  13.190  11.637   1.843
30447SOL    HW240181  13.052  11.568   1.895
30448SOL     OW40182  13.366  15.349   7.724
30448SOL    HW140183  13.460  15.355   7.759
30448SOL    HW240184  13.302  15.358   7.800
30449SOL     OW40185  16.846   9.283   7.599
30449SOL    HW140186  16.943   9.286   7.621
30449SOL    HW240187  16.815   9.188   7.592
30450SOL     OW40188   0.452   4.175   6.505
30450SOL    HW140189   0.466   4.096   6.445
30450SOL    HW240190   0.463   4.148   6.600
30451SOL     OW40191  13.801  11.332   0.467
30451SOL    HW140192  13.814  11.236   0.492
30451SOL    HW240193  13.890  11.377   0.458
30452SOL     OW40194   2.013   4.291   7.913
30452SOL    HW140195   2.012   4.391   7.916
30452SOL    HW240196   1.924   4.256   7.941
30453SOL     OW40197  12.462   0.404   6.089
30453SOL    HW140198  12.490   0.309   6.077
30453SOL    HW240199  12.385   0.409   6.152
30454SOL     OW40200  12.171  12.409   6.775
30454SOL    HW140201  12.264  12.402   6.740
30454SOL    HW240202  12.137  12.502   6.761
30455SOL     OW40203  13.512  11.428   6.689
30455SOL    HW140204  13.421  11.417   6.649
30455SOL    HW240205  13.568  11.348   6.667
30456SOL     OW40206   1.074  11.958   1.782
30456SOL    HW140207   1.155  12.003   1.743
30456SOL    HW240208   1.007  12.028   1.809
30457SOL     OW40209   5.213   0.899   7.152
30457SOL    HW140210   5.257   0.811   7.139
30457SOL    HW240211   5.264   0.970   7.102
30458SOL     OW40212  15.593  10.924   7.144
30458SOL    HW140213  15.527  10.850   7.133
30458SOL    HW240214  15.551  10.998   7.197
30459SOL     OW40215  16.431   5.425   6.523
30459SOL    HW140216  16.462   5.520   6.528
30459SOL    HW240217  16.393   5.397   6.611
30460SOL     OW40218   8.441   9.268   6.809
30460SOL    HW140219   8.423   9.281   6.712
30460SOL    HW240220   8.390   9.337   6.861
30461SOL     OW40221  11.893   4.782   6.536
30461SOL    HW140222  11.820   4.769   6.468
30461SOL    HW240223  11.950   4.700   6.540
30462SOL     OW40224   1.022   3.756   1.311
30462SOL    HW140225   1.085   3.712   1.376
30462SOL    HW240226   0.928   3.731   1.334
30463SOL     OW40227  14.343   3.205   6.228
30463SOL    HW140228  14.313   3.208   6.133
30463SOL    HW240229  14.280   3.259   6.285
30464SOL     OW40230   5.281   6.402   7.431
30464SOL    HW140231   5.380   6.398   7.446
30464SOL    HW240232   5.234   6.412   7.518
30465SOL     OW40233  13.240  15.257   0.537
30465SOL    HW140234  13.239  15.291   0.631
30465SOL    HW240235  13.221  15.159   0.537
30466SOL     OW40236  12.622  10.803   7.371
30466SOL    HW140237  12.694  10.872   7.375
30466SOL    HW240238  12.663  10.713   7.356
30467SOL     OW40239   9.683  10.456   2.040
30467SOL    HW140240   9.647  10.402   2.116
30467SOL    HW240241   9.782  10.445   2.034
30468SOL     OW40242   8.144  15.461   6.891
30468SOL    HW140243   8.098  15.545   6.920
30468SOL    HW240244   8.226  15.448   6.946
30469SOL     OW40245   1.086   6.440   1.016
30469SOL    HW140246   1.185   6.439   1.024
30469SOL    HW240247   1.045   6.400   1.098
30470SOL     OW40248   6.520  10.491   0.880
30470SOL    HW140249   6.526  10.490   0.979
30470SOL    HW240250   6.462  10.416   0.849
30471SOL     OW40251  10.338  14.388   7.549
30471SOL    HW140252  10.270  14.316   7.534
30471SOL    HW240253  10.396  14.397   7.469
30472SOL     OW40254   8.231   2.002   1.893
30472SOL    HW140255   8.173   1.928   1.858
30472SOL    HW240256   8.285   1.968   1.970
30473SOL     OW40257   3.961  11.809   7.143
30473SOL    HW140258   3.942  11.881   7.077
30473SOL    HW240259   4.060  11.792   7.145
30474SOL     OW40260  10.554  15.332   2.136
30474SOL    HW140261  10.558  15.239   2.172
30474SOL    HW240262  10.596  15.395   2.202
30475SOL     OW40263  10.435   5.902   6.269
30475SOL    HW140264  10.465   5.807   6.275
30475SOL    HW240265  10.346   5.912   6.313
30476SOL     OW40266  12.675   5.581   1.282
30476SOL    HW140267  12.662   5.664   1.337
30476SOL    HW240268  12.601   5.517   1.301
30477SOL     OW40269  10.169   6.132   0.094
30477SOL    HW140270  10.190   6.223   0.131
30477SOL    HW240271  10.104   6.086   0.154
30478SOL     OW40272   4.861  11.423   7.883
30478SOL    HW140273   4.795  11.488   7.846
30478SOL    HW240274   4.928  11.400   7.812
30479SOL     OW40275   0.418   7.706   7.778
30479SOL    HW140276   0.481   7.654   7.836
30479SOL    HW240277   0.325   7.697   7.813
30480SOL     OW40278   9.504  13.258   7.950
30480SOL    HW140279   9.490  13.177   7.892
30480SOL    HW240280   9.590  13.250   7.999
30481SOL     OW40281   6.292  14.421   7.679
30481SOL    HW140282   6.302  14.493   7.747
30481SOL    HW240283   6.292  14.332   7.724
30482SOL     OW40284   5.729  16.016   7.976
30482SOL    HW140285   5.757  15.922   7.957
30482SOL    HW240286   5.772  16.078   7.910
30483SOL     OW40287  16.530  16.746   6.602
30483SOL    HW140288  16.527  16.831   6.551
30483SOL    HW240289  16.493  16.672   6.546
30484SOL     OW40290  11.619   9.185   6.927
30484SOL    HW140291  11.685   9.144   6.989
30484SOL    HW240292  11.649   9.172   6.833
30485SOL     OW40293  15.068  11.844   2.113
30485SOL    HW140294  14.987  11.823   2.169
30485SOL    HW240295  15.149  11.804   2.156
30486SOL     OW40296  14.557   8.162   7.886
30486SOL    HW140297  14.635   8.162   7.949
30486SOL    HW240298  14.472   8.170   7.939
30487SOL     OW40299  14.955   1.406   0.760
30487SOL    HW140300  14.984   1.500   0.742
30487SOL    HW240301  15.023   1.360   0.816
30488SOL     OW40302   5.992  16.604   1.731
30488SOL    HW140303   6.038  16.693   1.728
30488SOL    HW240304   5.920  16.606   1.800
30489SOL     OW40305  12.358   2.781   0.344
30489SOL    HW140306  12.364   2.685   0.371
30489SOL    HW240307  12.373   2.789   0.246
30490SOL     OW40308   7.350  12.756   6.662
30490SOL    HW140309   7.379  12.820   6.591
30490SOL    HW240310   7.413  12.679   6.665
30491SOL     OW40311   2.258  12.358   0.214
30491SOL    HW140312   2.236  12.283   0.152
30491SOL    HW240313   2.227  12.335   0.307
30492SOL     OW40314  14.842   7.351   8.089
30492SOL    HW140315  14.884   7.321   8.002
30492SOL    HW240316  14.810   7.270   8.139
30493SOL     OW40317  10.789   8.900   1.191
30493SOL    HW140318  10.749   8.961   1.123
30493SOL    HW240319  10.882   8.929   1.211
30494SOL     OW40320  10.279   5.225   0.752
30494SOL    HW140321  10.233   5.307   0.785
30494SOL    HW240322  10.355   5.202   0.813
30495SOL     OW40323   7.422   0.653   0.874
30495SOL    HW140324   7.330   0.673   0.841
30495SOL    HW240325   7.432   0.686   0.968
30496SOL     OW40326   2.469   9.670   1.507
30496SOL    HW140327   2.430   9.633   1.592
30496SOL    HW240328   2.415   9.638   1.429
30497SOL     OW40329   5.170  12.506   6.559
30497SOL    HW140330   5.139  12.574   6.493
30497SOL    HW240331   5.105  12.430   6.563
30498SOL     OW40332  11.002   4.718   8.233
30498SOL    HW140333  11.061   4.685   8.307
30498SOL    HW240334  10.950   4.641   8.195
30499SOL     OW40335  11.729   4.046   6.737
30499SOL    HW140336  11.803   4.005   6.790
30499SOL    HW240337  11.652   4.065   6.798
30500SOL     OW40338   7.211   4.361   6.867
30500SOL    HW140339   7.121   4.364   6.823
30500SOL    HW240340   7.272   4.427   6.822
30501SOL     OW40341   9.976   6.357   1.358
30501SOL    HW140342   9.972   6.285   1.427
30501SOL    HW240343   9.913   6.430   1.382
30502SOL     OW40344   3.178   5.307   7.354
30502SOL    HW140345   3.161   5.256   7.270
30502SOL    HW240346   3.101   5.293   7.417
30503SOL     OW40347   9.659  16.688   1.773
30503SOL    HW140348   9.623  16.776   1.740
30503SOL    HW240349   9.609  16.662   1.856
30504SOL     OW40350   6.608   1.137   1.356
30504SOL    HW140351   6.574   1.072   1.423
30504SOL    HW240352   6.531   1.183   1.312
30505SOL     OW40353   5.138   2.272   1.573
30505SOL    HW140354   5.218   2.320   1.540
30505SOL    HW240355   5.145   2.175   1.550
30506SOL     OW40356  10.150   4.250   8.420
30506SOL    HW140357  10.237   4.264   0.014
30506SOL    HW240358  10.074   4.274   0.027
30507SOL     OW40359   5.078  16.724   1.742
30507SOL    HW140360   5.038  16.775   1.818
30507SOL    HW240361   5.146  16.782   1.696
30508SOL     OW40362  15.595  13.490   0.081
30508SOL    HW140363  15.558  13.398   0.083
30508SOL    HW240364  15.587  13.528   8.443
30509SOL     OW40365   1.531   0.605   8.253
30509SOL    HW140366   1.444   0.626   8.296
30509SOL    HW240367   1.604   0.612   8.321
30510SOL     OW40368   9.769   8.459   6.680
30510SOL    HW140369   9.868   8.456   6.669
30510SOL    HW240370   9.728   8.496   6.597
30511SOL     OW40371   7.236   4.297   5.851
30511SOL    HW140372   7.241   4.200   5.875
30511SOL    HW240373   7.329   4.334   5.842
30512SOL     OW40374   4.724   4.965   0.622
30512SOL    HW140375   4.768   5.023   0.691
30512SOL    HW240376   4.741   4.869   0.643
30513SOL     OW40377   3.180  10.076   1.850
30513SOL    HW140378   3.111  10.037   1.911
30513SOL    HW240379   3.271  10.062   1.890
30514SOL     OW40380  11.342  15.920   6.838
30514SOL    HW140381  11.331  15.905   6.740
30514SOL    HW240382  11.342  16.018   6.857
30515SOL     OW40383   6.643   8.097   7.289
30515SOL    HW140384   6.569   8.153   7.251
30515SOL    HW240385   6.652   8.013   7.236
30516SOL     OW40386   1.527   4.539   6.927
30516SOL    HW140387   1.490   4.553   6.836
30516SOL    HW240388   1.474   4.468   6.975
30517SOL     OW40389   4.290   4.973   8.394
30517SOL    HW140390   4.194   4.952   8.373
30517SOL    HW240391   4.334   4.893   8.434
30518SOL     OW40392  11.114   8.679   1.727
30518SOL    HW140393  11.205   8.707   1.695
30518SOL    HW240394  11.100   8.712   1.820
30519SOL     OW40395   3.409   2.675   7.160
30519SOL    HW140396   3.471   2.743   7.199
30519SOL    HW240397   3.370   2.619   7.233
30520SOL     OW40398   6.580   4.292   8.365
30520SOL    HW140399   6.612   4.198   8.368
30520SOL    HW240400   6.614   4.337   8.282
30521SOL     OW40401  15.780  13.285   7.413
30521SOL    HW140402  15.863  13.324   7.374
30521SOL    HW240403  15.763  13.325   7.503
30522SOL     OW40404  13.414   4.632   6.129
30522SOL    HW140405  13.487   4.566   6.148
30522SOL    HW240406  13.447   4.724   6.149
30523SOL     OW40407  10.461  11.493   7.785
30523SOL    HW140408  10.505  11.544   7.858
30523SOL    HW240409  10.528  11.474   7.713
30524SOL     OW40410  14.962  16.556   0.198
30524SOL    HW140411  15.037  16.490   0.192
30524SOL    HW240412  14.979  16.620   0.272
30525SOL     OW40413  16.167  12.185   1.342
30525SOL    HW140414  16.243  12.246   1.364
30525SOL    HW240415  16.173  12.102   1.398
30526SOL     OW40416   2.791  14.917   7.889
30526SOL    HW140417   2.880  14.928   7.846
30526SOL    HW240418   2.719  14.917   7.820
30527SOL     OW40419  10.546  14.663   7.365
30527SOL    HW140420  10.551  14.731   7.438
30527SOL    HW240421  10.457  14.668   7.320
30528SOL     OW40422   4.238   2.854   0.005
30528SOL    HW140423   4.326   2.881   8.418
30528SOL    HW240424   4.164   2.884   8.399
30529SOL     OW40425  14.780   2.960   0.964
30529SOL    HW140426  14.726   2.955   1.047
30529SOL    HW240427  14.748   2.891   0.899
30530SOL     OW40428   0.115   1.346   1.102
30530SOL    HW140429   0.125   1.397   1.017
30530SOL    HW240430   0.098   1.410   1.177
30531SOL     OW40431   8.902   6.048   8.338
30531SOL    HW140432   8.805   6.037   8.360
30531SOL    HW240433   8.920   6.143   8.313
30532SOL     OW40434   9.832   3.447   0.782
30532SOL    HW140435   9.811   3.492   0.869
30532SOL    HW240436   9.893   3.370   0.799
30533SOL     OW40437   5.994   7.736   6.412
30533SOL    HW140438   5.971   7.833   6.418
30533SOL    HW240439   5.916   7.685   6.374
30534SOL     OW40440  10.382   4.225   2.276
30534SOL    HW140441  10.332   4.307   2.303
30534SOL    HW240442  10.459   4.250   2.218
30535SOL     OW40443   0.967  13.489   6.979
30535SOL    HW140444   0.938  13.435   6.900
30535SOL    HW240445   1.038  13.440   7.030
30536SOL     OW40446   1.839   0.104   8.242
30536SOL    HW140447   1.899   0.044   8.188
30536SOL    HW240448   1.806   0.178   8.184
30537SOL     OW40449   2.162  14.232   0.912
30537SOL    HW140450   2.212  14.226   0.826
30537SOL    HW240451   2.218  14.196   0.986
30538SOL     OW40452  16.851   0.383   1.514
30538SOL    HW140453  16.874   0.480   1.518
30538SOL    HW240454  16.874   0.339   1.600
30539SOL     OW40455   4.483   6.047   6.253
30539SOL    HW140456   4.494   6.116   6.181
30539SOL    HW240457   4.523   5.960   6.223
30540SOL     OW40458  12.642   2.665   8.117
30540SOL    HW140459  12.716   2.649   8.052
30540SOL    HW240460  12.623   2.763   8.124
30541SOL     OW40461  15.719  11.366   7.318
30541SOL    HW140462  15.754  11.456   7.292
30541SOL    HW240463  15.788  11.296   7.296
30542SOL     OW40464   5.663  14.309   0.009
30542SOL    HW140465   5.758  14.312   8.432
30542SOL    HW240466   5.604  14.289   8.385
30543SOL     OW40467   3.443  13.586   0.520
30543SOL    HW140468   3.541  13.567   0.518
30543SOL    HW240469   3.403  13.564   0.431
30544SOL     OW40470  10.422  11.005   7.617
30544SOL    HW140471  10.463  10.918   7.645
30544SOL    HW240472  10.322  10.993   7.609
30545SOL     OW40473  10.529   1.391   6.358
30545SOL    HW140474  10.464   1.315   6.370
30545SOL    HW240475  10.480   1.472   6.327
30546SOL     OW40476   1.587  13.811   0.222
30546SOL    HW140477   1.497  13.849   0.205
30546SOL    HW240478   1.622  13.767   0.139
30547SOL     OW40479   1.269  13.604   0.077
30547SOL    HW140480   1.176  13.580   0.107
30547SOL    HW240481   1.268  13.625   8.433
30548SOL     OW40482  15.141  14.622   0.967
30548SOL    HW140483  15.163  14.719   0.953
30548SOL    HW240484  15.151  14.599   1.064
30549SOL     OW40485   1.534   1.097   6.849
30549SOL    HW140486   1.585   1.181   6.829
30549SOL    HW240487   1.528   1.042   6.766
30550SOL     OW40488  11.603   5.951   0.316
30550SOL    HW140489  11.679   5.923   0.375
30550SOL    HW240490  11.588   5.881   0.247
30551SOL     OW40491   5.260  14.349   1.535
30551SOL    HW140492   5.314  14.425   1.571
30551SOL    HW240493   5.311  14.264   1.545
30552SOL     OW40494   2.603  16.576   7.730
30552SOL    HW140495   2.641  16.668   7.729
30552SOL    HW240496   2.663  16.516   7.783
30553SOL     OW40497   4.139   7.396   7.361
30553SOL    HW140498   4.160   7.475   7.418
30553SOL    HW240499   4.092   7.326   7.416
30554SOL     OW40500   9.455  14.228   0.033
30554SOL    HW140501   9.436  14.313   0.082
30554SOL    HW240502   9.545  14.194   0.059
30555SOL     OW40503   5.156  13.606   8.353
30555SOL    HW140504   5.231  13.543   8.373
30555SOL    HW240505   5.149  13.674   8.427
30556SOL     OW40506  10.847   5.698   8.016
30556SOL    HW140507  10.815   5.605   8.035
30556SOL    HW240508  10.782   5.764   8.052
30557SOL     OW40509   6.886   4.798   0.960
30557SOL    HW140510   6.836   4.740   0.897
30557SOL    HW240511   6.938   4.866   0.909
30558SOL     OW40512   2.453   4.793   7.316
30558SOL    HW140513   2.469   4.695   7.305
30558SOL    HW240514   2.373   4.808   7.374
30559SOL     OW40515   6.573   2.743   8.296
30559SOL    HW140516   6.597   2.820   8.237
30559SOL    HW240517   6.651   2.680   8.301
30560SOL     OW40518  11.051   6.496   7.401
30560SOL    HW140519  11.014   6.587   7.383
30560SOL    HW240520  11.073   6.488   7.498
30561SOL     OW40521  11.218   8.854   6.797
30561SOL    HW140522  11.189   8.825   6.706
30561SOL    HW240523  11.149   8.828   6.864
30562SOL     OW40524   6.872   8.848   1.428
30562SOL    HW140525   6.840   8.791   1.504
30562SOL    HW240526   6.919   8.791   1.361
30563SOL     OW40527   5.881  16.695   6.354
30563SOL    HW140528   5.878  16.596   6.347
30563SOL    HW240529   5.889  16.735   6.263
30564SOL     OW40530   9.921   6.640   1.111
30564SOL    HW140531  10.000   6.645   1.172
30564SOL    HW240532   9.906   6.545   1.083
30565SOL     OW40533   9.235  13.616   1.886
30565SOL    HW140534   9.233  13.586   1.981
30565SOL    HW240535   9.202  13.710   1.880
30566SOL     OW40536   2.282  11.371   7.580
30566SOL    HW140537   2.339  11.410   7.652
30566SOL    HW240538   2.299  11.419   7.494
30567SOL     OW40539   1.485  10.483   8.152
30567SOL    HW140540   1.509  10.475   8.055
30567SOL    HW240541   1.389  10.460   8.164
30568SOL     OW40542   4.346   8.558   0.066
30568SOL    HW140543   4.276   8.494   0.097
30568SOL    HW240544   4.313   8.608   8.440
30569SOL     OW40545   5.971  12.910   7.611
30569SOL    HW140546   5.979  12.811   7.618
30569SOL    HW240547   5.894  12.942   7.667
30570SOL     OW40548   2.120   5.529   7.873
30570SOL    HW140549   2.062   5.579   7.936
30570SOL    HW240550   2.180   5.593   7.824
30571SOL     OW40551   5.701   6.160   6.849
30571SOL    HW140552   5.675   6.156   6.945
30571SOL    HW240553   5.628   6.206   6.797
30572SOL     OW40554   9.085   6.948   0.692
30572SOL    HW140555   9.170   6.944   0.745
30572SOL    HW240556   9.055   6.855   0.670
30573SOL     OW40557  12.551   1.722   0.120
30573SOL    HW140558  12.491   1.791   0.080
30573SOL    HW240559  12.530   1.633   0.079
30574SOL     OW40560  15.134  13.237   7.740
30574SOL    HW140561  15.130  13.160   7.803
30574SOL    HW240562  15.210  13.224   7.676
30575SOL     OW40563  16.866   7.770   7.576
30575SOL    HW140564  16.852   7.700   7.506
30575SOL    HW240565  16.782   7.824   7.586
30576SOL     OW40566  12.052  15.070   6.751
30576SOL    HW140567  12.039  15.136   6.677
30576SOL    HW240568  12.093  14.987   6.716
30577SOL     OW40569  10.131  16.137   2.220
30577SOL    HW140570  10.120  16.099   2.312
30577SOL    HW240571  10.143  16.236   2.226
30578SOL     OW40572  14.062   5.355   6.794
30578SOL    HW140573  14.082   5.406   6.879
30578SOL    HW240574  14.096   5.262   6.803
30579SOL     OW40575   8.130  12.955   7.355
30579SOL    HW140576   8.131  12.865   7.397
30579SOL    HW240577   8.036  12.989   7.352
30580SOL     OW40578  16.566  10.107   7.538
30580SOL    HW140579  16.574  10.008   7.543
30580SOL    HW240580  16.655  10.146   7.512
30581SOL     OW40581   7.943   5.466   7.923
30581SOL    HW140582   8.019   5.531   7.921
30581SOL    HW240583   7.865   5.504   7.873
30582SOL     OW40584   0.515  14.590   0.849
30582SOL    HW140585   0.474  14.667   0.801
30582SOL    HW240586   0.577  14.624   0.920
30583SOL     OW40587   8.685  14.907   7.052
30583SOL    HW140588   8.746  14.844   7.004
30583SOL    HW240589   8.600  14.917   7.001
30584SOL     OW40590   9.445   7.329   1.857
30584SOL    HW140591   9.458   7.415   1.809
30584SOL    HW240592   9.464   7.341   1.954
30585SOL     OW40593   4.488   2.188   0.770
30585SOL    HW140594   4.405   2.146   0.808
30585SOL    HW240595   4.535   2.240   0.841
30586SOL     OW40596  10.383  13.748   6.826
30586SOL    HW140597  10.407  13.661   6.869
30586SOL    HW240598  10.364  13.732   6.729
30587SOL     OW40599   7.770   0.330   8.307
30587SOL    HW140600   7.753   0.427   8.290
30587SOL    HW240601   7.685   0.279   8.294
30588SOL     OW40602   0.150   5.257   7.304
30588SOL    HW140603   0.120   5.334   7.360
30588SOL    HW240604   0.206   5.195   7.360
30589SOL     OW40605  16.100  15.658   6.433
30589SOL    HW140606  16.000  15.661   6.435
30589SOL    HW240607  16.132  15.568   6.463
30590SOL     OW40608   2.373  11.297   6.841
30590SOL    HW140609   2.381  11.237   6.762
30590SOL    HW240610   2.464  11.322   6.875
30591SOL     OW40611  16.982  11.623   1.023
30591SOL    HW140612   0.093  11.627   1.055
30591SOL    HW240613  16.930  11.559   1.079
30592SOL     OW40614   0.729   7.171   0.110
30592SOL    HW140615   0.792   7.223   0.052
30592SOL    HW240616   0.664   7.233   0.154
30593SOL     OW40617   8.800  14.602   2.298
30593SOL    HW140618   8.733  14.632   2.366
30593SOL    HW240619   8.853  14.681   2.267
30594SOL     OW40620   8.379  11.229   0.591
30594SOL    HW140621   8.426  11.269   0.669
30594SOL    HW240622   8.387  11.290   0.512
30595SOL     OW40623  15.728  16.076   6.739
30595SOL    HW140624  15.806  16.139   6.736
30595SOL    HW240625  15.673  16.096   6.820
30596SOL     OW40626   4.302  12.249   6.919
30596SOL    HW140627   4.253  12.207   6.996
30596SOL    HW240628   4.242  12.314   6.874
30597SOL     OW40629   8.634  10.102   0.742
30597SOL    HW140630   8.725  10.129   0.709
30597SOL    HW240631   8.582  10.062   0.667
30598SOL     OW40632   4.487   9.108   2.359
30598SOL    HW140633   4.487   9.037   2.430
30598SOL    HW240634   4.466   9.196   2.400
30599SOL     OW40635   1.589  12.237   1.737
30599SOL    HW140636   1.524  12.222   1.811
30599SOL    HW240637   1.559  12.315   1.681
30600SOL     OW40638  11.331  11.262   1.318
30600SOL    HW140639  11.303  11.199   1.389
30600SOL    HW240640  11.414  11.310   1.347
30601SOL     OW40641   6.076   1.476   0.277
30601SOL    HW140642   6.099   1.436   0.366
30601SOL    HW240643   6.144   1.446   0.209
30602SOL     OW40644   1.839  10.914   0.968
30602SOL    HW140645   1.814  10.848   0.897
30602SOL    HW240646   1.814  10.878   1.058
30603SOL     OW40647   4.058  15.654   0.395
30603SOL    HW140648   3.962  15.628   0.400
30603SOL    HW240649   4.088  15.689   0.484
30604SOL     OW40650  10.462  15.998   7.812
30604SOL    HW140651  10.446  15.983   7.910
30604SOL    HW240652  10.378  16.030   7.769
30605SOL     OW40653  15.854  11.616   7.676
30605SOL    HW140654  15.794  11.552   7.725
30605SOL    HW240655  15.805  11.655   7.598
30606SOL     OW40656  16.702  14.149   1.534
30606SOL    HW140657  16.722  14.150   1.632
30606SOL    HW240658  16.744  14.228   1.491
30607SOL     OW40659   7.443   5.461   0.496
30607SOL    HW140660   7.397   5.442   0.409
30607SOL    HW240661   7.534   5.497   0.478
30608SOL     OW40662   6.691  15.173   7.453
30608SOL    HW140663   6.691  15.149   7.356
30608SOL    HW240664   6.714  15.270   7.463
30609SOL     OW40665   6.130   1.218   8.392
30609SOL    HW140666   6.166   1.130   8.363
30609SOL    HW240667   6.031   1.220   8.379
30610SOL     OW40668  13.666  11.825   7.207
30610SOL    HW140669  13.626  11.911   7.238
30610SOL    HW240670  13.639  11.752   7.270
30611SOL     OW40671   5.537   7.188   6.932
30611SOL    HW140672   5.441   7.201   6.956
30611SOL    HW240673   5.583   7.138   7.005
30612SOL     OW40674   5.358   6.268   0.785
30612SOL    HW140675   5.434   6.324   0.753
30612SOL    HW240676   5.272   6.307   0.753
30613SOL     OW40677   9.882  14.280   0.821
30613SOL    HW140678   9.859  14.359   0.877
30613SOL    HW240679   9.797  14.237   0.789
30614SOL     OW40680  11.629   5.393   6.753
30614SOL    HW140681  11.721   5.368   6.722
30614SOL    HW240682  11.596   5.470   6.699
30615SOL     OW40683  16.862   6.440   6.207
30615SOL    HW140684  16.900   6.448   6.299
30615SOL    HW240685  16.930   6.404   6.145
30616SOL     OW40686  15.189   0.847   0.189
30616SOL    HW140687  15.279   0.861   0.149
30616SOL    HW240688  15.178   0.905   0.270
30617SOL     OW40689   1.670   1.911   2.112
30617SOL    HW140690   1.710   1.998   2.143
30617SOL    HW240691   1.593   1.888   2.171
30618SOL     OW40692  12.411   7.332   0.880
30618SOL    HW140693  12.330   7.280   0.909
30618SOL    HW240694  12.489   7.270   0.873
30619SOL     OW40695   4.812  10.079   1.446
30619SOL    HW140696   4.806  10.131   1.361
30619SOL    HW240697   4.855   9.990   1.429
30620SOL     OW40698   6.034   0.831   6.980
30620SOL    HW140699   5.953   0.888   6.995
30620SOL    HW240700   6.009   0.735   6.990
30621SOL     OW40701  15.007  12.018   6.909
30621SOL    HW140702  14.921  12.062   6.885
30621SOL    HW240703  14.990  11.945   6.975
30622SOL     OW40704  15.153   8.301   0.473
30622SOL    HW140705  15.233   8.294   0.414
30622SOL    HW240706  15.110   8.212   0.482
30623SOL     OW40707   0.077  13.461   7.584
30623SOL    HW140708   0.165  13.501   7.610
30623SOL    HW240709   0.076  13.444   7.485
30624SOL     OW40710   7.372   8.892   7.981
30624SOL    HW140711   7.422   8.941   7.909
30624SOL    HW240712   7.324   8.814   7.940
30625SOL     OW40713  10.864   7.044   0.434
30625SOL    HW140714  10.807   7.110   0.386
30625SOL    HW240715  10.807   6.979   0.483
30626SOL     OW40716  14.529  15.028   1.855
30626SOL    HW140717  14.564  14.954   1.913
30626SOL    HW240718  14.430  15.018   1.844
30627SOL     OW40719   0.322  10.904   7.932
30627SOL    HW140720   0.330  10.997   7.896
30627SOL    HW240721   0.239  10.862   7.895
30628SOL     OW40722  15.091   5.208   1.651
30628SOL    HW140723  15.042   5.295   1.656
30628SOL    HW240724  15.186   5.221   1.680
30629SOL     OW40725   5.705   3.068   8.428
30629SOL    HW140726   5.753   2.984   8.404
30629SOL    HW240727   5.714   3.135   8.354
30630SOL     OW40728   9.137   3.496   6.294
30630SOL    HW140729   9.232   3.498   6.263
30630SOL    HW240730   9.084   3.566   6.244
30631SOL     OW40731  15.302   2.038   6.650
30631SOL    HW140732  15.291   1.950   6.696
30631SOL    HW240733  15.351   2.024   6.564
30632SOL     OW40734  10.190   3.149   7.919
30632SOL    HW140735  10.202   3.241   7.956
30632SOL    HW240736  10.141   3.092   7.985
30633SOL     OW40737  16.326   1.244   0.846
30633SOL    HW140738  16.380   1.280   0.922
30633SOL    HW240739  16.319   1.313   0.774
30634SOL     OW40740   6.822   4.649   0.731
30634SOL    HW140741   6.909   4.673   0.688
30634SOL    HW240742   6.823   4.553   0.756
30635SOL     OW40743  13.243   8.591   6.480
30635SOL    HW140744  13.284   8.649   6.410
30635SOL    HW240745  13.315   8.540   6.528
30636SOL     OW40746  15.581   9.487   8.303
30636SOL    HW140747  15.664   9.542   8.318
30636SOL    HW240748  15.535   9.519   8.220
30637SOL     OW40749  13.488   4.194   0.849
30637SOL    HW140750  13.417   4.125   0.835
30637SOL    HW240751  13.556   4.188   0.776
30638SOL     OW40752   8.591   8.658   6.946
30638SOL    HW140753   8.521   8.705   6.999
30638SOL    HW240754   8.576   8.674   6.849
30639SOL     OW40755   9.348   1.086   8.403
30639SOL    HW140756   9.359   1.168   0.004
30639SOL    HW240757   9.425   1.077   8.339
30640SOL     OW40758  13.863   6.105   7.597
30640SOL    HW140759  13.950   6.147   7.624
30640SOL    HW240760  13.808   6.089   7.679
30641SOL     OW40761   9.532  13.818   7.339
30641SOL    HW140762   9.507  13.860   7.251
30641SOL    HW240763   9.536  13.719   7.329
30642SOL     OW40764   8.465   8.132   1.781
30642SOL    HW140765   8.489   8.069   1.707
30642SOL    HW240766   8.389   8.094   1.834
30643SOL     OW40767  14.703  13.400   0.105
30643SOL    HW140768  14.675  13.355   0.020
30643SOL    HW240769  14.737  13.331   0.169
30644SOL     OW40770  15.775   2.955   6.135
30644SOL    HW140771  15.746   2.992   6.047
30644SOL    HW240772  15.860   2.904   6.123
30645SOL     OW40773  14.104   1.678   1.755
30645SOL    HW140774  14.162   1.758   1.771
30645SOL    HW240775  14.031   1.675   1.824
30646SOL     OW40776   1.032  13.722   8.219
30646SOL    HW140777   0.978  13.714   8.302
30646SOL    HW240778   1.129  13.716   8.242
30647SOL     OW40779  15.787  16.563   1.520
30647SOL    HW140780  15.714  16.521   1.467
30647SOL    HW240781  15.788  16.524   1.612
30648SOL     OW40782  11.061   4.962   1.128
30648SOL    HW140783  11.110   4.902   1.065
30648SOL    HW240784  10.964   4.964   1.105
30649SOL     OW40785   9.163  13.973   6.215
30649SOL    HW140786   9.159  13.927   6.126
30649SOL    HW240787   9.107  14.056   6.211
30650SOL     OW40788  12.864  11.369   7.577
30650SOL    HW140789  12.833  11.455   7.617
30650SOL    HW240790  12.961  11.355   7.598
30651SOL     OW40791   5.247  12.998   7.756
30651SOL    HW140792   5.195  12.967   7.835
30651SOL    HW240793   5.285  13.089   7.774
30652SOL     OW40794  15.778   2.330   0.960
30652SOL    HW140795  15.762   2.386   1.041
30652SOL    HW240796  15.815   2.241   0.988
30653SOL     OW40797   1.406   9.236   8.141
30653SOL    HW140798   1.461   9.223   8.058
30653SOL    HW240799   1.364   9.150   8.168
30654SOL     OW40800   1.423  12.264   2.950
30654SOL    HW140801   1.361  12.336   2.982
30654SOL    HW240802   1.514  12.278   2.989
30655SOL     OW40803   3.585   6.262   1.505
30655SOL    HW140804   3.598   6.330   1.432
30655SOL    HW240805   3.505   6.206   1.485
30656SOL     OW40806  13.135   0.387   7.510
30656SOL    HW140807  13.220   0.340   7.486
30656SOL    HW240808  13.097   0.430   7.428
30657SOL     OW40809  10.005  12.774   0.575
30657SOL    HW140810   9.951  12.708   0.627
30657SOL    HW240811   9.953  12.858   0.564
30658SOL     OW40812   6.633  16.852   0.264
30658SOL    HW140813   6.662  16.852   0.359
30658SOL    HW240814   6.682  16.924   0.214
30659SOL     OW40815  16.571  15.147   6.921
30659SOL    HW140816  16.494  15.085   6.935
30659SOL    HW240817  16.650  15.094   6.890
30660SOL     OW40818  15.257   5.375   5.435
30660SOL    HW140819  15.283   5.279   5.431
30660SOL    HW240820  15.334   5.432   5.406
30661SOL     OW40821  14.357  15.160   0.573
30661SOL    HW140822  14.264  15.124   0.572
30661SOL    HW240823  14.382  15.186   0.667
30662SOL     OW40824  16.727  11.700   0.268
30662SOL    HW140825  16.695  11.638   0.340
30662SOL    HW240826  16.761  11.784   0.310
30663SOL     OW40827   5.435  12.332   6.376
30663SOL    HW140828   5.392  12.407   6.325
30663SOL    HW240829   5.439  12.356   6.473
30664SOL     OW40830   5.487  14.220   2.561
30664SOL    HW140831   5.545  14.141   2.541
30664SOL    HW240832   5.521  14.267   2.642
30665SOL     OW40833  11.112  10.946   7.209
30665SOL    HW140834  11.023  10.933   7.252
30665SOL    HW240835  11.098  10.973   7.113
30666SOL     OW40836   8.465  13.770   1.316
30666SOL    HW140837   8.387  13.720   1.354
30666SOL    HW240838   8.550  13.731   1.351
30667SOL     OW40839   0.594   3.151   8.106
30667SOL    HW140840   0.541   3.212   8.047
30667SOL    HW240841   0.674   3.200   8.141
30668SOL     OW40842   1.497   8.651   7.876
30668SOL    HW140843   1.450   8.604   7.951
30668SOL    HW240844   1.511   8.587   7.800
30669SOL     OW40845   8.586  14.103   0.325
30669SOL    HW140846   8.597  14.010   0.359
30669SOL    HW240847   8.654  14.122   0.255
30670SOL     OW40848   0.141  15.895   0.113
30670SOL    HW140849   0.078  15.972   0.103
30670SOL    HW240850   0.228  15.929   0.149
30671SOL     OW40851   4.042   5.302   1.726
30671SOL    HW140852   4.061   5.212   1.765
30671SOL    HW240853   4.003   5.361   1.796
30672SOL     OW40854   3.928   4.392   7.215
30672SOL    HW140855   3.933   4.403   7.314
30672SOL    HW240856   3.974   4.307   7.188
30673SOL     OW40857  16.320   3.649   0.232
30673SOL    HW140858  16.351   3.571   0.286
30673SOL    HW240859  16.287   3.721   0.293
30674SOL     OW40860  13.429  11.338   7.493
30674SOL    HW140861  13.363  11.336   7.417
30674SOL    HW240862  13.419  11.255   7.548
30675SOL     OW40863  13.046  16.790   0.925
30675SOL    HW140864  13.064  16.858   0.995
30675SOL    HW240865  12.977  16.825   0.861
30676SOL     OW40866  14.582   5.566   7.208
30676SOL    HW140867  14.533   5.651   7.188
30676SOL    HW240868  14.619   5.570   7.301
30677SOL     OW40869  14.691   5.748   1.261
30677SOL    HW140870  14.690   5.652   1.287
30677SOL    HW240871  14.774   5.768   1.209
30678SOL     OW40872  10.546   7.154   0.880
30678SOL    HW140873  10.527   7.242   0.925
30678SOL    HW240874  10.526   7.080   0.944
30679SOL     OW40875  14.690   4.865   6.399
30679SOL    HW140876  14.679   4.766   6.415
30679SOL    HW240877  14.700   4.882   6.301
30680SOL     OW40878   9.643   3.925   6.279
30680SOL    HW140879   9.722   3.931   6.218
30680SOL    HW240880   9.573   3.989   6.248
30681SOL     OW40881   1.802   5.382   6.544
30681SOL    HW140882   1.777   5.285   6.543
30681SOL    HW240883   1.834   5.406   6.636
30682SOL     OW40884   0.825   7.995   0.303
30682SOL    HW140885   0.907   8.051   0.296
30682SOL    HW240886   0.849   7.899   0.285
30683SOL     OW40887  14.054   6.306   1.267
30683SOL    HW140888  13.968   6.273   1.306
30683SOL    HW240889  14.090   6.380   1.324
30684SOL     OW40890   9.708  13.880   0.163
30684SOL    HW140891   9.724  13.836   0.074
30684SOL    HW240892   9.651  13.820   0.220
30685SOL     OW40893   4.762  14.529   1.974
30685SOL    HW140894   4.713  14.616   1.967
30685SOL    HW240895   4.844  14.533   1.916
30686SOL     OW40896   5.752  14.265   0.706
30686SOL    HW140897   5.818  14.235   0.775
30686SOL    HW240898   5.772  14.359   0.680
30687SOL     OW40899   7.417  10.790   0.007
30687SOL    HW140900   7.326  10.786   0.048
30687SOL    HW240901   7.466  10.869   0.043
30688SOL     OW40902   8.160   9.861   6.238
30688SOL    HW140903   8.089   9.928   6.216
30688SOL    HW240904   8.131   9.771   6.204
30689SOL     OW40905   8.899  12.777   1.180
30689SOL    HW140906   8.857  12.758   1.091
30689SOL    HW240907   8.980  12.835   1.167
30690SOL     OW40908   8.296   5.472   6.465
30690SOL    HW140909   8.329   5.399   6.525
30690SOL    HW240910   8.318   5.450   6.370
30691SOL     OW40911  13.267   1.630   7.571
30691SOL    HW140912  13.211   1.548   7.574
30691SOL    HW240913  13.292   1.651   7.477
30692SOL     OW40914  10.650  15.687   7.023
30692SOL    HW140915  10.677  15.676   6.928
30692SOL    HW240916  10.730  15.672   7.082
30693SOL     OW40917  13.719  12.642   1.303
30693SOL    HW140918  13.806  12.605   1.272
30693SOL    HW240919  13.704  12.731   1.260
30694SOL     OW40920   0.390  12.617   1.827
30694SOL    HW140921   0.340  12.692   1.868
30694SOL    HW240922   0.341  12.531   1.842
30695SOL     OW40923   6.201  15.467   1.312
30695SOL    HW140924   6.177  15.557   1.350
30695SOL    HW240925   6.167  15.395   1.373
30696SOL     OW40926  12.500  11.615   8.366
30696SOL    HW140927  12.417  11.670   8.360
30696SOL    HW240928  12.476  11.518   8.364
30697SOL     OW40929   0.026   7.954   1.231
30697SOL    HW140930   0.082   8.035   1.215
30697SOL    HW240931   0.065   7.901   1.306
30698SOL     OW40932   8.584   4.217   7.290
30698SOL    HW140933   8.647   4.157   7.340
30698SOL    HW240934   8.562   4.297   7.346
30699SOL     OW40935   8.144   8.747   1.198
30699SOL    HW140936   8.214   8.721   1.132
30699SOL    HW240937   8.077   8.807   1.154
30700SOL     OW40938   7.232   3.895   1.087
30700SOL    HW140939   7.220   3.821   1.022
30700SOL    HW240940   7.228   3.859   1.180
30701SOL     OW40941   2.576   1.923   7.675
30701SOL    HW140942   2.618   1.833   7.688
30701SOL    HW240943   2.476   1.913   7.673
30702SOL     OW40944   1.515  14.320   8.110
30702SOL    HW140945   1.609  14.300   8.081
30702SOL    HW240946   1.510  14.323   8.209
30703SOL     OW40947   1.716   4.104   1.100
30703SOL    HW140948   1.755   4.081   1.011
30703SOL    HW240949   1.629   4.056   1.112
30704SOL     OW40950   8.046   8.253   8.158
30704SOL    HW140951   8.000   8.192   8.094
30704SOL    HW240952   7.982   8.281   8.230
30705SOL     OW40953  12.353   4.449   0.251
30705SOL    HW140954  12.435   4.498   0.278
30705SOL    HW240955  12.353   4.358   0.292
30706SOL     OW40956   6.590   0.504   8.370
30706SOL    HW140957   6.674   0.495   8.317
30706SOL    HW240958   6.512   0.514   8.308
30707SOL     OW40959  14.237  12.360   1.789
30707SOL    HW140960  14.174  12.369   1.712
30707SOL    HW240961  14.271  12.266   1.793
30708SOL     OW40962   5.858   2.510   7.250
30708SOL    HW140963   5.909   2.433   7.213
30708SOL    HW240964   5.922   2.577   7.288
30709SOL     OW40965   4.253  14.005   7.937
30709SOL    HW140966   4.315  13.933   7.906
30709SOL    HW240967   4.177  13.965   7.987
30710SOL     OW40968   5.235  15.269   0.601
30710SOL    HW140969   5.252  15.173   0.579
30710SOL    HW240970   5.138  15.289   0.591
30711SOL     OW40971   8.251  13.647   1.478
30711SOL    HW140972   8.180  13.715   1.495
30711SOL    HW240973   8.327  13.661   1.542
30712SOL     OW40974   0.734  14.853   7.935
30712SOL    HW140975   0.793  14.789   7.983
30712SOL    HW240976   0.707  14.926   7.998
30713SOL     OW40977   2.488   5.739   2.037
30713SOL    HW140978   2.401   5.777   2.067
30713SOL    HW240979   2.556   5.749   2.110
30714SOL     OW40980  14.554   3.984   8.329
30714SOL    HW140981  14.457   4.008   8.333
30714SOL    HW240982  14.600   4.015   8.413
30715SOL     OW40983  12.940   9.522   7.105
30715SOL    HW140984  12.959   9.485   7.196
30715SOL    HW240985  12.844   9.549   7.100
30716SOL     OW40986   3.737  14.594   0.797
30716SOL    HW140987   3.801  14.597   0.721
30716SOL    HW240988   3.650  14.554   0.766
30717SOL     OW40989   7.530  14.351   1.295
30717SOL    HW140990   7.485  14.339   1.384
30717SOL    HW240991   7.599  14.423   1.303
30718SOL     OW40992  10.559  13.569   7.448
30718SOL    HW140993  10.657  13.577   7.430
30718SOL    HW240994  10.521  13.660   7.462
30719SOL     OW40995   2.696  13.544   7.107
30719SOL    HW140996   2.776  13.585   7.063
30719SOL    HW240997   2.616  13.603   7.092
30720SOL     OW40998   6.288  13.946   6.785
30720SOL    HW140999   6.281  14.046   6.794
30720SOL    HW241000   6.348  13.910   6.856
30721SOL     OW41001  15.832  15.007   0.085
30721SOL    HW141002  15.907  15.036   0.026
30721SOL    HW241003  15.770  15.084   0.100
30722SOL     OW41004  12.583   1.747   0.804
30722SOL    HW141005  12.637   1.815   0.855
30722SOL    HW241006  12.632   1.660   0.802
30723SOL     OW41007  11.731   5.147   1.176
30723SOL    HW141008  11.680   5.071   1.217
30723SOL    HW241009  11.709   5.153   1.079
30724SOL     OW41010  12.772  12.292   8.042
30724SOL    HW141011  12.787  12.303   8.140
30724SOL    HW241012  12.718  12.369   8.007
30725SOL     OW41013   5.559  13.397   0.229
30725SOL    HW141014   5.653  13.405   0.197
30725SOL    HW241015   5.510  13.483   0.211
30726SOL     OW41016  15.597   3.195   7.429
30726SOL    HW141017  15.596   3.126   7.501
30726SOL    HW241018  15.636   3.156   7.346
30727SOL     OW41019  10.019  14.760   1.419
30727SOL    HW141020   9.974  14.816   1.349
30727SOL    HW241021  10.002  14.663   1.399
30728SOL     OW41022   9.578   4.755   7.753
30728SOL    HW141023   9.552   4.739   7.848
30728SOL    HW241024   9.546   4.680   7.696
30729SOL     OW41025  14.433   5.407   7.881
30729SOL    HW141026  14.439   5.506   7.887
30729SOL    HW241027  14.524   5.370   7.857
30730SOL     OW41028   7.735  13.404   1.441
30730SOL    HW141029   7.690  13.382   1.354
30730SOL    HW241030   7.816  13.460   1.423
30731SOL     OW41031  12.308   0.681   6.332
30731SOL    HW141032  12.294   0.582   6.334
30731SOL    HW241033  12.235   0.725   6.385
30732SOL     OW41034  11.981  16.215   2.024
30732SOL    HW141035  12.026  16.298   1.990
30732SOL    HW241036  12.005  16.202   2.120
30733SOL     OW41037   6.185   8.752   0.954
30733SOL    HW141038   6.224   8.663   0.931
30733SOL    HW241039   6.139   8.790   0.873
30734SOL     OW41040   5.604   3.501   6.833
30734SOL    HW141041   5.683   3.563   6.828
30734SOL    HW241042   5.571   3.482   6.740
30735SOL     OW41043   6.929   9.354   8.105
30735SOL    HW141044   6.961   9.447   8.123
30735SOL    HW241045   6.833   9.356   8.080
30736SOL     OW41046  12.387   6.442   0.732
30736SOL    HW141047  12.421   6.352   0.704
30736SOL    HW241048  12.373   6.499   0.651
30737SOL     OW41049  10.549   7.201   8.031
30737SOL    HW141050  10.494   7.174   7.952
30737SOL    HW241051  10.547   7.128   8.099
30738SOL     OW41052  15.558  11.894   6.692
30738SOL    HW141053  15.618  11.905   6.771
30738SOL    HW241054  15.567  11.801   6.656
30739SOL     OW41055  13.113   5.015   1.559
30739SOL    HW141056  13.137   5.057   1.646
30739SOL    HW241057  13.014   5.013   1.548
30740SOL     OW41058   3.222  14.560   6.655
30740SOL    HW141059   3.176  14.484   6.610
30740SOL    HW241060   3.291  14.598   6.593
30741SOL     OW41061   7.698   4.887   8.307
30741SOL    HW141062   7.638   4.807   8.310
30741SOL    HW241063   7.680   4.938   8.223
30742SOL     OW41064   8.694  12.118   0.746
30742SOL    HW141065   8.610  12.171   0.756
30742SOL    HW241066   8.762  12.151   0.811
30743SOL     OW41067   3.088  16.623   7.858
30743SOL    HW141068   3.030  16.580   7.789
30743SOL    HW241069   3.183  16.619   7.829
30744SOL     OW41070  12.247   8.723   1.163
30744SOL    HW141071  12.295   8.789   1.105
30744SOL    HW241072  12.298   8.637   1.165
30745SOL     OW41073   4.229   2.872   7.275
30745SOL    HW141074   4.148   2.815   7.289
30745SOL    HW241075   4.201   2.965   7.251
30746SOL     OW41076  10.754  11.290   0.906
30746SOL    HW141077  10.713  11.350   0.837
30746SOL    HW241078  10.726  11.321   0.997
30747SOL     OW41079   2.140   2.449   0.113
30747SOL    HW141080   2.166   2.407   0.026
30747SOL    HW241081   2.216   2.440   0.178
30748SOL     OW41082   4.311  10.591   0.597
30748SOL    HW141083   4.306  10.610   0.695
30748SOL    HW241084   4.385  10.528   0.579
30749SOL     OW41085   8.743   5.193   0.567
30749SOL    HW141086   8.730   5.156   0.475
30749SOL    HW241087   8.673   5.156   0.628
30750SOL     OW41088  10.768  16.022   8.312
30750SOL    HW141089  10.677  16.061   8.305
30750SOL    HW241090  10.836  16.091   8.290
30751SOL     OW41091   0.272   1.325   1.703
30751SOL    HW141092   0.343   1.355   1.766
30751SOL    HW241093   0.200   1.394   1.698
30752SOL     OW41094   0.542   8.010   0.836
30752SOL    HW141095   0.501   7.948   0.769
30752SOL    HW241096   0.558   8.099   0.793
30753SOL     OW41097  13.580   0.244   6.671
30753SOL    HW141098  13.636   0.300   6.610
30753SOL    HW241099  13.610   0.148   6.664
30754SOL     OW41100   1.919   5.780   7.357
30754SOL    HW141101   1.986   5.848   7.325
30754SOL    HW241102   1.872   5.741   7.278
30755SOL     OW41103  16.740  10.560   0.941
30755SOL    HW141104  16.775  10.520   0.857
30755SOL    HW241105  16.787  10.646   0.961
30756SOL     OW41106  10.662  11.029   7.463
30756SOL    HW141107  10.602  11.032   7.543
30756SOL    HW241108  10.610  11.058   7.382
30757SOL     OW41109  12.698  15.299   7.118
30757SOL    HW141110  12.639  15.266   7.191
30757SOL    HW241111  12.652  15.374   7.070
30758SOL     OW41112   6.980   8.866   1.778
30758SOL    HW141113   7.049   8.876   1.850
30758SOL    HW241114   6.996   8.935   1.708
30759SOL     OW41115   0.987  16.220   0.089
30759SOL    HW141116   1.006  16.127   0.060
30759SOL    HW241117   0.967  16.277   0.010
30760SOL     OW41118   3.829   3.780   0.200
30760SOL    HW141119   3.778   3.706   0.156
30760SOL    HW241120   3.898   3.742   0.261
30761SOL     OW41121   9.781   4.505   8.413
30761SOL    HW141122   9.688   4.511   8.448
30761SOL    HW241123   9.807   4.593   8.372
30762SOL     OW41124  16.726  16.146   7.269
30762SOL    HW141125  16.636  16.182   7.245
30762SOL    HW241126  16.796  16.215   7.246
30763SOL     OW41127  12.251   0.442   1.314
30763SOL    HW141128  12.246   0.391   1.228
30763SOL    HW241129  12.295   0.531   1.298
30764SOL     OW41130   8.213  15.957   7.721
30764SOL    HW141131   8.207  16.016   7.802
30764SOL    HW241132   8.170  16.003   7.643
30765SOL     OW41133   1.382  10.619   0.683
30765SOL    HW141134   1.426  10.637   0.595
30765SOL    HW241135   1.337  10.702   0.716
30766SOL     OW41136  16.700  12.608   0.574
30766SOL    HW141137  16.751  12.568   0.650
30766SOL    HW241138  16.606  12.627   0.603
30767SOL     OW41139  16.271  11.556   1.979
30767SOL    HW141140  16.328  11.502   2.041
30767SOL    HW241141  16.306  11.650   1.975
30768SOL     OW41142  11.929   4.106   7.087
30768SOL    HW141143  11.831   4.119   7.100
30768SOL    HW241144  11.974   4.099   7.176
30769SOL     OW41145   4.746   4.768   1.335
30769SOL    HW141146   4.704   4.852   1.301
30769SOL    HW241147   4.783   4.784   1.426
30770SOL     OW41148   8.970  15.449   0.002
30770SOL    HW141149   9.024  15.528   0.028
30770SOL    HW241150   9.018  15.397   8.385
30771SOL     OW41151   0.032   9.390   0.229
30771SOL    HW141152   0.085   9.425   0.306
30771SOL    HW241153  16.955   9.461   0.194
30772SOL     OW41154  11.750  15.693   6.950
30772SOL    HW141155  11.721  15.666   7.042
30772SOL    HW241156  11.776  15.612   6.898
30773SOL     OW41157   2.836   5.167   0.888
30773SOL    HW141158   2.859   5.189   0.983
30773SOL    HW241159   2.904   5.104   0.851
30774SOL     OW41160   6.598   4.779   7.153
30774SOL    HW141161   6.652   4.773   7.069
30774SOL    HW241162   6.647   4.735   7.228
30775SOL     OW41163  12.111  15.995   7.125
30775SOL    HW141164  12.030  15.968   7.073
30775SOL    HW241165  12.114  15.944   7.211
30776SOL     OW41166   3.342   6.434   1.821
30776SOL    HW141167   3.382   6.491   1.750
30776SOL    HW241168   3.290   6.491   1.885
30777SOL     OW41169   3.994   1.909   7.644
30777SOL    HW141170   3.904   1.932   7.606
30777SOL    HW241171   4.044   1.993   7.665
30778SOL     OW41172   4.642   0.939   7.818
30778SOL    HW141173   4.646   1.024   7.764
30778SOL    HW241174   4.715   0.878   7.790
30779SOL     OW41175   3.603   7.876   0.332
30779SOL    HW141176   3.685   7.860   0.276
30779SOL    HW241177   3.607   7.968   0.372
30780SOL     OW41178   7.751   0.001   1.402
30780SOL    HW141179   7.719  16.971   1.308
30780SOL    HW241180   7.737  16.900   1.454
30781SOL     OW41181  15.625  11.895   1.445
30781SOL    HW141182  15.626  11.825   1.374
30781SOL    HW241183  15.679  11.974   1.416
30782SOL     OW41184   4.175   1.030   1.366
30782SOL    HW141185   4.086   1.069   1.342
30782SOL    HW241186   4.246   1.072   1.310
30783SOL     OW41187  14.063   9.255   6.253
30783SOL    HW141188  13.989   9.288   6.195
30783SOL    HW241189  14.151   9.275   6.210
30784SOL     OW41190  12.362   5.986   1.532
30784SOL    HW141191  12.387   5.897   1.571
30784SOL    HW241192  12.441   6.047   1.537
30785SOL     OW41193  15.038  12.415   1.808
30785SOL    HW141194  15.105  12.421   1.734
30785SOL    HW241195  15.083  12.434   1.896
30786SOL     OW41196  12.981   6.470   5.907
30786SOL    HW141197  12.907   6.425   5.956
30786SOL    HW241198  13.058   6.407   5.897
30787SOL     OW41199  11.051   8.319   1.074
30787SOL    HW141200  11.049   8.381   0.996
30787SOL    HW241201  11.145   8.292   1.093
30788SOL     OW41202  12.092   2.189   0.981
30788SOL    HW141203  12.089   2.187   1.081
30788SOL    HW241204  12.150   2.115   0.947
30789SOL     OW41205   5.353   5.555   0.720
30789SOL    HW141206   5.387   5.462   0.702
30789SOL    HW241207   5.376   5.614   0.642
30790SOL     OW41208  13.302   0.742   0.515
30790SOL    HW141209  13.373   0.677   0.542
30790SOL    HW241210  13.326   0.782   0.427
30791SOL     OW41211  12.426   5.079   7.722
30791SOL    HW141212  12.394   5.097   7.815
30791SOL    HW241213  12.485   4.998   7.724
30792SOL     OW41214   6.342  16.640   6.965
30792SOL    HW141215   6.410  16.589   7.017
30792SOL    HW241216   6.254  16.637   7.013
30793SOL     OW41217   9.599  14.794   0.334
30793SOL    HW141218   9.502  14.812   0.322
30793SOL    HW241219   9.629  14.729   0.264
30794SOL     OW41220   3.701  14.136   1.707
30794SOL    HW141221   3.746  14.091   1.785
30794SOL    HW241222   3.753  14.217   1.681
30795SOL     OW41223   5.424   9.206   8.280
30795SOL    HW141224   5.425   9.294   8.328
30795SOL    HW241225   5.511   9.193   8.233
30796SOL     OW41226  13.925   0.665   1.462
30796SOL    HW141227  13.843   0.723   1.472
30796SOL    HW241228  13.995   0.697   1.526
30797SOL     OW41229   0.796  12.539   7.873
30797SOL    HW141230   0.770  12.607   7.941
30797SOL    HW241231   0.759  12.450   7.899
30798SOL     OW41232   7.580  14.663   6.187
30798SOL    HW141233   7.610  14.617   6.102
30798SOL    HW241234   7.564  14.594   6.258
30799SOL     OW41235   6.736  15.842   6.627
30799SOL    HW141236   6.758  15.774   6.557
30799SOL    HW241237   6.655  15.814   6.677
30800SOL     OW41238  12.752  12.409   0.110
30800SOL    HW141239  12.777  12.373   0.020
30800SOL    HW241240  12.653  12.401   0.122
30801SOL     OW41241   1.425   0.567   1.262
30801SOL    HW141242   1.452   0.485   1.312
30801SOL    HW241243   1.354   0.544   1.195
30802SOL     OW41244   7.876   2.365   8.404
30802SOL    HW141245   7.944   2.324   8.342
30802SOL    HW241246   7.812   2.421   8.351
30803SOL     OW41247  12.072  15.379   0.424
30803SOL    HW141248  12.075  15.340   0.516
30803SOL    HW241249  12.164  15.376   0.384
30804SOL     OW41250   3.292   9.724   1.329
30804SOL    HW141251   3.333   9.797   1.383
30804SOL    HW241252   3.339   9.717   1.241
30805SOL     OW41253   9.097  15.040   0.719
30805SOL    HW141254   9.020  15.099   0.741
30805SOL    HW241255   9.126  14.990   0.801
30806SOL     OW41256   1.314   8.165   8.410
30806SOL    HW141257   1.315   8.139   0.053
30806SOL    HW241258   1.243   8.234   8.395
30807SOL     OW41259  16.976   6.988   7.569
30807SOL    HW141260   0.033   7.077   7.593
30807SOL    HW241261  16.899   7.002   7.507
30808SOL     OW41262   6.428  13.529   1.925
30808SOL    HW141263   6.408  13.448   1.980
30808SOL    HW241264   6.347  13.553   1.872
30809SOL     OW41265   2.210  10.323   7.848
30809SOL    HW141266   2.191  10.356   7.940
30809SOL    HW241267   2.138  10.260   7.819
30810SOL     OW41268   7.474  15.255   0.746
30810SOL    HW141269   7.421  15.191   0.802
30810SOL    HW241270   7.415  15.331   0.717
30811SOL     OW41271  16.815   4.845   7.535
30811SOL    HW141272  16.727   4.871   7.573
30811SOL    HW241273  16.802   4.809   7.442
30812SOL     OW41274   0.428   4.682   7.866
30812SOL    HW141275   0.455   4.758   7.926
30812SOL    HW241276   0.356   4.713   7.804
30813SOL     OW41277   1.174   5.582   8.104
30813SOL    HW141278   1.107   5.611   8.035
30813SOL    HW241279   1.212   5.663   8.149
30814SOL     OW41280  15.887  15.918   7.396
30814SOL    HW141281  15.970  15.971   7.414
30814SOL    HW241282  15.807  15.969   7.426
30815SOL     OW41283   7.067   9.997   0.972
30815SOL    HW141284   7.167   9.994   0.978
30815SOL    HW241285   7.036  10.091   0.984
30816SOL     OW41286  15.874   9.996   1.209
30816SOL    HW141287  15.923   9.910   1.192
30816SOL    HW241288  15.780   9.988   1.174
30817SOL     OW41289  10.568   3.494   0.812
30817SOL    HW141290  10.604   3.472   0.903
30817SOL    HW241291  10.475   3.529   0.821
30818SOL     OW41292   0.447   2.916   0.696
30818SOL    HW141293   0.425   2.838   0.638
30818SOL    HW241294   0.471   2.883   0.787
30819SOL     OW41295   3.763   4.529   0.237
30819SOL    HW141296   3.750   4.502   0.141
30819SOL    HW241297   3.744   4.626   0.247
30820SOL     OW41298   7.951  10.877   8.094
30820SOL    HW141299   7.997  10.884   8.183
30820SOL    HW241300   7.867  10.931   8.096
30821SOL     OW41301   8.072   3.183   7.855
30821SOL    HW141302   8.166   3.183   7.823
30821SOL    HW241303   8.067   3.228   7.944
30822SOL     OW41304   4.560  10.190   0.892
30822SOL    HW141305   4.482  10.146   0.938
30822SOL    HW241306   4.553  10.176   0.793
30823SOL     OW41307   2.099   1.731   0.932
30823SOL    HW141308   2.029   1.799   0.956
30823SOL    HW241309   2.184   1.778   0.909
30824SOL     OW41310   2.627   2.586   1.453
30824SOL    HW141311   2.619   2.680   1.485
30824SOL    HW241312   2.538   2.554   1.422
30825SOL     OW41313  16.302   4.686   6.105
30825SOL    HW141314  16.277   4.705   6.010
30825SOL    HW241315  16.367   4.756   6.137
30826SOL     OW41316   0.529   5.432   6.484
30826SOL    HW141317   0.618   5.455   6.444
30826SOL    HW241318   0.474   5.515   6.495
30827SOL     OW41319   1.155   2.649   0.099
30827SOL    HW141320   1.240   2.613   0.137
30827SOL    HW241321   1.163   2.749   0.089
30828SOL     OW41322   8.872   1.814   8.065
30828SOL    HW141323   8.794   1.790   8.122
30828SOL    HW241324   8.897   1.735   8.009
30829SOL     OW41325   1.438   7.774   7.818
30829SOL    HW141326   1.492   7.835   7.876
30829SOL    HW241327   1.485   7.762   7.730
30830SOL     OW41328  12.956   0.344   1.500
30830SOL    HW141329  12.887   0.380   1.564
30830SOL    HW241330  13.040   0.324   1.549
30831SOL     OW41331  16.041   1.651   8.315
30831SOL    HW141332  16.128   1.699   8.329
30831SOL    HW241333  15.994   1.691   8.236
30832SOL     OW41334  13.596   7.774   7.706
30832SOL    HW141335  13.632   7.849   7.762
30832SOL    HW241336  13.499   7.763   7.724
30833SOL     OW41337   5.024  14.154   8.074
30833SOL    HW141338   5.018  14.179   7.977
30833SOL    HW241339   5.060  14.060   8.081
30834SOL     OW41340   2.068  14.717   2.287
30834SOL    HW141341   2.089  14.777   2.364
30834SOL    HW241342   2.098  14.760   2.202
30835SOL     OW41343   7.289  15.016   8.215
30835SOL    HW141344   7.254  15.109   8.202
30835SOL    HW241345   7.321  14.979   8.128
30836SOL     OW41346  10.523  16.468   0.777
30836SOL    HW141347  10.427  16.466   0.751
30836SOL    HW241348  10.579  16.490   0.697
30837SOL     OW41349   3.891  14.598   0.086
30837SOL    HW141350   3.855  14.673   0.141
30837SOL    HW241351   3.916  14.631   8.449
30838SOL     OW41352   2.872   9.138   0.436
30838SOL    HW141353   2.918   9.052   0.456
30838SOL    HW241354   2.866   9.151   0.337
30839SOL     OW41355   9.804   8.243   0.078
30839SOL    HW141356   9.727   8.181   0.087
30839SOL    HW241357   9.824   8.259   8.436
30840SOL     OW41358   9.955   9.995   1.762
30840SOL    HW141359   9.871   9.969   1.810
30840SOL    HW241360   9.968   9.935   1.683
30841SOL     OW41361   0.215   2.224   8.162
30841SOL    HW141362   0.268   2.213   8.077
30841SOL    HW241363   0.277   2.224   8.240
30842SOL     OW41364  16.056   7.200   7.173
30842SOL    HW141365  16.145   7.202   7.127
30842SOL    HW241366  16.036   7.106   7.203
30843SOL     OW41367   1.315  12.044   0.172
30843SOL    HW141368   1.324  12.070   0.268
30843SOL    HW241369   1.228  12.078   0.136
30844SOL     OW41370   9.425   7.714   8.237
30844SOL    HW141371   9.453   7.800   8.280
30844SOL    HW241372   9.344   7.730   8.180
30845SOL     OW41373  15.745   5.890   7.085
30845SOL    HW141374  15.804   5.969   7.068
30845SOL    HW241375  15.659   5.902   7.035
30846SOL     OW41376  14.055   8.428   7.024
30846SOL    HW141377  14.020   8.519   6.998
30846SOL    HW241378  14.143   8.412   6.979
30847SOL     OW41379   9.525   7.559   8.012
30847SOL    HW141380   9.625   7.559   8.012
30847SOL    HW241381   9.492   7.603   8.096
30848SOL     OW41382   1.883  10.094   1.956
30848SOL    HW141383   1.838  10.181   1.937
30848SOL    HW241384   1.926  10.097   2.046
30849SOL     OW41385   4.685  10.774   7.822
30849SOL    HW141386   4.757  10.775   7.753
30849SOL    HW241387   4.620  10.847   7.805
30850SOL     OW41388  10.784  15.871   0.890
30850SOL    HW141389  10.828  15.803   0.948
30850SOL    HW241390  10.685  15.860   0.895
30851SOL     OW41391  12.747   7.770   0.772
30851SOL    HW141392  12.764   7.826   0.690
30851SOL    HW241393  12.816   7.792   0.841
30852SOL     OW41394  13.765   4.483   1.172
30852SOL    HW141395  13.808   4.394   1.153
30852SOL    HW241396  13.678   4.469   1.219
30853SOL     OW41397  11.969   5.100   0.426
30853SOL    HW141398  12.021   5.033   0.374
30853SOL    HW241399  11.945   5.062   0.515
30854SOL     OW41400  15.875   6.314   0.004
30854SOL    HW141401  15.858   6.409   8.433
30854SOL    HW241402  15.893   6.260   8.376
30855SOL     OW41403   2.556   8.486   7.826
30855SOL    HW141404   2.541   8.396   7.784
30855SOL    HW241405   2.470   8.519   7.866
30856SOL     OW41406  10.398  15.995   8.083
30856SOL    HW141407  10.348  15.917   8.120
30856SOL    HW241408  10.448  16.041   8.156
30857SOL     OW41409   1.110  14.199   1.388
30857SOL    HW141410   1.021  14.181   1.346
30857SOL    HW241411   1.182  14.162   1.329
30858SOL     OW41412   1.052  16.949   8.285
30858SOL    HW141413   0.988  16.890   8.236
30858SOL    HW241414   1.127  16.975   8.224
30859SOL     OW41415   9.891  10.698   7.038
30859SOL    HW141416   9.976  10.685   7.089
30859SOL    HW241417   9.831  10.619   7.051
30860SOL     OW41418   1.390  13.447   7.862
30860SOL    HW141419   1.342  13.400   7.787
30860SOL    HW241420   1.373  13.546   7.854
30861SOL     OW41421   3.006  15.443   1.264
30861SOL    HW141422   3.075  15.417   1.332
30861SOL    HW241423   2.985  15.364   1.206
30862SOL     OW41424   4.307   1.357   0.130
30862SOL    HW141425   4.319   1.356   0.030
30862SOL    HW241426   4.209   1.353   0.152
30863SOL     OW41427  11.028   9.776   7.947
30863SOL    HW141428  10.958   9.845   7.967
30863SOL    HW241429  10.984   9.694   7.912
30864SOL     OW41430   3.203   8.281   8.290
30864SOL    HW141431   3.252   8.255   8.207
30864SOL    HW241432   3.122   8.335   8.266
30865SOL     OW41433   5.531   6.570   7.229
30865SOL    HW141434   5.521   6.512   7.148
30865SOL    HW241435   5.451   6.629   7.238
30866SOL     OW41436   1.607   9.097   1.151
30866SOL    HW141437   1.669   9.175   1.134
30866SOL    HW241438   1.514   9.131   1.162
30867SOL     OW41439   9.474   0.646   0.274
30867SOL    HW141440   9.462   0.585   0.196
30867SOL    HW241441   9.414   0.617   0.349
30868SOL     OW41442  15.588  13.986   2.279
30868SOL    HW141443  15.582  13.992   2.179
30868SOL    HW241444  15.682  14.001   2.307
30869SOL     OW41445   4.046   6.208   6.515
30869SOL    HW141446   4.046   6.176   6.610
30869SOL    HW241447   3.972   6.274   6.502
30870SOL     OW41448   7.453  13.738   1.334
30870SOL    HW141449   7.406  13.801   1.272
30870SOL    HW241450   7.390  13.665   1.360
30871SOL     OW41451  15.783   5.652   1.432
30871SOL    HW141452  15.730   5.681   1.352
30871SOL    HW241453  15.750   5.563   1.463
30872SOL     OW41454  13.477  16.114   8.067
30872SOL    HW141455  13.437  16.198   8.029
30872SOL    HW241456  13.560  16.138   8.118
30873SOL     OW41457   0.198   7.152   7.315
30873SOL    HW141458   0.218   7.083   7.246
30873SOL    HW241459   0.236   7.123   7.403
30874SOL     OW41460   4.614   4.196   6.306
30874SOL    HW141461   4.663   4.160   6.385
30874SOL    HW241462   4.661   4.168   6.222
30875SOL     OW41463   7.379   5.740   0.501
30875SOL    HW141464   7.306   5.771   0.441
30875SOL    HW241465   7.387   5.640   0.496
30876SOL     OW41466   9.174   5.037   7.794
30876SOL    HW141467   9.079   5.027   7.766
30876SOL    HW241468   9.224   5.088   7.724
30877SOL     OW41469  12.450  14.536   0.957
30877SOL    HW141470  12.481  14.442   0.966
30877SOL    HW241471  12.380  14.542   0.885
30878SOL     OW41472   8.849   4.475   1.132
30878SOL    HW141473   8.919   4.477   1.061
30878SOL    HW241474   8.876   4.410   1.203
30879SOL     OW41475  15.044  16.172   1.348
30879SOL    HW141476  15.023  16.196   1.253
30879SOL    HW241477  15.144  16.167   1.360
30880SOL     OW41478   8.153   4.867   7.682
30880SOL    HW141479   8.124   4.951   7.636
30880SOL    HW241480   8.246   4.844   7.656
30881SOL     OW41481  12.646  11.250   6.834
30881SOL    HW141482  12.581  11.324   6.825
30881SOL    HW241483  12.704  11.246   6.753
30882SOL     OW41484  12.047   6.280   0.166
30882SOL    HW141485  11.956   6.264   0.205
30882SOL    HW241486  12.076   6.373   0.186
30883SOL     OW41487  13.992  13.794   8.054
30883SOL    HW141488  13.897  13.775   8.082
30883SOL    HW241489  14.013  13.890   8.073
30884SOL     OW41490   0.982  15.356   0.726
30884SOL    HW141491   1.032  15.271   0.707
30884SOL    HW241492   1.030  15.409   0.796
30885SOL     OW41493   7.580  14.437   6.359
30885SOL    HW141494   7.666  14.384   6.355
30885SOL    HW241495   7.503  14.374   6.353
30886SOL     OW41496  13.123   0.546   6.650
30886SOL    HW141497  13.122   0.646   6.654
30886SOL    HW241498  13.133   0.517   6.555
30887SOL     OW41499   8.731   4.668   8.305
30887SOL    HW141500   8.782   4.663   8.219
30887SOL    HW241501   8.732   4.579   8.350
30888SOL     OW41502  13.167  10.473   8.248
30888SOL    HW141503  13.242  10.490   8.185
30888SOL    HW241504  13.141  10.558   8.294
30889SOL     OW41505  15.179  10.016   1.152
30889SOL    HW141506  15.126  10.033   1.069
30889SOL    HW241507  15.127  10.048   1.231
30890SOL     OW41508  12.730  14.860   7.041
30890SOL    HW141509  12.701  14.804   6.962
30890SOL    HW241510  12.760  14.949   7.009
30891SOL     OW41511   3.281   2.020   0.185
30891SOL    HW141512   3.206   1.953   0.180
30891SOL    HW241513   3.302   2.052   0.093
30892SOL     OW41514  11.785  16.434   7.319
30892SOL    HW141515  11.731  16.442   7.235
30892SOL    HW241516  11.881  16.418   7.296
30893SOL     OW41517   9.899   9.441   7.204
30893SOL    HW141518   9.918   9.441   7.302
30893SOL    HW241519   9.932   9.356   7.164
30894SOL     OW41520   3.664  13.574   7.411
30894SOL    HW141521   3.761  13.553   7.425
30894SOL    HW241522   3.648  13.596   7.315
30895SOL     OW41523  14.795  10.685   8.309
30895SOL    HW141524  14.755  10.746   8.240
30895SOL    HW241525  14.758  10.593   8.297
30896SOL     OW41526   1.272  16.012   0.758
30896SOL    HW141527   1.304  15.965   0.840
30896SOL    HW241528   1.181  15.979   0.734
30897SOL     OW41529  13.048   6.977   7.278
30897SOL    HW141530  13.124   6.920   7.312
30897SOL    HW241531  13.076   7.022   7.193
30898SOL     OW41532  11.932  16.141   6.775
30898SOL    HW141533  12.000  16.180   6.838
30898SOL    HW241534  11.970  16.137   6.683
30899SOL     OW41535   4.125   9.192   7.945
30899SOL    HW141536   4.126   9.235   8.035
30899SOL    HW241537   4.064   9.112   7.947
30900SOL     OW41538   7.610   1.514   6.697
30900SOL    HW141539   7.544   1.447   6.731
30900SOL    HW241540   7.600   1.523   6.598
30901SOL     OW41541  12.776   8.004   1.088
30901SOL    HW141542  12.827   7.937   1.033
30901SOL    HW241543  12.837   8.078   1.114
30902SOL     OW41544   1.687   3.145   0.902
30902SOL    HW141545   1.597   3.156   0.944
30902SOL    HW241546   1.738   3.075   0.951
30903SOL     OW41547  11.804   7.976   0.027
30903SOL    HW141548  11.704   7.970   0.035
30903SOL    HW241549  11.843   8.013   0.111
30904SOL     OW41550   7.515  11.437   1.058
30904SOL    HW141551   7.506  11.536   1.047
30904SOL    HW241552   7.431  11.401   1.099
30905SOL     OW41553   2.670  11.959   2.299
30905SOL    HW141554   2.635  11.901   2.373
30905SOL    HW241555   2.601  11.969   2.228
30906SOL     OW41556   1.763  14.456   1.420
30906SOL    HW141557   1.747  14.358   1.411
30906SOL    HW241558   1.839  14.472   1.482
30907SOL     OW41559   9.399   7.232   6.750
30907SOL    HW141560   9.321   7.169   6.758
30907SOL    HW241561   9.476   7.184   6.709
30908SOL     OW41562   5.610   8.108   7.185
30908SOL    HW141563   5.593   8.050   7.105
30908SOL    HW241564   5.628   8.202   7.156
30909SOL     OW41565   5.767  13.256   1.489
30909SOL    HW141566   5.774  13.354   1.508
30909SOL    HW241567   5.726  13.242   1.399
30910SOL     OW41568  11.697  11.950   0.594
30910SOL    HW141569  11.701  11.940   0.693
30910SOL    HW241570  11.618  11.900   0.559
30911SOL     OW41571  12.960   9.516   8.349
30911SOL    HW141572  12.971   9.495   8.446
30911SOL    HW241573  12.919   9.437   8.303
30912SOL     OW41574  13.080  12.668   1.682
30912SOL    HW141575  13.012  12.611   1.729
30912SOL    HW241576  13.168  12.659   1.727
30913SOL     OW41577  12.564  15.599   1.603
30913SOL    HW141578  12.534  15.584   1.697
30913SOL    HW241579  12.633  15.671   1.601
30914SOL     OW41580   8.715  12.161   7.580
30914SOL    HW141581   8.696  12.146   7.483
30914SOL    HW241582   8.780  12.236   7.591
30915SOL     OW41583   5.691   3.382   7.905
30915SOL    HW141584   5.681   3.290   7.943
30915SOL    HW241585   5.674   3.379   7.806
30916SOL     OW41586   9.783  10.740   7.641
30916SOL    HW141587   9.872  10.698   7.628
30916SOL    HW241588   9.787  10.836   7.613
30917SOL     OW41589   0.473  15.831   7.012
30917SOL    HW141590   0.562  15.857   6.975
30917SOL    HW241591   0.434  15.909   7.061
30918SOL     OW41592   2.689   4.110   1.138
30918SOL    HW141593   2.613   4.073   1.084
30918SOL    HW241594   2.668   4.100   1.235
30919SOL     OW41595   4.943  16.609   2.066
30919SOL    HW141596   4.993  16.553   2.000
30919SOL    HW241597   4.950  16.567   2.157
30920SOL     OW41598   2.764   4.558   0.231
30920SOL    HW141599   2.810   4.470   0.238
30920SOL    HW241600   2.714   4.576   0.316
30921SOL     OW41601  13.628  12.177   6.737
30921SOL    HW141602  13.701  12.119   6.702
30921SOL    HW241603  13.542  12.155   6.691
30922SOL     OW41604  16.558  13.382   8.408
30922SOL    HW141605  16.462  13.382   8.381
30922SOL    HW241606  16.600  13.469   8.382
30923SOL     OW41607   0.352   1.440   7.243
30923SOL    HW141608   0.311   1.484   7.164
30923SOL    HW241609   0.284   1.430   7.316
30924SOL     OW41610   2.096  12.695   7.241
30924SOL    HW141611   2.031  12.625   7.271
30924SOL    HW241612   2.116  12.682   7.144
30925SOL     OW41613  14.235   1.629   0.255
30925SOL    HW141614  14.257   1.622   0.157
30925SOL    HW241615  14.240   1.538   0.296
30926SOL     OW41616  12.662   3.891   7.341
30926SOL    HW141617  12.593   3.925   7.278
30926SOL    HW241618  12.750   3.935   7.321
30927SOL     OW41619  16.696   9.172   8.358
30927SOL    HW141620  16.596   9.176   8.354
30927SOL    HW241621  16.723   9.114   8.434
30928SOL     OW41622   9.018   3.994   6.438
30928SOL    HW141623   9.055   4.076   6.481
30928SOL    HW241624   9.017   3.919   6.504
30929SOL     OW41625   2.792  15.596   0.874
30929SOL    HW141626   2.746  15.516   0.912
30929SOL    HW241627   2.725  15.655   0.829
30930SOL     OW41628   5.085   4.789   6.608
30930SOL    HW141629   5.015   4.856   6.634
30930SOL    HW241630   5.116   4.740   6.689
30931SOL     OW41631  14.299  11.737   7.859
30931SOL    HW141632  14.358  11.772   7.787
30931SOL    HW241633  14.240  11.665   7.823
30932SOL     OW41634  12.382   5.162   6.408
30932SOL    HW141635  12.295   5.183   6.452
30932SOL    HW241636  12.454   5.217   6.449
30933SOL     OW41637   7.253  16.838   7.293
30933SOL    HW141638   7.249  16.832   7.393
30933SOL    HW241639   7.304  16.919   7.266
30934SOL     OW41640   5.360  10.781   7.579
30934SOL    HW141641   5.433  10.785   7.511
30934SOL    HW241642   5.391  10.824   7.664
30935SOL     OW41643   9.533  11.140   8.038
30935SOL    HW141644   9.520  11.144   8.137
30935SOL    HW241645   9.523  11.045   8.007
30936SOL     OW41646  10.308   4.669   6.276
30936SOL    HW141647  10.337   4.586   6.227
30936SOL    HW241648  10.351   4.672   6.366
30937SOL     OW41649  14.353  13.695   0.997
30937SOL    HW141650  14.422  13.623   0.985
30937SOL    HW241651  14.379  13.752   1.075
30938SOL     OW41652  11.787   0.931   5.719
30938SOL    HW141653  11.799   0.847   5.771
30938SOL    HW241654  11.817   0.917   5.624
30939SOL     OW41655   9.266   7.778   1.276
30939SOL    HW141656   9.314   7.759   1.362
30939SOL    HW241657   9.168   7.764   1.288
30940SOL     OW41658  12.133   0.587   2.084
30940SOL    HW141659  12.090   0.642   2.156
30940SOL    HW241660  12.217   0.546   2.119
30941SOL     OW41661  16.046  14.439   1.366
30941SOL    HW141662  16.026  14.459   1.271
30941SOL    HW241663  15.980  14.372   1.401
30942SOL     OW41664  15.715   2.986   8.167
30942SOL    HW141665  15.800   3.038   8.177
30942SOL    HW241666  15.692   2.944   8.255
30943SOL     OW41667   7.023   7.495   8.032
30943SOL    HW141668   7.059   7.582   8.064
30943SOL    HW241669   6.961   7.511   7.956
30944SOL     OW41670   3.072  10.339   7.564
30944SOL    HW141671   3.136  10.365   7.637
30944SOL    HW241672   2.997  10.405   7.561
30945SOL     OW41673   7.516  14.624   7.281
30945SOL    HW141674   7.580  14.621   7.358
30945SOL    HW241675   7.556  14.678   7.206
30946SOL     OW41676  13.980  16.483   0.396
30946SOL    HW141677  13.967  16.507   0.492
30946SOL    HW241678  13.892  16.459   0.355
30947SOL     OW41679   6.561   1.898   1.450
30947SOL    HW141680   6.529   1.992   1.447
30947SOL    HW241681   6.638   1.890   1.512
30948SOL     OW41682   2.286   3.596   0.058
30948SOL    HW141683   2.207   3.597   0.118
30948SOL    HW241684   2.341   3.678   0.073
30949SOL     OW41685  14.879  12.976   8.077
30949SOL    HW141686  14.790  13.020   8.091
30949SOL    HW241687  14.867  12.877   8.069
30950SOL     OW41688  16.448  13.870   1.886
30950SOL    HW141689  16.521  13.807   1.860
30950SOL    HW241690  16.487  13.956   1.919
30951SOL     OW41691   6.478  14.514   7.500
30951SOL    HW141692   6.494  14.603   7.542
30951SOL    HW241693   6.411  14.463   7.555
30952SOL     OW41694   8.788   7.400   5.908
30952SOL    HW141695   8.846   7.354   5.976
30952SOL    HW241696   8.738   7.332   5.856
30953SOL     OW41697   5.815   8.757   7.598
30953SOL    HW141698   5.860   8.811   7.527
30953SOL    HW241699   5.785   8.670   7.558
30954SOL     OW41700   1.381   9.707   1.488
30954SOL    HW141701   1.289   9.709   1.448
30954SOL    HW241702   1.417   9.614   1.483
30955SOL     OW41703   9.090  12.876   1.843
30955SOL    HW141704   9.070  12.943   1.915
30955SOL    HW241705   9.048  12.788   1.866
30956SOL     OW41706   7.517   1.899   6.053
30956SOL    HW141707   7.430   1.870   6.014
30956SOL    HW241708   7.592   1.860   6.000
30957SOL     OW41709  14.623  11.673   7.475
30957SOL    HW141710  14.570  11.648   7.394
30957SOL    HW241711  14.718  11.692   7.449
30958SOL     OW41712  11.909  10.157   0.223
30958SOL    HW141713  11.988  10.146   0.163
30958SOL    HW241714  11.836  10.096   0.193
30959SOL     OW41715   4.415   5.384   1.757
30959SOL    HW141716   4.347   5.418   1.823
30959SOL    HW241717   4.406   5.285   1.748
30960SOL     OW41718  10.279   7.561   0.172
30960SOL    HW141719  10.335   7.515   0.103
30960SOL    HW241720  10.230   7.637   0.131
30961SOL     OW41721  12.490   4.323   6.455
30961SOL    HW141722  12.474   4.231   6.421
30961SOL    HW241723  12.567   4.364   6.405
30962SOL     OW41724   2.900   4.528   0.529
30962SOL    HW141725   2.959   4.452   0.505
30962SOL    HW241726   2.954   4.611   0.539
30963SOL     OW41727  15.551   9.189   7.163
30963SOL    HW141728  15.535   9.122   7.090
30963SOL    HW241729  15.624   9.251   7.135
30964SOL     OW41730  11.697   2.540   0.639
30964SOL    HW141731  11.722   2.637   0.643
30964SOL    HW241732  11.599   2.531   0.621
30965SOL     OW41733   2.504   3.090   7.305
30965SOL    HW141734   2.484   3.022   7.235
30965SOL    HW241735   2.489   3.049   7.396
30966SOL     OW41736   7.439   6.438   6.875
30966SOL    HW141737   7.444   6.465   6.971
30966SOL    HW241738   7.454   6.518   6.817
30967SOL     OW41739  14.726   2.142   6.309
30967SOL    HW141740  14.644   2.171   6.261
30967SOL    HW241741  14.755   2.052   6.276
30968SOL     OW41742  12.905   4.760   7.507
30968SOL    HW141743  12.944   4.676   7.544
30968SOL    HW241744  12.973   4.806   7.450
30969SOL     OW41745  16.781  10.394   2.144
30969SOL    HW141746  16.730  10.350   2.070
30969SOL    HW241747  16.833  10.325   2.194
30970SOL     OW41748   9.346  11.930   1.294
30970SOL    HW141749   9.331  12.020   1.252
30970SOL    HW241750   9.434  11.893   1.263
30971SOL     OW41751   0.987   5.446   7.374
30971SOL    HW141752   1.010   5.351   7.394
30971SOL    HW241753   0.902   5.450   7.321
30972SOL     OW41754   1.746   9.445   1.515
30972SOL    HW141755   1.744   9.525   1.575
30972SOL    HW241756   1.768   9.363   1.569
30973SOL     OW41757  13.529   8.186   8.134
30973SOL    HW141758  13.538   8.191   8.035
30973SOL    HW241759  13.469   8.260   8.166
30974SOL     OW41760  15.787   8.029   8.309
30974SOL    HW141761  15.803   8.028   8.408
30974SOL    HW241762  15.701   8.076   8.290
30975SOL     OW41763   0.706   4.402   8.369
30975SOL    HW141764   0.701   4.436   8.275
30975SOL    HW241765   0.652   4.461   8.429
30976SOL     OW41766  12.321   0.010   0.108
30976SOL    HW141767  12.294  16.902   0.077
30976SOL    HW241768  12.405   0.038   0.060
30977SOL     OW41769   1.495  13.572   0.330
30977SOL    HW141770   1.531  13.649   0.277
30977SOL    HW241771   1.461  13.502   0.267
30978SOL     OW41772  13.120  12.613   8.450
30978SOL    HW141773  13.175  12.608   8.367
30978SOL    HW241774  13.161  12.556   0.067
30979SOL     OW41775  11.127  16.259   0.634
30979SOL    HW141776  11.075  16.184   0.675
30979SOL    HW241777  11.193  16.293   0.701
30980SOL     OW41778   5.524   2.806   0.729
30980SOL    HW141779   5.572   2.770   0.650
30980SOL    HW241780   5.429   2.774   0.728
30981SOL     OW41781   9.345  11.220   1.216
30981SOL    HW141782   9.311  11.306   1.254
30981SOL    HW241783   9.386  11.166   1.289
30982SOL     OW41784   8.774   0.209   7.586
30982SOL    HW141785   8.685   0.174   7.558
30982SOL    HW241786   8.838   0.133   7.599
30983SOL     OW41787   2.888  10.539   7.519
30983SOL    HW141788   2.860  10.622   7.566
30983SOL    HW241789   2.868  10.547   7.422
30984SOL     OW41790   2.595   4.984   0.163
30984SOL    HW141791   2.571   4.983   0.066
30984SOL    HW241792   2.694   4.995   0.173
30985SOL     OW41793   7.803  16.251   0.919
30985SOL    HW141794   7.745  16.284   0.993
30985SOL    HW241795   7.763  16.168   0.880
30986SOL     OW41796   7.979   5.192   1.726
30986SOL    HW141797   7.986   5.092   1.724
30986SOL    HW241798   7.987   5.224   1.821
30987SOL     OW41799  13.773   2.696   6.117
30987SOL    HW141800  13.773   2.795   6.109
30987SOL    HW241801  13.839   2.658   6.052
30988SOL     OW41802   8.337   2.352   8.254
30988SOL    HW141803   8.350   2.438   8.206
30988SOL    HW241804   8.240   2.328   8.252
30989SOL     OW41805   9.117  16.204   8.061
30989SOL    HW141806   9.192  16.163   8.009
30989SOL    HW241807   9.151  16.232   8.151
30990SOL     OW41808  11.206  15.985   7.961
30990SOL    HW141809  11.297  16.026   7.969
30990SOL    HW241810  11.142  16.036   8.019
30991SOL     OW41811  14.416   3.882   1.368
30991SOL    HW141812  14.380   3.820   1.438
30991SOL    HW241813  14.365   3.869   1.283
30992SOL     OW41814   3.378   8.203   8.083
30992SOL    HW141815   3.405   8.113   8.116
30992SOL    HW241816   3.399   8.211   7.986
30993SOL     OW41817  15.983   2.764   5.879
30993SOL    HW141818  15.946   2.854   5.854
30993SOL    HW241819  16.007   2.713   5.797
30994SOL     OW41820  12.977  13.792   7.689
30994SOL    HW141821  12.985  13.712   7.748
30994SOL    HW241822  13.036  13.864   7.723
30995SOL     OW41823   3.212  13.992   0.201
30995SOL    HW141824   3.297  14.041   0.218
30995SOL    HW241825   3.183  14.007   0.106
30996SOL     OW41826   6.366   4.409   7.149
30996SOL    HW141827   6.390   4.375   7.240
30996SOL    HW241828   6.444   4.396   7.087
30997SOL     OW41829   5.275   5.310   7.754
30997SOL    HW141830   5.336   5.377   7.796
30997SOL    HW241831   5.330   5.245   7.701
30998SOL     OW41832   6.114   3.617   1.362
30998SOL    HW141833   6.075   3.580   1.447
30998SOL    HW241834   6.070   3.574   1.284
30999SOL     OW41835  13.069   5.706   0.611
30999SOL    HW141836  13.045   5.609   0.624
30999SOL    HW241837  12.986   5.759   0.596
31000SOL     OW41838   3.112   6.897   6.529
31000SOL    HW141839   3.106   6.862   6.436
31000SOL    HW241840   3.051   6.976   6.539
31001SOL     OW41841   9.333   4.976   1.868
31001SOL    HW141842   9.394   5.042   1.912
31001SOL    HW241843   9.253   5.024   1.832
31002SOL     OW41844   4.115   4.801   7.632
31002SOL    HW141845   4.058   4.767   7.557
31002SOL    HW241846   4.164   4.724   7.673
31003SOL     OW41847   2.634   5.208   1.200
31003SOL    HW141848   2.550   5.167   1.233
31003SOL    HW241849   2.612   5.281   1.135
31004SOL     OW41850   2.282   8.783   0.273
31004SOL    HW141851   2.218   8.726   0.222
31004SOL    HW241852   2.311   8.735   0.356
31005SOL     OW41853  15.828  11.633   7.254
31005SOL    HW141854  15.776  11.665   7.334
31005SOL    HW241855  15.917  11.678   7.252
31006SOL     OW41856  14.871  11.567   7.105
31006SOL    HW141857  14.854  11.518   7.020
31006SOL    HW241858  14.872  11.502   7.181
31007SOL     OW41859  10.864  14.044   0.986
31007SOL    HW141860  10.943  14.094   1.023
31007SOL    HW241861  10.805  14.107   0.936
31008SOL     OW41862   1.015   4.449   0.132
31008SOL    HW141863   1.113   4.455   0.117
31008SOL    HW241864   0.978   4.372   0.080
31009SOL     OW41865   7.497   6.724   1.395
31009SOL    HW141866   7.567   6.697   1.329
31009SOL    HW241867   7.459   6.642   1.438
31010SOL     OW41868  13.098   0.726   1.132
31010SOL    HW141869  13.022   0.790   1.119
31010SOL    HW241870  13.103   0.701   1.229
31011SOL     OW41871   1.573  15.307   2.397
31011SOL    HW141872   1.535  15.399   2.385
31011SOL    HW241873   1.557  15.277   2.491
31012SOL     OW41874   2.281   4.560   7.049
31012SOL    HW141875   2.245   4.562   6.956
31012SOL    HW241876   2.375   4.593   7.048
31013SOL     OW41877   4.056   2.865   1.387
31013SOL    HW141878   4.055   2.853   1.288
31013SOL    HW241879   3.968   2.902   1.417
31014SOL     OW41880  10.010  13.415   6.542
31014SOL    HW141881  10.045  13.380   6.455
31014SOL    HW241882   9.991  13.513   6.533
31015SOL     OW41883   6.946   9.194   1.798
31015SOL    HW141884   6.971   9.153   1.711
31015SOL    HW241885   6.902   9.282   1.782
31016SOL     OW41886  12.417  11.981   7.174
31016SOL    HW141887  12.395  11.962   7.269
31016SOL    HW241888  12.498  11.929   7.147
31017SOL     OW41889  11.562  16.429   7.944
31017SOL    HW141890  11.530  16.485   8.021
31017SOL    HW241891  11.483  16.386   7.899
31018SOL     OW41892   2.444   2.703   6.370
31018SOL    HW141893   2.452   2.800   6.391
31018SOL    HW241894   2.497   2.682   6.288
31019SOL     OW41895  13.630   3.345   1.498
31019SOL    HW141896  13.673   3.433   1.480
31019SOL    HW241897  13.595   3.343   1.592
31020SOL     OW41898   1.245   2.150   7.719
31020SOL    HW141899   1.254   2.236   7.768
31020SOL    HW241900   1.333   2.126   7.677
31021SOL     OW41901  12.472  15.641   0.093
31021SOL    HW141902  12.379  15.675   0.109
31021SOL    HW241903  12.530  15.716   0.062
31022SOL     OW41904   8.573   0.807   7.204
31022SOL    HW141905   8.519   0.744   7.148
31022SOL    HW241906   8.630   0.754   7.267
31023SOL     OW41907   7.624   2.755   0.159
31023SOL    HW141908   7.654   2.679   0.217
31023SOL    HW241909   7.693   2.771   0.088
31024SOL     OW41910   3.075  11.142   8.283
31024SOL    HW141911   3.030  11.196   8.212
31024SOL    HW241912   3.172  11.166   8.288
31025SOL     OW41913  10.592  13.765   0.341
31025SOL    HW141914  10.533  13.825   0.285
31025SOL    HW241915  10.546  13.744   0.427
31026SOL     OW41916   5.140  10.190   7.212
31026SOL    HW141917   5.112  10.117   7.149
31026SOL    HW241918   5.061  10.218   7.267
31027SOL     OW41919   3.467  14.192   0.733
31027SOL    HW141920   3.386  14.136   0.747
31027SOL    HW241921   3.547  14.145   0.770
31028SOL     OW41922  11.855  12.969   8.306
31028SOL    HW141923  11.777  12.908   8.296
31028SOL    HW241924  11.928  12.921   8.357
31029SOL     OW41925   1.584  15.337   1.235
31029SOL    HW141926   1.586  15.394   1.152
31029SOL    HW241927   1.558  15.243   1.210
31030SOL     OW41928  15.978   9.864   2.355
31030SOL    HW141929  16.048   9.794   2.372
31030SOL    HW241930  15.924   9.878   2.438
31031SOL     OW41931  10.205  10.907   8.075
31031SOL    HW141932  10.166  10.854   8.151
31031SOL    HW241933  10.157  10.883   7.990
31032SOL     OW41934   4.308  13.468   7.475
31032SOL    HW141935   4.325  13.565   7.486
31032SOL    HW241936   4.344  13.418   7.554
31033SOL     OW41937  10.995  11.052   1.369
31033SOL    HW141938  11.088  11.062   1.405
31033SOL    HW241939  10.929  11.080   1.439
31034SOL     OW41940  11.767   6.213   0.243
31034SOL    HW141941  11.732   6.126   0.277
31034SOL    HW241942  11.736   6.227   0.149
31035SOL     OW41943  10.100  14.955   6.689
31035SOL    HW141944  10.096  14.872   6.635
31035SOL    HW241945  10.183  14.955   6.746
31036SOL     OW41946   1.183   2.404   6.657
31036SOL    HW141947   1.146   2.419   6.566
31036SOL    HW241948   1.277   2.438   6.661
31037SOL     OW41949  14.035   7.638   6.261
31037SOL    HW141950  14.133   7.658   6.273
31037SOL    HW241951  14.024   7.578   6.182
31038SOL     OW41952   6.047   3.010   7.510
31038SOL    HW141953   6.121   3.038   7.572
31038SOL    HW241954   6.083   3.001   7.418
31039SOL     OW41955   2.303   2.077   0.147
31039SOL    HW141956   2.332   2.059   0.053
31039SOL    HW241957   2.213   2.121   0.146
31040SOL     OW41958   5.076   7.936   6.280
31040SOL    HW141959   5.037   8.019   6.240
31040SOL    HW241960   5.175   7.943   6.283
31041SOL     OW41961   4.760  13.518   1.709
31041SOL    HW141962   4.728  13.557   1.623
31041SOL    HW241963   4.686  13.465   1.751
31042SOL     OW41964   2.397   7.027   1.784
31042SOL    HW141965   2.305   7.010   1.819
31042SOL    HW241966   2.444   6.940   1.771
31043SOL     OW41967   8.845   7.447   1.773
31043SOL    HW141968   8.831   7.514   1.846
31043SOL    HW241969   8.838   7.354   1.811
31044SOL     OW41970   7.330   1.864   1.103
31044SOL    HW141971   7.311   1.824   1.193
31044SOL    HW241972   7.258   1.839   1.039
31045SOL     OW41973  16.233   5.693   6.127
31045SOL    HW141974  16.254   5.626   6.199
31045SOL    HW241975  16.314   5.709   6.072
31046SOL     OW41976   1.386   3.868   0.878
31046SOL    HW141977   1.424   3.896   0.967
31046SOL    HW241978   1.371   3.769   0.878
31047SOL     OW41979   0.219   0.718   0.373
31047SOL    HW141980   0.238   0.709   0.471
31047SOL    HW241981   0.304   0.704   0.322
31048SOL     OW41982  10.399   6.397   7.422
31048SOL    HW141983  10.421   6.472   7.484
31048SOL    HW241984  10.470   6.389   7.352
31049SOL     OW41985  13.435   7.627   6.998
31049SOL    HW141986  13.383   7.704   7.034
31049SOL    HW241987  13.532   7.651   6.993
31050SOL     OW41988  12.999  12.459   2.180
31050SOL    HW141989  13.017  12.392   2.109
31050SOL    HW241990  12.928  12.425   2.241
31051SOL     OW41991   1.349  11.358   8.121
31051SOL    HW141992   1.352  11.458   8.126
31051SOL    HW241993   1.298  11.322   8.200
31052SOL     OW41994  16.748  12.461   1.181
31052SOL    HW141995  16.665  12.476   1.128
31052SOL    HW241996  16.769  12.363   1.183
31053SOL     OW41997   6.208   0.954   8.287
31053SOL    HW141998   6.139   0.903   8.338
31053SOL    HW241999   6.296   0.906   8.292
31054SOL     OW42000  16.038   1.600   6.335
31054SOL    HW142001  16.078   1.646   6.256
31054SOL    HW242002  15.998   1.513   6.306
31055SOL     OW42003   8.016  15.271   0.307
31055SOL    HW142004   8.070  15.244   0.227
31055SOL    HW242005   8.063  15.344   0.356
31056SOL     OW42006  14.694   8.195   1.350
31056SOL    HW142007  14.634   8.274   1.360
31056SOL    HW242008  14.660   8.120   1.407
31057SOL     OW42009  10.343   6.600   6.336
31057SOL    HW142010  10.340   6.674   6.269
31057SOL    HW242011  10.324   6.637   6.427
31058SOL     OW42012   8.651   7.017   1.288
31058SOL    HW142013   8.563   7.041   1.330
31058SOL    HW242014   8.688   6.936   1.333
31059SOL     OW42015   8.347   1.614   1.330
31059SOL    HW142016   8.295   1.663   1.400
31059SOL    HW242017   8.394   1.537   1.373
31060SOL     OW42018   4.012   5.654   0.435
31060SOL    HW142019   3.956   5.655   0.352
31060SOL    HW242020   4.108   5.637   0.410
31061SOL     OW42021   7.087   2.066   0.814
31061SOL    HW142022   7.116   2.148   0.862
31061SOL    HW242023   6.990   2.074   0.790
31062SOL     OW42024  12.464   0.817   0.914
31062SOL    HW142025  12.374   0.841   0.952
31062SOL    HW242026  12.463   0.722   0.881
31063SOL     OW42027   4.677   6.172   0.775
31063SOL    HW142028   4.581   6.173   0.747
31063SOL    HW242029   4.683   6.172   0.875
31064SOL     OW42030   1.935   2.886   0.810
31064SOL    HW142031   1.887   2.906   0.895
31064SOL    HW242032   1.872   2.846   0.744
31065SOL     OW42033   5.477   1.744   0.291
31065SOL    HW142034   5.538   1.821   0.311
31065SOL    HW242035   5.512   1.662   0.336
31066SOL     OW42036   0.063  11.918   0.706
31066SOL    HW142037  16.982  11.852   0.667
31066SOL    HW242038   0.130  11.945   0.637
31067SOL     OW42039  12.693  16.184   7.611
31067SOL    HW142040  12.649  16.118   7.672
31067SOL    HW242041  12.658  16.173   7.518
31068SOL     OW42042   8.349  14.117   8.381
31068SOL    HW142043   8.302  14.167   8.308
31068SOL    HW242044   8.446  14.142   8.382
31069SOL     OW42045   4.441  13.648   2.477
31069SOL    HW142046   4.443  13.697   2.564
31069SOL    HW242047   4.365  13.682   2.422
31070SOL     OW42048   1.618  12.326   1.327
31070SOL    HW142049   1.702  12.273   1.340
31070SOL    HW242050   1.643  12.421   1.304
31071SOL     OW42051  12.477   4.406   8.199
31071SOL    HW142052  12.486   4.336   8.128
31071SOL    HW242053  12.559   4.463   8.200
31072SOL     OW42054  15.677   4.324   8.242
31072SOL    HW142055  15.620   4.246   8.217
31072SOL    HW242056  15.646   4.362   8.330
31073SOL     OW42057  13.946  10.628   8.075
31073SOL    HW142058  14.014  10.677   8.020
31073SOL    HW242059  13.917  10.685   8.152
31074SOL     OW42060  16.185   8.500   1.105
31074SOL    HW142061  16.191   8.518   1.203
31074SOL    HW242062  16.108   8.439   1.088
31075SOL     OW42063  10.475  10.729   0.344
31075SOL    HW142064  10.464  10.636   0.380
31075SOL    HW242065  10.568  10.740   0.309
31076SOL     OW42066   2.098  15.169   6.691
31076SOL    HW142067   2.020  15.119   6.652
31076SOL    HW242068   2.178  15.110   6.692
31077SOL     OW42069   7.029   4.078   0.692
31077SOL    HW142070   6.967   4.073   0.771
31077SOL    HW242071   7.040   4.173   0.664
31078SOL     OW42072   6.726  14.088   1.863
31078SOL    HW142073   6.779  14.006   1.844
31078SOL    HW242074   6.762  14.164   1.808
31079SOL     OW42075   4.409   5.124   1.676
31079SOL    HW142076   4.392   5.042   1.731
31079SOL    HW242077   4.377   5.109   1.583
31080SOL     OW42078  16.846  16.423   0.565
31080SOL    HW142079  16.946  16.415   0.561
31080SOL    HW242080  16.816  16.423   0.661
31081SOL     OW42081  13.894  14.721   6.780
31081SOL    HW142082  13.975  14.710   6.838
31081SOL    HW242083  13.923  14.748   6.688
31082SOL     OW42084   2.977   0.396   6.595
31082SOL    HW142085   3.032   0.464   6.547
31082SOL    HW242086   2.980   0.310   6.545
31083SOL     OW42087  13.320  16.925   0.133
31083SOL    HW142088  13.375  16.873   0.200
31083SOL    HW242089  13.363  16.919   0.043
31084SOL     OW42090   5.381   8.035   7.319
31084SOL    HW142091   5.464   8.058   7.268
31084SOL    HW242092   5.404   8.021   7.416
31085SOL     OW42093  15.301  16.979   0.648
31085SOL    HW142094  15.270  16.973   0.553
31085SOL    HW242095  15.253  16.910   0.703
31086SOL     OW42096   3.593   5.102   7.483
31086SOL    HW142097   3.613   5.132   7.390
31086SOL    HW242098   3.605   5.179   7.546
31087SOL     OW42099  15.223   3.860   0.310
31087SOL    HW142100  15.312   3.845   0.354
31087SOL    HW242101  15.194   3.954   0.325
31088SOL     OW42102   2.748   6.435   0.581
31088SOL    HW142103   2.819   6.499   0.609
31088SOL    HW242104   2.755   6.351   0.635
31089SOL     OW42105  14.130  14.313   0.453
31089SOL    HW142106  14.092  14.221   0.461
31089SOL    HW242107  14.055  14.380   0.450
31090SOL     OW42108  14.966   4.597   7.428
31090SOL    HW142109  14.879   4.626   7.387
31090SOL    HW242110  14.962   4.609   7.527
31091SOL     OW42111   6.921  15.135   0.445
31091SOL    HW142112   7.008  15.182   0.461
31091SOL    HW242113   6.938  15.040   0.419
31092SOL     OW42114   6.873   5.832   7.263
31092SOL    HW142115   6.844   5.924   7.288
31092SOL    HW242116   6.794   5.770   7.265
31093SOL     OW42117   0.564  15.374   7.931
31093SOL    HW142118   0.483  15.315   7.938
31093SOL    HW242119   0.603  15.389   8.022
31094SOL     OW42120  14.446  13.845   1.212
31094SOL    HW142121  14.434  13.941   1.187
31094SOL    HW242122  14.389  13.823   1.291
31095SOL     OW42123  15.776  14.970   1.900
31095SOL    HW142124  15.707  15.006   1.963
31095SOL    HW242125  15.771  15.021   1.814
31096SOL     OW42126  11.126   7.337   1.627
31096SOL    HW142127  11.184   7.277   1.573
31096SOL    HW242128  11.055   7.283   1.673
31097SOL     OW42129  16.900   2.166   0.692
31097SOL    HW142130  16.872   2.199   0.782
31097SOL    HW242131   0.001   2.112   0.702
31098SOL     OW42132   6.692   4.521   0.372
31098SOL    HW142133   6.628   4.445   0.388
31098SOL    HW242134   6.668   4.597   0.433
31099SOL     OW42135   0.851  15.070   8.451
31099SOL    HW142136   0.852  15.161   0.040
31099SOL    HW242137   0.857  15.080   8.352
31100SOL     OW42138   3.663   5.353   8.265
31100SOL    HW142139   3.608   5.384   8.187
31100SOL    HW242140   3.607   5.353   8.348
31101SOL     OW42141   8.287   7.336   7.308
31101SOL    HW142142   8.299   7.238   7.292
31101SOL    HW242143   8.372   7.376   7.344
31102SOL     OW42144   3.210   6.615   1.991
31102SOL    HW142145   3.203   6.707   2.031
31102SOL    HW242146   3.233   6.550   2.063
31103SOL     OW42147   1.076  14.338   7.448
31103SOL    HW142148   1.045  14.268   7.512
31103SOL    HW242149   1.014  14.342   7.370
31104SOL     OW42150   1.607   3.201   0.430
31104SOL    HW142151   1.589   3.299   0.438
31104SOL    HW242152   1.629   3.179   0.334
31105SOL     OW42153  11.657   3.132   0.868
31105SOL    HW142154  11.686   3.115   0.774
31105SOL    HW242155  11.558   3.143   0.871
31106SOL     OW42156  16.379  14.275   0.683
31106SOL    HW142157  16.281  14.278   0.702
31106SOL    HW242158  16.396  14.295   0.587
31107SOL     OW42159  11.785  12.300   8.067
31107SOL    HW142160  11.776  12.286   8.166
31107SOL    HW242161  11.743  12.387   8.042
31108SOL     OW42162   1.956   3.663   0.446
31108SOL    HW142163   1.912   3.751   0.432
31108SOL    HW242164   2.050   3.678   0.477
31109SOL     OW42165   8.124   4.350   8.377
31109SOL    HW142166   8.221   4.348   8.404
31109SOL    HW242167   8.102   4.268   8.325
31110SOL     OW42168  16.350   6.202   8.135
31110SOL    HW142169  16.361   6.104   8.148
31110SOL    HW242170  16.363   6.225   8.039
31111SOL     OW42171   2.806  13.776   7.505
31111SOL    HW142172   2.867  13.707   7.544
31111SOL    HW242173   2.860  13.843   7.454
31112SOL     OW42174   8.987   7.442   7.800
31112SOL    HW142175   8.963   7.351   7.766
31112SOL    HW242176   9.069   7.474   7.753
31113SOL     OW42177  11.736   2.302   0.188
31113SOL    HW142178  11.636   2.293   0.179
31113SOL    HW242179  11.771   2.359   0.114
31114SOL     OW42180  16.292  13.757   1.069
31114SOL    HW142181  16.348  13.723   0.993
31114SOL    HW242182  16.228  13.687   1.097
31115SOL     OW42183   1.862  14.514   7.404
31115SOL    HW142184   1.948  14.492   7.449
31115SOL    HW242185   1.846  14.612   7.408
31116SOL     OW42186   9.207  12.123   0.078
31116SOL    HW142187   9.279  12.192   0.079
31116SOL    HW242188   9.205  12.078   8.443
31117SOL     OW42189   3.305   7.731   6.696
31117SOL    HW142190   3.323   7.811   6.753
31117SOL    HW242191   3.318   7.755   6.600
31118SOL     OW42192  11.533   3.020   7.740
31118SOL    HW142193  11.469   3.033   7.663
31118SOL    HW242194  11.513   2.933   7.784
31119SOL     OW42195   4.969   8.176   1.451
31119SOL    HW142196   4.909   8.209   1.524
31119SOL    HW242197   4.981   8.247   1.382
31120SOL     OW42198   7.706  14.821   0.815
31120SOL    HW142199   7.763  14.765   0.874
31120SOL    HW242200   7.738  14.916   0.817
31121SOL     OW42201  10.468   5.671   6.573
31121SOL    HW142202  10.454   5.579   6.609
31121SOL    HW242203  10.455   5.670   6.474
31122SOL     OW42204   6.520  16.856   1.704
31122SOL    HW142205   6.559  16.940   1.742
31122SOL    HW242206   6.448  16.822   1.764
31123SOL     OW42207   3.745  12.503   8.225
31123SOL    HW142208   3.734  12.410   8.189
31123SOL    HW242209   3.774  12.499   8.320
31124SOL     OW42210  11.413  14.892   2.339
31124SOL    HW142211  11.452  14.951   2.409
31124SOL    HW242212  11.461  14.804   2.339
31125SOL     OW42213   2.448   8.443   0.971
31125SOL    HW142214   2.462   8.542   0.971
31125SOL    HW242215   2.416   8.414   1.061
31126SOL     OW42216   4.234   1.105   7.066
31126SOL    HW142217   4.159   1.100   7.001
31126SOL    HW242218   4.292   1.024   7.057
31127SOL     OW42219  10.085  13.560   7.813
31127SOL    HW142220  10.131  13.645   7.785
31127SOL    HW242221   9.987  13.577   7.823
31128SOL     OW42222   3.941   8.669   7.399
31128SOL    HW142223   3.924   8.571   7.387
31128SOL    HW242224   4.015   8.698   7.338
31129SOL     OW42225  16.128  14.037   0.273
31129SOL    HW142226  16.139  14.088   0.188
31129SOL    HW242227  16.216  13.997   0.300
31130SOL     OW42228   8.566  12.343   6.937
31130SOL    HW142229   8.552  12.435   6.973
31130SOL    HW242230   8.617  12.289   7.004
31131SOL     OW42231   9.643  10.391   2.789
31131SOL    HW142232   9.549  10.423   2.776
31131SOL    HW242233   9.648  10.293   2.766
31132SOL     OW42234   5.589  15.480   0.914
31132SOL    HW142235   5.529  15.411   0.956
31132SOL    HW242236   5.548  15.570   0.925
31133SOL     OW42237   4.942   2.101   1.022
31133SOL    HW142238   5.027   2.151   1.004
31133SOL    HW242239   4.939   2.020   0.963
31134SOL     OW42240   1.006  16.549   7.909
31134SOL    HW142241   0.952  16.465   7.897
31134SOL    HW242242   1.085  16.530   7.967
31135SOL     OW42243   5.994   4.331   8.166
31135SOL    HW142244   5.915   4.270   8.157
31135SOL    HW242245   5.982   4.389   8.247
31136SOL     OW42246   2.200  11.172   8.294
31136SOL    HW142247   2.121  11.132   8.340
31136SOL    HW242248   2.284  11.130   8.328
31137SOL     OW42249   4.091   2.042   0.625
31137SOL    HW142250   4.017   2.079   0.569
31137SOL    HW242251   4.153   1.990   0.567
31138SOL     OW42252  15.016   4.980   6.629
31138SOL    HW142253  14.936   5.034   6.601
31138SOL    HW242254  15.052   5.016   6.714
31139SOL     OW42255   0.473   0.690   0.266
31139SOL    HW142256   0.510   0.600   0.289
31139SOL    HW242257   0.535   0.760   0.298
31140SOL     OW42258   8.702  13.524   0.436
31140SOL    HW142259   8.620  13.514   0.379
31140SOL    HW242260   8.726  13.436   0.476
31141SOL     OW42261  10.624  12.481   1.578
31141SOL    HW142262  10.697  12.441   1.633
31141SOL    HW242263  10.654  12.570   1.542
31142SOL     OW42264   7.262   1.717   0.116
31142SOL    HW142265   7.303   1.788   0.058
31142SOL    HW242266   7.191   1.757   0.174
31143SOL     OW42267   1.696   2.584   7.880
31143SOL    HW142268   1.601   2.595   7.911
31143SOL    HW242269   1.696   2.535   7.793
31144SOL     OW42270   7.872  12.232   7.211
31144SOL    HW142271   7.902  12.229   7.306
31144SOL    HW242272   7.834  12.143   7.184
31145SOL     OW42273  14.144   2.522   6.686
31145SOL    HW142274  14.163   2.620   6.677
31145SOL    HW242275  14.214   2.479   6.742
31146SOL     OW42276  10.619  12.938   7.738
31146SOL    HW142277  10.640  12.975   7.828
31146SOL    HW242278  10.698  12.889   7.702
31147SOL     OW42279   8.635   7.876   6.876
31147SOL    HW142280   8.567   7.945   6.852
31147SOL    HW242281   8.641   7.868   6.976
31148SOL     OW42282   3.775  16.206   0.111
31148SOL    HW142283   3.793  16.124   0.165
31148SOL    HW242284   3.793  16.287   0.167
31149SOL     OW42285  15.318  12.863   7.877
31149SOL    HW142286  15.241  12.922   7.901
31149SOL    HW242287  15.304  12.825   7.785
31150SOL     OW42288   8.111   5.541   0.837
31150SOL    HW142289   8.062   5.585   0.913
31150SOL    HW242290   8.063   5.560   0.751
31151SOL     OW42291   9.464   4.360   2.154
31151SOL    HW142292   9.463   4.456   2.182
31151SOL    HW242293   9.470   4.302   2.235
31152SOL     OW42294  12.779   3.374   0.562
31152SOL    HW142295  12.694   3.391   0.612
31152SOL    HW242296  12.854   3.361   0.626
31153SOL     OW42297  16.006  11.875   6.883
31153SOL    HW142298  16.026  11.919   6.970
31153SOL    HW242299  16.075  11.900   6.815
31154SOL     OW42300  16.593   3.491   6.691
31154SOL    HW142301  16.528   3.419   6.716
31154SOL    HW242302  16.600   3.557   6.767
31155SOL     OW42303  16.269  12.836   0.338
31155SOL    HW142304  16.359  12.869   0.364
31155SOL    HW242305  16.199  12.903   0.364
31156SOL     OW42306   7.596   2.143   8.288
31156SOL    HW142307   7.668   2.119   8.354
31156SOL    HW242308   7.560   2.060   8.246
31157SOL     OW42309  13.473  16.753   0.283
31157SOL    HW142310  13.555  16.732   0.229
31157SOL    HW242311  13.495  16.748   0.380
31158SOL     OW42312  14.390   5.909   6.607
31158SOL    HW142313  14.372   6.007   6.608
31158SOL    HW242314  14.454   5.888   6.533
31159SOL     OW42315   2.123  16.084   7.327
31159SOL    HW142316   2.074  16.008   7.370
31159SOL    HW242317   2.099  16.170   7.373
31160SOL     OW42318   8.982   3.112   6.959
31160SOL    HW142319   8.912   3.151   6.899
31160SOL    HW242320   8.953   3.022   6.989
31161SOL     OW42321   6.394   8.536   0.614
31161SOL    HW142322   6.302   8.514   0.581
31161SOL    HW242323   6.401   8.635   0.629
31162SOL     OW42324  14.478  14.085   8.199
31162SOL    HW142325  14.521  14.166   8.158
31162SOL    HW242326  14.437  14.029   8.127
31163SOL     OW42327   8.038  13.231   1.293
31163SOL    HW142328   8.103  13.292   1.247
31163SOL    HW242329   8.030  13.258   1.389
31164SOL     OW42330   4.039  15.037   0.638
31164SOL    HW142331   4.097  14.974   0.587
31164SOL    HW242332   3.943  15.024   0.613
31165SOL     OW42333  11.331  12.968   1.853
31165SOL    HW142334  11.339  12.868   1.848
31165SOL    HW242335  11.370  13.000   1.940
31166SOL     OW42336   1.793   5.654   8.367
31166SOL    HW142337   1.703   5.696   8.379
31166SOL    HW242338   1.783   5.569   8.314
31167SOL     OW42339   4.364   0.398   1.433
31167SOL    HW142340   4.373   0.380   1.335
31167SOL    HW242341   4.451   0.380   1.478
31168SOL     OW42342  15.724   5.832   6.718
31168SOL    HW142343  15.721   5.736   6.746
31168SOL    HW242344  15.743   5.838   6.620
31169SOL     OW42345  10.628  13.862   8.421
31169SOL    HW142346  10.695  13.934   8.404
31169SOL    HW242347  10.566  13.891   0.040
31170SOL     OW42348  11.373   6.128   1.374
31170SOL    HW142349  11.373   6.034   1.341
31170SOL    HW242350  11.304   6.181   1.324
31171SOL     OW42351  15.320   5.378   7.566
31171SOL    HW142352  15.374   5.401   7.485
31171SOL    HW242353  15.370   5.406   7.648
31172SOL     OW42354   9.336   2.771   1.241
31172SOL    HW142355   9.354   2.793   1.337
31172SOL    HW242356   9.419   2.733   1.200
31173SOL     OW42357   9.695  15.888   1.450
31173SOL    HW142358   9.610  15.940   1.442
31173SOL    HW242359   9.724  15.886   1.546
31174SOL     OW42360  14.815  10.823   0.590
31174SOL    HW142361  14.786  10.844   0.497
31174SOL    HW242362  14.892  10.881   0.615
31175SOL     OW42363   1.932   1.479   7.690
31175SOL    HW142364   1.949   1.381   7.684
31175SOL    HW242365   1.841   1.500   7.654
31176SOL     OW42366   5.983   9.450   6.478
31176SOL    HW142367   5.947   9.360   6.452
31176SOL    HW242368   6.059   9.474   6.418
31177SOL     OW42369   2.262   9.722   0.376
31177SOL    HW142370   2.315   9.805   0.393
31177SOL    HW242371   2.213   9.696   0.459
31178SOL     OW42372   4.616   8.810   7.060
31178SOL    HW142373   4.531   8.859   7.076
31178SOL    HW242374   4.644   8.823   6.965
31179SOL     OW42375  13.201   8.667   7.624
31179SOL    HW142376  13.209   8.568   7.612
31179SOL    HW242377  13.265   8.713   7.563
31180SOL     OW42378   8.938   1.974   8.285
31180SOL    HW142379   8.919   1.928   8.199
31180SOL    HW242380   9.005   1.921   8.337
31181SOL     OW42381   6.248  11.302   1.917
31181SOL    HW142382   6.219  11.252   1.999
31181SOL    HW242383   6.347  11.291   1.905
31182SOL     OW42384   2.010   7.130   7.928
31182SOL    HW142385   2.010   7.041   7.882
31182SOL    HW242386   1.994   7.202   7.861
31183SOL     OW42387   4.603  15.690   1.921
31183SOL    HW142388   4.607  15.778   1.968
31183SOL    HW242389   4.531  15.634   1.963
31184SOL     OW42390  11.164  15.377   1.907
31184SOL    HW142391  11.223  15.329   1.843
31184SOL    HW242392  11.087  15.317   1.933
31185SOL     OW42393  15.691   1.412   7.593
31185SOL    HW142394  15.681   1.312   7.588
31185SOL    HW242395  15.666   1.452   7.505
31186SOL     OW42396   3.828  12.897   7.414
31186SOL    HW142397   3.923  12.873   7.434
31186SOL    HW242398   3.767  12.830   7.456
31187SOL     OW42399   5.952  16.401   7.478
31187SOL    HW142400   6.027  16.464   7.497
31187SOL    HW242401   5.865  16.448   7.494
31188SOL     OW42402   9.026   5.914   6.490
31188SOL    HW142403   9.034   5.941   6.586
31188SOL    HW242404   9.107   5.946   6.439
31189SOL     OW42405  10.576  13.369   1.106
31189SOL    HW142406  10.548  13.335   1.195
31189SOL    HW242407  10.584  13.468   1.108
31190SOL     OW42408   2.438   0.021   6.924
31190SOL    HW142409   2.362   0.075   6.959
31190SOL    HW242410   2.484   0.071   6.851
31191SOL     OW42411   5.118  10.560   8.091
31191SOL    HW142412   5.202  10.537   8.042
31191SOL    HW242413   5.045  10.497   8.065
31192SOL     OW42414   0.027   2.771   6.748
31192SOL    HW142415  16.924   2.726   6.727
31192SOL    HW242416   0.058   2.743   6.838
31193SOL     OW42417  11.891   5.395   6.965
31193SOL    HW142418  11.935   5.349   7.042
31193SOL    HW242419  11.797   5.420   6.990
31194SOL     OW42420   2.356  15.668   0.188
31194SOL    HW142421   2.341  15.636   0.282
31194SOL    HW242422   2.325  15.598   0.124
31195SOL     OW42423   1.362   2.259   0.959
31195SOL    HW142424   1.458   2.237   0.941
31195SOL    HW242425   1.334   2.221   1.047
31196SOL     OW42426  14.933  12.397   8.215
31196SOL    HW142427  14.978  12.454   8.146
31196SOL    HW242428  15.001  12.364   8.281
31197SOL     OW42429   2.971  15.048   7.432
31197SOL    HW142430   2.938  15.111   7.503
31197SOL    HW242431   3.035  14.982   7.473
31198SOL     OW42432  12.648  10.431   6.937
31198SOL    HW142433  12.551  10.418   6.915
31198SOL    HW242434  12.702  10.359   6.894
31199SOL     OW42435   4.852   3.540   7.991
31199SOL    HW142436   4.944   3.550   7.954
31199SOL    HW242437   4.788   3.521   7.917
31200SOL     OW42438  15.329   5.046   8.220
31200SOL    HW142439  15.354   5.005   8.132
31200SOL    HW242440  15.290   5.137   8.205
31201SOL     OW42441   8.642  16.847   5.972
31201SOL    HW142442   8.710  16.881   5.908
31201SOL    HW242443   8.606  16.759   5.940
31202SOL     OW42444   4.016  11.277   7.577
31202SOL    HW142445   3.946  11.244   7.640
31202SOL    HW242446   4.106  11.258   7.614
31203SOL     OW42447   7.761  16.912   0.910
31203SOL    HW142448   7.733  16.962   0.828
31203SOL    HW242449   7.855  16.937   0.934
31204SOL     OW42450  10.332   4.139   7.154
31204SOL    HW142451  10.288   4.213   7.103
31204SOL    HW242452  10.414   4.109   7.105
31205SOL     OW42453   9.156   6.573   1.574
31205SOL    HW142454   9.079   6.537   1.521
31205SOL    HW242455   9.121   6.619   1.656
31206SOL     OW42456  14.448  11.456   2.788
31206SOL    HW142457  14.375  11.474   2.853
31206SOL    HW242458  14.512  11.389   2.826
31207SOL     OW42459  14.780   9.597   0.056
31207SOL    HW142460  14.696   9.543   0.044
31207SOL    HW242461  14.762   9.692   0.030
31208SOL     OW42462  11.965   5.279   1.211
31208SOL    HW142463  12.038   5.213   1.192
31208SOL    HW242464  11.877   5.233   1.206
31209SOL     OW42465   7.213   4.925   1.042
31209SOL    HW142466   7.231   4.905   1.138
31209SOL    HW242467   7.141   4.994   1.036
31210SOL     OW42468   0.765  15.079   1.412
31210SOL    HW142469   0.811  15.133   1.483
31210SOL    HW242470   0.676  15.121   1.391
31211SOL     OW42471   4.278   0.049   7.952
31211SOL    HW142472   4.365   0.005   7.931
31211SOL    HW242473   4.250   0.107   7.875
31212SOL     OW42474  12.638   6.598   6.638
31212SOL    HW142475  12.550   6.580   6.682
31212SOL    HW242476  12.712   6.561   6.694
31213SOL     OW42477  14.547   2.460   0.822
31213SOL    HW142478  14.449   2.441   0.814
31213SOL    HW242479  14.583   2.488   0.733
31214SOL     OW42480   3.752  11.236   8.003
31214SOL    HW142481   3.792  11.327   8.010
31214SOL    HW242482   3.659  11.238   8.039
31215SOL     OW42483  12.903  10.999   0.506
31215SOL    HW142484  12.946  11.002   0.416
31215SOL    HW242485  12.884  10.904   0.531
31216SOL     OW42486   9.382   6.820   6.847
31216SOL    HW142487   9.425   6.878   6.916
31216SOL    HW242488   9.394   6.724   6.872
31217SOL     OW42489   5.208   4.898   0.518
31217SOL    HW142490   5.225   4.996   0.513
31217SOL    HW242491   5.170   4.875   0.608
31218SOL     OW42492   9.010   7.742   1.333
31218SOL    HW142493   9.009   7.740   1.433
31218SOL    HW242494   8.917   7.739   1.298
31219SOL     OW42495  14.109   8.547   0.847
31219SOL    HW142496  14.091   8.555   0.945
31219SOL    HW242497  14.189   8.488   0.832
31220SOL     OW42498   1.822  16.625   1.450
31220SOL    HW142499   1.756  16.595   1.381
31220SOL    HW242500   1.779  16.694   1.508
31221SOL     OW42501  16.595   8.783   0.142
31221SOL    HW142502  16.612   8.721   0.065
31221SOL    HW242503  16.655   8.862   0.135
31222SOL     OW42504   0.423  13.879   7.424
31222SOL    HW142505   0.334  13.861   7.381
31222SOL    HW242506   0.493  13.822   7.379
31223SOL     OW42507  15.789   7.408   1.190
31223SOL    HW142508  15.800   7.312   1.163
31223SOL    HW242509  15.879   7.453   1.189
31224SOL     OW42510   9.644  12.401   7.009
31224SOL    HW142511   9.650  12.385   6.911
31224SOL    HW242512   9.734  12.386   7.051
31225SOL     OW42513  13.375   4.696   7.944
31225SOL    HW142514  13.425   4.698   8.031
31225SOL    HW242515  13.438   4.671   7.870
31226SOL     OW42516   1.289   2.154   1.200
31226SOL    HW142517   1.206   2.099   1.199
31226SOL    HW242518   1.360   2.105   1.251
31227SOL     OW42519  11.094   1.445   2.187
31227SOL    HW142520  11.082   1.516   2.119
31227SOL    HW242521  11.008   1.429   2.235
31228SOL     OW42522   0.153  14.911   7.025
31228SOL    HW142523   0.064  14.868   7.041
31228SOL    HW242524   0.148  14.969   6.944
31229SOL     OW42525   0.620  14.332   0.846
31229SOL    HW142526   0.542  14.269   0.841
31229SOL    HW242527   0.587  14.426   0.847
31230SOL     OW42528  14.458  12.686   8.062
31230SOL    HW142529  14.526  12.616   8.039
31230SOL    HW242530  14.406  12.710   7.980
31231SOL     OW42531   0.767   3.687   1.415
31231SOL    HW142532   0.734   3.593   1.423
31231SOL    HW242533   0.704   3.749   1.462
31232SOL     OW42534   3.517  10.451   7.299
31232SOL    HW142535   3.462  10.377   7.261
31232SOL    HW242536   3.521  10.441   7.399
31233SOL     OW42537   9.557   7.831   0.292
31233SOL    HW142538   9.646   7.838   0.337
31233SOL    HW242539   9.559   7.756   0.225
31234SOL     OW42540   0.758   1.502   7.026
31234SOL    HW142541   0.841   1.528   7.077
31234SOL    HW242542   0.784   1.446   6.947
31235SOL     OW42543   0.383   4.883   5.733
31235SOL    HW142544   0.452   4.919   5.795
31235SOL    HW242545   0.344   4.958   5.679
31236SOL     OW42546   6.560  11.953   7.925
31236SOL    HW142547   6.656  11.981   7.919
31236SOL    HW242548   6.544  11.908   8.013
31237SOL     OW42549   3.502   2.541   8.375
31237SOL    HW142550   3.486   2.533   8.276
31237SOL    HW242551   3.440   2.479   8.423
31238SOL     OW42552  11.356   4.257   0.141
31238SOL    HW142553  11.368   4.160   0.163
31238SOL    HW242554  11.432   4.287   0.084
31239SOL     OW42555   3.215   7.408   7.561
31239SOL    HW142556   3.176   7.492   7.600
31239SOL    HW242557   3.168   7.387   7.475
31240SOL     OW42558  10.459   2.094   7.802
31240SOL    HW142559  10.450   2.033   7.880
31240SOL    HW242560  10.516   2.173   7.827
31241SOL     OW42561   1.262  10.412   7.277
31241SOL    HW142562   1.270  10.336   7.212
31241SOL    HW242563   1.230  10.494   7.229
31242SOL     OW42564   2.059   0.684   6.724
31242SOL    HW142565   2.041   0.744   6.646
31242SOL    HW242566   2.124   0.613   6.696
31243SOL     OW42567   9.116   1.561   1.195
31243SOL    HW142568   9.038   1.499   1.206
31243SOL    HW242569   9.112   1.633   1.264
31244SOL     OW42570   0.249   0.319   7.039
31244SOL    HW142571   0.209   0.405   7.070
31244SOL    HW242572   0.313   0.337   6.965
31245SOL     OW42573   2.501  16.935   1.112
31245SOL    HW142574   2.483   0.049   1.126
31245SOL    HW242575   2.599  16.918   1.120
31246SOL     OW42576  13.552  10.820   7.561
31246SOL    HW142577  13.579  10.755   7.490
31246SOL    HW242578  13.609  10.902   7.555
31247SOL     OW42579   0.732  13.460   7.878
31247SOL    HW142580   0.643  13.433   7.842
31247SOL    HW242581   0.742  13.559   7.870
31248SOL     OW42582  11.334   3.305   8.250
31248SOL    HW142583  11.306   3.348   8.335
31248SOL    HW242584  11.269   3.233   8.225
31249SOL     OW42585  14.750   0.420   7.196
31249SOL    HW142586  14.695   0.336   7.194
31249SOL    HW242587  14.827   0.410   7.133
31250SOL     OW42588   5.084   3.473   7.212
31250SOL    HW142589   5.002   3.425   7.245
31250SOL    HW242590   5.165   3.436   7.258
31251SOL     OW42591   2.650  14.463   1.057
31251SOL    HW142592   2.656  14.433   0.962
31251SOL    HW242593   2.560  14.441   1.094
31252SOL     OW42594   5.467  16.355   0.707
31252SOL    HW142595   5.443  16.345   0.611
31252SOL    HW242596   5.510  16.271   0.740
31253SOL     OW42597   4.955   3.355   0.828
31253SOL    HW142598   4.875   3.302   0.852
31253SOL    HW242599   5.036   3.296   0.826
31254SOL     OW42600   2.096   6.762   1.539
31254SOL    HW142601   2.020   6.779   1.476
31254SOL    HW242602   2.061   6.749   1.631
31255SOL     OW42603  12.781   0.454   7.272
31255SOL    HW142604  12.734   0.466   7.360
31255SOL    HW242605  12.770   0.360   7.241
31256SOL     OW42606   7.895   7.762   6.807
31256SOL    HW142607   7.856   7.693   6.868
31256SOL    HW242608   7.994   7.750   6.803
31257SOL     OW42609   1.599   0.292   0.875
31257SOL    HW142610   1.510   0.293   0.921
31257SOL    HW242611   1.588   0.326   0.782
31258SOL     OW42612   1.065  14.680   0.418
31258SOL    HW142613   1.003  14.745   0.462
31258SOL    HW242614   1.050  14.681   0.319
31259SOL     OW42615   9.349  16.670   7.362
31259SOL    HW142616   9.424  16.624   7.314
31259SOL    HW242617   9.311  16.609   7.431
31260SOL     OW42618  16.690   7.231   7.722
31260SOL    HW142619  16.666   7.136   7.703
31260SOL    HW242620  16.722   7.239   7.816
31261SOL     OW42621   5.612  11.250   7.246
31261SOL    HW142622   5.703  11.254   7.287
31261SOL    HW242623   5.615  11.285   7.153
31262SOL     OW42624   4.873   7.370   7.645
31262SOL    HW142625   4.937   7.314   7.593
31262SOL    HW242626   4.802   7.312   7.685
31263SOL     OW42627   0.621  14.561   8.058
31263SOL    HW142628   0.711  14.603   8.065
31263SOL    HW242629   0.615  14.483   8.120
31264SOL     OW42630  15.156   5.681   6.010
31264SOL    HW142631  15.196   5.646   5.925
31264SOL    HW242632  15.113   5.770   5.992
31265SOL     OW42633  16.958  14.106   8.363
31265SOL    HW142634   0.018  14.083   8.450
31265SOL    HW242635   0.043  14.106   8.290
31266SOL     OW42636   9.702   8.210   8.098
31266SOL    HW142637   9.629   8.263   8.139
31266SOL    HW242638   9.675   8.181   8.006
31267SOL     OW42639  15.694   4.593   1.082
31267SOL    HW142640  15.665   4.587   1.177
31267SOL    HW242641  15.768   4.529   1.064
31268SOL     OW42642  13.232   9.801   1.669
31268SOL    HW142643  13.139   9.772   1.693
31268SOL    HW242644  13.227   9.883   1.612
31269SOL     OW42645  13.996   9.460   7.520
31269SOL    HW142646  13.950   9.521   7.456
31269SOL    HW242647  14.071   9.414   7.473
31270SOL     OW42648   4.744   0.716   0.202
31270SOL    HW142649   4.826   0.698   0.149
31270SOL    HW242650   4.731   0.815   0.212
31271SOL     OW42651   6.823  16.735   6.533
31271SOL    HW142652   6.869  16.684   6.461
31271SOL    HW242653   6.770  16.671   6.589
31272SOL     OW42654  10.889  13.811   1.480
31272SOL    HW142655  10.817  13.880   1.483
31272SOL    HW242656  10.967  13.846   1.429
31273SOL     OW42657   3.921  11.103   6.736
31273SOL    HW142658   3.954  11.150   6.653
31273SOL    HW242659   3.997  11.090   6.799
31274SOL     OW42660  10.960  10.853   1.182
31274SOL    HW142661  11.001  10.774   1.227
31274SOL    HW242662  10.972  10.934   1.240
31275SOL     OW42663   7.311  15.359   1.063
31275SOL    HW142664   7.216  15.380   1.040
31275SOL    HW242665   7.313  15.289   1.135
31276SOL     OW42666  15.452  12.272   1.006
31276SOL    HW142667  15.474  12.333   1.081
31276SOL    HW242668  15.381  12.208   1.034
31277SOL     OW42669   4.316  14.271   7.847
31277SOL    HW142670   4.282  14.183   7.878
31277SOL    HW242671   4.411  14.261   7.815
31278SOL     OW42672  11.004   9.642   0.031
31278SOL    HW142673  11.002   9.543   0.014
31278SOL    HW242674  10.924   9.685   8.442
31279SOL     OW42675   2.361   1.883   0.513
31279SOL    HW142676   2.337   1.960   0.572
31279SOL    HW242677   2.302   1.883   0.432
31280SOL     OW42678  13.788   2.189   5.534
31280SOL    HW142679  13.741   2.225   5.454
31280SOL    HW242680  13.885   2.214   5.530
31281SOL     OW42681   4.883  16.781   6.720
31281SOL    HW142682   4.800  16.809   6.671
31281SOL    HW242683   4.952  16.853   6.712
31282SOL     OW42684  11.532  14.308   1.832
31282SOL    HW142685  11.546  14.242   1.906
31282SOL    HW242686  11.604  14.377   1.835
31283SOL     OW42687   4.944   1.893   0.845
31283SOL    HW142688   4.880   1.816   0.853
31283SOL    HW242689   5.033   1.859   0.814
31284SOL     OW42690  13.576  13.069   7.816
31284SOL    HW142691  13.567  13.101   7.721
31284SOL    HW242692  13.660  13.105   7.855
31285SOL     OW42693   1.972   2.500   2.333
31285SOL    HW142694   1.874   2.515   2.351
31285SOL    HW242695   2.026   2.562   2.390
31286SOL     OW42696  10.847  11.413   8.418
31286SOL    HW142697  10.893  11.338   0.011
31286SOL    HW242698  10.910  11.489   8.406
31287SOL     OW42699   8.029   5.279   1.984
31287SOL    HW142700   8.008   5.376   1.972
31287SOL    HW242701   8.027   5.257   2.081
31288SOL     OW42702   5.105   7.453   0.809
31288SOL    HW142703   5.142   7.510   0.883
31288SOL    HW242704   5.014   7.420   0.834
31289SOL     OW42705  13.812  12.111   0.798
31289SOL    HW142706  13.808  12.072   0.706
31289SOL    HW242707  13.750  12.061   0.858
31290SOL     OW42708   7.169   7.210   6.657
31290SOL    HW142709   7.078   7.191   6.621
31290SOL    HW242710   7.237   7.197   6.584
31291SOL     OW42711   1.914  12.666   2.600
31291SOL    HW142712   1.843  12.599   2.581
31291SOL    HW242713   2.003  12.621   2.606
31292SOL     OW42714   1.014   6.366   0.338
31292SOL    HW142715   1.105   6.325   0.346
31292SOL    HW242716   1.000   6.400   0.245
31293SOL     OW42717   2.098   9.904   7.073
31293SOL    HW142718   2.062   9.996   7.057
31293SOL    HW242719   2.068   9.843   7.000
31294SOL     OW42720   5.374  16.091   0.028
31294SOL    HW142721   5.297  16.070   8.422
31294SOL    HW242722   5.359  16.179   0.073
31295SOL     OW42723   3.530   5.550   2.039
31295SOL    HW142724   3.578   5.517   2.121
31295SOL    HW242725   3.443   5.502   2.030
31296SOL     OW42726   9.600  16.760   8.374
31296SOL    HW142727   9.555  16.759   8.285
31296SOL    HW242728   9.698  16.748   8.361
31297SOL     OW42729   6.553  16.624   0.628
31297SOL    HW142730   6.575  16.597   0.722
31297SOL    HW242731   6.552  16.543   0.570
31298SOL     OW42732  10.731   1.225   7.640
31298SOL    HW142733  10.735   1.248   7.737
31298SOL    HW242734  10.769   1.300   7.586
31299SOL     OW42735   5.752   7.116   7.706
31299SOL    HW142736   5.778   7.200   7.754
31299SOL    HW242737   5.704   7.139   7.621
31300SOL     OW42738   2.812  16.387   0.929
31300SOL    HW142739   2.778  16.382   0.835
31300SOL    HW242740   2.798  16.299   0.974
31301SOL     OW42741   3.822   9.023   7.400
31301SOL    HW142742   3.816   8.954   7.472
31301SOL    HW242743   3.914   9.061   7.397
31302SOL     OW42744   4.012   4.435   0.996
31302SOL    HW142745   3.981   4.525   1.026
31302SOL    HW242746   4.052   4.386   1.074
31303SOL     OW42747   1.870   1.713   1.520
31303SOL    HW142748   1.824   1.691   1.434
31303SOL    HW242749   1.876   1.630   1.576
31304SOL     OW42750  10.104  14.436   6.996
31304SOL    HW142751  10.158  14.362   7.036
31304SOL    HW242752  10.133  14.452   6.902
31305SOL     OW42753   3.341   7.360   2.067
31305SOL    HW142754   3.415   7.354   2.000
31305SOL    HW242755   3.307   7.454   2.071
31306SOL     OW42756   5.233   4.217   7.116
31306SOL    HW142757   5.312   4.163   7.087
31306SOL    HW242758   5.225   4.298   7.057
31307SOL     OW42759   9.144  14.531   1.810
31307SOL    HW142760   9.215  14.594   1.843
31307SOL    HW242761   9.076  14.516   1.881
31308SOL     OW42762   5.173   5.023   7.488
31308SOL    HW142763   5.098   5.027   7.554
31308SOL    HW242764   5.258   5.052   7.532
31309SOL     OW42765   4.895   7.189   0.493
31309SOL    HW142766   4.979   7.243   0.493
31309SOL    HW242767   4.828   7.231   0.555
31310SOL     OW42768  12.208   8.660   0.556
31310SOL    HW142769  12.187   8.757   0.551
31310SOL    HW242770  12.254   8.632   0.472
31311SOL     OW42771  13.714   6.822   7.624
31311SOL    HW142772  13.770   6.742   7.601
31311SOL    HW242773  13.741   6.857   7.713
31312SOL     OW42774   3.304  13.418   0.691
31312SOL    HW142775   3.358  13.486   0.643
31312SOL    HW242776   3.250  13.365   0.625
31313SOL     OW42777  10.518  16.137   8.284
31313SOL    HW142778  10.525  16.222   8.232
31313SOL    HW242779  10.465  16.153   8.368
31314SOL     OW42780   3.571   7.669   0.937
31314SOL    HW142781   3.478   7.664   0.973
31314SOL    HW242782   3.635   7.637   1.006
31315SOL     OW42783   9.332  14.258   8.234
31315SOL    HW142784   9.370  14.249   8.326
31315SOL    HW242785   9.332  14.354   8.207
31316SOL     OW42786   9.025  15.717   6.313
31316SOL    HW142787   9.103  15.765   6.274
31316SOL    HW242788   8.948  15.721   6.248
31317SOL     OW42789  10.899   8.614   7.637
31317SOL    HW142790  10.896   8.589   7.540
31317SOL    HW242791  10.808   8.642   7.667
31318SOL     OW42792  11.728   9.265   8.290
31318SOL    HW142793  11.653   9.220   8.340
31318SOL    HW242794  11.715   9.252   8.192
31319SOL     OW42795   5.980   7.982   7.383
31319SOL    HW142796   5.931   8.019   7.462
31319SOL    HW242797   6.061   8.039   7.365
31320SOL     OW42798   9.908  12.543   1.005
31320SOL    HW142799   9.833  12.599   1.040
31320SOL    HW242800   9.894  12.447   1.030
31321SOL     OW42801   5.935   6.953   2.010
31321SOL    HW142802   5.956   6.999   1.923
31321SOL    HW242803   5.899   6.862   1.992
31322SOL     OW42804   1.459  12.756   0.165
31322SOL    HW142805   1.493  12.837   0.214
31322SOL    HW242806   1.451  12.680   0.229
31323SOL     OW42807  12.392   1.005   7.822
31323SOL    HW142808  12.358   0.918   7.785
31323SOL    HW242809  12.330   1.037   7.893
31324SOL     OW42810   1.405  14.931   8.230
31324SOL    HW142811   1.365  14.977   8.150
31324SOL    HW242812   1.367  14.839   8.238
31325SOL     OW42813   6.775   9.705   8.414
31325SOL    HW142814   6.763   9.612   8.449
31325SOL    HW242815   6.775   9.703   8.314
31326SOL     OW42816  14.205  14.211   7.945
31326SOL    HW142817  14.228  14.290   8.004
31326SOL    HW242818  14.195  14.242   7.851
31327SOL     OW42819  16.007   5.576   6.444
31327SOL    HW142820  15.947   5.615   6.375
31327SOL    HW242821  16.094   5.550   6.402
31328SOL     OW42822   7.062   5.961   1.738
31328SOL    HW142823   7.063   5.869   1.700
31328SOL    HW242824   7.033   5.957   1.834
31329SOL     OW42825   1.390  10.152   0.577
31329SOL    HW142826   1.346  10.236   0.546
31329SOL    HW242827   1.359  10.075   0.521
31330SOL     OW42828  13.536  13.580   8.170
31330SOL    HW142829  13.505  13.546   8.258
31330SOL    HW242830  13.534  13.507   8.102
31331SOL     OW42831  11.115  11.432   1.321
31331SOL    HW142832  11.192  11.368   1.315
31331SOL    HW242833  11.145  11.517   1.365
31332SOL     OW42834   5.427   6.228   8.285
31332SOL    HW142835   5.500   6.161   8.288
31332SOL    HW242836   5.370   6.220   8.367
31333SOL     OW42837   3.961  14.585   1.489
31333SOL    HW142838   3.910  14.630   1.415
31333SOL    HW242839   3.901  14.522   1.538
31334SOL     OW42840  14.882  12.914   0.727
31334SOL    HW142841  14.804  12.851   0.730
31334SOL    HW242842  14.850  13.007   0.748
31335SOL     OW42843   6.413   3.092   0.115
31335SOL    HW142844   6.401   3.124   0.209
31335SOL    HW242845   6.325   3.059   0.080
31336SOL     OW42846  11.123  11.539   7.410
31336SOL    HW142847  11.046  11.550   7.347
31336SOL    HW242848  11.088  11.523   7.503
31337SOL     OW42849   0.711  11.894   0.982
31337SOL    HW142850   0.646  11.819   0.979
31337SOL    HW242851   0.800  11.861   1.015
31338SOL     OW42852  13.568   2.638   8.133
31338SOL    HW142853  13.499   2.585   8.084
31338SOL    HW242854  13.613   2.580   8.201
31339SOL     OW42855  15.721  16.923   6.947
31339SOL    HW142856  15.749   0.000   6.872
31339SOL    HW242857  15.727  16.828   6.916
31340SOL     OW42858  12.238  11.528   0.637
31340SOL    HW142859  12.152  11.511   0.588
31340SOL    HW242860  12.295  11.446   0.635
31341SOL     OW42861  15.821  12.931   0.805
31341SOL    HW142862  15.798  12.834   0.796
31341SOL    HW242863  15.780  12.983   0.730
31342SOL     OW42864  14.753  11.640   1.319
31342SOL    HW142865  14.743  11.733   1.283
31342SOL    HW242866  14.670  11.615   1.369
31343SOL     OW42867   5.471  10.311   0.548
31343SOL    HW142868   5.563  10.347   0.564
31343SOL    HW242869   5.403  10.382   0.567
31344SOL     OW42870  11.621  10.280   1.137
31344SOL    HW142871  11.557  10.336   1.189
31344SOL    HW242872  11.715  10.307   1.160
31345SOL     OW42873   8.859   2.087   6.187
31345SOL    HW142874   8.893   2.059   6.098
31345SOL    HW242875   8.814   2.176   6.180
31346SOL     OW42876  15.524  11.646   0.831
31346SOL    HW142877  15.447  11.600   0.876
31346SOL    HW242878  15.601  11.583   0.827
31347SOL     OW42879  16.738  15.795   8.352
31347SOL    HW142880  16.766  15.882   8.311
31347SOL    HW242881  16.790  15.721   8.311
31348SOL     OW42882   2.386  12.456   7.271
31348SOL    HW142883   2.423  12.535   7.222
31348SOL    HW242884   2.297  12.432   7.233
31349SOL     OW42885  15.656  16.756   0.206
31349SOL    HW142886  15.712  16.676   0.226
31349SOL    HW242887  15.714  16.832   0.177
31350SOL     OW42888   8.079  14.960   1.664
31350SOL    HW142889   8.118  14.896   1.730
31350SOL    HW242890   8.140  14.969   1.585
31351SOL     OW42891  16.898   1.487   7.481
31351SOL    HW142892  16.935   1.578   7.502
31351SOL    HW242893  16.833   1.460   7.552
31352SOL     OW42894   8.849  16.521   7.766
31352SOL    HW142895   8.920  16.454   7.789
31352SOL    HW242896   8.785  16.481   7.702
31353SOL     OW42897  13.725   7.390   7.562
31353SOL    HW142898  13.708   7.296   7.535
31353SOL    HW242899  13.657   7.450   7.521
31354SOL     OW42900  11.468   4.385   6.221
31354SOL    HW142901  11.403   4.336   6.279
31354SOL    HW242902  11.418   4.436   6.151
31355SOL     OW42903  12.898  15.607   7.834
31355SOL    HW142904  12.913  15.700   7.803
31355SOL    HW242905  12.823  15.566   7.781
31356SOL     OW42906  15.255   8.161   6.308
31356SOL    HW142907  15.274   8.089   6.374
31356SOL    HW242908  15.336   8.177   6.251
31357SOL     OW42909  13.391  11.716   0.548
31357SOL    HW142910  13.340  11.734   0.632
31357SOL    HW242911  13.348  11.639   0.500
31358SOL     OW42912   3.334   2.416   0.674
31358SOL    HW142913   3.373   2.383   0.760
31358SOL    HW242914   3.276   2.495   0.692
31359SOL     OW42915   6.171  14.076   0.095
31359SOL    HW142916   6.176  14.076   8.449
31359SOL    HW242917   6.246  14.021   0.132
31360SOL     OW42918   9.079   3.679   0.968
31360SOL    HW142919   9.149   3.748   0.948
31360SOL    HW242920   9.086   3.603   0.903
31361SOL     OW42921  10.862  15.163   8.116
31361SOL    HW142922  10.807  15.215   8.182
31361SOL    HW242923  10.901  15.083   8.162
31362SOL     OW42924  15.549  11.047   7.556
31362SOL    HW142925  15.637  11.070   7.597
31362SOL    HW242926  15.538  10.948   7.551
31363SOL     OW42927   9.748   7.630   6.440
31363SOL    HW142928   9.673   7.672   6.491
31363SOL    HW242929   9.791   7.699   6.382
31364SOL     OW42930   7.805   3.284   1.573
31364SOL    HW142931   7.897   3.278   1.536
31364SOL    HW242932   7.809   3.322   1.666
31365SOL     OW42933  14.796  16.354   0.543
31365SOL    HW142934  14.725  16.398   0.597
31365SOL    HW242935  14.871  16.325   0.603
31366SOL     OW42936  16.229   3.328   6.066
31366SOL    HW142937  16.206   3.367   5.977
31366SOL    HW242938  16.328   3.333   6.080
31367SOL     OW42939   1.158   6.299   0.786
31367SOL    HW142940   1.112   6.353   0.857
31367SOL    HW242941   1.091   6.241   0.741
31368SOL     OW42942   4.448   4.400   0.057
31368SOL    HW142943   4.517   4.445   0.112
31368SOL    HW242944   4.487   4.373   8.423
31369SOL     OW42945   0.702   4.435   7.400
31369SOL    HW142946   0.726   4.445   7.496
31369SOL    HW242947   0.680   4.525   7.361
31370SOL     OW42948  11.722   4.684   7.176
31370SOL    HW142949  11.633   4.697   7.133
31370SOL    HW242950  11.783   4.759   7.149
31371SOL     OW42951   0.005   3.323   6.831
31371SOL    HW142952  16.977   3.230   6.796
31371SOL    HW242953  16.960   3.389   6.761
31372SOL     OW42954   7.875  16.939   7.329
31372SOL    HW142955   7.860   0.000   7.240
31372SOL    HW242956   7.809  16.865   7.341
31373SOL     OW42957   1.801   2.033   0.233
31373SOL    HW142958   1.771   2.040   0.328
31373SOL    HW242959   1.729   2.068   0.173
31374SOL     OW42960   2.671   4.061   1.861
31374SOL    HW142961   2.730   4.091   1.936
31374SOL    HW242962   2.646   4.139   1.804
31375SOL     OW42963  12.590  13.420   1.438
31375SOL    HW142964  12.690  13.424   1.437
31375SOL    HW242965  12.559  13.377   1.523
31376SOL     OW42966   2.881  15.534   7.216
31376SOL    HW142967   2.893  15.454   7.158
31376SOL    HW242968   2.893  15.509   7.312
31377SOL     OW42969   6.180   6.240   6.335
31377SOL    HW142970   6.090   6.270   6.302
31377SOL    HW242971   6.192   6.143   6.317
31378SOL     OW42972   5.623   2.504   0.041
31378SOL    HW142973   5.665   2.491   8.405
31378SOL    HW242974   5.566   2.587   0.040
31379SOL     OW42975  14.324   2.607   8.360
31379SOL    HW142976  14.356   2.688   8.311
31379SOL    HW242977  14.382   2.590   8.439
31380SOL     OW42978   2.630   8.800   2.190
31380SOL    HW142979   2.613   8.841   2.279
31380SOL    HW242980   2.597   8.705   2.190
31381SOL     OW42981  13.678   2.625   1.589
31381SOL    HW142982  13.611   2.609   1.661
31381SOL    HW242983  13.767   2.644   1.631
31382SOL     OW42984  11.745   2.443   7.427
31382SOL    HW142985  11.814   2.513   7.411
31382SOL    HW242986  11.661   2.486   7.462
31383SOL     OW42987   9.969  14.982   7.825
31383SOL    HW142988   9.895  15.016   7.769
31383SOL    HW242989  10.027  14.920   7.772
31384SOL     OW42990   3.916   0.690   7.627
31384SOL    HW142991   3.899   0.757   7.555
31384SOL    HW242992   4.014   0.682   7.644
31385SOL     OW42993  11.680  11.403   1.621
31385SOL    HW142994  11.625  11.331   1.661
31385SOL    HW242995  11.776  11.375   1.620
31386SOL     OW42996   7.918  16.780   6.916
31386SOL    HW142997   7.941  16.782   6.819
31386SOL    HW242998   7.957  16.860   6.962
31387SOL     OW42999   2.069   3.196   1.913
31387SOL    HW143000   2.165   3.203   1.888
31387SOL    HW243001   2.059   3.212   2.012
31388SOL     OW43002   4.037   6.334   6.939
31388SOL    HW143003   4.112   6.362   6.879
31388SOL    HW243004   4.076   6.288   7.020
31389SOL     OW43005   1.043   3.279   6.895
31389SOL    HW143006   0.948   3.265   6.868
31389SOL    HW243007   1.100   3.292   6.814
31390SOL     OW43008  14.756   3.767   5.579
31390SOL    HW143009  14.834   3.763   5.517
31390SOL    HW243010  14.672   3.783   5.527
31391SOL     OW43011  11.272  12.699   1.430
31391SOL    HW143012  11.203  12.688   1.501
31391SOL    HW243013  11.326  12.615   1.422
31392SOL     OW43014   9.233   3.822   6.813
31392SOL    HW143015   9.278   3.747   6.862
31392SOL    HW243016   9.186   3.881   6.879
31393SOL     OW43017   4.719  12.405   6.965
31393SOL    HW143018   4.670  12.317   6.966
31393SOL    HW243019   4.658  12.476   6.928
31394SOL     OW43020   5.651   8.498   1.248
31394SOL    HW143021   5.605   8.503   1.159
31394SOL    HW243022   5.583   8.503   1.321
31395SOL     OW43023   6.727  13.265   7.259
31395SOL    HW143024   6.691  13.263   7.352
31395SOL    HW243025   6.726  13.173   7.221
31396SOL     OW43026   0.136   9.253   6.738
31396SOL    HW143027   0.144   9.303   6.652
31396SOL    HW243028   0.051   9.279   6.785
31397SOL     OW43029  12.760  16.045   1.698
31397SOL    HW143030  12.857  16.054   1.718
31397SOL    HW243031  12.712  16.008   1.777
31398SOL     OW43032   9.088  12.684   0.870
31398SOL    HW143033   8.999  12.712   0.905
31398SOL    HW243034   9.086  12.683   0.770
31399SOL     OW43035   2.861  14.854   0.277
31399SOL    HW143036   2.867  14.758   0.250
31399SOL    HW243037   2.935  14.905   0.233
31400SOL     OW43038   0.808  13.955   7.251
31400SOL    HW143039   0.757  14.040   7.262
31400SOL    HW243040   0.803  13.902   7.335
31401SOL     OW43041   5.457   4.923   1.258
31401SOL    HW143042   5.462   4.824   1.263
31401SOL    HW243043   5.547   4.963   1.275
31402SOL     OW43044  10.462   9.466   7.320
31402SOL    HW143045  10.526   9.393   7.297
31402SOL    HW243046  10.372   9.445   7.283
31403SOL     OW43047   6.345  12.018   0.920
31403SOL    HW143048   6.423  12.037   0.980
31403SOL    HW243049   6.326  12.099   0.864
31404SOL     OW43050   6.217   1.196   1.980
31404SOL    HW143051   6.244   1.288   2.008
31404SOL    HW243052   6.297   1.137   1.978
31405SOL     OW43053  12.608  16.182   8.097
31405SOL    HW143054  12.687  16.241   8.111
31405SOL    HW243055  12.533  16.236   8.058
31406SOL     OW43056   6.363   9.193   1.558
31406SOL    HW143057   6.338   9.117   1.618
31406SOL    HW243058   6.313   9.185   1.472
31407SOL     OW43059   5.322  15.256   7.309
31407SOL    HW143060   5.249  15.233   7.245
31407SOL    HW243061   5.288  15.320   7.378
31408SOL     OW43062   3.400  13.241   0.239
31408SOL    HW143063   3.360  13.170   0.297
31408SOL    HW243064   3.499  13.230   0.236
31409SOL     OW43065   4.777   8.841   1.564
31409SOL    HW143066   4.865   8.853   1.611
31409SOL    HW243067   4.709   8.809   1.629
31410SOL     OW43068   6.630   1.396   6.790
31410SOL    HW143069   6.567   1.470   6.768
31410SOL    HW243070   6.724   1.431   6.790
31411SOL     OW43071  16.801  10.015   0.444
31411SOL    HW143072  16.773   9.984   0.353
31411SOL    HW243073  16.795  10.115   0.448
31412SOL     OW43074   6.417  14.512   0.640
31412SOL    HW143075   6.485  14.439   0.650
31412SOL    HW243076   6.420  14.547   0.546
31413SOL     OW43077  13.781  15.616   7.188
31413SOL    HW143078  13.702  15.669   7.155
31413SOL    HW243079  13.784  15.528   7.140
31414SOL     OW43080  14.111  10.347   6.037
31414SOL    HW143081  14.099  10.271   5.973
31414SOL    HW243082  14.096  10.433   5.989
31415SOL     OW43083  15.757  16.189   7.744
31415SOL    HW143084  15.844  16.174   7.790
31415SOL    HW243085  15.733  16.286   7.748
31416SOL     OW43086  16.697   0.305   7.208
31416SOL    HW143087  16.745   0.385   7.170
31416SOL    HW243088  16.641   0.335   7.286
31417SOL     OW43089  12.564   6.546   1.362
31417SOL    HW143090  12.537   6.486   1.437
31417SOL    HW243091  12.549   6.641   1.388
31418SOL     OW43092  10.983   0.590   2.199
31418SOL    HW143093  10.942   0.499   2.209
31418SOL    HW243094  11.025   0.617   2.286
31419SOL     OW43095   2.774   9.645   0.649
31419SOL    HW143096   2.763   9.732   0.696
31419SOL    HW243097   2.691   9.623   0.598
31420SOL     OW43098  13.888  11.809   0.896
31420SOL    HW143099  13.951  11.886   0.910
31420SOL    HW243100  13.794  11.840   0.912
31421SOL     OW43101  11.135   3.412   7.803
31421SOL    HW143102  11.172   3.319   7.792
31421SOL    HW243103  11.073   3.413   7.882
31422SOL     OW43104   0.915  11.091   7.103
31422SOL    HW143105   0.912  11.153   7.024
31422SOL    HW243106   0.873  11.137   7.182
31423SOL     OW43107   7.155   8.702   6.264
31423SOL    HW143108   7.236   8.720   6.208
31423SOL    HW243109   7.145   8.604   6.278
31424SOL     OW43110   6.446  14.113   7.975
31424SOL    HW143111   6.538  14.151   7.970
31424SOL    HW243112   6.393  14.163   8.043
31425SOL     OW43113   6.276   3.265   7.677
31425SOL    HW143114   6.358   3.316   7.704
31425SOL    HW243115   6.300   3.169   7.662
31426SOL     OW43116   7.970  14.394   1.270
31426SOL    HW143117   7.959  14.444   1.356
31426SOL    HW243118   7.881  14.365   1.236
31427SOL     OW43119  11.778   6.886   8.169
31427SOL    HW143120  11.845   6.904   8.241
31427SOL    HW243121  11.688   6.914   8.199
31428SOL     OW43122   7.376  12.039   0.998
31428SOL    HW143123   7.437  12.051   0.919
31428SOL    HW243124   7.306  12.110   0.997
31429SOL     OW43125   2.678  14.916   1.919
31429SOL    HW143126   2.667  15.012   1.892
31429SOL    HW243127   2.776  14.894   1.920
31430SOL     OW43128  10.660   0.072   0.149
31430SOL    HW143129  10.597   0.134   0.195
31430SOL    HW243130  10.706   0.121   0.075
31431SOL     OW43131   2.983  10.089   7.668
31431SOL    HW143132   2.888  10.112   7.693
31431SOL    HW243133   3.026  10.169   7.626
31432SOL     OW43134   6.147   1.541   1.087
31432SOL    HW143135   6.149   1.450   1.045
31432SOL    HW243136   6.225   1.551   1.148
31433SOL     OW43137   5.982   0.071   0.081
31433SOL    HW143138   6.074   0.087   0.118
31433SOL    HW243139   5.988   0.008   0.003
31434SOL     OW43140   1.595  12.247   6.924
31434SOL    HW143141   1.629  12.309   6.854
31434SOL    HW243142   1.502  12.218   6.901
31435SOL     OW43143  12.646   5.593   1.013
31435SOL    HW143144  12.662   5.585   1.111
31435SOL    HW243145  12.714   5.540   0.963
31436SOL     OW43146  16.274  12.699   7.541
31436SOL    HW143147  16.243  12.609   7.571
31436SOL    HW243148  16.369  12.693   7.509
31437SOL     OW43149   3.188   7.446   1.698
31437SOL    HW143150   3.272   7.398   1.721
31437SOL    HW243151   3.198   7.543   1.719
31438SOL     OW43152  13.329   0.701   5.752
31438SOL    HW143153  13.395   0.745   5.813
31438SOL    HW243154  13.284   0.627   5.802
31439SOL     OW43155   0.405   2.716   0.513
31439SOL    HW143156   0.322   2.695   0.460
31439SOL    HW243157   0.479   2.740   0.450
31440SOL     OW43158   7.058   8.270   2.128
31440SOL    HW143159   7.138   8.220   2.162
31440SOL    HW243160   7.035   8.344   2.191
31441SOL     OW43161   5.257   9.107   1.078
31441SOL    HW143162   5.320   9.038   1.113
31441SOL    HW243163   5.273   9.119   0.980
31442SOL     OW43164  15.401   2.277   7.480
31442SOL    HW143165  15.425   2.239   7.569
31442SOL    HW243166  15.481   2.319   7.438
31443SOL     OW43167  16.377  11.434   2.459
31443SOL    HW143168  16.318  11.354   2.473
31443SOL    HW243169  16.461  11.423   2.510
31444SOL     OW43170  14.936  15.538   6.187
31444SOL    HW143171  14.971  15.488   6.108
31444SOL    HW243172  14.875  15.479   6.240
31445SOL     OW43173   9.338   1.009   0.416
31445SOL    HW143174   9.428   0.996   0.375
31445SOL    HW243175   9.346   1.071   0.494
31446SOL     OW43176   9.880  12.988   0.163
31446SOL    HW143177   9.793  12.996   0.115
31446SOL    HW243178   9.956  12.997   0.098
31447SOL     OW43179   5.905  13.068   0.348
31447SOL    HW143180   5.834  13.098   0.412
31447SOL    HW243181   5.983  13.131   0.355
31448SOL     OW43182   5.205   8.558   7.695
31448SOL    HW143183   5.211   8.459   7.681
31448SOL    HW243184   5.286   8.589   7.746
31449SOL     OW43185  15.523  16.093   1.251
31449SOL    HW143186  15.554  15.998   1.247
31449SOL    HW243187  15.601  16.153   1.267
31450SOL     OW43188   1.546   9.027   0.022
31450SOL    HW143189   1.593   9.108   8.441
31450SOL    HW243190   1.502   9.049   0.109
31451SOL     OW43191  15.477  16.507   6.661
31451SOL    HW143192  15.389  16.502   6.615
31451SOL    HW243193  15.527  16.588   6.629
31452SOL     OW43194  11.804  16.609   7.538
31452SOL    HW143195  11.803  16.552   7.455
31452SOL    HW243196  11.890  16.659   7.542
31453SOL     OW43197  11.641   6.941   0.526
31453SOL    HW143198  11.556   6.956   0.576
31453SOL    HW243199  11.672   7.027   0.485
31454SOL     OW43200   3.078   5.776   0.678
31454SOL    HW143201   3.132   5.743   0.600
31454SOL    HW243202   2.987   5.803   0.646
31455SOL     OW43203   4.818  10.880   8.038
31455SOL    HW143204   4.767  10.849   7.957
31455SOL    HW243205   4.813  10.979   8.045
31456SOL     OW43206  15.480  15.643   0.901
31456SOL    HW143207  15.560  15.694   0.934
31456SOL    HW243208  15.397  15.682   0.939
31457SOL     OW43209  10.484   5.153   0.911
31457SOL    HW143210  10.476   5.064   0.955
31457SOL    HW243211  10.551   5.148   0.837
31458SOL     OW43212   5.392  16.733   7.214
31458SOL    HW143213   5.375  16.796   7.139
31458SOL    HW243214   5.314  16.736   7.278
31459SOL     OW43215  16.684   2.057   1.063
31459SOL    HW143216  16.724   2.125   1.003
31459SOL    HW243217  16.632   2.103   1.135
31460SOL     OW43218   8.440  14.450   7.794
31460SOL    HW143219   8.493  14.531   7.770
31460SOL    HW243220   8.440  14.386   7.717
31461SOL     OW43221   9.035   5.046   0.421
31461SOL    HW143222   9.008   4.972   0.483
31461SOL    HW243223   9.033   5.133   0.471
31462SOL     OW43224  12.487   0.426   6.474
31462SOL    HW143225  12.406   0.411   6.417
31462SOL    HW243226  12.517   0.340   6.514
31463SOL     OW43227  16.276  14.152   2.112
31463SOL    HW143228  16.209  14.134   2.184
31463SOL    HW243229  16.338  14.225   2.141
31464SOL     OW43230   2.442   2.425   7.323
31464SOL    HW143231   2.419   2.334   7.286
31464SOL    HW243232   2.359   2.470   7.355
31465SOL     OW43233  10.585  10.259   6.332
31465SOL    HW143234  10.553  10.352   6.313
31465SOL    HW243235  10.551  10.197   6.261
31466SOL     OW43236   6.622   6.825   0.062
31466SOL    HW143237   6.551   6.889   0.032
31466SOL    HW243238   6.616   6.814   0.161
31467SOL     OW43239  14.320   8.367   0.850
31467SOL    HW143240  14.336   8.304   0.926
31467SOL    HW243241  14.407   8.391   0.807
31468SOL     OW43242   9.145  15.789   6.910
31468SOL    HW143243   9.078  15.856   6.878
31468SOL    HW243244   9.098  15.703   6.930
31469SOL     OW43245   4.191  14.658   1.891
31469SOL    HW143246   4.271  14.718   1.884
31469SOL    HW243247   4.129  14.676   1.814
31470SOL     OW43248  11.586   6.309   7.561
31470SOL    HW143249  11.664   6.358   7.522
31470SOL    HW243250  11.504   6.330   7.508
31471SOL     OW43251   5.626   2.590   7.702
31471SOL    HW143252   5.586   2.501   7.677
31471SOL    HW243253   5.556   2.647   7.746
31472SOL     OW43254   3.984   3.983   0.074
31472SOL    HW143255   4.071   3.983   0.122
31472SOL    HW243256   3.923   3.916   0.115
31473SOL     OW43257  11.236   4.967   6.522
31473SOL    HW143258  11.324   4.969   6.568
31473SOL    HW243259  11.240   5.022   6.439
31474SOL     OW43260   8.196   4.307   1.423
31474SOL    HW143261   8.278   4.363   1.423
31474SOL    HW243262   8.210   4.227   1.482
31475SOL     OW43263  16.290   0.304   1.344
31475SOL    HW143264  16.309   0.355   1.428
31475SOL    HW243265  16.282   0.207   1.364
31476SOL     OW43266   7.267   9.152   6.624
31476SOL    HW143267   7.309   9.073   6.669
31476SOL    HW243268   7.291   9.235   6.674
31477SOL     OW43269   1.339   2.880   8.014
31477SOL    HW143270   1.268   2.895   8.082
31477SOL    HW243271   1.406   2.954   8.019
31478SOL     OW43272  13.268   5.704   8.435
31478SOL    HW143273  13.289   5.676   8.341
31478SOL    HW243274  13.255   5.623   0.038
31479SOL     OW43275  10.106  15.319   2.185
31479SOL    HW143276  10.113  15.277   2.275
31479SOL    HW243277  10.010  15.339   2.164
31480SOL     OW43278   7.297  15.243   1.534
31480SOL    HW143279   7.320  15.227   1.438
31480SOL    HW243280   7.356  15.315   1.571
31481SOL     OW43281   7.356   2.519   0.781
31481SOL    HW143282   7.325   2.595   0.839
31481SOL    HW243283   7.391   2.446   0.839
31482SOL     OW43284  13.107   6.157   6.537
31482SOL    HW143285  13.059   6.071   6.523
31482SOL    HW243286  13.205   6.142   6.535
31483SOL     OW43287  10.624  15.010   0.258
31483SOL    HW143288  10.619  15.099   0.302
31483SOL    HW243289  10.700  15.010   0.193
31484SOL     OW43290  14.745   5.408   0.545
31484SOL    HW143291  14.824   5.375   0.493
31484SOL    HW243292  14.729   5.347   0.623
31485SOL     OW43293   7.331  15.609   6.336
31485SOL    HW143294   7.319  15.512   6.358
31485SOL    HW243295   7.260  15.637   6.271
31486SOL     OW43296   6.631   8.978   7.760
31486SOL    HW143297   6.627   9.063   7.708
31486SOL    HW243298   6.720   8.934   7.747
31487SOL     OW43299  16.798  13.408   7.284
31487SOL    HW143300  16.774  13.432   7.190
31487SOL    HW243301  16.895  13.383   7.289
31488SOL     OW43302   2.032  14.270   2.039
31488SOL    HW143303   2.095  14.328   1.987
31488SOL    HW243304   2.078  14.236   2.121
31489SOL     OW43305   9.217   8.186   0.146
31489SOL    HW143306   9.230   8.114   0.213
31489SOL    HW243307   9.156   8.257   0.183
31490SOL     OW43308  16.120  15.591   0.087
31490SOL    HW143309  16.088  15.505   0.127
31490SOL    HW243310  16.069  15.610   0.003
31491SOL     OW43311  12.004   6.537   7.076
31491SOL    HW143312  12.024   6.515   6.981
31491SOL    HW243313  12.090   6.559   7.123
31492SOL     OW43314   6.447  15.501   8.354
31492SOL    HW143315   6.382  15.566   8.314
31492SOL    HW243316   6.437  15.499   8.453
31493SOL     OW43317  11.766  12.995   6.650
31493SOL    HW143318  11.732  12.923   6.590
31493SOL    HW243319  11.845  13.040   6.608
31494SOL     OW43320  14.982   0.841   0.514
31494SOL    HW143321  14.972   0.743   0.497
31494SOL    HW243322  14.893   0.885   0.502
31495SOL     OW43323   3.431  15.867   7.925
31495SOL    HW143324   3.436  15.801   8.001
31495SOL    HW243325   3.524  15.887   7.894
31496SOL     OW43326   0.705  12.289   7.927
31496SOL    HW143327   0.677  12.245   7.842
31496SOL    HW243328   0.772  12.232   7.975
31497SOL     OW43329   9.955   9.391   0.905
31497SOL    HW143330   9.898   9.436   0.973
31497SOL    HW243331   9.958   9.293   0.923
31498SOL     OW43332  10.102  11.708   7.914
31498SOL    HW143333  10.138  11.778   7.976
31498SOL    HW243334  10.105  11.743   7.820
31499SOL     OW43335  16.364   8.901   8.272
31499SOL    HW143336  16.308   8.819   8.260
31499SOL    HW243337  16.418   8.917   8.189
31500SOL     OW43338   1.620   2.483   8.393
31500SOL    HW143339   1.714   2.487   8.360
31500SOL    HW243340   1.619   2.441   0.030
31501SOL     OW43341  15.802   7.125   8.449
31501SOL    HW143342  15.821   7.121   8.351
31501SOL    HW243343  15.738   7.051   0.018
31502SOL     OW43344  12.899   8.119   8.308
31502SOL    HW143345  12.840   8.062   8.251
31502SOL    HW243346  12.907   8.210   8.267
31503SOL     OW43347   4.228  14.731   7.074
31503SOL    HW143348   4.129  14.738   7.085
31503SOL    HW243349   4.271  14.714   7.163
31504SOL     OW43350   0.577   7.462   1.269
31504SOL    HW143351   0.569   7.561   1.282
31504SOL    HW243352   0.512   7.416   1.329
31505SOL     OW43353   6.141  12.420   1.594
31505SOL    HW143354   6.079  12.359   1.543
31505SOL    HW243355   6.225  12.432   1.542
31506SOL     OW43356   0.796   0.806   6.672
31506SOL    HW143357   0.891   0.834   6.656
31506SOL    HW243358   0.736   0.854   6.608
31507SOL     OW43359  16.113   2.824   8.348
31507SOL    HW143360  16.027   2.851   8.391
31507SOL    HW243361  16.188   2.833   8.414
31508SOL     OW43362  11.844   3.494   5.929
31508SOL    HW143363  11.837   3.413   5.988
31508SOL    HW243364  11.770   3.558   5.952
31509SOL     OW43365   4.846  11.258   1.080
31509SOL    HW143366   4.827  11.169   1.122
31509SOL    HW243367   4.792  11.269   0.997
31510SOL     OW43368  11.280   2.140   6.280
31510SOL    HW143369  11.215   2.165   6.352
31510SOL    HW243370  11.231   2.122   6.195
31511SOL     OW43371   1.828  10.319   0.850
31511SOL    HW143372   1.733  10.311   0.883
31511SOL    HW243373   1.862  10.229   0.826
31512SOL     OW43374  16.392   2.710   6.891
31512SOL    HW143375  16.372   2.795   6.842
31512SOL    HW243376  16.490   2.704   6.910
31513SOL     OW43377  12.073  11.214   2.298
31513SOL    HW143378  12.088  11.295   2.354
31513SOL    HW243379  12.158  11.189   2.252
31514SOL     OW43380  15.618  15.917   2.216
31514SOL    HW143381  15.583  15.844   2.275
31514SOL    HW243382  15.578  16.004   2.244
31515SOL     OW43383   3.216  13.928   8.163
31515SOL    HW143384   3.277  13.969   8.096
31515SOL    HW243385   3.141  13.882   8.115
31516SOL     OW43386  11.565  11.684   8.424
31516SOL    HW143387  11.662  11.691   8.445
31516SOL    HW243388  11.521  11.773   8.439
31517SOL     OW43389  10.784   4.878   6.498
31517SOL    HW143390  10.829   4.806   6.445
31517SOL    HW243391  10.809   4.968   6.461
31518SOL     OW43392  16.762   0.398   1.240
31518SOL    HW143393  16.823   0.451   1.182
31518SOL    HW243394  16.790   0.408   1.336
31519SOL     OW43395  16.433   5.136   6.949
31519SOL    HW143396  16.440   5.074   7.027
31519SOL    HW243397  16.488   5.101   6.873
31520SOL     OW43398   7.761  11.859   1.592
31520SOL    HW143399   7.766  11.956   1.572
31520SOL    HW243400   7.770  11.845   1.691
31521SOL     OW43401   6.640  10.144   0.077
31521SOL    HW143402   6.665  10.159   0.173
31521SOL    HW243403   6.618  10.048   0.062
31522SOL     OW43404  14.999   1.633   7.844
31522SOL    HW143405  14.936   1.710   7.854
31522SOL    HW243406  14.948   1.547   7.855
31523SOL     OW43407   8.444  11.159   1.617
31523SOL    HW143408   8.468  11.231   1.551
31523SOL    HW243409   8.459  11.193   1.709
31524SOL     OW43410   6.286  14.626   7.863
31524SOL    HW143411   6.322  14.719   7.862
31524SOL    HW243412   6.187  14.628   7.875
31525SOL     OW43413   8.180  10.312   0.147
31525SOL    HW143414   8.136  10.223   0.160
31525SOL    HW243415   8.122  10.372   0.092
31526SOL     OW43416  15.199  11.688   0.511
31526SOL    HW143417  15.235  11.763   0.567
31526SOL    HW243418  15.271  11.621   0.495
31527SOL     OW43419  12.725   8.110   7.827
31527SOL    HW143420  12.796   8.093   7.758
31527SOL    HW243421  12.659   8.035   7.827
31528SOL     OW43422  15.282  15.482   8.002
31528SOL    HW143423  15.192  15.459   7.965
31528SOL    HW243424  15.336  15.529   7.931
31529SOL     OW43425   8.813   0.953   0.726
31529SOL    HW143426   8.812   1.013   0.646
31529SOL    HW243427   8.785   1.005   0.807
31530SOL     OW43428  14.482   3.081   0.778
31530SOL    HW143429  14.481   3.123   0.687
31530SOL    HW243430  14.444   2.989   0.773
31531SOL     OW43431   4.090   6.566   8.007
31531SOL    HW143432   4.171   6.508   8.003
31531SOL    HW243433   4.012   6.512   8.041
31532SOL     OW43434  12.588   6.438   6.947
31532SOL    HW143435  12.675   6.461   6.904
31532SOL    HW243436  12.572   6.340   6.938
31533SOL     OW43437  16.518   8.014   8.313
31533SOL    HW143438  16.558   8.101   8.342
31533SOL    HW243439  16.520   7.949   8.389
31534SOL     OW43440   2.296   6.218   6.856
31534SOL    HW143441   2.382   6.223   6.907
31534SOL    HW243442   2.234   6.155   6.901
31535SOL     OW43443  16.672  16.031   0.389
31535SOL    HW143444  16.684  15.979   0.304
31535SOL    HW243445  16.719  16.119   0.381
31536SOL     OW43446   1.805  13.780   8.004
31536SOL    HW143447   1.858  13.864   8.009
31536SOL    HW243448   1.737  13.788   7.931
31537SOL     OW43449  12.105   9.386   1.291
31537SOL    HW143450  12.076   9.290   1.281
31537SOL    HW243451  12.200   9.389   1.319
31538SOL     OW43452  14.145   7.493   7.070
31538SOL    HW143453  14.234   7.483   7.026
31538SOL    HW243454  14.075   7.447   7.014
31539SOL     OW43455   8.543   6.858   1.088
31539SOL    HW143456   8.453   6.885   1.053
31539SOL    HW243457   8.578   6.929   1.149
31540SOL     OW43458  10.681   6.023   8.419
31540SOL    HW143459  10.693   5.945   0.027
31540SOL    HW243460  10.588   6.059   8.428
31541SOL     OW43461   6.436  11.998   0.566
31541SOL    HW143462   6.520  12.021   0.615
31541SOL    HW243463   6.406  11.907   0.592
31542SOL     OW43464   2.216   5.154   0.362
31542SOL    HW143465   2.315   5.160   0.370
31542SOL    HW243466   2.180   5.234   0.314
31543SOL     OW43467  14.753   8.791   0.046
31543SOL    HW143468  14.836   8.736   0.039
31543SOL    HW243469  14.674   8.732   0.062
31544SOL     OW43470  11.262  16.593   7.805
31544SOL    HW143471  11.171  16.608   7.845
31544SOL    HW243472  11.292  16.500   7.826
31545SOL     OW43473  11.203  14.777   8.189
31545SOL    HW143474  11.281  14.816   8.239
31545SOL    HW243475  11.185  14.685   8.223
31546SOL     OW43476   9.002   3.553   6.531
31546SOL    HW143477   8.908   3.551   6.497
31546SOL    HW243478   9.065   3.528   6.458
31547SOL     OW43479   0.663   4.384   5.669
31547SOL    HW143480   0.578   4.385   5.617
31547SOL    HW243481   0.739   4.360   5.609
31548SOL     OW43482  10.409  15.927   1.301
31548SOL    HW143483  10.456  16.015   1.303
31548SOL    HW243484  10.472  15.855   1.327
31549SOL     OW43485  14.033  16.593   2.225
31549SOL    HW143486  13.959  16.618   2.162
31549SOL    HW243487  14.010  16.625   2.317
31550SOL     OW43488   7.759  14.138   0.019
31550SOL    HW143489   7.789  14.043   0.024
31550SOL    HW243490   7.786  14.186   0.102
31551SOL     OW43491  10.716  11.090   2.073
31551SOL    HW143492  10.653  11.044   2.135
31551SOL    HW243493  10.721  11.187   2.095
31552SOL     OW43494  16.500   3.310   6.123
31552SOL    HW143495  16.540   3.227   6.083
31552SOL    HW243496  16.573   3.375   6.143
31553SOL     OW43497   3.768  15.530   7.544
31553SOL    HW143498   3.697  15.460   7.534
31553SOL    HW243499   3.858  15.487   7.541
31554SOL     OW43500  10.199   4.882   7.424
31554SOL    HW143501  10.231   4.861   7.516
31554SOL    HW243502  10.229   4.974   7.398
31555SOL     OW43503  13.369   8.788   7.443
31555SOL    HW143504  13.363   8.883   7.410
31555SOL    HW243505  13.464   8.760   7.446
31556SOL     OW43506   4.155  10.128   0.122
31556SOL    HW143507   4.131  10.056   0.187
31556SOL    HW243508   4.186  10.209   0.173
31557SOL     OW43509   1.325  16.490   0.082
31557SOL    HW143510   1.226  16.502   0.085
31557SOL    HW243511   1.360  16.526   8.450
31558SOL     OW43512   5.599  14.252   1.700
31558SOL    HW143513   5.536  14.207   1.636
31558SOL    HW243514   5.668  14.186   1.730
31559SOL     OW43515  14.942   4.992   7.129
31559SOL    HW143516  15.018   4.938   7.093
31559SOL    HW243517  14.977   5.061   7.193
31560SOL     OW43518  11.231   8.986   7.533
31560SOL    HW143519  11.237   9.084   7.516
31560SOL    HW243520  11.136   8.961   7.550
31561SOL     OW43521  16.186  11.152   0.416
31561SOL    HW143522  16.268  11.107   0.452
31561SOL    HW243523  16.210  11.244   0.386
31562SOL     OW43524  12.787  16.414   7.749
31562SOL    HW143525  12.748  16.330   7.711
31562SOL    HW243526  12.864  16.392   7.808
31563SOL     OW43527  15.156   2.842   7.218
31563SOL    HW143528  15.236   2.868   7.164
31563SOL    HW243529  15.123   2.753   7.188
31564SOL     OW43530   9.893   1.740   1.759
31564SOL    HW143531   9.919   1.836   1.753
31564SOL    HW243532   9.939   1.688   1.687
31565SOL     OW43533   8.542  16.861   7.949
31565SOL    HW143534   8.511  16.950   7.980
31565SOL    HW243535   8.556  16.863   7.850
31566SOL     OW43536  11.509   0.252   0.950
31566SOL    HW143537  11.566   0.306   0.888
31566SOL    HW243538  11.447   0.195   0.897
31567SOL     OW43539   9.698   9.183   0.911
31567SOL    HW143540   9.655   9.233   0.986
31567SOL    HW243541   9.785   9.144   0.942
31568SOL     OW43542  11.225  14.744   0.789
31568SOL    HW143543  11.235  14.826   0.732
31568SOL    HW243544  11.242  14.768   0.885
31569SOL     OW43545   2.034  11.486   2.447
31569SOL    HW143546   2.041  11.392   2.482
31569SOL    HW243547   2.040  11.551   2.523
31570SOL     OW43548   2.391  15.680   7.952
31570SOL    HW143549   2.419  15.653   7.860
31570SOL    HW243550   2.435  15.767   7.975
31571SOL     OW43551  10.296   3.422   0.611
31571SOL    HW143552  10.334   3.468   0.530
31571SOL    HW243553  10.297   3.485   0.689
31572SOL     OW43554  12.581  11.971   0.880
31572SOL    HW143555  12.485  11.950   0.898
31572SOL    HW243556  12.589  12.016   0.791
31573SOL     OW43557   6.745  12.064   1.793
31573SOL    HW143558   6.818  11.996   1.804
31573SOL    HW243559   6.783  12.149   1.757
31574SOL     OW43560   9.023  14.205   6.207
31574SOL    HW143561   8.926  14.195   6.184
31574SOL    HW243562   9.032  14.229   6.304
31575SOL     OW43563   8.940   6.400   6.389
31575SOL    HW143564   8.984   6.317   6.356
31575SOL    HW243565   8.947   6.404   6.489
31576SOL     OW43566   5.053  16.177   1.682
31576SOL    HW143567   5.101  16.211   1.763
31576SOL    HW243568   5.014  16.088   1.701
31577SOL     OW43569  13.785   9.862   7.912
31577SOL    HW143570  13.876   9.897   7.932
31577SOL    HW243571  13.789   9.764   7.895
31578SOL     OW43572  15.371  15.738   1.315
31578SOL    HW143573  15.322  15.802   1.375
31578SOL    HW243574  15.394  15.656   1.366
31579SOL     OW43575   9.850  15.509   1.620
31579SOL    HW143576   9.865  15.413   1.594
31579SOL    HW243577   9.936  15.549   1.652
31580SOL     OW43578   9.510   3.041   1.323
31580SOL    HW143579   9.509   3.060   1.421
31580SOL    HW243580   9.453   3.108   1.275
31581SOL     OW43581   8.577  14.708   6.765
31581SOL    HW143582   8.662  14.745   6.726
31581SOL    HW243583   8.527  14.659   6.694
31582SOL     OW43584   3.011  11.324   0.967
31582SOL    HW143585   3.077  11.297   0.898
31582SOL    HW243586   3.059  11.353   1.050
31583SOL     OW43587  12.905   7.384   0.853
31583SOL    HW143588  12.909   7.298   0.801
31583SOL    HW243589  12.991   7.398   0.902
31584SOL     OW43590   4.056  15.880   0.226
31584SOL    HW143591   3.967  15.921   0.246
31584SOL    HW243592   4.067  15.796   0.280
31585SOL     OW43593   8.690   3.248   1.105
31585SOL    HW143594   8.707   3.157   1.068
31585SOL    HW243595   8.743   3.315   1.053
31586SOL     OW43596   9.227  11.472   8.178
31586SOL    HW143597   9.304  11.458   8.116
31586SOL    HW243598   9.225  11.398   8.245
31587SOL     OW43599   6.125  10.526   0.437
31587SOL    HW143600   6.115  10.564   0.345
31587SOL    HW243601   6.091  10.592   0.504
31588SOL     OW43602   1.004   9.051   8.276
31588SOL    HW143603   0.960   9.058   8.186
31588SOL    HW243604   0.943   9.005   8.340
31589SOL     OW43605  11.109   7.231   7.152
31589SOL    HW143606  11.105   7.319   7.200
31589SOL    HW243607  11.159   7.165   7.209
31590SOL     OW43608  10.069  10.755   0.871
31590SOL    HW143609  10.000  10.685   0.852
31590SOL    HW243610  10.160  10.713   0.867
31591SOL     OW43611  14.325   8.647   1.225
31591SOL    HW143612  14.306   8.700   1.308
31591SOL    HW243613  14.240   8.603   1.195
31592SOL     OW43614   2.826   9.092   7.485
31592SOL    HW143615   2.895   9.136   7.427
31592SOL    HW243616   2.742   9.077   7.432
31593SOL     OW43617  13.184   7.086   7.597
31593SOL    HW143618  13.217   7.118   7.508
31593SOL    HW243619  13.126   7.005   7.584
31594SOL     OW43620   5.415   0.763   1.698
31594SOL    HW143621   5.334   0.822   1.704
31594SOL    HW243622   5.488   0.800   1.754
31595SOL     OW43623  11.533   0.428   0.515
31595SOL    HW143624  11.601   0.361   0.545
31595SOL    HW243625  11.461   0.435   0.584
31596SOL     OW43626  15.910   1.813   7.818
31596SOL    HW143627  15.987   1.819   7.755
31596SOL    HW243628  15.859   1.728   7.799
31597SOL     OW43629  10.870   3.238   1.554
31597SOL    HW143630  10.868   3.237   1.654
31597SOL    HW243631  10.779   3.219   1.518
31598SOL     OW43632   9.860   4.257   7.781
31598SOL    HW143633   9.834   4.161   7.778
31598SOL    HW243634   9.960   4.265   7.773
31599SOL     OW43635  13.568   8.564   8.186
31599SOL    HW143636  13.543   8.639   8.248
31599SOL    HW243637  13.496   8.495   8.187
31600SOL     OW43638   6.628   6.918   6.070
31600SOL    HW143639   6.665   6.830   6.098
31600SOL    HW243640   6.602   6.914   5.974
31601SOL     OW43641   5.552   7.652   0.410
31601SOL    HW143642   5.456   7.680   0.413
31601SOL    HW243643   5.569   7.582   0.480
31602SOL     OW43644  15.426  13.424   2.104
31602SOL    HW143645  15.442  13.522   2.113
31602SOL    HW243646  15.430  13.381   2.194
31603SOL     OW43647   8.057   8.829   7.418
31603SOL    HW143648   8.109   8.754   7.377
31603SOL    HW243649   8.119   8.899   7.452
31604SOL     OW43650  11.478   8.738   0.017
31604SOL    HW143651  11.475   8.664   8.403
31604SOL    HW243652  11.461   8.825   8.426
31605SOL     OW43653   2.781   5.755   1.232
31605SOL    HW143654   2.801   5.826   1.300
31605SOL    HW243655   2.684   5.757   1.209
31606SOL     OW43656  15.041   2.511   0.073
31606SOL    HW143657  15.072   2.441   0.009
31606SOL    HW243658  15.018   2.469   0.160
31607SOL     OW43659   3.684   0.367   2.132
31607SOL    HW143660   3.692   0.453   2.082
31607SOL    HW243661   3.649   0.384   2.224
31608SOL     OW43662   4.116  16.155   2.107
31608SOL    HW143663   4.087  16.068   2.146
31608SOL    HW243664   4.138  16.142   2.010
31609SOL     OW43665   5.037   7.554   2.107
31609SOL    HW143666   5.044   7.463   2.149
31609SOL    HW243667   5.102   7.616   2.151
31610SOL     OW43668   9.459   5.212   6.018
31610SOL    HW143669   9.495   5.250   5.932
31610SOL    HW243670   9.524   5.147   6.056
31611SOL     OW43671  13.364  15.607   7.945
31611SOL    HW143672  13.377  15.619   8.043
31611SOL    HW243673  13.444  15.644   7.896
31612SOL     OW43674   2.518  16.231   0.385
31612SOL    HW143675   2.557  16.146   0.421
31612SOL    HW243676   2.585  16.276   0.326
31613SOL     OW43677  14.199   5.137   8.273
31613SOL    HW143678  14.121   5.197   8.259
31613SOL    HW243679  14.271   5.159   8.208
31614SOL     OW43680  13.716  14.886   7.711
31614SOL    HW143681  13.734  14.974   7.754
31614SOL    HW243682  13.624  14.856   7.736
31615SOL     OW43683   2.896   9.042   2.082
31615SOL    HW143684   2.869   8.951   2.049
31615SOL    HW243685   2.854   9.059   2.171
31616SOL     OW43686   8.418   1.426   6.434
31616SOL    HW143687   8.332   1.472   6.410
31616SOL    HW243688   8.472   1.485   6.493
31617SOL     OW43689   2.082   5.245   6.994
31617SOL    HW143690   2.017   5.313   7.028
31617SOL    HW243691   2.056   5.218   6.902
31618SOL     OW43692  14.762  15.177   8.443
31618SOL    HW143693  14.844  15.120   8.438
31618SOL    HW243694  14.730  15.198   8.350
31619SOL     OW43695  11.529   5.867   8.109
31619SOL    HW143696  11.445   5.822   8.138
31619SOL    HW243697  11.590   5.800   8.068
31620SOL     OW43698  14.645   8.334   6.950
31620SOL    HW143699  14.571   8.273   6.922
31620SOL    HW243700  14.687   8.299   7.033
31621SOL     OW43701  10.335   6.101   1.118
31621SOL    HW143702  10.380   6.015   1.143
31621SOL    HW243703  10.375   6.136   1.034
31622SOL     OW43704   7.421   2.319   0.958
31622SOL    HW143705   7.450   2.224   0.961
31622SOL    HW243706   7.474   2.372   1.024
31623SOL     OW43707  16.892   8.404   8.140
31623SOL    HW143708  16.893   8.463   8.221
31623SOL    HW243709  16.965   8.433   8.077
31624SOL     OW43710  12.943   2.284   7.385
31624SOL    HW143711  12.865   2.252   7.330
31624SOL    HW243712  13.006   2.208   7.400
31625SOL     OW43713  11.176  10.682   8.304
31625SOL    HW143714  11.109  10.700   8.232
31625SOL    HW243715  11.154  10.738   8.384
31626SOL     OW43716  15.898  12.518   0.960
31626SOL    HW143717  15.864  12.423   0.964
31626SOL    HW243718  15.834  12.573   0.907
31627SOL     OW43719  16.276   6.292   6.659
31627SOL    HW143720  16.188   6.338   6.654
31627SOL    HW243721  16.325   6.322   6.741
31628SOL     OW43722   7.352  10.423   2.131
31628SOL    HW143723   7.422  10.374   2.183
31628SOL    HW243724   7.265  10.416   2.179
31629SOL     OW43725   5.929   9.784   0.295
31629SOL    HW143726   5.867   9.829   0.358
31629SOL    HW243727   5.915   9.820   0.203
31630SOL     OW43728   3.089  13.505   2.759
31630SOL    HW143729   3.141  13.421   2.770
31630SOL    HW243730   3.065  13.542   2.849
31631SOL     OW43731  10.785  10.487   6.781
31631SOL    HW143732  10.845  10.408   6.772
31631SOL    HW243733  10.821  10.549   6.851
31632SOL     OW43734   2.870  15.542   2.567
31632SOL    HW143735   2.931  15.620   2.580
31632SOL    HW243736   2.798  15.543   2.637
31633SOL     OW43737   9.319   1.135   7.628
31633SOL    HW143738   9.345   1.043   7.657
31633SOL    HW243739   9.276   1.183   7.705
31634SOL     OW43740   3.205   6.013   0.142
31634SOL    HW143741   3.119   5.974   0.109
31634SOL    HW243742   3.203   6.112   0.131
31635SOL     OW43743   3.663   9.758   0.556
31635SOL    HW143744   3.726   9.807   0.495
31635SOL    HW243745   3.695   9.766   0.651
31636SOL     OW43746   7.548   9.660   6.538
31636SOL    HW143747   7.533   9.735   6.474
31636SOL    HW243748   7.608   9.592   6.496
31637SOL     OW43749  11.339   6.030   0.342
31637SOL    HW143750  11.436   6.004   0.347
31637SOL    HW243751  11.318   6.094   0.416
31638SOL     OW43752  12.058   5.820   6.065
31638SOL    HW143753  12.073   5.722   6.052
31638SOL    HW243754  12.018   5.858   5.982
31639SOL     OW43755  13.219  14.265   8.240
31639SOL    HW143756  13.233  14.218   8.327
31639SOL    HW243757  13.132  14.314   8.242
31640SOL     OW43758   9.387   8.184   1.184
31640SOL    HW143759   9.312   8.119   1.171
31640SOL    HW243760   9.350   8.277   1.189
31641SOL     OW43761   6.451   5.780   7.770
31641SOL    HW143762   6.543   5.778   7.729
31641SOL    HW243763   6.439   5.866   7.819
31642SOL     OW43764   5.917  15.170   0.689
31642SOL    HW143765   5.828  15.152   0.731
31642SOL    HW243766   5.907  15.242   0.621
31643SOL     OW43767  16.823  16.466   0.189
31643SOL    HW143768  16.816  16.383   0.244
31643SOL    HW243769  16.888  16.529   0.232
31644SOL     OW43770  16.343   4.330   1.374
31644SOL    HW143771  16.261   4.365   1.419
31644SOL    HW243772  16.382   4.256   1.428
31645SOL     OW43773  15.593   1.806   0.847
31645SOL    HW143774  15.655   1.741   0.892
31645SOL    HW243775  15.595   1.893   0.895
31646SOL     OW43776  10.020  14.440   1.523
31646SOL    HW143777   9.963  14.359   1.538
31646SOL    HW243778  10.110  14.412   1.490
31647SOL     OW43779   6.495  14.121   8.439
31647SOL    HW143780   6.550  14.152   0.062
31647SOL    HW243781   6.446  14.037   0.010
31648SOL     OW43782  11.301  15.129   6.235
31648SOL    HW143783  11.352  15.189   6.173
31648SOL    HW243784  11.261  15.054   6.183
31649SOL     OW43785   2.577   4.247   1.686
31649SOL    HW143786   2.486   4.285   1.705
31649SOL    HW243787   2.626   4.308   1.623
31650SOL     OW43788  16.340  12.772   1.424
31650SOL    HW143789  16.418  12.833   1.418
31650SOL    HW243790  16.257  12.825   1.439
31651SOL     OW43791  16.296   9.951   1.232
31651SOL    HW143792  16.350   9.926   1.313
31651SOL    HW243793  16.260   9.869   1.188
31652SOL     OW43794  13.187   5.630   7.004
31652SOL    HW143795  13.201   5.649   7.101
31652SOL    HW243796  13.269   5.655   6.952
31653SOL     OW43797   1.894   6.703   7.091
31653SOL    HW143798   1.840   6.621   7.110
31653SOL    HW243799   1.858   6.748   7.008
31654SOL     OW43800   1.131   3.025   6.948
31654SOL    HW143801   1.098   3.119   6.941
31654SOL    HW243802   1.219   3.018   6.901
31655SOL     OW43803   8.312   1.002   1.421
31655SOL    HW143804   8.271   1.019   1.510
31655SOL    HW243805   8.291   1.077   1.359
31656SOL     OW43806  12.229  10.576   7.622
31656SOL    HW143807  12.300  10.644   7.604
31656SOL    HW243808  12.147  10.599   7.569
31657SOL     OW43809   2.012  13.866   6.809
31657SOL    HW143810   1.963  13.782   6.784
31657SOL    HW243811   2.109  13.855   6.790
31658SOL     OW43812   8.370  13.002   8.362
31658SOL    HW143813   8.420  12.919   8.387
31658SOL    HW243814   8.416  13.046   8.285
31659SOL     OW43815   2.018  16.078   6.604
31659SOL    HW143816   1.996  15.982   6.621
31659SOL    HW243817   2.117  16.087   6.590
31660SOL     OW43818   1.990  13.356   0.260
31660SOL    HW143819   2.081  13.344   0.220
31660SOL    HW243820   1.956  13.268   0.293
31661SOL     OW43821   5.001   1.035   0.202
31661SOL    HW143822   5.018   1.117   0.148
31661SOL    HW243823   4.905   1.010   0.197
31662SOL     OW43824   8.420  13.894   6.670
31662SOL    HW143825   8.346  13.958   6.647
31662SOL    HW243826   8.497  13.909   6.609
31663SOL     OW43827   4.619   5.602   8.299
31663SOL    HW143828   4.556   5.571   8.369
31663SOL    HW243829   4.648   5.696   8.319
31664SOL     OW43830  16.646   6.282   8.311
31664SOL    HW143831  16.560   6.332   8.310
31664SOL    HW243832  16.629   6.188   8.343
31665SOL     OW43833   2.429   4.373   8.339
31665SOL    HW143834   2.422   4.410   8.247
31665SOL    HW243835   2.470   4.441   8.400
31666SOL     OW43836  13.023   7.328   0.123
31666SOL    HW143837  13.119   7.356   0.114
31666SOL    HW243838  13.013   7.232   0.096
31667SOL     OW43839   4.453  14.666   1.484
31667SOL    HW143840   4.488  14.622   1.567
31667SOL    HW243841   4.424  14.759   1.505
31668SOL     OW43842   2.039   9.680   2.390
31668SOL    HW143843   2.048   9.778   2.407
31668SOL    HW243844   1.981   9.639   2.460
31669SOL     OW43845   0.203   9.513   0.409
31669SOL    HW143846   0.187   9.578   0.483
31669SOL    HW243847   0.266   9.552   0.342
31670SOL     OW43848   0.891  16.957   7.255
31670SOL    HW143849   0.828  16.904   7.311
31670SOL    HW243850   0.850   0.062   7.233
31671SOL     OW43851   9.705  14.718   0.572
31671SOL    HW143852   9.666  14.628   0.595
31671SOL    HW243853   9.669  14.747   0.483
31672SOL     OW43854   7.781  12.104   1.912
31672SOL    HW143855   7.831  12.154   1.841
31672SOL    HW243856   7.840  12.095   1.993
31673SOL     OW43857   5.360  16.100   7.043
31673SOL    HW143858   5.400  16.181   6.998
31673SOL    HW243859   5.429  16.028   7.048
31674SOL     OW43860  15.283   5.823   8.160
31674SOL    HW143861  15.369   5.848   8.115
31674SOL    HW243862  15.226   5.771   8.096
31675SOL     OW43863   4.099  10.968   7.219
31675SOL    HW143864   4.077  11.057   7.257
31675SOL    HW243865   4.089  10.898   7.290
31676SOL     OW43866  11.984   7.013   7.216
31676SOL    HW143867  12.055   6.996   7.284
31676SOL    HW243868  11.942   6.926   7.189
31677SOL     OW43869  11.331  16.749   7.068
31677SOL    HW143870  11.355  16.793   7.155
31677SOL    HW243871  11.375  16.659   7.064
31678SOL     OW43872   3.846   2.757   0.138
31678SOL    HW143873   3.766   2.698   0.147
31678SOL    HW243874   3.909   2.718   0.071
31679SOL     OW43875   6.438   2.142   1.378
31679SOL    HW143876   6.459   2.239   1.391
31679SOL    HW243877   6.358   2.118   1.433
31680SOL     OW43878   5.662  16.907   2.119
31680SOL    HW143879   5.758  16.934   2.131
31680SOL    HW243880   5.603  16.971   2.168
31681SOL     OW43881   5.124  14.871   1.144
31681SOL    HW143882   5.054  14.802   1.129
31681SOL    HW243883   5.154  14.909   1.056
31682SOL     OW43884   0.528   4.858   0.508
31682SOL    HW143885   0.454   4.836   0.572
31682SOL    HW243886   0.568   4.946   0.533
31683SOL     OW43887   6.144  10.704   0.933
31683SOL    HW143888   6.196  10.770   0.988
31683SOL    HW243889   6.046  10.719   0.948
31684SOL     OW43890  11.697   8.988   7.300
31684SOL    HW143891  11.628   9.050   7.337
31684SOL    HW243892  11.651   8.915   7.248
31685SOL     OW43893   6.584   0.617   1.801
31685SOL    HW143894   6.605   0.680   1.876
31685SOL    HW243895   6.669   0.581   1.764
31686SOL     OW43896   7.583  10.637   6.264
31686SOL    HW143897   7.623  10.573   6.330
31686SOL    HW243898   7.650  10.659   6.193
31687SOL     OW43899  13.112   5.248   7.605
31687SOL    HW143900  13.043   5.242   7.533
31687SOL    HW243901  13.189   5.304   7.573
31688SOL     OW43902   2.087   2.700   0.220
31688SOL    HW143903   2.054   2.675   0.310
31688SOL    HW243904   2.119   2.619   0.171
31689SOL     OW43905  15.550  13.661   6.704
31689SOL    HW143906  15.568  13.744   6.652
31689SOL    HW243907  15.458  13.627   6.682
31690SOL     OW43908   9.923   2.825   8.291
31690SOL    HW143909   9.897   2.877   8.372
31690SOL    HW243910   9.844   2.773   8.258
31691SOL     OW43911   6.697   7.649   8.056
31691SOL    HW143912   6.707   7.747   8.072
31691SOL    HW243913   6.753   7.622   7.977
31692SOL     OW43914   5.137  14.501   1.194
31692SOL    HW143915   5.062  14.563   1.171
31692SOL    HW243916   5.104  14.428   1.254
31693SOL     OW43917   5.068  13.287   0.506
31693SOL    HW143918   4.969  13.278   0.519
31693SOL    HW243919   5.093  13.384   0.513
31694SOL     OW43920   3.548   3.607   0.932
31694SOL    HW143921   3.553   3.521   0.983
31694SOL    HW243922   3.454   3.622   0.901
31695SOL     OW43923   3.603  12.465   0.532
31695SOL    HW143924   3.697  12.465   0.566
31695SOL    HW243925   3.547  12.525   0.589
31696SOL     OW43926  16.939   7.416   1.951
31696SOL    HW143927  16.970   7.343   2.013
31696SOL    HW243928  16.854   7.387   1.906
31697SOL     OW43929   2.277  15.371   1.212
31697SOL    HW143930   2.376  15.360   1.223
31697SOL    HW243931   2.234  15.374   1.302
31698SOL     OW43932  11.481  16.886   6.734
31698SOL    HW143933  11.409  16.930   6.787
31698SOL    HW243934  11.549  16.847   6.796
31699SOL     OW43935   0.816   2.148   7.821
31699SOL    HW143936   0.889   2.110   7.765
31699SOL    HW243937   0.799   2.243   7.793
31700SOL     OW43938   6.910   7.158   6.538
31700SOL    HW143939   6.827   7.109   6.510
31700SOL    HW243940   6.968   7.174   6.458
31701SOL     OW43941   5.387   5.498   7.112
31701SOL    HW143942   5.349   5.511   7.020
31701SOL    HW243943   5.343   5.563   7.175
31702SOL     OW43944   8.508  11.454   7.086
31702SOL    HW143945   8.482  11.533   7.031
31702SOL    HW243946   8.538  11.484   7.177
31703SOL     OW43947  15.246   5.989   1.435
31703SOL    HW143948  15.316   6.057   1.455
31703SOL    HW243949  15.207   5.955   1.520
31704SOL     OW43950   2.011  15.243   1.916
31704SOL    HW143951   2.030  15.316   1.981
31704SOL    HW243952   1.940  15.183   1.954
31705SOL     OW43953  14.882   8.873   1.692
31705SOL    HW143954  14.946   8.948   1.708
31705SOL    HW243955  14.798   8.891   1.743
31706SOL     OW43956   2.068  15.445   0.195
31706SOL    HW143957   2.149  15.450   0.136
31706SOL    HW243958   2.097  15.428   0.289
31707SOL     OW43959  13.856  12.972   0.291
31707SOL    HW143960  13.873  12.929   0.380
31707SOL    HW243961  13.812  13.061   0.305
31708SOL     OW43962   3.945   1.360   2.338
31708SOL    HW143963   3.857   1.315   2.355
31708SOL    HW243964   3.930   1.446   2.289
31709SOL     OW43965   4.836   7.687   7.246
31709SOL    HW143966   4.790   7.657   7.163
31709SOL    HW243967   4.930   7.653   7.246
31710SOL     OW43968   5.991  16.282   7.995
31710SOL    HW143969   5.930  16.263   7.918
31710SOL    HW243970   6.012  16.380   7.998
31711SOL     OW43971   6.244  12.387   7.857
31711SOL    HW143972   6.319  12.403   7.793
31711SOL    HW243973   6.265  12.432   7.944
31712SOL     OW43974  12.752  10.706   1.223
31712SOL    HW143975  12.756  10.804   1.238
31712SOL    HW243976  12.843  10.666   1.235
31713SOL     OW43977  14.886   2.686   6.972
31713SOL    HW143978  14.921   2.728   6.888
31713SOL    HW243979  14.961   2.644   7.022
31714SOL     OW43980   7.250   3.638   8.229
31714SOL    HW143981   7.194   3.610   8.308
31714SOL    HW243982   7.198   3.704   8.174
31715SOL     OW43983   8.384   9.682   1.037
31715SOL    HW143984   8.286   9.671   1.024
31715SOL    HW243985   8.402   9.718   1.129
31716SOL     OW43986   6.800   3.293   0.229
31716SOL    HW143987   6.734   3.303   0.154
31716SOL    HW243988   6.892   3.314   0.196
31717SOL     OW43989   4.603   6.720   6.149
31717SOL    HW143990   4.650   6.795   6.102
31717SOL    HW243991   4.506   6.743   6.159
31718SOL     OW43992   1.971   1.405   0.269
31718SOL    HW143993   1.941   1.398   0.174
31718SOL    HW243994   1.923   1.480   0.314
31719SOL     OW43995  15.706  12.354   0.087
31719SOL    HW143996  15.642  12.282   0.058
31719SOL    HW243997  15.762  12.319   0.163
31720SOL     OW43998   3.046   5.803   1.138
31720SOL    HW143999   2.952   5.802   1.172
31720SOL    HW244000   3.051   5.749   1.054
31721SOL     OW44001   8.308   7.645   6.993
31721SOL    HW144002   8.346   7.698   7.069
31721SOL    HW244003   8.242   7.579   7.028
31722SOL     OW44004  16.094   1.423   1.341
31722SOL    HW144005  16.069   1.363   1.266
31722SOL    HW244006  16.058   1.386   1.427
31723SOL     OW44007   7.877   8.294   8.379
31723SOL    HW144008   7.949   8.244   8.426
31723SOL    HW244009   7.810   8.229   8.342
31724SOL     OW44010   3.043   7.301   6.913
31724SOL    HW144011   2.980   7.321   6.838
31724SOL    HW244012   3.023   7.361   6.990
31725SOL     OW44013  16.594   3.279   1.677
31725SOL    HW144014  16.688   3.285   1.712
31725SOL    HW244015  16.535   3.241   1.749
31726SOL     OW44016  11.559  12.464   7.761
31726SOL    HW144017  11.587  12.501   7.849
31726SOL    HW244018  11.628  12.485   7.692
31727SOL     OW44019  11.552   2.828   6.808
31727SOL    HW144020  11.541   2.924   6.832
31727SOL    HW244021  11.463   2.783   6.807
31728SOL     OW44022  16.669   9.247   0.694
31728SOL    HW144023  16.696   9.314   0.764
31728SOL    HW244024  16.595   9.190   0.730
31729SOL     OW44025  16.522   5.679   6.513
31729SOL    HW144026  16.608   5.719   6.544
31729SOL    HW244027  16.506   5.706   6.418
31730SOL     OW44028  14.703  15.696   0.710
31730SOL    HW144029  14.686  15.598   0.708
31730SOL    HW244030  14.714  15.730   0.617
31731SOL     OW44031   1.823   7.504   7.763
31731SOL    HW144032   1.822   7.497   7.863
31731SOL    HW244033   1.730   7.494   7.728
31732SOL     OW44034   7.780   9.983   7.660
31732SOL    HW144035   7.820   9.933   7.584
31732SOL    HW244036   7.704  10.039   7.627
31733SOL     OW44037  14.978   0.179   6.870
31733SOL    HW144038  14.941   0.157   6.780
31733SOL    HW244039  15.077   0.191   6.863
31734SOL     OW44040  13.569   0.660   1.731
31734SOL    HW144041  13.554   0.617   1.819
31734SOL    HW244042  13.483   0.698   1.697
31735SOL     OW44043  10.302   0.809   7.102
31735SOL    HW144044  10.203   0.822   7.100
31735SOL    HW244045  10.337   0.835   7.192
31736SOL     OW44046   1.351   6.351   8.366
31736SOL    HW144047   1.366   6.254   8.385
31736SOL    HW244048   1.254   6.365   8.343
31737SOL     OW44049   6.651  12.425   7.143
31737SOL    HW144050   6.729  12.393   7.198
31737SOL    HW244051   6.614  12.347   7.091
31738SOL     OW44052   9.773   4.682   6.893
31738SOL    HW144053   9.805   4.629   6.815
31738SOL    HW244054   9.680   4.716   6.874
31739SOL     OW44055  14.770  14.285   6.950
31739SOL    HW144056  14.817  14.226   7.016
31739SOL    HW244057  14.831  14.305   6.873
31740SOL     OW44058  16.381  15.304   1.458
31740SOL    HW144059  16.452  15.283   1.390
31740SOL    HW244060  16.401  15.393   1.500
31741SOL     OW44061   6.837   6.644   0.026
31741SOL    HW144062   6.759   6.705   0.041
31741SOL    HW244063   6.895   6.681   8.408
31742SOL     OW44064  12.892  14.924   1.482
31742SOL    HW144065  12.795  14.926   1.509
31742SOL    HW244066  12.899  14.890   1.388
31743SOL     OW44067  12.877   9.311   6.703
31743SOL    HW144068  12.826   9.287   6.619
31743SOL    HW244069  12.911   9.227   6.746
31744SOL     OW44070  13.115   9.014   6.452
31744SOL    HW144071  13.019   8.986   6.446
31744SOL    HW244072  13.138   9.074   6.376
31745SOL     OW44073   8.368  12.025   7.467
31745SOL    HW144074   8.390  11.996   7.559
31745SOL    HW244075   8.403  11.959   7.401
31746SOL     OW44076   5.696  10.089   1.821
31746SOL    HW144077   5.601  10.060   1.840
31746SOL    HW244078   5.759  10.027   1.868
31747SOL     OW44079   0.962   4.374   0.686
31747SOL    HW144080   1.050   4.330   0.705
31747SOL    HW244081   0.952   4.387   0.588
31748SOL     OW44082  13.700   7.125   7.485
31748SOL    HW144083  13.679   7.107   7.581
31748SOL    HW244084  13.777   7.068   7.456
31749SOL     OW44085   9.173   9.733   7.255
31749SOL    HW144086   9.211   9.656   7.204
31749SOL    HW244087   9.087   9.705   7.298
31750SOL     OW44088   7.018  10.098   1.318
31750SOL    HW144089   7.057  10.152   1.394
31750SOL    HW244090   7.093  10.063   1.262
31751SOL     OW44091  15.288   3.900   7.398
31751SOL    HW144092  15.332   3.860   7.318
31751SOL    HW244093  15.290   4.000   7.390
31752SOL     OW44094   4.299   1.535   0.699
31752SOL    HW144095   4.202   1.522   0.676
31752SOL    HW244096   4.321   1.484   0.782
31753SOL     OW44097  12.118   1.858   0.061
31753SOL    HW144098  12.088   1.917   8.440
31753SOL    HW244099  12.042   1.842   0.124
31754SOL     OW44100   4.257   4.482   0.877
31754SOL    HW144101   4.169   4.463   0.920
31754SOL    HW244102   4.266   4.580   0.860
31755SOL     OW44103   9.281   9.633   1.283
31755SOL    HW144104   9.295   9.732   1.293
31755SOL    HW244105   9.242   9.597   1.367
31756SOL     OW44106   9.647   4.822   0.150
31756SOL    HW144107   9.663   4.914   0.185
31756SOL    HW244108   9.596   4.828   0.064
31757SOL     OW44109   0.573   4.949   0.886
31757SOL    HW144110   0.638   5.012   0.928
31757SOL    HW244111   0.606   4.855   0.896
31758SOL     OW44112   4.993   6.804   7.579
31758SOL    HW144113   5.089   6.778   7.567
31758SOL    HW244114   4.951   6.743   7.646
31759SOL     OW44115  12.791   3.340   8.030
31759SOL    HW144116  12.724   3.340   7.955
31759SOL    HW244117  12.883   3.345   7.993
31760SOL     OW44118  15.852   7.191   0.258
31760SOL    HW144119  15.764   7.175   0.303
31760SOL    HW244120  15.846   7.162   0.163
31761SOL     OW44121   5.025   5.345   0.170
31761SOL    HW144122   4.998   5.438   0.143
31761SOL    HW244123   4.955   5.306   0.229
31762SOL     OW44124  12.776   8.439   0.846
31762SOL    HW144125  12.713   8.367   0.817
31762SOL    HW244126  12.723   8.515   0.885
31763SOL     OW44127   3.402  11.074   2.765
31763SOL    HW144128   3.382  11.004   2.834
31763SOL    HW244129   3.406  11.164   2.808
31764SOL     OW44130  14.200   3.921   6.580
31764SOL    HW144131  14.171   3.993   6.517
31764SOL    HW244132  14.206   3.834   6.530
31765SOL     OW44133   8.016  14.970   7.189
31765SOL    HW144134   7.982  15.046   7.132
31765SOL    HW244135   7.993  14.987   7.284
31766SOL     OW44136  14.382   1.045   7.081
31766SOL    HW144137  14.364   1.050   7.179
31766SOL    HW244138  14.477   1.016   7.066
31767SOL     OW44139   9.809   6.868   6.610
31767SOL    HW144140   9.847   6.803   6.545
31767SOL    HW244141   9.861   6.954   6.607
31768SOL     OW44142  13.168  16.975   0.572
31768SOL    HW144143  13.128  16.978   0.480
31768SOL    HW244144  13.112   0.045   0.635
31769SOL     OW44145   9.002   7.506   6.860
31769SOL    HW144146   8.957   7.530   6.774
31769SOL    HW244147   8.975   7.414   6.887
31770SOL     OW44148   0.769   9.540   0.290
31770SOL    HW144149   0.761   9.502   0.383
31770SOL    HW244150   0.865   9.545   0.264
31771SOL     OW44151  11.847   2.085   6.602
31771SOL    HW144152  11.891   2.167   6.640
31771SOL    HW244153  11.785   2.112   6.528
31772SOL     OW44154   0.245   1.550   7.010
31772SOL    HW144155   0.163   1.493   7.009
31772SOL    HW244156   0.222   1.642   6.978
31773SOL     OW44157  11.099  13.692   1.149
31773SOL    HW144158  11.050  13.723   1.068
31773SOL    HW244159  11.073  13.597   1.170
31774SOL     OW44160  10.442   0.449   8.337
31774SOL    HW144161  10.542   0.444   8.344
31774SOL    HW244162  10.415   0.544   8.324
31775SOL     OW44163   3.677  11.419   0.962
31775SOL    HW144164   3.618  11.455   0.889
31775SOL    HW244165   3.772  11.423   0.931
31776SOL     OW44166   8.742  14.204   2.134
31776SOL    HW144167   8.832  14.179   2.171
31776SOL    HW244168   8.675  14.206   2.207
31777SOL     OW44169   2.573  15.743   0.772
31777SOL    HW144170   2.557  15.842   0.762
31777SOL    HW244171   2.521  15.709   0.850
31778SOL     OW44172   5.573  14.050   0.745
31778SOL    HW144173   5.637  14.124   0.724
31778SOL    HW244174   5.604  14.001   0.826
31779SOL     OW44175  15.029   2.379   0.318
31779SOL    HW144176  15.022   2.279   0.313
31779SOL    HW244177  15.121   2.405   0.346
31780SOL     OW44178  15.324   3.428   6.408
31780SOL    HW144179  15.277   3.366   6.345
31780SOL    HW244180  15.269   3.511   6.420
31781SOL     OW44181   3.291   1.892   7.904
31781SOL    HW144182   3.318   1.985   7.926
31781SOL    HW244183   3.315   1.831   7.980
31782SOL     OW44184  15.283  14.997   8.195
31782SOL    HW144185  15.374  14.977   8.158
31782SOL    HW244186  15.264  15.094   8.185
31783SOL     OW44187   1.579   1.140   1.547
31783SOL    HW144188   1.655   1.170   1.605
31783SOL    HW244189   1.563   1.207   1.475
31784SOL     OW44190   5.127   7.070   8.249
31784SOL    HW144191   5.122   7.089   8.347
31784SOL    HW244192   5.109   7.154   8.198
31785SOL     OW44193   1.936  16.219   0.560
31785SOL    HW144194   2.005  16.266   0.615
31785SOL    HW244195   1.974  16.198   0.470
31786SOL     OW44196   9.644   3.123   6.907
31786SOL    HW144197   9.682   3.191   6.844
31786SOL    HW244198   9.569   3.164   6.958
31787SOL     OW44199  10.526   1.113   1.275
31787SOL    HW144200  10.537   1.088   1.371
31787SOL    HW244201  10.475   1.199   1.269
31788SOL     OW44202  10.810   8.722   1.611
31788SOL    HW144203  10.758   8.702   1.695
31788SOL    HW244204  10.908   8.709   1.628
31789SOL     OW44205  12.715  16.938   1.351
31789SOL    HW144206  12.639  16.903   1.296
31789SOL    HW244207  12.696   0.049   1.378
31790SOL     OW44208   2.894   5.522   7.626
31790SOL    HW144209   2.867   5.596   7.564
31790SOL    HW244210   2.993   5.526   7.642
31791SOL     OW44211   5.419  12.427   7.269
31791SOL    HW144212   5.391  12.335   7.297
31791SOL    HW244213   5.466  12.422   7.180
31792SOL     OW44214   4.265   1.093   1.625
31792SOL    HW144215   4.198   1.159   1.659
31792SOL    HW244216   4.232   1.054   1.539
31793SOL     OW44217   7.032   3.513   7.343
31793SOL    HW144218   7.097   3.478   7.275
31793SOL    HW244219   6.982   3.437   7.384
31794SOL     OW44220   3.872   5.758   7.933
31794SOL    HW144221   3.968   5.782   7.923
31794SOL    HW244222   3.817   5.819   7.876
31795SOL     OW44223   0.450   1.220   6.781
31795SOL    HW144224   0.461   1.299   6.841
31795SOL    HW244225   0.461   1.249   6.686
31796SOL     OW44226  11.162   4.351   1.401
31796SOL    HW144227  11.143   4.431   1.344
31796SOL    HW244228  11.111   4.358   1.487
31797SOL     OW44229   9.902   8.986   2.015
31797SOL    HW144230   9.915   9.070   2.067
31797SOL    HW244231   9.893   8.909   2.077
31798SOL     OW44232   1.773  14.054   1.725
31798SOL    HW144233   1.813  14.025   1.638
31798SOL    HW244234   1.812  14.001   1.800
31799SOL     OW44235  13.274   4.358   7.161
31799SOL    HW144236  13.318   4.311   7.084
31799SOL    HW244237  13.242   4.290   7.227
31800SOL     OW44238   9.011   5.301   6.123
31800SOL    HW144239   9.037   5.355   6.043
31800SOL    HW244240   8.916   5.272   6.114
31801SOL     OW44241  11.786   2.138   8.010
31801SOL    HW144242  11.748   2.047   7.995
31801SOL    HW244243  11.751   2.201   7.940
31802SOL     OW44244  10.797   0.394   7.522
31802SOL    HW144245  10.813   0.485   7.560
31802SOL    HW244246  10.702   0.367   7.540
31803SOL     OW44247  13.828   6.165   5.990
31803SOL    HW144248  13.776   6.096   5.940
31803SOL    HW244249  13.899   6.202   5.931
31804SOL     OW44250   5.711   9.601   1.308
31804SOL    HW144251   5.782   9.669   1.286
31804SOL    HW244252   5.629   9.621   1.254
31805SOL     OW44253   6.790   1.230   1.906
31805SOL    HW144254   6.867   1.293   1.900
31805SOL    HW244255   6.710   1.279   1.941
31806SOL     OW44256  12.115   9.321   7.009
31806SOL    HW144257  12.127   9.306   6.911
31806SOL    HW244258  12.175   9.259   7.060
31807SOL     OW44259  13.437  16.126   6.877
31807SOL    HW144260  13.452  16.179   6.960
31807SOL    HW244261  13.484  16.038   6.885
31808SOL     OW44262   8.106   8.269   7.409
31808SOL    HW144263   8.066   8.232   7.493
31808SOL    HW244264   8.104   8.199   7.337
31809SOL     OW44265   0.369  13.569   7.353
31809SOL    HW144266   0.459  13.609   7.334
31809SOL    HW244267   0.363  13.480   7.309
31810SOL     OW44268  16.644   2.425   0.766
31810SOL    HW144269  16.549   2.400   0.784
31810SOL    HW244270  16.659   2.431   0.668
31811SOL     OW44271  13.178   3.186   7.453
31811SOL    HW144272  13.179   3.272   7.401
31811SOL    HW244273  13.233   3.118   7.405
31812SOL     OW44274   6.961  16.536   8.307
31812SOL    HW144275   6.863  16.517   8.308
31812SOL    HW244276   7.005  16.489   8.383
31813SOL     OW44277  11.299  15.084   7.648
31813SOL    HW144278  11.221  15.126   7.602
31813SOL    HW244279  11.287  15.090   7.747
31814SOL     OW44280   2.727   4.608   1.055
31814SOL    HW144281   2.791   4.575   0.986
31814SOL    HW244282   2.713   4.538   1.125
31815SOL     OW44283  15.338  12.246   0.479
31815SOL    HW144284  15.368  12.334   0.517
31815SOL    HW244285  15.248  12.223   0.514
31816SOL     OW44286   0.431   5.005   6.165
31816SOL    HW144287   0.356   4.945   6.191
31816SOL    HW244288   0.418   5.095   6.208
31817SOL     OW44289  12.891   2.067   0.054
31817SOL    HW144290  12.842   2.093   8.425
31817SOL    HW244291  12.976   2.020   0.030
31818SOL     OW44292   3.702  11.833   0.272
31818SOL    HW144293   3.780  11.799   0.324
31818SOL    HW244294   3.621  11.833   0.330
31819SOL     OW44295  11.173   1.058   0.058
31819SOL    HW144296  11.126   0.970   0.064
31819SOL    HW244297  11.241   1.065   0.131
31820SOL     OW44298   9.040   9.359   6.923
31820SOL    HW144299   9.129   9.385   6.885
31820SOL    HW244300   9.053   9.318   7.013
31821SOL     OW44301  14.688   8.564   1.052
31821SOL    HW144302  14.709   8.639   1.115
31821SOL    HW244303  14.609   8.513   1.088
31822SOL     OW44304   9.661   8.093   0.537
31822SOL    HW144305   9.567   8.117   0.516
31822SOL    HW244306   9.723   8.156   0.489
31823SOL     OW44307  11.834   0.053   1.444
31823SOL    HW144308  11.860  16.973   1.372
31823SOL    HW244309  11.738   0.079   1.433
31824SOL     OW44310   2.951  12.345   1.402
31824SOL    HW144311   2.917  12.430   1.362
31824SOL    HW244312   2.915  12.335   1.495
31825SOL     OW44313   1.566   6.200   6.038
31825SOL    HW144314   1.522   6.265   5.976
31825SOL    HW244315   1.630   6.144   5.986
31826SOL     OW44316  16.555  12.899   6.337
31826SOL    HW144317  16.525  12.992   6.361
31826SOL    HW244318  16.633  12.874   6.394
31827SOL     OW44319   3.243  14.448   6.905
31827SOL    HW144320   3.251  14.495   6.817
31827SOL    HW244321   3.151  14.409   6.914
31828SOL     OW44322   6.032   6.128   7.611
31828SOL    HW144323   6.014   6.084   7.699
31828SOL    HW244324   6.118   6.093   7.573
31829SOL     OW44325   3.553   5.654   7.703
31829SOL    HW144326   3.646   5.619   7.704
31829SOL    HW244327   3.491   5.588   7.747
31830SOL     OW44328   8.572  14.304   7.986
31830SOL    HW144329   8.666  14.308   7.953
31830SOL    HW244330   8.511  14.346   7.919
31831SOL     OW44331  13.480   9.461   1.922
31831SOL    HW144332  13.422   9.398   1.975
31831SOL    HW244333  13.429   9.495   1.843
31832SOL     OW44334   9.809  10.064   7.896
31832SOL    HW144335   9.868   9.993   7.857
31832SOL    HW244336   9.804  10.052   7.995
31833SOL     OW44337   2.287   4.869   6.860
31833SOL    HW144338   2.298   4.954   6.810
31833SOL    HW244339   2.194   4.833   6.845
31834SOL     OW44340   0.028  11.922   7.886
31834SOL    HW144341  16.941  11.992   7.874
31834SOL    HW244342   0.118  11.964   7.876
31835SOL     OW44343  15.194  14.901   0.947
31835SOL    HW144344  15.222  14.952   1.029
31835SOL    HW244345  15.115  14.946   0.906
31836SOL     OW44346   8.460   4.231   2.020
31836SOL    HW144347   8.389   4.297   1.997
31836SOL    HW244348   8.535   4.279   2.066
31837SOL     OW44349  12.450  14.868   1.375
31837SOL    HW144350  12.512  14.892   1.450
31837SOL    HW244351  12.415  14.775   1.390
31838SOL     OW44352  12.630  10.078   7.213
31838SOL    HW144353  12.724  10.081   7.179
31838SOL    HW244354  12.603  10.169   7.243
31839SOL     OW44355   0.173   4.311   1.851
31839SOL    HW144356   0.264   4.271   1.842
31839SOL    HW244357   0.119   4.257   1.916
31840SOL     OW44358  10.120   6.359   0.506
31840SOL    HW144359  10.062   6.350   0.588
31840SOL    HW244360  10.168   6.447   0.509
31841SOL     OW44361   8.640   0.670   8.029
31841SOL    HW144362   8.725   0.640   7.987
31841SOL    HW244363   8.625   0.620   8.114
31842SOL     OW44364   9.176  15.038   6.991
31842SOL    HW144365   9.089  15.045   7.038
31842SOL    HW244366   9.189  14.944   6.959
31843SOL     OW44367   0.708  15.979   6.531
31843SOL    HW144368   0.657  15.971   6.445
31843SOL    HW244369   0.795  16.025   6.514
31844SOL     OW44370   7.861  14.011   6.899
31844SOL    HW144371   7.898  14.000   6.991
31844SOL    HW244372   7.838  14.107   6.884
31845SOL     OW44373  12.419   8.762   6.817
31845SOL    HW144374  12.386   8.684   6.871
31845SOL    HW244375  12.406   8.847   6.868
31846SOL     OW44376   4.372  12.045   8.280
31846SOL    HW144377   4.462  12.030   8.240
31846SOL    HW244378   4.357  11.980   8.355
31847SOL     OW44379  13.891  10.157   2.346
31847SOL    HW144380  13.812  10.110   2.304
31847SOL    HW244381  13.860  10.212   2.423
31848SOL     OW44382  14.753   0.588   8.306
31848SOL    HW144383  14.703   0.579   8.392
31848SOL    HW244384  14.689   0.599   8.231
31849SOL     OW44385   3.739   8.540   6.564
31849SOL    HW144386   3.813   8.483   6.528
31849SOL    HW244387   3.777   8.624   6.602
31850SOL     OW44388   2.380  10.666   1.204
31850SOL    HW144389   2.405  10.708   1.291
31850SOL    HW244390   2.407  10.569   1.204
31851SOL     OW44391   3.683  15.924   7.831
31851SOL    HW144392   3.744  15.929   7.910
31851SOL    HW244393   3.728  15.874   7.757
31852SOL     OW44394   2.153   5.795   7.523
31852SOL    HW144395   2.168   5.873   7.463
31852SOL    HW244396   2.077   5.740   7.489
31853SOL     OW44397  15.410   2.822   6.660
31853SOL    HW144398  15.491   2.774   6.625
31853SOL    HW244399  15.386   2.896   6.598
31854SOL     OW44400  16.592  11.552   7.548
31854SOL    HW144401  16.592  11.462   7.590
31854SOL    HW244402  16.656  11.553   7.471
31855SOL     OW44403   6.392   8.603   1.251
31855SOL    HW144404   6.375   8.693   1.212
31855SOL    HW244405   6.459   8.554   1.195
31856SOL     OW44406   1.367  15.790   8.312
31856SOL    HW144407   1.462  15.800   8.280
31856SOL    HW244408   1.367  15.765   8.409
31857SOL     OW44409   8.801  16.087   8.370
31857SOL    HW144410   8.706  16.065   8.391
31857SOL    HW244411   8.816  16.081   8.271
31858SOL     OW44412  10.611  11.882   6.861
31858SOL    HW144413  10.571  11.830   6.937
31858SOL    HW244414  10.538  11.924   6.807
31859SOL     OW44415  15.985   8.647   0.640
31859SOL    HW144416  15.930   8.640   0.557
31859SOL    HW244417  15.951   8.582   0.708
31860SOL     OW44418  10.018   5.758   8.083
31860SOL    HW144419  10.041   5.722   7.993
31860SOL    HW244420   9.937   5.711   8.118
31861SOL     OW44421  13.209   7.790   8.235
31861SOL    HW144422  13.147   7.783   8.157
31861SOL    HW244423  13.290   7.843   8.209
31862SOL     OW44424   8.272  12.440   0.455
31862SOL    HW144425   8.187  12.492   0.461
31862SOL    HW244426   8.300  12.434   0.359
31863SOL     OW44427  11.025   9.724   0.693
31863SOL    HW144428  10.953   9.726   0.624
31863SOL    HW244429  11.039   9.630   0.724
31864SOL     OW44430  14.999  16.746   0.403
31864SOL    HW144431  14.939  16.738   0.482
31864SOL    HW244432  14.960  16.811   0.338
31865SOL     OW44433   9.558  11.996   7.433
31865SOL    HW144434   9.465  12.030   7.422
31865SOL    HW244435   9.566  11.947   7.519
31866SOL     OW44436  13.949   5.034   5.300
31866SOL    HW144437  13.914   4.968   5.232
31866SOL    HW244438  14.036   5.001   5.337
31867SOL     OW44439   9.245  11.438   1.337
31867SOL    HW144440   9.148  11.421   1.355
31867SOL    HW244441   9.269  11.529   1.371
31868SOL     OW44442   1.990  14.510   0.253
31868SOL    HW144443   2.019  14.523   0.348
31868SOL    HW244444   1.891  14.499   0.249
31869SOL     OW44445  16.852  11.082   7.888
31869SOL    HW144446  16.920  11.155   7.882
31869SOL    HW244447  16.760  11.122   7.895
31870SOL     OW44448   7.915  12.236   1.707
31870SOL    HW144449   8.002  12.213   1.664
31870SOL    HW244450   7.893  12.331   1.688
31871SOL     OW44451  12.168  14.219   7.217
31871SOL    HW144452  12.130  14.152   7.281
31871SOL    HW244453  12.267  14.207   7.211
31872SOL     OW44454   1.220   7.364   8.102
31872SOL    HW144455   1.299   7.316   8.139
31872SOL    HW244456   1.148   7.298   8.080
31873SOL     OW44457  13.516  12.465   1.163
31873SOL    HW144458  13.455  12.534   1.124
31873SOL    HW244459  13.585  12.510   1.221
31874SOL     OW44460   1.223   7.895   7.668
31874SOL    HW144461   1.268   7.984   7.678
31874SOL    HW244462   1.279   7.824   7.711
31875SOL     OW44463  13.786  13.027   7.031
31875SOL    HW144464  13.823  13.090   7.099
31875SOL    HW244465  13.686  13.038   7.025
31876SOL     OW44466   0.067  14.023   0.148
31876SOL    HW144467   0.111  14.029   0.237
31876SOL    HW244468   0.090  13.935   0.106
31877SOL     OW44469   2.973  12.628   8.258
31877SOL    HW144470   2.893  12.682   8.231
31877SOL    HW244471   2.946  12.532   8.267
31878SOL     OW44472  10.512   3.641   7.816
31878SOL    HW144473  10.420   3.621   7.781
31878SOL    HW244474  10.512   3.731   7.860
31879SOL     OW44475   5.872  14.602   1.337
31879SOL    HW144476   5.956  14.561   1.371
31879SOL    HW244477   5.877  14.701   1.347
31880SOL     OW44478   7.059   4.736   0.606
31880SOL    HW144479   7.113   4.788   0.540
31880SOL    HW244480   7.113   4.658   0.639
31881SOL     OW44481   6.850  12.593   0.122
31881SOL    HW144482   6.821  12.679   0.081
31881SOL    HW244483   6.782  12.564   0.190
31882SOL     OW44484   9.153   4.215   0.005
31882SOL    HW144485   9.131   4.242   0.098
31882SOL    HW244486   9.111   4.126   8.439
31883SOL     OW44487  16.477   2.184   0.407
31883SOL    HW144488  16.540   2.138   0.469
31883SOL    HW244489  16.391   2.134   0.402
31884SOL     OW44490  11.678   7.882   7.864
31884SOL    HW144491  11.636   7.878   7.773
31884SOL    HW244492  11.776   7.902   7.855
31885SOL     OW44493   9.247  16.573   2.271
31885SOL    HW144494   9.282  16.665   2.288
31885SOL    HW244495   9.322  16.513   2.244
31886SOL     OW44496   1.049   9.933   2.333
31886SOL    HW144497   0.990   9.866   2.377
31886SOL    HW244498   1.089   9.993   2.402
31887SOL     OW44499   9.843   9.970   7.142
31887SOL    HW144500   9.934   9.995   7.175
31887SOL    HW244501   9.835   9.870   7.138
31888SOL     OW44502  16.138  11.111   0.832
31888SOL    HW144503  16.104  11.116   0.926
31888SOL    HW244504  16.082  11.046   0.780
31889SOL     OW44505  13.355  14.610   7.114
31889SOL    HW144506  13.345  14.616   7.213
31889SOL    HW244507  13.264  14.613   7.072
31890SOL     OW44508  16.392   5.552   7.629
31890SOL    HW144509  16.431   5.607   7.555
31890SOL    HW244510  16.465   5.521   7.689
31891SOL     OW44511   3.021   3.311   1.455
31891SOL    HW144512   3.067   3.398   1.435
31891SOL    HW244513   2.922   3.326   1.462
31892SOL     OW44514   1.742   5.156   0.188
31892SOL    HW144515   1.647   5.160   0.217
31892SOL    HW244516   1.759   5.071   0.138
31893SOL     OW44517   7.061   7.985   0.789
31893SOL    HW144518   7.013   8.065   0.824
31893SOL    HW244519   7.037   7.971   0.693
31894SOL     OW44520   0.740  15.180   1.133
31894SOL    HW144521   0.782  15.133   1.211
31894SOL    HW244522   0.739  15.119   1.054
31895SOL     OW44523   3.811  16.635   0.675
31895SOL    HW144524   3.804  16.694   0.594
31895SOL    HW244525   3.783  16.686   0.756
31896SOL     OW44526  13.598  12.494   0.420
31896SOL    HW144527  13.567  12.589   0.418
31896SOL    HW244528  13.599  12.461   0.514
31897SOL     OW44529  10.072   2.842   7.574
31897SOL    HW144530  10.046   2.750   7.603
31897SOL    HW244531  10.126   2.837   7.489
31898SOL     OW44532   5.189   3.935   7.325
31898SOL    HW144533   5.232   3.908   7.239
31898SOL    HW244534   5.096   3.967   7.306
31899SOL     OW44535  13.373  16.353   0.366
31899SOL    HW144536  13.327  16.429   0.320
31899SOL    HW244537  13.428  16.302   0.301
31900SOL     OW44538   8.937  13.395   0.010
31900SOL    HW144539   9.019  13.450   0.025
31900SOL    HW244540   8.938  13.356   8.372
31901SOL     OW44541  12.816   3.012   7.218
31901SOL    HW144542  12.743   3.080   7.213
31901SOL    HW244543  12.799   2.940   7.150
31902SOL     OW44544  13.180  11.205   1.843
31902SOL    HW144545  13.223  11.265   1.910
31902SOL    HW244546  13.109  11.151   1.887
31903SOL     OW44547  16.047  13.054   6.940
31903SOL    HW144548  16.078  12.960   6.953
31903SOL    HW244549  15.979  13.056   6.867
31904SOL     OW44550   1.755   2.456   0.943
31904SOL    HW144551   1.710   2.368   0.959
31904SOL    HW244552   1.710   2.503   0.867
31905SOL     OW44553   8.446   3.319   0.809
31905SOL    HW144554   8.418   3.292   0.717
31905SOL    HW244555   8.431   3.242   0.871
31906SOL     OW44556   9.862  16.843   7.254
31906SOL    HW144557   9.805  16.846   7.173
31906SOL    HW244558   9.840  16.920   7.314
31907SOL     OW44559   7.574  14.554   6.844
31907SOL    HW144560   7.545  14.648   6.857
31907SOL    HW244561   7.654  14.551   6.784
31908SOL     OW44562   2.297  14.496   0.358
31908SOL    HW144563   2.278  14.399   0.346
31908SOL    HW244564   2.234  14.535   0.425
31909SOL     OW44565  14.767   9.125   0.609
31909SOL    HW144566  14.751   9.210   0.557
31909SOL    HW244567  14.865   9.115   0.627
31910SOL     OW44568  11.185  16.574   6.136
31910SOL    HW144569  11.213  16.668   6.114
31910SOL    HW244570  11.109  16.547   6.076
31911SOL     OW44571  16.185   0.425   8.314
31911SOL    HW144572  16.171   0.342   8.260
31911SOL    HW244573  16.221   0.400   8.404
31912SOL     OW44574   8.039   3.909   7.344
31912SOL    HW144575   7.994   3.892   7.256
31912SOL    HW244576   7.984   3.972   7.398
31913SOL     OW44577  11.263   3.409   0.040
31913SOL    HW144578  11.245   3.399   0.137
31913SOL    HW244579  11.245   3.503   0.012
31914SOL     OW44580  11.824  14.115   1.727
31914SOL    HW144581  11.761  14.057   1.779
31914SOL    HW244582  11.910  14.067   1.712
31915SOL     OW44583   1.113   1.016   7.852
31915SOL    HW144584   1.106   0.917   7.843
31915SOL    HW244585   1.029   1.052   7.891
31916SOL     OW44586  14.201   7.794   1.599
31916SOL    HW144587  14.249   7.802   1.686
31916SOL    HW244588  14.252   7.734   1.538
31917SOL     OW44589   8.553  15.826   8.044
31917SOL    HW144590   8.480  15.764   8.016
31917SOL    HW244591   8.622  15.832   7.972
31918SOL     OW44592   3.362   6.108   1.452
31918SOL    HW144593   3.268   6.137   1.470
31918SOL    HW244594   3.376   6.104   1.353
31919SOL     OW44595   8.584   8.282   6.709
31919SOL    HW144596   8.664   8.337   6.683
31919SOL    HW244597   8.535   8.329   6.782
31920SOL     OW44598  10.624  16.287   1.088
31920SOL    HW144599  10.660  16.377   1.064
31920SOL    HW244600  10.525  16.287   1.076
31921SOL     OW44601   1.990  14.721   8.096
31921SOL    HW144602   1.900  14.758   8.071
31921SOL    HW244603   2.001  14.630   8.056
31922SOL     OW44604  11.467   6.734   7.093
31922SOL    HW144605  11.379   6.715   7.138
31922SOL    HW244606  11.528   6.655   7.103
31923SOL     OW44607  15.130   4.308   7.994
31923SOL    HW144608  15.210   4.249   7.983
31923SOL    HW244609  15.157   4.403   7.981
31924SOL     OW44610  13.654  15.509   7.412
31924SOL    HW144611  13.706  15.550   7.337
31924SOL    HW244612  13.637  15.412   7.392
31925SOL     OW44613  10.760   5.065   1.910
31925SOL    HW144614  10.826   5.136   1.934
31925SOL    HW244615  10.678   5.075   1.967
31926SOL     OW44616   1.822  16.583   0.472
31926SOL    HW144617   1.834  16.680   0.450
31926SOL    HW244618   1.896  16.530   0.432
31927SOL     OW44619  16.041  14.921   0.357
31927SOL    HW144620  16.095  14.941   0.439
31927SOL    HW244621  16.102  14.905   0.280
31928SOL     OW44622  15.919  15.991   0.735
31928SOL    HW144623  16.018  16.000   0.747
31928SOL    HW244624  15.900  15.941   0.650
31929SOL     OW44625   4.844   9.186   6.682
31929SOL    HW144626   4.812   9.237   6.603
31929SOL    HW244627   4.928   9.137   6.659
31930SOL     OW44628   4.792   6.456   7.489
31930SOL    HW144629   4.837   6.524   7.433
31930SOL    HW244630   4.694   6.476   7.494
31931SOL     OW44631  11.452  10.475   0.755
31931SOL    HW144632  11.461  10.549   0.688
31931SOL    HW244633  11.381  10.498   0.821
31932SOL     OW44634   2.582   1.371   7.916
31932SOL    HW144635   2.501   1.357   7.860
31932SOL    HW244636   2.555   1.383   8.012
31933SOL     OW44637  12.561   5.786   7.822
31933SOL    HW144638  12.647   5.760   7.778
31933SOL    HW244639  12.551   5.885   7.819
31934SOL     OW44640  14.039   1.267   1.367
31934SOL    HW144641  14.019   1.288   1.272
31934SOL    HW244642  13.954   1.268   1.420
31935SOL     OW44643   6.031  15.915   6.635
31935SOL    HW144644   6.122  15.889   6.669
31935SOL    HW244645   6.028  15.902   6.536
31936SOL     OW44646  12.046   8.318   8.208
31936SOL    HW144647  12.139   8.336   8.175
31936SOL    HW244648  11.981   8.343   8.137
31937SOL     OW44649   4.366   6.194   7.321
31937SOL    HW144650   4.460   6.175   7.293
31937SOL    HW244651   4.354   6.292   7.337
31938SOL     OW44652  16.599   9.900   8.146
31938SOL    HW144653  16.609   9.805   8.115
31938SOL    HW244654  16.635   9.961   8.076
31939SOL     OW44655  12.353  10.877   1.806
31939SOL    HW144656  12.374  10.817   1.729
31939SOL    HW244657  12.300  10.955   1.772
31940SOL     OW44658   6.954  15.496   0.385
31940SOL    HW144659   6.996  15.499   0.294
31940SOL    HW244660   6.994  15.421   0.438
31941SOL     OW44661   7.183  15.864   1.039
31941SOL    HW144662   7.165  15.826   1.129
31941SOL    HW244663   7.221  15.956   1.049
31942SOL     OW44664   8.772   3.808   6.051
31942SOL    HW144665   8.816   3.830   5.963
31942SOL    HW244666   8.673   3.816   6.041
31943SOL     OW44667   0.877   0.056   6.786
31943SOL    HW144668   0.895  16.978   6.863
31943SOL    HW244669   0.930   0.027   6.707
31944SOL     OW44670   2.159  10.004   7.884
31944SOL    HW144671   2.210  10.022   7.969
31944SOL    HW244672   2.127   9.909   7.884
31945SOL     OW44673   7.915   6.755   7.642
31945SOL    HW144674   7.855   6.835   7.639
31945SOL    HW244675   8.002   6.778   7.598
31946SOL     OW44676   5.628   3.015   7.307
31946SOL    HW144677   5.600   2.926   7.342
31946SOL    HW244678   5.549   3.061   7.266
31947SOL     OW44679  15.951   6.036   0.302
31947SOL    HW144680  15.945   6.011   0.206
31947SOL    HW244681  15.858   6.050   0.339
31948SOL     OW44682  14.581   7.838   8.209
31948SOL    HW144683  14.510   7.908   8.221
31948SOL    HW244684  14.539   7.747   8.213
31949SOL     OW44685  10.630   5.207   6.225
31949SOL    HW144686  10.548   5.179   6.275
31949SOL    HW244687  10.612   5.204   6.127
31950SOL     OW44688   6.709   8.928   0.241
31950SOL    HW144689   6.642   8.885   0.301
31950SOL    HW244690   6.798   8.882   0.253
31951SOL     OW44691  10.336   1.940   7.610
31951SOL    HW144692  10.369   1.846   7.615
31951SOL    HW244693  10.379   1.995   7.681
31952SOL     OW44694  13.062   5.386   7.840
31952SOL    HW144695  12.998   5.325   7.887
31952SOL    HW244696  13.086   5.348   7.751
31953SOL     OW44697   5.189   1.829   0.726
31953SOL    HW144698   5.213   1.926   0.716
31953SOL    HW244699   5.162   1.792   0.638
31954SOL     OW44700   6.598  14.985   7.246
31954SOL    HW144701   6.546  15.042   7.182
31954SOL    HW244702   6.537  14.955   7.320
31955SOL     OW44703   3.079   3.507   1.155
31955SOL    HW144704   3.108   3.528   1.249
31955SOL    HW244705   3.137   3.435   1.118
31956SOL     OW44706   8.880  12.435   8.364
31956SOL    HW144707   8.915  12.509   8.421
31956SOL    HW244708   8.952  12.366   8.352
31957SOL     OW44709   0.306  16.177   7.413
31957SOL    HW144710   0.310  16.108   7.341
31957SOL    HW244711   0.368  16.252   7.391
31958SOL     OW44712   8.547  10.718   0.875
31958SOL    HW144713   8.469  10.780   0.867
31958SOL    HW244714   8.561  10.694   0.971
31959SOL     OW44715  12.563  14.766   7.231
31959SOL    HW144716  12.617  14.801   7.155
31959SOL    HW244717  12.612  14.690   7.275
31960SOL     OW44718   3.111  13.925   6.581
31960SOL    HW144719   3.168  13.843   6.578
31960SOL    HW244720   3.165  14.004   6.550
31961SOL     OW44721  14.592  10.132   7.321
31961SOL    HW144722  14.663  10.091   7.264
31961SOL    HW244723  14.634  10.190   7.390
31962SOL     OW44724   2.742  16.576   1.119
31962SOL    HW144725   2.765  16.512   1.046
31962SOL    HW244726   2.643  16.588   1.123
31963SOL     OW44727  11.934  15.679   6.630
31963SOL    HW144728  11.878  15.739   6.573
31963SOL    HW244729  11.876  15.614   6.678
31964SOL     OW44730   5.766   0.278   1.000
31964SOL    HW144731   5.735   0.367   1.035
31964SOL    HW244732   5.849   0.251   1.049
31965SOL     OW44733   0.083  15.236   1.491
31965SOL    HW144734   0.115  15.143   1.507
31965SOL    HW244735   0.104  15.292   1.571
31966SOL     OW44736   5.245  12.511   0.316
31966SOL    HW144737   5.275  12.600   0.283
31966SOL    HW244738   5.179  12.472   0.252
31967SOL     OW44739  13.725  13.101   1.555
31967SOL    HW144740  13.630  13.131   1.541
31967SOL    HW244741  13.729  13.001   1.548
31968SOL     OW44742  16.512   1.133   6.994
31968SOL    HW144743  16.478   1.202   6.930
31968SOL    HW244744  16.469   1.146   7.083
31969SOL     OW44745  16.070   1.427   7.375
31969SOL    HW144746  15.999   1.357   7.375
31969SOL    HW244747  16.110   1.433   7.283
31970SOL     OW44748  10.610   1.641   0.597
31970SOL    HW144749  10.542   1.654   0.525
31970SOL    HW244750  10.618   1.544   0.617
31971SOL     OW44751  13.104  15.381   1.606
31971SOL    HW144752  13.115  15.479   1.588
31971SOL    HW244753  13.178  15.331   1.561
31972SOL     OW44754   2.662   6.086   6.026
31972SOL    HW144755   2.600   6.148   5.977
31972SOL    HW244756   2.742   6.136   6.057
31973SOL     OW44757   6.566   7.185   1.366
31973SOL    HW144758   6.579   7.205   1.269
31973SOL    HW244759   6.470   7.199   1.391
31974SOL     OW44760  12.244   7.403   6.521
31974SOL    HW144761  12.163   7.351   6.550
31974SOL    HW244762  12.214   7.488   6.478
31975SOL     OW44763  16.748   7.030   1.176
31975SOL    HW144764  16.797   7.088   1.241
31975SOL    HW244765  16.656   7.066   1.162
31976SOL     OW44766   8.487  15.265   6.940
31976SOL    HW144767   8.582  15.266   6.970
31976SOL    HW244768   8.437  15.340   6.983
31977SOL     OW44769   0.145  14.979   1.518
31977SOL    HW144770   0.159  14.945   1.612
31977SOL    HW244771   0.123  14.902   1.458
31978SOL     OW44772   7.468   2.715   7.160
31978SOL    HW144773   7.479   2.768   7.244
31978SOL    HW244774   7.375   2.726   7.126
31979SOL     OW44775   0.577  13.657   1.261
31979SOL    HW144776   0.556  13.665   1.359
31979SOL    HW244777   0.566  13.746   1.218
31980SOL     OW44778  12.330  16.200   0.974
31980SOL    HW144779  12.245  16.243   0.943
31980SOL    HW244780  12.308  16.114   1.020
31981SOL     OW44781  11.681   2.047   1.241
31981SOL    HW144782  11.598   2.050   1.298
31981SOL    HW244783  11.662   2.092   1.154
31982SOL     OW44784   5.304   0.452   6.639
31982SOL    HW144785   5.305   0.425   6.543
31982SOL    HW244786   5.372   0.523   6.655
31983SOL     OW44787  14.010   9.688   6.595
31983SOL    HW144788  13.967   9.657   6.510
31983SOL    HW244789  13.952   9.663   6.672
31984SOL     OW44790  15.021   5.437   8.280
31984SOL    HW144791  15.078   5.479   8.351
31984SOL    HW244792  14.938   5.400   8.321
31985SOL     OW44793  11.991  12.735   7.289
31985SOL    HW144794  11.919  12.788   7.334
31985SOL    HW244795  12.080  12.761   7.327
31986SOL     OW44796   4.892  16.619   6.391
31986SOL    HW144797   4.941  16.588   6.309
31986SOL    HW244798   4.861  16.713   6.378
31987SOL     OW44799   8.829   0.547   6.972
31987SOL    HW144800   8.797   0.514   7.061
31987SOL    HW244801   8.922   0.583   6.981
31988SOL     OW44802  12.365   6.596   0.956
31988SOL    HW144803  12.266   6.599   0.971
31988SOL    HW244804  12.385   6.536   0.878
31989SOL     OW44805   8.201  16.413   1.522
31989SOL    HW144806   8.130  16.433   1.589
31989SOL    HW244807   8.288  16.452   1.552
31990SOL     OW44808   7.008   3.050   7.283
31990SOL    HW144809   6.971   2.968   7.327
31990SOL    HW244810   7.106   3.039   7.268
31991SOL     OW44811  13.126   2.098   7.463
31991SOL    HW144812  13.203   2.042   7.432
31991SOL    HW244813  13.130   2.108   7.562
31992SOL     OW44814   5.984   3.572   7.469
31992SOL    HW144815   6.011   3.653   7.417
31992SOL    HW244816   6.046   3.496   7.446
31993SOL     OW44817  16.417  12.493   6.791
31993SOL    HW144818  16.458  12.402   6.790
31993SOL    HW244819  16.474  12.557   6.739
31994SOL     OW44820   0.840  16.541   2.033
31994SOL    HW144821   0.839  16.612   1.964
31994SOL    HW244822   0.877  16.577   2.118
31995SOL     OW44823  13.970   5.042   7.530
31995SOL    HW144824  13.932   5.133   7.546
31995SOL    HW244825  14.015   5.040   7.441
31996SOL     OW44826   8.788   1.150   6.912
31996SOL    HW144827   8.886   1.170   6.912
31996SOL    HW244828   8.736   1.234   6.926
31997SOL     OW44829  15.490  10.957   8.314
31997SOL    HW144830  15.403  10.960   8.361
31997SOL    HW244831  15.499  10.871   8.264
31998SOL     OW44832  13.309  15.785   1.739
31998SOL    HW144833  13.346  15.698   1.770
31998SOL    HW244834  13.262  15.831   1.814
31999SOL     OW44835  10.217  11.425   8.142
31999SOL    HW144836  10.209  11.423   8.042
31999SOL    HW244837  10.312  11.442   8.168
32000SOL     OW44838   3.580   3.547   1.274
32000SOL    HW144839   3.674   3.546   1.308
32000SOL    HW244840   3.573   3.486   1.194
32001SOL     OW44841   5.699   1.491   7.632
32001SOL    HW144842   5.691   1.462   7.537
32001SOL    HW244843   5.793   1.477   7.663
32002SOL     OW44844  13.871   2.039   7.796
32002SOL    HW144845  13.970   2.029   7.788
32002SOL    HW244846  13.826   1.954   7.770
32003SOL     OW44847   3.960  10.518   7.777
32003SOL    HW144848   4.006  10.449   7.721
32003SOL    HW244849   3.943  10.599   7.722
32004SOL     OW44850  16.931   7.239   8.404
32004SOL    HW144851  16.883   7.294   0.018
32004SOL    HW244852  16.904   7.143   8.412
32005SOL     OW44853   4.392   8.176   7.489
32005SOL    HW144854   4.436   8.093   7.525
32005SOL    HW244855   4.351   8.227   7.564
32006SOL     OW44856   5.977   2.964   6.363
32006SOL    HW144857   5.880   2.987   6.374
32006SOL    HW244858   5.988   2.896   6.290
32007SOL     OW44859  16.663  12.918   0.070
32007SOL    HW144860  16.713  12.849   0.123
32007SOL    HW244861  16.607  12.873   0.001
32008SOL     OW44862  12.263  11.649   1.527
32008SOL    HW144863  12.239  11.570   1.469
32008SOL    HW244864  12.351  11.685   1.498
32009SOL     OW44865   5.384   8.978   7.762
32009SOL    HW144866   5.477   8.943   7.748
32009SOL    HW244867   5.332   8.972   7.677
32010SOL     OW44868   3.354   4.119   1.127
32010SOL    HW144869   3.338   4.027   1.093
32010SOL    HW244870   3.273   4.151   1.176
32011SOL     OW44871   7.907   5.351   6.975
32011SOL    HW144872   7.811   5.378   6.973
32011SOL    HW244873   7.914   5.251   6.982
32012SOL     OW44874   8.989  16.342   7.198
32012SOL    HW144875   9.027  16.312   7.286
32012SOL    HW244876   9.063  16.350   7.131
32013SOL     OW44877  10.804  13.104   0.829
32013SOL    HW144878  10.859  13.099   0.745
32013SOL    HW244879  10.859  13.071   0.906
32014SOL     OW44880  10.661   9.043   0.992
32014SOL    HW144881  10.584   9.067   1.051
32014SOL    HW244882  10.637   9.058   0.896
32015SOL     OW44883   7.579  14.648   6.538
32015SOL    HW144884   7.658  14.627   6.596
32015SOL    HW244885   7.567  14.575   6.471
32016SOL     OW44886  12.159   7.785   0.339
32016SOL    HW144887  12.136   7.880   0.359
32016SOL    HW244888  12.077   7.737   0.309
32017SOL     OW44889   3.898   6.464   1.395
32017SOL    HW144890   3.848   6.492   1.477
32017SOL    HW244891   3.996   6.481   1.408
32018SOL     OW44892  14.673   9.390   7.502
32018SOL    HW144893  14.734   9.435   7.436
32018SOL    HW244894  14.649   9.455   7.574
32019SOL     OW44895   5.733   1.087   1.757
32019SOL    HW144896   5.704   1.016   1.820
32019SOL    HW244897   5.814   1.134   1.792
32020SOL     OW44898   7.861   1.951   7.137
32020SOL    HW144899   7.813   1.929   7.222
32020SOL    HW244900   7.888   1.867   7.090
32021SOL     OW44901  12.134   1.514   0.855
32021SOL    HW144902  12.171   1.423   0.872
32021SOL    HW244903  12.198   1.583   0.890
32022SOL     OW44904  12.476  13.940   0.215
32022SOL    HW144905  12.461  14.037   0.194
32022SOL    HW244906  12.518  13.895   0.136
32023SOL     OW44907  13.458   9.502   7.493
32023SOL    HW144908  13.376   9.543   7.452
32023SOL    HW244909  13.508   9.572   7.544
32024SOL     OW44910   7.666  12.318   1.087
32024SOL    HW144911   7.719  12.391   1.131
32024SOL    HW244912   7.580  12.355   1.053
32025SOL     OW44913   9.618   3.501   1.969
32025SOL    HW144914   9.584   3.441   2.042
32025SOL    HW244915   9.697   3.552   2.003
32026SOL     OW44916   3.406   9.213   8.022
32026SOL    HW144917   3.484   9.263   8.061
32026SOL    HW244918   3.321   9.259   8.048
32027SOL     OW44919  13.042  10.857   1.250
32027SOL    HW144920  13.090  10.911   1.181
32027SOL    HW244921  12.952  10.897   1.268
32028SOL     OW44922   3.216   9.548   6.845
32028SOL    HW144923   3.263   9.478   6.791
32028SOL    HW244924   3.118   9.543   6.828
32029SOL     OW44925   5.786  13.034   6.789
32029SOL    HW144926   5.848  12.956   6.776
32029SOL    HW244927   5.693  13.007   6.764
32030SOL     OW44928   5.157   0.899   1.194
32030SOL    HW144929   5.082   0.869   1.135
32030SOL    HW244930   5.150   0.853   1.283
32031SOL     OW44931  12.846  16.509   8.430
32031SOL    HW144932  12.784  16.549   8.363
32031SOL    HW244933  12.940  16.510   8.394
32032SOL     OW44934   5.376   6.966   8.223
32032SOL    HW144935   5.382   6.871   8.253
32032SOL    HW244936   5.284   7.000   8.239
32033SOL     OW44937  10.200  16.020   0.246
32033SOL    HW144938  10.217  15.923   0.261
32033SOL    HW244939  10.179  16.064   0.334
32034SOL     OW44940   0.042  11.622   1.805
32034SOL    HW144941   0.122  11.673   1.773
32034SOL    HW244942  16.948  11.640   1.744
32035SOL     OW44943   3.076   4.740   0.525
32035SOL    HW144944   3.126   4.820   0.557
32035SOL    HW244945   3.036   4.759   0.435
32036SOL     OW44946  11.698   8.313   7.806
32036SOL    HW144947  11.681   8.275   7.715
32036SOL    HW244948  11.662   8.250   7.875
32037SOL     OW44949  12.862  16.208   0.261
32037SOL    HW144950  12.815  16.189   0.347
32037SOL    HW244951  12.868  16.307   0.248
32038SOL     OW44952  14.230   0.002   0.136
32038SOL    HW144953  14.167  16.908   0.135
32038SOL    HW244954  14.311  16.963   0.083
32039SOL     OW44955  14.932   3.580   7.816
32039SOL    HW144956  14.944   3.602   7.719
32039SOL    HW244957  14.843   3.537   7.829
32040SOL     OW44958   3.297  15.078   1.552
32040SOL    HW144959   3.211  15.118   1.520
32040SOL    HW244960   3.359  15.065   1.475
32041SOL     OW44961  14.375   7.749   7.329
32041SOL    HW144962  14.434   7.826   7.354
32041SOL    HW244963  14.425   7.686   7.270
32042SOL     OW44964   9.792  11.457   0.647
32042SOL    HW144965   9.831  11.478   0.558
32042SOL    HW244966   9.859  11.478   0.719
32043SOL     OW44967  16.482   9.916   0.712
32043SOL    HW144968  16.540   9.873   0.643
32043SOL    HW244969  16.535   9.928   0.796
32044SOL     OW44970   7.875   6.161   7.725
32044SOL    HW144971   7.788   6.113   7.710
32044SOL    HW244972   7.948   6.115   7.675
32045SOL     OW44973   3.924   8.439   7.805
32045SOL    HW144974   3.989   8.451   7.730
32045SOL    HW244975   3.972   8.405   7.886
32046SOL     OW44976   5.475  16.738   1.529
32046SOL    HW144977   5.532  16.820   1.536
32046SOL    HW244978   5.501  16.673   1.600
32047SOL     OW44979  16.913  16.427   6.474
32047SOL    HW144980  16.981  16.474   6.531
32047SOL    HW244981  16.887  16.486   6.397
32048SOL     OW44982   2.160  12.083   1.182
32048SOL    HW144983   2.208  12.030   1.112
32048SOL    HW244984   2.222  12.102   1.258
32049SOL     OW44985  14.751   9.014   7.844
32049SOL    HW144986  14.691   8.935   7.835
32049SOL    HW244987  14.833   8.988   7.894
32050SOL     OW44988  11.662  10.784   6.636
32050SOL    HW144989  11.622  10.727   6.565
32050SOL    HW244990  11.749  10.822   6.604
32051SOL     OW44991   0.647  15.247   0.425
32051SOL    HW144992   0.676  15.265   0.519
32051SOL    HW244993   0.604  15.157   0.420
32052SOL     OW44994   8.078   0.835   8.129
32052SOL    HW144995   8.069   0.902   8.055
32052SOL    HW244996   8.144   0.868   8.197
32053SOL     OW44997   3.956   2.184   0.833
32053SOL    HW144998   3.973   2.276   0.868
32053SOL    HW244999   4.028   2.160   0.768
32054SOL     OW45000  15.668  10.426   7.847
32054SOL    HW145001  15.577  10.427   7.805
32054SOL    HW245002  15.736  10.453   7.780
32055SOL     OW45003  13.116   2.888   7.851
32055SOL    HW145004  13.109   2.869   7.753
32055SOL    HW245005  13.183   2.961   7.866
32056SOL     OW45006   7.491   7.402   8.309
32056SOL    HW145007   7.399   7.414   8.273
32056SOL    HW245008   7.528   7.491   8.335
32057SOL     OW45009  10.612   5.606   1.622
32057SOL    HW145010  10.635   5.539   1.693
32057SOL    HW245011  10.554   5.677   1.662
32058SOL     OW45012   8.100   0.197   7.859
32058SOL    HW145013   8.019   0.172   7.806
32058SOL    HW245014   8.076   0.207   7.955
32059SOL     OW45015   4.775  12.542   1.852
32059SOL    HW145016   4.836  12.587   1.917
32059SOL    HW245017   4.803  12.565   1.759
32060SOL     OW45018   7.902  16.527   0.137
32060SOL    HW145019   7.903  16.626   0.152
32060SOL    HW245020   7.973  16.484   0.194
32061SOL     OW45021   3.538   8.991   8.124
32061SOL    HW145022   3.611   8.968   8.060
32061SOL    HW245023   3.486   9.069   8.090
32062SOL     OW45024   7.649   5.495   6.710
32062SOL    HW145025   7.616   5.419   6.653
32062SOL    HW245026   7.583   5.570   6.706
32063SOL     OW45027   4.808   5.476   8.148
32063SOL    HW145028   4.881   5.542   8.163
32063SOL    HW245029   4.726   5.503   8.200
32064SOL     OW45030  13.576  12.691   7.485
32064SOL    HW145031  13.550  12.638   7.404
32064SOL    HW245032  13.661  12.741   7.466
32065SOL     OW45033   5.002   2.415   1.228
32065SOL    HW145034   4.952   2.427   1.142
32065SOL    HW245035   4.970   2.332   1.274
32066SOL     OW45036   7.558   2.347   0.228
32066SOL    HW145037   7.601   2.437   0.231
32066SOL    HW245038   7.602   2.287   0.294
32067SOL     OW45039  10.922  16.180   7.631
32067SOL    HW145040  10.871  16.094   7.622
32067SOL    HW245041  10.973  16.196   7.546
32068SOL     OW45042  14.331   7.789   0.669
32068SOL    HW145043  14.430   7.781   0.682
32068SOL    HW245044  14.301   7.722   0.600
32069SOL     OW45045   9.578   0.880   6.506
32069SOL    HW145046   9.660   0.848   6.459
32069SOL    HW245047   9.602   0.922   6.593
32070SOL     OW45048  16.760  10.950   0.619
32070SOL    HW145049  16.671  10.905   0.618
32070SOL    HW245050  16.789  10.970   0.526
32071SOL     OW45051   5.049   0.720   1.406
32071SOL    HW145052   5.007   0.802   1.445
32071SOL    HW245053   5.108   0.677   1.474
32072SOL     OW45054   5.344   9.206   0.242
32072SOL    HW145055   5.323   9.252   0.328
32072SOL    HW245056   5.434   9.234   0.211
32073SOL     OW45057  13.847  14.918   1.690
32073SOL    HW145058  13.901  14.859   1.751
32073SOL    HW245059  13.809  14.863   1.616
32074SOL     OW45060  13.135  15.865   1.138
32074SOL    HW145061  13.063  15.887   1.072
32074SOL    HW245062  13.200  15.802   1.096
32075SOL     OW45063   9.059  10.692   0.218
32075SOL    HW145064   8.972  10.706   0.266
32075SOL    HW245065   9.090  10.780   0.180
32076SOL     OW45066   2.788   9.897   7.502
32076SOL    HW145067   2.776   9.976   7.564
32076SOL    HW245068   2.791   9.813   7.556
32077SOL     OW45069   8.972  15.900   0.024
32077SOL    HW145070   8.907  15.969   8.446
32077SOL    HW245071   9.041  15.944   0.081
32078SOL     OW45072   6.130   8.461   7.697
32078SOL    HW145073   6.069   8.403   7.643
32078SOL    HW245074   6.224   8.447   7.667
32079SOL     OW45075  11.931  11.483   7.064
32079SOL    HW145076  11.940  11.396   7.015
32079SOL    HW245077  11.838  11.518   7.051
32080SOL     OW45078   4.008   4.626   1.752
32080SOL    HW145079   4.043   4.686   1.680
32080SOL    HW245080   4.030   4.665   1.842
32081SOL     OW45081   2.976   2.094   1.115
32081SOL    HW145082   2.947   2.090   1.211
32081SOL    HW245083   2.946   2.011   1.068
32082SOL     OW45084   9.059  11.961   7.755
32082SOL    HW145085   8.969  12.004   7.755
32082SOL    HW245086   9.127  12.023   7.793
32083SOL     OW45087  13.803   8.185   0.041
32083SOL    HW145088  13.821   8.101   0.093
32083SOL    HW245089  13.845   8.262   0.088
32084SOL     OW45090   3.580  11.964   1.815
32084SOL    HW145091   3.652  11.971   1.746
32084SOL    HW245092   3.491  11.977   1.771
32085SOL     OW45093   6.230  16.549   1.997
32085SOL    HW145094   6.177  16.470   1.967
32085SOL    HW245095   6.177  16.601   2.064
32086SOL     OW45096   3.629   1.982   6.960
32086SOL    HW145097   3.564   1.917   7.000
32086SOL    HW245098   3.642   1.960   6.863
32087SOL     OW45099   1.187   7.617   1.144
32087SOL    HW145100   1.121   7.622   1.219
32087SOL    HW245101   1.170   7.692   1.080
32088SOL     OW45102   6.670   5.923   0.114
32088SOL    HW145103   6.747   5.969   0.070
32088SOL    HW245104   6.698   5.832   0.145
32089SOL     OW45105  15.332   2.982   7.378
32089SOL    HW145106  15.250   2.939   7.340
32089SOL    HW245107  15.402   2.989   7.307
32090SOL     OW45108  13.233   3.738   6.821
32090SOL    HW145109  13.241   3.701   6.728
32090SOL    HW245110  13.157   3.693   6.868
32091SOL     OW45111   9.567   0.166   0.665
32091SOL    HW145112   9.523   0.092   0.717
32091SOL    HW245113   9.647   0.130   0.617
32092SOL     OW45114  13.077   5.798   0.169
32092SOL    HW145115  13.138   5.774   0.093
32092SOL    HW245116  13.028   5.716   0.198
32093SOL     OW45117  10.565  16.266   0.231
32093SOL    HW145118  10.495  16.240   0.164
32093SOL    HW245119  10.605  16.183   0.271
32094SOL     OW45120  12.067   3.397   1.325
32094SOL    HW145121  11.982   3.449   1.339
32094SOL    HW245122  12.048   3.299   1.334
32095SOL     OW45123   7.270  15.437   1.910
32095SOL    HW145124   7.318  15.387   1.982
32095SOL    HW245125   7.224  15.517   1.949
32096SOL     OW45126  14.145  13.438   1.803
32096SOL    HW145127  14.233  13.463   1.842
32096SOL    HW245128  14.107  13.359   1.852
32097SOL     OW45129   5.380  11.341   7.610
32097SOL    HW145130   5.395  11.373   7.516
32097SOL    HW245131   5.453  11.277   7.635
32098SOL     OW45132  11.211   9.103   1.449
32098SOL    HW145133  11.162   9.037   1.392
32098SOL    HW245134  11.236   9.060   1.535
32099SOL     OW45135   0.731   6.408   7.493
32099SOL    HW145136   0.791   6.469   7.443
32099SOL    HW245137   0.751   6.415   7.591
32100SOL     OW45138   2.302  15.542   2.440
32100SOL    HW145139   2.371  15.574   2.505
32100SOL    HW245140   2.272  15.618   2.383
32101SOL     OW45141   7.101  12.268   6.097
32101SOL    HW145142   7.141  12.199   6.157
32101SOL    HW245143   7.073  12.226   6.011
32102SOL     OW45144   7.591  13.859   2.324
32102SOL    HW145145   7.507  13.909   2.304
32102SOL    HW245146   7.611  13.866   2.422
32103SOL     OW45147  14.179   5.781   6.490
32103SOL    HW145148  14.218   5.716   6.426
32103SOL    HW245149  14.251   5.821   6.546
32104SOL     OW45150   2.507  11.371   0.102
32104SOL    HW145151   2.560  11.420   0.171
32104SOL    HW245152   2.420  11.340   0.141
32105SOL     OW45153  10.138   2.646   6.562
32105SOL    HW145154  10.097   2.735   6.545
32105SOL    HW245155  10.162   2.639   6.659
32106SOL     OW45156  10.730   9.610   1.416
32106SOL    HW145157  10.774   9.608   1.506
32106SOL    HW245158  10.786   9.563   1.349
32107SOL     OW45159   9.608   1.504   1.271
32107SOL    HW145160   9.657   1.580   1.313
32107SOL    HW245161   9.673   1.441   1.230
32108SOL     OW45162  12.327  11.885   1.703
32108SOL    HW145163  12.308  11.901   1.800
32108SOL    HW245164  12.305  11.790   1.680
32109SOL     OW45165   2.934   8.742   0.160
32109SOL    HW145166   2.992   8.821   0.141
32109SOL    HW245167   2.842   8.759   0.126
32110SOL     OW45168   7.159   1.313   7.386
32110SOL    HW145169   7.140   1.366   7.303
32110SOL    HW245170   7.214   1.368   7.448
32111SOL     OW45171  12.146   9.785   8.211
32111SOL    HW145172  12.225   9.728   8.188
32111SOL    HW245173  12.147   9.868   8.156
32112SOL     OW45174  15.755  16.977   1.519
32112SOL    HW145175  15.790  16.953   1.610
32112SOL    HW245176  15.830  16.974   1.453
32113SOL     OW45177   4.273  11.737   2.102
32113SOL    HW145178   4.336  11.814   2.101
32113SOL    HW245179   4.257  11.708   2.196
32114SOL     OW45180   8.754  16.856   2.374
32114SOL    HW145181   8.817  16.911   2.319
32114SOL    HW245182   8.688  16.915   2.420
32115SOL     OW45183   1.794   3.893   8.188
32115SOL    HW145184   1.703   3.936   8.185
32115SOL    HW245185   1.860   3.959   8.223
32116SOL     OW45186  15.791   6.353   7.494
32116SOL    HW145187  15.697   6.385   7.489
32116SOL    HW245188  15.796   6.256   7.472
32117SOL     OW45189  13.787  10.988   7.008
32117SOL    HW145190  13.829  11.038   7.084
32117SOL    HW245191  13.740  11.053   6.948
32118SOL     OW45192   9.252  12.530   1.031
32118SOL    HW145193   9.184  12.585   0.982
32118SOL    HW245194   9.244  12.434   1.002
32119SOL     OW45195  13.693  11.210   0.040
32119SOL    HW145196  13.708  11.159   0.124
32119SOL    HW245197  13.712  11.307   0.056
32120SOL     OW45198   2.609   7.362   0.704
32120SOL    HW145199   2.674   7.324   0.637
32120SOL    HW245200   2.644   7.345   0.796
32121SOL     OW45201   5.288  16.514   6.728
32121SOL    HW145202   5.340  16.443   6.681
32121SOL    HW245203   5.199  16.524   6.685
32122SOL     OW45204   8.903   2.926   7.500
32122SOL    HW145205   8.920   3.004   7.441
32122SOL    HW245206   8.990   2.884   7.526
32123SOL     OW45207  16.147   2.194   6.592
32123SOL    HW145208  16.119   2.284   6.559
32123SOL    HW245209  16.086   2.124   6.555
32124SOL     OW45210   2.039   6.691   0.413
32124SOL    HW145211   2.060   6.705   0.509
32124SOL    HW245212   2.066   6.772   0.361
32125SOL     OW45213  13.064   7.657   6.919
32125SOL    HW145214  13.144   7.625   6.868
32125SOL    HW245215  13.010   7.718   6.862
32126SOL     OW45216  12.649  16.835   7.650
32126SOL    HW145217  12.726  16.809   7.707
32126SOL    HW245218  12.580  16.881   7.706
32127SOL     OW45219   7.555   3.781   8.061
32127SOL    HW145220   7.467   3.821   8.037
32127SOL    HW245221   7.548   3.738   8.151
32128SOL     OW45222   7.337   8.695   1.929
32128SOL    HW145223   7.296   8.784   1.952
32128SOL    HW245224   7.320   8.631   2.004
32129SOL     OW45225   6.767  13.010   7.553
32129SOL    HW145226   6.825  13.040   7.477
32129SOL    HW245227   6.817  12.944   7.609
32130SOL     OW45228   8.190  12.638   1.058
32130SOL    HW145229   8.271  12.694   1.069
32130SOL    HW245230   8.108  12.694   1.071
32131SOL     OW45231  10.594   2.224   6.244
32131SOL    HW145232  10.580   2.261   6.152
32131SOL    HW245233  10.674   2.267   6.285
32132SOL     OW45234  13.714   9.129   6.225
32132SOL    HW145235  13.750   9.039   6.251
32132SOL    HW245236  13.680   9.176   6.306
32133SOL     OW45237  11.013   8.382   0.794
32133SOL    HW145238  10.947   8.312   0.824
32133SOL    HW245239  11.095   8.337   0.760
32134SOL     OW45240  12.704   0.321   7.708
32134SOL    HW145241  12.621   0.270   7.690
32134SOL    HW245242  12.690   0.417   7.685
32135SOL     OW45243  16.914  14.999   2.226
32135SOL    HW145244  16.834  15.054   2.248
32135SOL    HW245245  16.965  14.979   2.310
32136SOL     OW45246   6.836   9.237   7.799
32136SOL    HW145247   6.906   9.186   7.748
32136SOL    HW245248   6.832   9.205   7.893
32137SOL     OW45249   8.208  14.719   6.636
32137SOL    HW145250   8.205  14.656   6.713
32137SOL    HW245251   8.171  14.808   6.664
32138SOL     OW45252  14.598  16.056   1.351
32138SOL    HW145253  14.567  16.087   1.441
32138SOL    HW245254  14.691  16.021   1.358
32139SOL     OW45255  12.889  14.555   0.942
32139SOL    HW145256  12.817  14.621   0.921
32139SOL    HW245257  12.849  14.473   0.982
32140SOL     OW45258   7.117   3.810   8.056
32140SOL    HW145259   7.040   3.868   8.028
32140SOL    HW245260   7.202   3.848   8.019
32141SOL     OW45261   1.683   2.466   7.628
32141SOL    HW145262   1.714   2.372   7.620
32141SOL    HW245263   1.612   2.485   7.560
32142SOL     OW45264   9.752   0.290   7.120
32142SOL    HW145265   9.754   0.386   7.147
32142SOL    HW245266   9.834   0.268   7.067
32143SOL     OW45267   6.083  13.977   7.839
32143SOL    HW145268   6.026  13.932   7.908
32143SOL    HW245269   6.137  13.908   7.790
32144SOL     OW45270  14.778   0.169   1.346
32144SOL    HW145271  14.869   0.207   1.329
32144SOL    HW245272  14.709   0.228   1.305
32145SOL     OW45273   7.261  16.854   7.575
32145SOL    HW145274   7.173  16.822   7.609
32145SOL    HW245275   7.334  16.824   7.638
32146SOL     OW45276   1.905  16.735   1.131
32146SOL    HW145277   1.808  16.757   1.134
32146SOL    HW245278   1.955  16.791   1.197
32147SOL     OW45279  14.792   2.060   0.377
32147SOL    HW145280  14.886   2.075   0.349
32147SOL    HW245281  14.730   2.111   0.318
32148SOL     OW45282   6.132   4.290   6.811
32148SOL    HW145283   6.153   4.373   6.760
32148SOL    HW245284   6.063   4.309   6.880
32149SOL     OW45285  11.754  16.194   6.430
32149SOL    HW145286  11.735  16.211   6.334
32149SOL    HW245287  11.773  16.280   6.476
32150SOL     OW45288   8.548   2.444   6.346
32150SOL    HW145289   8.455   2.420   6.374
32150SOL    HW245290   8.552   2.542   6.327
32151SOL     OW45291   7.506  16.045   0.539
32151SOL    HW145292   7.597  16.005   0.552
32151SOL    HW245293   7.437  15.980   0.571
32152SOL     OW45294   6.203   8.767   7.336
32152SOL    HW145295   6.243   8.785   7.426
32152SOL    HW245296   6.275   8.771   7.266
32153SOL     OW45297  15.661   6.995   7.733
32153SOL    HW145298  15.586   7.012   7.797
32153SOL    HW245299  15.699   7.082   7.703
32154SOL     OW45300   4.026   3.326   1.469
32154SOL    HW145301   4.078   3.249   1.432
32154SOL    HW245302   4.010   3.393   1.396
32155SOL     OW45303   8.563  12.722   0.602
32155SOL    HW145304   8.490  12.774   0.647
32155SOL    HW245305   8.540  12.625   0.604
32156SOL     OW45306   2.255   1.217   0.507
32156SOL    HW145307   2.273   1.308   0.469
32156SOL    HW245308   2.185   1.171   0.452
32157SOL     OW45309   9.920   9.709   0.302
32157SOL    HW145310   9.926   9.674   0.208
32157SOL    HW245311   9.838   9.764   0.312
32158SOL     OW45312   1.173   3.045   1.607
32158SOL    HW145313   1.136   3.107   1.675
32158SOL    HW245314   1.101   2.983   1.576
32159SOL     OW45315   9.947  11.079   0.085
32159SOL    HW145316   9.950  10.992   0.135
32159SOL    HW245317   9.897  11.066   8.453
32160SOL     OW45318   8.058  14.797   7.565
32160SOL    HW145319   8.002  14.757   7.637
32160SOL    HW245320   8.149  14.820   7.601
32161SOL     OW45321   6.902  14.684   1.550
32161SOL    HW145322   6.936  14.600   1.594
32161SOL    HW245323   6.866  14.746   1.620
32162SOL     OW45324  15.654   4.750   2.161
32162SOL    HW145325  15.566   4.745   2.210
32162SOL    HW245326  15.686   4.844   2.159
32163SOL     OW45327  11.173  13.837   6.659
32163SOL    HW145328  11.170  13.759   6.597
32163SOL    HW245329  11.185  13.921   6.606
32164SOL     OW45330   4.450  12.309   8.338
32164SOL    HW145331   4.385  12.367   8.388
32164SOL    HW245332   4.411  12.218   8.326
32165SOL     OW45333  14.172   1.397   7.082
32165SOL    HW145334  14.100   1.332   7.055
32165SOL    HW245335  14.182   1.395   7.181
32166SOL     OW45336   8.263   4.791   6.445
32166SOL    HW145337   8.230   4.752   6.360
32166SOL    HW245338   8.193   4.780   6.516
32167SOL     OW45339  11.479   1.761   1.987
32167SOL    HW145340  11.416   1.695   2.028
32167SOL    HW245341  11.573   1.739   2.015
32168SOL     OW45342  12.284  13.091   7.965
32168SOL    HW145343  12.256  13.042   8.048
32168SOL    HW245344  12.307  13.185   7.988
32169SOL     OW45345   3.047  15.028   0.171
32169SOL    HW145346   2.976  15.097   0.184
32169SOL    HW245347   3.124  15.048   0.231
32170SOL     OW45348   8.311   2.356   7.808
32170SOL    HW145349   8.245   2.412   7.858
32170SOL    HW245350   8.295   2.260   7.828
32171SOL     OW45351  14.659   2.155   1.229
32171SOL    HW145352  14.621   2.237   1.270
32171SOL    HW245353  14.672   2.085   1.299
32172SOL     OW45354   1.754  11.433   2.428
32172SOL    HW145355   1.853  11.444   2.420
32172SOL    HW245356   1.709  11.514   2.392
32173SOL     OW45357   9.074   8.845   0.229
32173SOL    HW145358   8.999   8.840   0.295
32173SOL    HW245359   9.139   8.770   0.247
32174SOL     OW45360   3.842  12.487   6.900
32174SOL    HW145361   3.758  12.519   6.856
32174SOL    HW245362   3.849  12.526   6.992
32175SOL     OW45363   6.512   3.699   8.211
32175SOL    HW145364   6.422   3.687   8.252
32175SOL    HW245365   6.511   3.662   8.118
32176SOL     OW45366  14.387   4.423   7.056
32176SOL    HW145367  14.456   4.390   6.992
32176SOL    HW245368  14.432   4.457   7.139
32177SOL     OW45369  14.549   0.503   6.370
32177SOL    HW145370  14.462   0.507   6.419
32177SOL    HW245371  14.533   0.508   6.272
32178SOL     OW45372  15.592   1.989   7.546
32178SOL    HW145373  15.551   2.045   7.618
32178SOL    HW245374  15.599   1.894   7.577
32179SOL     OW45375  14.562   9.517   0.689
32179SOL    HW145376  14.592   9.434   0.642
32179SOL    HW245377  14.510   9.492   0.771
32180SOL     OW45378  13.625  15.364   7.834
32180SOL    HW145379  13.677  15.367   7.919
32180SOL    HW245380  13.659  15.433   7.771
32181SOL     OW45381   5.924   7.193   0.309
32181SOL    HW145382   5.960   7.100   0.310
32181SOL    HW245383   5.970   7.247   0.380
32182SOL     OW45384   9.564   5.275   7.364
32182SOL    HW145385   9.539   5.180   7.384
32182SOL    HW245386   9.648   5.276   7.310
32183SOL     OW45387  11.014   2.177   0.887
32183SOL    HW145388  11.061   2.169   0.799
32183SOL    HW245389  10.924   2.135   0.881
32184SOL     OW45390   0.758   3.219   6.004
32184SOL    HW145391   0.775   3.173   5.917
32184SOL    HW245392   0.660   3.216   6.025
32185SOL     OW45393  14.806   6.806   6.152
32185SOL    HW145394  14.708   6.818   6.166
32185SOL    HW245395  14.836   6.860   6.074
32186SOL     OW45396   3.644   2.686   1.040
32186SOL    HW145397   3.695   2.685   0.954
32186SOL    HW245398   3.700   2.646   1.113
32187SOL     OW45399   3.717  10.910   2.526
32187SOL    HW145400   3.770  10.992   2.547
32187SOL    HW245401   3.652  10.929   2.452
32188SOL     OW45402  15.264  11.696   2.236
32188SOL    HW145403  15.283  11.708   2.334
32188SOL    HW245404  15.344  11.658   2.191
32189SOL     OW45405   1.111   4.533   6.122
32189SOL    HW145406   1.155   4.487   6.045
32189SOL    HW245407   1.072   4.620   6.091
32190SOL     OW45408   4.588   1.080   8.438
32190SOL    HW145409   4.570   1.169   8.397
32190SOL    HW245410   4.511   1.019   8.419
32191SOL     OW45411   5.657   8.104   1.847
32191SOL    HW145412   5.735   8.158   1.815
32191SOL    HW245413   5.588   8.099   1.775
32192SOL     OW45414   0.860   9.386   7.257
32192SOL    HW145415   0.936   9.350   7.310
32192SOL    HW245416   0.891   9.464   7.202
32193SOL     OW45417   8.075  16.872   0.377
32193SOL    HW145418   8.097  16.836   0.468
32193SOL    HW245419   8.153  16.856   0.316
32194SOL     OW45420  16.219   8.719   0.761
32194SOL    HW145421  16.187   8.734   0.854
32194SOL    HW245422  16.141   8.701   0.701
32195SOL     OW45423   7.764   8.991   6.618
32195SOL    HW145424   7.750   9.079   6.573
32195SOL    HW245425   7.691   8.928   6.592
32196SOL     OW45426  15.227  14.649   1.714
32196SOL    HW145427  15.193  14.732   1.670
32196SOL    HW245428  15.160  14.575   1.705
32197SOL     OW45429   5.054   7.364   7.104
32197SOL    HW145430   4.956   7.346   7.110
32197SOL    HW245431   5.074   7.455   7.140
32198SOL     OW45432   6.283  12.237   0.780
32198SOL    HW145433   6.231  12.268   0.700
32198SOL    HW245434   6.350  12.307   0.805
32199SOL     OW45435   2.621  16.627   2.098
32199SOL    HW145436   2.561  16.703   2.120
32199SOL    HW245437   2.569  16.541   2.103
32200SOL     OW45438  13.662   0.277   7.836
32200SOL    HW145439  13.736   0.290   7.901
32200SOL    HW245440  13.609   0.196   7.861
32201SOL     OW45441   7.113  11.924   7.965
32201SOL    HW145442   7.167  11.992   7.915
32201SOL    HW245443   7.126  11.834   7.924
32202SOL     OW45444  15.459   9.765   1.656
32202SOL    HW145445  15.367   9.730   1.673
32202SOL    HW245446  15.481   9.753   1.559
32203SOL     OW45447  13.992  11.295   1.624
32203SOL    HW145448  14.048  11.270   1.703
32203SOL    HW245449  14.048  11.291   1.541
32204SOL     OW45450  15.077   6.725   0.169
32204SOL    HW145451  15.122   6.677   0.244
32204SOL    HW245452  15.109   6.689   0.082
32205SOL     OW45453  10.352   6.451   6.706
32205SOL    HW145454  10.338   6.538   6.658
32205SOL    HW245455  10.300   6.379   6.660
32206SOL     OW45456  13.301   8.375   2.023
32206SOL    HW145457  13.211   8.333   2.039
32206SOL    HW245458  13.308   8.459   2.076
32207SOL     OW45459   7.512  12.786   8.336
32207SOL    HW145460   7.448  12.726   8.286
32207SOL    HW245461   7.589  12.809   8.276
32208SOL     OW45462  10.218   8.529   8.031
32208SOL    HW145463  10.257   8.581   7.955
32208SOL    HW245464  10.273   8.447   8.047
32209SOL     OW45465  13.217   6.247   1.090
32209SOL    HW145466  13.188   6.210   1.002
32209SOL    HW245467  13.218   6.173   1.158
32210SOL     OW45468   6.866   5.688   8.228
32210SOL    HW145469   6.773   5.726   8.227
32210SOL    HW245470   6.863   5.591   8.208
32211SOL     OW45471  13.441  16.892   8.345
32211SOL    HW145472  13.449  16.793   8.329
32211SOL    HW245473  13.514  16.940   8.295
32212SOL     OW45474   2.458  10.185   1.526
32212SOL    HW145475   2.439  10.089   1.509
32212SOL    HW245476   2.446  10.205   1.623
32213SOL     OW45477   4.372  14.722   2.378
32213SOL    HW145478   4.383  14.717   2.477
32213SOL    HW245479   4.381  14.630   2.339
32214SOL     OW45480   3.170  11.777   1.701
32214SOL    HW145481   3.080  11.736   1.683
32214SOL    HW245482   3.242  11.713   1.674
32215SOL     OW45483  13.737  11.059   0.272
32215SOL    HW145484  13.751  11.076   0.369
32215SOL    HW245485  13.650  11.012   0.258
32216SOL     OW45486   4.855  15.626   1.509
32216SOL    HW145487   4.903  15.648   1.594
32216SOL    HW245488   4.769  15.580   1.531
32217SOL     OW45489  11.131  11.649   0.700
32217SOL    HW145490  11.218  11.693   0.722
32217SOL    HW245491  11.062  11.678   0.766
32218SOL     OW45492  14.626  10.740   1.870
32218SOL    HW145493  14.698  10.707   1.930
32218SOL    HW245494  14.652  10.726   1.774
32219SOL     OW45495   6.626  16.125   7.998
32219SOL    HW145496   6.678  16.192   8.051
32219SOL    HW245497   6.660  16.123   7.904
32220SOL     OW45498  16.829   6.883   1.490
32220SOL    HW145499  16.799   6.814   1.556
32220SOL    HW245500  16.784   6.970   1.510
32221SOL     OW45501   7.925   1.723   7.000
32221SOL    HW145502   7.900   1.732   6.903
32221SOL    HW245503   7.868   1.654   7.043
32222SOL     OW45504   9.580   8.423   7.776
32222SOL    HW145505   9.527   8.463   7.701
32222SOL    HW245506   9.678   8.438   7.760
32223SOL     OW45507   7.526   3.551   7.633
32223SOL    HW145508   7.571   3.492   7.700
32223SOL    HW245509   7.469   3.618   7.682
32224SOL     OW45510   2.874   3.794   0.666
32224SOL    HW145511   2.940   3.741   0.720
32224SOL    HW245512   2.891   3.780   0.569
32225SOL     OW45513  15.155   5.534   0.058
32225SOL    HW145514  15.213   5.468   0.105
32225SOL    HW245515  15.204   5.621   0.049
32226SOL     OW45516   0.329  11.535   0.746
32226SOL    HW145517   0.374  11.624   0.756
32226SOL    HW245518   0.252  11.544   0.683
32227SOL     OW45519   9.928  11.424   7.311
32227SOL    HW145520   9.876  11.340   7.300
32227SOL    HW245521   9.991  11.415   7.388
32228SOL     OW45522  14.375  11.149   0.322
32228SOL    HW145523  14.410  11.083   0.389
32228SOL    HW245524  14.280  11.171   0.344
32229SOL     OW45525   7.489  10.687   0.893
32229SOL    HW145526   7.420  10.631   0.939
32229SOL    HW245527   7.445  10.769   0.855
32230SOL     OW45528   9.353  11.255   7.308
32230SOL    HW145529   9.392  11.201   7.233
32230SOL    HW245530   9.396  11.345   7.310
32231SOL     OW45531  14.818   0.984   0.989
32231SOL    HW145532  14.914   0.998   0.964
32231SOL    HW245533  14.811   0.971   1.088
32232SOL     OW45534   0.776  11.054   6.519
32232SOL    HW145535   0.731  11.060   6.608
32232SOL    HW245536   0.736  10.979   6.467
32233SOL     OW45537   0.434   2.851   1.539
32233SOL    HW145538   0.334   2.843   1.536
32233SOL    HW245539   0.461   2.938   1.498
32234SOL     OW45540  11.959  16.964   0.366
32234SOL    HW145541  12.040  16.929   0.415
32234SOL    HW245542  11.989   0.027   0.282
32235SOL     OW45543   2.488   1.053   7.133
32235SOL    HW145544   2.573   1.002   7.119
32235SOL    HW245545   2.509   1.146   7.162
32236SOL     OW45546   7.103   5.337   6.895
32236SOL    HW145547   7.200   5.334   6.872
32236SOL    HW245548   7.088   5.294   6.984
32237SOL     OW45549  11.492  14.710   1.697
32237SOL    HW145550  11.487  14.639   1.627
32237SOL    HW245551  11.587  14.742   1.704
32238SOL     OW45552   9.852   9.628   7.860
32238SOL    HW145553   9.881   9.639   7.956
32238SOL    HW245554   9.885   9.705   7.806
32239SOL     OW45555  14.621  11.277   2.903
32239SOL    HW145556  14.714  11.269   2.937
32239SOL    HW245557  14.561  11.216   2.955
32240SOL     OW45558   7.717  15.082   6.445
32240SOL    HW145559   7.802  15.116   6.404
32240SOL    HW245560   7.665  15.031   6.377
32241SOL     OW45561   7.489   0.915   0.685
32241SOL    HW145562   7.541   0.837   0.721
32241SOL    HW245563   7.405   0.926   0.737
32242SOL     OW45564  11.659  13.744   0.617
32242SOL    HW145565  11.632  13.750   0.713
32242SOL    HW245566  11.636  13.654   0.581
32243SOL     OW45567   6.589   8.253   1.551
32243SOL    HW145568   6.606   8.352   1.551
32243SOL    HW245569   6.586   8.220   1.645
32244SOL     OW45570   7.948  14.625   7.376
32244SOL    HW145571   7.936  14.661   7.284
32244SOL    HW245572   8.000  14.690   7.432
32245SOL     OW45573  12.653   8.978   7.778
32245SOL    HW145574  12.702   8.891   7.779
32245SOL    HW245575  12.716   9.052   7.798
32246SOL     OW45576   2.837  10.334   6.712
32246SOL    HW145577   2.739  10.342   6.725
32246SOL    HW245578   2.858  10.332   6.614
32247SOL     OW45579  10.632   3.586   7.212
32247SOL    HW145580  10.672   3.506   7.167
32247SOL    HW245581  10.705   3.641   7.253
32248SOL     OW45582   4.124   9.365   7.726
32248SOL    HW145583   4.039   9.418   7.729
32248SOL    HW245584   4.122   9.296   7.798
32249SOL     OW45585   2.290   6.184   6.504
32249SOL    HW145586   2.201   6.211   6.540
32249SOL    HW245587   2.286   6.179   6.405
32250SOL     OW45588   8.260  14.673   0.724
32250SOL    HW145589   8.245  14.586   0.771
32250SOL    HW245590   8.192  14.739   0.754
32251SOL     OW45591  12.706   0.561   6.371
32251SOL    HW145592  12.669   0.622   6.301
32251SOL    HW245593  12.631   0.511   6.415
32252SOL     OW45594   5.039   4.115   8.254
32252SOL    HW145595   5.113   4.079   8.310
32252SOL    HW245596   5.076   4.150   8.168
32253SOL     OW45597  13.192  16.528   8.073
32253SOL    HW145598  13.208  16.626   8.062
32253SOL    HW245599  13.118  16.499   8.012
32254SOL     OW45600   2.315   0.308   0.643
32254SOL    HW145601   2.249   0.321   0.570
32254SOL    HW245602   2.273   0.331   0.731
32255SOL     OW45603   2.221   6.324   0.001
32255SOL    HW145604   2.309   6.341   0.046
32255SOL    HW245605   2.208   6.225   8.445
32256SOL     OW45606   2.317  11.927   0.184
32256SOL    HW145607   2.402  11.976   0.165
32256SOL    HW245608   2.338  11.845   0.238
32257SOL     OW45609   5.288   5.097   8.249
32257SOL    HW145610   5.376   5.133   8.277
32257SOL    HW245611   5.274   5.116   8.152
32258SOL     OW45612  12.271  14.270   1.609
32258SOL    HW145613  12.230  14.359   1.627
32258SOL    HW245614  12.360  14.282   1.565
32259SOL     OW45615   6.657   1.273   7.680
32259SOL    HW145616   6.570   1.225   7.697
32259SOL    HW245617   6.727   1.238   7.742
32260SOL     OW45618   6.199  10.286   2.516
32260SOL    HW145619   6.134  10.224   2.559
32260SOL    HW245620   6.152  10.370   2.488
32261SOL     OW45621   7.054   6.957   8.079
32261SOL    HW145622   7.126   6.942   8.012
32261SOL    HW245623   7.027   7.054   8.079
32262SOL     OW45624   4.994   6.359   2.365
32262SOL    HW145625   5.035   6.437   2.411
32262SOL    HW245626   4.907   6.336   2.409
32263SOL     OW45627   6.699   8.411   1.925
32263SOL    HW145628   6.616   8.435   1.874
32263SOL    HW245629   6.721   8.485   1.988
32264SOL     OW45630   9.268   2.695   7.131
32264SOL    HW145631   9.172   2.710   7.156
32264SOL    HW245632   9.322   2.776   7.156
32265SOL     OW45633   9.616   3.372   8.088
32265SOL    HW145634   9.694   3.416   8.132
32265SOL    HW245635   9.609   3.277   8.121
32266SOL     OW45636  15.427  10.455   0.605
32266SOL    HW145637  15.386  10.540   0.570
32266SOL    HW245638  15.521  10.473   0.634
32267SOL     OW45639  16.759  14.431   7.936
32267SOL    HW145640  16.738  14.334   7.926
32267SOL    HW245641  16.720  14.466   8.021
32268SOL     OW45642   5.317  13.180   8.329
32268SOL    HW145643   5.379  13.134   8.266
32268SOL    HW245644   5.223  13.165   8.301
32269SOL     OW45645   8.486   7.695   1.585
32269SOL    HW145646   8.423   7.623   1.615
32269SOL    HW245647   8.578   7.658   1.576
32270SOL     OW45648  12.068   9.295   7.743
32270SOL    HW145649  12.092   9.273   7.648
32270SOL    HW245650  12.148   9.332   7.790
32271SOL     OW45651   8.415   1.346   6.762
32271SOL    HW145652   8.350   1.412   6.724
32271SOL    HW245653   8.439   1.279   6.693
32272SOL     OW45654  12.929   9.930   8.430
32272SOL    HW145655  12.896   9.956   0.067
32272SOL    HW245656  13.020   9.891   8.438
32273SOL     OW45657  14.620   4.024   1.206
32273SOL    HW145658  14.542   4.087   1.208
32273SOL    HW245659  14.599   3.943   1.262
32274SOL     OW45660  13.790   5.764   8.415
32274SOL    HW145661  13.765   5.830   8.344
32274SOL    HW245662  13.734   5.781   0.042
32275SOL     OW45663   8.816   7.192   1.892
32275SOL    HW145664   8.737   7.149   1.936
32275SOL    HW245665   8.871   7.239   1.962
32276SOL     OW45666  11.857  15.160   0.131
32276SOL    HW145667  11.815  15.083   0.179
32276SOL    HW245668  11.804  15.243   0.147
32277SOL     OW45669   7.709  10.724   6.882
32277SOL    HW145670   7.732  10.811   6.838
32277SOL    HW245671   7.635  10.739   6.947
32278SOL     OW45672   9.064  15.718   1.015
32278SOL    HW145673   9.090  15.629   1.051
32278SOL    HW245674   9.106  15.732   0.926
32279SOL     OW45675   2.970   9.522   7.085
32279SOL    HW145676   2.953   9.617   7.113
32279SOL    HW245677   2.958   9.513   6.986
32280SOL     OW45678   7.902   8.034   6.814
32280SOL    HW145679   7.815   8.081   6.825
32280SOL    HW245680   7.888   7.936   6.814
32281SOL     OW45681   0.632  14.169   6.957
32281SOL    HW145682   0.610  14.188   6.861
32281SOL    HW245683   0.591  14.239   7.015
32282SOL     OW45684   6.449   5.733   0.344
32282SOL    HW145685   6.502   5.817   0.360
32282SOL    HW245686   6.479   5.690   0.259
32283SOL     OW45687   6.971   9.173   6.900
32283SOL    HW145688   6.955   9.268   6.926
32283SOL    HW245689   6.972   9.165   6.801
32284SOL     OW45690  15.584  15.351   7.834
32284SOL    HW145691  15.597  15.300   7.919
32284SOL    HW245692  15.674  15.376   7.797
32285SOL     OW45693   2.399  10.537   8.105
32285SOL    HW145694   2.416  10.582   8.193
32285SOL    HW245695   2.315  10.483   8.111
32286SOL     OW45696   1.964  10.938   0.514
32286SOL    HW145697   2.022  10.970   0.589
32286SOL    HW245698   1.991  10.985   0.429
32287SOL     OW45699  15.327  12.503   7.252
32287SOL    HW145700  15.294  12.540   7.339
32287SOL    HW245701  15.250  12.483   7.192
32288SOL     OW45702   7.167  10.444   1.342
32288SOL    HW145703   7.152  10.369   1.406
32288SOL    HW245704   7.231  10.414   1.271
32289SOL     OW45705   0.942  13.481   6.581
32289SOL    HW145706   1.040  13.466   6.569
32289SOL    HW245707   0.905  13.412   6.643
32290SOL     OW45708  15.148   5.698   7.961
32290SOL    HW145709  15.157   5.709   7.862
32290SOL    HW245710  15.090   5.618   7.980
32291SOL     OW45711   4.027   5.488   0.668
32291SOL    HW145712   4.029   5.554   0.592
32291SOL    HW245713   4.054   5.398   0.635
32292SOL     OW45714   1.895   2.443   0.253
32292SOL    HW145715   1.980   2.427   0.202
32292SOL    HW245716   1.915   2.501   0.333
32293SOL     OW45717  14.201   4.991   6.583
32293SOL    HW145718  14.135   4.926   6.546
32293SOL    HW245719  14.291   4.973   6.543
32294SOL     OW45720   3.472   6.835   6.265
32294SOL    HW145721   3.508   6.759   6.320
32294SOL    HW245722   3.422   6.799   6.187
32295SOL     OW45723   7.328   1.971   8.169
32295SOL    HW145724   7.249   2.033   8.158
32295SOL    HW245725   7.336   1.944   8.265
32296SOL     OW45726  16.677   0.134   0.780
32296SOL    HW145727  16.622   0.199   0.831
32296SOL    HW245728  16.714   0.178   0.698
32297SOL     OW45729  15.512   8.394   7.372
32297SOL    HW145730  15.606   8.417   7.394
32297SOL    HW245731  15.474   8.462   7.309
32298SOL     OW45732   7.454   1.125   6.976
32298SOL    HW145733   7.377   1.062   6.975
32298SOL    HW245734   7.486   1.135   7.070
32299SOL     OW45735  11.219   3.120   7.816
32299SOL    HW145736  11.224   3.020   7.825
32299SOL    HW245737  11.287   3.162   7.876
32300SOL     OW45738   1.426   1.495   0.043
32300SOL    HW145739   1.472   1.553   8.430
32300SOL    HW245740   1.337   1.467   0.007
32301SOL     OW45741   6.726   8.924   6.586
32301SOL    HW145742   6.751   8.903   6.491
32301SOL    HW245743   6.662   9.001   6.587
32302SOL     OW45744  16.737  12.390   0.409
32302SOL    HW145745  16.808  12.411   0.342
32302SOL    HW245746  16.720  12.470   0.467
32303SOL     OW45747   1.150  10.327   1.165
32303SOL    HW145748   1.130  10.298   1.071
32303SOL    HW245749   1.208  10.259   1.210
32304SOL     OW45750  13.341   8.663   0.414
32304SOL    HW145751  13.338   8.719   0.497
32304SOL    HW245752  13.422   8.687   0.360
32305SOL     OW45753  10.538  15.072   2.260
32305SOL    HW145754  10.440  15.067   2.280
32305SOL    HW245755  10.584  15.125   2.332
32306SOL     OW45756  16.694   4.956   1.636
32306SOL    HW145757  16.614   4.911   1.597
32306SOL    HW245758  16.666   5.032   1.694
32307SOL     OW45759  10.371   3.405   1.187
32307SOL    HW145760  10.385   3.499   1.217
32307SOL    HW245761  10.309   3.359   1.251
32308SOL     OW45762   4.042   1.824   0.801
32308SOL    HW145763   4.138   1.798   0.817
32308SOL    HW245764   4.040   1.905   0.743
32309SOL     OW45765  13.803   8.555   7.279
32309SOL    HW145766  13.875   8.490   7.300
32309SOL    HW245767  13.842   8.646   7.264
32310SOL     OW45768   0.703   1.620   8.313
32310SOL    HW145769   0.772   1.549   8.329
32310SOL    HW245770   0.739   1.708   8.345
32311SOL     OW45771  12.641   3.650   0.944
32311SOL    HW145772  12.641   3.704   0.860
32311SOL    HW245773  12.690   3.700   1.016
32312SOL     OW45774   2.337  14.885   0.565
32312SOL    HW145775   2.385  14.854   0.483
32312SOL    HW245776   2.238  14.888   0.547
32313SOL     OW45777  13.852   6.220   0.899
32313SOL    HW145778  13.931   6.161   0.913
32313SOL    HW245779  13.852   6.254   0.805
32314SOL     OW45780  10.784   0.224   1.366
32314SOL    HW145781  10.865   0.167   1.355
32314SOL    HW245782  10.747   0.247   1.276
32315SOL     OW45783   8.742   0.905   1.490
32315SOL    HW145784   8.801   0.945   1.560
32315SOL    HW245785   8.697   0.977   1.438
32316SOL     OW45786   6.608   4.024   7.295
32316SOL    HW145787   6.515   4.034   7.329
32316SOL    HW245788   6.611   3.953   7.225
32317SOL     OW45789   1.471  15.943   6.358
32317SOL    HW145790   1.559  15.938   6.310
32317SOL    HW245791   1.401  15.979   6.297
32318SOL     OW45792  11.861  10.852   8.092
32318SOL    HW145793  11.765  10.877   8.104
32318SOL    HW245794  11.870  10.791   8.013
32319SOL     OW45795   3.987   2.564   8.264
32319SOL    HW145796   4.012   2.487   8.204
32319SOL    HW245797   3.914   2.617   8.221
32320SOL     OW45798   8.573  10.640   2.427
32320SOL    HW145799   8.663  10.602   2.447
32320SOL    HW245800   8.501  10.575   2.453
32321SOL     OW45801  15.909   1.748   0.734
32321SOL    HW145802  15.850   1.667   0.735
32321SOL    HW245803  15.871   1.816   0.670
32322SOL     OW45804   5.901  12.115   2.250
32322SOL    HW145805   5.836  12.094   2.323
32322SOL    HW245806   5.989  12.071   2.269
32323SOL     OW45807  13.877  13.410   2.250
32323SOL    HW145808  13.909  13.449   2.336
32323SOL    HW245809  13.818  13.331   2.268
32324SOL     OW45810   5.946   8.494   8.238
32324SOL    HW145811   5.996   8.579   8.249
32324SOL    HW245812   5.894   8.497   8.152
32325SOL     OW45813  11.747   5.810   6.563
32325SOL    HW145814  11.713   5.900   6.590
32325SOL    HW245815  11.847   5.811   6.561
32326SOL     OW45816   1.067   6.916   7.054
32326SOL    HW145817   1.139   6.912   7.123
32326SOL    HW245818   0.996   6.850   7.076
32327SOL     OW45819   7.049   6.055   1.476
32327SOL    HW145820   7.046   6.031   1.573
32327SOL    HW245821   7.098   5.985   1.425
32328SOL     OW45822   7.130   2.495   7.654
32328SOL    HW145823   7.197   2.429   7.687
32328SOL    HW245824   7.107   2.474   7.558
32329SOL     OW45825   7.235  11.896   1.789
32329SOL    HW145826   7.285  11.935   1.866
32329SOL    HW245827   7.277  11.810   1.761
32330SOL     OW45828   3.481  15.818   0.500
32330SOL    HW145829   3.389  15.853   0.479
32330SOL    HW245830   3.474  15.751   0.574
32331SOL     OW45831   5.239   6.120   6.773
32331SOL    HW145832   5.229   6.092   6.677
32331SOL    HW245833   5.229   6.040   6.832
32332SOL     OW45834  16.083   7.027   1.275
32332SOL    HW145835  16.045   6.944   1.316
32332SOL    HW245836  16.169   7.050   1.318
32333SOL     OW45837   1.263   5.119   7.705
32333SOL    HW145838   1.295   5.186   7.638
32333SOL    HW245839   1.208   5.165   7.774
32334SOL     OW45840  12.343  13.207   0.433
32334SOL    HW145841  12.408  13.165   0.369
32334SOL    HW245842  12.250  13.200   0.396
32335SOL     OW45843   5.854  11.273   1.209
32335SOL    HW145844   5.783  11.342   1.225
32335SOL    HW245845   5.873  11.267   1.111
32336SOL     OW45846  14.340   5.885   6.217
32336SOL    HW145847  14.408   5.881   6.291
32336SOL    HW245848  14.347   5.802   6.161
32337SOL     OW45849   1.732   1.943   1.440
32337SOL    HW145850   1.785   1.875   1.491
32337SOL    HW245851   1.771   2.034   1.453
32338SOL     OW45852  13.494  16.376   0.921
32338SOL    HW145853  13.542  16.321   0.853
32338SOL    HW245854  13.401  16.396   0.889
32339SOL     OW45855  10.855   1.775   0.575
32339SOL    HW145856  10.898   1.781   0.665
32339SOL    HW245857  10.765   1.732   0.584
32340SOL     OW45858  14.371   6.833   7.231
32340SOL    HW145859  14.346   6.929   7.243
32340SOL    HW245860  14.405   6.819   7.138
32341SOL     OW45861  15.971  12.156   7.831
32341SOL    HW145862  15.966  12.255   7.814
32341SOL    HW245863  16.056  12.136   7.881
32342SOL     OW45864   5.361   9.880   0.542
32342SOL    HW145865   5.300   9.956   0.521
32342SOL    HW245866   5.449   9.915   0.575
32343SOL     OW45867  10.758  11.064   7.904
32343SOL    HW145868  10.682  11.124   7.927
32343SOL    HW245869  10.813  11.046   7.986
32344SOL     OW45870   9.726   3.263   2.248
32344SOL    HW145871   9.765   3.354   2.259
32344SOL    HW245872   9.630   3.271   2.222
32345SOL     OW45873   6.809   8.066   0.198
32345SOL    HW145874   6.865   8.103   0.124
32345SOL    HW245875   6.832   7.970   0.213
32346SOL     OW45876  10.262  12.293   0.739
32346SOL    HW145877  10.348  12.336   0.767
32346SOL    HW245878  10.222  12.346   0.664
32347SOL     OW45879   8.672   9.448   7.996
32347SOL    HW145880   8.663   9.547   7.996
32347SOL    HW245881   8.681   9.414   8.090
32348SOL     OW45882  16.789   6.186   7.081
32348SOL    HW145883  16.719   6.241   7.128
32348SOL    HW245884  16.855   6.152   7.148
32349SOL     OW45885  11.341   6.260   8.111
32349SOL    HW145886  11.272   6.319   8.068
32349SOL    HW245887  11.309   6.231   8.201
32350SOL     OW45888   9.985   8.018   7.001
32350SOL    HW145889  10.016   7.993   6.909
32350SOL    HW245890   9.926   8.098   6.997
32351SOL     OW45891   7.330  11.536   7.569
32351SOL    HW145892   7.238  11.569   7.547
32351SOL    HW245893   7.369  11.488   7.490
32352SOL     OW45894   7.213  14.290   7.048
32352SOL    HW145895   7.286  14.332   7.101
32352SOL    HW245896   7.235  14.295   6.951
32353SOL     OW45897  11.964   8.542   7.070
32353SOL    HW145898  11.945   8.470   7.137
32353SOL    HW245899  12.017   8.504   6.994
32354SOL     OW45900  15.745  14.195   1.197
32354SOL    HW145901  15.677  14.268   1.191
32354SOL    HW245902  15.699  14.107   1.211
32355SOL     OW45903  13.057   4.397   0.836
32355SOL    HW145904  12.976   4.455   0.845
32355SOL    HW245905  13.111   4.428   0.758
32356SOL     OW45906  13.025  15.306   0.368
32356SOL    HW145907  13.030  15.217   0.321
32356SOL    HW245908  13.100  15.312   0.434
32357SOL     OW45909  12.066   6.462   6.821
32357SOL    HW145910  12.016   6.472   6.735
32357SOL    HW245911  12.139   6.395   6.809
32358SOL     OW45912  16.837   5.755   7.353
32358SOL    HW145913  16.800   5.663   7.344
32358SOL    HW245914  16.803   5.813   7.279
32359SOL     OW45915  11.301  15.657   8.266
32359SOL    HW145916  11.367  15.585   8.287
32359SOL    HW245917  11.223  15.618   8.218
32360SOL     OW45918   9.550   2.729   0.521
32360SOL    HW145919   9.474   2.787   0.550
32360SOL    HW245920   9.553   2.724   0.422
32361SOL     OW45921   5.238   8.881   1.862
32361SOL    HW145922   5.231   8.980   1.847
32361SOL    HW245923   5.157   8.836   1.825
32362SOL     OW45924  11.485   2.269   6.996
32362SOL    HW145925  11.441   2.356   6.977
32362SOL    HW245926  11.537   2.276   7.082
32363SOL     OW45927  12.872   2.094   7.833
32363SOL    HW145928  12.950   2.126   7.779
32363SOL    HW245929  12.898   2.093   7.930
32364SOL     OW45930   1.464  15.196   1.702
32364SOL    HW145931   1.443  15.285   1.742
32364SOL    HW245932   1.527  15.207   1.626
32365SOL     OW45933  12.500  10.137   8.344
32365SOL    HW145934  12.494  10.237   8.338
32365SOL    HW245935  12.530  10.101   8.256
32366SOL     OW45936   4.234   4.372   6.191
32366SOL    HW145937   4.194   4.458   6.158
32366SOL    HW245938   4.177   4.295   6.162
32367SOL     OW45939   4.982  16.423   1.003
32367SOL    HW145940   4.998  16.339   0.952
32367SOL    HW245941   4.955  16.496   0.940
32368SOL     OW45942  10.884   6.830   7.612
32368SOL    HW145943  10.805   6.883   7.644
32368SOL    HW245944  10.900   6.753   7.674
32369SOL     OW45945  14.499  13.362   0.651
32369SOL    HW145946  14.417  13.333   0.701
32369SOL    HW245947  14.510  13.461   0.661
32370SOL     OW45948   8.122  10.445   6.943
32370SOL    HW145949   8.047  10.383   6.966
32370SOL    HW245950   8.095  10.505   6.868
32371SOL     OW45951  13.244   3.249   6.617
32371SOL    HW145952  13.298   3.219   6.538
32371SOL    HW245953  13.180   3.321   6.590
32372SOL     OW45954   1.460   4.785   0.699
32372SOL    HW145955   1.552   4.769   0.664
32372SOL    HW245956   1.429   4.876   0.672
32373SOL     OW45957  13.010  12.060   1.606
32373SOL    HW145958  12.995  12.088   1.511
32373SOL    HW245959  13.029  11.962   1.609
32374SOL     OW45960   7.574  16.159   0.130
32374SOL    HW145961   7.560  16.128   0.036
32374SOL    HW245962   7.601  16.256   0.129
32375SOL     OW45963  11.901   1.549   0.319
32375SOL    HW145964  11.908   1.637   0.271
32375SOL    HW245965  11.932   1.559   0.413
32376SOL     OW45966   7.675  12.817   0.669
32376SOL    HW145967   7.637  12.733   0.706
32376SOL    HW245968   7.601  12.880   0.645
32377SOL     OW45969   3.108   1.532   1.520
32377SOL    HW145970   3.119   1.461   1.451
32377SOL    HW245971   3.112   1.622   1.476
32378SOL     OW45972   1.063   6.729   1.919
32378SOL    HW145973   1.003   6.782   1.979
32378SOL    HW245974   1.131   6.682   1.974
32379SOL     OW45975   3.528   2.347   1.180
32379SOL    HW145976   3.465   2.306   1.246
32379SOL    HW245977   3.591   2.277   1.146
32380SOL     OW45978  13.623  12.462   0.699
32380SOL    HW145979  13.714  12.421   0.696
32380SOL    HW245980  13.562  12.405   0.755
32381SOL     OW45981   5.536  11.367   8.316
32381SOL    HW145982   5.468  11.440   8.321
32381SOL    HW245983   5.492  11.282   8.285
32382SOL     OW45984   3.849   0.354   0.612
32382SOL    HW145985   3.858   0.345   0.512
32382SOL    HW245986   3.933   0.390   0.650
32383SOL     OW45987   5.420   8.070   1.261
32383SOL    HW145988   5.502   8.068   1.318
32383SOL    HW245989   5.426   7.997   1.193
32384SOL     OW45990  12.733   2.154   6.171
32384SOL    HW145991  12.763   2.066   6.133
32384SOL    HW245992  12.795   2.226   6.142
32385SOL     OW45993  12.361  14.254   0.671
32385SOL    HW145994  12.314  14.324   0.724
32385SOL    HW245995  12.389  14.292   0.582
32386SOL     OW45996  10.279   2.538   0.775
32386SOL    HW145997  10.236   2.490   0.851
32386SOL    HW245998  10.239   2.629   0.766
32387SOL     OW45999  14.053  15.793   1.028
32387SOL    HW146000  14.108  15.804   0.945
32387SOL    HW246001  14.112  15.765   1.103
32388SOL     OW46002   1.205  10.830   7.900
32388SOL    HW146003   1.106  10.842   7.891
32388SOL    HW246004   1.229  10.826   7.998
32389SOL     OW46005   8.760  11.652   7.124
32389SOL    HW146006   8.832  11.719   7.140
32389SOL    HW246007   8.764  11.620   7.030
32390SOL     OW46008  10.226   7.783   2.181
32390SOL    HW146009  10.206   7.733   2.266
32390SOL    HW246010  10.258   7.875   2.204
32391SOL     OW46011  16.411  10.371   0.392
32391SOL    HW146012  16.430  10.274   0.409
32391SOL    HW246013  16.473  10.428   0.446
32392SOL     OW46014   6.836  13.751   1.543
32392SOL    HW146015   6.837  13.801   1.629
32392SOL    HW246016   6.847  13.815   1.467
32393SOL     OW46017  15.791   3.700   8.222
32393SOL    HW146018  15.825   3.611   8.193
32393SOL    HW246019  15.692   3.697   8.232
32394SOL     OW46020   5.453   4.564   6.746
32394SOL    HW146021   5.467   4.477   6.794
32394SOL    HW246022   5.541   4.610   6.734
32395SOL     OW46023   9.172  11.973   6.284
32395SOL    HW146024   9.209  12.036   6.353
32395SOL    HW246025   9.223  11.983   6.199
32396SOL     OW46026  12.680   7.063   1.140
32396SOL    HW146027  12.721   6.979   1.104
32396SOL    HW246028  12.705   7.074   1.236
32397SOL     OW46029   1.160  10.970   2.537
32397SOL    HW146030   1.095  10.910   2.582
32397SOL    HW246031   1.251  10.956   2.576
32398SOL     OW46032  12.208  16.341   6.489
32398SOL    HW146033  12.146  16.264   6.502
32398SOL    HW246034  12.203  16.373   6.394
32399SOL     OW46035   0.084  12.085   0.048
32399SOL    HW146036   0.173  12.042   0.030
32399SOL    HW246037   0.064  12.080   0.146
32400SOL     OW46038   8.211  15.337   8.024
32400SOL    HW146039   8.194  15.410   8.090
32400SOL    HW246040   8.124  15.295   7.998
32401SOL     OW46041  13.618   3.869   5.967
32401SOL    HW146042  13.612   3.879   5.867
32401SOL    HW246043  13.546   3.924   6.010
32402SOL     OW46044  11.552   0.852   1.024
32402SOL    HW146045  11.495   0.841   1.106
32402SOL    HW246046  11.615   0.928   1.038
32403SOL     OW46047   5.428  10.228   8.312
32403SOL    HW146048   5.518  10.271   8.301
32403SOL    HW246049   5.421  10.189   8.404
32404SOL     OW46050   6.345  10.419   1.980
32404SOL    HW146051   6.443  10.412   1.965
32404SOL    HW246052   6.322  10.379   2.069
32405SOL     OW46053   0.192   6.255   7.065
32405SOL    HW146054   0.219   6.160   7.082
32405SOL    HW246055   0.127   6.258   6.990
32406SOL     OW46056  14.249  13.414   8.020
32406SOL    HW146057  14.339  13.425   8.062
32406SOL    HW246058  14.178  13.438   8.086
32407SOL     OW46059   2.521  13.343   1.155
32407SOL    HW146060   2.488  13.416   1.215
32407SOL    HW246061   2.530  13.379   1.062
32408SOL     OW46062  10.483   4.672   6.506
32408SOL    HW146063  10.565   4.717   6.472
32408SOL    HW246064  10.508   4.589   6.556
32409SOL     OW46065  13.669   8.040   0.776
32409SOL    HW146066  13.623   8.054   0.689
32409SOL    HW246067  13.768   8.029   0.761
32410SOL     OW46068  10.755  11.586   1.389
32410SOL    HW146069  10.672  11.610   1.439
32410SOL    HW246070  10.807  11.519   1.442
32411SOL     OW46071   8.227   9.871   6.972
32411SOL    HW146072   8.265   9.935   7.038
32411SOL    HW246073   8.134   9.845   7.000
32412SOL     OW46074   0.716   7.050   7.050
32412SOL    HW146075   0.717   7.131   7.109
32412SOL    HW246076   0.651   6.983   7.086
32413SOL     OW46077   1.394   4.011   7.715
32413SOL    HW146078   1.330   4.087   7.725
32413SOL    HW246079   1.407   3.991   7.617
32414SOL     OW46080   9.937   5.425   0.123
32414SOL    HW146081   9.917   5.443   0.026
32414SOL    HW246082  10.028   5.460   0.145
32415SOL     OW46083   7.898   9.375   1.214
32415SOL    HW146084   7.994   9.393   1.195
32415SOL    HW246085   7.881   9.386   1.312
32416SOL     OW46086  16.560  15.680   8.073
32416SOL    HW146087  16.515  15.692   7.984
32416SOL    HW246088  16.657  15.662   8.058
32417SOL     OW46089   2.267  10.206   1.275
32417SOL    HW146090   2.295  10.187   1.369
32417SOL    HW246091   2.203  10.135   1.244
32418SOL     OW46092   1.559  11.214   8.034
32418SOL    HW146093   1.477  11.269   8.052
32418SOL    HW246094   1.624  11.224   8.108
32419SOL     OW46095  10.819  11.046   0.125
32419SOL    HW146096  10.892  11.113   0.117
32419SOL    HW246097  10.765  11.045   0.041
32420SOL     OW46098  15.050  15.378   7.903
32420SOL    HW146099  15.059  15.279   7.909
32420SOL    HW246100  14.964  15.402   7.858
32421SOL     OW46101  16.631   7.190   0.817
32421SOL    HW146102  16.675   7.235   0.894
32421SOL    HW246103  16.582   7.257   0.762
32422SOL     OW46104   9.446   4.092   6.972
32422SOL    HW146105   9.363   4.124   7.016
32422SOL    HW246106   9.471   4.002   7.009
32423SOL     OW46107   4.859  11.348   0.066
32423SOL    HW146108   4.862  11.267   0.008
32423SOL    HW246109   4.894  11.324   0.157
32424SOL     OW46110   1.040   5.199   7.970
32424SOL    HW146111   1.015   5.261   7.895
32424SOL    HW246112   0.960   5.181   8.027
32425SOL     OW46113   1.438   9.629   0.730
32425SOL    HW146114   1.418   9.699   0.798
32425SOL    HW246115   1.353   9.599   0.687
32426SOL     OW46116   2.372   7.377   1.344
32426SOL    HW146117   2.293   7.316   1.355
32426SOL    HW246118   2.407   7.369   1.250
32427SOL     OW46119   4.724   7.762   0.453
32427SOL    HW146120   4.644   7.813   0.485
32427SOL    HW246121   4.804   7.789   0.506
32428SOL     OW46122   9.805   1.336   6.840
32428SOL    HW146123   9.834   1.431   6.849
32428SOL    HW246124   9.869   1.286   6.783
32429SOL     OW46125  15.472  15.838   6.697
32429SOL    HW146126  15.410  15.795   6.763
32429SOL    HW246127  15.563  15.846   6.738
32430SOL     OW46128  10.403   7.377   0.337
32430SOL    HW146129  10.343   7.338   0.407
32430SOL    HW246130  10.354   7.449   0.287
32431SOL     OW46131   7.054   3.793   0.693
32431SOL    HW146132   6.974   3.754   0.647
32431SOL    HW246133   7.050   3.893   0.687
32432SOL     OW46134   9.509   2.628   0.009
32432SOL    HW146135   9.503   2.713   8.410
32432SOL    HW246136   9.437   2.566   8.434
32433SOL     OW46137   5.723  11.502   1.491
32433SOL    HW146138   5.817  11.527   1.513
32433SOL    HW246139   5.660  11.553   1.549
32434SOL     OW46140   9.940   3.648   0.629
32434SOL    HW146141   9.909   3.565   0.676
32434SOL    HW246142   9.993   3.622   0.548
32435SOL     OW46143   8.480   0.215   6.829
32435SOL    HW146144   8.510   0.309   6.845
32435SOL    HW246145   8.497   0.191   6.733
32436SOL     OW46146   4.099   4.541   0.534
32436SOL    HW146147   4.073   4.550   0.438
32436SOL    HW246148   4.188   4.585   0.549
32437SOL     OW46149   2.356  13.206   1.859
32437SOL    HW146150   2.256  13.213   1.856
32437SOL    HW246151   2.382  13.111   1.879
32438SOL     OW46152  13.978   2.599   1.203
32438SOL    HW146153  13.920   2.523   1.233
32438SOL    HW246154  14.070   2.588   1.242
32439SOL     OW46155   7.263   5.070   8.222
32439SOL    HW146156   7.343   5.116   8.261
32439SOL    HW246157   7.276   5.056   8.124
32440SOL     OW46158  13.265   3.344   1.616
32440SOL    HW146159  13.298   3.431   1.654
32440SOL    HW246160  13.260   3.276   1.690
32441SOL     OW46161   1.943  11.402   0.239
32441SOL    HW146162   2.022  11.464   0.236
32441SOL    HW246163   1.910  11.395   0.333
32442SOL     OW46164   3.283  12.980   7.225
32442SOL    HW146165   3.220  13.029   7.165
32442SOL    HW246166   3.348  12.929   7.169
32443SOL     OW46167   0.588  13.924   2.317
32443SOL    HW146168   0.502  13.903   2.365
32443SOL    HW246169   0.570  13.993   2.247
32444SOL     OW46170  11.168   1.677   0.461
32444SOL    HW146171  11.135   1.739   0.389
32444SOL    HW246172  11.249   1.628   0.428
32445SOL     OW46173  12.970   7.073   0.045
32445SOL    HW146174  12.874   7.078   0.073
32445SOL    HW246175  12.975   7.069   8.399
32446SOL     OW46176   0.546   6.302   1.645
32446SOL    HW146177   0.560   6.294   1.744
32446SOL    HW246178   0.633   6.321   1.600
32447SOL     OW46179   4.780   7.049   6.982
32447SOL    HW146180   4.774   6.953   6.958
32447SOL    HW246181   4.695   7.096   6.955
32448SOL     OW46182  14.393  16.692   1.613
32448SOL    HW146183  14.344  16.778   1.606
32448SOL    HW246184  14.479  16.706   1.662
32449SOL     OW46185  13.843   1.986   8.425
32449SOL    HW146186  13.762   1.985   8.365
32449SOL    HW246187  13.914   2.042   8.384
32450SOL     OW46188  11.520   1.006   1.423
32450SOL    HW146189  11.490   0.947   1.348
32450SOL    HW246190  11.620   1.011   1.424
32451SOL     OW46191   9.994  13.770   0.534
32451SOL    HW146192   9.963  13.825   0.457
32451SOL    HW246193  10.094  13.768   0.536
32452SOL     OW46194   0.414   3.184   7.121
32452SOL    HW146195   0.341   3.238   7.079
32452SOL    HW246196   0.428   3.216   7.215
32453SOL     OW46197   1.133   9.981   7.221
32453SOL    HW146198   1.102   9.975   7.316
32453SOL    HW246199   1.162   9.890   7.190
32454SOL     OW46200  14.912  10.564   6.838
32454SOL    HW146201  14.950  10.632   6.900
32454SOL    HW246202  14.914  10.599   6.745
32455SOL     OW46203  10.363  16.957   1.817
32455SOL    HW146204  10.277   0.022   1.833
32455SOL    HW246205  10.397  16.921   1.904
32456SOL     OW46206   5.111  15.220   1.458
32456SOL    HW146207   5.171  15.275   1.400
32456SOL    HW246208   5.166  15.169   1.524
32457SOL     OW46209   4.229  14.881   0.505
32457SOL    HW146210   4.301  14.950   0.516
32457SOL    HW246211   4.218  14.859   0.408
32458SOL     OW46212  15.746   5.729   8.184
32458SOL    HW146213  15.747   5.771   8.093
32458SOL    HW246214  15.684   5.779   8.244
32459SOL     OW46215  10.078  12.755   8.410
32459SOL    HW146216  10.171  12.727   8.386
32459SOL    HW246217  10.071  12.855   8.408
32460SOL     OW46218  10.750   8.289   1.728
32460SOL    HW146219  10.732   8.270   1.824
32460SOL    HW246220  10.684   8.356   1.694
32461SOL     OW46221   6.092  16.626   0.227
32461SOL    HW146222   6.018  16.684   0.259
32461SOL    HW246223   6.180  16.671   0.243
32462SOL     OW46224  10.327  16.590   2.234
32462SOL    HW146225  10.317  16.686   2.263
32462SOL    HW246226  10.420  16.575   2.201
32463SOL     OW46227   9.064   9.991   7.243
32463SOL    HW146228   9.077  10.043   7.159
32463SOL    HW246229   9.113   9.904   7.237
32464SOL     OW46230   9.211   1.222   7.381
32464SOL    HW146231   9.119   1.189   7.404
32464SOL    HW246232   9.274   1.201   7.455
32465SOL     OW46233  16.822   4.202   0.435
32465SOL    HW146234  16.726   4.176   0.432
32465SOL    HW246235  16.852   4.206   0.531
32466SOL     OW46236   1.270  15.075   8.038
32466SOL    HW146237   1.305  15.161   8.002
32466SOL    HW246238   1.219  15.027   7.967
32467SOL     OW46239   4.990  14.078   6.661
32467SOL    HW146240   4.925  14.149   6.634
32467SOL    HW246241   4.961  13.990   6.623
32468SOL     OW46242   1.737  13.026   7.517
32468SOL    HW146243   1.834  13.045   7.534
32468SOL    HW246244   1.698  12.978   7.596
32469SOL     OW46245  10.743  12.840   7.146
32469SOL    HW146246  10.684  12.764   7.172
32469SOL    HW246247  10.797  12.815   7.065
32470SOL     OW46248   9.778   2.132   7.212
32470SOL    HW146249   9.840   2.156   7.287
32470SOL    HW246250   9.703   2.075   7.248
32471SOL     OW46251   9.042   5.965   0.322
32471SOL    HW146252   8.994   6.030   0.380
32471SOL    HW246253   9.057   5.880   0.371
32472SOL     OW46254   2.543   1.066   8.384
32472SOL    HW146255   2.504   1.073   8.293
32472SOL    HW246256   2.643   1.077   8.378
32473SOL     OW46257   3.919   1.970   1.397
32473SOL    HW146258   3.988   1.907   1.364
32473SOL    HW246259   3.932   1.987   1.495
32474SOL     OW46260   0.535  15.202   1.327
32474SOL    HW146261   0.584  15.211   1.241
32474SOL    HW246262   0.437  15.193   1.308
32475SOL     OW46263  12.003   3.905   8.117
32475SOL    HW146264  11.906   3.894   8.137
32475SOL    HW246265  12.026   4.003   8.116
32476SOL     OW46266  15.729   8.776   7.244
32476SOL    HW146267  15.773   8.714   7.180
32476SOL    HW246268  15.630   8.775   7.228
32477SOL     OW46269   2.040  15.630   1.816
32477SOL    HW146270   2.127  15.655   1.859
32477SOL    HW246271   1.983  15.712   1.807
32478SOL     OW46272  15.011   1.838   1.233
32478SOL    HW146273  15.110   1.824   1.225
32478SOL    HW246274  14.990   1.881   1.321
32479SOL     OW46275  14.010  11.056   0.214
32479SOL    HW146276  14.051  11.110   0.288
32479SOL    HW246277  13.911  11.052   0.226
32480SOL     OW46278   9.652   4.360   6.569
32480SOL    HW146279   9.695   4.270   6.557
32480SOL    HW246280   9.720   4.426   6.600
32481SOL     OW46281   4.527  15.559   0.766
32481SOL    HW146282   4.468  15.486   0.800
32481SOL    HW246283   4.528  15.635   0.831
32482SOL     OW46284   0.926   9.445   7.652
32482SOL    HW146285   0.878   9.526   7.618
32482SOL    HW246286   0.860   9.370   7.665
32483SOL     OW46287  16.474   7.803   0.357
32483SOL    HW146288  16.450   7.893   0.392
32483SOL    HW246289  16.408   7.735   0.390
32484SOL     OW46290   2.677  11.276   1.181
32484SOL    HW146291   2.755  11.215   1.166
32484SOL    HW246292   2.678  11.308   1.276
32485SOL     OW46293   6.951   4.836   7.772
32485SOL    HW146294   6.862   4.846   7.817
32485SOL    HW246295   7.023   4.829   7.841
32486SOL     OW46296   6.698  16.896   7.262
32486SOL    HW146297   6.706  16.826   7.333
32486SOL    HW246298   6.726  16.857   7.174
32487SOL     OW46299   4.871   3.069   6.694
32487SOL    HW146300   4.908   2.983   6.657
32487SOL    HW246301   4.870   3.138   6.622
32488SOL     OW46302   1.479  12.514   3.179
32488SOL    HW146303   1.389  12.495   3.140
32488SOL    HW246304   1.542  12.441   3.153
32489SOL     OW46305   1.601   8.118   8.412
32489SOL    HW146306   1.636   8.207   8.442
32489SOL    HW246307   1.501   8.123   8.405
32490SOL     OW46308   4.413  10.940   1.269
32490SOL    HW146309   4.437  10.943   1.366
32490SOL    HW246310   4.316  10.914   1.260
32491SOL     OW46311   6.762  16.161   2.130
32491SOL    HW146312   6.746  16.096   2.056
32491SOL    HW246313   6.858  16.189   2.129
32492SOL     OW46314  12.857  11.119   0.080
32492SOL    HW146315  12.827  11.028   0.050
32492SOL    HW246316  12.893  11.169   0.001
32493SOL     OW46317   5.463   6.951   7.457
32493SOL    HW146318   5.477   6.886   7.533
32493SOL    HW246319   5.384   7.009   7.477
32494SOL     OW46320  13.438  14.332   0.725
32494SOL    HW146321  13.386  14.246   0.727
32494SOL    HW246322  13.389  14.398   0.668
32495SOL     OW46323  11.786   6.808   0.715
32495SOL    HW146324  11.735   6.864   0.650
32495SOL    HW246325  11.831   6.733   0.666
32496SOL     OW46326  16.194  10.798   7.869
32496SOL    HW146327  16.240  10.844   7.945
32496SOL    HW246328  16.126  10.859   7.829
32497SOL     OW46329  11.055  15.862   6.941
32497SOL    HW146330  11.135  15.889   6.888
32497SOL    HW246331  10.973  15.904   6.902
32498SOL     OW46332   9.314   8.789   7.132
32498SOL    HW146333   9.225   8.749   7.151
32498SOL    HW246334   9.381   8.757   7.199
32499SOL     OW46335   2.336   6.628   1.607
32499SOL    HW146336   2.260   6.675   1.563
32499SOL    HW246337   2.376   6.562   1.544
32500SOL     OW46338   7.437  13.798   0.546
32500SOL    HW146339   7.412  13.785   0.641
32500SOL    HW246340   7.509  13.733   0.521
32501SOL     OW46341  15.571  14.023   2.007
32501SOL    HW146342  15.613  13.954   1.949
32501SOL    HW246343  15.613  14.112   1.990
32502SOL     OW46344   0.130   1.396   0.411
32502SOL    HW146345   0.033   1.415   0.396
32502SOL    HW246346   0.184   1.475   0.381
32503SOL     OW46347  12.763   2.908   0.242
32503SOL    HW146348  12.794   2.985   0.296
32503SOL    HW246349  12.767   2.932   0.145
32504SOL     OW46350  12.626   4.085   6.844
32504SOL    HW146351  12.690   4.116   6.774
32504SOL    HW246352  12.533   4.110   6.818
32505SOL     OW46353   4.378   9.062   1.501
32505SOL    HW146354   4.414   9.154   1.483
32505SOL    HW246355   4.440   8.994   1.461
32506SOL     OW46356   3.577  11.397   0.498
32506SOL    HW146357   3.514  11.321   0.514
32506SOL    HW246358   3.526  11.483   0.498
32507SOL     OW46359   8.453   0.567   6.632
32507SOL    HW146360   8.480   0.533   6.542
32507SOL    HW246361   8.509   0.525   6.702
32508SOL     OW46362   8.157   1.598   7.099
32508SOL    HW146363   8.158   1.600   7.199
32508SOL    HW246364   8.086   1.659   7.065
32509SOL     OW46365   4.627   3.014   0.688
32509SOL    HW146366   4.683   2.935   0.662
32509SOL    HW246367   4.544   3.015   0.633
32510SOL     OW46368  12.304  11.380   6.960
32510SOL    HW146369  12.227  11.339   6.912
32510SOL    HW246370  12.373  11.410   6.894
32511SOL     OW46371  12.205  14.178   0.340
32511SOL    HW146372  12.190  14.126   0.424
32511SOL    HW246373  12.232  14.115   0.266
32512SOL     OW46374   5.384  16.830   1.278
32512SOL    HW146375   5.402  16.782   1.364
32512SOL    HW246376   5.470  16.848   1.231
32513SOL     OW46377   5.413   0.954   0.006
32513SOL    HW146378   5.489   0.893   8.433
32513SOL    HW246379   5.352   0.904   0.068
32514SOL     OW46380   2.554   5.836   6.304
32514SOL    HW146381   2.494   5.876   6.235
32514SOL    HW246382   2.602   5.909   6.353
32515SOL     OW46383   0.823   1.869   1.125
32515SOL    HW146384   0.863   1.781   1.100
32515SOL    HW246385   0.734   1.854   1.169
32516SOL     OW46386   2.970   9.361   8.433
32516SOL    HW146387   3.065   9.360   8.402
32516SOL    HW246388   2.965   9.408   0.067
32517SOL     OW46389  10.854   8.170   0.235
32517SOL    HW146390  10.892   8.178   0.143
32517SOL    HW246391  10.806   8.255   0.258
32518SOL     OW46392  10.977   7.586   0.852
32518SOL    HW146393  10.908   7.549   0.914
32518SOL    HW246394  11.019   7.667   0.893
32519SOL     OW46395   2.534  14.713   6.976
32519SOL    HW146396   2.516  14.761   6.890
32519SOL    HW246397   2.531  14.615   6.961
32520SOL     OW46398  12.510   3.430   0.676
32520SOL    HW146399  12.486   3.486   0.596
32520SOL    HW246400  12.468   3.469   0.758
32521SOL     OW46401   8.032  13.841   1.517
32521SOL    HW146402   8.089  13.915   1.482
32521SOL    HW246403   7.947  13.878   1.555
32522SOL     OW46404  10.865   2.860   8.432
32522SOL    HW146405  10.914   2.947   8.420
32522SOL    HW246406  10.864   2.811   8.345
32523SOL     OW46407   6.234  15.927   1.321
32523SOL    HW146408   6.205  16.023   1.329
32523SOL    HW246409   6.217  15.895   1.228
32524SOL     OW46410   2.631   0.492   2.318
32524SOL    HW146411   2.635   0.521   2.223
32524SOL    HW246412   2.541   0.513   2.356
32525SOL     OW46413   8.831   8.811   0.405
32525SOL    HW146414   8.784   8.853   0.327
32525SOL    HW246415   8.831   8.875   0.481
32526SOL     OW46416   5.758  12.453   6.866
32526SOL    HW146417   5.776  12.480   6.772
32526SOL    HW246418   5.841  12.465   6.921
32527SOL     OW46419   7.507   4.758   1.297
32527SOL    HW146420   7.543   4.760   1.390
32527SOL    HW246421   7.573   4.711   1.237
32528SOL     OW46422   7.681   1.301   1.448
32528SOL    HW146423   7.704   1.379   1.390
32528SOL    HW246424   7.724   1.219   1.412
32529SOL     OW46425  12.163   2.498   6.067
32529SOL    HW146426  12.173   2.506   5.967
32529SOL    HW246427  12.076   2.537   6.095
32530SOL     OW46428   5.154  10.207   7.763
32530SOL    HW146429   5.111  10.285   7.719
32530SOL    HW246430   5.253  10.218   7.764
32531SOL     OW46431   6.994  15.974   7.201
32531SOL    HW146432   6.934  15.895   7.216
32531SOL    HW246433   7.020  16.014   7.289
32532SOL     OW46434   3.815   8.296   2.088
32532SOL    HW146435   3.734   8.252   2.128
32532SOL    HW246436   3.797   8.318   1.992
32533SOL     OW46437  12.548  12.825   1.474
32533SOL    HW146438  12.630  12.874   1.443
32533SOL    HW246439  12.489  12.805   1.396
32534SOL     OW46440   9.097   1.902   0.186
32534SOL    HW146441   9.102   1.866   0.093
32534SOL    HW246442   9.150   1.987   0.192
32535SOL     OW46443  13.709   8.173   7.076
32535SOL    HW146444  13.698   8.120   7.160
32535SOL    HW246445  13.801   8.161   7.040
32536SOL     OW46446   1.989  12.916   0.506
32536SOL    HW146447   2.010  12.829   0.462
32536SOL    HW246448   2.067  12.945   0.561
32537SOL     OW46449   9.275   6.798   7.478
32537SOL    HW146450   9.343   6.792   7.551
32537SOL    HW246451   9.213   6.719   7.483
32538SOL     OW46452  11.439   9.852   0.764
32538SOL    HW146453  11.484   9.763   0.762
32538SOL    HW246454  11.500   9.921   0.726
32539SOL     OW46455   1.981  11.142   0.908
32539SOL    HW146456   1.925  11.070   0.947
32539SOL    HW246457   2.044  11.104   0.840
32540SOL     OW46458   5.530  15.483   7.001
32540SOL    HW146459   5.507  15.430   6.920
32540SOL    HW246460   5.504  15.579   6.987
32541SOL     OW46461  12.841   0.548   1.340
32541SOL    HW146462  12.926   0.601   1.336
32541SOL    HW246463  12.856   0.465   1.394
32542SOL     OW46464   8.100  12.431   7.609
32542SOL    HW146465   8.125  12.489   7.531
32542SOL    HW246466   8.066  12.488   7.684
32543SOL     OW46467   4.496   6.892   1.233
32543SOL    HW146468   4.530   6.939   1.151
32543SOL    HW246469   4.407   6.929   1.258
32544SOL     OW46470   5.624   5.563   0.178
32544SOL    HW146471   5.558   5.632   0.148
32544SOL    HW246472   5.673   5.597   0.259
32545SOL     OW46473   2.412   4.482   8.088
32545SOL    HW146474   2.499   4.492   8.039
32545SOL    HW246475   2.344   4.541   8.046
32546SOL     OW46476  11.377   3.143   0.860
32546SOL    HW146477  11.316   3.142   0.781
32546SOL    HW246478  11.346   3.076   0.927
32547SOL     OW46479  10.628  11.086   0.771
32547SOL    HW146480  10.685  11.143   0.830
32547SOL    HW246481  10.546  11.137   0.744
32548SOL     OW46482   1.609   6.095   8.349
32548SOL    HW146483   1.513   6.094   8.376
32548SOL    HW246484   1.652   6.180   8.381
32549SOL     OW46485  15.614  10.592   2.191
32549SOL    HW146486  15.587  10.536   2.269
32549SOL    HW246487  15.713  10.586   2.178
32550SOL     OW46488   9.499   8.199   6.071
32550SOL    HW146489   9.532   8.285   6.033
32550SOL    HW246490   9.576   8.139   6.091
32551SOL     OW46491   5.402  12.794   7.456
32551SOL    HW146492   5.303  12.798   7.470
32551SOL    HW246493   5.433  12.700   7.465
32552SOL     OW46494  12.390   1.934   0.046
32552SOL    HW146495  12.414   2.003   0.115
32552SOL    HW246496  12.293   1.910   0.056
32553SOL     OW46497  15.141   4.389   1.567
32553SOL    HW146498  15.091   4.413   1.650
32553SOL    HW246499  15.213   4.324   1.589
32554SOL     OW46500   6.705  12.147   6.179
32554SOL    HW146501   6.730  12.179   6.088
32554SOL    HW246502   6.747  12.058   6.196
32555SOL     OW46503   4.250   6.387   6.779
32555SOL    HW146504   4.242   6.448   6.700
32555SOL    HW246505   4.303   6.306   6.753
32556SOL     OW46506  10.109  14.120   1.347
32556SOL    HW146507  10.065  14.144   1.260
32556SOL    HW246508  10.167  14.195   1.377
32557SOL     OW46509   2.222  16.618   0.439
32557SOL    HW146510   2.150  16.558   0.405
32557SOL    HW246511   2.232  16.607   0.537
32558SOL     OW46512   6.317   6.226   6.582
32558SOL    HW146513   6.264   6.283   6.645
32558SOL    HW246514   6.268   6.218   6.495
32559SOL     OW46515  15.285  12.760   1.900
32559SOL    HW146516  15.195  12.750   1.942
32559SOL    HW246517  15.352  12.784   1.971
32560SOL     OW46518   3.367   2.600   1.063
32560SOL    HW146519   3.464   2.617   1.048
32560SOL    HW246520   3.354   2.558   1.153
32561SOL     OW46521   6.032  10.244   2.258
32561SOL    HW146522   6.003  10.169   2.318
32561SOL    HW246523   6.029  10.330   2.309
32562SOL     OW46524  14.299  14.133   0.822
32562SOL    HW146525  14.288  14.089   0.732
32562SOL    HW246526  14.241  14.086   0.889
32563SOL     OW46527  14.324  15.649   0.531
32563SOL    HW146528  14.333  15.605   0.620
32563SOL    HW246529  14.381  15.731   0.528
32564SOL     OW46530   8.790   3.882   6.729
32564SOL    HW146531   8.740   3.803   6.765
32564SOL    HW246532   8.882   3.853   6.702
32565SOL     OW46533   6.556  11.172   7.406
32565SOL    HW146534   6.477  11.184   7.466
32565SOL    HW246535   6.629  11.235   7.433
32566SOL     OW46536  16.772   1.049   6.976
32566SOL    HW146537  16.803   1.000   7.058
32566SOL    HW246538  16.679   1.082   6.991
32567SOL     OW46539   5.406   0.267   7.546
32567SOL    HW146540   5.380   0.332   7.618
32567SOL    HW246541   5.488   0.300   7.500
32568SOL     OW46542   3.689  11.834   6.315
32568SOL    HW146543   3.707  11.911   6.254
32568SOL    HW246544   3.742  11.755   6.285
32569SOL     OW46545   2.629   6.206   1.198
32569SOL    HW146546   2.569   6.176   1.123
32569SOL    HW246547   2.625   6.138   1.271
32570SOL     OW46548  16.789  12.232   7.488
32570SOL    HW146549  16.786  12.328   7.517
32570SOL    HW246550  16.784  12.228   7.388
32571SOL     OW46551   3.956  16.408   0.685
32571SOL    HW146552   3.907  16.349   0.747
32571SOL    HW246553   3.904  16.492   0.669
32572SOL     OW46554  11.052   5.832   8.142
32572SOL    HW146555  11.041   5.928   8.115
32572SOL    HW246556  10.985   5.776   8.093
32573SOL     OW46557   9.614  15.387   8.236
32573SOL    HW146558   9.700  15.376   8.286
32573SOL    HW246559   9.603  15.310   8.173
32574SOL     OW46560   2.221  14.414   1.908
32574SOL    HW146561   2.301  14.420   1.967
32574SOL    HW246562   2.237  14.467   1.825
32575SOL     OW46563  12.642   9.672   6.120
32575SOL    HW146564  12.572   9.739   6.098
32575SOL    HW246565  12.731   9.703   6.085
32576SOL     OW46566   6.919   8.196   0.888
32576SOL    HW146567   6.901   8.218   0.984
32576SOL    HW246568   6.834   8.202   0.836
32577SOL     OW46569  11.662  14.288   1.586
32577SOL    HW146570  11.731  14.222   1.617
32577SOL    HW246571  11.589  14.294   1.655
32578SOL     OW46572  12.674  14.725   7.839
32578SOL    HW146573  12.587  14.677   7.838
32578SOL    HW246574  12.672  14.797   7.908
32579SOL     OW46575   7.068   6.966   1.449
32579SOL    HW146576   7.026   6.880   1.422
32579SOL    HW246577   7.057   6.980   1.548
32580SOL     OW46578  14.112   4.135   8.010
32580SOL    HW146579  14.209   4.136   8.035
32580SOL    HW246580  14.056   4.145   8.092
32581SOL     OW46581   2.270   0.311   1.299
32581SOL    HW146582   2.268   0.410   1.312
32581SOL    HW246583   2.357   0.285   1.258
32582SOL     OW46584   2.934   5.426   7.161
32582SOL    HW146585   2.988   5.342   7.153
32582SOL    HW246586   2.849   5.416   7.110
32583SOL     OW46587   3.479   8.927   7.774
32583SOL    HW146588   3.421   9.007   7.759
32583SOL    HW246589   3.572   8.957   7.798
32584SOL     OW46590   0.947   4.621   7.808
32584SOL    HW146591   1.011   4.682   7.761
32584SOL    HW246592   0.975   4.611   7.904
32585SOL     OW46593   3.420   2.242   7.448
32585SOL    HW146594   3.462   2.231   7.358
32585SOL    HW246595   3.459   2.174   7.511
32586SOL     OW46596  10.912  16.022   6.590
32586SOL    HW146597  10.832  16.040   6.534
32586SOL    HW246598  10.993  16.015   6.532
32587SOL     OW46599   3.893   2.198   1.245
32587SOL    HW146600   3.894   2.114   1.298
32587SOL    HW246601   3.881   2.276   1.307
32588SOL     OW46602   3.782  11.995   1.633
32588SOL    HW146603   3.869  12.028   1.669
32588SOL    HW246604   3.746  12.060   1.567
32589SOL     OW46605  12.276  16.255   8.252
32589SOL    HW146606  12.230  16.167   8.251
32589SOL    HW246607  12.339  16.258   8.330
32590SOL     OW46608   8.859  16.533   7.031
32590SOL    HW146609   8.903  16.619   7.007
32590SOL    HW246610   8.923  16.476   7.083
32591SOL     OW46611  14.326   1.379   6.059
32591SOL    HW146612  14.246   1.396   6.116
32591SOL    HW246613  14.404   1.429   6.096
32592SOL     OW46614   9.773   7.079   1.402
32592SOL    HW146615   9.798   6.982   1.404
32592SOL    HW246616   9.756   7.110   1.496
32593SOL     OW46617   7.324   9.089   0.764
32593SOL    HW146618   7.315   9.181   0.728
32593SOL    HW246619   7.341   9.093   0.863
32594SOL     OW46620   6.121   2.971   2.272
32594SOL    HW146621   6.146   2.890   2.325
32594SOL    HW246622   6.200   3.033   2.267
32595SOL     OW46623   1.359   3.033   6.792
32595SOL    HW146624   1.439   3.026   6.851
32595SOL    HW246625   1.376   2.986   6.706
32596SOL     OW46626  11.479  10.685   0.584
32596SOL    HW146627  11.401  10.709   0.526
32596SOL    HW246628  11.561  10.676   0.527
32597SOL     OW46629   5.966  15.408   0.528
32597SOL    HW146630   6.043  15.413   0.592
32597SOL    HW246631   5.884  15.442   0.573
32598SOL     OW46632  13.990   6.474   6.407
32598SOL    HW146633  13.946   6.392   6.442
32598SOL    HW246634  14.062   6.448   6.342
32599SOL     OW46635   3.583   7.264   7.373
32599SOL    HW146636   3.550   7.188   7.317
32599SOL    HW246637   3.582   7.348   7.319
32600SOL     OW46638  13.062   6.356   8.025
32600SOL    HW146639  13.108   6.380   7.940
32600SOL    HW246640  13.017   6.437   8.063
32601SOL     OW46641   3.687  16.978   2.867
32601SOL    HW146642   3.638   0.050   2.800
32601SOL    HW246643   3.716   0.053   2.943
32602SOL     OW46644   3.294   0.070   2.863
32602SOL    HW146645   3.216   0.056   2.801
32602SOL    HW246646   3.353  16.973   2.860
32603SOL     OW46647   8.070  14.106   0.391
32603SOL    HW146648   8.106  14.120   0.299
32603SOL    HW246649   8.129  14.042   0.440
32604SOL     OW46650   6.037  14.020   0.974
32604SOL    HW146651   5.984  14.008   1.058
32604SOL    HW246652   6.129  14.052   0.996
32605SOL     OW46653   7.209   7.014   7.547
32605SOL    HW146654   7.254   7.102   7.539
32605SOL    HW246655   7.277   6.943   7.565
32606SOL     OW46656  15.271  16.036   7.950
32606SOL    HW146657  15.283  16.016   8.047
32606SOL    HW246658  15.361  16.045   7.907
32607SOL     OW46659  12.651   7.718   0.413
32607SOL    HW146660  12.646   7.667   0.328
32607SOL    HW246661  12.570   7.775   0.423
32608SOL     OW46662   1.404  12.563   7.513
32608SOL    HW146663   1.477  12.511   7.557
32608SOL    HW246664   1.416  12.661   7.534
32609SOL     OW46665  12.624  10.973   2.529
32609SOL    HW146666  12.596  10.909   2.601
32609SOL    HW246667  12.704  11.024   2.561
32610SOL     OW46668   3.217   6.705   0.326
32610SOL    HW146669   3.309   6.668   0.329
32610SOL    HW246670   3.203   6.752   0.239
32611SOL     OW46671   9.568   1.169   0.760
32611SOL    HW146672   9.600   1.078   0.732
32611SOL    HW246673   9.481   1.189   0.716
32612SOL     OW46674   4.492   4.761   7.716
32612SOL    HW146675   4.462   4.761   7.621
32612SOL    HW246676   4.524   4.853   7.741
32613SOL     OW46677  15.425   4.656   0.051
32613SOL    HW146678  15.407   4.709   0.134
32613SOL    HW246679  15.338   4.628   0.010
32614SOL     OW46680  12.136   1.098   6.951
32614SOL    HW146681  12.206   1.037   6.990
32614SOL    HW246682  12.072   1.124   7.022
32615SOL     OW46683   0.490  13.190   6.972
32615SOL    HW146684   0.451  13.157   6.885
32615SOL    HW246685   0.588  13.173   6.973
32616SOL     OW46686  15.431   5.577   7.170
32616SOL    HW146687  15.479   5.502   7.216
32616SOL    HW246688  15.440   5.565   7.071
32617SOL     OW46689  13.846   7.951   0.176
32617SOL    HW146690  13.864   7.938   0.273
32617SOL    HW246691  13.908   7.893   0.123
32618SOL     OW46692  10.231  16.429   1.286
32618SOL    HW146693  10.148  16.395   1.241
32618SOL    HW246694  10.209  16.457   1.379
32619SOL     OW46695  10.261   2.911   6.784
32619SOL    HW146696  10.236   2.959   6.868
32619SOL    HW246697  10.223   2.818   6.786
32620SOL     OW46698   3.773  16.605   1.346
32620SOL    HW146699   3.701  16.615   1.416
32620SOL    HW246700   3.793  16.694   1.305
32621SOL     OW46701  13.491   0.952   6.131
32621SOL    HW146702  13.518   0.947   6.035
32621SOL    HW246703  13.400   0.911   6.143
32622SOL     OW46704  10.135   7.301   6.597
32622SOL    HW146705  10.049   7.348   6.583
32622SOL    HW246706  10.209   7.368   6.603
32623SOL     OW46707  15.884  15.845   6.219
32623SOL    HW146708  15.833  15.804   6.143
32623SOL    HW246709  15.864  15.796   6.304
32624SOL     OW46710   8.951  12.343   7.128
32624SOL    HW146711   9.045  12.315   7.110
32624SOL    HW246712   8.946  12.386   7.218
32625SOL     OW46713   2.578  11.576   2.183
32625SOL    HW146714   2.617  11.574   2.276
32625SOL    HW246715   2.643  11.618   2.121
32626SOL     OW46716   3.622   6.398   0.168
32626SOL    HW146717   3.576   6.373   0.083
32626SOL    HW246718   3.720   6.384   0.159
32627SOL     OW46719   4.290   6.561   0.332
32627SOL    HW146720   4.194   6.589   0.332
32627SOL    HW246721   4.306   6.497   0.408
32628SOL     OW46722   1.141  15.716   0.531
32628SOL    HW146723   1.055  15.666   0.534
32628SOL    HW246724   1.154  15.756   0.440
32629SOL     OW46725   7.254   1.520   6.960
32629SOL    HW146726   7.190   1.581   6.914
32629SOL    HW246727   7.228   1.508   7.055
32630SOL     OW46728   1.791   5.237   8.375
32630SOL    HW146729   1.885   5.204   8.361
32630SOL    HW246730   1.767   5.229   0.018
32631SOL     OW46731   4.646   2.572   7.027
32631SOL    HW146732   4.559   2.595   6.984
32631SOL    HW246733   4.630   2.507   7.102
32632SOL     OW46734  10.450   8.000   1.286
32632SOL    HW146735  10.364   7.973   1.242
32632SOL    HW246736  10.473   8.093   1.259
32633SOL     OW46737   3.960   4.674   7.437
32633SOL    HW146738   3.874   4.700   7.393
32633SOL    HW246739   3.956   4.579   7.466
32634SOL     OW46740  15.736   1.896   6.227
32634SOL    HW146741  15.836   1.898   6.223
32634SOL    HW246742  15.698   1.921   6.137
32635SOL     OW46743   5.546   4.971   0.354
32635SOL    HW146744   5.510   4.897   0.412
32635SOL    HW246745   5.646   4.963   0.348
32636SOL     OW46746  15.292  14.039   7.429
32636SOL    HW146747  15.219  14.003   7.372
32636SOL    HW246748  15.373  14.057   7.372
32637SOL     OW46749  16.069   0.522   0.816
32637SOL    HW146750  16.026   0.464   0.747
32637SOL    HW246751  16.050   0.618   0.794
32638SOL     OW46752   1.548   0.151   2.334
32638SOL    HW146753   1.564   0.225   2.268
32638SOL    HW246754   1.552   0.187   2.427
32639SOL     OW46755   3.051  15.383   0.310
32639SOL    HW146756   3.075  15.439   0.389
32639SOL    HW246757   3.070  15.433   0.225
32640SOL     OW46758  10.617   8.696   7.587
32640SOL    HW146759  10.545   8.748   7.541
32640SOL    HW246760  10.618   8.602   7.551
32641SOL     OW46761  13.103  10.248   7.486
32641SOL    HW146762  13.028  10.190   7.516
32641SOL    HW246763  13.068  10.318   7.423
32642SOL     OW46764   9.155  14.882   0.937
32642SOL    HW146765   9.172  14.799   0.885
32642SOL    HW246766   9.080  14.865   1.002
32643SOL     OW46767  14.039   8.871   8.287
32643SOL    HW146768  14.010   8.776   8.291
32643SOL    HW246769  14.021   8.915   8.375
32644SOL     OW46770  16.101   8.231   6.835
32644SOL    HW146771  16.063   8.153   6.785
32644SOL    HW246772  16.134   8.201   6.924
32645SOL     OW46773   8.811   6.136   1.988
32645SOL    HW146774   8.726   6.179   2.018
32645SOL    HW246775   8.835   6.061   2.051
32646SOL     OW46776   2.918   1.976   2.172
32646SOL    HW146777   2.871   1.897   2.210
32646SOL    HW246778   2.870   2.060   2.197
32647SOL     OW46779   8.666  16.622   2.081
32647SOL    HW146780   8.714  16.706   2.056
32647SOL    HW246781   8.695  16.593   2.172
32648SOL     OW46782   7.659  10.951   1.448
32648SOL    HW146783   7.713  10.902   1.379
32648SOL    HW246784   7.708  11.034   1.475
32649SOL     OW46785   7.886   0.980   0.476
32649SOL    HW146786   7.967   0.937   0.518
32649SOL    HW246787   7.829   0.909   0.435
32650SOL     OW46788   8.025   4.974   1.426
32650SOL    HW146789   8.122   5.000   1.420
32650SOL    HW246790   8.004   4.946   1.519
32651SOL     OW46791   5.789   1.434   1.357
32651SOL    HW146792   5.709   1.463   1.409
32651SOL    HW246793   5.868   1.428   1.418
32652SOL     OW46794   3.921   7.647   1.020
32652SOL    HW146795   3.852   7.613   1.084
32652SOL    HW246796   4.009   7.604   1.040
32653SOL     OW46797  12.682   8.085   7.220
32653SOL    HW146798  12.615   8.079   7.146
32653SOL    HW246799  12.772   8.058   7.186
32654SOL     OW46800  12.792   8.744   7.809
32654SOL    HW146801  12.844   8.774   7.889
32654SOL    HW246802  12.722   8.678   7.838
32655SOL     OW46803   3.447  13.582   2.550
32655SOL    HW146804   3.377  13.642   2.588
32655SOL    HW246805   3.458  13.502   2.609
32656SOL     OW46806   4.535   2.153   7.791
32656SOL    HW146807   4.480   2.116   7.716
32656SOL    HW246808   4.480   2.216   7.845
32657SOL     OW46809   3.040   4.985   0.822
32657SOL    HW146810   3.106   4.961   0.751
32657SOL    HW246811   3.022   4.905   0.879
32658SOL     OW46812  15.956   5.532   7.747
32658SOL    HW146813  15.870   5.582   7.733
32658SOL    HW246814  16.017   5.550   7.670
32659SOL     OW46815  12.173   5.294   0.916
32659SOL    HW146816  12.085   5.259   0.883
32659SOL    HW246817  12.158   5.371   0.977
32660SOL     OW46818  10.982   3.086   0.965
32660SOL    HW146819  11.047   3.115   1.034
32660SOL    HW246820  10.971   3.159   0.897
32661SOL     OW46821  15.342   7.963   6.908
32661SOL    HW146822  15.391   7.949   6.995
32661SOL    HW246823  15.403   7.941   6.832
32662SOL     OW46824   6.783   1.418   0.219
32662SOL    HW146825   6.692   1.389   0.189
32662SOL    HW246826   6.781   1.439   0.316
32663SOL     OW46827   5.811   0.136   7.735
32663SOL    HW146828   5.864   0.107   7.655
32663SOL    HW246829   5.735   0.073   7.750
32664SOL     OW46830  14.544  14.311   8.054
32664SOL    HW146831  14.632  14.338   8.092
32664SOL    HW246832  14.547  14.319   7.954
32665SOL     OW46833   1.373  10.341   7.771
32665SOL    HW146834   1.356  10.390   7.685
32665SOL    HW246835   1.442  10.391   7.824
32666SOL     OW46836  15.963   9.743   1.152
32666SOL    HW146837  15.923   9.731   1.061
32666SOL    HW246838  16.062   9.728   1.147
32667SOL     OW46839  10.956   6.043   2.031
32667SOL    HW146840  10.946   6.129   2.081
32667SOL    HW246841  10.866   6.014   1.997
32668SOL     OW46842   1.116  16.033   1.808
32668SOL    HW146843   1.094  15.959   1.871
32668SOL    HW246844   1.071  16.117   1.837
32669SOL     OW46845   6.458  12.950   0.446
32669SOL    HW146846   6.371  12.988   0.479
32669SOL    HW246847   6.532  12.984   0.503
32670SOL     OW46848   7.737  13.223   7.472
32670SOL    HW146849   7.658  13.180   7.516
32670SOL    HW246850   7.790  13.153   7.423
32671SOL     OW46851   9.180   7.143   5.995
32671SOL    HW146852   9.168   7.097   5.907
32671SOL    HW246853   9.278   7.154   6.014
32672SOL     OW46854  11.280   7.096   6.278
32672SOL    HW146855  11.377   7.121   6.291
32672SOL    HW246856  11.241   7.154   6.207
32673SOL     OW46857  14.892   6.399   0.149
32673SOL    HW146858  14.861   6.482   0.103
32673SOL    HW246859  14.880   6.320   0.089
32674SOL     OW46860   9.653   6.010   6.654
32674SOL    HW146861   9.751   5.996   6.669
32674SOL    HW246862   9.638   6.037   6.559
32675SOL     OW46863   8.963  10.615   1.901
32675SOL    HW146864   9.051  10.571   1.884
32675SOL    HW246865   8.889  10.556   1.868
32676SOL     OW46866  16.944  10.927   2.436
32676SOL    HW146867   0.042  10.875   2.464
32676SOL    HW246868  16.918  10.990   2.509
32677SOL     OW46869   2.725  10.131   7.736
32677SOL    HW146870   2.748  10.164   7.828
32677SOL    HW246871   2.634  10.165   7.711
32678SOL     OW46872  14.869   9.780   1.559
32678SOL    HW146873  14.965   9.791   1.533
32678SOL    HW246874  14.811   9.820   1.489
32679SOL     OW46875   3.461  15.645   0.705
32679SOL    HW146876   3.449  15.682   0.798
32679SOL    HW246877   3.411  15.559   0.697
32680SOL     OW46878   6.241  10.898   2.107
32680SOL    HW146879   6.331  10.876   2.144
32680SOL    HW246880   6.175  10.828   2.135
32681SOL     OW46881  13.375  10.093   0.138
32681SOL    HW146882  13.332  10.165   0.083
32681SOL    HW246883  13.451  10.133   0.190
32682SOL     OW46884   8.545   8.622   1.093
32682SOL    HW146885   8.606   8.601   1.017
32682SOL    HW246886   8.512   8.537   1.134
32683SOL     OW46887   2.778   8.796   1.333
32683SOL    HW146888   2.861   8.844   1.360
32683SOL    HW246889   2.706   8.863   1.314
32684SOL     OW46890   9.519  16.677   0.707
32684SOL    HW146891   9.557  16.586   0.690
32684SOL    HW246892   9.556  16.741   0.638
32685SOL     OW46893   6.892   6.028   1.223
32685SOL    HW146894   6.923   6.004   1.314
32685SOL    HW246895   6.834   6.110   1.228
32686SOL     OW46896  14.629  13.669   1.962
32686SOL    HW146897  14.657  13.765   1.956
32686SOL    HW246898  14.540  13.658   1.918
32687SOL     OW46899   9.136   3.247   6.772
32687SOL    HW146900   9.084   3.333   6.771
32687SOL    HW246901   9.097   3.185   6.839
32688SOL     OW46902   5.782  16.696   1.462
32688SOL    HW146903   5.728  16.644   1.528
32688SOL    HW246904   5.750  16.676   1.370
32689SOL     OW46905   4.758   3.580   1.613
32689SOL    HW146906   4.815   3.608   1.690
32689SOL    HW246907   4.703   3.501   1.639
32690SOL     OW46908   3.159  15.328   7.033
32690SOL    HW146909   3.062  15.317   7.054
32690SOL    HW246910   3.170  15.348   6.936
32691SOL     OW46911   5.083  13.889   8.120
32691SOL    HW146912   5.125  13.802   8.093
32691SOL    HW246913   5.079  13.894   8.219
32692SOL     OW46914   2.120  15.627   7.934
32692SOL    HW146915   2.077  15.706   7.978
32692SOL    HW246916   2.219  15.637   7.937
32693SOL     OW46917   1.184   3.929   6.667
32693SOL    HW146918   1.217   3.902   6.576
32693SOL    HW246919   1.144   3.850   6.713
32694SOL     OW46920  13.344  15.124   2.028
32694SOL    HW146921  13.296  15.040   2.054
32694SOL    HW246922  13.425  15.136   2.085
32695SOL     OW46923   8.894   3.454   8.163
32695SOL    HW146924   8.983   3.479   8.125
32695SOL    HW246925   8.904   3.375   8.223
32696SOL     OW46926   3.907   7.931   1.784
32696SOL    HW146927   3.952   8.010   1.742
32696SOL    HW246928   3.932   7.926   1.881
32697SOL     OW46929  10.079  15.389   1.344
32697SOL    HW146930  10.017  15.409   1.268
32697SOL    HW246931  10.030  15.337   1.414
32698SOL     OW46932   2.910  13.941   1.418
32698SOL    HW146933   2.850  14.008   1.374
32698SOL    HW246934   2.932  13.869   1.353
32699SOL     OW46935   6.456   1.827   7.910
32699SOL    HW146936   6.437   1.729   7.921
32699SOL    HW246937   6.554   1.844   7.925
32700SOL     OW46938  16.739  13.477   7.008
32700SOL    HW146939  16.789  13.555   6.972
32700SOL    HW246940  16.767  13.394   6.959
32701SOL     OW46941   9.985  14.067   6.863
32701SOL    HW146942  10.051  14.006   6.906
32701SOL    HW246943  10.028  14.112   6.785
32702SOL     OW46944  16.583   4.010   0.173
32702SOL    HW146945  16.525   3.943   0.126
32702SOL    HW246946  16.652   4.045   0.109
32703SOL     OW46947  10.598  13.634   1.193
32703SOL    HW146948  10.618  13.725   1.156
32703SOL    HW246949  10.669  13.609   1.259
32704SOL     OW46950   6.747   2.554   0.267
32704SOL    HW146951   6.660   2.577   0.223
32704SOL    HW246952   6.786   2.636   0.309
32705SOL     OW46953   8.585   1.603   6.560
32705SOL    HW146954   8.597   1.675   6.492
32705SOL    HW246955   8.660   1.605   6.625
32706SOL     OW46956  14.420  11.546   1.196
32706SOL    HW146957  14.444  11.574   1.289
32706SOL    HW246958  14.482  11.474   1.166
32707SOL     OW46959  13.257  13.818   7.354
32707SOL    HW146960  13.284  13.794   7.261
32707SOL    HW246961  13.263  13.917   7.366
32708SOL     OW46962  11.813  16.011   1.939
32708SOL    HW146963  11.767  16.041   1.855
32708SOL    HW246964  11.878  16.081   1.968
32709SOL     OW46965  15.608   4.255   1.645
32709SOL    HW146966  15.680   4.279   1.580
32709SOL    HW246967  15.645   4.192   1.714
32710SOL     OW46968  15.884   2.510   8.051
32710SOL    HW146969  15.848   2.447   7.983
32710SOL    HW246970  15.826   2.592   8.054
32711SOL     OW46971  16.667  12.322   8.262
32711SOL    HW146972  16.663  12.237   8.209
32711SOL    HW246973  16.706  12.395   8.205
32712SOL     OW46974  13.279   2.224   1.256
32712SOL    HW146975  13.195   2.176   1.280
32712SOL    HW246976  13.265   2.275   1.171
32713SOL     OW46977  13.766   6.043   7.355
32713SOL    HW146978  13.668   6.065   7.359
32713SOL    HW246979  13.810   6.071   7.440
32714SOL     OW46980  12.520   3.212   6.705
32714SOL    HW146981  12.460   3.143   6.745
32714SOL    HW246982  12.611   3.172   6.689
32715SOL     OW46983   1.001   8.566   8.178
32715SOL    HW146984   0.903   8.584   8.194
32715SOL    HW246985   1.048   8.653   8.161
32716SOL     OW46986   7.775   0.878   8.012
32716SOL    HW146987   7.683   0.857   8.045
32716SOL    HW246988   7.818   0.943   8.075
32717SOL     OW46989  16.620   0.564   0.783
32717SOL    HW146990  16.587   0.544   0.691
32717SOL    HW246991  16.567   0.639   0.823
32718SOL     OW46992   7.818   7.000   8.189
32718SOL    HW146993   7.872   7.078   8.221
32718SOL    HW246994   7.867   6.915   8.210
32719SOL     OW46995   7.989  14.994   8.182
32719SOL    HW146996   7.979  15.093   8.191
32719SOL    HW246997   8.044  14.973   8.102
32720SOL     OW46998   6.572  15.627   1.363
32720SOL    HW146999   6.579  15.528   1.350
32720SOL    HW247000   6.663  15.667   1.370
32721SOL     OW47001   0.677  10.484   0.210
32721SOL    HW147002   0.651  10.531   0.125
32721SOL    HW247003   0.721  10.549   0.271
32722SOL     OW47004  16.337   2.998   7.370
32722SOL    HW147005  16.398   3.002   7.291
32722SOL    HW247006  16.388   2.972   7.452
32723SOL     OW47007   2.267  11.776   1.224
32723SOL    HW147008   2.209  11.695   1.216
32723SOL    HW247009   2.269  11.824   1.136
32724SOL     OW47010  12.492  16.620   1.629
32724SOL    HW147011  12.574  16.663   1.592
32724SOL    HW247012  12.483  16.642   1.726
32725SOL     OW47013   8.209  11.368   8.324
32725SOL    HW147014   8.267  11.290   8.347
32725SOL    HW247015   8.171  11.407   8.408
32726SOL     OW47016  13.933   9.636   0.475
32726SOL    HW147017  13.930   9.732   0.502
32726SOL    HW247018  13.846   9.592   0.498
32727SOL     OW47019   3.190   0.224   0.304
32727SOL    HW147020   3.129   0.280   0.359
32727SOL    HW247021   3.226   0.149   0.360
32728SOL     OW47022   2.012   7.318   7.714
32728SOL    HW147023   1.947   7.391   7.736
32728SOL    HW247024   2.105   7.349   7.735
32729SOL     OW47025   6.533  16.822   7.740
32729SOL    HW147026   6.464  16.872   7.688
32729SOL    HW247027   6.605  16.885   7.769
32730SOL     OW47028  13.828   1.789   7.980
32730SOL    HW147029  13.817   1.768   7.883
32730SOL    HW247030  13.920   1.825   7.996
32731SOL     OW47031  13.124   8.206   8.448
32731SOL    HW147032  13.186   8.137   0.030
32731SOL    HW247033  13.051   8.162   8.396
32732SOL     OW47034   5.997   9.575   7.106
32732SOL    HW147035   5.928   9.504   7.114
32732SOL    HW247036   6.084   9.543   7.144
32733SOL     OW47037  11.862   5.569   7.345
32733SOL    HW147038  11.813   5.642   7.297
32733SOL    HW247039  11.814   5.482   7.331
32734SOL     OW47040   0.308   5.639   7.294
32734SOL    HW147041   0.335   5.596   7.380
32734SOL    HW247042   0.240   5.710   7.312
32735SOL     OW47043   5.104   0.110   0.970
32735SOL    HW147044   5.125   0.061   1.055
32735SOL    HW247045   5.111   0.209   0.986
32736SOL     OW47046   6.107   2.385   0.864
32736SOL    HW147047   6.205   2.382   0.879
32736SOL    HW247048   6.068   2.462   0.915
32737SOL     OW47049  10.103   9.979   1.438
32737SOL    HW147050  10.158   9.935   1.510
32737SOL    HW247051  10.158  10.050   1.393
32738SOL     OW47052  10.387  14.449   0.657
32738SOL    HW147053  10.470  14.455   0.602
32738SOL    HW247054  10.313  14.411   0.601
32739SOL     OW47055  14.933   4.240   0.476
32739SOL    HW147056  14.862   4.293   0.430
32739SOL    HW247057  14.961   4.287   0.560
32740SOL     OW47058  13.058   3.440   6.557
32740SOL    HW147059  13.018   3.451   6.466
32740SOL    HW247060  12.987   3.414   6.622
32741SOL     OW47061   4.544   3.689   6.671
32741SOL    HW147062   4.629   3.654   6.631
32741SOL    HW247063   4.527   3.782   6.638
32742SOL     OW47064   1.987   6.811   0.925
32742SOL    HW147065   1.887   6.802   0.921
32742SOL    HW247066   2.014   6.893   0.875
32743SOL     OW47067   7.217   9.920   0.243
32743SOL    HW147068   7.131   9.875   0.221
32743SOL    HW247069   7.291   9.881   0.188
32744SOL     OW47070  14.082   6.504   0.324
32744SOL    HW147071  14.132   6.454   0.254
32744SOL    HW247072  14.128   6.494   0.412
32745SOL     OW47073   9.467   1.023   1.794
32745SOL    HW147074   9.532   1.087   1.835
32745SOL    HW247075   9.474   1.027   1.695
32746SOL     OW47076   3.479  15.299   0.871
32746SOL    HW147077   3.468  15.200   0.877
32746SOL    HW247078   3.426  15.334   0.794
32747SOL     OW47079   9.263  11.730   1.099
32747SOL    HW147080   9.247  11.776   1.187
32747SOL    HW247081   9.184  11.674   1.076
32748SOL     OW47082   5.488  14.201   6.744
32748SOL    HW147083   5.487  14.284   6.688
32748SOL    HW247084   5.402  14.152   6.731
32749SOL     OW47085  16.871   5.328   6.712
32749SOL    HW147086  16.787   5.315   6.659
32749SOL    HW247087  16.936   5.255   6.689
32750SOL     OW47088  11.531   7.036   7.777
32750SOL    HW147089  11.601   7.046   7.849
32750SOL    HW247090  11.569   7.066   7.690
32751SOL     OW47091   6.956   1.464   7.723
32751SOL    HW147092   7.000   1.382   7.758
32751SOL    HW247093   7.024   1.537   7.714
32752SOL     OW47094  13.210   4.971   6.792
32752SOL    HW147095  13.176   4.907   6.722
32752SOL    HW247096  13.132   5.006   6.845
32753SOL     OW47097  14.128   3.675   7.071
32753SOL    HW147098  14.227   3.672   7.079
32753SOL    HW247099  14.102   3.745   7.004
32754SOL     OW47100   9.902  14.190   1.538
32754SOL    HW147101   9.873  14.130   1.612
32754SOL    HW247102   9.980  14.149   1.490
32755SOL     OW47103  14.545   3.508   7.636
32755SOL    HW147104  14.495   3.589   7.666
32755SOL    HW247105  14.617   3.487   7.702
32756SOL     OW47106  12.428   6.894   7.015
32756SOL    HW147107  12.508   6.923   6.963
32756SOL    HW247108  12.440   6.799   7.044
32757SOL     OW47109   9.012   7.930   0.221
32757SOL    HW147110   9.001   8.025   0.251
32757SOL    HW247111   9.109   7.907   0.219
32758SOL     OW47112   3.403   2.946   1.507
32758SOL    HW147113   3.487   2.912   1.550
32758SOL    HW247114   3.408   2.931   1.409
32759SOL     OW47115  14.823   6.291   0.602
32759SOL    HW147116  14.733   6.335   0.607
32759SOL    HW247117  14.877   6.334   0.530
32760SOL     OW47118   4.686  13.835   0.792
32760SOL    HW147119   4.702  13.739   0.812
32760SOL    HW247120   4.774  13.881   0.775
32761SOL     OW47121   5.551   6.415   6.996
32761SOL    HW147122   5.642   6.448   6.973
32761SOL    HW247123   5.508   6.376   6.915
32762SOL     OW47124   1.399  11.588   0.877
32762SOL    HW147125   1.464  11.577   0.801
32762SOL    HW247126   1.368  11.683   0.882
32763SOL     OW47127   9.534   5.273   7.898
32763SOL    HW147128   9.588   5.202   7.944
32763SOL    HW247129   9.565   5.281   7.803
32764SOL     OW47130   4.355   5.554   1.081
32764SOL    HW147131   4.340   5.579   1.177
32764SOL    HW247132   4.267   5.532   1.039
32765SOL     OW47133   6.403  11.949   0.289
32765SOL    HW147134   6.418  11.961   0.387
32765SOL    HW247135   6.420  12.035   0.242
32766SOL     OW47136   9.043  14.084   0.046
32766SOL    HW147137   9.117  14.024   0.076
32766SOL    HW247138   9.045  14.092   8.400
32767SOL     OW47139   7.273   9.324   0.617
32767SOL    HW147140   7.265   9.388   0.540
32767SOL    HW247141   7.184   9.313   0.661
32768SOL     OW47142   8.246   2.342   2.014
32768SOL    HW147143   8.236   2.245   1.989
32768SOL    HW247144   8.322   2.352   2.078
32769SOL     OW47145   0.826  11.184   7.748
32769SOL    HW147146   0.840  11.128   7.667
32769SOL    HW247147   0.903  11.246   7.761
32770SOL     OW47148  10.176  13.580   0.258
32770SOL    HW147149  10.204  13.603   0.351
32770SOL    HW247150  10.254  13.542   0.208
32771SOL     OW47151   4.445  12.067   0.824
32771SOL    HW147152   4.539  12.098   0.810
32771SOL    HW247153   4.387  12.105   0.752
32772SOL     OW47154  15.602  11.725   7.909
32772SOL    HW147155  15.623  11.635   7.872
32772SOL    HW247156  15.646  11.736   7.998
32773SOL     OW47157  16.051   2.839   6.418
32773SOL    HW147158  15.962   2.835   6.463
32773SOL    HW247159  16.040   2.821   6.320
32774SOL     OW47160  13.130  13.315   1.729
32774SOL    HW147161  13.102  13.394   1.674
32774SOL    HW247162  13.060  13.295   1.797
32775SOL     OW47163  16.869  13.016   0.580
32775SOL    HW147164  16.923  13.088   0.537
32775SOL    HW247165  16.840  12.950   0.510
32776SOL     OW47166  13.898   1.297   1.122
32776SOL    HW147167  13.911   1.320   1.025
32776SOL    HW247168  13.823   1.352   1.159
32777SOL     OW47169   2.780   4.990   8.061
32777SOL    HW147170   2.780   5.075   8.008
32777SOL    HW247171   2.743   4.916   8.005
32778SOL     OW47172  10.140   6.065   0.462
32778SOL    HW147173  10.075   6.052   0.387
32778SOL    HW247174  10.146   6.161   0.485
32779SOL     OW47175   0.278   2.807   7.493
32779SOL    HW147176   0.216   2.739   7.533
32779SOL    HW247177   0.230   2.894   7.482
32780SOL     OW47178  11.934  13.781   0.597
32780SOL    HW147179  11.946  13.798   0.499
32780SOL    HW247180  11.840  13.750   0.613
32781SOL     OW47181  13.518  16.703   8.012
32781SOL    HW147182  13.471  16.709   7.925
32781SOL    HW247183  13.617  16.702   7.997
32782SOL     OW47184  11.002   1.587   6.190
32782SOL    HW147185  11.057   1.538   6.123
32782SOL    HW247186  10.917   1.537   6.206
32783SOL     OW47187   4.848   8.639   7.881
32783SOL    HW147188   4.865   8.692   7.964
32783SOL    HW247189   4.763   8.587   7.891
32784SOL     OW47190  12.882   8.367   8.183
32784SOL    HW147191  12.859   8.366   8.086
32784SOL    HW247192  12.801   8.389   8.237
32785SOL     OW47193   7.591  13.407   1.668
32785SOL    HW147194   7.648  13.388   1.748
32785SOL    HW247195   7.649  13.410   1.586
32786SOL     OW47196  16.231  12.057   1.992
32786SOL    HW147197  16.136  12.039   1.969
32786SOL    HW247198  16.281  11.970   2.000
32787SOL     OW47199  16.465   0.659   0.164
32787SOL    HW147200  16.528   0.647   0.241
32787SOL    HW247201  16.498   0.606   0.086
32788SOL     OW47202   3.165  13.300   0.483
32788SOL    HW147203   3.204  13.209   0.468
32788SOL    HW247204   3.168  13.352   0.398
32789SOL     OW47205   9.275  16.350   6.629
32789SOL    HW147206   9.360  16.376   6.675
32789SOL    HW247207   9.241  16.264   6.668
32790SOL     OW47208   3.660  14.156   7.995
32790SOL    HW147209   3.746  14.126   7.955
32790SOL    HW247210   3.661  14.139   8.094
32791SOL     OW47211   6.462  10.269   2.450
32791SOL    HW147212   6.498  10.359   2.472
32791SOL    HW247213   6.370  10.260   2.487
32792SOL     OW47214  12.493   4.436   6.708
32792SOL    HW147215  12.493   4.393   6.618
32792SOL    HW247216  12.476   4.534   6.698
32793SOL     OW47217   2.480   9.398   1.257
32793SOL    HW147218   2.405   9.454   1.293
32793SOL    HW247219   2.443   9.316   1.214
32794SOL     OW47220   0.702  10.704   1.896
32794SOL    HW147221   0.643  10.699   1.816
32794SOL    HW247222   0.705  10.798   1.929
32795SOL     OW47223  14.792  16.443   1.923
32795SOL    HW147224  14.884  16.404   1.929
32795SOL    HW247225  14.794  16.539   1.950
32796SOL     OW47226  13.893   9.936   1.558
32796SOL    HW147227  13.936   9.934   1.649
32796SOL    HW247228  13.961   9.964   1.490
32797SOL     OW47229   3.325   7.509   8.123
32797SOL    HW147230   3.412   7.491   8.076
32797SOL    HW247231   3.292   7.425   8.166
32798SOL     OW47232   2.814   2.977   7.937
32798SOL    HW147233   2.795   3.075   7.940
32798SOL    HW247234   2.800   2.943   7.844
32799SOL     OW47235   5.582   5.567   1.529
32799SOL    HW147236   5.515   5.529   1.593
32799SOL    HW247237   5.564   5.664   1.514
32800SOL     OW47238  16.151  15.745   1.517
32800SOL    HW147239  16.155  15.648   1.540
32800SOL    HW247240  16.083  15.791   1.574
32801SOL     OW47241   0.419   9.201   7.110
32801SOL    HW147242   0.339   9.146   7.134
32801SOL    HW247243   0.434   9.197   7.011
32802SOL     OW47244  10.613   0.050   2.118
32802SOL    HW147245  10.595   0.132   2.065
32802SOL    HW247246  10.708   0.020   2.101
32803SOL     OW47247   3.843  14.746   8.277
32803SOL    HW147248   3.833  14.842   8.251
32803SOL    HW247249   3.756  14.699   8.262
32804SOL     OW47250   3.633  12.756   7.806
32804SOL    HW147251   3.540  12.791   7.821
32804SOL    HW247252   3.699  12.829   7.821
32805SOL     OW47253   0.480  11.359   8.320
32805SOL    HW147254   0.473  11.417   8.239
32805SOL    HW247255   0.409  11.289   8.318
32806SOL     OW47256   7.882   1.506   7.443
32806SOL    HW147257   7.884   1.547   7.535
32806SOL    HW247258   7.843   1.414   7.449
32807SOL     OW47259  10.197   0.819   0.392
32807SOL    HW147260  10.130   0.893   0.394
32807SOL    HW247261  10.257   0.827   0.472
32808SOL     OW47262   1.356  11.858   0.868
32808SOL    HW147263   1.389  11.892   0.780
32808SOL    HW247264   1.410  11.899   0.942
32809SOL     OW47265   3.830   2.994   1.479
32809SOL    HW147266   3.881   3.017   1.561
32809SOL    HW247267   3.762   2.923   1.500
32810SOL     OW47268   3.125   4.820   7.434
32810SOL    HW147269   3.182   4.840   7.514
32810SOL    HW247270   3.165   4.863   7.354
32811SOL     OW47271   2.596   3.768   7.087
32811SOL    HW147272   2.498   3.773   7.070
32811SOL    HW247273   2.643   3.736   7.005
32812SOL     OW47274  10.501  14.218   7.902
32812SOL    HW147275  10.588  14.205   7.950
32812SOL    HW247276  10.510  14.292   7.836
32813SOL     OW47277   1.792   2.673   1.124
32813SOL    HW147278   1.712   2.689   1.182
32813SOL    HW247279   1.777   2.591   1.069
32814SOL     OW47280   0.392  15.085   1.708
32814SOL    HW147281   0.395  14.997   1.661
32814SOL    HW247282   0.306  15.094   1.758
32815SOL     OW47283  11.688  16.766   7.202
32815SOL    HW147284  11.783  16.737   7.198
32815SOL    HW247285  11.683  16.864   7.222
32816SOL     OW47286   2.559   4.931   7.701
32816SOL    HW147287   2.468   4.891   7.707
32816SOL    HW247288   2.618   4.890   7.770
32817SOL     OW47289  10.031  10.146   1.993
32817SOL    HW147290   9.981  10.107   2.070
32817SOL    HW247291   9.990  10.115   1.907
32818SOL     OW47292   9.453   1.923   0.295
32818SOL    HW147293   9.459   1.826   0.272
32818SOL    HW247294   9.517   1.975   0.240
32819SOL     OW47295  15.614  15.837   1.238
32819SOL    HW147296  15.528  15.789   1.259
32819SOL    HW247297  15.646  15.810   1.147
32820SOL     OW47298   7.300   6.564   1.538
32820SOL    HW147299   7.307   6.641   1.601
32820SOL    HW247300   7.240   6.494   1.578
32821SOL     OW47301   4.055  16.172   7.019
32821SOL    HW147302   4.104  16.239   6.964
32821SOL    HW247303   4.120  16.102   7.052
32822SOL     OW47304   8.307  11.133   0.989
32822SOL    HW147305   8.242  11.183   0.931
32822SOL    HW247306   8.285  11.150   1.085
32823SOL     OW47307  16.827  14.276   7.359
32823SOL    HW147308  16.918  14.260   7.319
32823SOL    HW247309  16.829  14.360   7.413
32824SOL     OW47310   9.623   5.078   0.560
32824SOL    HW147311   9.531   5.054   0.530
32824SOL    HW247312   9.617   5.148   0.631
32825SOL     OW47313   6.404  15.128   7.106
32825SOL    HW147314   6.325  15.137   7.167
32825SOL    HW247315   6.441  15.219   7.086
32826SOL     OW47316  13.353   7.050   6.942
32826SOL    HW147317  13.259   7.083   6.951
32826SOL    HW247318  13.400   7.104   6.872
32827SOL     OW47319   5.343  11.234   1.393
32827SOL    HW147320   5.247  11.253   1.416
32827SOL    HW247321   5.346  11.171   1.315
32828SOL     OW47322   1.921   4.845   7.490
32828SOL    HW147323   1.860   4.807   7.420
32828SOL    HW247324   2.016   4.830   7.464
32829SOL     OW47325  13.804  15.299   1.488
32829SOL    HW147326  13.807  15.293   1.388
32829SOL    HW247327  13.726  15.246   1.521
32830SOL     OW47328  14.347   0.478   0.299
32830SOL    HW147329  14.354   0.504   0.203
32830SOL    HW247330  14.310   0.385   0.306
32831SOL     OW47331   3.442   3.723   1.635
32831SOL    HW147332   3.421   3.644   1.578
32831SOL    HW247333   3.535   3.715   1.670
32832SOL     OW47334   7.632   2.707   6.049
32832SOL    HW147335   7.675   2.625   6.010
32832SOL    HW247336   7.570   2.748   5.982
32833SOL     OW47337  12.567   4.632   7.810
32833SOL    HW147338  12.601   4.699   7.875
32833SOL    HW247339  12.644   4.588   7.764
32834SOL     OW47340   2.203  12.803   2.107
32834SOL    HW147341   2.135  12.734   2.079
32834SOL    HW247342   2.257  12.768   2.183
32835SOL     OW47343   8.699   9.061   7.201
32835SOL    HW147344   8.668   9.136   7.141
32835SOL    HW247345   8.779   9.091   7.253
32836SOL     OW47346  15.527  14.027   6.779
32836SOL    HW147347  15.561  14.119   6.759
32836SOL    HW247348  15.556  13.964   6.707
32837SOL     OW47349   4.472   5.460   0.541
32837SOL    HW147350   4.426   5.530   0.596
32837SOL    HW247351   4.495   5.498   0.451
32838SOL     OW47352   8.249   6.535   7.917
32838SOL    HW147353   8.153   6.544   7.890
32838SOL    HW247354   8.254   6.523   8.016
32839SOL     OW47355   5.660   2.963   1.331
32839SOL    HW147356   5.574   2.994   1.289
32839SOL    HW247357   5.699   3.037   1.385
32840SOL     OW47358   8.935   4.802   1.998
32840SOL    HW147359   8.868   4.730   2.012
32840SOL    HW247360   9.018   4.782   2.051
32841SOL     OW47361  16.633  13.679   8.326
32841SOL    HW147362  16.679  13.767   8.328
32841SOL    HW247363  16.534  13.693   8.322
32842SOL     OW47364   6.194   2.021   0.063
32842SOL    HW147365   6.187   2.119   0.050
32842SOL    HW247366   6.252   1.981   8.446
32843SOL     OW47367   5.474  13.835   6.996
32843SOL    HW147368   5.434  13.927   6.997
32843SOL    HW247369   5.465  13.796   6.904
32844SOL     OW47370   9.545   8.791   0.998
32844SOL    HW147371   9.643   8.789   0.978
32844SOL    HW247372   9.524   8.875   1.048
32845SOL     OW47373  14.791   1.723   8.365
32845SOL    HW147374  14.873   1.702   8.418
32845SOL    HW247375  14.806   1.699   8.269
32846SOL     OW47376   3.079  16.783   1.304
32846SOL    HW147377   3.142  16.727   1.358
32846SOL    HW247378   2.985  16.754   1.321
32847SOL     OW47379   8.523   3.241   7.390
32847SOL    HW147380   8.596   3.231   7.322
32847SOL    HW247381   8.435   3.248   7.343
32848SOL     OW47382  14.237  12.460   0.345
32848SOL    HW147383  14.264  12.542   0.295
32848SOL    HW247384  14.152  12.477   0.395
32849SOL     OW47385   2.767  16.901   1.155
32849SOL    HW147386   2.767  16.873   1.251
32849SOL    HW247387   2.846  16.859   1.109
32850SOL     OW47388   0.661   2.958   7.497
32850SOL    HW147389   0.711   3.009   7.427
32850SOL    HW247390   0.619   2.877   7.455
32851SOL     OW47391   7.253   3.415   8.066
32851SOL    HW147392   7.335   3.358   8.072
32851SOL    HW247393   7.263   3.494   8.127
32852SOL     OW47394  12.543  15.935   8.198
32852SOL    HW147395  12.559  16.032   8.180
32852SOL    HW247396  12.556  15.882   8.114
32853SOL     OW47397   5.719   8.676   0.472
32853SOL    HW147398   5.660   8.736   0.419
32853SOL    HW247399   5.745   8.597   0.416
32854SOL     OW47400  14.331  12.097   0.685
32854SOL    HW147401  14.335  12.063   0.779
32854SOL    HW247402  14.237  12.095   0.653
32855SOL     OW47403  14.166   9.802   7.383
32855SOL    HW147404  14.243   9.865   7.373
32855SOL    HW247405  14.156   9.777   7.479
32856SOL     OW47406  11.381   0.008   8.355
32856SOL    HW147407  11.436  16.919   8.397
32856SOL    HW247408  11.403   0.096   8.397
32857SOL     OW47409  10.435  15.239   8.067
32857SOL    HW147410  10.513  15.301   8.057
32857SOL    HW247411  10.469  15.145   8.074
32858SOL     OW47412  16.108   9.149   0.001
32858SOL    HW147413  16.056   9.213   0.057
32858SOL    HW247414  16.053   9.123   8.375
32859SOL     OW47415   3.890   8.758   6.659
32859SOL    HW147416   3.986   8.780   6.644
32859SOL    HW247417   3.833   8.813   6.598
32860SOL     OW47418   1.997  15.212   7.695
32860SOL    HW147419   1.911  15.230   7.743
32860SOL    HW247420   2.063  15.283   7.720
32861SOL     OW47421  13.285   3.354   0.454
32861SOL    HW147422  13.205   3.314   0.409
32861SOL    HW247423  13.305   3.304   0.538
32862SOL     OW47424   8.854  14.254   7.537
32862SOL    HW147425   8.863  14.275   7.635
32862SOL    HW247426   8.929  14.196   7.509
32863SOL     OW47427   3.681   4.940   1.461
32863SOL    HW147428   3.773   4.954   1.425
32863SOL    HW247429   3.660   4.843   1.463
32864SOL     OW47430  16.697  12.423   1.466
32864SOL    HW147431  16.782  12.431   1.517
32864SOL    HW247432  16.714  12.440   1.369
32865SOL     OW47433   0.495  12.597   0.133
32865SOL    HW147434   0.572  12.660   0.122
32865SOL    HW247435   0.492  12.534   0.055
32866SOL     OW47436  12.198  11.078   1.692
32866SOL    HW147437  12.209  11.176   1.709
32866SOL    HW247438  12.227  11.057   1.598
32867SOL     OW47439   2.477  11.512   8.306
32867SOL    HW147440   2.483  11.452   8.386
32867SOL    HW247441   2.459  11.605   8.337
32868SOL     OW47442  12.035   6.209   8.352
32868SOL    HW147443  11.980   6.126   8.360
32868SOL    HW247444  12.046   6.251   8.442
32869SOL     OW47445   1.856   1.671   7.360
32869SOL    HW147446   1.883   1.750   7.415
32869SOL    HW247447   1.937   1.613   7.344
32870SOL     OW47448  11.877   4.896   7.098
32870SOL    HW147449  11.841   4.972   7.044
32870SOL    HW247450  11.944   4.846   7.044
32871SOL     OW47451  15.390  10.082   6.850
32871SOL    HW147452  15.420  10.172   6.819
32871SOL    HW247453  15.465  10.038   6.901
32872SOL     OW47454   2.230   6.379   0.945
32872SOL    HW147455   2.233   6.323   0.862
32872SOL    HW247456   2.142   6.365   0.992
32873SOL     OW47457  11.617   5.348   0.429
32873SOL    HW147458  11.547   5.396   0.376
32873SOL    HW247459  11.594   5.353   0.526
32874SOL     OW47460   3.167   7.397   6.042
32874SOL    HW147461   3.136   7.449   6.121
32874SOL    HW247462   3.105   7.414   5.965
32875SOL     OW47463   7.588   3.307   0.870
32875SOL    HW147464   7.645   3.290   0.951
32875SOL    HW247465   7.646   3.307   0.788
32876SOL     OW47466   0.924  11.847   7.482
32876SOL    HW147467   0.951  11.937   7.446
32876SOL    HW247468   0.943  11.777   7.415
32877SOL     OW47469   3.198  12.628   1.401
32877SOL    HW147470   3.126  12.644   1.468
32877SOL    HW247471   3.204  12.707   1.340
32878SOL     OW47472  12.423   7.511   7.684
32878SOL    HW147473  12.420   7.610   7.666
32878SOL    HW247474  12.354   7.466   7.628
32879SOL     OW47475   0.342   1.058   1.772
32879SOL    HW147476   0.332   1.023   1.865
32879SOL    HW247477   0.307   1.152   1.768
32880SOL     OW47478  11.157  11.346   2.211
32880SOL    HW147479  11.255  11.354   2.228
32880SOL    HW247480  11.110  11.321   2.296
32881SOL     OW47481  11.382   5.116   7.427
32881SOL    HW147482  11.423   5.153   7.344
32881SOL    HW247483  11.309   5.052   7.403
32882SOL     OW47484   1.203   1.039   0.132
32882SOL    HW147485   1.177   0.976   0.205
32882SOL    HW247486   1.297   1.021   0.105
32883SOL     OW47487  14.724  11.910   1.269
32883SOL    HW147488  14.685  11.966   1.196
32883SOL    HW247489  14.810  11.950   1.301
32884SOL     OW47490  11.811  11.320   7.265
32884SOL    HW147491  11.872  11.387   7.222
32884SOL    HW247492  11.738  11.296   7.201
32885SOL     OW47493   7.984  16.109   8.452
32885SOL    HW147494   7.935  16.099   0.085
32885SOL    HW247495   7.918  16.111   8.377
32886SOL     OW47496   0.252   6.763   0.513
32886SOL    HW147497   0.225   6.858   0.524
32886SOL    HW247498   0.174   6.703   0.534
32887SOL     OW47499   6.449   8.991   1.321
32887SOL    HW147500   6.440   8.924   1.248
32887SOL    HW247501   6.360   9.005   1.365
32888SOL     OW47502   8.927   2.676   6.821
32888SOL    HW147503   8.996   2.610   6.854
32888SOL    HW247504   8.881   2.638   6.741
32889SOL     OW47505   5.392   2.907   1.161
32889SOL    HW147506   5.298   2.903   1.193
32889SOL    HW247507   5.424   2.816   1.137
32890SOL     OW47508  16.336   0.826   2.002
32890SOL    HW147509  16.358   0.881   2.082
32890SOL    HW247510  16.242   0.792   2.009
32891SOL     OW47511  13.423   7.930   8.140
32891SOL    HW147512  13.468   8.019   8.150
32891SOL    HW247513  13.487   7.865   8.100
32892SOL     OW47514  12.368   6.811   8.278
32892SOL    HW147515  12.303   6.763   8.336
32892SOL    HW247516  12.319   6.869   8.213
32893SOL     OW47517   0.211   6.568   6.849
32893SOL    HW147518   0.115   6.556   6.874
32893SOL    HW247519   0.222   6.549   6.752
32894SOL     OW47520   0.405   2.669   0.133
32894SOL    HW147521   0.374   2.756   0.172
32894SOL    HW247522   0.504   2.661   0.143
32895SOL     OW47523   4.178   0.271   8.415
32895SOL    HW147524   4.219   0.339   8.355
32895SOL    HW247525   4.130   0.203   8.360
32896SOL     OW47526  16.937   1.105   6.570
32896SOL    HW147527  16.884   1.100   6.485
32896SOL    HW247528   0.042   1.149   6.553
32897SOL     OW47529  14.423   1.300   7.922
32897SOL    HW147530  14.417   1.200   7.928
32897SOL    HW247531  14.469   1.326   7.838
32898SOL     OW47532   9.887  16.511   7.069
32898SOL    HW147533   9.871  16.566   6.988
32898SOL    HW247534   9.985  16.513   7.092
32899SOL     OW47535   0.416   5.785   7.076
32899SOL    HW147536   0.434   5.731   6.994
32899SOL    HW247537   0.389   5.724   7.151
32900SOL     OW47538  16.782   5.423   6.957
32900SOL    HW147539  16.813   5.383   6.871
32900SOL    HW247540  16.861   5.443   7.015
32901SOL     OW47541  13.887   0.550   0.092
32901SOL    HW147542  13.966   0.565   0.153
32901SOL    HW247543  13.806   0.591   0.133
32902SOL     OW47544   2.201   6.149   0.434
32902SOL    HW147545   2.266   6.106   0.371
32902SOL    HW247546   2.187   6.245   0.407
32903SOL     OW47547  12.623   5.870   0.473
32903SOL    HW147548  12.571   5.915   0.400
32903SOL    HW247549  12.564   5.854   0.551
32904SOL     OW47550  12.409   9.525   0.586
32904SOL    HW147551  12.391   9.585   0.663
32904SOL    HW247552  12.325   9.477   0.561
32905SOL     OW47553   8.279  11.342   6.989
32905SOL    HW147554   8.293  11.344   6.890
32905SOL    HW247555   8.361  11.376   7.035
32906SOL     OW47556  14.553   3.626   7.385
32906SOL    HW147557  14.580   3.572   7.306
32906SOL    HW247558  14.559   3.570   7.467
32907SOL     OW47559  16.340   3.635   8.202
32907SOL    HW147560  16.305   3.725   8.230
32907SOL    HW247561  16.265   3.568   8.205
32908SOL     OW47562   0.918   8.133   6.267
32908SOL    HW147563   0.969   8.196   6.325
32908SOL    HW247564   0.845   8.090   6.320
32909SOL     OW47565   8.615   0.008   1.697
32909SOL    HW147566   8.697  16.967   1.646
32909SOL    HW247567   8.589   0.102   1.675
32910SOL     OW47568   2.544   4.792   0.989
32910SOL    HW147569   2.462   4.772   1.044
32910SOL    HW247570   2.617   4.729   1.015
32911SOL     OW47571   3.353  15.810   2.790
32911SOL    HW147572   3.430  15.841   2.735
32911SOL    HW247573   3.352  15.710   2.792
32912SOL     OW47574  11.775   0.425   7.240
32912SOL    HW147575  11.726   0.463   7.162
32912SOL    HW247576  11.846   0.363   7.208
32913SOL     OW47577   8.181   2.689   0.934
32913SOL    HW147578   8.150   2.605   0.889
32913SOL    HW247579   8.279   2.682   0.953
32914SOL     OW47580   7.251  10.120   7.181
32914SOL    HW147581   7.329  10.160   7.228
32914SOL    HW247582   7.206  10.054   7.242
32915SOL     OW47583   5.136  16.949   2.288
32915SOL    HW147584   5.060  16.888   2.311
32915SOL    HW247585   5.145   0.036   2.359
32916SOL     OW47586   3.122  13.163   1.859
32916SOL    HW147587   3.025  13.179   1.881
32916SOL    HW247588   3.161  13.245   1.819
32917SOL     OW47589   7.333   5.274   7.605
32917SOL    HW147590   7.411   5.318   7.560
32917SOL    HW247591   7.352   5.176   7.615
32918SOL     OW47592   1.152  14.883   8.450
32918SOL    HW147593   1.203  14.914   0.076
32918SOL    HW247594   1.132  14.961   8.391
32919SOL     OW47595   5.212   8.097   7.829
32919SOL    HW147596   5.301   8.052   7.836
32919SOL    HW247597   5.139   8.032   7.852
32920SOL     OW47598  16.094   5.686   0.696
32920SOL    HW147599  16.012   5.670   0.641
32920SOL    HW247600  16.146   5.601   0.704
32921SOL     OW47601  14.594   2.751   1.115
32921SOL    HW147602  14.530   2.760   1.039
32921SOL    HW247603  14.588   2.832   1.174
32922SOL     OW47604  14.707   6.463   6.341
32922SOL    HW147605  14.708   6.395   6.415
32922SOL    HW247606  14.761   6.543   6.367
32923SOL     OW47607   5.425  11.426   7.351
32923SOL    HW147608   5.341  11.437   7.298
32923SOL    HW247609   5.483  11.358   7.307
32924SOL     OW47610  16.287  16.119   0.168
32924SOL    HW147611  16.373  16.118   0.118
32924SOL    HW247612  16.305  16.101   0.265
32925SOL     OW47613  10.382   0.720   7.580
32925SOL    HW147614  10.447   0.672   7.522
32925SOL    HW247615  10.295   0.671   7.581
32926SOL     OW47616   9.647  10.833   1.117
32926SOL    HW147617   9.732  10.786   1.140
32926SOL    HW247618   9.581  10.822   1.192
32927SOL     OW47619  13.183  14.164   1.355
32927SOL    HW147620  13.100  14.132   1.401
32927SOL    HW247621  13.158  14.231   1.285
32928SOL     OW47622   8.518   9.786   7.290
32928SOL    HW147623   8.562   9.844   7.222
32928SOL    HW247624   8.586   9.729   7.335
32929SOL     OW47625  11.668   5.159   0.905
32929SOL    HW147626  11.653   5.064   0.880
32929SOL    HW247627  11.629   5.219   0.835
32930SOL     OW47628  13.103  12.046   7.546
32930SOL    HW147629  13.005  12.048   7.523
32930SOL    HW247630  13.130  11.954   7.572
32931SOL     OW47631   2.896   7.150   7.425
32931SOL    HW147632   2.800   7.123   7.421
32931SOL    HW247633   2.954   7.071   7.404
32932SOL     OW47634  11.352  14.651   1.924
32932SOL    HW147635  11.421  14.659   1.996
32932SOL    HW247636  11.392  14.681   1.837
32933SOL     OW47637  12.218  13.608   6.947
32933SOL    HW147638  12.159  13.591   6.868
32933SOL    HW247639  12.285  13.679   6.924
32934SOL     OW47640  14.650  12.764   0.749
32934SOL    HW147641  14.599  12.723   0.673
32934SOL    HW247642  14.627  12.715   0.833
32935SOL     OW47643   3.907   5.418   1.388
32935SOL    HW147644   3.994   5.375   1.413
32935SOL    HW247645   3.863   5.455   1.470
32936SOL     OW47646  14.512  11.926   6.812
32936SOL    HW147647  14.454  11.999   6.847
32936SOL    HW247648  14.469  11.838   6.829
32937SOL     OW47649   9.436   3.982   6.719
32937SOL    HW147650   9.450   4.036   6.802
32937SOL    HW247651   9.354   3.925   6.730
32938SOL     OW47652  15.530   9.248   6.673
32938SOL    HW147653  15.599   9.284   6.610
32938SOL    HW247654  15.507   9.154   6.647
32939SOL     OW47655   3.060   7.062   0.289
32939SOL    HW147656   3.036   7.062   0.386
32939SOL    HW247657   3.025   6.979   0.246
32940SOL     OW47658   7.261   9.293   1.670
32940SOL    HW147659   7.275   9.197   1.694
32940SOL    HW247660   7.193   9.299   1.597
32941SOL     OW47661  11.016   8.759   6.956
32941SOL    HW147662  10.941   8.693   6.944
32941SOL    HW247663  11.046   8.759   7.051
32942SOL     OW47664   5.720  14.836   0.818
32942SOL    HW147665   5.642  14.788   0.858
32942SOL    HW247666   5.726  14.815   0.720
32943SOL     OW47667   6.191   7.011   1.176
32943SOL    HW147668   6.095   7.023   1.151
32943SOL    HW247669   6.231   7.099   1.201
32944SOL     OW47670   7.627  11.533   8.093
32944SOL    HW147671   7.668  11.557   8.005
32944SOL    HW247672   7.690  11.475   8.145
32945SOL     OW47673   3.062  14.701   7.176
32945SOL    HW147674   3.025  14.689   7.269
32945SOL    HW247675   3.000  14.660   7.110
32946SOL     OW47676  12.120   1.617   6.629
32946SOL    HW147677  12.078   1.560   6.699
32946SOL    HW247678  12.077   1.707   6.628
32947SOL     OW47679  16.706   4.547   7.380
32947SOL    HW147680  16.701   4.465   7.323
32947SOL    HW247681  16.756   4.619   7.332
32948SOL     OW47682  13.559   4.968   8.304
32948SOL    HW147683  13.653   4.999   8.293
32948SOL    HW247684  13.509   4.983   8.218
32949SOL     OW47685   9.495   6.994   1.890
32949SOL    HW147686   9.400   6.975   1.914
32949SOL    HW247687   9.505   7.092   1.870
32950SOL     OW47688   2.712  10.755   1.509
32950SOL    HW147689   2.743  10.662   1.489
32950SOL    HW247690   2.616  10.764   1.482
32951SOL     OW47691   4.142   9.331   0.886
32951SOL    HW147692   4.105   9.302   0.975
32951SOL    HW247693   4.077   9.392   0.841
32952SOL     OW47694   7.926   5.067   6.985
32952SOL    HW147695   7.984   5.035   6.910
32952SOL    HW247696   7.951   5.018   7.069
32953SOL     OW47697   0.242   4.765   7.683
32953SOL    HW147698   0.153   4.719   7.680
32953SOL    HW247699   0.297   4.736   7.605
32954SOL     OW47700   7.079   2.245   6.822
32954SOL    HW147701   6.987   2.265   6.855
32954SOL    HW247702   7.146   2.297   6.876
32955SOL     OW47703   9.946  16.611   6.797
32955SOL    HW147704  10.016  16.676   6.826
32955SOL    HW247705   9.952  16.598   6.698
32956SOL     OW47706   6.151  14.585   1.105
32956SOL    HW147707   6.066  14.532   1.099
32956SOL    HW247708   6.160  14.643   1.025
32957SOL     OW47709   8.944  11.108   0.946
32957SOL    HW147710   8.921  11.185   0.885
32957SOL    HW247711   8.874  11.037   0.937
32958SOL     OW47712  14.996   1.974   1.472
32958SOL    HW147713  15.081   1.962   1.523
32958SOL    HW247714  14.931   2.025   1.528
32959SOL     OW47715  12.158   6.532   0.226
32959SOL    HW147716  12.258   6.544   0.225
32959SOL    HW247717  12.128   6.520   0.321
32960SOL     OW47718   0.320  16.519   0.417
32960SOL    HW147719   0.401  16.462   0.432
32960SOL    HW247720   0.329  16.604   0.469
32961SOL     OW47721  16.791   0.622   8.334
32961SOL    HW147722  16.883   0.660   8.338
32961SOL    HW247723  16.725   0.697   8.328
32962SOL     OW47724   9.258  14.937   5.787
32962SOL    HW147725   9.166  14.898   5.792
32962SOL    HW247726   9.324  14.864   5.769
32963SOL     OW47727   5.495   2.124   8.069
32963SOL    HW147728   5.441   2.176   8.003
32963SOL    HW247729   5.464   2.147   8.161
32964SOL     OW47730   8.726  11.508   0.685
32964SOL    HW147731   8.740  11.534   0.590
32964SOL    HW247732   8.734  11.589   0.743
32965SOL     OW47733   8.713   2.596   0.084
32965SOL    HW147734   8.749   2.567   8.449
32965SOL    HW247735   8.614   2.607   0.078
32966SOL     OW47736   2.269   5.722   0.179
32966SOL    HW147737   2.321   5.637   0.164
32966SOL    HW247738   2.177   5.712   0.140
32967SOL     OW47739   5.646   2.774   8.144
32967SOL    HW147740   5.547   2.772   8.153
32967SOL    HW247741   5.671   2.814   8.056
32968SOL     OW47742  10.632   6.260   6.497
32968SOL    HW147743  10.586   6.225   6.415
32968SOL    HW247744  10.634   6.360   6.495
32969SOL     OW47745   4.865   8.319   7.690
32969SOL    HW147746   4.873   8.397   7.627
32969SOL    HW247747   4.911   8.342   7.776
32970SOL     OW47748  15.406   5.874   1.238
32970SOL    HW147749  15.345   5.890   1.316
32970SOL    HW247750  15.420   5.960   1.189
32971SOL     OW47751   7.053   1.702   6.883
32971SOL    HW147752   6.976   1.738   6.935
32971SOL    HW247753   7.059   1.750   6.795
32972SOL     OW47754   4.665  15.317   0.036
32972SOL    HW147755   4.635  15.251   0.105
32972SOL    HW247756   4.630  15.290   8.401
32973SOL     OW47757   3.462  15.609   7.636
32973SOL    HW147758   3.439  15.600   7.539
32973SOL    HW247759   3.560  15.597   7.649
32974SOL     OW47760  11.816   6.300   8.038
32974SOL    HW147761  11.742   6.310   8.105
32974SOL    HW247762  11.780   6.315   7.946
32975SOL     OW47763  12.415  12.626   7.373
32975SOL    HW147764  12.483  12.683   7.419
32975SOL    HW247765  12.452  12.596   7.285
32976SOL     OW47766   9.688   0.695   1.555
32976SOL    HW147767   9.674   0.597   1.544
32976SOL    HW247768   9.709   0.716   1.651
32977SOL     OW47769   5.746  10.103   0.009
32977SOL    HW147770   5.676  10.034   8.446
32977SOL    HW247771   5.731  10.182   8.404
32978SOL     OW47772   9.438   2.595   6.496
32978SOL    HW147773   9.482   2.670   6.546
32978SOL    HW247774   9.415   2.625   6.404
32979SOL     OW47775   7.333   3.633   0.120
32979SOL    HW147776   7.359   3.569   0.192
32979SOL    HW247777   7.407   3.699   0.106
32980SOL     OW47778  12.228   0.361   0.482
32980SOL    HW147779  12.257   0.278   0.434
32980SOL    HW247780  12.129   0.361   0.492
32981SOL     OW47781  13.237  10.828   6.623
32981SOL    HW147782  13.250  10.755   6.557
32981SOL    HW247783  13.139  10.839   6.642
32982SOL     OW47784   9.191  11.076   0.791
32982SOL    HW147785   9.254  11.138   0.838
32982SOL    HW247786   9.105  11.072   0.841
32983SOL     OW47787   0.356  13.007   8.441
32983SOL    HW147788   0.275  13.054   8.404
32983SOL    HW247789   0.424  12.996   8.368
32984SOL     OW47790  12.389   6.407   2.001
32984SOL    HW147791  12.290   6.400   2.014
32984SOL    HW247792  12.424   6.486   2.051
32985SOL     OW47793   8.898  15.680   1.535
32985SOL    HW147794   8.955  15.601   1.559
32985SOL    HW247795   8.901  15.694   1.436
32986SOL     OW47796   2.188  12.596   1.369
32986SOL    HW147797   2.107  12.548   1.335
32986SOL    HW247798   2.173  12.625   1.463
32987SOL     OW47799   9.887  12.464   6.815
32987SOL    HW147800   9.968  12.409   6.794
32987SOL    HW247801   9.905  12.520   6.895
32988SOL     OW47802   9.754   8.722   0.782
32988SOL    HW147803   9.763   8.625   0.760
32988SOL    HW247804   9.710   8.769   0.705
32989SOL     OW47805  15.511  11.184   0.021
32989SOL    HW147806  15.509  11.101   8.419
32989SOL    HW247807  15.605  11.203   0.050
32990SOL     OW47808   8.675   4.926   7.088
32990SOL    HW147809   8.623   4.967   7.013
32990SOL    HW247810   8.773   4.944   7.075
32991SOL     OW47811  14.020   2.678   0.238
32991SOL    HW147812  14.108   2.724   0.232
32991SOL    HW247813  13.981   2.667   0.147
32992SOL     OW47814  11.687   6.618   0.890
32992SOL    HW147815  11.591   6.635   0.915
32992SOL    HW247816  11.722   6.696   0.838
32993SOL     OW47817  12.126   2.205   0.027
32993SOL    HW147818  12.143   2.292   8.435
32993SOL    HW247819  12.100   2.136   8.414
32994SOL     OW47820   7.139   8.359   1.865
32994SOL    HW147821   7.103   8.343   1.957
32994SOL    HW247822   7.227   8.313   1.856
32995SOL     OW47823  13.229   5.301   0.668
32995SOL    HW147824  13.236   5.276   0.764
32995SOL    HW247825  13.142   5.347   0.651
32996SOL     OW47826  14.091   7.784   5.961
32996SOL    HW147827  14.125   7.852   6.026
32996SOL    HW247828  14.158   7.710   5.953
32997SOL     OW47829  16.468   4.766   0.021
32997SOL    HW147830  16.456   4.747   8.377
32997SOL    HW247831  16.499   4.861   0.033
32998SOL     OW47832  11.787   6.791   0.349
32998SOL    HW147833  11.727   6.842   0.410
32998SOL    HW247834  11.830   6.854   0.283
32999SOL     OW47835   4.533   4.354   1.256
32999SOL    HW147836   4.518   4.404   1.171
32999SOL    HW247837   4.599   4.405   1.313
33000SOL     OW47838   8.590   1.356   0.093
33000SOL    HW147839   8.535   1.328   0.014
33000SOL    HW247840   8.562   1.447   0.122
33001SOL     OW47841   4.759  10.249   8.273
33001SOL    HW147842   4.853  10.263   8.305
33001SOL    HW247843   4.759  10.192   8.191
33002SOL     OW47844  13.401  14.249   1.777
33002SOL    HW147845  13.352  14.271   1.693
33002SOL    HW247846  13.363  14.304   1.852
33003SOL     OW47847   1.242  14.012   8.170
33003SOL    HW147848   1.217  14.003   8.074
33003SOL    HW247849   1.334  13.975   8.184
33004SOL     OW47850  11.429  13.506   8.397
33004SOL    HW147851  11.404  13.443   8.323
33004SOL    HW247852  11.418  13.601   8.366
33005SOL     OW47853   4.991  15.952   7.155
33005SOL    HW147854   4.907  15.979   7.202
33005SOL    HW247855   5.065  16.013   7.182
33006SOL     OW47856  13.747  11.252   1.042
33006SOL    HW147857  13.815  11.279   0.974
33006SOL    HW247858  13.785  11.265   1.134
33007SOL     OW47859  15.127  11.146   2.742
33007SOL    HW147860  15.045  11.095   2.769
33007SOL    HW247861  15.199  11.133   2.811
33008SOL     OW47862   9.897  11.992   7.248
33008SOL    HW147863   9.852  11.960   7.165
33008SOL    HW247864   9.845  12.067   7.289
33009SOL     OW47865   6.721  10.188   0.344
33009SOL    HW147866   6.738  10.122   0.418
33009SOL    HW247867   6.684  10.272   0.383
33010SOL     OW47868   2.634  14.377   2.499
33010SOL    HW147869   2.538  14.397   2.480
33010SOL    HW247870   2.654  14.398   2.594
33011SOL     OW47871  12.523   8.525   0.261
33011SOL    HW147872  12.539   8.480   0.349
33011SOL    HW247873  12.599   8.587   0.241
33012SOL     OW47874  10.132   9.084   8.097
33012SOL    HW147875  10.070   9.162   8.110
33012SOL    HW247876  10.187   9.071   8.179
33013SOL     OW47877   5.837   7.758   2.372
33013SOL    HW147878   5.915   7.802   2.328
33013SOL    HW247879   5.834   7.785   2.469
33014SOL     OW47880   7.037   7.190   6.306
33014SOL    HW147881   7.072   7.116   6.248
33014SOL    HW247882   7.023   7.272   6.252
33015SOL     OW47883  14.050   8.625   6.395
33015SOL    HW147884  13.959   8.591   6.421
33015SOL    HW247885  14.044   8.671   6.306
33016SOL     OW47886   7.460  16.341   1.829
33016SOL    HW147887   7.391  16.381   1.889
33016SOL    HW247888   7.489  16.252   1.865
33017SOL     OW47889   7.029  15.726   7.696
33017SOL    HW147890   7.010  15.628   7.697
33017SOL    HW247891   6.969  15.771   7.630
33018SOL     OW47892  12.256   5.663   0.718
33018SOL    HW147893  12.207   5.738   0.762
33018SOL    HW247894  12.219   5.648   0.626
33019SOL     OW47895   9.809  15.794   0.408
33019SOL    HW147896   9.861  15.709   0.416
33019SOL    HW247897   9.850  15.864   0.466
33020SOL     OW47898   4.588  16.694   0.061
33020SOL    HW147899   4.521  16.711   0.134
33020SOL    HW247900   4.547  16.716   8.427
33021SOL     OW47901  11.632  12.586   7.250
33021SOL    HW147902  11.598  12.665   7.301
33021SOL    HW247903  11.716  12.552   7.293
33022SOL     OW47904   5.115   3.892   1.572
33022SOL    HW147905   5.121   3.910   1.670
33022SOL    HW247906   5.142   3.797   1.554
33023SOL     OW47907   5.318   0.758   6.872
33023SOL    HW147908   5.392   0.824   6.886
33023SOL    HW247909   5.304   0.706   6.956
33024SOL     OW47910   7.979   9.153   1.786
33024SOL    HW147911   7.932   9.209   1.854
33024SOL    HW247912   7.998   9.062   1.824
33025SOL     OW47913   1.957  10.394   7.242
33025SOL    HW147914   1.963  10.309   7.190
33025SOL    HW247915   2.032  10.455   7.216
33026SOL     OW47916  11.712   4.815   0.525
33026SOL    HW147917  11.614   4.814   0.542
33026SOL    HW247918  11.728   4.821   0.427
33027SOL     OW47919   0.952  12.918   7.995
33027SOL    HW147920   0.977  12.935   7.900
33027SOL    HW247921   1.034  12.909   8.051
33028SOL     OW47922   5.737  15.603   1.550
33028SOL    HW147923   5.656  15.548   1.529
33028SOL    HW247924   5.781  15.631   1.465
33029SOL     OW47925   7.543  10.996   6.422
33029SOL    HW147926   7.630  10.975   6.377
33029SOL    HW247927   7.495  11.066   6.369
33030SOL     OW47928   4.782   6.925   0.678
33030SOL    HW147929   4.720   6.991   0.636
33030SOL    HW247930   4.863   6.972   0.714
33031SOL     OW47931   8.505   5.977   0.361
33031SOL    HW147932   8.535   6.049   0.298
33031SOL    HW247933   8.455   5.907   0.309
33032SOL     OW47934  11.885   0.840   5.479
33032SOL    HW147935  11.872   0.893   5.396
33032SOL    HW247936  11.831   0.756   5.474
33033SOL     OW47937  15.032   3.574   8.069
33033SOL    HW147938  14.996   3.587   7.976
33033SOL    HW247939  14.968   3.611   8.135
33034SOL     OW47940  14.052   7.161   7.729
33034SOL    HW147941  14.064   7.085   7.666
33034SOL    HW247942  14.024   7.243   7.679
33035SOL     OW47943   2.504   0.901   1.700
33035SOL    HW147944   2.431   0.837   1.724
33035SOL    HW247945   2.469   0.971   1.639
33036SOL     OW47946   1.477   0.336   7.634
33036SOL    HW147947   1.406   0.373   7.574
33036SOL    HW247948   1.470   0.236   7.635
33037SOL     OW47949   1.304   4.483   1.339
33037SOL    HW147950   1.213   4.502   1.303
33037SOL    HW247951   1.317   4.533   1.425
33038SOL     OW47952   3.405   1.363   1.080
33038SOL    HW147953   3.335   1.432   1.062
33038SOL    HW247954   3.415   1.352   1.179
33039SOL     OW47955   0.560   8.232   0.679
33039SOL    HW147956   0.586   8.190   0.592
33039SOL    HW247957   0.627   8.303   0.703
33040SOL     OW47958   8.840  13.633   6.733
33040SOL    HW147959   8.896  13.688   6.671
33040SOL    HW247960   8.862  13.656   6.828
33041SOL     OW47961   6.790  11.708   7.163
33041SOL    HW147962   6.744  11.776   7.220
33041SOL    HW247963   6.763  11.616   7.192
33042SOL     OW47964  15.089   5.590   1.946
33042SOL    HW147965  15.035   5.506   1.943
33042SOL    HW247966  15.133   5.604   1.857
33043SOL     OW47967  16.748  11.742   7.687
33043SOL    HW147968  16.680  11.686   7.640
33043SOL    HW247969  16.730  11.838   7.669
33044SOL     OW47970  14.352   6.414   0.957
33044SOL    HW147971  14.263   6.445   0.992
33044SOL    HW247972  14.341   6.326   0.913
33045SOL     OW47973   1.189  15.866   8.127
33045SOL    HW147974   1.236  15.886   8.041
33045SOL    HW247975   1.252  15.823   8.191
33046SOL     OW47976   7.864  11.512   7.112
33046SOL    HW147977   7.895  11.463   7.194
33046SOL    HW247978   7.942  11.544   7.060
33047SOL     OW47979  14.234  16.175   0.909
33047SOL    HW147980  14.225  16.166   1.009
33047SOL    HW247981  14.277  16.093   0.872
33048SOL     OW47982  16.934  14.927   7.893
33048SOL    HW147983  16.932  14.998   7.963
33048SOL    HW247984   0.038  14.931   7.845
33049SOL     OW47985   9.614   3.076   0.043
33049SOL    HW147986   9.710   3.048   0.050
33049SOL    HW247987   9.610   3.174   0.027
33050SOL     OW47988   3.095   8.074   6.321
33050SOL    HW147989   3.012   8.046   6.274
33050SOL    HW247990   3.143   8.143   6.267
33051SOL     OW47991   3.679  15.866   7.187
33051SOL    HW147992   3.736  15.903   7.115
33051SOL    HW247993   3.709  15.901   7.276
33052SOL     OW47994  11.237  15.094   7.921
33052SOL    HW147995  11.259  15.159   7.993
33052SOL    HW247996  11.139  15.095   7.904
33053SOL     OW47997   1.963   3.097   0.373
33053SOL    HW147998   1.978   3.107   0.472
33053SOL    HW247999   1.985   3.183   0.328
33054SOL     OW48000  10.544   6.112   7.248
33054SOL    HW148001  10.551   6.212   7.244
33054SOL    HW248002  10.573   6.073   7.161
33055SOL     OW48003  11.351   0.469   8.087
33055SOL    HW148004  11.321   0.508   8.000
33055SOL    HW248005  11.446   0.439   8.079
33056SOL     OW48006   5.771   2.983   0.480
33056SOL    HW148007   5.705   3.032   0.537
33056SOL    HW248008   5.776   3.026   0.390
33057SOL     OW48009  16.862  11.766   1.611
33057SOL    HW148010  16.861  11.774   1.512
33057SOL    HW248011  16.915  11.842   1.650
33058SOL     OW48012  10.834   1.629   0.318
33058SOL    HW148013  10.902   1.565   0.282
33058SOL    HW248014  10.864   1.662   0.408
33059SOL     OW48015   1.577  11.562   0.674
33059SOL    HW148016   1.592  11.537   0.579
33059SOL    HW248017   1.639  11.636   0.699
33060SOL     OW48018  16.539  15.630   6.860
33060SOL    HW148019  16.520  15.647   6.956
33060SOL    HW248020  16.503  15.705   6.805
33061SOL     OW48021  15.985   8.559   7.268
33061SOL    HW148022  15.939   8.591   7.185
33061SOL    HW248023  16.068   8.509   7.244
33062SOL     OW48024   9.796   3.865   7.996
33062SOL    HW148025   9.819   3.920   8.076
33062SOL    HW248026   9.872   3.804   7.974
33063SOL     OW48027   7.716  11.505   6.303
33063SOL    HW148028   7.689  11.500   6.207
33063SOL    HW248029   7.659  11.571   6.351
33064SOL     OW48030   5.334   4.490   7.683
33064SOL    HW148031   5.294   4.576   7.715
33064SOL    HW248032   5.382   4.506   7.597
33065SOL     OW48033  12.726   4.953   1.310
33065SOL    HW148034  12.816   4.951   1.267
33065SOL    HW248035  12.687   4.861   1.311
33066SOL     OW48036  16.806   9.546   0.508
33066SOL    HW148037  16.879   9.507   0.564
33066SOL    HW248038  16.749   9.472   0.471
33067SOL     OW48039  15.334   5.951   5.683
33067SOL    HW148040  15.365   5.866   5.640
33067SOL    HW248041  15.235   5.957   5.680
33068SOL     OW48042   4.026  13.270   6.977
33068SOL    HW148043   3.926  13.268   6.974
33068SOL    HW248044   4.057  13.218   7.056
33069SOL     OW48045  15.571   1.414   6.412
33069SOL    HW148046  15.544   1.494   6.358
33069SOL    HW248047  15.490   1.357   6.429
33070SOL     OW48048   8.497  14.966   1.009
33070SOL    HW148049   8.462  14.969   0.915
33070SOL    HW248050   8.467  15.048   1.058
33071SOL     OW48051   3.297  14.876   1.254
33071SOL    HW148052   3.259  14.942   1.189
33071SOL    HW248053   3.375  14.917   1.301
33072SOL     OW48054   6.659   3.893   0.425
33072SOL    HW148055   6.669   3.973   0.484
33072SOL    HW248056   6.669   3.921   0.330
33073SOL     OW48057   9.181   0.024   0.716
33073SOL    HW148058   9.261  16.983   0.771
33073SOL    HW248059   9.098  16.971   0.759
33074SOL     OW48060  14.236   7.596   1.964
33074SOL    HW148061  14.280   7.665   1.906
33074SOL    HW248062  14.252   7.618   2.060
33075SOL     OW48063   8.372   4.507   8.209
33075SOL    HW148064   8.406   4.596   8.240
33075SOL    HW248065   8.388   4.439   8.280
33076SOL     OW48066  14.310   3.958   0.392
33076SOL    HW148067  14.356   3.876   0.425
33076SOL    HW248068  14.318   4.031   0.460
33077SOL     OW48069   6.069  16.689   2.170
33077SOL    HW148070   6.027  16.766   2.122
33077SOL    HW248071   5.999  16.635   2.216
33078SOL     OW48072  12.862  15.093   1.936
33078SOL    HW148073  12.894  15.051   2.020
33078SOL    HW248074  12.940  15.116   1.878
33079SOL     OW48075   8.556  11.585   8.090
33079SOL    HW148076   8.617  11.663   8.107
33079SOL    HW248077   8.554  11.565   7.992
33080SOL     OW48078   4.546   1.211   0.996
33080SOL    HW148079   4.558   1.153   0.915
33080SOL    HW248080   4.632   1.258   1.015
33081SOL     OW48081   5.809  15.989   0.131
33081SOL    HW148082   5.897  16.037   0.134
33081SOL    HW248083   5.790  15.950   0.222
33082SOL     OW48084  16.948   9.169   0.665
33082SOL    HW148085  16.854   9.201   0.656
33082SOL    HW248086  16.952   9.093   0.731
33083SOL     OW48087   9.007  13.498   1.779
33083SOL    HW148088   9.093  13.538   1.811
33083SOL    HW248089   8.982  13.421   1.838
33084SOL     OW48090  14.410   9.920   7.009
33084SOL    HW148091  14.410  10.014   7.045
33084SOL    HW248092  14.461   9.917   6.923
33085SOL     OW48093   1.823   2.203   1.445
33085SOL    HW148094   1.807   2.270   1.518
33085SOL    HW248095   1.918   2.212   1.413
33086SOL     OW48096   7.003   3.310   8.115
33086SOL    HW148097   7.090   3.351   8.090
33086SOL    HW248098   6.931   3.380   8.112
33087SOL     OW48099  14.746   2.812   6.158
33087SOL    HW148100  14.719   2.722   6.193
33087SOL    HW248101  14.734   2.814   6.058
33088SOL     OW48102   5.034  16.909   0.458
33088SOL    HW148103   5.049  16.940   0.551
33088SOL    HW248104   5.025  16.809   0.457
33089SOL     OW48105   0.166   4.636   6.928
33089SOL    HW148106   0.210   4.591   7.006
33089SOL    HW248107   0.119   4.718   6.960
33090SOL     OW48108   5.575   3.073   0.801
33090SOL    HW148109   5.663   3.075   0.848
33090SOL    HW248110   5.551   2.978   0.779
33091SOL     OW48111   1.097   5.883   6.294
33091SOL    HW148112   1.100   5.981   6.274
33091SOL    HW248113   1.096   5.832   6.208
33092SOL     OW48114  15.265  14.219   1.767
33092SOL    HW148115  15.222  14.150   1.707
33092SOL    HW248116  15.289  14.177   1.854
33093SOL     OW48117   6.332   1.932   7.299
33093SOL    HW148118   6.366   1.852   7.348
33093SOL    HW248119   6.327   2.010   7.362
33094SOL     OW48120  12.553   1.363   6.160
33094SOL    HW148121  12.456   1.370   6.182
33094SOL    HW248122  12.597   1.451   6.176
33095SOL     OW48123  14.223  16.983   7.115
33095SOL    HW148124  14.290  16.978   7.189
33095SOL    HW248125  14.221   0.092   7.078
33096SOL     OW48126  13.564   7.048   1.112
33096SOL    HW148127  13.522   7.138   1.099
33096SOL    HW248128  13.647   7.058   1.168
33097SOL     OW48129   1.099  11.792   7.687
33097SOL    HW148130   1.033  11.809   7.615
33097SOL    HW248131   1.153  11.710   7.665
33098SOL     OW48132   6.593   7.457   7.589
33098SOL    HW148133   6.609   7.454   7.490
33098SOL    HW248134   6.636   7.539   7.627
33099SOL     OW48135   0.328  11.094   0.333
33099SOL    HW148136   0.389  11.158   0.378
33099SOL    HW248137   0.244  11.084   0.387
33100SOL     OW48138  10.431   5.076   0.180
33100SOL    HW148139  10.393   4.993   0.222
33100SOL    HW248140  10.384   5.094   0.094
33101SOL     OW48141   5.245  15.855   0.883
33101SOL    HW148142   5.166  15.793   0.887
33101SOL    HW248143   5.232  15.930   0.948
33102SOL     OW48144  13.828   3.681   8.355
33102SOL    HW148145  13.738   3.675   8.398
33102SOL    HW248146  13.898   3.663   8.423
33103SOL     OW48147   4.542  13.804   7.140
33103SOL    HW148148   4.546  13.877   7.072
33103SOL    HW248149   4.450  13.765   7.142
33104SOL     OW48150  12.605  16.104   7.355
33104SOL    HW148151  12.595  16.012   7.392
33104SOL    HW248152  12.640  16.099   7.262
33105SOL     OW48153  16.908  10.887   7.695
33105SOL    HW148154   0.001  10.836   7.735
33105SOL    HW248155  16.873  10.952   7.762
33106SOL     OW48156  14.421   7.766   0.312
33106SOL    HW148157  14.379   7.828   0.246
33106SOL    HW248158  14.501   7.810   0.353
33107SOL     OW48159   4.949  10.844   0.786
33107SOL    HW148160   4.864  10.887   0.757
33107SOL    HW248161   5.009  10.913   0.827
33108SOL     OW48162  15.990  12.107   8.195
33108SOL    HW148163  15.916  12.057   8.149
33108SOL    HW248164  16.070  12.110   8.134
33109SOL     OW48165  15.470  10.648   2.593
33109SOL    HW148166  15.374  10.636   2.570
33109SOL    HW248167  15.495  10.589   2.670
33110SOL     OW48168  10.659   2.914   7.403
33110SOL    HW148169  10.652   2.815   7.389
33110SOL    HW248170  10.648   2.935   7.500
33111SOL     OW48171   8.102  11.571   6.998
33111SOL    HW148172   8.158  11.490   6.982
33111SOL    HW248173   8.149  11.633   7.061
33112SOL     OW48174   8.053   7.957   8.233
33112SOL    HW148175   8.052   8.030   8.301
33112SOL    HW248176   8.015   7.992   8.147
33113SOL     OW48177   9.824   6.228   6.251
33113SOL    HW148178   9.815   6.164   6.174
33113SOL    HW248179   9.913   6.274   6.246
33114SOL     OW48180   8.719  12.501   0.794
33114SOL    HW148181   8.633  12.486   0.745
33114SOL    HW248182   8.795  12.488   0.730
33115SOL     OW48183  13.844   8.724   0.307
33115SOL    HW148184  13.899   8.708   0.225
33115SOL    HW248185  13.890   8.683   0.386
33116SOL     OW48186   5.917  10.558   6.988
33116SOL    HW148187   5.827  10.515   6.991
33116SOL    HW248188   5.911  10.651   7.023
33117SOL     OW48189   0.568  15.578   6.945
33117SOL    HW148190   0.641  15.590   6.877
33117SOL    HW248191   0.528  15.667   6.967
33118SOL     OW48192   3.817  15.995   0.285
33118SOL    HW148193   3.770  15.909   0.303
33118SOL    HW248194   3.813  16.053   0.366
33119SOL     OW48195   3.410   5.648   7.465
33119SOL    HW148196   3.418   5.550   7.443
33119SOL    HW248197   3.463   5.668   7.547
33120SOL     OW48198   5.380   5.941   8.123
33120SOL    HW148199   5.427   5.906   8.042
33120SOL    HW248200   5.445   5.988   8.182
33121SOL     OW48201   2.012  12.915   2.690
33121SOL    HW148202   1.983  12.825   2.656
33121SOL    HW248203   1.931  12.968   2.717
33122SOL     OW48204  11.186  16.442   6.863
33122SOL    HW148205  11.104  16.498   6.871
33122SOL    HW248206  11.231  16.462   6.776
33123SOL     OW48207   8.918  10.838   7.057
33123SOL    HW148208   8.863  10.888   7.124
33123SOL    HW248209   8.858  10.802   6.985
33124SOL     OW48210   9.423   3.882   1.330
33124SOL    HW148211   9.359   3.941   1.281
33124SOL    HW248212   9.391   3.787   1.323
33125SOL     OW48213   4.593  13.037   2.898
33125SOL    HW148214   4.601  12.938   2.913
33125SOL    HW248215   4.668  13.084   2.944
33126SOL     OW48216   4.561   2.853   6.885
33126SOL    HW148217   4.512   2.767   6.887
33126SOL    HW248218   4.532   2.907   6.805
33127SOL     OW48219   9.041   4.465   0.944
33127SOL    HW148220   9.026   4.464   0.845
33127SOL    HW248221   9.124   4.517   0.965
33128SOL     OW48222  13.598  14.364   7.729
33128SOL    HW148223  13.561  14.446   7.773
33128SOL    HW248224  13.697  14.365   7.734
33129SOL     OW48225   5.177   2.218   0.921
33129SOL    HW148226   5.204   2.167   0.840
33129SOL    HW248227   5.150   2.311   0.894
33130SOL     OW48228   5.245   6.706   7.605
33130SOL    HW148229   5.229   6.608   7.622
33130SOL    HW248230   5.339   6.728   7.630
33131SOL     OW48231   7.474   9.514   7.350
33131SOL    HW148232   7.534   9.472   7.418
33131SOL    HW248233   7.515   9.599   7.318
33132SOL     OW48234   7.678   2.340   8.112
33132SOL    HW148235   7.679   2.424   8.166
33132SOL    HW248236   7.643   2.265   8.168
33133SOL     OW48237   6.398  13.563   8.003
33133SOL    HW148238   6.484  13.512   8.008
33133SOL    HW248239   6.416  13.657   7.975
33134SOL     OW48240  14.477   5.095   0.199
33134SOL    HW148241  14.460   5.177   0.144
33134SOL    HW248242  14.434   5.106   0.289
33135SOL     OW48243  11.290   3.789   0.865
33135SOL    HW148244  11.325   3.744   0.783
33135SOL    HW248245  11.294   3.888   0.852
33136SOL     OW48246  11.840   0.612   1.442
33136SOL    HW148247  11.880   0.698   1.411
33136SOL    HW248248  11.913   0.545   1.458
33137SOL     OW48249   5.983   5.318   1.362
33137SOL    HW148250   6.000   5.224   1.332
33137SOL    HW248251   5.884   5.332   1.371
33138SOL     OW48252   8.005  13.200   2.074
33138SOL    HW148253   7.982  13.138   2.149
33138SOL    HW248254   7.976  13.293   2.096
33139SOL     OW48255  14.932   7.647   6.813
33139SOL    HW148256  14.968   7.573   6.871
33139SOL    HW248257  14.987   7.729   6.826
33140SOL     OW48258   2.796  12.444   7.941
33140SOL    HW148259   2.726  12.457   8.011
33140SOL    HW248260   2.808  12.529   7.889
33141SOL     OW48261  15.248   2.485   7.751
33141SOL    HW148262  15.189   2.404   7.741
33141SOL    HW248263  15.257   2.531   7.663
33142SOL     OW48264   9.684   9.845   0.334
33142SOL    HW148265   9.622   9.796   0.273
33142SOL    HW248266   9.662   9.823   0.429
33143SOL     OW48267   7.020  14.473   6.728
33143SOL    HW148268   7.024  14.533   6.808
33143SOL    HW248269   6.932  14.484   6.682
33144SOL     OW48270   3.662  13.626   8.354
33144SOL    HW148271   3.636  13.538   8.315
33144SOL    HW248272   3.616  13.638   8.442
33145SOL     OW48273   6.056   5.199   2.382
33145SOL    HW148274   6.079   5.274   2.444
33145SOL    HW248275   6.063   5.112   2.430
33146SOL     OW48276   8.097   3.354   2.198
33146SOL    HW148277   8.113   3.324   2.292
33146SOL    HW248278   8.166   3.315   2.138
33147SOL     OW48279  12.717   1.797   6.398
33147SOL    HW148280  12.662   1.878   6.377
33147SOL    HW248281  12.660   1.728   6.440
33148SOL     OW48282   2.502   8.955   6.694
33148SOL    HW148283   2.431   9.010   6.649
33148SOL    HW248284   2.520   8.873   6.639
33149SOL     OW48285   7.840   4.446   0.838
33149SOL    HW148286   7.744   4.470   0.824
33149SOL    HW248287   7.876   4.404   0.755
33150SOL     OW48288   2.905   6.203   1.687
33150SOL    HW148289   2.901   6.104   1.698
33150SOL    HW248290   2.916   6.247   1.777
33151SOL     OW48291   8.420  16.120   1.152
33151SOL    HW148292   8.440  16.123   1.054
33151SOL    HW248293   8.440  16.210   1.192
33152SOL     OW48294   3.103   8.898   7.843
33152SOL    HW148295   3.155   8.844   7.910
33152SOL    HW248296   3.029   8.844   7.806
33153SOL     OW48297  12.649   8.906   7.499
33153SOL    HW148298  12.643   8.951   7.588
33153SOL    HW248299  12.733   8.935   7.453
33154SOL     OW48300  16.110   2.355   8.086
33154SOL    HW148301  16.026   2.410   8.078
33154SOL    HW248302  16.085   2.261   8.111
33155SOL     OW48303   3.049   0.700   8.308
33155SOL    HW148304   3.068   0.627   8.374
33155SOL    HW248305   3.058   0.665   8.215
33156SOL     OW48306  12.757   1.614   7.313
33156SOL    HW148307  12.844   1.657   7.290
33156SOL    HW248308  12.741   1.622   7.411
33157SOL     OW48309  10.720  16.107   0.572
33157SOL    HW148310  10.653  16.143   0.637
33157SOL    HW248311  10.807  16.092   0.619
33158SOL     OW48312  11.088  12.649   1.016
33158SOL    HW148313  11.077  12.707   0.935
33158SOL    HW248314  11.158  12.688   1.076
33159SOL     OW48315   6.626  12.569   8.303
33159SOL    HW148316   6.664  12.655   8.268
33159SOL    HW248317   6.656  12.494   8.244
33160SOL     OW48318  14.697   7.144   7.051
33160SOL    HW148319  14.678   7.128   7.148
33160SOL    HW248320  14.737   7.061   7.011
33161SOL     OW48321   9.514  15.611   7.096
33161SOL    HW148322   9.516  15.526   7.044
33161SOL    HW248323   9.562  15.597   7.183
33162SOL     OW48324   3.497  15.986   7.454
33162SOL    HW148325   3.473  16.070   7.405
33162SOL    HW248326   3.596  15.971   7.447
33163SOL     OW48327   2.903   2.498   8.109
33163SOL    HW148328   2.844   2.425   8.074
33163SOL    HW248329   2.938   2.553   8.034
33164SOL     OW48330   3.656   7.019   7.761
33164SOL    HW148331   3.694   7.071   7.684
33164SOL    HW248332   3.595   6.948   7.726
33165SOL     OW48333   2.422   1.707   1.494
33165SOL    HW148334   2.433   1.611   1.466
33165SOL    HW248335   2.325   1.728   1.505
33166SOL     OW48336  10.001  15.949   1.832
33166SOL    HW148337   9.912  15.933   1.789
33166SOL    HW248338  10.065  15.878   1.804
33167SOL     OW48339   6.046  12.746   7.232
33167SOL    HW148340   6.022  12.653   7.260
33167SOL    HW248341   5.980  12.811   7.269
33168SOL     OW48342   8.729   8.957   8.343
33168SOL    HW148343   8.766   8.993   8.258
33168SOL    HW248344   8.647   9.009   8.369
33169SOL     OW48345  16.372  15.150   0.504
33169SOL    HW148346  16.305  15.083   0.537
33169SOL    HW248347  16.366  15.233   0.559
33170SOL     OW48348   4.597   5.032   7.066
33170SOL    HW148349   4.547   5.094   7.126
33170SOL    HW248350   4.695   5.037   7.088
33171SOL     OW48351   8.388   6.260   0.953
33171SOL    HW148352   8.313   6.209   0.997
33171SOL    HW248353   8.421   6.208   0.874
33172SOL     OW48354   4.418   9.356   6.584
33172SOL    HW148355   4.469   9.317   6.507
33172SOL    HW248356   4.362   9.432   6.552
33173SOL     OW48357   2.970  15.194   1.132
33173SOL    HW148358   2.901  15.176   1.062
33173SOL    HW248359   2.951  15.138   1.212
33174SOL     OW48360   7.981   5.556   1.997
33174SOL    HW148361   8.073   5.566   2.034
33174SOL    HW248362   7.914   5.573   2.070
33175SOL     OW48363   6.430  12.813   2.136
33175SOL    HW148364   6.343  12.863   2.142
33175SOL    HW248365   6.415  12.717   2.161
33176SOL     OW48366   2.876  13.076   1.053
33176SOL    HW148367   2.780  13.077   1.078
33176SOL    HW248368   2.927  13.140   1.110
33177SOL     OW48369   8.171   9.072   7.509
33177SOL    HW148370   8.178   9.082   7.608
33177SOL    HW248371   8.105   9.139   7.474
33178SOL     OW48372   5.750   6.190   0.856
33178SOL    HW148373   5.836   6.141   0.874
33178SOL    HW248374   5.726   6.181   0.760
33179SOL     OW48375  12.518  15.955   7.713
33179SOL    HW148376  12.419  15.965   7.722
33179SOL    HW248377  12.539  15.913   7.624
33180SOL     OW48378   4.285   1.584   1.257
33180SOL    HW148379   4.367   1.602   1.202
33180SOL    HW248380   4.312   1.544   1.344
33181SOL     OW48381   1.394   5.287   6.739
33181SOL    HW148382   1.383   5.284   6.640
33181SOL    HW248383   1.306   5.303   6.782
33182SOL     OW48384   8.216   6.205   7.652
33182SOL    HW148385   8.262   6.202   7.741
33182SOL    HW248386   8.179   6.115   7.631
33183SOL     OW48387  12.591   1.390   6.898
33183SOL    HW148388  12.585   1.439   6.985
33183SOL    HW248389  12.646   1.444   6.834
33184SOL     OW48390  13.816  13.863   2.235
33184SOL    HW148391  13.843  13.874   2.331
33184SOL    HW248392  13.721  13.833   2.231
33185SOL     OW48393   7.235  12.412   1.231
33185SOL    HW148394   7.163  12.408   1.300
33185SOL    HW248395   7.315  12.459   1.268
33186SOL     OW48396  15.369  12.499   0.584
33186SOL    HW148397  15.362  12.481   0.682
33186SOL    HW248398  15.280  12.530   0.550
33187SOL     OW48399   3.166   0.490   7.802
33187SOL    HW148400   3.098   0.452   7.739
33187SOL    HW248401   3.238   0.422   7.819
33188SOL     OW48402   5.092  10.351   6.172
33188SOL    HW148403   5.092  10.426   6.105
33188SOL    HW248404   5.108  10.264   6.125
33189SOL     OW48405   5.534  14.318   1.099
33189SOL    HW148406   5.580  14.370   1.028
33189SOL    HW248407   5.568  14.345   1.189
33190SOL     OW48408  14.778  13.488   8.047
33190SOL    HW148409  14.813  13.406   8.002
33190SOL    HW248410  14.849  13.527   8.106
33191SOL     OW48411   9.628   5.174   6.968
33191SOL    HW148412   9.574   5.250   7.002
33191SOL    HW248413   9.658   5.117   7.044
33192SOL     OW48414   3.097  10.990   3.018
33192SOL    HW148415   3.054  11.051   2.951
33192SOL    HW248416   3.192  10.973   2.991
33193SOL     OW48417   4.412   0.230   0.530
33193SOL    HW148418   4.394   0.157   0.465
33193SOL    HW248419   4.493   0.207   0.584
33194SOL     OW48420   9.856   8.943   0.487
33194SOL    HW148421   9.891   8.952   0.393
33194SOL    HW248422   9.855   9.033   0.531
33195SOL     OW48423   2.350   8.576   7.976
33195SOL    HW148424   2.252   8.580   7.954
33195SOL    HW248425   2.364   8.600   8.072
33196SOL     OW48426  11.471   9.543   0.442
33196SOL    HW148427  11.400   9.473   0.452
33196SOL    HW248428  11.429   9.627   0.406
33197SOL     OW48429   4.634   8.631   0.431
33197SOL    HW148430   4.709   8.636   0.364
33197SOL    HW248431   4.550   8.662   0.388
33198SOL     OW48432  14.682   0.753   1.742
33198SOL    HW148433  14.590   0.719   1.759
33198SOL    HW248434  14.728   0.771   1.829
33199SOL     OW48435   4.322   6.119   7.737
33199SOL    HW148436   4.298   6.101   7.832
33199SOL    HW248437   4.292   6.211   7.712
33200SOL     OW48438  10.862   9.578   1.657
33200SOL    HW148439  10.837   9.530   1.741
33200SOL    HW248440  10.962   9.582   1.649
33201SOL     OW48441   9.920  14.543   7.829
33201SOL    HW148442   9.917  14.545   7.729
33201SOL    HW248443   9.928  14.448   7.860
33202SOL     OW48444  11.740   0.559   1.695
33202SOL    HW148445  11.812   0.564   1.765
33202SOL    HW248446  11.777   0.587   1.607
33203SOL     OW48447   8.867   5.423   7.694
33203SOL    HW148448   8.833   5.347   7.750
33203SOL    HW248449   8.926   5.481   7.750
33204SOL     OW48450  11.879   9.985   7.856
33204SOL    HW148451  11.886   9.900   7.805
33204SOL    HW248452  11.787   9.994   7.893
33205SOL     OW48453   8.363   9.195   8.149
33205SOL    HW148454   8.276   9.145   8.154
33205SOL    HW248455   8.344   9.293   8.142
33206SOL     OW48456   3.820  10.730   1.438
33206SOL    HW148457   3.753  10.656   1.440
33206SOL    HW248458   3.773  10.818   1.428
33207SOL     OW48459   9.007   7.510   0.026
33207SOL    HW148460   8.914   7.546   0.036
33207SOL    HW248461   9.052   7.511   0.116
33208SOL     OW48462   0.565   3.396   0.129
33208SOL    HW148463   0.540   3.346   0.212
33208SOL    HW248464   0.552   3.494   0.144
33209SOL     OW48465  13.826   3.595   7.336
33209SOL    HW148466  13.734   3.620   7.366
33209SOL    HW248467  13.893   3.633   7.400
33210SOL     OW48468   1.573  10.271   0.951
33210SOL    HW148469   1.599  10.234   1.040
33210SOL    HW248470   1.504  10.212   0.909
33211SOL     OW48471  13.932   9.054   6.909
33211SOL    HW148472  13.848   9.108   6.901
33211SOL    HW248473  13.909   8.959   6.931
33212SOL     OW48474   5.644   8.871   7.779
33212SOL    HW148475   5.703   8.821   7.715
33212SOL    HW248476   5.683   8.961   7.797
33213SOL     OW48477   3.856  12.762   0.518
33213SOL    HW148478   3.927  12.811   0.569
33213SOL    HW248479   3.776  12.822   0.509
33214SOL     OW48480   5.085   1.057   7.344
33214SOL    HW148481   4.988   1.034   7.351
33214SOL    HW248482   5.128   1.000   7.273
33215SOL     OW48483   6.050  16.514   8.430
33215SOL    HW148484   6.064  16.551   0.068
33215SOL    HW248485   6.133  16.466   8.400
33216SOL     OW48486   0.882   0.640   0.397
33216SOL    HW148487   0.806   0.672   0.454
33216SOL    HW248488   0.962   0.623   0.455
33217SOL     OW48489   1.804  10.378   0.037
33217SOL    HW148490   1.768  10.304   8.434
33217SOL    HW248491   1.847  10.340   0.119
33218SOL     OW48492  16.682  14.807   8.164
33218SOL    HW148493  16.666  14.902   8.192
33218SOL    HW248494  16.683  14.801   8.064
33219SOL     OW48495  10.016   8.880   7.721
33219SOL    HW148496  10.089   8.913   7.781
33219SOL    HW248497  10.002   8.946   7.647
33220SOL     OW48498   6.407   7.816   1.181
33220SOL    HW148499   6.484   7.758   1.207
33220SOL    HW248500   6.326   7.759   1.164
33221SOL     OW48501  11.848   5.937   7.758
33221SOL    HW148502  11.878   5.985   7.841
33221SOL    HW248503  11.762   5.978   7.726
33222SOL     OW48504   9.572   9.681   7.119
33222SOL    HW148505   9.669   9.703   7.129
33222SOL    HW248506   9.521   9.719   7.197
33223SOL     OW48507  15.712   2.482   1.181
33223SOL    HW148508  15.666   2.568   1.160
33223SOL    HW248509  15.654   2.427   1.242
33224SOL     OW48510   6.743   8.601   2.120
33224SOL    HW148511   6.673   8.564   2.180
33224SOL    HW248512   6.815   8.644   2.175
33225SOL     OW48513  13.133   1.507   7.889
33225SOL    HW148514  13.220   1.557   7.881
33225SOL    HW248515  13.101   1.482   7.798
33226SOL     OW48516  16.906  14.262   0.341
33226SOL    HW148517  16.861  14.231   0.258
33226SOL    HW248518  16.842  14.318   0.394
33227SOL     OW48519  12.569   8.320   2.181
33227SOL    HW148520  12.478   8.332   2.219
33227SOL    HW248521  12.606   8.231   2.210
33228SOL     OW48522   8.530   1.752   1.899
33228SOL    HW148523   8.477   1.802   1.968
33228SOL    HW248524   8.590   1.686   1.944
33229SOL     OW48525  12.498   2.688   5.915
33229SOL    HW148526  12.418   2.738   5.883
33229SOL    HW248527  12.542   2.641   5.838
33230SOL     OW48528  16.508   8.612   8.141
33230SOL    HW148529  16.552   8.628   8.052
33230SOL    HW248530  16.419   8.658   8.142
33231SOL     OW48531  16.542   6.590   6.327
33231SOL    HW148532  16.552   6.529   6.249
33231SOL    HW248533  16.458   6.567   6.377
33232SOL     OW48534   4.493  12.322   0.491
33232SOL    HW148535   4.443  12.365   0.417
33232SOL    HW248536   4.547  12.391   0.540
33233SOL     OW48537  13.621   6.636   0.214
33233SOL    HW148538  13.700   6.587   0.251
33233SOL    HW248539  13.597   6.598   0.125
33234SOL     OW48540  11.948   7.635   0.229
33234SOL    HW148541  11.938   7.676   0.139
33234SOL    HW248542  11.858   7.604   0.262
33235SOL     OW48543   2.435   2.433   1.087
33235SOL    HW148544   2.507   2.369   1.061
33235SOL    HW248545   2.449   2.520   1.040
33236SOL     OW48546   8.870   9.765   2.163
33236SOL    HW148547   8.846   9.857   2.194
33236SOL    HW248548   8.967   9.749   2.176
33237SOL     OW48549  14.737   1.920   6.981
33237SOL    HW148550  14.663   1.853   6.976
33237SOL    HW248551  14.802   1.893   7.051
33238SOL     OW48552   0.883   6.900   8.253
33238SOL    HW148553   0.880   6.812   8.204
33238SOL    HW248554   0.800   6.912   8.306
33239SOL     OW48555  15.702  12.352   1.342
33239SOL    HW148556  15.627  12.389   1.287
33239SOL    HW248557  15.789  12.376   1.300
33240SOL     OW48558  11.496   7.401   0.445
33240SOL    HW148559  11.565   7.457   0.400
33240SOL    HW248560  11.461   7.333   0.380
33241SOL     OW48561  15.549  11.373   1.158
33241SOL    HW148562  15.641  11.411   1.146
33241SOL    HW248563  15.555  11.275   1.176
33242SOL     OW48564   8.028   0.012   7.049
33242SOL    HW148565   8.096   0.057   6.992
33242SOL    HW248566   7.953   0.075   7.067
33243SOL     OW48567   8.863   4.750   7.707
33243SOL    HW148568   8.875   4.848   7.719
33243SOL    HW248569   8.934   4.701   7.757
33244SOL     OW48570   7.279   5.595   1.389
33244SOL    HW148571   7.346   5.627   1.322
33244SOL    HW248572   7.323   5.533   1.453
33245SOL     OW48573   2.251   5.789   8.031
33245SOL    HW148574   2.230   5.887   8.038
33245SOL    HW248575   2.250   5.762   7.935
33246SOL     OW48576   6.663   0.535   7.111
33246SOL    HW148577   6.638   0.481   7.191
33246SOL    HW248578   6.610   0.620   7.109
33247SOL     OW48579   3.466   5.666   1.297
33247SOL    HW148580   3.482   5.724   1.377
33247SOL    HW248581   3.501   5.710   1.215
33248SOL     OW48582  10.494  11.067   6.825
33248SOL    HW148583  10.462  11.149   6.873
33248SOL    HW248584  10.497  10.990   6.888
33249SOL     OW48585   5.687   0.812   1.011
33249SOL    HW148586   5.745   0.883   1.051
33249SOL    HW248587   5.591   0.831   1.029
33250SOL     OW48588   8.313   0.638   1.025
33250SOL    HW148589   8.326   0.673   1.117
33250SOL    HW248590   8.255   0.700   0.973
33251SOL     OW48591   5.097  15.188   7.152
33251SOL    HW148592   5.035  15.241   7.095
33251SOL    HW248593   5.050  15.107   7.186
33252SOL     OW48594   9.046  15.495   6.493
33252SOL    HW148595   9.008  15.418   6.442
33252SOL    HW248596   9.049  15.575   6.433
33253SOL     OW48597  14.392  13.582   1.834
33253SOL    HW148598  14.360  13.674   1.810
33253SOL    HW248599  14.418  13.532   1.752
33254SOL     OW48600   4.483   6.634   8.157
33254SOL    HW148601   4.569   6.607   8.201
33254SOL    HW248602   4.489   6.729   8.128
33255SOL     OW48603   6.874  14.088   0.256
33255SOL    HW148604   6.963  14.058   0.222
33255SOL    HW248605   6.887  14.134   0.344
33256SOL     OW48606  14.456   9.315   8.044
33256SOL    HW148607  14.517   9.237   8.049
33256SOL    HW248608  14.426   9.328   7.949
33257SOL     OW48609   3.157  15.148   8.156
33257SOL    HW148610   3.123  15.240   8.177
33257SOL    HW248611   3.152  15.091   8.238
33258SOL     OW48612   8.848   0.867   6.580
33258SOL    HW148613   8.923   0.898   6.521
33258SOL    HW248614   8.870   0.777   6.618
33259SOL     OW48615   5.460  16.559   7.781
33259SOL    HW148616   5.489  16.637   7.836
33259SOL    HW248617   5.478  16.474   7.832
33260SOL     OW48618   1.932  13.348   7.520
33260SOL    HW148619   1.995  13.425   7.529
33260SOL    HW248620   1.850  13.366   7.573
33261SOL     OW48621  13.008  13.572   7.859
33261SOL    HW148622  13.054  13.484   7.866
33261SOL    HW248623  12.909  13.560   7.870
33262SOL     OW48624  10.853   1.389   2.019
33262SOL    HW148625  10.842   1.378   2.118
33262SOL    HW248626  10.823   1.480   1.992
33263SOL     OW48627  13.290   8.643   7.886
33263SOL    HW148628  13.259   8.669   7.795
33263SOL    HW248629  13.262   8.549   7.906
33264SOL     OW48630   6.872  12.644   1.291
33264SOL    HW148631   6.872  12.726   1.348
33264SOL    HW248632   6.779  12.624   1.261
33265SOL     OW48633   9.010   2.669   7.787
33265SOL    HW148634   9.061   2.587   7.813
33265SOL    HW248635   9.057   2.715   7.711
33266SOL     OW48636  16.446   8.294   7.653
33266SOL    HW148637  16.443   8.301   7.753
33266SOL    HW248638  16.373   8.234   7.621
33267SOL     OW48639   9.502   9.574   5.679
33267SOL    HW148640   9.537   9.661   5.714
33267SOL    HW248641   9.544   9.555   5.591
33268SOL     OW48642   0.609   6.149   6.927
33268SOL    HW148643   0.621   6.242   6.891
33268SOL    HW248644   0.528   6.107   6.886
33269SOL     OW48645  11.420  15.255   0.547
33269SOL    HW148646  11.342  15.242   0.486
33269SOL    HW248647  11.390  15.246   0.642
33270SOL     OW48648   1.886  10.528   1.957
33270SOL    HW148649   1.893  10.626   1.936
33270SOL    HW248650   1.927  10.509   2.046
33271SOL     OW48651  15.568   4.584   1.328
33271SOL    HW148652  15.489   4.524   1.319
33271SOL    HW248653  15.538   4.675   1.355
33272SOL     OW48654   6.572   2.735   7.414
33272SOL    HW148655   6.521   2.732   7.328
33272SOL    HW248656   6.509   2.741   7.491
33273SOL     OW48657   3.977   4.406   7.493
33273SOL    HW148658   4.060   4.352   7.504
33273SOL    HW248659   3.908   4.373   7.558
33274SOL     OW48660   5.260   7.004   0.533
33274SOL    HW148661   5.239   7.074   0.602
33274SOL    HW248662   5.230   6.915   0.566
33275SOL     OW48663  11.797   1.328   5.955
33275SOL    HW148664  11.786   1.238   5.997
33275SOL    HW248665  11.839   1.391   6.020
33276SOL     OW48666  16.185   9.450   1.392
33276SOL    HW148667  16.193   9.431   1.490
33276SOL    HW248668  16.267   9.417   1.345
33277SOL     OW48669  16.878   7.408   6.442
33277SOL    HW148670  16.860   7.462   6.524
33277SOL    HW248671  16.800   7.347   6.424
33278SOL     OW48672  13.232   3.978   0.193
33278SOL    HW148673  13.250   3.882   0.174
33278SOL    HW248674  13.313   4.018   0.237
33279SOL     OW48675   9.733  11.386   1.378
33279SOL    HW148676   9.701  11.480   1.378
33279SOL    HW248677   9.708  11.342   1.465
33280SOL     OW48678   2.496  13.284   0.506
33280SOL    HW148679   2.484  13.281   0.605
33280SOL    HW248680   2.587  13.321   0.484
33281SOL     OW48681  16.950   6.096   6.074
33281SOL    HW148682  16.850   6.103   6.074
33281SOL    HW248683   0.006   6.188   6.069
33282SOL     OW48684   1.779   2.890   0.322
33282SOL    HW148685   1.801   2.857   0.230
33282SOL    HW248686   1.827   2.976   0.339
33283SOL     OW48687   7.085  10.148   6.280
33283SOL    HW148688   7.091  10.229   6.221
33283SOL    HW248689   7.004  10.095   6.255
33284SOL     OW48690  10.991  12.878   7.989
33284SOL    HW148691  11.090  12.869   7.994
33284SOL    HW248692  10.950  12.788   7.979
33285SOL     OW48693   4.393   5.405   8.391
33285SOL    HW148694   4.359   5.403   8.298
33285SOL    HW248695   4.332   5.460   8.448
33286SOL     OW48696  14.720   2.399   0.113
33286SOL    HW148697  14.689   2.309   0.145
33286SOL    HW248698  14.772   2.387   0.028
33287SOL     OW48699   4.007   3.601   7.204
33287SOL    HW148700   3.911   3.612   7.229
33287SOL    HW248701   4.015   3.525   7.139
33288SOL     OW48702  10.606  16.699   6.766
33288SOL    HW148703  10.601  16.599   6.773
33288SOL    HW248704  10.697  16.725   6.733
33289SOL     OW48705  10.312  16.953   0.542
33289SOL    HW148706  10.378  16.891   0.500
33289SOL    HW248707  10.324  16.953   0.642
33290SOL     OW48708   9.508   4.779   6.819
33290SOL    HW148709   9.489   4.684   6.793
33290SOL    HW248710   9.428   4.836   6.797
33291SOL     OW48711   7.514   4.663   8.318
33291SOL    HW148712   7.550   4.570   8.328
33291SOL    HW248713   7.419   4.665   8.349
33292SOL     OW48714   6.414   1.470   0.334
33292SOL    HW148715   6.370   1.468   0.244
33292SOL    HW248716   6.407   1.562   0.372
33293SOL     OW48717   6.686  11.036   0.255
33293SOL    HW148718   6.642  10.978   0.324
33293SOL    HW248719   6.659  11.131   0.270
33294SOL     OW48720   1.069   6.707   0.958
33294SOL    HW148721   1.147   6.719   0.897
33294SOL    HW248722   1.065   6.612   0.988
33295SOL     OW48723   9.547   2.170   6.464
33295SOL    HW148724   9.472   2.132   6.518
33295SOL    HW248725   9.555   2.121   6.378
33296SOL     OW48726  13.267   6.551   8.325
33296SOL    HW148727  13.197   6.614   8.360
33296SOL    HW248728  13.226   6.461   8.312
33297SOL     OW48729   6.166   3.170   1.430
33297SOL    HW148730   6.080   3.219   1.411
33297SOL    HW248731   6.199   3.195   1.521
33298SOL     OW48732  13.360  15.464   8.407
33298SOL    HW148733  13.418  15.487   0.031
33298SOL    HW248734  13.407  15.396   8.351
33299SOL     OW48735   3.570  13.904   1.630
33299SOL    HW148736   3.614  13.988   1.662
33299SOL    HW248737   3.471  13.916   1.632
33300SOL     OW48738  15.097   5.174   7.924
33300SOL    HW148739  15.094   5.078   7.894
33300SOL    HW248740  15.043   5.229   7.861
33301SOL     OW48741  10.451   8.222   6.835
33301SOL    HW148742  10.457   8.181   6.744
33301SOL    HW248743  10.399   8.162   6.895
33302SOL     OW48744  13.123  13.998   6.905
33302SOL    HW148745  13.202  14.036   6.953
33302SOL    HW248746  13.139  14.000   6.807
33303SOL     OW48747   0.751   2.223   6.726
33303SOL    HW148748   0.713   2.135   6.698
33303SOL    HW248749   0.715   2.295   6.667
33304SOL     OW48750   4.375  16.006   1.582
33304SOL    HW148751   4.405  16.011   1.678
33304SOL    HW248752   4.311  16.080   1.563
33305SOL     OW48753   5.680   5.475   6.867
33305SOL    HW148754   5.677   5.483   6.966
33305SOL    HW248755   5.608   5.413   6.836
33306SOL     OW48756  14.110   9.211   1.928
33306SOL    HW148757  14.127   9.309   1.925
33306SOL    HW248758  14.021   9.193   1.969
33307SOL     OW48759   1.866  16.903   7.141
33307SOL    HW148760   1.821  16.867   7.223
33307SOL    HW248761   1.897   0.013   7.159
33308SOL     OW48762  15.931   9.498   2.406
33308SOL    HW148763  16.002   9.564   2.431
33308SOL    HW248764  15.970   9.406   2.403
33309SOL     OW48765  10.447   1.429   6.833
33309SOL    HW148766  10.436   1.336   6.800
33309SOL    HW248767  10.359   1.466   6.862
33310SOL     OW48768   8.069   9.382   7.911
33310SOL    HW148769   8.169   9.382   7.911
33310SOL    HW248770   8.036   9.458   7.967
33311SOL     OW48771   3.492  14.771   7.006
33311SOL    HW148772   3.398  14.802   7.015
33311SOL    HW248773   3.494  14.671   7.008
33312SOL     OW48774  15.868  10.653   2.434
33312SOL    HW148775  15.941  10.719   2.451
33312SOL    HW248776  15.845  10.605   2.519
33313SOL     OW48777  10.601  10.552   1.777
33313SOL    HW148778  10.665  10.595   1.840
33313SOL    HW248779  10.524  10.515   1.828
33314SOL     OW48780   5.212   4.382   8.264
33314SOL    HW148781   5.187   4.324   8.186
33314SOL    HW248782   5.169   4.348   8.347
33315SOL     OW48783   7.777   1.535   7.171
33315SOL    HW148784   7.833   1.545   7.253
33315SOL    HW248785   7.690   1.492   7.195
33316SOL     OW48786   8.218  16.124   7.946
33316SOL    HW148787   8.134  16.168   7.977
33316SOL    HW248788   8.262  16.077   8.023
33317SOL     OW48789   6.382   7.810   7.921
33317SOL    HW148790   6.412   7.715   7.931
33317SOL    HW248791   6.390   7.858   8.008
33318SOL     OW48792   3.654  14.582   1.603
33318SOL    HW148793   3.672  14.535   1.517
33318SOL    HW248794   3.578  14.537   1.650
33319SOL     OW48795  12.773   4.169   6.626
33319SOL    HW148796  12.737   4.159   6.534
33319SOL    HW248797  12.863   4.125   6.632
33320SOL     OW48798   2.284   6.897   7.205
33320SOL    HW148799   2.196   6.854   7.224
33320SOL    HW248800   2.294   6.980   7.260
33321SOL     OW48801  14.794   5.496   6.498
33321SOL    HW148802  14.842   5.452   6.422
33321SOL    HW248803  14.847   5.576   6.529
33322SOL     OW48804   5.955   1.549   6.562
33322SOL    HW148805   5.995   1.572   6.474
33322SOL    HW248806   5.917   1.456   6.558
33323SOL     OW48807   8.339   9.476   0.026
33323SOL    HW148808   8.287   9.403   0.071
33323SOL    HW248809   8.291   9.563   0.038
33324SOL     OW48810  10.500   2.817   6.672
33324SOL    HW148811  10.483   2.719   6.683
33324SOL    HW248812  10.428   2.869   6.717
33325SOL     OW48813  12.994  14.208   6.699
33325SOL    HW148814  13.064  14.140   6.675
33325SOL    HW248815  13.008  14.238   6.793
33326SOL     OW48816   9.072   3.128   0.454
33326SOL    HW148817   9.132   3.126   0.373
33326SOL    HW248818   9.072   3.221   0.492
33327SOL     OW48819  16.552  16.338   6.319
33327SOL    HW148820  16.601  16.304   6.399
33327SOL    HW248821  16.616  16.353   6.244
33328SOL     OW48822   8.530   8.650   6.671
33328SOL    HW148823   8.432   8.663   6.685
33328SOL    HW248824   8.552   8.667   6.575
33329SOL     OW48825   1.424  10.706   1.830
33329SOL    HW148826   1.410  10.652   1.913
33329SOL    HW248827   1.512  10.753   1.835
33330SOL     OW48828   6.151  14.860   7.355
33330SOL    HW148829   6.129  14.817   7.268
33330SOL    HW248830   6.119  14.803   7.430
33331SOL     OW48831   2.938   4.627   6.929
33331SOL    HW148832   2.966   4.712   6.883
33331SOL    HW248833   2.875   4.649   7.004
33332SOL     OW48834   3.712  16.843   8.004
33332SOL    HW148835   3.638  16.777   7.993
33332SOL    HW248836   3.731  16.886   7.917
33333SOL     OW48837   0.168  13.539   1.098
33333SOL    HW148838   0.222  13.622   1.102
33333SOL    HW248839   0.202  13.480   1.025
33334SOL     OW48840  11.859  11.988   7.900
33334SOL    HW148841  11.916  12.041   7.963
33334SOL    HW248842  11.895  11.998   7.807
33335SOL     OW48843  16.275   3.807   0.974
33335SOL    HW148844  16.311   3.810   0.881
33335SOL    HW248845  16.322   3.735   1.026
33336SOL     OW48846   6.369   7.580   6.274
33336SOL    HW148847   6.366   7.487   6.238
33336SOL    HW248848   6.369   7.645   6.198
33337SOL     OW48849  12.833  12.667   1.307
33337SOL    HW148850  12.772  12.615   1.367
33337SOL    HW248851  12.928  12.652   1.336
33338SOL     OW48852   1.813   5.201   7.830
33338SOL    HW148853   1.761   5.276   7.871
33338SOL    HW248854   1.906   5.232   7.811
33339SOL     OW48855   7.034   6.742   6.528
33339SOL    HW148856   6.976   6.743   6.609
33339SOL    HW248857   6.986   6.783   6.450
33340SOL     OW48858  10.931  14.893   7.259
33340SOL    HW148859  10.931  14.939   7.170
33340SOL    HW248860  11.017  14.912   7.307
33341SOL     OW48861   3.705   7.040   1.230
33341SOL    HW148862   3.623   7.096   1.235
33341SOL    HW248863   3.704   6.985   1.146
33342SOL     OW48864  13.902  11.159   2.027
33342SOL    HW148865  13.845  11.230   1.985
33342SOL    HW248866  13.886  11.157   2.126
33343SOL     OW48867   1.859   0.829   1.091
33343SOL    HW148868   1.922   0.845   1.167
33343SOL    HW248869   1.776   0.785   1.127
33344SOL     OW48870   9.455   4.846   8.375
33344SOL    HW148871   9.393   4.787   8.323
33344SOL    HW248872   9.409   4.933   8.395
33345SOL     OW48873   2.300  12.754   8.202
33345SOL    HW148874   2.240  12.820   8.156
33345SOL    HW248875   2.328  12.791   8.291
33346SOL     OW48876  11.302  10.539   1.723
33346SOL    HW148877  11.244  10.468   1.764
33346SOL    HW248878  11.388  10.544   1.773
33347SOL     OW48879   7.583   1.574   6.415
33347SOL    HW148880   7.582   1.669   6.386
33347SOL    HW248881   7.634   1.519   6.348
33348SOL     OW48882  15.370   1.031   7.837
33348SOL    HW148883  15.436   1.095   7.874
33348SOL    HW248884  15.357   1.048   7.740
33349SOL     OW48885   3.975  14.501   1.136
33349SOL    HW148886   4.043  14.430   1.154
33349SOL    HW248887   3.922  14.477   1.055
33350SOL     OW48888  15.981  12.230   8.440
33350SOL    HW148889  15.987  12.180   8.354
33350SOL    HW248890  15.898  12.286   8.440
33351SOL     OW48891  10.420   8.418   7.691
33351SOL    HW148892  10.449   8.370   7.774
33351SOL    HW248893  10.495   8.418   7.625
33352SOL     OW48894  15.482   0.059   8.409
33352SOL    HW148895  15.442  16.951   8.408
33352SOL    HW248896  15.577   0.054   8.381
33353SOL     OW48897   0.758   5.523   1.754
33353SOL    HW148898   0.679   5.544   1.811
33353SOL    HW248899   0.824   5.467   1.805
33354SOL     OW48900  15.696   4.767   0.007
33354SOL    HW148901  15.603   4.730   0.012
33354SOL    HW248902  15.694   4.864   0.031
33355SOL     OW48903  10.342   9.327   6.627
33355SOL    HW148904  10.256   9.377   6.629
33355SOL    HW248905  10.328   9.238   6.583
33356SOL     OW48906   7.440  12.956   0.609
33356SOL    HW148907   7.462  13.035   0.552
33356SOL    HW248908   7.365  12.904   0.568
33357SOL     OW48909   1.913   6.143   7.415
33357SOL    HW148910   1.963   6.229   7.427
33357SOL    HW248911   1.906   6.096   7.503
33358SOL     OW48912  13.336   2.705   1.143
33358SOL    HW148913  13.251   2.663   1.112
33358SOL    HW248914  13.353   2.680   1.239
33359SOL     OW48915   5.582   7.715   1.585
33359SOL    HW148916   5.544   7.791   1.532
33359SOL    HW248917   5.618   7.645   1.524
33360SOL     OW48918  11.021  15.322   1.282
33360SOL    HW148919  10.984  15.291   1.369
33360SOL    HW248920  11.121  15.328   1.287
33361SOL     OW48921   9.748  10.108   0.374
33361SOL    HW148922   9.722  10.012   0.360
33361SOL    HW248923   9.814  10.114   0.448
33362SOL     OW48924   8.165  11.478   1.046
33362SOL    HW148925   8.112  11.560   1.064
33362SOL    HW248926   8.112  11.397   1.073
33363SOL     OW48927   1.442   3.372   6.131
33363SOL    HW148928   1.413   3.346   6.038
33363SOL    HW248929   1.362   3.398   6.185
33364SOL     OW48930  16.143  10.181   6.872
33364SOL    HW148931  16.177  10.261   6.822
33364SOL    HW248932  16.120  10.208   6.965
33365SOL     OW48933   0.353   6.647   7.585
33365SOL    HW148934   0.347   6.548   7.602
33365SOL    HW248935   0.266   6.679   7.549
33366SOL     OW48936   9.910   8.135   1.599
33366SOL    HW148937   9.834   8.071   1.612
33366SOL    HW248938   9.975   8.125   1.674
33367SOL     OW48939   3.283   5.278   1.370
33367SOL    HW148940   3.347   5.201   1.370
33367SOL    HW248941   3.305   5.339   1.294
33368SOL     OW48942  16.699  16.148   1.251
33368SOL    HW148943  16.629  16.155   1.322
33368SOL    HW248944  16.773  16.089   1.284
33369SOL     OW48945  10.127   6.247   8.302
33369SOL    HW148946  10.129   6.201   8.391
33369SOL    HW248947  10.220   6.251   8.265
33370SOL     OW48948   3.395   4.106   7.934
33370SOL    HW148949   3.416   4.201   7.954
33370SOL    HW248950   3.295   4.093   7.934
33371SOL     OW48951   3.071   8.965   0.089
33371SOL    HW148952   3.098   8.985   8.449
33371SOL    HW248953   3.141   9.001   0.152
33372SOL     OW48954   2.535   8.141   6.796
33372SOL    HW148955   2.495   8.073   6.857
33372SOL    HW248956   2.481   8.148   6.712
33373SOL     OW48957   0.808   9.170   1.116
33373SOL    HW148958   0.759   9.239   1.063
33373SOL    HW248959   0.834   9.209   1.205
33374SOL     OW48960   6.209   5.465   7.164
33374SOL    HW148961   6.279   5.449   7.234
33374SOL    HW248962   6.215   5.560   7.133
33375SOL     OW48963   7.585   8.544   0.232
33375SOL    HW148964   7.525   8.511   0.159
33375SOL    HW248965   7.556   8.635   0.260
33376SOL     OW48966   8.316   6.413   1.795
33376SOL    HW148967   8.381   6.436   1.868
33376SOL    HW248968   8.360   6.352   1.729
33377SOL     OW48969  15.469  14.558   7.041
33377SOL    HW148970  15.534  14.495   6.997
33377SOL    HW248971  15.475  14.648   6.997
33378SOL     OW48972   3.153   2.467   0.944
33378SOL    HW148973   3.140   2.516   0.858
33378SOL    HW248974   3.232   2.503   0.992
33379SOL     OW48975   9.460  12.298   8.204
33379SOL    HW148976   9.500  12.366   8.266
33379SOL    HW248977   9.369  12.329   8.175
33380SOL     OW48978  16.318   0.509   7.040
33380SOL    HW148979  16.382   0.577   7.076
33380SOL    HW248980  16.359   0.418   7.047
33381SOL     OW48981   2.607  10.211   8.203
33381SOL    HW148982   2.578  10.124   8.243
33381SOL    HW248983   2.644  10.195   8.112
33382SOL     OW48984  10.153  15.973   6.624
33382SOL    HW148985  10.141  16.067   6.657
33382SOL    HW248986  10.192  15.917   6.697
33383SOL     OW48987   7.775   6.210   1.770
33383SOL    HW148988   7.829   6.220   1.854
33383SOL    HW248989   7.833   6.174   1.698
33384SOL     OW48990  11.326   2.044   7.929
33384SOL    HW148991  11.337   2.137   7.964
33384SOL    HW248992  11.356   2.040   7.833
33385SOL     OW48993  16.470   7.517   8.247
33385SOL    HW148994  16.563   7.552   8.258
33385SOL    HW248995  16.413   7.585   8.200
33386SOL     OW48996   8.331   6.259   7.903
33386SOL    HW148997   8.429   6.272   7.890
33386SOL    HW248998   8.287   6.348   7.914
33387SOL     OW48999  15.830   4.840   6.062
33387SOL    HW149000  15.736   4.872   6.049
33387SOL    HW249001  15.893   4.898   6.010
33388SOL     OW49002   7.168  13.772   6.537
33388SOL    HW149003   7.146  13.852   6.593
33388SOL    HW249004   7.091  13.750   6.477
33389SOL     OW49005   7.847  11.810   8.006
33389SOL    HW149006   7.873  11.884   7.944
33389SOL    HW249007   7.805  11.736   7.953
33390SOL     OW49008  12.171   3.767   0.637
33390SOL    HW149009  12.161   3.726   0.728
33390SOL    HW249010  12.156   3.697   0.567
33391SOL     OW49011  11.475  11.822   0.492
33391SOL    HW149012  11.412  11.875   0.436
33391SOL    HW249013  11.479  11.728   0.459
33392SOL     OW49014   0.412   8.749   1.251
33392SOL    HW149015   0.497   8.776   1.297
33392SOL    HW249016   0.378   8.825   1.196
33393SOL     OW49017   4.811  14.168   2.564
33393SOL    HW149018   4.833  14.106   2.640
33393SOL    HW249019   4.715  14.159   2.540
33394SOL     OW49020   3.893   9.890   7.222
33394SOL    HW149021   3.983   9.882   7.265
33394SOL    HW249022   3.852   9.978   7.246
33395SOL     OW49023   6.042  10.157   6.777
33395SOL    HW149024   6.083  10.214   6.706
33395SOL    HW249025   5.955  10.197   6.806
33396SOL     OW49026   0.782   4.269   1.042
33396SOL    HW149027   0.779   4.236   0.948
33396SOL    HW249028   0.696   4.313   1.066
33397SOL     OW49029  14.144  13.842   7.611
33397SOL    HW149030  14.083  13.796   7.675
33397SOL    HW249031  14.091  13.875   7.533
33398SOL     OW49032   4.198  11.157   1.923
33398SOL    HW149033   4.212  11.239   1.979
33398SOL    HW249034   4.164  11.184   1.833
33399SOL     OW49035   0.839   5.136   8.141
33399SOL    HW149036   0.819   5.040   8.156
33399SOL    HW249037   0.775   5.193   8.193
33400SOL     OW49038   2.175  12.614   0.150
33400SOL    HW149039   2.257  12.670   0.164
33400SOL    HW249040   2.197  12.518   0.169
33401SOL     OW49041   7.359   7.784   1.600
33401SOL    HW149042   7.384   7.690   1.579
33401SOL    HW249043   7.307   7.823   1.523
33402SOL     OW49044   6.335  16.772   1.888
33402SOL    HW149045   6.296  16.685   1.919
33402SOL    HW249046   6.371  16.822   1.966
33403SOL     OW49047   2.466  15.669   7.677
33403SOL    HW149048   2.459  15.769   7.665
33403SOL    HW249049   2.546  15.635   7.628
33404SOL     OW49050  10.103   7.517   0.382
33404SOL    HW149051  10.154   7.531   0.297
33404SOL    HW249052  10.161   7.545   0.459
33405SOL     OW49053   8.634   7.378   1.438
33405SOL    HW149054   8.668   7.466   1.473
33405SOL    HW249055   8.637   7.310   1.510
33406SOL     OW49056  12.238  13.288   7.565
33406SOL    HW149057  12.320  13.345   7.557
33406SOL    HW249058  12.233  13.226   7.487
33407SOL     OW49059   2.265   9.574   1.335
33407SOL    HW149060   2.210   9.567   1.252
33407SOL    HW249061   2.211   9.616   1.408
33408SOL     OW49062   2.920  16.856   1.696
33408SOL    HW149063   2.865  16.774   1.689
33408SOL    HW249064   2.876  16.931   1.645
33409SOL     OW49065  15.956  12.673   0.601
33409SOL    HW149066  16.026  12.643   0.667
33409SOL    HW249067  15.954  12.609   0.524
33410SOL     OW49068   3.595   9.678   1.487
33410SOL    HW149069   3.677   9.680   1.429
33410SOL    HW249070   3.548   9.766   1.480
33411SOL     OW49071   2.152  15.785   7.014
33411SOL    HW149072   2.189  15.744   7.098
33411SOL    HW249073   2.100  15.867   7.037
33412SOL     OW49074  11.519   6.076   0.907
33412SOL    HW149075  11.573   6.123   0.838
33412SOL    HW249076  11.580   6.032   0.973
33413SOL     OW49077  13.927   5.374   7.296
33413SOL    HW149078  13.914   5.470   7.271
33413SOL    HW249079  14.023   5.350   7.286
33414SOL     OW49080   1.682  16.675   6.466
33414SOL    HW149081   1.614  16.689   6.394
33414SOL    HW249082   1.774  16.678   6.427
33415SOL     OW49083   7.535  13.854   8.113
33415SOL    HW149084   7.624  13.818   8.086
33415SOL    HW249085   7.536  13.876   8.210
33416SOL     OW49086   1.874   3.693   1.632
33416SOL    HW149087   1.902   3.789   1.639
33416SOL    HW249088   1.883   3.650   1.722
33417SOL     OW49089   1.174   8.786   8.106
33417SOL    HW149090   1.212   8.862   8.158
33417SOL    HW249091   1.243   8.714   8.099
33418SOL     OW49092   8.524   4.406   5.860
33418SOL    HW149093   8.431   4.375   5.882
33418SOL    HW249094   8.539   4.397   5.762
33419SOL     OW49095   5.638   1.015   0.503
33419SOL    HW149096   5.557   0.983   0.553
33419SOL    HW249097   5.717   1.015   0.565
33420SOL     OW49098  11.627  13.916   7.371
33420SOL    HW149099  11.550  13.930   7.433
33420SOL    HW249100  11.681  13.838   7.402
33421SOL     OW49101  10.336   7.068   6.233
33421SOL    HW149102  10.349   7.120   6.148
33421SOL    HW249103  10.424   7.057   6.279
33422SOL     OW49104   2.586  11.484   1.036
33422SOL    HW149105   2.565  11.555   1.104
33422SOL    HW249106   2.614  11.401   1.083
33423SOL     OW49107   7.247   0.098   0.067
33423SOL    HW149108   7.206   0.189   0.065
33423SOL    HW249109   7.346   0.106   0.066
33424SOL     OW49110   5.754   0.463   7.913
33424SOL    HW149111   5.660   0.441   7.938
33424SOL    HW249112   5.765   0.452   7.814
33425SOL     OW49113  13.476  13.392   6.868
33425SOL    HW149114  13.436  13.442   6.792
33425SOL    HW249115  13.564  13.354   6.839
33426SOL     OW49116   6.595   9.842   6.656
33426SOL    HW149117   6.606   9.747   6.624
33426SOL    HW249118   6.658   9.901   6.605
33427SOL     OW49119   8.299   4.899   5.780
33427SOL    HW149120   8.355   4.866   5.705
33427SOL    HW249121   8.206   4.916   5.748
33428SOL     OW49122   7.027   6.757   0.690
33428SOL    HW149123   7.122   6.742   0.662
33428SOL    HW249124   6.987   6.829   0.633
33429SOL     OW49125   7.740  13.494   7.462
33429SOL    HW149126   7.744  13.396   7.477
33429SOL    HW249127   7.821  13.524   7.410
33430SOL     OW49128  12.780   6.825   1.034
33430SOL    HW149129  12.875   6.794   1.043
33430SOL    HW249130  12.718   6.750   1.057
33431SOL     OW49131   4.413  12.161   0.212
33431SOL    HW149132   4.481  12.127   0.277
33431SOL    HW249133   4.388  12.254   0.237
33432SOL     OW49134  14.540   1.049   8.343
33432SOL    HW149135  14.508   1.140   8.367
33432SOL    HW249136  14.579   1.005   8.424
33433SOL     OW49137  10.949   0.185   6.374
33433SOL    HW149138  10.857   0.176   6.414
33433SOL    HW249139  10.978   0.097   6.337
33434SOL     OW49140   0.045  10.400   2.009
33434SOL    HW149141  16.943  10.410   2.060
33434SOL    HW249142   0.122  10.409   2.072
33435SOL     OW49143   7.031  14.639   6.956
33435SOL    HW149144   6.975  14.721   6.966
33435SOL    HW249145   7.071  14.615   7.045
33436SOL     OW49146   5.947  13.061   1.556
33436SOL    HW149147   5.909  12.986   1.610
33436SOL    HW249148   5.875  13.129   1.539
33437SOL     OW49149  12.793  12.925   1.396
33437SOL    HW149150  12.867  12.988   1.369
33437SOL    HW249151  12.809  12.835   1.355
33438SOL     OW49152   0.978   5.957   0.460
33438SOL    HW149153   0.987   6.029   0.529
33438SOL    HW249154   1.068   5.916   0.442
33439SOL     OW49155   0.736  10.761   8.102
33439SOL    HW149156   0.645  10.740   8.065
33439SOL    HW249157   0.771  10.681   8.150
33440SOL     OW49158   9.128  14.485   6.559
33440SOL    HW149159   9.185  14.556   6.600
33440SOL    HW249160   9.035  14.519   6.549
33441SOL     OW49161   5.544   9.065   7.196
33441SOL    HW149162   5.630   9.020   7.219
33441SOL    HW249163   5.516   9.039   7.104
33442SOL     OW49164  13.710  11.467   8.217
33442SOL    HW149165  13.758  11.540   8.265
33442SOL    HW249166  13.763  11.382   8.223
33443SOL     OW49167  12.378   3.657   7.150
33443SOL    HW149168  12.357   3.595   7.075
33443SOL    HW249169  12.391   3.750   7.115
33444SOL     OW49170  16.175  12.555   6.902
33444SOL    HW149171  16.102  12.544   6.834
33444SOL    HW249172  16.263  12.538   6.859
33445SOL     OW49173   6.895   6.431   1.073
33445SOL    HW149174   6.884   6.518   1.024
33445SOL    HW249175   6.939   6.364   1.012
33446SOL     OW49176   9.119  10.201   1.700
33446SOL    HW149177   9.183  10.206   1.777
33446SOL    HW249178   9.157  10.142   1.629
33447SOL     OW49179   4.064   8.345   8.024
33447SOL    HW149180   4.017   8.280   8.083
33447SOL    HW249181   4.147   8.379   8.069
33448SOL     OW49182  11.023   9.132   7.270
33448SOL    HW149183  10.995   9.227   7.282
33448SOL    HW249184  11.121   9.128   7.252
33449SOL     OW49185  16.118   9.646   0.745
33449SOL    HW149186  16.152   9.734   0.776
33449SOL    HW249187  16.189   9.599   0.692
33450SOL     OW49188  16.600   3.845   1.188
33450SOL    HW149189  16.623   3.748   1.179
33450SOL    HW249190  16.554   3.876   1.104
33451SOL     OW49191  10.230   3.935   7.315
33451SOL    HW149192  10.262   4.011   7.258
33451SOL    HW249193  10.183   3.868   7.257
33452SOL     OW49194   2.398  15.630   8.246
33452SOL    HW149195   2.444  15.708   8.289
33452SOL    HW249196   2.375  15.653   8.151
33453SOL     OW49197   2.771  16.089   7.310
33453SOL    HW149198   2.854  16.136   7.340
33453SOL    HW249199   2.691  16.147   7.327
33454SOL     OW49200   0.246   6.368   7.710
33454SOL    HW149201   0.328   6.351   7.655
33454SOL    HW249202   0.201   6.281   7.731
33455SOL     OW49203  13.675  15.721   8.210
33455SOL    HW149204  13.703  15.767   8.125
33455SOL    HW249205  13.577  15.700   8.205
33456SOL     OW49206  13.313  11.670   1.009
33456SOL    HW149207  13.365  11.588   0.984
33456SOL    HW249208  13.237  11.645   1.069
33457SOL     OW49209  15.099   9.328   8.240
33457SOL    HW149210  15.020   9.271   8.216
33457SOL    HW249211  15.067   9.413   8.282
33458SOL     OW49212  12.624   3.612   8.360
33458SOL    HW149213  12.557   3.538   8.354
33458SOL    HW249214  12.711   3.581   8.323
33459SOL     OW49215  10.979  12.982   1.697
33459SOL    HW149216  10.885  12.949   1.703
33459SOL    HW249217  11.006  13.025   1.783
33460SOL     OW49218   4.819   6.339   1.690
33460SOL    HW149219   4.720   6.345   1.683
33460SOL    HW249220   4.859   6.327   1.599
33461SOL     OW49221   1.148   7.997   1.989
33461SOL    HW149222   1.161   8.032   2.082
33461SOL    HW249223   1.121   7.901   1.993
33462SOL     OW49224  12.870   2.488   5.806
33462SOL    HW149225  12.789   2.534   5.770
33462SOL    HW249226  12.895   2.412   5.747
33463SOL     OW49227   5.294   5.557   6.843
33463SOL    HW149228   5.236   5.555   6.761
33463SOL    HW249229   5.343   5.644   6.848
33464SOL     OW49230  12.655  12.415   1.054
33464SOL    HW149231  12.749  12.385   1.069
33464SOL    HW249232  12.609  12.427   1.141
33465SOL     OW49233   1.526  15.187   7.739
33465SOL    HW149234   1.484  15.204   7.650
33465SOL    HW249235   1.516  15.090   7.762
33466SOL     OW49236   6.054   1.200   0.716
33466SOL    HW149237   6.082   1.262   0.642
33466SOL    HW249238   6.015   1.252   0.791
33467SOL     OW49239   5.956   2.455   2.362
33467SOL    HW149240   5.873   2.447   2.417
33467SOL    HW249241   6.029   2.495   2.418
33468SOL     OW49242   9.965  11.116   7.515
33468SOL    HW149243   9.882  11.093   7.566
33468SOL    HW249244  10.009  11.195   7.558
33469SOL     OW49245   7.570   0.416   1.328
33469SOL    HW149246   7.585   0.344   1.396
33469SOL    HW249247   7.522   0.378   1.249
33470SOL     OW49248   9.909  10.120   6.576
33470SOL    HW149249   9.828  10.162   6.617
33470SOL    HW249250   9.948  10.181   6.507
33471SOL     OW49251   7.469   6.462   0.759
33471SOL    HW149252   7.408   6.402   0.706
33471SOL    HW249253   7.414   6.525   0.814
33472SOL     OW49254   3.090   8.632   1.235
33472SOL    HW149255   3.121   8.551   1.285
33472SOL    HW249256   2.992   8.625   1.217
33473SOL     OW49257   0.984   7.672   1.325
33473SOL    HW149258   0.955   7.576   1.324
33473SOL    HW249259   0.919   7.728   1.274
33474SOL     OW49260   6.896   6.107   0.433
33474SOL    HW149261   6.835   6.161   0.491
33474SOL    HW249262   6.987   6.102   0.476
33475SOL     OW49263   1.712   3.786   0.914
33475SOL    HW149264   1.724   3.700   0.963
33475SOL    HW249265   1.621   3.788   0.873
33476SOL     OW49266   6.445   5.445   0.753
33476SOL    HW149267   6.383   5.492   0.816
33476SOL    HW249268   6.419   5.467   0.659
33477SOL     OW49269   5.139  16.876   2.645
33477SOL    HW149270   5.062  16.870   2.710
33477SOL    HW249271   5.134  16.962   2.595
33478SOL     OW49272   7.962   5.568   0.592
33478SOL    HW149273   7.930   5.662   0.601
33478SOL    HW249274   7.957   5.539   0.496
33479SOL     OW49275   1.975   4.573   7.939
33479SOL    HW149276   1.908   4.595   8.009
33479SOL    HW249277   1.960   4.629   7.858
33480SOL     OW49278  12.449   8.153   8.182
33480SOL    HW149279  12.397   8.235   8.155
33480SOL    HW249280  12.474   8.160   8.279
33481SOL     OW49281  13.418  12.749   0.816
33481SOL    HW149282  13.437  12.845   0.839
33481SOL    HW249283  13.487  12.715   0.753
33482SOL     OW49284  11.236  10.551   0.903
33482SOL    HW149285  11.167  10.534   0.973
33482SOL    HW249286  11.261  10.648   0.904
33483SOL     OW49287   6.089   3.242   7.225
33483SOL    HW149288   6.120   3.147   7.228
33483SOL    HW249289   6.123   3.291   7.305
33484SOL     OW49290  13.748  11.368   1.949
33484SOL    HW149291  13.714  11.394   2.040
33484SOL    HW249292  13.825  11.426   1.924
33485SOL     OW49293   9.479   2.660   6.851
33485SOL    HW149294   9.510   2.569   6.878
33485SOL    HW249295   9.504   2.726   6.922
33486SOL     OW49296   6.726  12.281   0.837
33486SOL    HW149297   6.742  12.296   0.935
33486SOL    HW249298   6.799  12.323   0.784
33487SOL     OW49299  14.187   9.864   6.705
33487SOL    HW149300  14.128   9.801   6.655
33487SOL    HW249301  14.178   9.847   6.803
33488SOL     OW49302   6.253   0.084   8.149
33488SOL    HW149303   6.335   0.079   8.091
33488SOL    HW249304   6.175   0.048   8.100
33489SOL     OW49305   5.666   8.198   0.536
33489SOL    HW149306   5.738   8.130   0.542
33489SOL    HW249307   5.682   8.269   0.605
33490SOL     OW49308  10.095   6.481   8.151
33490SOL    HW149309  10.007   6.525   8.170
33490SOL    HW249310  10.100   6.394   8.199
33491SOL     OW49311  10.124   5.299   0.388
33491SOL    HW149312  10.212   5.286   0.433
33491SOL    HW249313  10.134   5.366   0.315
33492SOL     OW49314   0.961  16.312   1.462
33492SOL    HW149315   1.061  16.316   1.471
33492SOL    HW249316   0.921  16.286   1.549
33493SOL     OW49317   8.887  10.175   1.978
33493SOL    HW149318   8.975  10.134   2.000
33493SOL    HW249319   8.826  10.171   2.057
33494SOL     OW49320   1.919   5.418   0.553
33494SOL    HW149321   1.841   5.388   0.607
33494SOL    HW249322   1.901   5.402   0.456
33495SOL     OW49323   4.538   9.285   1.456
33495SOL    HW149324   4.590   9.274   1.541
33495SOL    HW249325   4.592   9.253   1.379
33496SOL     OW49326   1.755  15.187   7.355
33496SOL    HW149327   1.787  15.127   7.428
33496SOL    HW249328   1.826  15.256   7.337
33497SOL     OW49329   6.954  16.304   1.614
33497SOL    HW149330   6.991  16.331   1.703
33497SOL    HW249331   7.000  16.356   1.542
33498SOL     OW49332   6.168   2.267   7.921
33498SOL    HW149333   6.123   2.283   8.009
33498SOL    HW249334   6.242   2.201   7.933
33499SOL     OW49335   5.123  13.752   0.841
33499SOL    HW149336   5.062  13.829   0.822
33499SOL    HW249337   5.076  13.666   0.822
33500SOL     OW49338  14.760   6.332   6.884
33500SOL    HW149339  14.662   6.351   6.878
33500SOL    HW249340  14.779   6.243   6.842
33501SOL     OW49341  16.776  10.208   0.133
33501SOL    HW149342  16.742  10.115   0.148
33501SOL    HW249343  16.810  10.215   0.039
33502SOL     OW49344  13.050   6.835   7.583
33502SOL    HW149345  13.104   6.806   7.663
33502SOL    HW249346  13.060   6.767   7.510
33503SOL     OW49347   4.526   5.012   0.441
33503SOL    HW149348   4.574   5.028   0.355
33503SOL    HW249349   4.592   4.996   0.514
33504SOL     OW49350   3.914   1.125   1.314
33504SOL    HW149351   3.907   1.219   1.281
33504SOL    HW249352   3.899   1.124   1.413
33505SOL     OW49353  14.795   5.666   0.451
33505SOL    HW149354  14.840   5.648   0.364
33505SOL    HW249355  14.759   5.581   0.488
33506SOL     OW49356   5.631  10.999   8.117
33506SOL    HW149357   5.728  10.993   8.141
33506SOL    HW249358   5.601  10.913   8.077
33507SOL     OW49359  13.870  12.356   0.690
33507SOL    HW149360  13.943  12.403   0.741
33507SOL    HW249361  13.858  12.264   0.727
33508SOL     OW49362  15.080  10.392   1.350
33508SOL    HW149363  15.070  10.313   1.290
33508SOL    HW249364  15.106  10.362   1.442
33509SOL     OW49365   2.300   5.366   1.362
33509SOL    HW149366   2.326   5.397   1.453
33509SOL    HW249367   2.340   5.277   1.344
33510SOL     OW49368  13.251   8.896   8.267
33510SOL    HW149369  13.265   8.905   8.168
33510SOL    HW249370  13.176   8.832   8.285
33511SOL     OW49371  16.774  10.641   7.983
33511SOL    HW149372  16.738  10.632   7.889
33511SOL    HW249373  16.698  10.645   8.047
33512SOL     OW49374  10.085  15.166   0.996
33512SOL    HW149375  10.102  15.073   1.029
33512SOL    HW249376   9.988  15.188   1.009
33513SOL     OW49377  13.886  13.488   1.994
33513SOL    HW149378  13.895  13.587   1.985
33513SOL    HW249379  13.879  13.464   2.090
33514SOL     OW49380  12.532  10.654   0.825
33514SOL    HW149381  12.435  10.662   0.845
33514SOL    HW249382  12.545  10.602   0.740
33515SOL     OW49383   6.989   0.958   0.369
33515SOL    HW149384   7.077   0.911   0.360
33515SOL    HW249385   7.005   1.056   0.384
33516SOL     OW49386   3.128   6.810   0.575
33516SOL    HW149387   3.143   6.779   0.482
33516SOL    HW249388   3.210   6.793   0.630
33517SOL     OW49389   0.153  11.459   8.099
33517SOL    HW149390   0.250  11.435   8.095
33517SOL    HW249391   0.140  11.552   8.066
33518SOL     OW49392  12.750   3.836   0.256
33518SOL    HW149393  12.834   3.889   0.268
33518SOL    HW249394  12.764   3.744   0.293
33519SOL     OW49395  16.764  13.634   1.356
33519SOL    HW149396  16.775  13.693   1.275
33519SOL    HW249397  16.799  13.543   1.335
33520SOL     OW49398   6.092  14.983   0.597
33520SOL    HW149399   6.024  15.043   0.639
33520SOL    HW249400   6.183  15.025   0.605
33521SOL     OW49401  14.594   8.783   7.864
33521SOL    HW149402  14.525   8.834   7.916
33521SOL    HW249403  14.581   8.685   7.878
33522SOL     OW49404   6.925   5.375   1.597
33522SOL    HW149405   6.859   5.385   1.672
33522SOL    HW249406   7.014   5.411   1.626
33523SOL     OW49407   4.576  15.825   7.370
33523SOL    HW149408   4.670  15.790   7.366
33523SOL    HW249409   4.528  15.784   7.448
33524SOL     OW49410   1.217   0.295   7.999
33524SOL    HW149411   1.146   0.283   7.930
33524SOL    HW249412   1.229   0.210   8.050
33525SOL     OW49413   2.157   5.156   0.642
33525SOL    HW149414   2.151   5.163   0.542
33525SOL    HW249415   2.240   5.106   0.666
33526SOL     OW49416  10.264  13.745   0.529
33526SOL    HW149417  10.310  13.663   0.562
33526SOL    HW249418  10.306  13.826   0.571
33527SOL     OW49419  12.234   7.129   0.940
33527SOL    HW149420  12.293   7.120   1.020
33527SOL    HW249421  12.177   7.047   0.931
33528SOL     OW49422   6.955  14.679   0.539
33528SOL    HW149423   6.891  14.684   0.615
33528SOL    HW249424   6.933  14.599   0.482
33529SOL     OW49425  10.978   8.727   0.311
33529SOL    HW149426  10.962   8.629   0.307
33529SOL    HW249427  11.067   8.745   0.353
33530SOL     OW49428  13.804   6.636   1.187
33530SOL    HW149429  13.709   6.667   1.191
33530SOL    HW249430  13.816   6.576   1.108
33531SOL     OW49431   6.651  11.164   1.105
33531SOL    HW149432   6.748  11.175   1.082
33531SOL    HW249433   6.602  11.248   1.085
33532SOL     OW49434   5.103   5.507   7.425
33532SOL    HW149435   5.116   5.415   7.388
33532SOL    HW249436   5.084   5.500   7.523
33533SOL     OW49437  15.147  12.348   2.827
33533SOL    HW149438  15.048  12.334   2.818
33533SOL    HW249439  15.177  12.414   2.758
33534SOL     OW49440   7.365   7.730   8.272
33534SOL    HW149441   7.344   7.781   8.356
33534SOL    HW249442   7.461   7.705   8.272
33535SOL     OW49443   6.066   8.260   8.300
33535SOL    HW149444   6.037   8.353   8.277
33535SOL    HW249445   6.058   8.246   8.399
33536SOL     OW49446  10.170  14.447   6.725
33536SOL    HW149447  10.221  14.466   6.640
33536SOL    HW249448  10.076  14.422   6.703
33537SOL     OW49449  14.091  12.716   0.620
33537SOL    HW149450  14.167  12.757   0.670
33537SOL    HW249451  14.022  12.786   0.602
33538SOL     OW49452  11.678   4.674   0.980
33538SOL    HW149453  11.724   4.703   1.064
33538SOL    HW249454  11.693   4.576   0.966
33539SOL     OW49455   5.816  16.601   8.324
33539SOL    HW149456   5.898  16.559   8.364
33539SOL    HW249457   5.738  16.540   8.337
33540SOL     OW49458  13.893   5.025   7.802
33540SOL    HW149459  13.849   4.937   7.818
33540SOL    HW249460  13.921   5.031   7.706
33541SOL     OW49461   8.124  13.542   1.956
33541SOL    HW149462   8.207  13.573   2.002
33541SOL    HW249463   8.147  13.468   1.892
33542SOL     OW49464  12.329  15.370   0.333
33542SOL    HW149465  12.373  15.296   0.384
33542SOL    HW249466  12.356  15.365   0.237
33543SOL     OW49467   0.850  14.191   1.299
33543SOL    HW149468   0.837  14.205   1.201
33543SOL    HW249469   0.827  14.276   1.348
33544SOL     OW49470  14.880   5.770   6.151
33544SOL    HW149471  14.879   5.675   6.119
33544SOL    HW249472  14.911   5.830   6.077
33545SOL     OW49473   4.376  10.721   8.121
33545SOL    HW149474   4.341  10.675   8.039
33545SOL    HW249475   4.373  10.658   8.198
33546SOL     OW49476  14.368   9.582   1.989
33546SOL    HW149477  14.461   9.567   2.020
33546SOL    HW249478  14.332   9.665   2.031
33547SOL     OW49479   7.201  13.378   6.908
33547SOL    HW149480   7.232  13.330   6.825
33547SOL    HW249481   7.191  13.312   6.982
33548SOL     OW49482  12.866  16.498   0.245
33548SOL    HW149483  12.858  16.495   0.145
33548SOL    HW249484  12.905  16.586   0.273
33549SOL     OW49485  10.333   7.287   8.201
33549SOL    HW149486  10.284   7.204   8.227
33549SOL    HW249487  10.408   7.263   8.140
33550SOL     OW49488  10.968   5.813   1.243
33550SOL    HW149489  10.992   5.810   1.340
33550SOL    HW249490  11.050   5.820   1.187
33551SOL     OW49491   5.835   1.493   8.414
33551SOL    HW149492   5.862   1.401   8.384
33551SOL    HW249493   5.737   1.504   8.401
33552SOL     OW49494   9.511   4.497   6.773
33552SOL    HW149495   9.544   4.461   6.686
33552SOL    HW249496   9.539   4.436   6.848
33553SOL     OW49497  10.426   1.421   5.503
33553SOL    HW149498  10.343   1.378   5.469
33553SOL    HW249499  10.454   1.494   5.441
33554SOL     OW49500   9.401  10.261   0.150
33554SOL    HW149501   9.468  10.286   0.220
33554SOL    HW249502   9.316  10.311   0.165
33555SOL     OW49503   1.357   6.414   1.032
33555SOL    HW149504   1.432   6.388   0.971
33555SOL    HW249505   1.355   6.353   1.111
33556SOL     OW49506   9.869   0.667   7.913
33556SOL    HW149507   9.926   0.719   7.849
33556SOL    HW249508   9.912   0.667   8.004
33557SOL     OW49509  13.616   7.734   2.171
33557SOL    HW149510  13.647   7.643   2.201
33557SOL    HW249511  13.654   7.803   2.233
33558SOL     OW49512   3.391   1.237   2.469
33558SOL    HW149513   3.292   1.240   2.484
33558SOL    HW249514   3.411   1.208   2.376
33559SOL     OW49515  13.881   4.559   8.306
33559SOL    HW149516  13.813   4.628   8.332
33559SOL    HW249517  13.861   4.473   8.353
33560SOL     OW49518   7.492  11.909   7.467
33560SOL    HW149519   7.578  11.959   7.464
33560SOL    HW249520   7.472  11.872   7.376
33561SOL     OW49521   4.252   3.168   1.648
33561SOL    HW149522   4.307   3.120   1.716
33561SOL    HW249523   4.267   3.267   1.657
33562SOL     OW49524   4.596   4.690   7.263
33562SOL    HW149525   4.550   4.720   7.180
33562SOL    HW249526   4.597   4.590   7.267
33563SOL     OW49527   3.130  14.054   8.398
33563SOL    HW149528   3.146  14.150   8.378
33563SOL    HW249529   3.157  13.999   8.319
33564SOL     OW49530  13.793   9.209   7.231
33564SOL    HW149531  13.850   9.249   7.159
33564SOL    HW249532  13.742   9.282   7.276
33565SOL     OW49533   4.477   2.962   1.562
33565SOL    HW149534   4.497   3.046   1.511
33565SOL    HW249535   4.453   2.985   1.656
33566SOL     OW49536   3.565  14.212   1.466
33566SOL    HW149537   3.598  14.191   1.558
33566SOL    HW249538   3.614  14.291   1.430
33567SOL     OW49539  13.432   5.960   1.968
33567SOL    HW149540  13.511   5.918   2.013
33567SOL    HW249541  13.349   5.910   1.994
33568SOL     OW49542   5.884  12.340   6.438
33568SOL    HW149543   5.856  12.269   6.502
33568SOL    HW249544   5.939  12.299   6.364
33569SOL     OW49545   5.747   8.525   7.474
33569SOL    HW149546   5.818   8.460   7.500
33569SOL    HW249547   5.672   8.477   7.429
33570SOL     OW49548  10.211   8.404   6.015
33570SOL    HW149549  10.167   8.342   5.949
33570SOL    HW249550  10.142   8.437   6.079
33571SOL     OW49551   6.003   5.625   2.208
33571SOL    HW149552   5.951   5.689   2.264
33571SOL    HW249553   5.972   5.531   2.227
33572SOL     OW49554   4.378  10.790   0.420
33572SOL    HW149555   4.342  10.723   0.485
33572SOL    HW249556   4.305  10.821   0.359
33573SOL     OW49557  14.926   5.801   1.134
33573SOL    HW149558  14.997   5.732   1.116
33573SOL    HW249559  14.944   5.882   1.078
33574SOL     OW49560  14.361   5.512   1.477
33574SOL    HW149561  14.317   5.431   1.517
33574SOL    HW249562  14.444   5.533   1.529
33575SOL     OW49563   3.750   4.248   6.939
33575SOL    HW149564   3.806   4.171   6.969
33575SOL    HW249565   3.802   4.303   6.872
33576SOL     OW49566  11.238   3.471   6.298
33576SOL    HW149567  11.142   3.447   6.283
33576SOL    HW249568  11.247   3.519   6.386
33577SOL     OW49569  16.160   0.271   7.895
33577SOL    HW149570  16.158   0.370   7.907
33577SOL    HW249571  16.252   0.243   7.867
33578SOL     OW49572   3.794  16.871   7.031
33578SOL    HW149573   3.847  16.786   7.034
33578SOL    HW249574   3.700  16.851   7.005
33579SOL     OW49575   2.487  16.359   7.138
33579SOL    HW149576   2.398  16.323   7.111
33579SOL    HW249577   2.511  16.323   7.228
33580SOL     OW49578   1.108  13.882   7.626
33580SOL    HW149579   1.206  13.868   7.615
33580SOL    HW249580   1.060  13.794   7.616
33581SOL     OW49581   3.653  13.191   7.218
33581SOL    HW149582   3.720  13.187   7.293
33581SOL    HW249583   3.700  13.212   7.133
33582SOL     OW49584   1.253   3.573   7.896
33582SOL    HW149585   1.190   3.634   7.944
33582SOL    HW249586   1.312   3.626   7.835
33583SOL     OW49587   2.418  15.300   2.528
33583SOL    HW149588   2.355  15.258   2.593
33583SOL    HW249589   2.378  15.384   2.491
33584SOL     OW49590  15.634  13.392   1.730
33584SOL    HW149591  15.659  13.296   1.739
33584SOL    HW249592  15.679  13.431   1.650
33585SOL     OW49593   4.028  10.743   7.069
33585SOL    HW149594   4.107  10.691   7.037
33585SOL    HW249595   4.059  10.828   7.113
33586SOL     OW49596   0.221  10.085   0.622
33586SOL    HW149597   0.188  10.175   0.653
33586SOL    HW249598   0.305  10.062   0.671
33587SOL     OW49599  11.606  12.116   7.663
33587SOL    HW149600  11.590  12.150   7.756
33587SOL    HW249601  11.566  12.025   7.654
33588SOL     OW49602   2.022  16.462   0.327
33588SOL    HW149603   2.011  16.504   0.236
33588SOL    HW249604   2.022  16.362   0.317
33589SOL     OW49605  13.056  16.426   1.242
33589SOL    HW149606  13.027  16.343   1.195
33589SOL    HW249607  13.142  16.459   1.203
33590SOL     OW49608  14.953   4.023   0.129
33590SOL    HW149609  15.013   4.047   0.206
33590SOL    HW249610  14.972   4.083   0.052
33591SOL     OW49611   5.634  10.630   1.048
33591SOL    HW149612   5.608  10.647   1.143
33591SOL    HW249613   5.573  10.563   1.007
33592SOL     OW49614   0.423   6.860   8.116
33592SOL    HW149615   0.344   6.872   8.056
33592SOL    HW249616   0.457   6.767   8.109
33593SOL     OW49617  11.802  12.871   7.431
33593SOL    HW149618  11.797  12.801   7.503
33593SOL    HW249619  11.794  12.962   7.473
33594SOL     OW49620   4.453   4.014   6.833
33594SOL    HW149621   4.400   4.099   6.835
33594SOL    HW249622   4.469   3.987   6.739
33595SOL     OW49623  10.905  13.402   7.018
33595SOL    HW149624  10.991  13.372   6.977
33595SOL    HW249625  10.919  13.489   7.064
33596SOL     OW49626   9.154   6.870   7.801
33596SOL    HW149627   9.057   6.858   7.779
33596SOL    HW249628   9.181   6.800   7.868
33597SOL     OW49629  10.398   5.553   1.452
33597SOL    HW149630  10.484   5.559   1.503
33597SOL    HW249631  10.345   5.474   1.484
33598SOL     OW49632  15.113   8.002   0.428
33598SOL    HW149633  15.121   7.964   0.336
33598SOL    HW249634  15.180   7.958   0.488
33599SOL     OW49635   6.853   1.145   7.841
33599SOL    HW149636   6.850   1.141   7.941
33599SOL    HW249637   6.940   1.184   7.812
33600SOL     OW49638   8.787  16.705   7.972
33600SOL    HW149639   8.809  16.646   7.894
33600SOL    HW249640   8.701  16.753   7.954
33601SOL     OW49641  13.870   2.982   0.806
33601SOL    HW149642  13.948   2.938   0.851
33601SOL    HW249643  13.845   2.931   0.724
33602SOL     OW49644  13.145  14.819   1.505
33602SOL    HW149645  13.053  14.859   1.504
33602SOL    HW249646  13.210  14.885   1.465
33603SOL     OW49647   5.260  16.570   7.600
33603SOL    HW149648   5.337  16.576   7.663
33603SOL    HW249649   5.175  16.565   7.653
33604SOL     OW49650   5.258   1.046   1.987
33604SOL    HW149651   5.267   1.141   2.018
33604SOL    HW249652   5.239   0.987   2.065
33605SOL     OW49653  16.771   7.027   7.386
33605SOL    HW149654  16.807   7.104   7.334
33605SOL    HW249655  16.674   7.043   7.406
33606SOL     OW49656  13.283  14.095   7.354
33606SOL    HW149657  13.214  14.151   7.307
33606SOL    HW249658  13.373  14.135   7.340
33607SOL     OW49659   4.654   1.554   7.261
33607SOL    HW149660   4.658   1.636   7.318
33607SOL    HW249661   4.708   1.570   7.178
33608SOL     OW49662   2.348   9.557   1.721
33608SOL    HW149663   2.345   9.457   1.716
33608SOL    HW249664   2.258   9.592   1.744
33609SOL     OW49665  13.397  13.776   0.017
33609SOL    HW149666  13.420  13.680   8.451
33609SOL    HW249667  13.410  13.793   0.115
33610SOL     OW49668   1.003  12.156   7.112
33610SOL    HW149669   0.976  12.173   7.017
33610SOL    HW249670   1.055  12.235   7.146
33611SOL     OW49671  15.871   9.808   1.735
33611SOL    HW149672  15.868   9.856   1.647
33611SOL    HW249673  15.789   9.753   1.746
33612SOL     OW49674   3.652  14.526   1.954
33612SOL    HW149675   3.627  14.532   1.858
33612SOL    HW249676   3.597  14.455   1.998
33613SOL     OW49677  15.643   0.605   7.652
33613SOL    HW149678  15.563   0.578   7.706
33613SOL    HW249679  15.692   0.679   7.699
33614SOL     OW49680  10.998   7.080   0.175
33614SOL    HW149681  10.951   7.074   0.263
33614SOL    HW249682  10.930   7.086   0.101
33615SOL     OW49683   6.690   8.211   0.749
33615SOL    HW149684   6.681   8.307   0.725
33615SOL    HW249685   6.611   8.160   0.714
33616SOL     OW49686   7.890  14.251   7.219
33616SOL    HW149687   7.931  14.292   7.301
33616SOL    HW249688   7.942  14.278   7.138
33617SOL     OW49689   8.924   2.647   1.321
33617SOL    HW149690   8.968   2.620   1.406
33617SOL    HW249691   8.892   2.741   1.328
33618SOL     OW49692   5.625  15.279   7.726
33618SOL    HW149693   5.663  15.313   7.640
33618SOL    HW249694   5.593  15.356   7.782
33619SOL     OW49695   8.427  14.026   7.740
33619SOL    HW149696   8.446  14.113   7.694
33619SOL    HW249697   8.336  14.028   7.780
33620SOL     OW49698  14.731   7.173   0.097
33620SOL    HW149699  14.689   7.218   0.176
33620SOL    HW249700  14.816   7.221   0.074
33621SOL     OW49701   6.847   1.592   0.011
33621SOL    HW149702   6.923   1.544   8.422
33621SOL    HW249703   6.819   1.542   0.094
33622SOL     OW49704  14.304  14.647   1.499
33622SOL    HW149705  14.390  14.638   1.448
33622SOL    HW249706  14.252  14.562   1.490
33623SOL     OW49707  11.437   8.772   1.149
33623SOL    HW149708  11.435   8.854   1.091
33623SOL    HW249709  11.523   8.723   1.134
33624SOL     OW49710   8.605  12.406   2.061
33624SOL    HW149711   8.558  12.320   2.079
33624SOL    HW249712   8.638  12.445   2.147
33625SOL     OW49713   5.828   6.712   1.933
33625SOL    HW149714   5.804   6.646   2.005
33625SOL    HW249715   5.746   6.738   1.883
33626SOL     OW49716   0.925  10.617   7.586
33626SOL    HW149717   0.879  10.695   7.627
33626SOL    HW249718   1.019  10.641   7.564
33627SOL     OW49719   7.874   0.512   0.574
33627SOL    HW149720   7.970   0.521   0.547
33627SOL    HW249721   7.826   0.455   0.508
33628SOL     OW49722   0.603   3.685   7.357
33628SOL    HW149723   0.602   3.673   7.456
33628SOL    HW249724   0.604   3.782   7.335
33629SOL     OW49725   7.995  10.437   0.478
33629SOL    HW149726   7.926  10.384   0.428
33629SOL    HW249727   8.086  10.414   0.444
33630SOL     OW49728  14.888  15.627   0.036
33630SOL    HW149729  14.902  15.533   0.070
33630SOL    HW249730  14.806  15.666   0.078
33631SOL     OW49731  11.501   8.445   1.164
33631SOL    HW149732  11.444   8.402   1.094
33631SOL    HW249733  11.449   8.456   1.248
33632SOL     OW49734   4.315   2.164   1.504
33632SOL    HW149735   4.262   2.207   1.430
33632SOL    HW249736   4.304   2.065   1.500
33633SOL     OW49737   8.792   3.978   6.271
33633SOL    HW149738   8.803   3.921   6.189
33633SOL    HW249739   8.881   3.988   6.316
33634SOL     OW49740  12.076   9.468   8.251
33634SOL    HW149741  12.007   9.479   8.180
33634SOL    HW249742  12.160   9.515   8.225
33635SOL     OW49743   2.634   1.023   1.167
33635SOL    HW149744   2.702   0.951   1.175
33635SOL    HW249745   2.629   1.054   1.072
33636SOL     OW49746   2.135   8.842   6.640
33636SOL    HW149747   2.122   8.743   6.631
33636SOL    HW249748   2.046   8.887   6.648
33637SOL     OW49749  15.956   9.767   0.544
33637SOL    HW149750  16.002   9.731   0.626
33637SOL    HW249751  15.861   9.788   0.566
33638SOL     OW49752  10.193  10.938   1.325
33638SOL    HW149753  10.264  10.927   1.395
33638SOL    HW249754  10.233  10.979   1.243
33639SOL     OW49755   4.779   7.343   7.177
33639SOL    HW149756   4.799   7.246   7.188
33639SOL    HW249757   4.703   7.368   7.238
33640SOL     OW49758  10.428   8.992   6.980
33640SOL    HW149759  10.379   9.052   6.915
33640SOL    HW249760  10.366   8.919   7.010
33641SOL     OW49761  13.202   1.337   1.563
33641SOL    HW149762  13.232   1.357   1.656
33641SOL    HW249763  13.199   1.421   1.509
33642SOL     OW49764   6.249   7.662   0.866
33642SOL    HW149765   6.233   7.651   0.964
33642SOL    HW249766   6.225   7.755   0.839
33643SOL     OW49767   1.654   7.787   8.178
33643SOL    HW149768   1.570   7.747   8.214
33643SOL    HW249769   1.634   7.838   8.094
33644SOL     OW49770  12.374   9.697   0.809
33644SOL    HW149771  12.417   9.713   0.898
33644SOL    HW249772  12.383   9.779   0.752
33645SOL     OW49773   0.301  13.778   1.131
33645SOL    HW149774   0.275  13.760   1.225
33645SOL    HW249775   0.390  13.824   1.129
33646SOL     OW49776  15.776  10.634   0.445
33646SOL    HW149777  15.747  10.588   0.529
33646SOL    HW249778  15.853  10.694   0.465
33647SOL     OW49779   6.691  10.732   7.489
33647SOL    HW149780   6.606  10.685   7.466
33647SOL    HW249781   6.701  10.813   7.430
33648SOL     OW49782  13.810  14.307   8.444
33648SOL    HW149783  13.769  14.385   0.036
33648SOL    HW249784  13.910  14.316   8.445
33649SOL     OW49785   3.209   9.003   7.615
33649SOL    HW149786   3.170   8.968   7.700
33649SOL    HW249787   3.259   9.088   7.634
33650SOL     OW49788   9.606   1.870   1.452
33650SOL    HW149789   9.673   1.797   1.438
33650SOL    HW249790   9.618   1.940   1.382
33651SOL     OW49791   6.721  11.523   0.386
33651SOL    HW149792   6.801  11.492   0.437
33651SOL    HW249793   6.690  11.611   0.424
33652SOL     OW49794   9.592   9.537   7.797
33652SOL    HW149795   9.687   9.559   7.816
33652SOL    HW249796   9.566   9.574   7.708
33653SOL     OW49797   0.046  13.141   7.517
33653SOL    HW149798   0.014  13.182   7.603
33653SOL    HW249799   0.138  13.105   7.530
33654SOL     OW49800  14.297  11.856   0.275
33654SOL    HW149801  14.336  11.890   0.361
33654SOL    HW249802  14.263  11.933   0.221
33655SOL     OW49803   1.052  12.778   8.364
33655SOL    HW149804   0.954  12.764   8.347
33655SOL    HW249805   1.093  12.822   8.284
33656SOL     OW49806   6.785   3.433   0.468
33656SOL    HW149807   6.795   3.394   0.377
33656SOL    HW249808   6.818   3.368   0.537
33657SOL     OW49809  13.229   0.999   7.606
33657SOL    HW149810  13.326   0.998   7.581
33657SOL    HW249811  13.175   1.032   7.528
33658SOL     OW49812   9.930  16.558   6.526
33658SOL    HW149813   9.849  16.500   6.537
33658SOL    HW249814   9.912  16.627   6.456
33659SOL     OW49815   7.850   9.277   1.998
33659SOL    HW149816   7.779   9.265   2.068
33659SOL    HW249817   7.938   9.295   2.042
33660SOL     OW49818  16.368   0.568   8.166
33660SOL    HW149819  16.447   0.509   8.151
33660SOL    HW249820  16.298   0.518   8.217
33661SOL     OW49821   3.851  13.698   0.673
33661SOL    HW149822   3.951  13.701   0.668
33661SOL    HW249823   3.818  13.620   0.619
33662SOL     OW49824   2.600   8.004   7.871
33662SOL    HW149825   2.682   7.957   7.903
33662SOL    HW249826   2.577   8.077   7.935
33663SOL     OW49827  14.273   6.776   6.777
33663SOL    HW149828  14.243   6.714   6.704
33663SOL    HW249829  14.194   6.829   6.809
33664SOL     OW49830  12.798  12.333   2.315
33664SOL    HW149831  12.809  12.262   2.384
33664SOL    HW249832  12.726  12.397   2.344
33665SOL     OW49833   1.591   3.894   1.529
33665SOL    HW149834   1.523   3.960   1.497
33665SOL    HW249835   1.547   3.832   1.595
33666SOL     OW49836   3.110   3.795   8.141
33666SOL    HW149837   3.174   3.871   8.141
33666SOL    HW249838   3.134   3.730   8.069
33667SOL     OW49839   0.461   7.907   7.292
33667SOL    HW149840   0.498   7.993   7.328
33667SOL    HW249841   0.412   7.859   7.365
33668SOL     OW49842  14.245  15.823   1.672
33668SOL    HW149843  14.193  15.904   1.645
33668SOL    HW249844  14.242  15.756   1.599
33669SOL     OW49845  13.780   8.541   6.401
33669SOL    HW149846  13.703   8.602   6.383
33669SOL    HW249847  13.802   8.489   6.318
33670SOL     OW49848   3.209  11.008   6.176
33670SOL    HW149849   3.120  11.041   6.146
33670SOL    HW249850   3.278  11.079   6.163
33671SOL     OW49851   2.520   0.123   0.597
33671SOL    HW149852   2.442   0.178   0.630
33671SOL    HW249853   2.486   0.053   0.534
33672SOL     OW49854  13.447   9.696   0.522
33672SOL    HW149855  13.361   9.658   0.488
33672SOL    HW249856  13.443   9.796   0.519
33673SOL     OW49857  13.764  15.892   8.415
33673SOL    HW149858  13.688  15.921   0.019
33673SOL    HW249859  13.734  15.818   8.355
33674SOL     OW49860   9.206  16.100   6.724
33674SOL    HW149861   9.233  16.028   6.660
33674SOL    HW249862   9.121  16.073   6.770
33675SOL     OW49863  15.445   6.426   6.288
33675SOL    HW149864  15.496   6.424   6.374
33675SOL    HW249865  15.500   6.469   6.217
33676SOL     OW49866  13.107   7.207   6.652
33676SOL    HW149867  13.165   7.134   6.616
33676SOL    HW249868  13.011   7.184   6.638
33677SOL     OW49869  14.502  10.623   1.513
33677SOL    HW149870  14.587  10.645   1.562
33677SOL    HW249871  14.524  10.592   1.421
33678SOL     OW49872   1.941   9.367   6.470
33678SOL    HW149873   1.987   9.404   6.390
33678SOL    HW249874   1.894   9.282   6.446
33679SOL     OW49875   8.434  11.664   6.927
33679SOL    HW149876   8.473  11.641   6.838
33679SOL    HW249877   8.475  11.749   6.960
33680SOL     OW49878   4.900   8.600   0.871
33680SOL    HW149879   4.833   8.644   0.811
33680SOL    HW249880   4.919   8.508   0.838
33681SOL     OW49881   3.433  15.741   0.955
33681SOL    HW149882   3.435  15.689   1.040
33681SOL    HW249883   3.429  15.839   0.974
33682SOL     OW49884   2.098  15.392   6.839
33682SOL    HW149885   2.113  15.356   6.931
33682SOL    HW249886   2.091  15.316   6.774
33683SOL     OW49887   5.506   9.544   6.875
33683SOL    HW149888   5.417   9.522   6.836
33683SOL    HW249889   5.567   9.466   6.866
33684SOL     OW49890   6.555  13.000   1.386
33684SOL    HW149891   6.596  13.033   1.301
33684SOL    HW249892   6.607  13.035   1.464
33685SOL     OW49893  11.320  15.914   8.391
33685SOL    HW149894  11.310  15.828   8.341
33685SOL    HW249895  11.323  15.895   0.035
33686SOL     OW49896  15.155  15.107   7.190
33686SOL    HW149897  15.212  15.126   7.270
33686SOL    HW249898  15.124  15.012   7.193
33687SOL     OW49899   8.631   3.004   0.882
33687SOL    HW149900   8.536   3.034   0.895
33687SOL    HW249901   8.660   2.950   0.961
33688SOL     OW49902   1.630  13.478   0.540
33688SOL    HW149903   1.563  13.436   0.602
33688SOL    HW249904   1.583  13.507   0.456
33689SOL     OW49905   6.954   1.377   8.230
33689SOL    HW149906   6.941   1.295   8.175
33689SOL    HW249907   6.979   1.350   8.323
33690SOL     OW49908  12.195  12.915   0.990
33690SOL    HW149909  12.125  12.986   1.001
33690SOL    HW249910  12.286  12.957   0.991
33691SOL     OW49911   8.586  15.754   0.907
33691SOL    HW149912   8.667  15.808   0.925
33691SOL    HW249913   8.612  15.667   0.865
33692SOL     OW49914  11.262   2.388   1.764
33692SOL    HW149915  11.208   2.378   1.848
33692SOL    HW249916  11.201   2.413   1.689
33693SOL     OW49917   3.395  11.196   0.516
33693SOL    HW149918   3.333  11.167   0.589
33693SOL    HW249919   3.384  11.135   0.437
33694SOL     OW49920  15.581   8.218   7.655
33694SOL    HW149921  15.585   8.231   7.754
33694SOL    HW249922  15.519   8.284   7.615
33695SOL     OW49923   8.105   0.523   7.118
33695SOL    HW149924   8.007   0.529   7.096
33695SOL    HW249925   8.123   0.572   7.203
33696SOL     OW49926  11.141   6.041   5.794
33696SOL    HW149927  11.110   6.131   5.763
33696SOL    HW249928  11.157   5.982   5.715
33697SOL     OW49929   9.263   9.002   1.289
33697SOL    HW149930   9.268   8.959   1.379
33697SOL    HW249931   9.189   9.069   1.288
33698SOL     OW49932  16.171   8.981   1.137
33698SOL    HW149933  16.147   8.895   1.093
33698SOL    HW249934  16.186   9.051   1.068
33699SOL     OW49935   3.793   0.896   0.121
33699SOL    HW149936   3.848   0.845   0.188
33699SOL    HW249937   3.707   0.923   0.163
33700SOL     OW49938   0.932  10.704   1.335
33700SOL    HW149939   0.975  10.779   1.385
33700SOL    HW249940   0.846  10.736   1.294
33701SOL     OW49941   1.941  16.455   8.025
33701SOL    HW149942   1.971  16.477   7.933
33701SOL    HW249943   2.000  16.500   8.092
33702SOL     OW49944   1.106   9.280   0.807
33702SOL    HW149945   1.198   9.295   0.843
33702SOL    HW249946   1.046   9.353   0.839
33703SOL     OW49947  11.089  10.600   0.529
33703SOL    HW149948  11.015  10.641   0.582
33703SOL    HW249949  11.149  10.672   0.494
33704SOL     OW49950  16.843  11.924   2.169
33704SOL    HW149951  16.912  11.936   2.240
33704SOL    HW249952  16.757  11.897   2.210
33705SOL     OW49953   8.361   9.202   1.659
33705SOL    HW149954   8.356   9.131   1.729
33705SOL    HW249955   8.268   9.223   1.626
33706SOL     OW49956   8.513   0.010   6.157
33706SOL    HW149957   8.414   0.001   6.153
33706SOL    HW249958   8.554  16.938   6.083
33707SOL     OW49959  10.653  10.896   6.451
33707SOL    HW149960  10.617  10.989   6.466
33707SOL    HW249961  10.736  10.901   6.395
33708SOL     OW49962   5.415   1.790   6.814
33708SOL    HW149963   5.357   1.720   6.855
33708SOL    HW249964   5.399   1.793   6.715
33709SOL     OW49965  16.627   2.948   0.352
33709SOL    HW149966  16.704   3.010   0.336
33709SOL    HW249967  16.660   2.863   0.392
33710SOL     OW49968  10.334  13.815   8.217
33710SOL    HW149969  10.319  13.717   8.212
33710SOL    HW249970  10.429  13.836   8.192
33711SOL     OW49971   4.060   4.707   1.375
33711SOL    HW149972   4.094   4.750   1.459
33711SOL    HW249973   4.138   4.676   1.320
33712SOL     OW49974   3.387   3.461   7.652
33712SOL    HW149975   3.382   3.460   7.752
33712SOL    HW249976   3.296   3.483   7.615
33713SOL     OW49977  10.886  16.685   1.396
33713SOL    HW149978  10.916  16.721   1.485
33713SOL    HW249979  10.922  16.592   1.384
33714SOL     OW49980   1.889   9.747   8.053
33714SOL    HW149981   1.943   9.715   8.131
33714SOL    HW249982   1.946   9.748   7.971
33715SOL     OW49983   2.976  13.411   7.335
33715SOL    HW149984   3.014  13.469   7.262
33715SOL    HW249985   3.046  13.398   7.406
33716SOL     OW49986   9.747  15.857   7.839
33716SOL    HW149987   9.812  15.801   7.788
33716SOL    HW249988   9.776  15.861   7.935
33717SOL     OW49989   5.905   9.814   7.011
33717SOL    HW149990   5.984   9.858   6.969
33717SOL    HW249991   5.935   9.732   7.060
33718SOL     OW49992  16.534   6.576   7.521
33718SOL    HW149993  16.492   6.617   7.440
33718SOL    HW249994  16.634   6.573   7.508
33719SOL     OW49995   3.576  13.217   6.736
33719SOL    HW149996   3.605  13.288   6.672
33719SOL    HW249997   3.481  13.233   6.763
33720SOL     OW49998   7.684  16.447   7.088
33720SOL    HW149999   7.717  16.393   7.011
33720SOL    HW250000   7.614  16.397   7.137
33721SOL     OW50001   8.479  13.711   1.622
33721SOL    HW150002   8.441  13.803   1.630
33721SOL    HW250003   8.567  13.715   1.575
33722SOL     OW50004  11.477   7.838   0.672
33722SOL    HW150005  11.442   7.866   0.583
33722SOL    HW250006  11.412   7.777   0.716
33723SOL     OW50007   8.902  16.487   1.037
33723SOL    HW150008   8.863  16.446   0.954
33723SOL    HW250009   8.831  16.539   1.085
33724SOL     OW50010   0.243   8.293   6.646
33724SOL    HW150011   0.222   8.335   6.558
33724SOL    HW250012   0.338   8.262   6.646
33725SOL     OW50013   6.496   2.808   6.161
33725SOL    HW150014   6.452   2.741   6.102
33725SOL    HW250015   6.582   2.771   6.196
33726SOL     OW50016  13.679   3.361   0.058
33726SOL    HW150017  13.625   3.340   0.140
33726SOL    HW250018  13.619   3.356   8.431
33727SOL     OW50019   4.514   0.086   1.157
33727SOL    HW150020   4.544   0.030   1.079
33727SOL    HW250021   4.499   0.027   1.236
33728SOL     OW50022   2.901   7.991   0.480
33728SOL    HW150023   2.996   7.969   0.457
33728SOL    HW250024   2.900   8.049   0.562
33729SOL     OW50025   3.403   6.717   7.507
33729SOL    HW150026   3.393   6.804   7.459
33729SOL    HW250027   3.427   6.734   7.602
33730SOL     OW50028   1.568  12.006   2.049
33730SOL    HW150029   1.542  11.974   2.140
33730SOL    HW250030   1.492  12.056   2.007
33731SOL     OW50031   7.603   3.099   1.542
33731SOL    HW150032   7.538   3.106   1.618
33731SOL    HW250033   7.671   3.172   1.550
33732SOL     OW50034   7.568  16.335   6.388
33732SOL    HW150035   7.542  16.400   6.317
33732SOL    HW250036   7.494  16.326   6.455
33733SOL     OW50037   6.387  11.492   6.995
33733SOL    HW150038   6.334  11.409   7.010
33733SOL    HW250039   6.409  11.534   7.083
33734SOL     OW50040  13.595   1.055   7.788
33734SOL    HW150041  13.687   1.094   7.786
33734SOL    HW250042  13.562   1.041   7.694
33735SOL     OW50043   8.801   0.933   7.097
33735SOL    HW150044   8.791   1.007   7.031
33735SOL    HW250045   8.710   0.899   7.123
33736SOL     OW50046  10.845  11.342   7.037
33736SOL    HW150047  10.810  11.281   6.966
33736SOL    HW250048  10.944  11.346   7.032
33737SOL     OW50049  15.719   0.194   8.071
33737SOL    HW150050  15.769   0.280   8.068
33737SOL    HW250051  15.644   0.197   8.006
33738SOL     OW50052  15.654   2.671   1.458
33738SOL    HW150053  15.749   2.656   1.433
33738SOL    HW250054  15.648   2.686   1.557
33739SOL     OW50055  11.217  16.858   0.231
33739SOL    HW150056  11.144  16.858   0.163
33739SOL    HW250057  11.249  16.952   0.245
33740SOL     OW50058  16.866   7.703   6.181
33740SOL    HW150059  16.787   7.728   6.125
33740SOL    HW250060  16.950   7.718   6.129
33741SOL     OW50061   8.799  10.116   6.568
33741SOL    HW150062   8.811  10.186   6.639
33741SOL    HW250063   8.791  10.160   6.479
33742SOL     OW50064  13.798  12.845   7.427
33742SOL    HW150065  13.746  12.928   7.407
33742SOL    HW250066  13.859  12.825   7.351
33743SOL     OW50067  13.933  13.619   8.417
33743SOL    HW150068  14.014  13.588   0.013
33743SOL    HW250069  13.921  13.718   8.432
33744SOL     OW50070   2.799  16.156   1.070
33744SOL    HW150071   2.888  16.112   1.063
33744SOL    HW250072   2.731  16.089   1.100
33745SOL     OW50073  16.278  11.699   2.469
33745SOL    HW150074  16.328  11.612   2.471
33745SOL    HW250075  16.322  11.764   2.531
33746SOL     OW50076   5.437   8.047   8.221
33746SOL    HW150077   5.507   8.076   8.156
33746SOL    HW250078   5.474   7.977   8.282
33747SOL     OW50079   1.243   5.878   0.410
33747SOL    HW150080   1.302   5.800   0.389
33747SOL    HW250081   1.278   5.925   0.491
33748SOL     OW50082  14.860   4.925   7.592
33748SOL    HW150083  14.793   4.927   7.518
33748SOL    HW250084  14.943   4.974   7.564
33749SOL     OW50085   5.823   8.950   6.921
33749SOL    HW150086   5.759   8.991   6.856
33749SOL    HW250087   5.867   8.870   6.879
33750SOL     OW50088   4.678  16.417   0.639
33750SOL    HW150089   4.598  16.416   0.579
33750SOL    HW250090   4.730  16.501   0.623
33751SOL     OW50091  12.013   2.101   6.234
33751SOL    HW150092  12.017   2.002   6.223
33751SOL    HW250093  11.924   2.134   6.202
33752SOL     OW50094  15.168   7.095   7.508
33752SOL    HW150095  15.227   7.014   7.513
33752SOL    HW250096  15.097   7.081   7.439
33753SOL     OW50097  14.557   7.646   5.969
33753SOL    HW150098  14.602   7.674   5.884
33753SOL    HW250099  14.624   7.640   6.043
33754SOL     OW50100  12.584  11.434   1.643
33754SOL    HW150101  12.509  11.461   1.703
33754SOL    HW250102  12.667  11.422   1.697
33755SOL     OW50103   6.364   5.015   1.710
33755SOL    HW150104   6.427   4.946   1.675
33755SOL    HW250105   6.278   5.010   1.659
33756SOL     OW50106  14.564  13.056   2.082
33756SOL    HW150107  14.650  13.040   2.033
33756SOL    HW250108  14.514  12.970   2.090
33757SOL     OW50109  16.907   7.891   7.024
33757SOL    HW150110   0.006   7.896   7.081
33757SOL    HW250111  16.891   7.979   6.980
33758SOL     OW50112   1.739  13.493   7.923
33758SOL    HW150113   1.834  13.522   7.910
33758SOL    HW250114   1.678  13.569   7.898
33759SOL     OW50115  12.311   7.333   5.863
33759SOL    HW150116  12.217   7.348   5.892
33759SOL    HW250117  12.370   7.403   5.901
33760SOL     OW50118   3.386   3.927   7.652
33760SOL    HW150119   3.305   3.899   7.703
33760SOL    HW250120   3.461   3.943   7.716
33761SOL     OW50121   8.069   6.229   7.169
33761SOL    HW150122   8.017   6.300   7.122
33761SOL    HW250123   8.039   6.139   7.139
33762SOL     OW50124   4.708  16.826   7.163
33762SOL    HW150125   4.710  16.767   7.244
33762SOL    HW250126   4.760  16.783   7.089
33763SOL     OW50127   3.642   4.661   1.412
33763SOL    HW150128   3.613   4.672   1.317
33763SOL    HW250129   3.724   4.603   1.415
33764SOL     OW50130  11.240   1.208   0.457
33764SOL    HW150131  11.154   1.245   0.422
33764SOL    HW250132  11.220   1.147   0.534
33765SOL     OW50133   6.164  10.508   8.424
33765SOL    HW150134   6.252  10.548   8.397
33765SOL    HW250135   6.130  10.554   0.052
33766SOL     OW50136  11.288   3.554   1.369
33766SOL    HW150137  11.218   3.483   1.375
33766SOL    HW250138  11.308   3.590   1.460
33767SOL     OW50139  11.640  16.836   7.745
33767SOL    HW150140  11.702  16.807   7.817
33767SOL    HW250141  11.546  16.831   7.777
33768SOL     OW50142  15.852  13.632   7.091
33768SOL    HW150143  15.859  13.534   7.069
33768SOL    HW250144  15.771  13.647   7.149
33769SOL     OW50145   2.790   6.704   1.652
33769SOL    HW150146   2.868   6.647   1.679
33769SOL    HW250147   2.760   6.678   1.561
33770SOL     OW50148   6.497   5.982   1.051
33770SOL    HW150149   6.466   6.017   0.963
33770SOL    HW250150   6.592   5.952   1.044
33771SOL     OW50151   6.948   4.040   0.421
33771SOL    HW150152   6.989   4.041   0.512
33771SOL    HW250153   6.989   3.966   0.367
33772SOL     OW50154   8.192   2.679   1.704
33772SOL    HW150155   8.103   2.638   1.685
33772SOL    HW250156   8.243   2.690   1.619
33773SOL     OW50157   9.835  10.260   1.216
33773SOL    HW150158   9.909  10.274   1.282
33773SOL    HW250159   9.773  10.338   1.219
33774SOL     OW50160   3.520   6.234   1.773
33774SOL    HW150161   3.547   6.247   1.678
33774SOL    HW250162   3.454   6.305   1.799
33775SOL     OW50163  13.199  10.625   0.403
33775SOL    HW150164  13.155  10.672   0.326
33775SOL    HW250165  13.223  10.532   0.376
33776SOL     OW50166  15.189   9.229   6.951
33776SOL    HW150167  15.101   9.272   6.930
33776SOL    HW250168  15.216   9.251   7.045
33777SOL     OW50169  10.173   9.615   7.116
33777SOL    HW150170  10.208   9.523   7.129
33777SOL    HW250171  10.092   9.629   7.174
33778SOL     OW50172   5.775  13.210   6.993
33778SOL    HW150173   5.678  13.235   6.995
33778SOL    HW250174   5.791  13.145   6.919
33779SOL     OW50175  14.325   3.033   7.229
33779SOL    HW150176  14.228   3.016   7.247
33779SOL    HW250177  14.375   3.037   7.315
33780SOL     OW50178   5.621   9.686   1.816
33780SOL    HW150179   5.627   9.701   1.915
33780SOL    HW250180   5.701   9.726   1.771
33781SOL     OW50181  13.147   9.569   6.941
33781SOL    HW150182  13.116   9.636   6.874
33781SOL    HW250183  13.070   9.543   6.999
33782SOL     OW50184   1.805  11.979   1.906
33782SOL    HW150185   1.726  11.984   1.968
33782SOL    HW250186   1.773  11.966   1.812
33783SOL     OW50187   0.467   4.449   7.737
33783SOL    HW150188   0.485   4.488   7.647
33783SOL    HW250189   0.455   4.522   7.804
33784SOL     OW50190   9.263   7.091   7.149
33784SOL    HW150191   9.270   7.186   7.120
33784SOL    HW250192   9.339   7.039   7.110
33785SOL     OW50193   4.930   2.683   8.173
33785SOL    HW150194   4.947   2.743   8.095
33785SOL    HW250195   4.990   2.604   8.168
33786SOL     OW50196  13.325   9.289   2.070
33786SOL    HW150197  13.354   9.326   2.159
33786SOL    HW250198  13.280   9.201   2.084
33787SOL     OW50199   9.315  16.720   7.915
33787SOL    HW150200   9.257  16.639   7.915
33787SOL    HW250201   9.375  16.717   7.834
33788SOL     OW50202  10.570   2.291   8.290
33788SOL    HW150203  10.547   2.388   8.285
33788SOL    HW250204  10.492   2.237   8.260
33789SOL     OW50205   0.361  15.294   0.537
33789SOL    HW150206   0.324  15.258   0.452
33789SOL    HW250207   0.461  15.298   0.532
33790SOL     OW50208   1.349  15.916   7.904
33790SOL    HW150209   1.406  15.995   7.883
33790SOL    HW250210   1.365  15.845   7.835
33791SOL     OW50211   8.549   3.644   7.946
33791SOL    HW150212   8.461   3.626   7.904
33791SOL    HW250213   8.601   3.559   7.953
33792SOL     OW50214  12.766   4.153   8.073
33792SOL    HW150215  12.741   4.056   8.068
33792SOL    HW250216  12.817   4.169   8.158
33793SOL     OW50217   9.961   4.556   8.134
33793SOL    HW150218   9.923   4.630   8.191
33793SOL    HW250219   9.968   4.587   8.039
33794SOL     OW50220   4.585   8.351   0.447
33794SOL    HW150221   4.612   8.447   0.453
33794SOL    HW250222   4.485   8.345   0.443
33795SOL     OW50223   9.489  16.956   1.104
33795SOL    HW150224   9.547  16.934   1.183
33795SOL    HW250225   9.452   0.064   1.114
33796SOL     OW50226  16.210   4.457   0.307
33796SOL    HW150227  16.147   4.443   0.231
33796SOL    HW250228  16.284   4.518   0.279
33797SOL     OW50229  16.593  11.787   1.649
33797SOL    HW150230  16.692  11.774   1.637
33797SOL    HW250231  16.571  11.884   1.638
33798SOL     OW50232  11.312  14.824   7.940
33798SOL    HW150233  11.301  14.921   7.920
33798SOL    HW250234  11.270  14.803   8.028
33799SOL     OW50235   3.984  12.305   7.912
33799SOL    HW150236   3.974  12.405   7.918
33799SOL    HW250237   3.980  12.266   8.004
33800SOL     OW50238   2.243  12.385   7.860
33800SOL    HW150239   2.332  12.350   7.831
33800SOL    HW250240   2.250  12.424   7.952
33801SOL     OW50241   1.135   0.050   7.649
33801SOL    HW150242   1.125   0.135   7.701
33801SOL    HW250243   1.052  16.979   7.658
33802SOL     OW50244  10.959  14.512   6.507
33802SOL    HW150245  10.947  14.445   6.433
33802SOL    HW250246  11.008  14.592   6.471
33803SOL     OW50247  11.777   0.759   7.584
33803SOL    HW150248  11.709   0.831   7.572
33803SOL    HW250249  11.746   0.693   7.652
33804SOL     OW50250   1.838  14.999   7.875
33804SOL    HW150251   1.787  14.938   7.935
33804SOL    HW250252   1.801  15.092   7.882
33805SOL     OW50253   2.901   2.887   2.035
33805SOL    HW150254   2.804   2.912   2.025
33805SOL    HW250255   2.950   2.963   2.077
33806SOL     OW50256   8.027   8.751   6.992
33806SOL    HW150257   7.960   8.805   6.941
33806SOL    HW250258   8.042   8.664   6.946
33807SOL     OW50259   8.656   3.074   0.274
33807SOL    HW150260   8.655   3.028   0.362
33807SOL    HW250261   8.683   3.009   0.203
33808SOL     OW50262   6.485  14.041   1.728
33808SOL    HW150263   6.519  14.031   1.635
33808SOL    HW250264   6.563  14.048   1.791
33809SOL     OW50265   5.500  16.293   6.903
33809SOL    HW150266   5.480  16.312   6.806
33809SOL    HW250267   5.575  16.228   6.909
33810SOL     OW50268   0.877   1.031   0.269
33810SOL    HW150269   0.950   1.053   0.334
33810SOL    HW250270   0.855   1.111   0.214
33811SOL     OW50271  13.688   5.504   1.769
33811SOL    HW150272  13.710   5.544   1.680
33811SOL    HW250273  13.748   5.426   1.787
33812SOL     OW50274   8.084   1.147   8.231
33812SOL    HW150275   8.109   1.212   8.304
33812SOL    HW250276   8.164   1.131   8.173
33813SOL     OW50277   2.028  16.459   6.481
33813SOL    HW150278   2.107  16.431   6.426
33813SOL    HW250279   1.988  16.541   6.441
33814SOL     OW50280  11.328   8.048   0.233
33814SOL    HW150281  11.335   7.987   0.311
33814SOL    HW250282  11.338   8.143   0.264
33815SOL     OW50283  14.324   8.968   0.246
33815SOL    HW150284  14.263   9.009   0.313
33815SOL    HW250285  14.327   8.869   0.260
33816SOL     OW50286   0.306  15.980   0.479
33816SOL    HW150287   0.229  15.963   0.540
33816SOL    HW250288   0.366  16.048   0.521
33817SOL     OW50289   8.206  13.586   6.401
33817SOL    HW150290   8.108  13.603   6.395
33817SOL    HW250291   8.230  13.507   6.344
33818SOL     OW50292   5.219   7.198   0.746
33818SOL    HW150293   5.304   7.195   0.799
33818SOL    HW250294   5.181   7.290   0.749
33819SOL     OW50295   1.697   8.887   7.566
33819SOL    HW150296   1.758   8.861   7.491
33819SOL    HW250297   1.602   8.869   7.539
33820SOL     OW50298  12.612  11.769   7.400
33820SOL    HW150299  12.612  11.869   7.397
33820SOL    HW250300  12.692  11.734   7.352
33821SOL     OW50301  14.649  11.195   0.839
33821SOL    HW150302  14.621  11.106   0.805
33821SOL    HW250303  14.640  11.198   0.939
33822SOL     OW50304   2.511  16.097   1.577
33822SOL    HW150305   2.428  16.041   1.580
33822SOL    HW250306   2.523  16.143   1.664
33823SOL     OW50307  11.212   0.145   0.564
33823SOL    HW150308  11.197   0.243   0.576
33823SOL    HW250309  11.278   0.112   0.631
33824SOL     OW50310  16.847  14.521   7.481
33824SOL    HW150311  16.941  14.555   7.483
33824SOL    HW250312  16.802  14.543   7.568
33825SOL     OW50313   7.635   9.007   2.097
33825SOL    HW150314   7.572   9.028   2.022
33825SOL    HW250315   7.656   9.091   2.146
33826SOL     OW50316   5.509  11.209   6.607
33826SOL    HW150317   5.413  11.197   6.579
33826SOL    HW250318   5.535  11.136   6.669
33827SOL     OW50319   4.248   1.497   7.559
33827SOL    HW150320   4.253   1.594   7.535
33827SOL    HW250321   4.154   1.465   7.548
33828SOL     OW50322   3.383  12.747   7.577
33828SOL    HW150323   3.330  12.663   7.570
33828SOL    HW250324   3.380  12.781   7.671
33829SOL     OW50325   7.145  12.300   1.735
33829SOL    HW150326   7.145  12.397   1.710
33829SOL    HW250327   7.227  12.279   1.789
33830SOL     OW50328  12.267   3.520   1.162
33830SOL    HW150329  12.189   3.485   1.214
33830SOL    HW250330  12.311   3.593   1.213
33831SOL     OW50331   5.018  10.422   7.647
33831SOL    HW150332   4.930  10.414   7.694
33831SOL    HW250333   5.060  10.510   7.668
33832SOL     OW50334   5.959  12.255   1.457
33832SOL    HW150335   5.924  12.184   1.518
33832SOL    HW250336   5.883  12.313   1.426
33833SOL     OW50337   9.409   4.056   8.056
33833SOL    HW150338   9.451   4.110   8.129
33833SOL    HW250339   9.386   4.117   7.979
33834SOL     OW50340   7.926   5.337   8.162
33834SOL    HW150341   7.829   5.329   8.184
33834SOL    HW250342   7.937   5.388   8.077
33835SOL     OW50343   1.831   8.786   7.343
33835SOL    HW150344   1.770   8.740   7.279
33835SOL    HW250345   1.892   8.848   7.292
33836SOL     OW50346   8.221   4.980   1.145
33836SOL    HW150347   8.145   4.915   1.136
33836SOL    HW250348   8.203   5.061   1.089
33837SOL     OW50349   1.715  16.312   8.002
33837SOL    HW150350   1.732  16.216   8.024
33837SOL    HW250351   1.800  16.364   8.014
33838SOL     OW50352  10.990   1.946   0.050
33838SOL    HW150353  11.054   1.903   0.114
33838SOL    HW250354  10.973   2.040   0.079
33839SOL     OW50355   5.840   4.424   6.364
33839SOL    HW150356   5.894   4.507   6.376
33839SOL    HW250357   5.862   4.360   6.437
33840SOL     OW50358   0.789   2.160   1.011
33840SOL    HW150359   0.835   2.198   1.091
33840SOL    HW250360   0.792   2.060   1.017
33841SOL     OW50361   4.606   9.906   7.798
33841SOL    HW150362   4.667   9.834   7.831
33841SOL    HW250363   4.658   9.989   7.781
33842SOL     OW50364   5.357   6.555   2.647
33842SOL    HW150365   5.443   6.504   2.645
33842SOL    HW250366   5.364   6.629   2.713
33843SOL     OW50367  10.526   5.187   5.976
33843SOL    HW150368  10.458   5.118   5.955
33843SOL    HW250369  10.504   5.272   5.928
33844SOL     OW50370   9.786   1.146   6.527
33844SOL    HW150371   9.733   1.094   6.594
33844SOL    HW250372   9.774   1.106   6.436
33845SOL     OW50373   1.755  10.722   0.778
33845SOL    HW150374   1.822  10.665   0.731
33845SOL    HW250375   1.682  10.664   0.814
33846SOL     OW50376  11.242   7.709   0.043
33846SOL    HW150377  11.332   7.706   0.087
33846SOL    HW250378  11.193   7.790   0.075
33847SOL     OW50379  14.491   3.237   7.119
33847SOL    HW150380  14.476   3.260   7.022
33847SOL    HW250381  14.423   3.169   7.147
33848SOL     OW50382   5.791   3.708   1.447
33848SOL    HW150383   5.854   3.771   1.401
33848SOL    HW250384   5.841   3.653   1.514
33849SOL     OW50385   7.798  16.874   0.463
33849SOL    HW150386   7.804  16.787   0.512
33849SOL    HW250387   7.889  16.899   0.429
33850SOL     OW50388   8.515   6.484   0.848
33850SOL    HW150389   8.605   6.488   0.890
33850SOL    HW250390   8.464   6.405   0.882
33851SOL     OW50391  14.598   7.809   6.400
33851SOL    HW150392  14.634   7.809   6.307
33851SOL    HW250393  14.564   7.718   6.423
33852SOL     OW50394   5.620  16.973   7.053
33852SOL    HW150395   5.528  16.959   7.014
33852SOL    HW250396   5.666   0.063   7.003
33853SOL     OW50397  11.959  11.829   0.807
33853SOL    HW150398  12.027  11.881   0.754
33853SOL    HW250399  11.882  11.888   0.830
33854SOL     OW50400  10.133   3.734   7.118
33854SOL    HW150401  10.106   3.638   7.110
33854SOL    HW250402  10.224   3.747   7.078
33855SOL     OW50403   5.588   5.644   8.056
33855SOL    HW150404   5.675   5.596   8.049
33855SOL    HW250405   5.577   5.680   8.149
33856SOL     OW50406  13.114   2.201   7.733
33856SOL    HW150407  13.100   2.287   7.684
33856SOL    HW250408  13.173   2.217   7.813
33857SOL     OW50409  14.942   5.711   6.581
33857SOL    HW150410  14.933   5.777   6.507
33857SOL    HW250411  14.900   5.748   6.664
33858SOL     OW50412  11.048   9.450   0.299
33858SOL    HW150413  11.045   9.421   0.204
33858SOL    HW250414  11.046   9.550   0.304
33859SOL     OW50415  11.910  13.855   6.970
33859SOL    HW150416  11.991  13.874   6.915
33859SOL    HW250417  11.926  13.774   7.027
33860SOL     OW50418   5.403  10.418   6.915
33860SOL    HW150419   5.317  10.412   6.965
33860SOL    HW250420   5.412  10.339   6.854
33861SOL     OW50421  15.863  10.498   7.664
33861SOL    HW150422  15.836  10.477   7.570
33861SOL    HW250423  15.959  10.474   7.678
33862SOL     OW50424  12.867   3.339   6.075
33862SOL    HW150425  12.937   3.401   6.039
33862SOL    HW250426  12.790   3.337   6.011
33863SOL     OW50427  12.638  13.488   7.061
33863SOL    HW150428  12.577  13.462   6.986
33863SOL    HW250429  12.732  13.491   7.027
33864SOL     OW50430   3.053  13.671   0.834
33864SOL    HW150431   2.981  13.675   0.765
33864SOL    HW250432   3.070  13.576   0.859
33865SOL     OW50433   0.002  13.172   2.346
33865SOL    HW150434  16.918  13.172   2.421
33865SOL    HW250435   0.043  13.264   2.338
33866SOL     OW50436   4.079  10.327   7.620
33866SOL    HW150437   4.086  10.280   7.532
33866SOL    HW250438   4.074  10.259   7.693
33867SOL     OW50439   5.255   5.665   1.607
33867SOL    HW150440   5.302   5.734   1.661
33867SOL    HW250441   5.159   5.690   1.596
33868SOL     OW50442  10.526   9.915   7.204
33868SOL    HW150443  10.565   9.826   7.227
33868SOL    HW250444  10.450   9.902   7.140
33869SOL     OW50445  16.572   2.210   1.256
33869SOL    HW150446  16.553   2.295   1.208
33869SOL    HW250447  16.546   2.219   1.352
33870SOL     OW50448  15.121   1.272   1.893
33870SOL    HW150449  15.134   1.354   1.949
33870SOL    HW250450  15.063   1.207   1.942
33871SOL     OW50451  15.340   6.453   0.548
33871SOL    HW150452  15.273   6.499   0.489
33871SOL    HW250453  15.370   6.516   0.620
33872SOL     OW50454  12.804   0.471   1.698
33872SOL    HW150455  12.830   0.449   1.792
33872SOL    HW250456  12.798   0.571   1.688
33873SOL     OW50457  16.467   6.524   0.111
33873SOL    HW150458  16.449   6.479   0.024
33873SOL    HW250459  16.548   6.484   0.154
33874SOL     OW50460   5.120   0.380   1.010
33874SOL    HW150461   5.130   0.422   1.100
33874SOL    HW250462   5.178   0.428   0.944
33875SOL     OW50463  13.012   5.946   7.847
33875SOL    HW150464  13.012   5.847   7.859
33875SOL    HW250465  12.970   5.969   7.759
33876SOL     OW50466  10.688   2.324   6.548
33876SOL    HW150467  10.746   2.274   6.612
33876SOL    HW250468  10.740   2.342   6.464
33877SOL     OW50469   3.266  15.514   8.090
33877SOL    HW150470   3.180  15.477   8.125
33877SOL    HW250471   3.254  15.542   7.995
33878SOL     OW50472  14.376   9.146   6.976
33878SOL    HW150473  14.453   9.101   6.931
33878SOL    HW250474  14.371   9.242   6.945
33879SOL     OW50475  15.730   6.601   5.620
33879SOL    HW150476  15.821   6.637   5.598
33879SOL    HW250477  15.727   6.503   5.601
33880SOL     OW50478   4.672  13.597   8.210
33880SOL    HW150479   4.681  13.535   8.288
33880SOL    HW250480   4.712  13.685   8.232
33881SOL     OW50481  12.860   5.111   0.056
33881SOL    HW150482  12.919   5.073   0.128
33881SOL    HW250483  12.891   5.077   8.421
33882SOL     OW50484   6.796   8.214   6.946
33882SOL    HW150485   6.842   8.276   7.010
33882SOL    HW250486   6.710   8.256   6.915
33883SOL     OW50487   9.935  11.779   7.435
33883SOL    HW150488   9.909  11.705   7.373
33883SOL    HW250489   9.930  11.867   7.388
33884SOL     OW50490   6.750  13.098   0.657
33884SOL    HW150491   6.714  13.158   0.728
33884SOL    HW250492   6.745  13.003   0.689
33885SOL     OW50493   4.496   5.717   8.076
33885SOL    HW150494   4.545   5.657   8.139
33885SOL    HW250495   4.447   5.787   8.128
33886SOL     OW50496   2.843   1.489   0.443
33886SOL    HW150497   2.773   1.524   0.380
33886SOL    HW250498   2.807   1.411   0.493
33887SOL     OW50499   7.120  13.811   1.894
33887SOL    HW150500   7.189  13.883   1.902
33887SOL    HW250501   7.163  13.727   1.862
33888SOL     OW50502   9.082  11.019   6.222
33888SOL    HW150503   9.059  10.922   6.236
33888SOL    HW250504   9.000  11.069   6.196
33889SOL     OW50505   3.791   8.950   0.854
33889SOL    HW150506   3.808   9.020   0.784
33889SOL    HW250507   3.700   8.963   0.892
33890SOL     OW50508  15.153  10.328   7.663
33890SOL    HW150509  15.133  10.306   7.567
33890SOL    HW250510  15.115  10.257   7.722
33891SOL     OW50511   5.553   4.997   6.912
33891SOL    HW150512   5.566   4.963   6.818
33891SOL    HW250513   5.613   5.075   6.928
33892SOL     OW50514  14.210  11.484   1.020
33892SOL    HW150515  14.282  11.492   1.088
33892SOL    HW250516  14.135  11.546   1.043
33893SOL     OW50517  13.183  11.465   0.770
33893SOL    HW150518  13.244  11.494   0.843
33893SOL    HW250519  13.227  11.395   0.714
33894SOL     OW50520   3.453  16.229   6.813
33894SOL    HW150521   3.518  16.153   6.822
33894SOL    HW250522   3.428  16.240   6.717
33895SOL     OW50523   4.648  12.520   0.605
33895SOL    HW150524   4.653  12.568   0.693
33895SOL    HW250525   4.739  12.484   0.582
33896SOL     OW50526   9.677   1.088   1.374
33896SOL    HW150527   9.719   1.047   1.293
33896SOL    HW250528   9.743   1.090   1.449
33897SOL     OW50529  15.972   8.923   7.220
33897SOL    HW150530  16.032   8.880   7.153
33897SOL    HW250531  15.886   8.873   7.225
33898SOL     OW50532   4.004  12.084   1.186
33898SOL    HW150533   4.040  12.162   1.238
33898SOL    HW250534   4.068  12.008   1.191
33899SOL     OW50535   5.584   1.068   2.383
33899SOL    HW150536   5.629   1.154   2.406
33899SOL    HW250537   5.493   1.066   2.425
33900SOL     OW50538  15.158   7.658   8.188
33900SOL    HW150539  15.099   7.738   8.200
33900SOL    HW250540  15.254   7.685   8.195
33901SOL     OW50541  13.192   2.243   0.800
33901SOL    HW150542  13.102   2.286   0.798
33901SOL    HW250543  13.184   2.147   0.772
33902SOL     OW50544  13.969  13.726   7.788
33902SOL    HW150545  13.879  13.749   7.752
33902SOL    HW250546  13.974  13.752   7.885
33903SOL     OW50547  10.701   6.729   7.234
33903SOL    HW150548  10.675   6.674   7.155
33903SOL    HW250549  10.663   6.821   7.225
33904SOL     OW50550   4.970   1.982   2.389
33904SOL    HW150551   5.043   2.048   2.407
33904SOL    HW250552   4.894   1.998   2.452
33905SOL     OW50553  14.006  16.509   7.467
33905SOL    HW150554  14.015  16.446   7.390
33905SOL    HW250555  14.097  16.533   7.502
33906SOL     OW50556  11.292   0.972   8.272
33906SOL    HW150557  11.230   0.996   8.197
33906SOL    HW250558  11.251   0.999   8.359
33907SOL     OW50559  16.103   0.162   0.458
33907SOL    HW150560  16.061   0.098   0.523
33907SOL    HW250561  16.189   0.195   0.494
33908SOL     OW50562   2.173   6.595   7.372
33908SOL    HW150563   2.119   6.675   7.348
33908SOL    HW250564   2.232   6.616   7.451
33909SOL     OW50565   1.222  16.091   8.284
33909SOL    HW150566   1.214  16.008   8.228
33909SOL    HW250567   1.159  16.160   8.249
33910SOL     OW50568  14.990  12.746   7.063
33910SOL    HW150569  14.899  12.738   7.021
33910SOL    HW250570  15.041  12.820   7.019
33911SOL     OW50571  15.933   3.647   6.551
33911SOL    HW150572  15.910   3.629   6.647
33911SOL    HW250573  15.851   3.674   6.501
33912SOL     OW50574   9.975  14.295   5.987
33912SOL    HW150575   9.891  14.244   5.972
33912SOL    HW250576  10.002  14.340   5.902
33913SOL     OW50577  13.287   2.379   5.635
33913SOL    HW150578  13.266   2.325   5.717
33913SOL    HW250579  13.357   2.331   5.581
33914SOL     OW50580  10.201   1.860   0.408
33914SOL    HW150581  10.196   1.960   0.396
33914SOL    HW250582  10.156   1.835   0.494
33915SOL     OW50583  14.352  10.061   6.624
33915SOL    HW150584  14.292   9.988   6.656
33915SOL    HW250585  14.298  10.131   6.579
33916SOL     OW50586   8.758   7.086   0.965
33916SOL    HW150587   8.787   7.036   1.047
33916SOL    HW250588   8.720   7.022   0.898
33917SOL     OW50589   3.284   3.614   7.343
33917SOL    HW150590   3.228   3.572   7.415
33917SOL    HW250591   3.349   3.677   7.385
33918SOL     OW50592  14.553   1.383   8.167
33918SOL    HW150593  14.507   1.345   8.247
33918SOL    HW250594  14.505   1.356   8.084
33919SOL     OW50595   1.566  12.547   7.102
33919SOL    HW150596   1.520  12.522   7.017
33919SOL    HW250597   1.629  12.474   7.129
33920SOL     OW50598   8.894  11.316   0.777
33920SOL    HW150599   8.830  11.387   0.747
33920SOL    HW250600   8.986  11.355   0.783
33921SOL     OW50601   8.102  13.404   8.279
33921SOL    HW150602   8.056  13.352   8.207
33921SOL    HW250603   8.139  13.488   8.240
33922SOL     OW50604  15.880   4.630   5.630
33922SOL    HW150605  15.924   4.548   5.594
33922SOL    HW250606  15.789   4.640   5.588
33923SOL     OW50607   4.276  15.617   7.321
33923SOL    HW150608   4.237  15.680   7.388
33923SOL    HW250609   4.327  15.669   7.252
33924SOL     OW50610  14.336   5.174   7.078
33924SOL    HW150611  14.408   5.241   7.059
33924SOL    HW250612  14.284   5.158   6.994
33925SOL     OW50613  10.016   0.906   6.250
33925SOL    HW150614  10.109   0.870   6.249
33925SOL    HW250615   9.975   0.894   6.159
33926SOL     OW50616  12.051  16.172   2.294
33926SOL    HW150617  12.089  16.243   2.354
33926SOL    HW250618  11.955  16.156   2.317
33927SOL     OW50619   4.189  10.366   1.965
33927SOL    HW150620   4.251  10.441   1.943
33927SOL    HW250621   4.126  10.396   2.037
33928SOL     OW50622   9.992  11.257   7.797
33928SOL    HW150623  10.068  11.313   7.831
33928SOL    HW250624   9.916  11.317   7.770
33929SOL     OW50625  15.821   3.167   6.295
33929SOL    HW150626  15.912   3.157   6.337
33929SOL    HW250627  15.803   3.090   6.235
33930SOL     OW50628   2.684  16.456   1.723
33930SOL    HW150629   2.638  16.371   1.747
33930SOL    HW250630   2.627  16.534   1.750
33931SOL     OW50631   7.341   0.548   8.097
33931SOL    HW150632   7.316   0.615   8.167
33931SOL    HW250633   7.330   0.456   8.135
33932SOL     OW50634  16.344  10.407   0.127
33932SOL    HW150635  16.431  10.400   0.079
33932SOL    HW250636  16.358  10.388   0.224
33933SOL     OW50637  12.383   1.647   6.688
33933SOL    HW150638  12.385   1.656   6.787
33933SOL    HW250639  12.288   1.645   6.656
33934SOL     OW50640   2.298  11.814   1.835
33934SOL    HW150641   2.237  11.866   1.776
33934SOL    HW250642   2.263  11.816   1.929
33935SOL     OW50643  12.715  15.284   8.413
33935SOL    HW150644  12.717  15.348   0.035
33935SOL    HW250645  12.675  15.328   8.333
33936SOL     OW50646   5.965   2.619   0.952
33936SOL    HW150647   5.990   2.680   1.027
33936SOL    HW250648   5.890   2.559   0.981
33937SOL     OW50649  13.560  14.479   7.478
33937SOL    HW150650  13.648  14.522   7.458
33937SOL    HW250651  13.565  14.433   7.566
33938SOL     OW50652  13.373   2.007   8.374
33938SOL    HW150653  13.459   2.012   8.324
33938SOL    HW250654  13.386   1.953   0.003
33939SOL     OW50655  11.797  14.440   1.395
33939SOL    HW150656  11.772  14.405   1.305
33939SOL    HW250657  11.758  14.380   1.465
33940SOL     OW50658   7.302   8.619   0.474
33940SOL    HW150659   7.371   8.691   0.466
33940SOL    HW250660   7.236   8.643   0.544
33941SOL     OW50661   0.691  10.798   1.226
33941SOL    HW150662   0.701  10.792   1.127
33941SOL    HW250663   0.626  10.870   1.249
33942SOL     OW50664  11.621   3.638   6.037
33942SOL    HW150665  11.629   3.703   5.961
33942SOL    HW250666  11.532   3.593   6.034
33943SOL     OW50667  16.088   9.405   0.905
33943SOL    HW150668  16.001   9.410   0.955
33943SOL    HW250669  16.094   9.482   0.842
33944SOL     OW50670  13.757  14.060   0.628
33944SOL    HW150671  13.700  14.031   0.704
33944SOL    HW250672  13.700  14.090   0.552
33945SOL     OW50673   8.200   5.438   8.307
33945SOL    HW150674   8.116   5.442   8.252
33945SOL    HW250675   8.186   5.377   8.384
33946SOL     OW50676   6.749  10.706   0.795
33946SOL    HW150677   6.746  10.697   0.895
33946SOL    HW250678   6.658  10.688   0.757
33947SOL     OW50679   1.992   9.355   0.135
33947SOL    HW150680   2.069   9.401   0.092
33947SOL    HW250681   1.979   9.265   0.093
33948SOL     OW50682   8.005   0.462   7.819
33948SOL    HW150683   7.908   0.454   7.844
33948SOL    HW250684   8.046   0.371   7.815
33949SOL     OW50685  16.722   3.030   1.157
33949SOL    HW150686  16.738   3.122   1.124
33949SOL    HW250687  16.624   3.014   1.168
33950SOL     OW50688   4.413   8.290   8.247
33950SOL    HW150689   4.447   8.379   8.217
33950SOL    HW250690   4.319   8.299   8.279
33951SOL     OW50691  12.343  11.393   8.037
33951SOL    HW150692  12.390  11.481   8.032
33951SOL    HW250693  12.261  11.396   7.979
33952SOL     OW50694   1.345   7.760   6.886
33952SOL    HW150695   1.406   7.788   6.960
33952SOL    HW250696   1.323   7.838   6.828
33953SOL     OW50697  12.816  15.600   0.765
33953SOL    HW150698  12.887  15.652   0.716
33953SOL    HW250699  12.826  15.615   0.863
33954SOL     OW50700  14.589   2.985   1.255
33954SOL    HW150701  14.637   3.035   1.327
33954SOL    HW250702  14.552   3.050   1.189
33955SOL     OW50703  16.448   2.103   0.753
33955SOL    HW150704  16.525   2.099   0.690
33955SOL    HW250705  16.425   2.198   0.772
33956SOL     OW50706   2.151   7.381   0.912
33956SOL    HW150707   2.219   7.337   0.852
33956SOL    HW250708   2.197   7.446   0.971
33957SOL     OW50709  14.076   3.102   7.553
33957SOL    HW150710  14.077   3.058   7.464
33957SOL    HW250711  14.041   3.195   7.544
33958SOL     OW50712  12.897   9.310   1.826
33958SOL    HW150713  12.807   9.293   1.869
33958SOL    HW250714  12.959   9.349   1.894
33959SOL     OW50715   6.935   6.523   1.327
33959SOL    HW150716   6.933   6.446   1.391
33959SOL    HW250717   6.924   6.490   1.234
33960SOL     OW50718  11.796   6.456   7.474
33960SOL    HW150719  11.809   6.555   7.475
33960SOL    HW250720  11.885   6.411   7.462
33961SOL     OW50721  12.174  11.893   8.134
33961SOL    HW150722  12.114  11.972   8.122
33961SOL    HW250723  12.241  11.889   8.060
33962SOL     OW50724  11.175   1.153   1.659
33962SOL    HW150725  11.127   1.212   1.724
33962SOL    HW250726  11.208   1.072   1.706
33963SOL     OW50727  16.389   5.541   7.979
33963SOL    HW150728  16.399   5.442   7.976
33963SOL    HW250729  16.293   5.566   7.966
33964SOL     OW50730   3.013   6.557   1.774
33964SOL    HW150731   3.082   6.603   1.829
33964SOL    HW250732   2.985   6.472   1.819
33965SOL     OW50733   1.173  10.024   1.685
33965SOL    HW150734   1.141   9.936   1.651
33965SOL    HW250735   1.098  10.070   1.733
33966SOL     OW50736   6.116   7.580   8.323
33966SOL    HW150737   6.112   7.578   8.223
33966SOL    HW250738   6.024   7.591   8.359
33967SOL     OW50739   6.913   6.609   0.292
33967SOL    HW150740   6.844   6.550   0.334
33967SOL    HW250741   6.900   6.610   0.193
33968SOL     OW50742   5.642   8.363   7.069
33968SOL    HW150743   5.696   8.344   6.987
33968SOL    HW250744   5.561   8.416   7.044
33969SOL     OW50745   6.581   3.202   7.082
33969SOL    HW150746   6.582   3.243   7.173
33969SOL    HW250747   6.536   3.265   7.018
33970SOL     OW50748   2.268   7.392   7.776
33970SOL    HW150749   2.347   7.451   7.790
33970SOL    HW250750   2.284   7.304   7.822
33971SOL     OW50751  15.911  16.570   7.629
33971SOL    HW150752  15.998  16.600   7.669
33971SOL    HW250753  15.921  16.556   7.531
33972SOL     OW50754   0.649  10.053   1.401
33972SOL    HW150755   0.666  10.151   1.390
33972SOL    HW250756   0.570  10.039   1.460
33973SOL     OW50757   2.843   4.267   8.017
33973SOL    HW150758   2.922   4.264   8.078
33973SOL    HW250759   2.770   4.211   8.056
33974SOL     OW50760  14.351   7.985   7.092
33974SOL    HW150761  14.266   7.968   7.041
33974SOL    HW250762  14.330   8.035   7.176
33975SOL     OW50763   7.123   6.132   6.259
33975SOL    HW150764   7.029   6.113   6.230
33975SOL    HW250765   7.187   6.098   6.190
33976SOL     OW50766   0.254  15.028   0.969
33976SOL    HW150767   0.168  15.001   0.927
33976SOL    HW250768   0.266  14.979   1.055
33977SOL     OW50769   1.578  10.328   1.613
33977SOL    HW150770   1.523  10.245   1.625
33977SOL    HW250771   1.618  10.329   1.521
33978SOL     OW50772   2.657   6.949   0.771
33978SOL    HW150773   2.566   6.981   0.794
33978SOL    HW250774   2.667   6.947   0.671
33979SOL     OW50775  10.780   1.705   6.993
33979SOL    HW150776  10.807   1.776   7.059
33979SOL    HW250777  10.818   1.727   6.903
33980SOL     OW50778  11.662  14.650   8.217
33980SOL    HW150779  11.753  14.612   8.202
33980SOL    HW250780  11.621  14.673   8.129
33981SOL     OW50781   2.210   9.537   7.722
33981SOL    HW150782   2.259   9.617   7.686
33981SOL    HW250783   2.271   9.486   7.784
33982SOL     OW50784   9.872  14.541   7.556
33982SOL    HW150785   9.924  14.468   7.512
33982SOL    HW250786   9.843  14.608   7.487
33983SOL     OW50787   6.871  12.286   1.694
33983SOL    HW150788   6.969  12.297   1.713
33983SOL    HW250789   6.827  12.376   1.697
33984SOL     OW50790  15.871   1.539   0.374
33984SOL    HW150791  15.896   1.486   0.455
33984SOL    HW250792  15.773   1.561   0.377
33985SOL     OW50793  11.860  10.631   7.887
33985SOL    HW150794  11.764  10.646   7.911
33985SOL    HW250795  11.898  10.558   7.943
33986SOL     OW50796   1.757  11.884   7.801
33986SOL    HW150797   1.833  11.820   7.805
33986SOL    HW250798   1.792  11.978   7.805
33987SOL     OW50799   5.152   5.551   6.604
33987SOL    HW150800   5.131   5.459   6.572
33987SOL    HW250801   5.110   5.618   6.543
33988SOL     OW50802  11.175   1.831   0.214
33988SOL    HW150803  11.251   1.894   0.227
33988SOL    HW250804  11.209   1.746   0.174
33989SOL     OW50805   4.415   4.931   1.870
33989SOL    HW150806   4.377   4.851   1.915
33989SOL    HW250807   4.395   5.013   1.925
33990SOL     OW50808   9.371  13.341   0.529
33990SOL    HW150809   9.389  13.436   0.504
33990SOL    HW250810   9.456  13.288   0.520
33991SOL     OW50811   6.996  10.679   8.187
33991SOL    HW150812   7.021  10.757   8.244
33991SOL    HW250813   6.982  10.709   8.093
33992SOL     OW50814  15.937  10.788   1.199
33992SOL    HW150815  15.887  10.737   1.129
33992SOL    HW250816  15.872  10.832   1.261
33993SOL     OW50817   2.424  15.942   7.649
33993SOL    HW150818   2.411  15.973   7.555
33993SOL    HW250819   2.343  15.963   7.703
33994SOL     OW50820   2.727   2.181   8.279
33994SOL    HW150821   2.780   2.100   8.255
33994SOL    HW250822   2.732   2.196   8.378
33995SOL     OW50823  16.502   0.316   1.166
33995SOL    HW150824  16.431   0.325   1.236
33995SOL    HW250825  16.589   0.352   1.202
33996SOL     OW50826   3.484  16.561   6.706
33996SOL    HW150827   3.450  16.646   6.745
33996SOL    HW250828   3.411  16.493   6.703
33997SOL     OW50829   8.790   7.144   8.392
33997SOL    HW150830   8.820   7.057   8.354
33997SOL    HW250831   8.723   7.128   0.011
33998SOL     OW50832  12.231  11.106   8.005
33998SOL    HW150833  12.227  11.068   8.097
33998SOL    HW250834  12.289  11.188   8.006
33999SOL     OW50835   0.828   1.001   1.129
33999SOL    HW150836   0.792   1.082   1.084
33999SOL    HW250837   0.753   0.950   1.171
34000SOL     OW50838   4.697  13.425   7.996
34000SOL    HW150839   4.685  13.493   8.069
34000SOL    HW250840   4.677  13.334   8.031
34001SOL     OW50841  16.154   1.628   0.791
34001SOL    HW150842  16.065   1.666   0.765
34001SOL    HW250843  16.157   1.616   0.890
34002SOL     OW50844   1.525  15.988   0.650
34002SOL    HW150845   1.431  15.998   0.683
34002SOL    HW250846   1.525  15.989   0.550
34003SOL     OW50847   0.265   0.762   2.261
34003SOL    HW150848   0.267   0.668   2.295
34003SOL    HW250849   0.192   0.813   2.308
34004SOL     OW50850   0.325  11.948   0.974
34004SOL    HW150851   0.228  11.926   0.983
34004SOL    HW250852   0.371  11.934   1.062
34005SOL     OW50853   8.687  14.473   2.084
34005SOL    HW150854   8.714  14.516   2.170
34005SOL    HW250855   8.699  14.374   2.090
34006SOL     OW50856   6.264  13.789   2.509
34006SOL    HW150857   6.305  13.875   2.539
34006SOL    HW250858   6.307  13.713   2.559
34007SOL     OW50859  12.128  12.578   0.334
34007SOL    HW150860  12.211  12.634   0.332
34007SOL    HW250861  12.111  12.548   0.427
34008SOL     OW50862  13.369  12.593   6.852
34008SOL    HW150863  13.278  12.634   6.860
34008SOL    HW250864  13.435  12.663   6.828
34009SOL     OW50865  11.900   5.054   8.065
34009SOL    HW150866  11.889   5.148   8.096
34009SOL    HW250867  11.936   5.053   7.972
34010SOL     OW50868  15.084  10.278   8.068
34010SOL    HW150869  15.088  10.208   8.140
34010SOL    HW250870  15.174  10.321   8.059
34011SOL     OW50871   8.767  10.408   2.238
34011SOL    HW150872   8.754  10.309   2.232
34011SOL    HW250873   8.773  10.435   2.334
34012SOL     OW50874   0.267  11.656   7.227
34012SOL    HW150875   0.305  11.683   7.139
34012SOL    HW250876   0.340  11.620   7.285
34013SOL     OW50877   6.420  14.724   0.813
34013SOL    HW150878   6.416  14.646   0.750
34013SOL    HW250879   6.328  14.745   0.847
34014SOL     OW50880   0.148   9.879   1.381
34014SOL    HW150881   0.154   9.948   1.454
34014SOL    HW250882   0.134   9.925   1.293
34015SOL     OW50883   7.538   5.614   0.159
34015SOL    HW150884   7.620   5.586   0.107
34015SOL    HW250885   7.561   5.693   0.216
34016SOL     OW50886   3.541  12.431   0.098
34016SOL    HW150887   3.486  12.505   0.059
34016SOL    HW250888   3.493  12.344   0.088
34017SOL     OW50889   1.098   0.982   8.332
34017SOL    HW150890   1.112   1.006   8.428
34017SOL    HW250891   1.187   0.966   8.288
34018SOL     OW50892   7.528   2.829   1.054
34018SOL    HW150893   7.605   2.774   1.020
34018SOL    HW250894   7.503   2.797   1.146
34019SOL     OW50895   4.943  15.928   1.755
34019SOL    HW150896   4.848  15.931   1.726
34019SOL    HW250897   4.952  15.972   1.845
34020SOL     OW50898   1.394  13.070   1.402
34020SOL    HW150899   1.309  13.018   1.399
34020SOL    HW250900   1.392  13.142   1.333
34021SOL     OW50901  14.226   2.697   0.732
34021SOL    HW150902  14.280   2.731   0.655
34021SOL    HW250903  14.134   2.673   0.701
34022SOL     OW50904  15.202   7.319   1.357
34022SOL    HW150905  15.145   7.386   1.406
34022SOL    HW250906  15.214   7.349   1.262
34023SOL     OW50907  16.035   6.626   6.419
34023SOL    HW150908  15.938   6.645   6.432
34023SOL    HW250909  16.053   6.603   6.323
34024SOL     OW50910   8.457   9.014   7.766
34024SOL    HW150911   8.359   9.036   7.767
34024SOL    HW250912   8.510   9.097   7.782
34025SOL     OW50913  11.135   2.046   8.287
34025SOL    HW150914  11.075   2.000   8.352
34025SOL    HW250915  11.084   2.067   8.203
34026SOL     OW50916   5.031   5.008   6.910
34026SOL    HW150917   5.125   4.976   6.918
34026SOL    HW250918   5.000   4.998   6.816
34027SOL     OW50919  10.592   9.833   1.330
34027SOL    HW150920  10.584   9.902   1.402
34027SOL    HW250921  10.647   9.757   1.363
34028SOL     OW50922  13.614   1.636   5.840
34028SOL    HW150923  13.687   1.572   5.867
34028SOL    HW250924  13.594   1.624   5.743
34029SOL     OW50925   4.257  11.329   0.374
34029SOL    HW150926   4.357  11.331   0.374
34029SOL    HW250927   4.225  11.238   0.400
34030SOL     OW50928  10.123  16.650   8.226
34030SOL    HW150929  10.139  16.724   8.160
34030SOL    HW250930  10.133  16.562   8.180
34031SOL     OW50931  16.687   9.955   0.202
34031SOL    HW150932  16.605   9.916   0.243
34031SOL    HW250933  16.717   9.897   0.126
34032SOL     OW50934  14.548  10.593   7.073
34032SOL    HW150935  14.625  10.573   7.134
34032SOL    HW250936  14.568  10.560   6.981
34033SOL     OW50937   0.951   9.539   0.645
34033SOL    HW150938   0.958   9.534   0.744
34033SOL    HW250939   0.872   9.487   0.613
34034SOL     OW50940   6.585  10.602   2.119
34034SOL    HW150941   6.540  10.691   2.113
34034SOL    HW250942   6.629  10.593   2.208
34035SOL     OW50943   6.395   8.841   1.103
34035SOL    HW150944   6.306   8.829   1.058
34035SOL    HW250945   6.467   8.809   1.042
34036SOL     OW50946   0.449   6.855   6.226
34036SOL    HW150947   0.429   6.814   6.137
34036SOL    HW250948   0.425   6.952   6.223
34037SOL     OW50949   4.758  13.941   7.276
34037SOL    HW150950   4.685  13.882   7.241
34037SOL    HW250951   4.812  13.975   7.200
34038SOL     OW50952   5.922   8.322   7.543
34038SOL    HW150953   5.952   8.320   7.448
34038SOL    HW250954   5.890   8.232   7.570
34039SOL     OW50955   5.310  13.895   6.051
34039SOL    HW150956   5.353  13.841   5.979
34039SOL    HW250957   5.362  13.884   6.136
34040SOL     OW50958   1.137   8.677   6.977
34040SOL    HW150959   1.218   8.703   7.030
34040SOL    HW250960   1.164   8.649   6.885
34041SOL     OW50961   7.153   3.943   7.248
34041SOL    HW150962   7.169   3.947   7.347
34041SOL    HW250963   7.093   3.866   7.228
34042SOL     OW50964   0.902  12.188   0.358
34042SOL    HW150965   0.827  12.239   0.315
34042SOL    HW250966   0.977  12.251   0.380
34043SOL     OW50967  15.402   7.148   8.444
34043SOL    HW150968  15.339   7.135   0.066
34043SOL    HW250969  15.366   7.100   8.363
34044SOL     OW50970  10.715  11.798   8.428
34044SOL    HW150971  10.771  11.779   0.056
34044SOL    HW250972  10.775  11.818   8.351
34045SOL     OW50973   4.954  13.152   7.960
34045SOL    HW150974   4.978  13.248   7.971
34045SOL    HW250975   4.901  13.140   7.876
34046SOL     OW50976  10.082  13.318   6.294
34046SOL    HW150977  10.031  13.394   6.256
34046SOL    HW250978  10.033  13.232   6.276
34047SOL     OW50979  11.946   7.964   7.860
34047SOL    HW150980  11.958   7.960   7.960
34047SOL    HW250981  12.031   7.996   7.818
34048SOL     OW50982  10.804  15.027   8.438
34048SOL    HW150983  10.713  15.038   8.398
34048SOL    HW250984  10.861  14.974   8.376
34049SOL     OW50985  14.898   1.135   0.692
34049SOL    HW150986  14.961   1.088   0.755
34049SOL    HW250987  14.910   1.234   0.701
34050SOL     OW50988   0.915   6.699   0.252
34050SOL    HW150989   0.884   6.682   0.346
34050SOL    HW250990   0.835   6.706   0.192
34051SOL     OW50991  15.314   7.841   0.564
34051SOL    HW150992  15.353   7.757   0.601
34051SOL    HW250993  15.351   7.919   0.613
34052SOL     OW50994   5.071  14.242   2.574
34052SOL    HW150995   5.079  14.304   2.652
34052SOL    HW250996   4.975  14.217   2.561
34053SOL     OW50997   7.637  10.322   1.192
34053SOL    HW150998   7.650  10.362   1.102
34053SOL    HW250999   7.718  10.269   1.217
34054SOL     OW51000   5.978   0.090   7.530
34054SOL    HW151001   6.033   0.174   7.533
34054SOL    HW251002   5.985   0.049   7.439
34055SOL     OW51003   3.345   9.534   7.745
34055SOL    HW151004   3.258   9.549   7.792
34055SOL    HW251005   3.331   9.537   7.646
34056SOL     OW51006   7.017  11.495   1.138
34056SOL    HW151007   6.977  11.573   1.090
34056SOL    HW251008   6.945  11.445   1.187
34057SOL     OW51009  11.478   4.563   6.640
34057SOL    HW151010  11.547   4.555   6.568
34057SOL    HW251011  11.502   4.637   6.702
34058SOL     OW51012   1.325  12.451   1.042
34058SOL    HW151013   1.274  12.494   0.967
34058SOL    HW251014   1.417  12.488   1.045
34059SOL     OW51015   0.375  10.227   2.070
34059SOL    HW151016   0.400  10.155   2.134
34059SOL    HW251017   0.323  10.298   2.117
34060SOL     OW51018  14.766   5.223   7.087
34060SOL    HW151019  14.809   5.137   7.058
34060SOL    HW251020  14.837   5.292   7.102
34061SOL     OW51021  10.096   9.653   6.853
34061SOL    HW151022  10.128   9.626   6.944
34061SOL    HW251023  10.100   9.753   6.845
34062SOL     OW51024   0.369   9.470   7.123
34062SOL    HW151025   0.454   9.516   7.099
34062SOL    HW251026   0.382   9.371   7.117
34063SOL     OW51027   0.922   3.283   8.004
34063SOL    HW151028   1.011   3.240   7.990
34063SOL    HW251029   0.880   3.302   7.916
34064SOL     OW51030   3.128  12.637   0.036
34064SOL    HW151031   3.058  12.655   0.105
34064SOL    HW251032   3.087  12.646   8.399
34065SOL     OW51033   0.842   3.756   7.963
34065SOL    HW151034   0.841   3.699   7.881
34065SOL    HW251035   0.750   3.762   8.001
34066SOL     OW51036   3.945  15.554   7.177
34066SOL    HW151037   3.854  15.564   7.218
34066SOL    HW251038   3.954  15.617   7.100
34067SOL     OW51039   1.411   3.145   1.007
34067SOL    HW151040   1.392   3.049   0.986
34067SOL    HW251041   1.326   3.190   1.036
34068SOL     OW51042   3.098   1.772   0.829
34068SOL    HW151043   3.058   1.744   0.742
34068SOL    HW251044   3.194   1.796   0.816
34069SOL     OW51045  14.470  10.896   1.132
34069SOL    HW151046  14.550  10.908   1.191
34069SOL    HW251047  14.498  10.852   1.046
34070SOL     OW51048   1.386   6.360   7.280
34070SOL    HW151049   1.362   6.358   7.377
34070SOL    HW251050   1.352   6.277   7.236
34071SOL     OW51051   4.536   0.933   1.287
34071SOL    HW151052   4.535   0.883   1.373
34071SOL    HW251053   4.478   1.014   1.294
34072SOL     OW51054   8.280   3.089   8.333
34072SOL    HW151055   8.206   3.144   8.371
34072SOL    HW251056   8.250   3.048   8.247
34073SOL     OW51057   3.944  12.989   2.035
34073SOL    HW151058   3.851  12.964   2.010
34073SOL    HW251059   4.006  12.969   1.959
34074SOL     OW51060   3.031  15.337   2.513
34074SOL    HW151061   3.110  15.348   2.574
34074SOL    HW251062   2.964  15.408   2.531
34075SOL     OW51063  11.178  11.094   8.085
34075SOL    HW151064  11.232  11.014   8.060
34075SOL    HW251065  11.190  11.166   8.017
34076SOL     OW51066   5.774  16.652   8.060
34076SOL    HW151067   5.788  16.633   8.157
34076SOL    HW251068   5.854  16.624   8.008
34077SOL     OW51069   1.280   6.288   0.341
34077SOL    HW151070   1.353   6.251   0.399
34077SOL    HW251071   1.319   6.356   0.279
34078SOL     OW51072   2.780   3.194   0.710
34078SOL    HW151073   2.825   3.251   0.779
34078SOL    HW251074   2.820   3.103   0.711
34079SOL     OW51075   5.861   6.186   7.255
34079SOL    HW151076   5.931   6.116   7.262
34079SOL    HW251077   5.901   6.276   7.273
34080SOL     OW51078   6.899   7.705   0.680
34080SOL    HW151079   6.909   7.780   0.615
34080SOL    HW251080   6.884   7.742   0.772
34081SOL     OW51081   4.325   6.470   7.307
34081SOL    HW151082   4.254   6.539   7.321
34081SOL    HW251083   4.336   6.453   7.209
34082SOL     OW51084   8.375   3.882   1.598
34082SOL    HW151085   8.364   3.794   1.553
34082SOL    HW251086   8.442   3.874   1.672
34083SOL     OW51087  13.989  10.556   2.619
34083SOL    HW151088  14.019  10.645   2.653
34083SOL    HW251089  13.914  10.521   2.676
34084SOL     OW51090   5.971   3.667   0.086
34084SOL    HW151091   5.875   3.652   0.062
34084SOL    HW251092   6.012   3.731   0.022
34085SOL     OW51093   4.246   2.020   0.216
34085SOL    HW151094   4.289   2.109   0.229
34085SOL    HW251095   4.243   1.971   0.304
34086SOL     OW51096   7.676   6.694   0.922
34086SOL    HW151097   7.605   6.753   0.884
34086SOL    HW251098   7.763   6.713   0.875
34087SOL     OW51099  13.581  11.899   0.641
34087SOL    HW151100  13.521  11.964   0.688
34087SOL    HW251101  13.527  11.823   0.605
34088SOL     OW51102   7.860  10.171   1.280
34088SOL    HW151103   7.928  10.174   1.353
34088SOL    HW251104   7.901  10.128   1.199
34089SOL     OW51105   4.998   9.812   8.262
34089SOL    HW151106   5.016   9.806   8.164
34089SOL    HW251107   4.901   9.834   8.277
34090SOL     OW51108  13.980   1.452   7.476
34090SOL    HW151109  14.068   1.439   7.431
34090SOL    HW251110  13.909   1.466   7.406
34091SOL     OW51111  13.641  10.940   8.349
34091SOL    HW151112  13.658  11.031   8.387
34091SOL    HW251113  13.560  10.901   8.392
34092SOL     OW51114  14.055   4.726   0.407
34092SOL    HW151115  13.994   4.684   0.474
34092SOL    HW251116  14.149   4.696   0.423
34093SOL     OW51117  12.307   7.851   0.682
34093SOL    HW151118  12.374   7.811   0.745
34093SOL    HW251119  12.219   7.804   0.694
34094SOL     OW51120   6.994   9.075   7.629
34094SOL    HW151121   7.050   9.039   7.554
34094SOL    HW251122   6.954   8.999   7.680
34095SOL     OW51123   8.513  11.696   0.416
34095SOL    HW151124   8.503  11.762   0.342
34095SOL    HW251125   8.610  11.675   0.430
34096SOL     OW51126   0.159   1.944   1.085
34096SOL    HW151127   0.068   1.939   1.125
34096SOL    HW251128   0.179   2.039   1.059
34097SOL     OW51129   2.098   6.358   7.731
34097SOL    HW151130   2.153   6.430   7.774
34097SOL    HW251131   2.003   6.367   7.761
34098SOL     OW51132  14.948  12.798   0.243
34098SOL    HW151133  14.972  12.814   0.339
34098SOL    HW251134  14.913  12.705   0.233
34099SOL     OW51135   8.182  14.545   7.118
34099SOL    HW151136   8.083  14.526   7.114
34099SOL    HW251137   8.197  14.643   7.108
34100SOL     OW51138  10.456  10.146   7.330
34100SOL    HW151139  10.474  10.212   7.256
34100SOL    HW251140  10.483  10.055   7.300
34101SOL     OW51141  16.586   2.714   6.492
34101SOL    HW151142  16.628   2.699   6.403
34101SOL    HW251143  16.494   2.752   6.480
34102SOL     OW51144  13.764   0.959   0.365
34102SOL    HW151145  13.710   0.952   0.281
34102SOL    HW251146  13.712   1.008   0.434
34103SOL     OW51147   3.280   1.496   7.659
34103SOL    HW151148   3.311   1.425   7.597
34103SOL    HW251149   3.224   1.456   7.731
34104SOL     OW51150   9.317  11.026   0.331
34104SOL    HW151151   9.378  11.105   0.324
34104SOL    HW251152   9.363  10.954   0.383
34105SOL     OW51153  15.171   2.653   7.960
34105SOL    HW151154  15.196   2.596   7.881
34105SOL    HW251155  15.225   2.736   7.959
34106SOL     OW51156   4.947  10.094   1.828
34106SOL    HW151157   4.999  10.141   1.899
34106SOL    HW251158   4.900  10.162   1.770
34107SOL     OW51159   3.511  16.374   1.666
34107SOL    HW151160   3.502  16.298   1.602
34107SOL    HW251161   3.598  16.366   1.716
34108SOL     OW51162  14.783   9.506   6.445
34108SOL    HW151163  14.838   9.443   6.390
34108SOL    HW251164  14.738   9.572   6.385
34109SOL     OW51165   8.276   0.347   7.258
34109SOL    HW151166   8.221   0.391   7.187
34109SOL    HW251167   8.220   0.333   7.340
34110SOL     OW51168   5.289  12.868   1.488
34110SOL    HW151169   5.340  12.836   1.408
34110SOL    HW251170   5.194  12.885   1.463
34111SOL     OW51171   7.968  10.619   7.998
34111SOL    HW151172   7.913  10.595   7.918
34111SOL    HW251173   7.954  10.715   8.021
34112SOL     OW51174   7.969   3.487   6.248
34112SOL    HW151175   8.053   3.436   6.232
34112SOL    HW251176   7.972   3.573   6.196
34113SOL     OW51177  16.114   0.514   7.664
34113SOL    HW151178  16.022   0.476   7.653
34113SOL    HW251179  16.131   0.533   7.761
34114SOL     OW51180   3.998   0.956   1.997
34114SOL    HW151181   3.900   0.938   1.988
34114SOL    HW251182   4.049   0.871   1.988
34115SOL     OW51183   1.153  13.532   0.585
34115SOL    HW151184   1.128  13.575   0.672
34115SOL    HW251185   1.099  13.572   0.512
34116SOL     OW51186   5.134   4.006   1.826
34116SOL    HW151187   5.066   3.993   1.897
34116SOL    HW251188   5.119   4.095   1.781
34117SOL     OW51189   7.257  12.117   7.829
34117SOL    HW151190   7.295  12.207   7.848
34117SOL    HW251191   7.330  12.049   7.830
34118SOL     OW51192  13.254   5.244   0.936
34118SOL    HW151193  13.328   5.258   1.002
34118SOL    HW251194  13.207   5.158   0.956
34119SOL     OW51195   9.531   4.609   7.998
34119SOL    HW151196   9.461   4.550   8.039
34119SOL    HW251197   9.597   4.553   7.949
34120SOL     OW51198  16.211   9.291   0.626
34120SOL    HW151199  16.225   9.243   0.712
34120SOL    HW251200  16.261   9.378   0.628
34121SOL     OW51201  11.909   9.748   7.715
34121SOL    HW151202  11.837   9.785   7.657
34121SOL    HW251203  11.904   9.648   7.715
34122SOL     OW51204  12.090  11.458   2.436
34122SOL    HW151205  12.146  11.531   2.475
34122SOL    HW251206  12.001  11.456   2.481
34123SOL     OW51207   1.031   7.856   7.453
34123SOL    HW151208   1.049   7.781   7.390
34123SOL    HW251209   1.108   7.866   7.517
34124SOL     OW51210  12.040   3.271   7.914
34124SOL    HW151211  12.133   3.250   7.944
34124SOL    HW251212  12.024   3.369   7.922
34125SOL     OW51213  14.436  15.746   8.381
34125SOL    HW151214  14.481  15.657   8.384
34125SOL    HW251215  14.505  15.818   8.386
34126SOL     OW51216  14.737  12.754   6.957
34126SOL    HW151217  14.668  12.758   6.886
34126SOL    HW251218  14.727  12.833   7.018
34127SOL     OW51219  16.442   9.669   1.888
34127SOL    HW151220  16.471   9.744   1.948
34127SOL    HW251221  16.358   9.628   1.924
34128SOL     OW51222   5.205  11.015   7.872
34128SOL    HW151223   5.297  10.989   7.843
34128SOL    HW251224   5.158  10.936   7.912
34129SOL     OW51225  10.485  15.768   0.612
34129SOL    HW151226  10.526  15.692   0.660
34129SOL    HW251227  10.386  15.752   0.602
34130SOL     OW51228  12.925   4.011   7.317
34130SOL    HW151229  12.988   3.933   7.317
34130SOL    HW251230  12.905   4.038   7.411
34131SOL     OW51231  14.878  12.362   0.198
34131SOL    HW151232  14.963  12.414   0.186
34131SOL    HW251233  14.821  12.372   0.116
34132SOL     OW51234  10.907   2.337   0.349
34132SOL    HW151235  10.943   2.429   0.362
34132SOL    HW251236  10.849   2.312   0.427
34133SOL     OW51237  14.185   7.871   1.254
34133SOL    HW151238  14.160   7.776   1.271
34133SOL    HW251239  14.106   7.921   1.220
34134SOL     OW51240   8.302   6.729   8.334
34134SOL    HW151241   8.248   6.781   8.267
34134SOL    HW251242   8.379   6.785   8.365
34135SOL     OW51243   6.000   3.926   1.065
34135SOL    HW151244   6.041   3.865   0.996
34135SOL    HW251245   6.047   4.014   1.063
34136SOL     OW51246  10.559   9.835   6.508
34136SOL    HW151247  10.619   9.914   6.494
34136SOL    HW251248  10.464   9.863   6.503
34137SOL     OW51249  15.784  10.756   7.733
34137SOL    HW151250  15.827  10.668   7.708
34137SOL    HW251251  15.686  10.743   7.741
34138SOL     OW51252   3.916   7.888   7.905
34138SOL    HW151253   3.871   7.978   7.903
34138SOL    HW251254   3.868   7.825   7.844
34139SOL     OW51255  16.153   0.409   1.733
34139SOL    HW151256  16.138   0.495   1.781
34139SOL    HW251257  16.227   0.420   1.667
34140SOL     OW51258  12.666  11.764   0.070
34140SOL    HW151259  12.606  11.708   0.013
34140SOL    HW251260  12.610  11.824   0.128
34141SOL     OW51261   2.132   5.590   0.974
34141SOL    HW151262   2.205   5.570   1.039
34141SOL    HW251263   2.148   5.539   0.889
34142SOL     OW51264  12.704   8.645   1.178
34142SOL    HW151265  12.661   8.647   1.088
34142SOL    HW251266  12.687   8.556   1.222
34143SOL     OW51267   3.893   6.808   1.642
34143SOL    HW151268   3.947   6.874   1.591
34143SOL    HW251269   3.804   6.848   1.664
34144SOL     OW51270  14.593  14.851   7.630
34144SOL    HW151271  14.632  14.911   7.561
34144SOL    HW251272  14.534  14.784   7.585
34145SOL     OW51273  12.371  15.104   7.896
34145SOL    HW151274  12.423  15.115   7.981
34145SOL    HW251275  12.434  15.103   7.818
34146SOL     OW51276   5.562  10.679   1.314
34146SOL    HW151277   5.474  10.636   1.330
34146SOL    HW251278   5.627  10.649   1.384
34147SOL     OW51279   1.301  13.842   2.718
34147SOL    HW151280   1.206  13.840   2.750
34147SOL    HW251281   1.362  13.816   2.793
34148SOL     OW51282  10.336  11.263   1.319
34148SOL    HW151283  10.281  11.332   1.273
34148SOL    HW251284  10.342  11.182   1.261
34149SOL     OW51285   5.576   0.640   0.607
34149SOL    HW151286   5.673   0.618   0.592
34149SOL    HW251287   5.522   0.601   0.532
34150SOL     OW51288  14.443   0.691   0.961
34150SOL    HW151289  14.400   0.629   1.026
34150SOL    HW251290  14.417   0.666   0.867
34151SOL     OW51291   0.305  12.574   8.085
34151SOL    HW151292   0.325  12.597   7.990
34151SOL    HW251293   0.370  12.506   8.117
34152SOL     OW51294   6.472   2.416   1.401
34152SOL    HW151295   6.522   2.452   1.322
34152SOL    HW251296   6.475   2.483   1.476
34153SOL     OW51297   6.877   1.434   7.076
34153SOL    HW151298   6.822   1.361   7.116
34153SOL    HW251299   6.855   1.444   6.979
34154SOL     OW51300   8.526  13.401   6.162
34154SOL    HW151301   8.558  13.326   6.220
34154SOL    HW251302   8.548  13.382   6.067
34155SOL     OW51303  13.751   8.783   8.361
34155SOL    HW151304  13.654   8.759   8.367
34155SOL    HW251305  13.761   8.875   8.325
34156SOL     OW51306  13.659   4.016   6.904
34156SOL    HW151307  13.588   3.957   6.865
34156SOL    HW251308  13.727   4.038   6.834
34157SOL     OW51309  13.321   1.656   6.599
34157SOL    HW151310  13.309   1.720   6.674
34157SOL    HW251311  13.418   1.649   6.576
34158SOL     OW51312  16.733   7.061   1.860
34158SOL    HW151313  16.732   7.020   1.952
34158SOL    HW251314  16.726   7.160   1.868
34159SOL     OW51315   8.606  11.663   2.047
34159SOL    HW151316   8.583  11.753   2.082
34159SOL    HW251317   8.528  11.601   2.060
34160SOL     OW51318  10.508   3.481   1.480
34160SOL    HW151319  10.462   3.491   1.568
34160SOL    HW251320  10.468   3.545   1.414
34161SOL     OW51321   1.794   4.925   0.050
34161SOL    HW151322   1.845   4.932   8.419
34161SOL    HW251323   1.838   4.858   0.110
34162SOL     OW51324   2.821  14.264   6.488
34162SOL    HW151325   2.751  14.216   6.435
34162SOL    HW251326   2.787  14.354   6.515
34163SOL     OW51327   1.085   5.152   8.419
34163SOL    HW151328   1.087   5.213   8.340
34163SOL    HW251329   1.167   5.095   8.420
34164SOL     OW51330   8.536   1.316   8.083
34164SOL    HW151331   8.580   1.238   8.040
34164SOL    HW251332   8.589   1.399   8.064
34165SOL     OW51333   4.919  16.131   0.421
34165SOL    HW151334   4.957  16.058   0.364
34165SOL    HW251335   4.869  16.196   0.363
34166SOL     OW51336   5.733   6.715   1.480
34166SOL    HW151337   5.800   6.771   1.528
34166SOL    HW251338   5.642   6.735   1.516
34167SOL     OW51339   0.035   0.309   8.444
34167SOL    HW151340   0.005   0.357   0.073
34167SOL    HW251341  16.952   0.326   8.371
34168SOL     OW51342   5.790  14.449   2.564
34168SOL    HW151343   5.733  14.482   2.489
34168SOL    HW251344   5.832  14.527   2.610
34169SOL     OW51345  14.932   5.631   1.464
34169SOL    HW151346  14.848   5.591   1.428
34169SOL    HW251347  14.916   5.726   1.488
34170SOL     OW51348  10.024  12.071   1.068
34170SOL    HW151349   9.984  12.075   0.977
34170SOL    HW251350  10.118  12.037   1.063
34171SOL     OW51351  13.794   1.483   7.282
34171SOL    HW151352  13.797   1.396   7.232
34171SOL    HW251353  13.699   1.508   7.299
34172SOL     OW51354   5.749   1.197   6.900
34172SOL    HW151355   5.756   1.116   6.958
34172SOL    HW251356   5.727   1.169   6.806
34173SOL     OW51357   1.415   9.076   7.376
34173SOL    HW151358   1.428   8.988   7.422
34173SOL    HW251359   1.383   9.144   7.442
34174SOL     OW51360   7.189  11.916   8.341
34174SOL    HW151361   7.148  11.979   8.275
34174SOL    HW251362   7.230  11.969   8.416
34175SOL     OW51363  12.103  15.370   6.869
34175SOL    HW151364  12.176  15.304   6.882
34175SOL    HW251365  12.115  15.415   6.780
34176SOL     OW51366   4.997  11.579   0.700
34176SOL    HW151367   4.923  11.544   0.758
34176SOL    HW251368   5.053  11.643   0.753
34177SOL     OW51369   4.954  11.930   8.129
34177SOL    HW151370   4.883  11.867   8.099
34177SOL    HW251371   4.939  12.020   8.088
34178SOL     OW51372   4.826   6.342   8.377
34178SOL    HW151373   4.827   6.249   8.413
34178SOL    HW251374   4.900   6.352   8.310
34179SOL     OW51375  11.804   5.634   0.610
34179SOL    HW151376  11.818   5.567   0.683
34179SOL    HW251377  11.814   5.588   0.521
34180SOL     OW51378  10.258  10.840   6.921
34180SOL    HW151379  10.161  10.856   6.935
34180SOL    HW251380  10.274  10.807   6.828
34181SOL     OW51381  13.389  13.398   7.715
34181SOL    HW151382  13.381  13.485   7.667
34181SOL    HW251383  13.435  13.331   7.657
34182SOL     OW51384   1.411   4.134   0.801
34182SOL    HW151385   1.325   4.170   0.766
34182SOL    HW251386   1.398   4.040   0.833
34183SOL     OW51387  16.148   6.486   1.629
34183SOL    HW151388  16.191   6.470   1.718
34183SOL    HW251389  16.140   6.399   1.580
34184SOL     OW51390   6.107  13.569   1.245
34184SOL    HW151391   6.196  13.576   1.290
34184SOL    HW251392   6.115  13.510   1.165
34185SOL     OW51393   6.803   2.083   7.057
34185SOL    HW151394   6.714   2.075   7.101
34185SOL    HW251395   6.806   2.165   7.001
34186SOL     OW51396   1.408  10.579   2.079
34186SOL    HW151397   1.483  10.538   2.130
34186SOL    HW251398   1.326  10.580   2.137
34187SOL     OW51399  15.340   5.698   2.025
34187SOL    HW151400  15.254   5.658   1.995
34187SOL    HW251401  15.342   5.796   2.004
34188SOL     OW51402   8.541   1.410   7.780
34188SOL    HW151403   8.556   1.470   7.859
34188SOL    HW251404   8.473   1.340   7.804
34189SOL     OW51405  10.256   7.517   7.457
34189SOL    HW151406  10.254   7.570   7.373
34189SOL    HW251407  10.207   7.566   7.529
34190SOL     OW51408  16.266   3.873   6.839
34190SOL    HW151409  16.242   3.841   6.747
34190SOL    HW251410  16.183   3.886   6.893
34191SOL     OW51411   3.084  14.071   0.603
34191SOL    HW151412   3.096  13.995   0.539
34191SOL    HW251413   3.148  14.059   0.680
34192SOL     OW51414  13.621   6.682   1.753
34192SOL    HW151415  13.610   6.648   1.847
34192SOL    HW251416  13.705   6.737   1.747
34193SOL     OW51417  10.944   3.244   0.741
34193SOL    HW151418  10.854   3.236   0.698
34193SOL    HW251419  11.011   3.193   0.687
34194SOL     OW51420  14.674   1.284   6.132
34194SOL    HW151421  14.761   1.265   6.177
34194SOL    HW251422  14.664   1.226   6.052
34195SOL     OW51423  10.823   9.132   8.452
34195SOL    HW151424  10.804   9.108   8.357
34195SOL    HW251425  10.851   9.050   0.048
34196SOL     OW51426  15.536  16.610   0.915
34196SOL    HW151427  15.499  16.703   0.923
34196SOL    HW251428  15.465  16.543   0.938
34197SOL     OW51429   7.947   3.600   1.067
34197SOL    HW151430   7.965   3.563   1.158
34197SOL    HW251431   8.001   3.549   1.000
34198SOL     OW51432   9.271  14.862   0.577
34198SOL    HW151433   9.213  14.938   0.607
34198SOL    HW251434   9.298  14.877   0.482
34199SOL     OW51435   9.967   0.241   6.957
34199SOL    HW151436   9.924   0.193   6.880
34199SOL    HW251437  10.036   0.182   6.999
34200SOL     OW51438  10.043   3.315   0.557
34200SOL    HW151439  10.126   3.368   0.543
34200SOL    HW251440  10.032   3.293   0.654
34201SOL     OW51441  13.826   3.946   6.127
34201SOL    HW151442  13.848   3.869   6.186
34201SOL    HW251443  13.755   3.918   6.062
34202SOL     OW51444   9.380  12.021   6.671
34202SOL    HW151445   9.454  11.963   6.637
34202SOL    HW251446   9.337  12.068   6.594
34203SOL     OW51447  11.199   9.827   6.914
34203SOL    HW151448  11.121   9.859   6.862
34203SOL    HW251449  11.177   9.828   7.012
34204SOL     OW51450   4.153   1.203   8.178
34204SOL    HW151451   4.215   1.128   8.155
34204SOL    HW251452   4.206   1.278   8.218
34205SOL     OW51453   5.381   2.493   0.337
34205SOL    HW151454   5.283   2.516   0.337
34205SOL    HW251455   5.398   2.419   0.272
34206SOL     OW51456  14.688   4.360   0.019
34206SOL    HW151457  14.686   4.397   8.380
34206SOL    HW251458  14.609   4.395   0.070
34207SOL     OW51459   3.778  12.334   7.731
34207SOL    HW151460   3.757  12.253   7.676
34207SOL    HW251461   3.859  12.316   7.788
34208SOL     OW51462  15.534   3.546   0.980
34208SOL    HW151463  15.583   3.475   0.931
34208SOL    HW251464  15.596   3.592   1.044
34209SOL     OW51465   9.937   4.475   0.354
34209SOL    HW151466   9.936   4.427   0.266
34209SOL    HW251467  10.025   4.521   0.367
34210SOL     OW51468  14.997   9.328   7.932
34210SOL    HW151469  15.084   9.287   7.906
34210SOL    HW251470  14.922   9.270   7.902
34211SOL     OW51471  16.523   7.380   7.544
34211SOL    HW151472  16.573   7.329   7.614
34211SOL    HW251473  16.562   7.360   7.454
34212SOL     OW51474   9.435   0.549   7.725
34212SOL    HW151475   9.397   0.583   7.639
34212SOL    HW251476   9.363   0.545   7.794
34213SOL     OW51477   0.401  13.238   0.729
34213SOL    HW151478   0.428  13.262   0.635
34213SOL    HW251479   0.395  13.139   0.737
34214SOL     OW51480  15.155  10.263   6.123
34214SOL    HW151481  15.238  10.292   6.169
34214SOL    HW251482  15.155  10.163   6.113
34215SOL     OW51483   6.930   4.709   6.399
34215SOL    HW151484   6.889   4.759   6.322
34215SOL    HW251485   7.028   4.701   6.384
34216SOL     OW51486  10.236   6.919   6.444
34216SOL    HW151487  10.255   6.975   6.524
34216SOL    HW251488  10.264   6.968   6.361
34217SOL     OW51489  10.838  10.021   1.616
34217SOL    HW151490  10.833   9.951   1.687
34217SOL    HW251491  10.749  10.029   1.572
34218SOL     OW51492  15.363   5.968   1.968
34218SOL    HW151493  15.456   5.971   1.930
34218SOL    HW251494  15.303   6.026   1.914
34219SOL     OW51495  16.889   6.523   0.387
34219SOL    HW151496  16.942   6.529   0.302
34219SOL    HW251497  16.948   6.546   0.464
34220SOL     OW51498   9.258   4.590   6.729
34220SOL    HW151499   9.192   4.580   6.803
34220SOL    HW251500   9.343   4.541   6.752
34221SOL     OW51501   7.158   3.248   6.940
34221SOL    HW151502   7.091   3.192   6.891
34221SOL    HW251503   7.225   3.188   6.984
34222SOL     OW51504   1.927   5.762   1.030
34222SOL    HW151505   1.939   5.849   0.982
34222SOL    HW251506   2.005   5.703   1.010
34223SOL     OW51507   7.416   5.122   2.133
34223SOL    HW151508   7.318   5.106   2.145
34223SOL    HW251509   7.461   5.130   2.222
34224SOL     OW51510  10.781   8.331   7.305
34224SOL    HW151511  10.795   8.285   7.218
34224SOL    HW251512  10.824   8.278   7.378
34225SOL     OW51513   6.387   9.854   7.592
34225SOL    HW151514   6.380   9.876   7.494
34225SOL    HW251515   6.350   9.762   7.608
34226SOL     OW51516  16.256  14.718   7.327
34226SOL    HW151517  16.336  14.754   7.375
34226SOL    HW251518  16.244  14.622   7.350
34227SOL     OW51519  10.820  12.103   1.243
34227SOL    HW151520  10.877  12.133   1.320
34227SOL    HW251521  10.724  12.102   1.271
34228SOL     OW51522  12.789   1.772   1.045
34228SOL    HW151523  12.747   1.774   1.136
34228SOL    HW251524  12.844   1.854   1.032
34229SOL     OW51525  13.020  16.070   1.768
34229SOL    HW151526  13.039  16.164   1.796
34229SOL    HW251527  13.083  16.008   1.815
34230SOL     OW51528   2.723   7.757   6.954
34230SOL    HW151529   2.711   7.669   6.909
34230SOL    HW251530   2.685   7.753   7.047
34231SOL     OW51531  12.481  16.222   0.569
34231SOL    HW151532  12.467  16.154   0.641
34231SOL    HW251533  12.429  16.304   0.589
34232SOL     OW51534   7.398  13.520   0.187
34232SOL    HW151535   7.327  13.475   0.133
34232SOL    HW251536   7.399  13.481   0.280
34233SOL     OW51537  15.312   7.525   6.430
34233SOL    HW151538  15.379   7.473   6.378
34233SOL    HW251539  15.230   7.470   6.444
34234SOL     OW51540   3.790  12.974   8.148
34234SOL    HW151541   3.741  12.889   8.167
34234SOL    HW251542   3.882  12.953   8.115
34235SOL     OW51543   0.686   1.484   0.842
34235SOL    HW151544   0.751   1.422   0.887
34235SOL    HW251545   0.735   1.563   0.805
34236SOL     OW51546  13.424   7.769   6.587
34236SOL    HW151547  13.510   7.792   6.634
34236SOL    HW251548  13.384   7.852   6.548
34237SOL     OW51549  11.227  11.511   8.249
34237SOL    HW151550  11.286  11.450   8.302
34237SOL    HW251551  11.153  11.544   8.308
34238SOL     OW51552   6.779   5.401   1.825
34238SOL    HW151553   6.813   5.451   1.904
34238SOL    HW251554   6.683   5.375   1.840
34239SOL     OW51555  14.085   6.750   7.880
34239SOL    HW151556  14.175   6.757   7.838
34239SOL    HW251557  14.036   6.672   7.840
34240SOL     OW51558  16.730  10.198   0.940
34240SOL    HW151559  16.827  10.218   0.952
34240SOL    HW251560  16.680  10.222   1.023
34241SOL     OW51561   5.024  16.263   6.481
34241SOL    HW151562   5.097  16.313   6.435
34241SOL    HW251563   4.984  16.196   6.417
34242SOL     OW51564  11.724  15.764   1.190
34242SOL    HW151565  11.794  15.705   1.149
34242SOL    HW251566  11.673  15.809   1.117
34243SOL     OW51567   4.141   8.685   1.944
34243SOL    HW151568   4.066   8.656   1.885
34243SOL    HW251569   4.108   8.690   2.039
34244SOL     OW51570  10.427   9.120   1.115
34244SOL    HW151571  10.364   9.127   1.192
34244SOL    HW251572  10.386   9.165   1.035
34245SOL     OW51573   9.020   6.425   0.053
34245SOL    HW151574   8.974   6.379   8.430
34245SOL    HW251575   9.009   6.370   0.136
34246SOL     OW51576  12.314  14.818   7.343
34246SOL    HW151577  12.327  14.878   7.422
34246SOL    HW251578  12.403  14.803   7.299
34247SOL     OW51579   7.592  15.627   7.432
34247SOL    HW151580   7.529  15.704   7.424
34247SOL    HW251581   7.685  15.660   7.441
34248SOL     OW51582  11.212   5.689   0.766
34248SOL    HW151583  11.231   5.778   0.808
34248SOL    HW251584  11.128   5.695   0.712
34249SOL     OW51585   0.186   5.019   7.007
34249SOL    HW151586   0.113   4.966   6.965
34249SOL    HW251587   0.230   5.076   6.938
34250SOL     OW51588  14.869  13.541   7.204
34250SOL    HW151589  14.929  13.562   7.127
34250SOL    HW251590  14.807  13.467   7.178
34251SOL     OW51591  12.756   8.601   7.141
34251SOL    HW151592  12.725   8.510   7.170
34251SOL    HW251593  12.680   8.666   7.150
34252SOL     OW51594   3.764  15.014   0.612
34252SOL    HW151595   3.733  15.008   0.706
34252SOL    HW251596   3.715  15.087   0.565
34253SOL     OW51597   3.837   0.303   6.928
34253SOL    HW151598   3.811   0.266   6.838
34253SOL    HW251599   3.759   0.295   6.990
34254SOL     OW51600   7.706  15.857   1.633
34254SOL    HW151601   7.751  15.818   1.713
34254SOL    HW251602   7.732  15.953   1.624
34255SOL     OW51603  11.617  15.860   6.776
34255SOL    HW151604  11.527  15.888   6.808
34255SOL    HW251605  11.658  15.796   6.841
34256SOL     OW51606   9.650  11.358   7.463
34256SOL    HW151607   9.586  11.412   7.409
34256SOL    HW251608   9.692  11.288   7.405
34257SOL     OW51609   2.541   0.402   8.411
34257SOL    HW151610   2.510   0.407   8.316
34257SOL    HW251611   2.599   0.321   8.422
34258SOL     OW51612  12.938  14.148   0.915
34258SOL    HW151613  13.032  14.183   0.917
34258SOL    HW251614  12.905  14.146   0.821
34259SOL     OW51615  11.548   2.556   7.144
34259SOL    HW151616  11.574   2.466   7.177
34259SOL    HW251617  11.465   2.549   7.089
34260SOL     OW51618  14.147  10.103   2.273
34260SOL    HW151619  14.164  10.158   2.191
34260SOL    HW251620  14.053  10.119   2.305
34261SOL     OW51621  16.225   4.106   7.592
34261SOL    HW151622  16.215   4.007   7.605
34261SOL    HW251623  16.257   4.147   7.678
34262SOL     OW51624  10.245   4.718   1.384
34262SOL    HW151625  10.252   4.683   1.290
34262SOL    HW251626  10.153   4.698   1.419
34263SOL     OW51627   8.005  15.559   1.179
34263SOL    HW151628   7.990  15.507   1.095
34263SOL    HW251629   8.032  15.652   1.157
34264SOL     OW51630   6.899   2.842   7.760
34264SOL    HW151631   6.852   2.913   7.708
34264SOL    HW251632   6.885   2.753   7.716
34265SOL     OW51633   4.801   4.328   1.010
34265SOL    HW151634   4.720   4.315   0.953
34265SOL    HW251635   4.871   4.376   0.957
34266SOL     OW51636   0.429   7.413   7.598
34266SOL    HW151637   0.368   7.426   7.677
34266SOL    HW251638   0.500   7.347   7.621
34267SOL     OW51639   4.047  12.374   1.803
34267SOL    HW151640   4.070  12.395   1.708
34267SOL    HW251641   4.011  12.456   1.848
34268SOL     OW51642   1.378  12.155   1.917
34268SOL    HW151643   1.316  12.184   1.990
34268SOL    HW251644   1.328  12.147   1.831
34269SOL     OW51645   4.749   3.416   8.207
34269SOL    HW151646   4.797   3.469   8.137
34269SOL    HW251647   4.651   3.435   8.201
34270SOL     OW51648   4.332   9.906   8.224
34270SOL    HW151649   4.312   9.892   8.321
34270SOL    HW251650   4.291   9.832   8.171
34271SOL     OW51651   5.561   5.845   1.479
34271SOL    HW151652   5.472   5.891   1.476
34271SOL    HW251653   5.615   5.882   1.555
34272SOL     OW51654   2.807   2.728   7.711
34272SOL    HW151655   2.804   2.771   7.620
34272SOL    HW251656   2.714   2.705   7.740
34273SOL     OW51657   1.704   3.601   7.709
34273SOL    HW151658   1.626   3.586   7.648
34273SOL    HW251659   1.757   3.679   7.676
34274SOL     OW51660  11.425   2.526   5.818
34274SOL    HW151661  11.509   2.581   5.822
34274SOL    HW251662  11.430   2.465   5.739
34275SOL     OW51663   0.484  11.265   1.696
34275SOL    HW151664   0.538  11.295   1.775
34275SOL    HW251665   0.396  11.230   1.727
34276SOL     OW51666  12.591   0.805   8.354
34276SOL    HW151667  12.525   0.825   8.280
34276SOL    HW251668  12.680   0.843   8.329
34277SOL     OW51669   3.789   8.677   7.820
34277SOL    HW151670   3.715   8.658   7.884
34277SOL    HW251671   3.852   8.599   7.816
34278SOL     OW51672   8.289   5.156   1.992
34278SOL    HW151673   8.318   5.211   2.070
34278SOL    HW251674   8.201   5.190   1.958
34279SOL     OW51675  15.999  13.032   8.336
34279SOL    HW151676  15.953  12.943   8.336
34279SOL    HW251677  15.950  13.095   8.396
34280SOL     OW51678   9.552   1.448   7.350
34280SOL    HW151679   9.526   1.476   7.257
34280SOL    HW251680   9.647   1.473   7.366
34281SOL     OW51681  15.554   3.410   7.595
34281SOL    HW151682  15.465   3.454   7.584
34281SOL    HW251683  15.560   3.329   7.536
34282SOL     OW51684   2.095  11.088   8.051
34282SOL    HW151685   2.018  11.036   8.088
34282SOL    HW251686   2.140  11.139   8.124
34283SOL     OW51687   1.622  16.752   7.843
34283SOL    HW151688   1.594  16.845   7.867
34283SOL    HW251689   1.719  16.740   7.863
34284SOL     OW51690  11.210  12.383   1.142
34284SOL    HW151691  11.116  12.416   1.156
34284SOL    HW251692  11.212  12.284   1.152
34285SOL     OW51693  16.106  12.921   1.464
34285SOL    HW151694  16.014  12.886   1.480
34285SOL    HW251695  16.104  12.987   1.389
34286SOL     OW51696  15.294  12.900   0.721
34286SOL    HW151697  15.353  12.828   0.757
34286SOL    HW251698  15.297  12.900   0.621
34287SOL     OW51699  11.931   1.609   1.661
34287SOL    HW151700  12.009   1.652   1.615
34287SOL    HW251701  11.928   1.639   1.756
34288SOL     OW51702   0.728   9.402   0.537
34288SOL    HW151703   0.791   9.329   0.511
34288SOL    HW251704   0.634   9.374   0.515
34289SOL     OW51705   5.820  12.560   0.627
34289SOL    HW151706   5.743  12.568   0.690
34289SOL    HW251707   5.812  12.630   0.555
34290SOL     OW51708   2.092  13.648   1.702
34290SOL    HW151709   2.017  13.589   1.730
34290SOL    HW251710   2.099  13.649   1.602
34291SOL     OW51711  11.151   8.877   8.217
34291SOL    HW151712  11.100   8.957   8.185
34291SOL    HW251713  11.237   8.870   8.165
34292SOL     OW51714  12.671   1.106   8.454
34292SOL    HW151715  12.718   1.052   8.384
34292SOL    HW251716  12.572   1.104   8.437
34293SOL     OW51717  11.543   4.764   6.828
34293SOL    HW151718  11.515   4.725   6.916
34293SOL    HW251719  11.643   4.764   6.823
34294SOL     OW51720   0.584   6.677   6.779
34294SOL    HW151721   0.540   6.661   6.867
34294SOL    HW251722   0.535   6.749   6.729
34295SOL     OW51723  10.831  14.284   7.303
34295SOL    HW151724  10.861  14.377   7.281
34295SOL    HW251725  10.790  14.284   7.394
34296SOL     OW51726   7.257  13.095   1.656
34296SOL    HW151727   7.286  13.191   1.655
34296SOL    HW251728   7.186  13.083   1.725
34297SOL     OW51729   4.101  12.668   7.738
34297SOL    HW151730   4.165  12.721   7.793
34297SOL    HW251731   4.030  12.630   7.796
34298SOL     OW51732  16.944   3.382   0.617
34298SOL    HW151733  16.858   3.389   0.567
34298SOL    HW251734  16.945   3.298   0.671
34299SOL     OW51735  12.836  10.127   8.252
34299SOL    HW151736  12.758  10.096   8.197
34299SOL    HW251737  12.868  10.051   8.309
34300SOL     OW51738   6.174  11.023   8.301
34300SOL    HW151739   6.229  10.941   8.283
34300SOL    HW251740   6.163  11.075   8.217
34301SOL     OW51741  16.772   4.210   7.760
34301SOL    HW151742  16.691   4.266   7.778
34301SOL    HW251743  16.749   4.138   7.695
34302SOL     OW51744  12.332   4.665   7.668
34302SOL    HW151745  12.347   4.643   7.572
34302SOL    HW251746  12.418   4.655   7.719
34303SOL     OW51747   0.850   2.948   0.345
34303SOL    HW151748   0.754   2.970   0.360
34303SOL    HW251749   0.883   2.994   0.263
34304SOL     OW51750   7.266  15.331   0.220
34304SOL    HW151751   7.288  15.256   0.158
34304SOL    HW251752   7.197  15.389   0.178
34305SOL     OW51753  14.696   6.294   6.562
34305SOL    HW151754  14.720   6.229   6.634
34305SOL    HW251755  14.670   6.382   6.603
34306SOL     OW51756   6.737  15.447   7.476
34306SOL    HW151757   6.652  15.499   7.482
34306SOL    HW251758   6.789  15.478   7.396
34307SOL     OW51759  12.228  15.702   7.738
34307SOL    HW151760  12.231  15.802   7.733
34307SOL    HW251761  12.150  15.674   7.794
34308SOL     OW51762   1.018  16.239   8.157
34308SOL    HW151763   0.995  16.253   8.061
34308SOL    HW251764   0.935  16.216   8.209
34309SOL     OW51765   2.358   3.330   8.440
34309SOL    HW151766   2.456   3.313   8.431
34309SOL    HW251767   2.343   3.424   0.018
34310SOL     OW51768   4.791  15.034   8.063
34310SOL    HW151769   4.713  15.087   8.033
34310SOL    HW251770   4.874  15.090   8.060
34311SOL     OW51771   1.620   4.654   7.506
34311SOL    HW151772   1.670   4.687   7.427
34311SOL    HW251773   1.540   4.603   7.477
34312SOL     OW51774  12.579   0.457   6.931
34312SOL    HW151775  12.633   0.533   6.966
34312SOL    HW251776  12.522   0.489   6.856
34313SOL     OW51777   7.419   1.348   0.695
34313SOL    HW151778   7.399   1.384   0.786
34313SOL    HW251779   7.463   1.420   0.640
34314SOL     OW51780   4.874  15.666   1.829
34314SOL    HW151781   4.779  15.675   1.859
34314SOL    HW251782   4.911  15.756   1.806
34315SOL     OW51783   5.951  10.893   1.207
34315SOL    HW151784   6.041  10.937   1.218
34315SOL    HW251785   5.888  10.929   1.275
34316SOL     OW51786  11.439   2.425   1.377
34316SOL    HW151787  11.434   2.377   1.464
34316SOL    HW251788  11.401   2.368   1.305
34317SOL     OW51789  13.167   2.348   6.503
34317SOL    HW151790  13.085   2.319   6.453
34317SOL    HW251791  13.140   2.401   6.583
34318SOL     OW51792   3.202  11.240   0.779
34318SOL    HW151793   3.124  11.229   0.718
34318SOL    HW251794   3.243  11.151   0.797
34319SOL     OW51795  15.355   5.775   6.721
34319SOL    HW151796  15.304   5.712   6.664
34319SOL    HW251797  15.401   5.843   6.664
34320SOL     OW51798   2.553  14.891   1.175
34320SOL    HW151799   2.583  14.961   1.240
34320SOL    HW251800   2.490  14.933   1.109
34321SOL     OW51801  13.065   8.058   7.353
34321SOL    HW151802  13.109   7.969   7.359
34321SOL    HW251803  13.133   8.130   7.363
34322SOL     OW51804  14.938  15.152   7.430
34322SOL    HW151805  15.016  15.092   7.449
34322SOL    HW251806  14.942  15.183   7.335
34323SOL     OW51807   4.264   8.882   1.804
34323SOL    HW151808   4.218   8.814   1.860
34323SOL    HW251809   4.263   8.853   1.708
34324SOL     OW51810   5.223   0.144   1.924
34324SOL    HW151811   5.307   0.169   1.875
34324SOL    HW251812   5.238   0.058   1.973
34325SOL     OW51813   8.948  12.734   0.359
34325SOL    HW151814   9.009  12.725   0.438
34325SOL    HW251815   8.971  12.817   0.308
34326SOL     OW51816  13.975   9.594   0.206
34326SOL    HW151817  13.962   9.598   0.305
34326SOL    HW251818  13.976   9.687   0.169
34327SOL     OW51819  10.585   6.437   8.163
34327SOL    HW151820  10.668   6.430   8.219
34327SOL    HW251821  10.592   6.514   8.101
34328SOL     OW51822  11.270   8.698   2.219
34328SOL    HW151823  11.338   8.630   2.247
34328SOL    HW251824  11.217   8.727   2.298
34329SOL     OW51825   3.367  11.046   2.140
34329SOL    HW151826   3.310  10.989   2.082
34329SOL    HW251827   3.311  11.118   2.182
34330SOL     OW51828   6.983  15.472   8.331
34330SOL    HW151829   7.065  15.516   8.295
34330SOL    HW251830   6.909  15.482   8.264
34331SOL     OW51831   0.447  10.010   1.573
34331SOL    HW151832   0.348  10.016   1.557
34331SOL    HW251833   0.468  10.038   1.666
34332SOL     OW51834   7.926   5.224   7.286
34332SOL    HW151835   7.931   5.128   7.259
34332SOL    HW251836   7.940   5.231   7.385
34333SOL     OW51837   3.198  13.689   7.342
34333SOL    HW151838   3.271  13.632   7.378
34333SOL    HW251839   3.156  13.644   7.263
34334SOL     OW51840  15.410  15.655   7.313
34334SOL    HW151841  15.382  15.559   7.302
34334SOL    HW251842  15.406  15.679   7.410
34335SOL     OW51843   1.700   3.152   7.724
34335SOL    HW151844   1.691   3.230   7.786
34335SOL    HW251845   1.717   3.069   7.777
34336SOL     OW51846  15.453   8.449   6.207
34336SOL    HW151847  15.480   8.354   6.194
34336SOL    HW251848  15.362   8.464   6.168
34337SOL     OW51849   4.833  12.344   0.248
34337SOL    HW151850   4.762  12.374   0.183
34337SOL    HW251851   4.838  12.244   0.249
34338SOL     OW51852   5.155  10.405   1.546
34338SOL    HW151853   5.158  10.305   1.538
34338SOL    HW251854   5.163  10.431   1.642
34339SOL     OW51855  13.555  14.071   0.925
34339SOL    HW151856  13.489  13.998   0.908
34339SOL    HW251857  13.509  14.149   0.967
34340SOL     OW51858  12.594  15.436   8.219
34340SOL    HW151859  12.654  15.498   8.169
34340SOL    HW251860  12.499  15.468   8.210
34341SOL     OW51861  14.781   5.922   0.826
34341SOL    HW151862  14.844   5.963   0.892
34341SOL    HW251863  14.826   5.846   0.779
34342SOL     OW51864  10.849   4.519   6.630
34342SOL    HW151865  10.887   4.533   6.538
34342SOL    HW251866  10.861   4.602   6.684
34343SOL     OW51867   0.508  10.084   1.022
34343SOL    HW151868   0.464  10.162   1.066
34343SOL    HW251869   0.518  10.010   1.088
34344SOL     OW51870   0.120   1.499   0.878
34344SOL    HW151871   0.129   1.433   0.804
34344SOL    HW251872   0.049   1.566   0.856
34345SOL     OW51873  15.287   3.587   7.283
34345SOL    HW151874  15.356   3.653   7.252
34345SOL    HW251875  15.292   3.505   7.227
34346SOL     OW51876   5.332   3.016   7.806
34346SOL    HW151877   5.348   3.107   7.767
34346SOL    HW251878   5.247   2.979   7.768
34347SOL     OW51879  10.906  15.048   7.032
34347SOL    HW151880  10.821  15.101   7.033
34347SOL    HW251881  10.913  14.997   6.946
34348SOL     OW51882   8.886  13.879   0.308
34348SOL    HW151883   8.790  13.852   0.323
34348SOL    HW251884   8.907  13.958   0.364
34349SOL     OW51885   5.638   8.723   7.301
34349SOL    HW151886   5.542   8.698   7.299
34349SOL    HW251887   5.689   8.658   7.358
34350SOL     OW51888   4.506   0.352   2.316
34350SOL    HW151889   4.535   0.438   2.359
34350SOL    HW251890   4.406   0.345   2.321
34351SOL     OW51891   6.974   9.329   7.518
34351SOL    HW151892   6.912   9.323   7.441
34351SOL    HW251893   6.985   9.239   7.560
34352SOL     OW51894  12.383   5.442   8.426
34352SOL    HW151895  12.350   5.490   8.345
34352SOL    HW251896  12.307   5.427   0.035
34353SOL     OW51897  10.861   5.877   7.139
34353SOL    HW151898  10.836   5.793   7.188
34353SOL    HW251899  10.902   5.942   7.203
34354SOL     OW51900   1.630   6.404   7.590
34354SOL    HW151901   1.610   6.315   7.550
34354SOL    HW251902   1.626   6.475   7.520
34355SOL     OW51903  15.161   2.396   7.406
34355SOL    HW151904  15.166   2.485   7.452
34355SOL    HW251905  15.242   2.343   7.427
34356SOL     OW51906   6.787  16.282   1.202
34356SOL    HW151907   6.728  16.212   1.242
34356SOL    HW251908   6.866  16.238   1.159
34357SOL     OW51909   9.881   5.280   7.602
34357SOL    HW151910   9.924   5.365   7.633
34357SOL    HW251911   9.782   5.285   7.618
34358SOL     OW51912   9.829  12.191   0.812
34358SOL    HW151913   9.744  12.142   0.796
34358SOL    HW251914   9.853  12.243   0.730
34359SOL     OW51915  11.667   7.588   7.023
34359SOL    HW151916  11.694   7.496   6.995
34359SOL    HW251917  11.736   7.626   7.086
34360SOL     OW51918   2.094  15.629   1.400
34360SOL    HW151919   2.085  15.530   1.403
34360SOL    HW251920   2.083  15.661   1.305
34361SOL     OW51921  10.983  16.414   1.407
34361SOL    HW151922  10.989  16.448   1.500
34361SOL    HW251923  11.073  16.383   1.376
34362SOL     OW51924   3.485   9.271   8.376
34362SOL    HW151925   3.513   9.180   8.406
34362SOL    HW251926   3.537   9.297   8.295
34363SOL     OW51927   5.189  10.739   7.362
34363SOL    HW151928   5.243  10.765   7.442
34363SOL    HW251929   5.171  10.819   7.306
34364SOL     OW51930  10.559   3.880   5.296
34364SOL    HW151931  10.636   3.863   5.357
34364SOL    HW251932  10.581   3.846   5.205
34365SOL     OW51933   4.084  12.809   7.491
34365SOL    HW151934   4.154  12.879   7.502
34365SOL    HW251935   4.078  12.754   7.575
34366SOL     OW51936   3.271  11.611   1.253
34366SOL    HW151937   3.191  11.664   1.282
34366SOL    HW251938   3.345  11.623   1.319
34367SOL     OW51939   8.475   8.091   8.149
34367SOL    HW151940   8.570   8.074   8.176
34367SOL    HW251941   8.414   8.030   8.200
34368SOL     OW51942  14.159  10.948   6.455
34368SOL    HW151943  14.240  10.903   6.419
34368SOL    HW251944  14.085  10.943   6.388
34369SOL     OW51945  12.900   1.696   6.798
34369SOL    HW151946  12.862   1.770   6.854
34369SOL    HW251947  12.826   1.636   6.766
34370SOL     OW51948   9.650  13.622   0.817
34370SOL    HW151949   9.667  13.634   0.915
34370SOL    HW251950   9.554  13.643   0.798
34371SOL     OW51951  12.727   1.512   6.688
34371SOL    HW151952  12.672   1.537   6.608
34371SOL    HW251953  12.787   1.436   6.664
34372SOL     OW51954  13.340  12.644   1.064
34372SOL    HW151955  13.241  12.635   1.059
34372SOL    HW251956  13.373  12.685   0.978
34373SOL     OW51957   0.517   0.181   7.475
34373SOL    HW151958   0.431   0.134   7.455
34373SOL    HW251959   0.541   0.241   7.399
34374SOL     OW51960   5.937  12.805   6.750
34374SOL    HW151961   5.906  12.711   6.742
34374SOL    HW251962   5.992  12.816   6.833
34375SOL     OW51963   5.901  13.744   1.286
34375SOL    HW151964   5.975  13.680   1.266
34375SOL    HW251965   5.813  13.698   1.272
34376SOL     OW51966  10.457   6.148   0.872
34376SOL    HW151967  10.374   6.186   0.833
34376SOL    HW251968  10.532   6.214   0.863
34377SOL     OW51969   3.520   3.224   2.277
34377SOL    HW151970   3.428   3.183   2.273
34377SOL    HW251971   3.552   3.223   2.372
34378SOL     OW51972   9.682  16.712   0.935
34378SOL    HW151973   9.617  16.692   0.861
34378SOL    HW251974   9.737  16.631   0.954
34379SOL     OW51975  13.986   9.479   8.034
34379SOL    HW151976  14.078   9.508   8.060
34379SOL    HW251977  13.983   9.379   8.031
34380SOL     OW51978   5.547  15.496   7.876
34380SOL    HW151979   5.596  15.487   7.962
34380SOL    HW251980   5.554  15.590   7.842
34381SOL     OW51981  13.199   4.766   0.974
34381SOL    HW151982  13.190   4.669   0.996
34381SOL    HW251983  13.295   4.791   0.973
34382SOL     OW51984   6.950   8.805   0.292
34382SOL    HW151985   7.043   8.825   0.259
34382SOL    HW251986   6.936   8.707   0.294
34383SOL     OW51987   8.670   9.303   7.461
34383SOL    HW151988   8.578   9.266   7.456
34383SOL    HW251989   8.734   9.242   7.414
34384SOL     OW51990   7.020   0.416   0.407
34384SOL    HW151991   6.964   0.478   0.462
34384SOL    HW251992   6.980   0.407   0.316
34385SOL     OW51993  13.926  14.507   0.472
34385SOL    HW151994  13.930  14.596   0.518
34385SOL    HW251995  13.839  14.463   0.493
34386SOL     OW51996  14.772   0.245   8.013
34386SOL    HW151997  14.683   0.200   8.024
34386SOL    HW251998  14.843   0.177   7.996
34387SOL     OW51999   4.559  12.368   8.089
34387SOL    HW152000   4.489  12.393   8.022
34387SOL    HW252001   4.516  12.345   8.176
34388SOL     OW52002   0.608  11.126   1.502
34388SOL    HW152003   0.708  11.132   1.509
34388SOL    HW252004   0.567  11.190   1.566
34389SOL     OW52005  13.084   9.205   1.646
34389SOL    HW152006  13.037   9.205   1.557
34389SOL    HW252007  13.028   9.256   1.712
34390SOL     OW52008  13.401  11.172   2.160
34390SOL    HW152009  13.363  11.252   2.114
34390SOL    HW252010  13.439  11.110   2.091
34391SOL     OW52011  10.698  16.846   7.750
34391SOL    HW152012  10.688  16.776   7.679
34391SOL    HW252013  10.795  16.858   7.772
34392SOL     OW52014  10.613   9.899   0.084
34392SOL    HW152015  10.690   9.945   0.128
34392SOL    HW252016  10.532   9.958   0.088
34393SOL     OW52017   4.563  14.316   0.412
34393SOL    HW152018   4.474  14.358   0.394
34393SOL    HW252019   4.612  14.370   0.480
34394SOL     OW52020  16.743   4.448   6.357
34394SOL    HW152021  16.659   4.500   6.372
34394SOL    HW252022  16.776   4.465   6.265
34395SOL     OW52023   8.543   6.943   8.019
34395SOL    HW152024   8.512   6.880   7.949
34395SOL    HW252025   8.466   6.973   8.074
34396SOL     OW52026   8.581  12.144   6.753
34396SOL    HW152027   8.577  12.207   6.830
34396SOL    HW252028   8.602  12.194   6.669
34397SOL     OW52029   9.135   8.135   0.433
34397SOL    HW152030   9.107   8.060   0.493
34397SOL    HW252031   9.094   8.220   0.464
34398SOL     OW52032   0.218  13.192   2.674
34398SOL    HW152033   0.156  13.160   2.745
34398SOL    HW252034   0.189  13.282   2.642
34399SOL     OW52035   7.160   1.654   6.609
34399SOL    HW152036   7.204   1.618   6.527
34399SOL    HW252037   7.215   1.727   6.647
34400SOL     OW52038   2.058   5.039   6.458
34400SOL    HW152039   2.115   5.066   6.381
34400SOL    HW252040   1.992   4.970   6.428
34401SOL     OW52041   1.352   5.425   1.149
34401SOL    HW152042   1.314   5.497   1.206
34401SOL    HW252043   1.380   5.463   1.061
34402SOL     OW52044  10.583  12.938   0.873
34402SOL    HW152045  10.657  12.999   0.843
34402SOL    HW252046  10.621  12.847   0.892
34403SOL     OW52047   5.468  16.324   6.623
34403SOL    HW152048   5.445  16.276   6.539
34403SOL    HW252049   5.564  16.350   6.622
34404SOL     OW52050  15.310  15.747   8.350
34404SOL    HW152051  15.335  15.671   8.290
34404SOL    HW252052  15.335  15.724   8.444
34405SOL     OW52053  16.326   7.480   0.277
34405SOL    HW152054  16.287   7.546   0.341
34405SOL    HW252055  16.346   7.525   0.190
34406SOL     OW52056   5.341   6.707   8.343
34406SOL    HW152057   5.409   6.634   8.333
34406SOL    HW252058   5.322   6.720   8.441
34407SOL     OW52059   2.457  12.133   8.300
34407SOL    HW152060   2.479  12.186   8.217
34407SOL    HW252061   2.392  12.061   8.276
34408SOL     OW52062   2.764   6.232   0.763
34408SOL    HW152063   2.803   6.143   0.783
34408SOL    HW252064   2.797   6.299   0.830
34409SOL     OW52065   0.539   3.176   6.309
34409SOL    HW152066   0.621   3.121   6.327
34409SOL    HW252067   0.546   3.263   6.359
34410SOL     OW52068   9.541   9.353   1.397
34410SOL    HW152069   9.444   9.331   1.396
34410SOL    HW252070   9.585   9.310   1.476
34411SOL     OW52071   7.154   3.585   6.775
34411SOL    HW152072   7.181   3.495   6.743
34411SOL    HW252073   7.157   3.650   6.699
34412SOL     OW52074   2.002  14.592   7.728
34412SOL    HW152075   2.061  14.571   7.650
34412SOL    HW252076   1.916  14.542   7.719
34413SOL     OW52077   9.280  10.412   0.497
34413SOL    HW152078   9.355  10.464   0.454
34413SOL    HW252079   9.254  10.456   0.583
34414SOL     OW52080  11.392   0.795   7.094
34414SOL    HW152081  11.351   0.886   7.104
34414SOL    HW252082  11.454   0.777   7.170
34415SOL     OW52083   1.969  15.912   0.322
34415SOL    HW152084   1.984  15.844   0.251
34415SOL    HW252085   1.886  15.888   0.374
34416SOL     OW52086   5.921  10.340   0.425
34416SOL    HW152087   6.001  10.399   0.434
34416SOL    HW252088   5.897  10.331   0.328
34417SOL     OW52089   3.649  15.398   7.082
34417SOL    HW152090   3.668  15.469   7.150
34417SOL    HW252091   3.701  15.416   6.999
34418SOL     OW52092   0.091   5.211   0.556
34418SOL    HW152093   0.179   5.172   0.580
34418SOL    HW252094   0.079   5.209   0.456
34419SOL     OW52095  16.377   7.273   6.933
34419SOL    HW152096  16.405   7.345   6.997
34419SOL    HW252097  16.453   7.251   6.872
34420SOL     OW52098  13.944  12.830   7.188
34420SOL    HW152099  13.869  12.848   7.124
34420SOL    HW252100  14.010  12.905   7.183
34421SOL     OW52101  16.229  14.308   8.133
34421SOL    HW152102  16.297  14.369   8.175
34421SOL    HW252103  16.157  14.362   8.091
34422SOL     OW52104  16.750  13.927   8.369
34422SOL    HW152105  16.831  13.985   8.362
34422SOL    HW252106  16.713  13.933   0.008
34423SOL     OW52107   3.709  12.251   6.998
34423SOL    HW152108   3.762  12.168   7.013
34423SOL    HW252109   3.770  12.324   6.965
34424SOL     OW52110   0.285  14.492   1.540
34424SOL    HW152111   0.329  14.522   1.626
34424SOL    HW252112   0.303  14.560   1.469
34425SOL     OW52113   4.151   0.065   0.658
34425SOL    HW152114   4.160   0.109   0.569
34425SOL    HW252115   4.206   0.115   0.725
34426SOL     OW52116  14.031   4.023   5.963
34426SOL    HW152117  13.963   3.992   6.029
34426SOL    HW252118  13.987   4.044   5.876
34427SOL     OW52119   5.321   5.989   1.483
34427SOL    HW152120   5.244   6.019   1.427
34427SOL    HW252121   5.287   5.956   1.571
34428SOL     OW52122  12.647   1.006   0.253
34428SOL    HW152123  12.738   0.982   0.287
34428SOL    HW252124  12.654   1.039   0.159
34429SOL     OW52125   6.050   8.137   7.806
34429SOL    HW152126   5.992   8.057   7.817
34429SOL    HW252127   6.094   8.159   7.893
34430SOL     OW52128   7.457  13.909   8.385
34430SOL    HW152129   7.473  13.999   8.427
34430SOL    HW252130   7.364  13.906   8.349
34431SOL     OW52131  13.981   8.953   2.077
34431SOL    HW152132  14.056   8.942   2.142
34431SOL    HW252133  13.945   9.047   2.082
34432SOL     OW52134   0.398   8.381   0.909
34432SOL    HW152135   0.444   8.364   0.822
34432SOL    HW252136   0.309   8.424   0.892
34433SOL     OW52137   5.182   7.784   7.523
34433SOL    HW152138   5.163   7.820   7.432
34433SOL    HW252139   5.101   7.795   7.581
34434SOL     OW52140  11.381   3.485   6.052
34434SOL    HW152141  11.347   3.429   5.977
34434SOL    HW252142  11.325   3.469   6.134
34435SOL     OW52143  13.108   0.622   1.387
34435SOL    HW152144  13.187   0.561   1.380
34435SOL    HW252145  13.091   0.644   1.483
34436SOL     OW52146  13.128   8.058   0.966
34436SOL    HW152147  13.159   8.124   0.897
34436SOL    HW252148  13.071   8.105   1.034
34437SOL     OW52149   9.484  12.607   6.648
34437SOL    HW152150   9.583  12.594   6.636
34437SOL    HW252151   9.435  12.528   6.612
34438SOL     OW52152  15.756   5.557   7.348
34438SOL    HW152153  15.676   5.497   7.351
34438SOL    HW252154  15.833   5.508   7.307
34439SOL     OW52155  16.920   1.687   0.819
34439SOL    HW152156  16.973   1.716   0.739
34439SOL    HW252157  16.822   1.692   0.797
34440SOL     OW52158   8.751   8.080   0.999
34440SOL    HW152159   8.687   8.005   1.014
34440SOL    HW252160   8.820   8.079   1.072
34441SOL     OW52161   9.561   9.396   6.801
34441SOL    HW152162   9.615   9.348   6.732
34441SOL    HW252163   9.615   9.405   6.885
34442SOL     OW52164   7.798   3.956   0.684
34442SOL    HW152165   7.862   3.880   0.691
34442SOL    HW252166   7.706   3.924   0.706
34443SOL     OW52167  16.465   3.766   7.731
34443SOL    HW152168  16.488   3.681   7.778
34443SOL    HW252169  16.509   3.843   7.776
34444SOL     OW52170  15.054  14.935   8.034
34444SOL    HW152171  15.010  14.869   8.094
34444SOL    HW252172  15.139  14.967   8.075
34445SOL     OW52173   1.074   4.866   0.931
34445SOL    HW152174   1.167   4.830   0.942
34445SOL    HW252175   1.044   4.854   0.836
34446SOL     OW52176   3.375   4.388   7.703
34446SOL    HW152177   3.372   4.305   7.647
34446SOL    HW252178   3.446   4.450   7.668
34447SOL     OW52179   1.379   4.350   7.062
34447SOL    HW152180   1.346   4.417   7.128
34447SOL    HW252181   1.303   4.294   7.031
34448SOL     OW52182   3.623  12.458   1.076
34448SOL    HW152183   3.616  12.542   1.129
34448SOL    HW252184   3.536  12.409   1.078
34449SOL     OW52185   1.005  13.271   2.282
34449SOL    HW152186   1.052  13.355   2.311
34449SOL    HW252187   1.056  13.191   2.313
34450SOL     OW52188  13.040   2.797   6.703
34450SOL    HW152189  13.045   2.859   6.625
34450SOL    HW252190  12.945   2.793   6.736
34451SOL     OW52191  14.067   3.554   0.455
34451SOL    HW152192  14.131   3.560   0.378
34451SOL    HW252193  14.114   3.512   0.533
34452SOL     OW52194   4.395   7.575   7.323
34452SOL    HW152195   4.416   7.636   7.246
34452SOL    HW252196   4.459   7.498   7.323
34453SOL     OW52197   1.915   4.769   7.759
34453SOL    HW152198   1.914   4.784   7.660
34453SOL    HW252199   1.849   4.830   7.803
34454SOL     OW52200   1.773  12.360   7.173
34454SOL    HW152201   1.813  12.364   7.082
34454SOL    HW252202   1.787  12.269   7.212
34455SOL     OW52203  14.517   6.330   0.196
34455SOL    HW152204  14.557   6.329   0.104
34455SOL    HW252205  14.564   6.398   0.252
34456SOL     OW52206   4.117  10.823   8.347
34456SOL    HW152207   4.070  10.737   8.329
34456SOL    HW252208   4.202  10.805   8.396
34457SOL     OW52209  11.665   1.880   5.924
34457SOL    HW152210  11.743   1.871   5.861
34457SOL    HW252211  11.630   1.974   5.920
34458SOL     OW52212  11.965   7.492   7.035
34458SOL    HW152213  11.946   7.571   7.094
34458SOL    HW252214  12.035   7.516   6.968
34459SOL     OW52215   1.012  10.731   2.392
34459SOL    HW152216   1.019  10.750   2.489
34459SOL    HW252217   0.953  10.800   2.348
34460SOL     OW52218  15.362  14.785   1.234
34460SOL    HW152219  15.325  14.876   1.212
34460SOL    HW252220  15.449  14.795   1.282
34461SOL     OW52221   0.817  10.661   1.591
34461SOL    HW152222   0.865  10.668   1.504
34461SOL    HW252223   0.881  10.636   1.663
34462SOL     OW52224   5.822  14.536   0.699
34462SOL    HW152225   5.767  14.547   0.616
34462SOL    HW252226   5.904  14.593   0.693
34463SOL     OW52227   0.204   8.173   1.200
34463SOL    HW152228   0.282   8.151   1.141
34463SOL    HW252229   0.237   8.216   1.284
34464SOL     OW52230   5.276   7.562   7.814
34464SOL    HW152231   5.177   7.566   7.797
34464SOL    HW252232   5.298   7.611   7.898
34465SOL     OW52233  10.690   4.190   7.106
34465SOL    HW152234  10.682   4.264   7.173
34465SOL    HW252235  10.786   4.163   7.098
34466SOL     OW52236   9.824   5.722   1.230
34466SOL    HW152237   9.879   5.671   1.297
34466SOL    HW252238   9.878   5.798   1.193
34467SOL     OW52239   4.070  15.467   7.805
34467SOL    HW152240   4.041  15.438   7.715
34467SOL    HW252241   3.990  15.497   7.858
34468SOL     OW52242   3.291   6.481   6.538
34468SOL    HW152243   3.378   6.449   6.500
34468SOL    HW252244   3.233   6.516   6.465
34469SOL     OW52245  14.894   6.405   7.578
34469SOL    HW152246  14.922   6.318   7.538
34469SOL    HW252247  14.958   6.477   7.550
34470SOL     OW52248   4.819  15.855   1.320
34470SOL    HW152249   4.734  15.899   1.352
34470SOL    HW252250   4.841  15.779   1.380
34471SOL     OW52251   1.504   4.306   1.281
34471SOL    HW152252   1.574   4.318   1.351
34471SOL    HW252253   1.427   4.368   1.299
34472SOL     OW52254  13.287  13.095   7.597
34472SOL    HW152255  13.375  13.139   7.582
34472SOL    HW252256  13.214  13.152   7.559
34473SOL     OW52257   0.422  11.510   1.579
34473SOL    HW152258   0.436  11.414   1.603
34473SOL    HW252259   0.468  11.568   1.646
34474SOL     OW52260  15.138   0.273   1.815
34474SOL    HW152261  15.087   0.228   1.888
34474SOL    HW252262  15.236   0.253   1.827
34475SOL     OW52263  13.176  14.938   6.846
34475SOL    HW152264  13.133  14.967   6.931
34475SOL    HW252265  13.250  15.001   6.822
34476SOL     OW52266  12.007  16.072   0.012
34476SOL    HW152267  12.067  16.053   8.388
34476SOL    HW252268  11.914  16.089   8.432
34477SOL     OW52269   6.915   0.068   1.036
34477SOL    HW152270   6.943   0.140   1.101
34477SOL    HW252271   6.994   0.012   1.012
34478SOL     OW52272  16.035   7.521   0.571
34478SOL    HW152273  15.985   7.498   0.487
34478SOL    HW252274  15.992   7.598   0.616
34479SOL     OW52275  14.084  10.293   1.353
34479SOL    HW152276  14.004  10.346   1.325
34479SOL    HW252277  14.098  10.303   1.452
34480SOL     OW52278   6.699   6.356   7.263
34480SOL    HW152279   6.793   6.367   7.230
34480SOL    HW252280   6.664   6.444   7.293
34481SOL     OW52281  14.881  14.608   1.526
34481SOL    HW152282  14.871  14.679   1.595
34481SOL    HW252283  14.810  14.539   1.538
34482SOL     OW52284   7.560   1.535   0.550
34482SOL    HW152285   7.623   1.570   0.619
34482SOL    HW252286   7.526   1.611   0.495
34483SOL     OW52287  11.278   9.936   0.973
34483SOL    HW152288  11.334   9.902   0.897
34483SOL    HW252289  11.312  10.025   1.002
34484SOL     OW52290  16.135  11.836   1.746
34484SOL    HW152291  16.087  11.905   1.801
34484SOL    HW252292  16.087  11.748   1.754
34485SOL     OW52293   3.498   6.067   0.510
34485SOL    HW152294   3.415   6.012   0.520
34485SOL    HW252295   3.499   6.109   0.420
34486SOL     OW52296  12.356   0.461   2.174
34486SOL    HW152297  12.346   0.391   2.245
34486SOL    HW252298  12.451   0.460   2.140
34487SOL     OW52299  16.145   3.236   1.031
34487SOL    HW152300  16.174   3.247   0.936
34487SOL    HW252301  16.114   3.142   1.045
34488SOL     OW52302   1.445  11.802   0.118
34488SOL    HW152303   1.392  11.885   0.135
34488SOL    HW252304   1.399  11.724   0.161
34489SOL     OW52305   2.519  10.767   7.570
34489SOL    HW152306   2.551  10.755   7.664
34489SOL    HW252307   2.551  10.854   7.534
34490SOL     OW52308  13.521   6.530   8.434
34490SOL    HW152309  13.587   6.544   8.360
34490SOL    HW252310  13.429   6.544   8.399
34491SOL     OW52311  10.049  15.475   6.391
34491SOL    HW152312  10.030  15.564   6.351
34491SOL    HW252313  10.142  15.474   6.427
34492SOL     OW52314   3.815   4.614   7.724
34492SOL    HW152315   3.837   4.709   7.746
34492SOL    HW252316   3.889   4.554   7.757
34493SOL     OW52317   9.110  11.190   7.173
34493SOL    HW152318   9.126  11.091   7.167
34493SOL    HW252319   9.188  11.233   7.219
34494SOL     OW52320   7.755   1.130   0.253
34494SOL    HW152321   7.656   1.139   0.247
34494SOL    HW252322   7.780   1.088   0.340
34495SOL     OW52323   4.503  11.854   1.891
34495SOL    HW152324   4.508  11.888   1.985
34495SOL    HW252325   4.508  11.754   1.892
34496SOL     OW52326  11.322  16.320   7.839
34496SOL    HW152327  11.342  16.294   7.744
34496SOL    HW252328  11.351  16.247   7.901
34497SOL     OW52329   3.241  10.959   1.058
34497SOL    HW152330   3.260  10.964   0.960
34497SOL    HW252331   3.273  10.871   1.094
34498SOL     OW52332   8.953  10.748   0.858
34498SOL    HW152333   8.879  10.814   0.865
34498SOL    HW252334   8.954  10.709   0.766
34499SOL     OW52335   1.795   6.891   8.328
34499SOL    HW152336   1.731   6.966   8.342
34499SOL    HW252337   1.763   6.810   8.376
34500SOL     OW52338   9.705   7.735   7.774
34500SOL    HW152339   9.608   7.760   7.776
34500SOL    HW252340   9.722   7.665   7.843
34501SOL     OW52341   5.104   8.766   0.967
34501SOL    HW152342   5.116   8.837   0.898
34501SOL    HW252343   5.033   8.703   0.938
34502SOL     OW52344   2.655   0.054   8.095
34502SOL    HW152345   2.571   0.076   8.144
34502SOL    HW252346   2.695  16.954   8.131
34503SOL     OW52347   8.811   5.246   0.099
34503SOL    HW152348   8.897   5.286   0.132
34503SOL    HW252349   8.829   5.191   0.018
34504SOL     OW52350   1.694  15.989   2.108
34504SOL    HW152351   1.595  16.000   2.111
34504SOL    HW252352   1.732  16.051   2.040
34505SOL     OW52353  11.823   7.736   0.880
34505SOL    HW152354  11.789   7.706   0.791
34505SOL    HW252355  11.776   7.820   0.907
34506SOL     OW52356   0.297  10.830   8.276
34506SOL    HW152357   0.228  10.900   8.259
34506SOL    HW252358   0.277  10.749   8.221
34507SOL     OW52359  12.533  13.955   2.295
34507SOL    HW152360  12.453  13.900   2.273
34507SOL    HW252361  12.581  13.914   2.373
34508SOL     OW52362   6.483  12.398   0.886
34508SOL    HW152363   6.451  12.366   0.975
34508SOL    HW252364   6.568  12.352   0.862
34509SOL     OW52365   8.923   4.410   7.561
34509SOL    HW152366   8.844   4.348   7.556
34509SOL    HW252367   9.000   4.362   7.602
34510SOL     OW52368  11.371   8.875   8.052
34510SOL    HW152369  11.461   8.833   8.037
34510SOL    HW252370  11.309   8.847   7.979
34511SOL     OW52371   9.625  10.468   0.845
34511SOL    HW152372   9.577  10.523   0.913
34511SOL    HW252373   9.600  10.372   0.856
34512SOL     OW52374   5.504   1.374   0.196
34512SOL    HW152375   5.549   1.424   0.270
34512SOL    HW252376   5.418   1.336   0.230
34513SOL     OW52377   4.195   5.893   1.079
34513SOL    HW152378   4.140   5.869   0.998
34513SOL    HW252379   4.139   5.884   1.161
34514SOL     OW52380   2.600   9.767   7.043
34514SOL    HW152381   2.644   9.714   6.970
34514SOL    HW252382   2.508   9.732   7.059
34515SOL     OW52383  10.640   7.972   6.402
34515SOL    HW152384  10.673   7.879   6.418
34515SOL    HW252385  10.660   7.999   6.308
34516SOL     OW52386   7.208   3.644   1.740
34516SOL    HW152387   7.259   3.729   1.735
34516SOL    HW252388   7.111   3.662   1.725
34517SOL     OW52389   1.892   6.389   0.607
34517SOL    HW152390   1.876   6.406   0.704
34517SOL    HW252391   1.989   6.404   0.587
34518SOL     OW52392  16.381  13.145   7.189
34518SOL    HW152393  16.283  13.128   7.200
34518SOL    HW252394  16.411  13.214   7.255
34519SOL     OW52395   3.096   1.391   7.840
34519SOL    HW152396   3.101   1.291   7.833
34519SOL    HW252397   3.067   1.416   7.933
34520SOL     OW52398  14.652  16.353   1.708
34520SOL    HW152399  14.697  16.380   1.793
34520SOL    HW252400  14.685  16.410   1.633
34521SOL     OW52401  12.156   3.304   6.914
34521SOL    HW152402  12.227   3.371   6.932
34521SOL    HW252403  12.126   3.311   6.819
34522SOL     OW52404   6.382   4.081   0.214
34522SOL    HW152405   6.479   4.056   0.219
34522SOL    HW252406   6.374   4.179   0.191
34523SOL     OW52407  16.676  16.794   1.991
34523SOL    HW152408  16.616  16.854   2.044
34523SOL    HW252409  16.717  16.846   1.916
34524SOL     OW52410   6.874   7.827   0.932
34524SOL    HW152411   6.809   7.889   0.976
34524SOL    HW252412   6.956   7.877   0.906
34525SOL     OW52413  16.618   7.905   8.068
34525SOL    HW152414  16.553   7.930   7.996
34525SOL    HW252415  16.585   7.939   8.156
34526SOL     OW52416   4.976  13.351   1.747
34526SOL    HW152417   4.902  13.418   1.739
34526SOL    HW252418   4.948  13.279   1.811
34527SOL     OW52419   8.873   9.551   7.815
34527SOL    HW152420   8.818   9.483   7.863
34527SOL    HW252421   8.930   9.601   7.880
34528SOL     OW52422   0.997  14.949   1.351
34528SOL    HW152423   0.992  14.850   1.341
34528SOL    HW252424   0.906  14.985   1.373
34529SOL     OW52425   8.634  13.653   6.144
34529SOL    HW152426   8.683  13.647   6.057
34529SOL    HW252427   8.589  13.566   6.163
34530SOL     OW52428   1.782   2.150   2.175
34530SOL    HW152429   1.742   2.239   2.152
34530SOL    HW252430   1.864   2.163   2.230
34531SOL     OW52431  15.406   5.659   0.435
34531SOL    HW152432  15.469   5.592   0.395
34531SOL    HW252433  15.356   5.617   0.510
34532SOL     OW52434  14.558  12.585   2.153
34532SOL    HW152435  14.510  12.542   2.076
34532SOL    HW252436  14.579  12.517   2.222
34533SOL     OW52437   4.265  14.439   7.627
34533SOL    HW152438   4.272  14.382   7.709
34533SOL    HW252439   4.344  14.422   7.568
34534SOL     OW52440  14.280   9.768   0.066
34534SOL    HW152441  14.307   9.835   8.452
34534SOL    HW252442  14.245   9.814   0.147
34535SOL     OW52443  13.778   7.094   0.678
34535SOL    HW152444  13.736   7.028   0.740
34535SOL    HW252445  13.877   7.077   0.672
34536SOL     OW52446   2.219   4.841   7.465
34536SOL    HW152447   2.232   4.939   7.452
34536SOL    HW252448   2.235   4.817   7.561
34537SOL     OW52449  16.236   3.062   1.647
34537SOL    HW152450  16.299   3.106   1.711
34537SOL    HW252451  16.142   3.072   1.682
34538SOL     OW52452  14.005   4.828   5.820
34538SOL    HW152453  13.970   4.838   5.727
34538SOL    HW252454  14.105   4.831   5.819
34539SOL     OW52455  15.964  11.383   0.929
34539SOL    HW152456  15.990  11.293   0.965
34539SOL    HW252457  15.999  11.393   0.836
34540SOL     OW52458   6.678   7.982   6.807
34540SOL    HW152459   6.581   7.963   6.792
34540SOL    HW252460   6.687   8.065   6.862
34541SOL     OW52461   4.851   3.190   1.822
34541SOL    HW152462   4.819   3.273   1.866
34541SOL    HW252463   4.784   3.117   1.835
34542SOL     OW52464   5.775  11.180   6.881
34542SOL    HW152465   5.734  11.258   6.929
34542SOL    HW252466   5.703  11.121   6.844
34543SOL     OW52467  16.397  15.381   0.649
34543SOL    HW152468  16.396  15.432   0.735
34543SOL    HW252469  16.419  15.443   0.574
34544SOL     OW52470   0.418   4.194   1.818
34544SOL    HW152471   0.479   4.222   1.893
34544SOL    HW252472   0.433   4.097   1.798
34545SOL     OW52473   7.742  11.983   6.683
34545SOL    HW152474   7.706  12.066   6.639
34545SOL    HW252475   7.801  11.935   6.619
34546SOL     OW52476   8.027  13.538   6.893
34546SOL    HW152477   8.023  13.634   6.865
34546SOL    HW252478   8.116  13.499   6.869
34547SOL     OW52479  12.403   5.500   0.316
34547SOL    HW152480  12.337   5.444   0.266
34547SOL    HW252481  12.477   5.527   0.254
34548SOL     OW52482  16.632  12.700   1.759
34548SOL    HW152483  16.553  12.652   1.721
34548SOL    HW252484  16.619  12.799   1.748
34549SOL     OW52485  13.388   7.793   1.562
34549SOL    HW152486  13.409   7.721   1.629
34549SOL    HW252487  13.396   7.882   1.606
34550SOL     OW52488   6.595  12.142   8.271
34550SOL    HW152489   6.689  12.108   8.271
34550SOL    HW252490   6.536  12.076   8.318
34551SOL     OW52491  15.382   5.134   1.973
34551SOL    HW152492  15.359   5.062   2.038
34551SOL    HW252493  15.446   5.198   2.014
34552SOL     OW52494   7.483   1.728   0.356
34552SOL    HW152495   7.426   1.809   0.373
34552SOL    HW252496   7.492   1.714   0.258
34553SOL     OW52497   8.678   7.585   8.022
34553SOL    HW152498   8.759   7.540   8.059
34553SOL    HW252499   8.625   7.625   8.097
34554SOL     OW52500   1.789   2.394   1.646
34554SOL    HW152501   1.826   2.372   1.736
34554SOL    HW252502   1.694   2.425   1.656
34555SOL     OW52503  15.935   3.205   0.124
34555SOL    HW152504  15.914   3.122   0.175
34555SOL    HW252505  16.032   3.206   0.099
34556SOL     OW52506   1.472   3.371   1.308
34556SOL    HW152507   1.462   3.449   1.370
34556SOL    HW252508   1.418   3.294   1.342
34557SOL     OW52509   9.375   9.124   1.599
34557SOL    HW152510   9.333   9.182   1.529
34557SOL    HW252511   9.473   9.144   1.604
34558SOL     OW52512   3.357   0.674   7.748
34558SOL    HW152513   3.285   0.606   7.763
34558SOL    HW252514   3.423   0.669   7.823
34559SOL     OW52515   0.360  14.029   2.667
34559SOL    HW152516   0.454  14.030   2.702
34559SOL    HW252517   0.334  14.120   2.636
34560SOL     OW52518   3.480  16.303   2.045
34560SOL    HW152519   3.482  16.203   2.047
34560SOL    HW252520   3.408  16.334   1.982
34561SOL     OW52521   4.936  12.676   2.043
34561SOL    HW152522   4.911  12.658   2.138
34561SOL    HW252523   5.035  12.678   2.034
34562SOL     OW52524  10.911  13.769   8.204
34562SOL    HW152525  10.912  13.857   8.159
34562SOL    HW252526  10.925  13.781   8.303
34563SOL     OW52527   2.207   0.016   7.907
34563SOL    HW152528   2.279   0.084   7.920
34563SOL    HW252529   2.249  16.910   7.891
34564SOL     OW52530   7.460   0.306   1.102
34564SOL    HW152531   7.508   0.349   1.025
34564SOL    HW252532   7.386   0.249   1.068
34565SOL     OW52533   5.025   6.967   1.786
34565SOL    HW152534   4.976   6.994   1.869
34565SOL    HW252535   5.118   6.938   1.810
34566SOL     OW52536  10.246   0.268   6.687
34566SOL    HW152537  10.232   0.365   6.668
34566SOL    HW252538  10.304   0.259   6.769
34567SOL     OW52539   0.306  15.565   1.277
34567SOL    HW152540   0.285  15.498   1.205
34567SOL    HW252541   0.221  15.593   1.322
34568SOL     OW52542  11.508   9.130   8.394
34568SOL    HW152543  11.445   9.187   8.447
34568SOL    HW252544  11.474   9.120   8.301
34569SOL     OW52545  13.445   4.058   6.072
34569SOL    HW152546  13.410   4.127   6.135
34569SOL    HW252547  13.500   4.102   6.001
34570SOL     OW52548  14.087  12.413   1.540
34570SOL    HW152549  13.994  12.447   1.558
34570SOL    HW252550  14.081  12.321   1.502
34571SOL     OW52551   1.625   7.222   0.662
34571SOL    HW152552   1.630   7.276   0.578
34571SOL    HW252553   1.611   7.283   0.740
34572SOL     OW52554  15.003   9.615   0.732
34572SOL    HW152555  15.092   9.649   0.764
34572SOL    HW252556  14.965   9.678   0.665
34573SOL     OW52557   6.438  16.875   2.119
34573SOL    HW152558   6.392  16.856   2.206
34573SOL    HW252559   6.515  16.937   2.135
34574SOL     OW52560  12.789  12.836   7.134
34574SOL    HW152561  12.716  12.883   7.184
34574SOL    HW252562  12.748  12.775   7.065
34575SOL     OW52563  15.717   0.273   0.723
34575SOL    HW152564  15.641   0.248   0.663
34575SOL    HW252565  15.683   0.333   0.796
34576SOL     OW52566   1.520   0.018   7.917
34576SOL    HW152567   1.435  16.948   7.922
34576SOL    HW252568   1.540   0.058   8.007
34577SOL     OW52569   3.300  15.450   1.843
34577SOL    HW152570   3.349  15.375   1.798
34577SOL    HW252571   3.365  15.522   1.867
34578SOL     OW52572  10.917   2.279   1.592
34578SOL    HW152573  10.991   2.344   1.575
34578SOL    HW252574  10.869   2.259   1.506
34579SOL     OW52575   5.597   9.347   7.787
34579SOL    HW152576   5.607   9.387   7.696
34579SOL    HW252577   5.625   9.414   7.856
34580SOL     OW52578   5.057   9.597   6.623
34580SOL    HW152579   5.049   9.696   6.633
34580SOL    HW252580   5.013   9.568   6.538
34581SOL     OW52581  16.575   1.564   6.435
34581SOL    HW152582  16.649   1.623   6.405
34581SOL    HW252583  16.607   1.469   6.438
34582SOL     OW52584  16.384  11.100   6.493
34582SOL    HW152585  16.470  11.117   6.445
34582SOL    HW252586  16.314  11.073   6.427
34583SOL     OW52587  16.162   2.688   7.903
34583SOL    HW152588  16.069   2.654   7.915
34583SOL    HW252589  16.165   2.750   7.825
34584SOL     OW52590   3.495  10.270   6.765
34584SOL    HW152591   3.465  10.307   6.677
34584SOL    HW252592   3.588  10.236   6.757
34585SOL     OW52593   0.014   3.797   0.429
34585SOL    HW152594   0.070   3.847   0.364
34585SOL    HW252595   0.068   3.775   0.510
34586SOL     OW52596   8.025   6.548   6.721
34586SOL    HW152597   7.959   6.606   6.769
34586SOL    HW252598   8.115   6.592   6.723
34587SOL     OW52599   1.789  13.064   2.740
34587SOL    HW152600   1.703  13.075   2.690
34587SOL    HW252601   1.826  13.153   2.765
34588SOL     OW52602   9.344   7.055   8.266
34588SOL    HW152603   9.359   7.147   8.228
34588SOL    HW252604   9.320   7.063   8.363
34589SOL     OW52605   7.150  10.952   1.420
34589SOL    HW152606   7.244  10.955   1.455
34589SOL    HW252607   7.086  10.964   1.495
34590SOL     OW52608  12.495   7.314   6.563
34590SOL    HW152609  12.401   7.340   6.545
34590SOL    HW252610  12.546   7.392   6.599
34591SOL     OW52611  12.705   4.783   5.803
34591SOL    HW152612  12.714   4.722   5.724
34591SOL    HW252613  12.754   4.868   5.786
34592SOL     OW52614   4.766   9.876   0.597
34592SOL    HW152615   4.859   9.847   0.576
34592SOL    HW252616   4.738   9.949   0.535
34593SOL     OW52617   9.664  14.668   7.361
34593SOL    HW152618   9.620  14.602   7.300
34593SOL    HW252619   9.596  14.706   7.423
34594SOL     OW52620   8.990  10.721   6.368
34594SOL    HW152621   9.075  10.693   6.323
34594SOL    HW252622   8.922  10.649   6.359
34595SOL     OW52623   5.670  16.627   6.704
34595SOL    HW152624   5.658  16.685   6.624
34595SOL    HW252625   5.690  16.533   6.675
34596SOL     OW52626   1.936   2.083   1.868
34596SOL    HW152627   1.919   2.181   1.876
34596SOL    HW252628   1.849   2.036   1.851
34597SOL     OW52629   5.978  14.577   1.930
34597SOL    HW152630   6.060  14.537   1.971
34597SOL    HW252631   5.940  14.514   1.862
34598SOL     OW52632   2.899   0.932   0.259
34598SOL    HW152633   2.831   1.005   0.254
34598SOL    HW252634   2.935   0.926   0.352
34599SOL     OW52635   6.139  11.895   7.565
34599SOL    HW152636   6.087  11.823   7.610
34599SOL    HW252637   6.091  11.924   7.481
34600SOL     OW52638   3.652   1.306   7.991
34600SOL    HW152639   3.672   1.354   7.905
34600SOL    HW252640   3.580   1.239   7.975
34601SOL     OW52641  14.303   9.808   2.129
34601SOL    HW152642  14.338   9.809   2.223
34601SOL    HW252643  14.322   9.896   2.086
34602SOL     OW52644  16.416  10.686   1.205
34602SOL    HW152645  16.325  10.654   1.230
34602SOL    HW252646  16.409  10.754   1.132
34603SOL     OW52647   4.711   3.664   0.974
34603SOL    HW152648   4.684   3.586   0.918
34603SOL    HW252649   4.811   3.675   0.972
34604SOL     OW52650  10.253   5.108   6.894
34604SOL    HW152651  10.207   5.085   6.809
34604SOL    HW252652  10.193   5.085   6.972
34605SOL     OW52653   4.668  12.679   0.382
34605SOL    HW152654   4.764  12.707   0.385
34605SOL    HW252655   4.650  12.614   0.456
34606SOL     OW52656  11.177   7.359   6.526
34606SOL    HW152657  11.112   7.405   6.466
34606SOL    HW252658  11.269   7.367   6.487
34607SOL     OW52659   0.730  10.048   7.795
34607SOL    HW152660   0.711  10.145   7.812
34607SOL    HW252661   0.644  10.001   7.774
34608SOL     OW52662   5.366  11.785   0.166
34608SOL    HW152663   5.374  11.689   0.194
34608SOL    HW252664   5.444  11.809   0.107
34609SOL     OW52665  15.138  10.277   0.133
34609SOL    HW152666  15.106  10.282   0.227
34609SOL    HW252667  15.213  10.342   0.120
34610SOL     OW52668   9.301   3.907   7.236
34610SOL    HW152669   9.329   3.933   7.328
34610SOL    HW252670   9.381   3.883   7.182
34611SOL     OW52671   9.499  10.251   1.660
34611SOL    HW152672   9.502  10.241   1.561
34611SOL    HW252673   9.589  10.280   1.694
34612SOL     OW52674  10.814   3.820   7.037
34612SOL    HW152675  10.826   3.774   7.125
34612SOL    HW252676  10.860   3.909   7.040
34613SOL     OW52677   7.230  11.649   7.229
34613SOL    HW152678   7.314  11.703   7.229
34613SOL    HW252679   7.204  11.629   7.134
34614SOL     OW52680   6.219   6.112   0.583
34614SOL    HW152681   6.171   6.200   0.580
34614SOL    HW252682   6.273   6.107   0.667
34615SOL     OW52683  16.757   0.904   7.447
34615SOL    HW152684  16.805   0.988   7.471
34615SOL    HW252685  16.659   0.915   7.462
34616SOL     OW52686   1.723   9.606   7.324
34616SOL    HW152687   1.717   9.646   7.415
34616SOL    HW252688   1.739   9.678   7.257
34617SOL     OW52689   6.414   4.693   6.601
34617SOL    HW152690   6.478   4.686   6.524
34617SOL    HW252691   6.376   4.785   6.605
34618SOL     OW52692  11.074  11.153   1.722
34618SOL    HW152693  11.084  11.209   1.804
34618SOL    HW252694  10.978  11.152   1.694
34619SOL     OW52695   4.712  10.439   7.288
34619SOL    HW152696   4.802  10.395   7.292
34619SOL    HW252697   4.705  10.508   7.360
34620SOL     OW52698   4.399  14.673   2.647
34620SOL    HW152699   4.415  14.577   2.671
34620SOL    HW252700   4.467  14.730   2.693
34621SOL     OW52701  13.378   9.413   1.216
34621SOL    HW152702  13.341   9.506   1.221
34621SOL    HW252703  13.303   9.348   1.223
34622SOL     OW52704   3.216   9.810   0.062
34622SOL    HW152705   3.151   9.769   8.453
34622SOL    HW252706   3.268   9.738   0.108
34623SOL     OW52707   9.351   9.937   1.982
34623SOL    HW152708   9.371   9.950   1.884
34623SOL    HW252709   9.428   9.889   2.025
34624SOL     OW52710  12.030   6.291   0.662
34624SOL    HW152711  11.984   6.344   0.734
34624SOL    HW252712  12.063   6.353   0.591
34625SOL     OW52713   7.416   8.886   0.613
34625SOL    HW152714   7.413   8.923   0.520
34625SOL    HW252715   7.384   8.955   0.677
34626SOL     OW52716   1.488   1.772   1.790
34626SOL    HW152717   1.454   1.757   1.883
34626SOL    HW252718   1.424   1.829   1.740
34627SOL     OW52719   4.306   1.020   2.448
34627SOL    HW152720   4.267   1.112   2.451
34627SOL    HW252721   4.322   0.988   2.541
34628SOL     OW52722  10.506   6.938   1.045
34628SOL    HW152723  10.454   6.886   1.113
34628SOL    HW252724  10.603   6.923   1.059
34629SOL     OW52725   1.678   8.210   7.314
34629SOL    HW152726   1.736   8.149   7.368
34629SOL    HW252727   1.671   8.175   7.220
34630SOL     OW52728  13.207   8.555   6.052
34630SOL    HW152729  13.168   8.528   5.964
34630SOL    HW252730  13.149   8.624   6.095
34631SOL     OW52731   1.273  10.507   6.896
34631SOL    HW152732   1.213  10.431   6.871
34631SOL    HW252733   1.327  10.535   6.817
34632SOL     OW52734  16.835  11.077   0.097
34632SOL    HW152735  16.923  11.121   0.076
34632SOL    HW252736  16.817  11.006   0.030
34633SOL     OW52737   6.794   5.027   6.992
34633SOL    HW152738   6.782   5.029   6.892
34633SOL    HW252739   6.802   4.933   7.023
34634SOL     OW52740   8.679  10.565   6.646
34634SOL    HW152741   8.679  10.601   6.552
34634SOL    HW252742   8.586  10.561   6.681
34635SOL     OW52743   7.817  13.182   7.942
34635SOL    HW152744   7.826  13.083   7.938
34635SOL    HW252745   7.907  13.224   7.940
34636SOL     OW52746  10.468   4.555   8.418
34636SOL    HW152747  10.565   4.579   8.415
34636SOL    HW252748  10.415   4.635   8.446
34637SOL     OW52749  15.541  12.731   8.302
34637SOL    HW152750  15.602  12.652   8.307
34637SOL    HW252751  15.565  12.796   8.374
34638SOL     OW52752  10.519  14.088   7.366
34638SOL    HW152753  10.510  14.184   7.392
34638SOL    HW252754  10.572  14.082   7.281
34639SOL     OW52755  13.070   0.654   1.666
34639SOL    HW152756  13.078   0.574   1.725
34639SOL    HW252757  12.982   0.698   1.682
34640SOL     OW52758  14.051   1.073   6.514
34640SOL    HW152759  13.970   1.132   6.517
34640SOL    HW252760  14.124   1.119   6.463
34641SOL     OW52761   2.359   4.238   0.655
34641SOL    HW152762   2.398   4.282   0.574
34641SOL    HW252763   2.392   4.282   0.737
34642SOL     OW52764   6.978   0.967   2.309
34642SOL    HW152765   7.047   1.038   2.324
34642SOL    HW252766   6.907   0.974   2.379
34643SOL     OW52767  14.951   3.904   0.637
34643SOL    HW152768  14.902   3.862   0.713
34643SOL    HW252769  14.989   3.992   0.665
34644SOL     OW52770   9.589   2.404   6.897
34644SOL    HW152771   9.598   2.390   6.798
34644SOL    HW252772   9.549   2.322   6.938
34645SOL     OW52773  15.700   3.558   0.134
34645SOL    HW152774  15.697   3.652   0.101
34645SOL    HW252775  15.638   3.548   0.212
34646SOL     OW52776   6.598  11.297   0.299
34646SOL    HW152777   6.640  11.381   0.332
34646SOL    HW252778   6.501  11.313   0.280
34647SOL     OW52779  14.628   7.834   1.067
34647SOL    HW152780  14.684   7.914   1.089
34647SOL    HW252781  14.552   7.861   1.007
34648SOL     OW52782   9.714   1.658   6.148
34648SOL    HW152783   9.721   1.570   6.102
34648SOL    HW252784   9.618   1.678   6.168
34649SOL     OW52785   4.557   8.585   7.661
34649SOL    HW152786   4.599   8.552   7.746
34649SOL    HW252787   4.620   8.647   7.615
34650SOL     OW52788   6.172  15.911   7.740
34650SOL    HW152789   6.186  15.982   7.809
34650SOL    HW252790   6.177  15.821   7.783
34651SOL     OW52791   6.768  15.373   7.145
34651SOL    HW152792   6.859  15.339   7.120
34651SOL    HW252793   6.764  15.472   7.126
34652SOL     OW52794  13.316   2.765   5.480
34652SOL    HW152795  13.382   2.840   5.470
34652SOL    HW252796  13.300   2.722   5.391
34653SOL     OW52797   0.163  16.400   6.822
34653SOL    HW152798   0.232  16.330   6.807
34653SOL    HW252799   0.075  16.357   6.844
34654SOL     OW52800  13.822   7.074   1.656
34654SOL    HW152801  13.768   7.110   1.732
34654SOL    HW252802  13.843   6.978   1.673
34655SOL     OW52803   8.189  11.983   7.770
34655SOL    HW152804   8.259  11.948   7.832
34655SOL    HW252805   8.209  12.079   7.748
34656SOL     OW52806  13.790  14.888   0.118
34656SOL    HW152807  13.787  14.967   0.179
34656SOL    HW252808  13.826  14.809   0.169
34657SOL     OW52809  13.775   3.421   7.831
34657SOL    HW152810  13.817   3.342   7.876
34657SOL    HW252811  13.845   3.490   7.814
34658SOL     OW52812  14.268  10.965   1.799
34658SOL    HW152813  14.361  10.981   1.830
34658SOL    HW252814  14.213  11.047   1.815
34659SOL     OW52815   5.524  12.546   7.491
34659SOL    HW152816   5.492  12.502   7.408
34659SOL    HW252817   5.501  12.490   7.570
34660SOL     OW52818   1.973  11.704   7.798
34660SOL    HW152819   1.907  11.634   7.772
34660SOL    HW252820   2.046  11.662   7.853
34661SOL     OW52821  15.096   2.764   1.155
34661SOL    HW152822  15.039   2.707   1.097
34661SOL    HW252823  15.066   2.757   1.250
34662SOL     OW52824   6.789  10.264   6.608
34662SOL    HW152825   6.832  10.343   6.651
34662SOL    HW252826   6.705  10.241   6.657
34663SOL     OW52827   7.069  12.596   1.095
34663SOL    HW152828   7.128  12.529   1.140
34663SOL    HW252829   6.993  12.620   1.156
34664SOL     OW52830  14.474  11.238   8.205
34664SOL    HW152831  14.396  11.189   8.244
34664SOL    HW252832  14.452  11.267   8.112
34665SOL     OW52833  14.718  10.863   1.263
34665SOL    HW152834  14.750  10.831   1.174
34665SOL    HW252835  14.791  10.851   1.331
34666SOL     OW52836   8.354  12.439   0.180
34666SOL    HW152837   8.422  12.365   0.178
34666SOL    HW252838   8.288  12.426   0.106
34667SOL     OW52839   0.433   1.048   7.371
34667SOL    HW152840   0.445   0.985   7.294
34667SOL    HW252841   0.337   1.071   7.381
34668SOL     OW52842  11.333   0.768   6.827
34668SOL    HW152843  11.394   0.830   6.779
34668SOL    HW252844  11.354   0.770   6.925
34669SOL     OW52845   9.747   3.323   6.746
34669SOL    HW152846   9.832   3.316   6.694
34669SOL    HW252847   9.760   3.383   6.825
34670SOL     OW52848   6.967   0.131   7.505
34670SOL    HW152849   7.044   0.143   7.443
34670SOL    HW252850   6.882   0.151   7.456
34671SOL     OW52851   1.874   7.917   7.172
34671SOL    HW152852   1.923   7.857   7.109
34671SOL    HW252853   1.844   7.864   7.252
34672SOL     OW52854  13.189   2.634   5.680
34672SOL    HW152855  13.227   2.688   5.605
34672SOL    HW252856  13.208   2.537   5.665
34673SOL     OW52857   0.883  14.728   7.407
34673SOL    HW152858   0.864  14.667   7.484
34673SOL    HW252859   0.798  14.744   7.356
34674SOL     OW52860   4.027  12.929   7.998
34674SOL    HW152861   4.059  13.015   8.038
34674SOL    HW252862   4.105  12.875   7.969
34675SOL     OW52863   3.094  15.481   0.058
34675SOL    HW152864   3.070  15.397   0.009
34675SOL    HW252865   3.050  15.559   0.013
34676SOL     OW52866   7.758  11.417   2.207
34676SOL    HW152867   7.798  11.342   2.154
34676SOL    HW252868   7.760  11.394   2.305
34677SOL     OW52869   8.622  11.486   1.116
34677SOL    HW152870   8.585  11.405   1.162
34677SOL    HW252871   8.554  11.523   1.053
34678SOL     OW52872   6.732   5.676   0.209
34678SOL    HW152873   6.647   5.639   0.173
34678SOL    HW252874   6.798   5.602   0.221
34679SOL     OW52875   3.803   8.993   7.120
34679SOL    HW152876   3.844   8.919   7.068
34679SOL    HW252877   3.832   8.986   7.216
34680SOL     OW52878   0.046  12.268   2.735
34680SOL    HW152879  16.971  12.343   2.764
34680SOL    HW252880   0.102  12.237   2.811
34681SOL     OW52881   3.696  13.790   0.888
34681SOL    HW152882   3.611  13.778   0.837
34681SOL    HW252883   3.773  13.753   0.834
34682SOL     OW52884   4.827  14.201   7.553
34682SOL    HW152885   4.889  14.127   7.526
34682SOL    HW252886   4.745  14.198   7.495
34683SOL     OW52887  12.377  16.229   6.868
34683SOL    HW152888  12.428  16.143   6.863
34683SOL    HW252889  12.394  16.283   6.786
34684SOL     OW52890   7.059   5.210   7.138
34684SOL    HW152891   6.960   5.224   7.140
34684SOL    HW252892   7.095   5.213   7.231
34685SOL     OW52893   7.786   4.468   8.203
34685SOL    HW152894   7.819   4.520   8.125
34685SOL    HW252895   7.831   4.500   8.286
34686SOL     OW52896   1.643  12.424   0.845
34686SOL    HW152897   1.614  12.476   0.925
34686SOL    HW252898   1.727  12.463   0.808
34687SOL     OW52899   8.939  13.053   0.643
34687SOL    HW152900   8.973  13.072   0.735
34687SOL    HW252901   9.012  13.013   0.588
34688SOL     OW52902   8.525  13.692   5.813
34688SOL    HW152903   8.616  13.665   5.843
34688SOL    HW252904   8.476  13.612   5.779
34689SOL     OW52905  16.824  12.211   0.722
34689SOL    HW152906  16.776  12.200   0.635
34689SOL    HW252907  16.810  12.130   0.779
34690SOL     OW52908   9.664  11.953   8.072
34690SOL    HW152909   9.727  11.880   8.048
34690SOL    HW252910   9.588  11.954   8.008
34691SOL     OW52911  14.015   3.319   5.906
34691SOL    HW152912  13.963   3.403   5.892
34691SOL    HW252913  13.966   3.242   5.864
34692SOL     OW52914   3.145   1.002   1.080
34692SOL    HW152915   3.085   0.945   1.025
34692SOL    HW252916   3.126   0.987   1.177
34693SOL     OW52917   9.148   9.957   7.913
34693SOL    HW152918   9.141   9.900   7.831
34693SOL    HW252919   9.195  10.042   7.890
34694SOL     OW52920   0.810   9.842   1.927
34694SOL    HW152921   0.736   9.837   1.859
34694SOL    HW252922   0.774   9.816   2.017
34695SOL     OW52923   1.128   8.951   7.882
34695SOL    HW152924   1.130   8.890   7.961
34695SOL    HW252925   1.035   8.956   7.846
34696SOL     OW52926   2.633  13.999   6.753
34696SOL    HW152927   2.717  14.016   6.703
34696SOL    HW252928   2.580  13.928   6.706
34697SOL     OW52929   2.142  14.925   2.457
34697SOL    HW152930   2.173  14.989   2.386
34697SOL    HW252931   2.214  14.914   2.525
34698SOL     OW52932   3.107  10.781   0.700
34698SOL    HW152933   3.056  10.788   0.786
34698SOL    HW252934   3.122  10.684   0.679
34699SOL     OW52935   2.217   0.269   8.349
34699SOL    HW152936   2.212   0.190   8.410
34699SOL    HW252937   2.209   0.353   8.402
34700SOL     OW52938  10.667   2.151   1.090
34700SOL    HW152939  10.709   2.102   1.013
34700SOL    HW252940  10.648   2.246   1.063
34701SOL     OW52941   7.164  13.212   0.406
34701SOL    HW152942   7.098  13.246   0.340
34701SOL    HW252943   7.223  13.144   0.363
34702SOL     OW52944  13.281   6.070   6.871
34702SOL    HW152945  13.318   6.161   6.887
34702SOL    HW252946  13.333   6.026   6.798
34703SOL     OW52947   1.897   7.517   7.054
34703SOL    HW152948   1.808   7.542   7.092
34703SOL    HW252949   1.951   7.599   7.037
34704SOL     OW52950   3.853   4.261   1.284
34704SOL    HW152951   3.859   4.352   1.324
34704SOL    HW252952   3.756   4.236   1.271
34705SOL     OW52953   4.311   8.101   0.259
34705SOL    HW152954   4.306   8.198   0.284
34705SOL    HW252955   4.388   8.086   0.197
34706SOL     OW52956  14.315  12.582   1.540
34706SOL    HW152957  14.234  12.522   1.541
34706SOL    HW252958  14.289  12.673   1.573
34707SOL     OW52959   9.131  15.648   8.076
34707SOL    HW152960   9.194  15.613   8.145
34707SOL    HW252961   9.062  15.706   8.121
34708SOL     OW52962   0.539  15.798   6.648
34708SOL    HW152963   0.600  15.866   6.608
34708SOL    HW252964   0.448  15.837   6.662
34709SOL     OW52965   8.998   4.407   1.757
34709SOL    HW152966   9.085   4.444   1.788
34709SOL    HW252967   8.930   4.415   1.831
34710SOL     OW52968  14.360   9.921   8.300
34710SOL    HW152969  14.345  10.009   8.345
34710SOL    HW252970  14.355   9.932   8.201
34711SOL     OW52971   9.429   6.941   0.575
34711SOL    HW152972   9.387   6.966   0.662
34711SOL    HW252973   9.357   6.917   0.509
34712SOL     OW52974  11.304  10.987   0.171
34712SOL    HW152975  11.312  11.021   0.264
34712SOL    HW252976  11.395  10.972   0.133
34713SOL     OW52977   6.300  10.981   1.597
34713SOL    HW152978   6.317  10.894   1.552
34713SOL    HW252979   6.203  11.005   1.588
34714SOL     OW52980   6.439   3.137   0.726
34714SOL    HW152981   6.515   3.121   0.663
34714SOL    HW252982   6.353   3.137   0.676
34715SOL     OW52983   0.632  15.067   7.244
34715SOL    HW152984   0.555  15.131   7.252
34715SOL    HW252985   0.635  15.031   7.151
34716SOL     OW52986   5.978   9.330   0.389
34716SOL    HW152987   6.067   9.359   0.354
34716SOL    HW252988   5.951   9.244   0.346
34717SOL     OW52989   9.665  16.332   8.047
34717SOL    HW152990   9.594  16.279   8.093
34717SOL    HW252991   9.674  16.422   8.092
34718SOL     OW52992  12.107   9.680   0.693
34718SOL    HW152993  12.098   9.763   0.639
34718SOL    HW252994  12.188   9.687   0.752
34719SOL     OW52995   3.685  16.617   0.151
34719SOL    HW152996   3.743  16.554   0.203
34719SOL    HW252997   3.704  16.607   0.053
34720SOL     OW52998  11.905   3.011   0.262
34720SOL    HW152999  11.900   2.930   0.320
34720SOL    HW253000  11.887   3.093   0.317
34721SOL     OW53001  16.218   6.915   8.359
34721SOL    HW153002  16.146   6.852   8.387
34721SOL    HW253003  16.178   6.999   8.323
34722SOL     OW53004  10.351  15.350   6.679
34722SOL    HW153005  10.356  15.266   6.626
34722SOL    HW253006  10.342  15.428   6.618
34723SOL     OW53007  15.708   1.519   8.358
34723SOL    HW153008  15.798   1.478   8.376
34723SOL    HW253009  15.720   1.614   8.329
34724SOL     OW53010  10.921   2.610   5.653
34724SOL    HW153011  10.895   2.643   5.743
34724SOL    HW253012  10.927   2.510   5.654
34725SOL     OW53013  12.679   6.765   7.282
34725SOL    HW153014  12.648   6.761   7.377
34725SOL    HW253015  12.713   6.857   7.262
34726SOL     OW53016   9.892   3.195   8.320
34726SOL    HW153017   9.824   3.167   8.253
34726SOL    HW253018   9.892   3.132   8.398
34727SOL     OW53019   2.213   5.403   0.767
34727SOL    HW153020   2.175   5.326   0.714
34727SOL    HW253021   2.243   5.475   0.705
34728SOL     OW53022   1.502   6.510   1.478
34728SOL    HW153023   1.475   6.510   1.574
34728SOL    HW253024   1.558   6.591   1.459
34729SOL     OW53025   4.679   1.830   8.359
34729SOL    HW153026   4.645   1.749   8.312
34729SOL    HW253027   4.758   1.866   8.310
34730SOL     OW53028   5.083  14.149   1.138
34730SOL    HW153029   5.075  14.218   1.210
34730SOL    HW253030   4.993  14.111   1.119
34731SOL     OW53031  11.763  10.635   1.419
34731SOL    HW153032  11.713  10.642   1.333
34731SOL    HW253033  11.754  10.721   1.470
34732SOL     OW53034   1.076   2.517   8.308
34732SOL    HW153035   1.058   2.578   8.231
34732SOL    HW253036   1.085   2.570   8.392
34733SOL     OW53037  13.183   9.886   0.210
34733SOL    HW153038  13.245   9.964   0.205
34733SOL    HW253039  13.190   9.833   0.125
34734SOL     OW53040  12.144   2.907   8.155
34734SOL    HW153041  12.125   2.810   8.141
34734SOL    HW253042  12.083   2.961   8.096
34735SOL     OW53043   0.697   2.009   1.921
34735SOL    HW153044   0.695   1.932   1.985
34735SOL    HW253045   0.610   2.057   1.925
34736SOL     OW53046   0.833   1.047   7.946
34736SOL    HW153047   0.779   0.972   7.906
34736SOL    HW253048   0.831   1.125   7.883
34737SOL     OW53049   5.600   1.661   6.982
34737SOL    HW153050   5.633   1.583   6.929
34737SOL    HW253051   5.534   1.713   6.928
34738SOL     OW53052   4.831   7.600   7.979
34738SOL    HW153053   4.824   7.504   8.004
34738SOL    HW253054   4.900   7.611   7.908
34739SOL     OW53055  12.019   4.877   8.236
34739SOL    HW153056  12.105   4.847   8.195
34739SOL    HW253057  11.976   4.946   8.177
34740SOL     OW53058   6.478   6.952   8.161
34740SOL    HW153059   6.396   6.900   8.137
34740SOL    HW253060   6.554   6.889   8.180
34741SOL     OW53061   2.925   8.433   7.130
34741SOL    HW153062   2.990   8.410   7.203
34741SOL    HW253063   2.941   8.372   7.052
34742SOL     OW53064  10.049   1.468   7.827
34742SOL    HW153065  10.000   1.478   7.913
34742SOL    HW253066   9.984   1.465   7.751
34743SOL     OW53067   2.354   5.473   1.616
34743SOL    HW153068   2.290   5.548   1.597
34743SOL    HW253069   2.392   5.484   1.707
34744SOL     OW53070   4.573   0.877   7.398
34744SOL    HW153071   4.540   0.966   7.429
34744SOL    HW253072   4.499   0.828   7.352
34745SOL     OW53073  11.088   0.945   1.491
34745SOL    HW153074  11.010   0.965   1.431
34745SOL    HW253075  11.112   1.026   1.543
34746SOL     OW53076  16.421   0.998   0.780
34746SOL    HW153077  16.388   1.091   0.800
34746SOL    HW253078  16.398   0.975   0.686
34747SOL     OW53079   5.977   0.612   0.382
34747SOL    HW153080   5.955   0.709   0.384
34747SOL    HW253081   5.978   0.580   0.287
34748SOL     OW53082  16.424   7.088   0.428
34748SOL    HW153083  16.367   7.074   0.509
34748SOL    HW253084  16.371   7.139   0.359
34749SOL     OW53085   4.894   1.928   8.226
34749SOL    HW153086   4.856   1.919   8.134
34749SOL    HW253087   4.986   1.889   8.228
34750SOL     OW53088   0.688  12.109   1.155
34750SOL    HW153089   0.696  12.038   1.085
34750SOL    HW253090   0.744  12.188   1.131
34751SOL     OW53091   1.464   0.067   6.613
34751SOL    HW153092   1.453   0.048   6.515
34751SOL    HW253093   1.376   0.092   6.653
34752SOL     OW53094   9.599  13.082   1.587
34752SOL    HW153095   9.519  13.141   1.597
34752SOL    HW253096   9.591  13.004   1.648
34753SOL     OW53097  11.036  15.119   1.738
34753SOL    HW153098  11.007  15.138   1.831
34753SOL    HW253099  11.117  15.060   1.739
34754SOL     OW53100  14.524  12.928   0.450
34754SOL    HW153101  14.427  12.903   0.451
34754SOL    HW253102  14.578  12.851   0.418
34755SOL     OW53103  10.997   6.318   0.841
34755SOL    HW153104  11.021   6.251   0.770
34755SOL    HW253105  10.940   6.274   0.910
34756SOL     OW53106  15.219  12.309   7.955
34756SOL    HW153107  15.301  12.292   8.010
34756SOL    HW253108  15.240  12.297   7.858
34757SOL     OW53109   4.446  10.953   1.560
34757SOL    HW153110   4.427  11.050   1.574
34757SOL    HW253111   4.363  10.900   1.577
34758SOL     OW53112   3.386  13.670   1.166
34758SOL    HW153113   3.478  13.707   1.161
34758SOL    HW253114   3.389  13.575   1.196
34759SOL     OW53115  16.381   8.082   7.277
34759SOL    HW153116  16.323   8.029   7.339
34759SOL    HW253117  16.445   8.021   7.231
34760SOL     OW53118  15.122  13.930   7.227
34760SOL    HW153119  15.166  13.896   7.144
34760SOL    HW253120  15.085  13.854   7.280
34761SOL     OW53121   6.295  15.201   0.631
34761SOL    HW153122   6.229  15.266   0.668
34761SOL    HW253123   6.387  15.226   0.661
34762SOL     OW53124  11.293   7.584   6.231
34762SOL    HW153125  11.336   7.663   6.186
34762SOL    HW253126  11.216   7.552   6.176
34763SOL     OW53127   6.742   0.630   0.283
34763SOL    HW153128   6.779   0.613   0.374
34763SOL    HW253129   6.642   0.631   0.287
34764SOL     OW53130  13.036   2.436   6.976
34764SOL    HW153131  13.100   2.373   7.020
34764SOL    HW253132  12.949   2.389   6.960
34765SOL     OW53133   3.972  12.034   6.563
34765SOL    HW153134   3.984  11.936   6.575
34765SOL    HW253135   3.959  12.054   6.465
34766SOL     OW53136  10.076   3.421   7.581
34766SOL    HW153137  10.087   3.339   7.525
34766SOL    HW253138  10.014   3.485   7.536
34767SOL     OW53139   7.933   3.083   1.118
34767SOL    HW153140   7.967   3.074   1.212
34767SOL    HW253141   7.851   3.141   1.118
34768SOL     OW53142   5.482  14.597   7.199
34768SOL    HW153143   5.576  14.625   7.178
34768SOL    HW253144   5.453  14.640   7.284
34769SOL     OW53145  10.158   5.785   0.516
34769SOL    HW153146  10.075   5.739   0.485
34769SOL    HW253147  10.147   5.884   0.504
34770SOL     OW53148  16.201   0.744   7.518
34770SOL    HW153149  16.190   0.669   7.584
34770SOL    HW253150  16.142   0.727   7.439
34771SOL     OW53151   7.426   6.387   1.358
34771SOL    HW153152   7.525   6.388   1.378
34771SOL    HW253153   7.378   6.438   1.429
34772SOL     OW53154  14.633   9.598   2.628
34772SOL    HW153155  14.559   9.607   2.695
34772SOL    HW253156  14.698   9.529   2.659
34773SOL     OW53157  10.012  10.248   1.658
34773SOL    HW153158   9.998  10.154   1.690
34773SOL    HW253159  10.099  10.282   1.694
34774SOL     OW53160  16.642   9.938   0.937
34774SOL    HW153161  16.668  10.035   0.938
34774SOL    HW253162  16.623   9.909   1.031
34775SOL     OW53163  16.907  11.020   1.880
34775SOL    HW153164  16.970  10.943   1.869
34775SOL    HW253165  16.839  10.998   1.950
34776SOL     OW53166   9.449  11.060   1.430
34776SOL    HW153167   9.460  10.976   1.377
34776SOL    HW253168   9.406  11.038   1.518
34777SOL     OW53169   0.642   8.459   8.421
34777SOL    HW153170   0.670   8.521   8.348
34777SOL    HW253171   0.696   8.477   0.049
34778SOL     OW53172  10.173  12.200   0.300
34778SOL    HW153173  10.193  12.116   0.251
34778SOL    HW253174  10.112  12.258   0.245
34779SOL     OW53175  10.975   9.415   1.296
34779SOL    HW153176  11.014   9.507   1.292
34779SOL    HW253177  10.892   9.412   1.239
34780SOL     OW53178   1.597  14.587   1.224
34780SOL    HW153179   1.622  14.684   1.219
34780SOL    HW253180   1.646  14.543   1.299
34781SOL     OW53181   0.537   0.748   2.226
34781SOL    HW153182   0.586   0.766   2.311
34781SOL    HW253183   0.439   0.754   2.242
34782SOL     OW53184   9.807   9.174   0.640
34782SOL    HW153185   9.781   9.176   0.737
34782SOL    HW253186   9.734   9.213   0.585
34783SOL     OW53187   6.223   5.974   6.295
34783SOL    HW153188   6.138   5.923   6.280
34783SOL    HW253189   6.297   5.929   6.246
34784SOL     OW53190  10.109   4.386   1.321
34784SOL    HW153191  10.194   4.343   1.290
34784SOL    HW253192  10.075   4.339   1.402
34785SOL     OW53193   7.238   8.442   0.963
34785SOL    HW153194   7.207   8.529   1.002
34785SOL    HW253195   7.317   8.409   1.014
34786SOL     OW53196   6.624   5.644   0.833
34786SOL    HW153197   6.588   5.670   0.923
34786SOL    HW253198   6.559   5.583   0.787
34787SOL     OW53199   5.507  14.654   1.953
34787SOL    HW153200   5.535  14.681   2.046
34787SOL    HW253201   5.434  14.715   1.922
34788SOL     OW53202  12.758   8.014   6.202
34788SOL    HW153203  12.716   8.105   6.201
34788SOL    HW253204  12.854   8.022   6.174
34789SOL     OW53205  15.568  14.744   7.249
34789SOL    HW153206  15.654  14.726   7.202
34789SOL    HW253207  15.495  14.689   7.208
34790SOL     OW53208   0.719  12.364   0.250
34790SOL    HW153209   0.630  12.383   0.292
34790SOL    HW253210   0.772  12.448   0.245
34791SOL     OW53211   5.285  15.382   1.312
34791SOL    HW153212   5.210  15.448   1.301
34791SOL    HW253213   5.329  15.367   1.223
34792SOL     OW53214  13.276   0.743   1.965
34792SOL    HW153215  13.209   0.817   1.962
34792SOL    HW253216  13.366   0.779   1.940
34793SOL     OW53217  14.348   0.806   6.409
34793SOL    HW153218  14.439   0.830   6.445
34793SOL    HW253219  14.331   0.709   6.424
34794SOL     OW53220   8.499  16.917   0.451
34794SOL    HW153221   8.569  16.919   0.379
34794SOL    HW253222   8.422  16.974   0.424
34795SOL     OW53223  14.475   8.316   0.502
34795SOL    HW153224  14.543   8.329   0.429
34795SOL    HW253225  14.488   8.226   0.543
34796SOL     OW53226   4.141  13.144   2.395
34796SOL    HW153227   4.077  13.075   2.361
34796SOL    HW253228   4.166  13.123   2.490
34797SOL     OW53229   7.359  13.050   0.280
34797SOL    HW153230   7.414  13.022   0.202
34797SOL    HW253231   7.417  13.095   0.348
34798SOL     OW53232  11.737   4.080   0.085
34798SOL    HW153233  11.738   4.179   0.099
34798SOL    HW253234  11.674   4.057   0.010
34799SOL     OW53235  15.575  15.899   6.052
34799SOL    HW153236  15.639  15.822   6.047
34799SOL    HW253237  15.495  15.872   6.106
34800SOL     OW53238  10.423  15.005   7.324
34800SOL    HW153239  10.515  15.016   7.287
34800SOL    HW253240  10.428  14.952   7.409
34801SOL     OW53241  15.446   2.805   0.174
34801SOL    HW153242  15.351   2.773   0.166
34801SOL    HW253243  15.447   2.897   0.214
34802SOL     OW53244   7.441  10.632   1.969
34802SOL    HW153245   7.540  10.636   1.970
34802SOL    HW253246   7.410  10.557   2.027
34803SOL     OW53247   4.458  15.331   7.494
34803SOL    HW153248   4.404  15.394   7.549
34803SOL    HW253249   4.407  15.246   7.479
34804SOL     OW53250   3.973   1.438   7.882
34804SOL    HW153251   4.004   1.454   7.976
34804SOL    HW253252   3.945   1.525   7.841
34805SOL     OW53253   2.637   2.483   0.821
34805SOL    HW153254   2.588   2.558   0.865
34805SOL    HW253255   2.644   2.406   0.884
34806SOL     OW53256   9.676   4.994   1.694
34806SOL    HW153257   9.664   5.082   1.741
34806SOL    HW253258   9.772   4.980   1.672
34807SOL     OW53259   1.940   1.971   7.577
34807SOL    HW153260   2.013   2.039   7.568
34807SOL    HW253261   1.980   1.881   7.591
34808SOL     OW53262   9.136  12.426   7.740
34808SOL    HW153263   9.224  12.380   7.733
34808SOL    HW253264   9.150  12.520   7.772
34809SOL     OW53265  12.845  10.948   7.065
34809SOL    HW153266  12.866  10.867   7.009
34809SOL    HW253267  12.746  10.954   7.078
34810SOL     OW53268  14.309   7.477   0.965
34810SOL    HW153269  14.270   7.569   0.957
34810SOL    HW253270  14.334   7.459   1.060
34811SOL     OW53271   5.930  14.314   8.375
34811SOL    HW153272   5.958  14.400   8.333
34811SOL    HW253273   5.987  14.295   0.001
34812SOL     OW53274   7.308   9.893   1.437
34812SOL    HW153275   7.322   9.973   1.495
34812SOL    HW253276   7.375   9.822   1.462
34813SOL     OW53277   3.502  11.646   1.411
34813SOL    HW153278   3.555  11.590   1.348
34813SOL    HW253279   3.509  11.742   1.384
34814SOL     OW53280  11.539   2.121   5.889
34814SOL    HW153281  11.461   2.088   5.837
34814SOL    HW253282  11.507   2.172   5.969
34815SOL     OW53283  12.062  12.849   8.449
34815SOL    HW153284  12.023  12.840   0.087
34815SOL    HW253285  12.161  12.856   0.001
34816SOL     OW53286   3.850  15.967   6.995
34816SOL    HW153287   3.883  15.876   6.970
34816SOL    HW253288   3.929  16.027   7.011
34817SOL     OW53289   8.052  10.621   6.737
34817SOL    HW153290   8.118  10.580   6.674
34817SOL    HW253291   7.966  10.638   6.689
34818SOL     OW53292  15.086   4.065   6.895
34818SOL    HW153293  15.103   4.156   6.858
34818SOL    HW253294  15.022   4.016   6.836
34819SOL     OW53295   1.284  13.971   1.849
34819SOL    HW153296   1.373  14.016   1.837
34819SOL    HW253297   1.216  14.016   1.791
34820SOL     OW53298   3.500   8.426   8.202
34820SOL    HW153299   3.566   8.390   8.268
34820SOL    HW253300   3.451   8.351   8.159
34821SOL     OW53301  15.805   9.466   1.476
34821SOL    HW153302  15.796   9.416   1.390
34821SOL    HW253303  15.732   9.439   1.538
34822SOL     OW53304   3.537   0.902   1.461
34822SOL    HW153305   3.627   0.862   1.476
34822SOL    HW253306   3.511   0.890   1.365
34823SOL     OW53307  16.426   4.585   7.927
34823SOL    HW153308  16.461   4.670   7.967
34823SOL    HW253309  16.328   4.577   7.946
34824SOL     OW53310   5.540  12.563   1.560
34824SOL    HW153311   5.556  12.648   1.610
34824SOL    HW253312   5.516  12.491   1.624
34825SOL     OW53313  14.662  10.165   6.353
34825SOL    HW153314  14.693  10.215   6.273
34825SOL    HW253315  14.618  10.080   6.324
34826SOL     OW53316   0.345  15.797   6.271
34826SOL    HW153317   0.245  15.788   6.267
34826SOL    HW253318   0.387  15.724   6.219
34827SOL     OW53319   0.367  13.146   7.815
34827SOL    HW153320   0.341  13.110   7.725
34827SOL    HW253321   0.357  13.074   7.883
34828SOL     OW53322  12.465   2.462   7.845
34828SOL    HW153323  12.428   2.435   7.756
34828SOL    HW253324  12.437   2.555   7.866
34829SOL     OW53325   9.858   8.889   6.727
34829SOL    HW153326   9.925   8.814   6.727
34829SOL    HW253327   9.786   8.869   6.661
34830SOL     OW53328  14.046   7.035   0.651
34830SOL    HW153329  14.078   7.023   0.557
34830SOL    HW253330  14.112   7.091   0.701
34831SOL     OW53331   7.956  15.013   0.396
34831SOL    HW153332   7.977  15.101   0.354
34831SOL    HW253333   7.888  15.026   0.468
34832SOL     OW53334  15.428   1.356   6.995
34832SOL    HW153335  15.437   1.449   7.029
34832SOL    HW253336  15.513   1.329   6.949
34833SOL     OW53337   6.174   7.321   8.390
34833SOL    HW153338   6.090   7.283   8.431
34833SOL    HW253339   6.158   7.415   8.363
34834SOL     OW53340  13.363   3.856   7.451
34834SOL    HW153341  13.354   3.827   7.546
34834SOL    HW253342  13.275   3.848   7.404
34835SOL     OW53343   5.712   5.963   1.681
34835SOL    HW153344   5.682   5.972   1.776
34835SOL    HW253345   5.717   6.054   1.639
34836SOL     OW53346  15.190   0.466   8.119
34836SOL    HW153347  15.201   0.558   8.157
34836SOL    HW253348  15.274   0.438   8.074
34837SOL     OW53349   7.074   3.798   6.321
34837SOL    HW153350   7.035   3.723   6.267
34837SOL    HW253351   7.032   3.884   6.294
34838SOL     OW53352   4.367   0.715   6.846
34838SOL    HW153353   4.317   0.789   6.803
34838SOL    HW253354   4.455   0.703   6.800
34839SOL     OW53355   2.367   6.661   1.240
34839SOL    HW153356   2.349   6.562   1.239
34839SOL    HW253357   2.283   6.710   1.220
34840SOL     OW53358   0.216   3.339   7.006
34840SOL    HW153359   0.257   3.430   6.994
34840SOL    HW253360   0.146   3.325   6.937
34841SOL     OW53361  16.284   6.637   7.649
34841SOL    HW153362  16.255   6.562   7.708
34841SOL    HW253363  16.377   6.619   7.616
34842SOL     OW53364   1.478   9.843   7.433
34842SOL    HW153365   1.422   9.921   7.459
34842SOL    HW253366   1.419   9.770   7.398
34843SOL     OW53367  15.360  12.343   8.263
34843SOL    HW153368  15.272  12.327   8.308
34843SOL    HW253369  15.360  12.433   8.220
34844SOL     OW53370   1.698   8.698   0.959
34844SOL    HW153371   1.685   8.730   1.053
34844SOL    HW253372   1.790   8.661   0.949
34845SOL     OW53373  13.731  13.353   1.141
34845SOL    HW153374  13.730  13.449   1.170
34845SOL    HW253375  13.736  13.348   1.041
34846SOL     OW53376   6.289   4.795   6.861
34846SOL    HW153377   6.306   4.747   6.947
34846SOL    HW253378   6.358   4.867   6.849
34847SOL     OW53379   4.184   9.607   1.215
34847SOL    HW153380   4.129   9.609   1.299
34847SOL    HW253381   4.227   9.517   1.206
34848SOL     OW53382   2.579   5.141   1.849
34848SOL    HW153383   2.546   5.207   1.916
34848SOL    HW253384   2.678   5.128   1.860
34849SOL     OW53385   7.392   7.855   6.202
34849SOL    HW153386   7.415   7.759   6.218
34849SOL    HW253387   7.451   7.893   6.131
34850SOL     OW53388   7.511  14.740   2.906
34850SOL    HW153389   7.518  14.733   3.005
34850SOL    HW253390   7.602  14.729   2.865
34851SOL     OW53391  10.635   3.425   1.068
34851SOL    HW153392  10.713   3.378   1.110
34851SOL    HW253393  10.552   3.407   1.121
34852SOL     OW53394   5.758   0.343   1.523
34852SOL    HW153395   5.693   0.376   1.590
34852SOL    HW253396   5.786   0.418   1.463
34853SOL     OW53397  10.985   5.001   0.110
34853SOL    HW153398  10.900   4.959   0.076
34853SOL    HW253399  11.008   4.960   0.199
34854SOL     OW53400  11.199   9.936   0.653
34854SOL    HW153401  11.289   9.907   0.686
34854SOL    HW253402  11.135   9.860   0.659
34855SOL     OW53403   8.692   5.831   7.178
34855SOL    HW153404   8.759   5.823   7.105
34855SOL    HW253405   8.728   5.891   7.250
34856SOL     OW53406  11.267   9.250   6.670
34856SOL    HW153407  11.186   9.307   6.660
34856SOL    HW253408  11.255   9.166   6.617
34857SOL     OW53409   8.885   8.853   1.071
34857SOL    HW153410   8.800   8.867   1.122
34857SOL    HW253411   8.897   8.756   1.050
34858SOL     OW53412  16.756   8.690   7.331
34858SOL    HW153413  16.764   8.592   7.343
34858SOL    HW253414  16.698   8.728   7.403
34859SOL     OW53415   3.846   5.280   1.165
34859SOL    HW153416   3.747   5.262   1.169
34859SOL    HW253417   3.873   5.334   1.245
34860SOL     OW53418   4.928   0.798   1.059
34860SOL    HW153419   4.994   0.772   0.988
34860SOL    HW253420   4.835   0.783   1.024
34861SOL     OW53421   2.013  10.044   2.201
34861SOL    HW153422   1.934   9.983   2.208
34861SOL    HW253423   2.069  10.035   2.284
34862SOL     OW53424   6.337   1.993   0.307
34862SOL    HW153425   6.287   1.996   0.221
34862SOL    HW253426   6.297   2.059   0.371
34863SOL     OW53427  15.896   7.812   8.183
34863SOL    HW153428  15.859   7.722   8.208
34863SOL    HW253429  15.839   7.883   8.222
34864SOL     OW53430   4.127  13.132   7.190
34864SOL    HW153431   4.066  13.189   7.246
34864SOL    HW253432   4.217  13.128   7.233
34865SOL     OW53433  11.324   3.055   6.650
34865SOL    HW153434  11.329   3.129   6.583
34865SOL    HW253435  11.342   3.090   6.741
34866SOL     OW53436  11.670  12.830   1.416
34866SOL    HW153437  11.623  12.905   1.371
34866SOL    HW253438  11.615  12.797   1.492
34867SOL     OW53439   8.975  16.774   6.962
34867SOL    HW153440   9.056  16.791   7.018
34867SOL    HW253441   8.997  16.787   6.866
34868SOL     OW53442   3.475  10.338   7.927
34868SOL    HW153443   3.572  10.348   7.906
34868SOL    HW253444   3.457  10.373   8.019
34869SOL     OW53445   7.760   5.861   6.999
34869SOL    HW153446   7.662   5.844   7.013
34869SOL    HW253447   7.809   5.774   7.000
34870SOL     OW53448   0.302  14.339   8.243
34870SOL    HW153449   0.266  14.380   8.327
34870SOL    HW253450   0.285  14.401   8.166
34871SOL     OW53451   5.679   3.826   6.953
34871SOL    HW153452   5.730   3.761   6.897
34871SOL    HW253453   5.732   3.910   6.963
34872SOL     OW53454  12.103  14.219   0.962
34872SOL    HW153455  12.011  14.247   0.936
34872SOL    HW253456  12.169  14.286   0.927
34873SOL     OW53457   3.497  10.948   7.339
34873SOL    HW153458   3.499  10.989   7.248
34873SOL    HW253459   3.451  10.860   7.336
34874SOL     OW53460   3.374   7.976   6.806
34874SOL    HW153461   3.407   8.004   6.715
34874SOL    HW253462   3.421   8.029   6.876
34875SOL     OW53463  10.218   4.543   7.755
34875SOL    HW153464  10.169   4.457   7.739
34875SOL    HW253465  10.317   4.527   7.747
34876SOL     OW53466  11.049   6.932   6.754
34876SOL    HW153467  11.009   6.893   6.836
34876SOL    HW253468  11.003   6.894   6.673
34877SOL     OW53469  15.608  13.967   1.269
34877SOL    HW153470  15.593  13.977   1.367
34877SOL    HW253471  15.522  13.985   1.220
34878SOL     OW53472   4.560   5.901   1.773
34878SOL    HW153473   4.577   5.905   1.674
34878SOL    HW253474   4.480   5.844   1.790
34879SOL     OW53475  10.457   7.713   0.443
34879SOL    HW153476  10.527   7.644   0.427
34879SOL    HW253477  10.383   7.673   0.498
34880SOL     OW53478   0.495  16.235   7.006
34880SOL    HW153479   0.577  16.202   6.959
34880SOL    HW253480   0.510  16.328   7.038
34881SOL     OW53481  15.900   0.332   7.807
34881SOL    HW153482  15.989   0.291   7.828
34881SOL    HW253483  15.868   0.385   7.886
34882SOL     OW53484   0.187   1.388   7.464
34882SOL    HW153485   0.252   1.411   7.537
34882SOL    HW253486   0.098   1.429   7.484
34883SOL     OW53487  11.097   7.482   7.260
34883SOL    HW153488  11.144   7.508   7.344
34883SOL    HW253489  11.078   7.564   7.205
34884SOL     OW53490   7.091  12.171   0.771
34884SOL    HW153491   7.064  12.076   0.757
34884SOL    HW253492   7.103  12.188   0.869
34885SOL     OW53493   6.748  12.829   0.020
34885SOL    HW153494   6.674  12.876   0.070
34885SOL    HW253495   6.731  12.836   8.376
34886SOL     OW53496   0.103  11.172   1.519
34886SOL    HW153497   0.146  11.102   1.461
34886SOL    HW253498   0.152  11.179   1.605
34887SOL     OW53499   6.005  15.334   0.037
34887SOL    HW153500   5.954  15.248   0.034
34887SOL    HW253501   6.053  15.341   0.124
34888SOL     OW53502   9.147   5.097   0.171
34888SOL    HW153503   9.110   5.189   0.157
34888SOL    HW253504   9.109   5.057   0.255
34889SOL     OW53505   9.024  11.202   0.080
34889SOL    HW153506   8.969  11.261   0.021
34889SOL    HW253507   9.024  11.239   0.173
34890SOL     OW53508   1.146   5.879   0.965
34890SOL    HW153509   1.062   5.884   0.910
34890SOL    HW253510   1.196   5.965   0.957
34891SOL     OW53511   4.024  16.517   1.423
34891SOL    HW153512   4.016  16.450   1.497
34891SOL    HW253513   3.932  16.544   1.394
34892SOL     OW53514   5.430  10.033   1.858
34892SOL    HW153515   5.422   9.979   1.942
34892SOL    HW253516   5.395   9.980   1.781
34893SOL     OW53517  12.080   6.891   0.894
34893SOL    HW153518  12.112   6.891   0.799
34893SOL    HW253519  11.993   6.940   0.900
34894SOL     OW53520   0.652   4.688   7.306
34894SOL    HW153521   0.592   4.719   7.233
34894SOL    HW253522   0.743   4.727   7.293
34895SOL     OW53523  12.020  11.506   0.465
34895SOL    HW153524  11.921  11.496   0.455
34895SOL    HW253525  12.058  11.547   0.382
34896SOL     OW53526   8.799  14.311   6.621
34896SOL    HW153527   8.700  14.301   6.618
34896SOL    HW253528   8.825  14.403   6.592
34897SOL     OW53529  16.864   1.747   8.222
34897SOL    HW153530  16.926   1.739   8.300
34897SOL    HW253531  16.917   1.771   8.140
34898SOL     OW53532   3.838   4.202   0.296
34898SOL    HW153533   3.872   4.244   0.211
34898SOL    HW253534   3.916   4.178   0.354
34899SOL     OW53535  15.468   9.818   7.874
34899SOL    HW153536  15.516   9.890   7.824
34899SOL    HW253537  15.441   9.745   7.811
34900SOL     OW53538  12.480   2.774   7.612
34900SOL    HW153539  12.428   2.729   7.540
34900SOL    HW253540  12.575   2.744   7.610
34901SOL     OW53541   1.484  12.150   8.430
34901SOL    HW153542   1.430  12.107   0.048
34901SOL    HW253543   1.424  12.193   8.363
34902SOL     OW53544  15.757  12.159   1.871
34902SOL    HW153545  15.694  12.082   1.885
34902SOL    HW253546  15.724  12.215   1.795
34903SOL     OW53547  15.715   3.357   0.890
34903SOL    HW153548  15.670   3.268   0.904
34903SOL    HW253549  15.786   3.369   0.959
34904SOL     OW53550   8.294   5.778   1.577
34904SOL    HW153551   8.326   5.824   1.494
34904SOL    HW253552   8.205   5.737   1.561
34905SOL     OW53553  15.658  15.377   7.257
34905SOL    HW153554  15.739  15.326   7.228
34905SOL    HW253555  15.666  15.472   7.226
34906SOL     OW53556  11.602   2.177   7.650
34906SOL    HW153557  11.677   2.121   7.614
34906SOL    HW253558  11.520   2.120   7.659
34907SOL     OW53559  16.619   6.965   7.699
34907SOL    HW153560  16.552   6.946   7.770
34907SOL    HW253561  16.573   6.972   7.611
34908SOL     OW53562   2.832  16.924   7.256
34908SOL    HW153563   2.778  16.864   7.315
34908SOL    HW253564   2.787  16.932   7.167
34909SOL     OW53565   8.200   4.318   0.506
34909SOL    HW153566   8.229   4.249   0.440
34909SOL    HW253567   8.213   4.410   0.467
34910SOL     OW53568   3.117   8.042   6.885
34910SOL    HW153569   3.080   7.955   6.918
34910SOL    HW253570   3.209   8.029   6.850
34911SOL     OW53571  11.358   0.688   8.272
34911SOL    HW153572  11.342   0.630   8.192
34911SOL    HW253573  11.331   0.782   8.251
34912SOL     OW53574   7.747  10.459   6.881
34912SOL    HW153575   7.703  10.421   6.799
34912SOL    HW253576   7.750  10.559   6.873
34913SOL     OW53577   1.778   0.182   7.816
34913SOL    HW153578   1.701   0.118   7.821
34913SOL    HW253579   1.858   0.135   7.780
34914SOL     OW53580  14.352   0.996   0.572
34914SOL    HW153581  14.389   0.992   0.479
34914SOL    HW253582  14.404   1.063   0.625
34915SOL     OW53583  13.764   0.651   0.760
34915SOL    HW153584  13.689   0.711   0.787
34915SOL    HW253585  13.852   0.694   0.781
34916SOL     OW53586  12.800   5.740   7.205
34916SOL    HW153587  12.726   5.672   7.202
34916SOL    HW253588  12.841   5.748   7.114
34917SOL     OW53589   3.200   5.777   1.364
34917SOL    HW153590   3.143   5.788   1.283
34917SOL    HW253591   3.290   5.742   1.336
34918SOL     OW53592  11.606   0.098   1.159
34918SOL    HW153593  11.571   0.128   1.247
34918SOL    HW253594  11.563   0.152   1.086
34919SOL     OW53595  13.496  11.599   2.105
34919SOL    HW153596  13.549  11.525   2.146
34919SOL    HW253597  13.404  11.601   2.146
34920SOL     OW53598  12.779   3.737   6.605
34920SOL    HW153599  12.861   3.760   6.552
34920SOL    HW253600  12.783   3.784   6.694
34921SOL     OW53601  15.950   6.320   7.726
34921SOL    HW153602  15.904   6.326   7.638
34921SOL    HW253603  15.901   6.375   7.793
34922SOL     OW53604  16.422   9.144   1.443
34922SOL    HW153605  16.348   9.077   1.430
34922SOL    HW253606  16.414   9.215   1.373
34923SOL     OW53607  12.051   2.780   6.708
34923SOL    HW153608  11.986   2.707   6.730
34923SOL    HW253609  12.053   2.846   6.784
34924SOL     OW53610   9.595   2.141   1.816
34924SOL    HW153611   9.527   2.212   1.799
34924SOL    HW253612   9.678   2.181   1.853
34925SOL     OW53613   8.942   9.996   0.893
34925SOL    HW153614   8.955   9.947   0.808
34925SOL    HW253615   8.883   9.943   0.954
34926SOL     OW53616   1.533   0.026   7.382
34926SOL    HW153617   1.502   0.038   7.476
34926SOL    HW253618   1.610  16.946   7.380
34927SOL     OW53619  14.277  11.084   8.312
34927SOL    HW153620  14.202  11.129   8.361
34927SOL    HW253621  14.305  11.002   8.364
34928SOL     OW53622  13.172   1.834   0.973
34928SOL    HW153623  13.103   1.768   0.943
34928SOL    HW253624  13.255   1.786   0.998
34929SOL     OW53625   3.350   4.582   8.353
34929SOL    HW153626   3.386   4.498   8.393
34929SOL    HW253627   3.413   4.658   8.371
34930SOL     OW53628  13.063   1.859   6.173
34930SOL    HW153629  13.091   1.803   6.251
34930SOL    HW253630  13.128   1.934   6.161
34931SOL     OW53631   3.932  12.098   6.301
34931SOL    HW153632   3.843  12.091   6.256
34931SOL    HW253633   3.954  12.194   6.318
34932SOL     OW53634   2.952   7.459   7.121
34932SOL    HW153635   2.852   7.451   7.120
34932SOL    HW253636   2.979   7.550   7.152
34933SOL     OW53637   0.009  11.331   7.878
34933SOL    HW153638   0.061  11.340   7.963
34933SOL    HW253639  16.930  11.409   7.869
34934SOL     OW53640   6.294   6.896   6.340
34934SOL    HW153641   6.294   6.888   6.440
34934SOL    HW253642   6.203   6.872   6.305
34935SOL     OW53643   8.832   7.080   7.916
34935SOL    HW153644   8.893   7.107   7.991
34935SOL    HW253645   8.738   7.074   7.951
34936SOL     OW53646  12.708  12.127   1.527
34936SOL    HW153647  12.674  12.199   1.587
34936SOL    HW253648  12.633  12.093   1.470
34937SOL     OW53649  12.661   3.485   7.529
34937SOL    HW153650  12.737   3.453   7.472
34937SOL    HW253651  12.578   3.490   7.475
34938SOL     OW53652   7.619  16.970   7.872
34938SOL    HW153653   7.657  16.975   7.965
34938SOL    HW253654   7.689  16.934   7.810
34939SOL     OW53655  15.516   4.266   2.080
34939SOL    HW153656  15.503   4.294   2.175
34939SOL    HW253657  15.614   4.260   2.060
34940SOL     OW53658  11.674   0.583   7.768
34940SOL    HW153659  11.702   0.489   7.750
34940SOL    HW253660  11.674   0.600   7.866
34941SOL     OW53661   6.984  16.229   7.648
34941SOL    HW153662   7.022  16.319   7.623
34941SOL    HW253663   7.003  16.164   7.574
34942SOL     OW53664  14.802  12.515   0.417
34942SOL    HW153665  14.825  12.449   0.345
34942SOL    HW253666  14.844  12.486   0.503
34943SOL     OW53667  16.704   6.184   7.725
34943SOL    HW153668  16.744   6.174   7.634
34943SOL    HW253669  16.662   6.275   7.733
34944SOL     OW53670  12.245   1.111   7.511
34944SOL    HW153671  12.342   1.132   7.501
34944SOL    HW253672  12.229   1.064   7.597
34945SOL     OW53673   8.807  11.559   1.900
34945SOL    HW153674   8.733  11.596   1.957
34945SOL    HW253675   8.890  11.613   1.916
34946SOL     OW53676   5.190  16.112   7.254
34946SOL    HW153677   5.243  16.126   7.171
34946SOL    HW253678   5.243  16.057   7.319
34947SOL     OW53679   8.434  14.797   0.547
34947SOL    HW153680   8.400  14.786   0.454
34947SOL    HW253681   8.380  14.741   0.610
34948SOL     OW53682  11.070   1.411   0.868
34948SOL    HW153683  10.970   1.411   0.877
34948SOL    HW253684  11.104   1.318   0.882
34949SOL     OW53685  14.187   6.374   6.241
34949SOL    HW153686  14.274   6.419   6.259
34949SOL    HW253687  14.203   6.288   6.194
34950SOL     OW53688  12.917   4.615   0.086
34950SOL    HW153689  12.932   4.545   0.016
34950SOL    HW253690  12.826   4.654   0.076
34951SOL     OW53691  16.647   1.351   8.200
34951SOL    HW153692  16.555   1.317   8.178
34951SOL    HW253693  16.651   1.374   8.297
34952SOL     OW53694  16.840   0.660   7.564
34952SOL    HW153695  16.772   0.637   7.634
34952SOL    HW253696  16.824   0.753   7.531
34953SOL     OW53697   3.372  11.996   2.096
34953SOL    HW153698   3.464  12.029   2.075
34953SOL    HW253699   3.358  11.999   2.195
34954SOL     OW53700   0.475  13.312   0.478
34954SOL    HW153701   0.544  13.384   0.484
34954SOL    HW253702   0.390  13.351   0.442
34955SOL     OW53703   4.913   8.574   0.322
34955SOL    HW153704   4.871   8.513   0.255
34955SOL    HW253705   5.001   8.606   0.287
34956SOL     OW53706   8.942   0.036   7.327
34956SOL    HW153707   8.933  16.921   7.309
34956SOL    HW253708   8.945   0.052   7.425
34957SOL     OW53709  10.755   1.943   8.041
34957SOL    HW153710  10.812   1.992   8.107
34957SOL    HW253711  10.766   1.986   7.951
34958SOL     OW53712  12.258   3.133   0.192
34958SOL    HW153713  12.208   3.091   0.267
34958SOL    HW253714  12.234   3.088   0.106
34959SOL     OW53715  10.983  12.528   1.861
34959SOL    HW153716  11.025  12.454   1.912
34959SOL    HW253717  10.931  12.586   1.924
34960SOL     OW53718   6.356   0.538   8.208
34960SOL    HW153719   6.293   0.467   8.238
34960SOL    HW253720   6.416   0.502   8.136
34961SOL     OW53721   1.910   1.904   1.024
34961SOL    HW153722   1.866   1.961   0.954
34961SOL    HW253723   1.952   1.962   1.093
34962SOL     OW53724  11.427   7.396   6.403
34962SOL    HW153725  11.474   7.319   6.360
34962SOL    HW253726  11.392   7.458   6.332
34963SOL     OW53727   4.302  12.526   0.766
34963SOL    HW153728   4.374  12.495   0.829
34963SOL    HW253729   4.280  12.621   0.785
34964SOL     OW53730   9.392  12.931   7.207
34964SOL    HW153731   9.356  12.841   7.180
34964SOL    HW253732   9.463  12.919   7.276
34965SOL     OW53733   5.835  11.924   0.233
34965SOL    HW153734   5.804  11.880   0.149
34965SOL    HW253735   5.901  11.866   0.280
34966SOL     OW53736  13.588   8.520   1.433
34966SOL    HW153737  13.670   8.512   1.490
34966SOL    HW253738  13.602   8.472   1.347
34967SOL     OW53739   6.759  12.831   0.738
34967SOL    HW153740   6.855  12.819   0.716
34967SOL    HW253741   6.707  12.752   0.704
34968SOL     OW53742  16.525   5.755   6.248
34968SOL    HW153743  16.531   5.854   6.259
34968SOL    HW253744  16.505   5.733   6.152
34969SOL     OW53745   2.741   8.345   0.636
34969SOL    HW153746   2.664   8.332   0.573
34969SOL    HW253747   2.781   8.436   0.621
34970SOL     OW53748   5.887  11.660   1.167
34970SOL    HW153749   5.817  11.589   1.169
34970SOL    HW253750   5.848  11.746   1.201
34971SOL     OW53751  15.637  11.476   7.783
34971SOL    HW153752  15.596  11.457   7.693
34971SOL    HW253753  15.597  11.415   7.851
34972SOL     OW53754   5.418   5.801   6.854
34972SOL    HW153755   5.488   5.837   6.915
34972SOL    HW253756   5.426   5.845   6.765
34973SOL     OW53757   5.940   2.979   5.991
34973SOL    HW153758   6.021   3.037   5.993
34973SOL    HW253759   5.860   3.031   6.021
34974SOL     OW53760   7.191   4.036   7.534
34974SOL    HW153761   7.133   3.968   7.579
34974SOL    HW253762   7.140   4.122   7.525
34975SOL     OW53763  15.049  16.734   8.113
34975SOL    HW153764  15.065  16.818   8.166
34975SOL    HW253765  15.075  16.655   8.168
34976SOL     OW53766   9.029   8.876   7.826
34976SOL    HW153767   9.055   8.779   7.827
34976SOL    HW253768   9.054   8.918   7.913
34977SOL     OW53769  13.469  10.820   0.839
34977SOL    HW153770  13.537  10.894   0.842
34977SOL    HW253771  13.425  10.812   0.929
34978SOL     OW53772   3.621  15.148   2.172
34978SOL    HW153773   3.600  15.124   2.267
34978SOL    HW253774   3.650  15.244   2.167
34979SOL     OW53775   6.690   0.062   7.803
34979SOL    HW153776   6.686   0.159   7.777
34979SOL    HW253777   6.783   0.028   7.791
34980SOL     OW53778  15.698  12.225   0.869
34980SOL    HW153779  15.688  12.165   0.790
34980SOL    HW253780  15.609  12.240   0.911
34981SOL     OW53781  16.345  11.891   7.421
34981SOL    HW153782  16.420  11.884   7.356
34981SOL    HW253783  16.303  11.801   7.435
34982SOL     OW53784  12.936  12.700   8.261
34982SOL    HW153785  12.840  12.692   8.286
34982SOL    HW253786  12.993  12.666   8.336
34983SOL     OW53787  13.661   3.995   8.404
34983SOL    HW153788  13.644   4.074   0.009
34983SOL    HW253789  13.643   3.911   0.000
34984SOL     OW53790   3.930   5.919   0.094
34984SOL    HW153791   3.903   5.832   0.137
34984SOL    HW253792   4.020   5.946   0.127
34985SOL     OW53793   5.297  12.756   0.219
34985SOL    HW153794   5.366  12.746   0.148
34985SOL    HW253795   5.336  12.807   0.296
34986SOL     OW53796  16.977   9.638   1.435
34986SOL    HW153797   0.042   9.720   1.407
34986SOL    HW253798  16.885   9.662   1.466
34987SOL     OW53799   5.394  10.680   8.253
34987SOL    HW153800   5.316  10.634   8.211
34987SOL    HW253801   5.370  10.708   8.346
34988SOL     OW53802   5.273  15.103   1.634
34988SOL    HW153803   5.343  15.126   1.702
34988SOL    HW253804   5.270  15.004   1.621
34989SOL     OW53805   4.739  13.566   0.845
34989SOL    HW153806   4.723  13.532   0.937
34989SOL    HW253807   4.835  13.553   0.821
34990SOL     OW53808  15.983   8.944   7.495
34990SOL    HW153809  15.982   9.036   7.536
34990SOL    HW253810  15.989   8.952   7.396
34991SOL     OW53811  13.301   6.563   6.046
34991SOL    HW153812  13.292   6.662   6.039
34991SOL    HW253813  13.291   6.522   5.955
34992SOL     OW53814  14.407  11.197   6.218
34992SOL    HW153815  14.466  11.163   6.145
34992SOL    HW253816  14.312  11.176   6.196
34993SOL     OW53817  12.436   2.473   8.184
34993SOL    HW153818  12.420   2.501   8.278
34993SOL    HW253819  12.502   2.535   8.141
34994SOL     OW53820   9.751   1.186   7.070
34994SOL    HW153821   9.651   1.179   7.079
34994SOL    HW253822   9.774   1.245   6.993
34995SOL     OW53823   7.538   7.606   7.146
34995SOL    HW153824   7.514   7.702   7.161
34995SOL    HW253825   7.496   7.574   7.061
34996SOL     OW53826  12.410  13.463   6.561
34996SOL    HW153827  12.450  13.542   6.607
34996SOL    HW253828  12.397  13.484   6.465
34997SOL     OW53829  16.760  16.857   6.313
34997SOL    HW153830  16.798  16.934   6.262
34997SOL    HW253831  16.823  16.830   6.385
34998SOL     OW53832   8.504  14.051   0.816
34998SOL    HW153833   8.472  13.961   0.843
34998SOL    HW253834   8.434  14.096   0.761
34999SOL     OW53835  16.154   1.001   0.105
34999SOL    HW153836  16.059   1.003   0.077
34999SOL    HW253837  16.212   1.036   0.031
35000SOL     OW53838   8.160   0.757   0.052
35000SOL    HW153839   8.239   0.724   0.103
35000SOL    HW253840   8.192   0.813   8.429
35001SOL     OW53841  16.254   5.905   1.028
35001SOL    HW153842  16.201   5.982   0.993
35001SOL    HW253843  16.336   5.938   1.074
35002SOL     OW53844   2.781  13.402   1.382
35002SOL    HW153845   2.720  13.324   1.397
35002SOL    HW253846   2.870  13.383   1.422
35003SOL     OW53847   3.905   1.126   1.593
35003SOL    HW153848   3.825   1.126   1.653
35003SOL    HW253849   3.974   1.190   1.628
35004SOL     OW53850   3.644  10.995   7.666
35004SOL    HW153851   3.584  11.059   7.617
35004SOL    HW253852   3.637  10.905   7.623
35005SOL     OW53853   9.167   2.210   1.430
35005SOL    HW153854   9.072   2.238   1.416
35005SOL    HW253855   9.208   2.268   1.501
35006SOL     OW53856   4.203  16.783   0.036
35006SOL    HW153857   4.228  16.823   8.402
35006SOL    HW253858   4.207  16.684   0.031
35007SOL     OW53859   5.391   5.238   7.220
35007SOL    HW153860   5.483   5.210   7.249
35007SOL    HW253861   5.397   5.325   7.170
35008SOL     OW53862   7.878  10.117   1.662
35008SOL    HW153863   7.923  10.028   1.658
35008SOL    HW253864   7.778  10.105   1.665
35009SOL     OW53865   4.646  13.389   7.733
35009SOL    HW153866   4.647  13.473   7.678
35009SOL    HW253867   4.666  13.412   7.828
35010SOL     OW53868  10.272  15.737   1.043
35010SOL    HW153869  10.249  15.790   0.961
35010SOL    HW253870  10.302  15.800   1.115
35011SOL     OW53871   7.417   8.092   6.806
35011SOL    HW153872   7.344   8.160   6.804
35011SOL    HW253873   7.453   8.079   6.713
35012SOL     OW53874  12.542  15.194   7.319
35012SOL    HW153875  12.451  15.185   7.278
35012SOL    HW253876  12.574  15.104   7.350
35013SOL     OW53877  15.171   9.241   6.363
35013SOL    HW153878  15.239   9.284   6.304
35013SOL    HW253879  15.079   9.268   6.332
35014SOL     OW53880  15.235  10.726   0.088
35014SOL    HW153881  15.327  10.690   0.103
35014SOL    HW253882  15.183  10.663   0.031
35015SOL     OW53883   8.945   0.848   7.880
35015SOL    HW153884   8.926   0.899   7.964
35015SOL    HW253885   8.896   0.761   7.881
35016SOL     OW53886   7.331   5.003   7.627
35016SOL    HW153887   7.235   4.992   7.602
35016SOL    HW253888   7.379   4.917   7.615
35017SOL     OW53889   5.340   6.780   7.256
35017SOL    HW153890   5.309   6.855   7.198
35017SOL    HW253891   5.378   6.816   7.341
35018SOL     OW53892   5.495   2.185   0.577
35018SOL    HW153893   5.486   2.285   0.585
35018SOL    HW253894   5.537   2.163   0.489
35019SOL     OW53895   9.524  12.747   7.638
35019SOL    HW153896   9.566  12.663   7.672
35019SOL    HW253897   9.537  12.821   7.704
35020SOL     OW53898   8.371   2.602   8.106
35020SOL    HW153899   8.414   2.671   8.163
35020SOL    HW253900   8.310   2.646   8.040
35021SOL     OW53901   0.698   5.978   0.529
35021SOL    HW153902   0.645   5.920   0.466
35021SOL    HW253903   0.795   5.961   0.515
35022SOL     OW53904  16.051  11.607   6.835
35022SOL    HW153905  16.023  11.552   6.913
35022SOL    HW253906  16.037  11.704   6.856
35023SOL     OW53907  12.486   2.101   0.257
35023SOL    HW153908  12.444   2.157   0.329
35023SOL    HW253909  12.571   2.144   0.228
35024SOL     OW53910   7.225  15.788   8.120
35024SOL    HW153911   7.152  15.811   8.056
35024SOL    HW253912   7.290  15.864   8.126
35025SOL     OW53913   4.592  14.752   1.983
35025SOL    HW153914   4.588  14.791   2.075
35025SOL    HW253915   4.507  14.774   1.934
35026SOL     OW53916  16.081   7.543   8.028
35026SOL    HW153917  16.006   7.477   8.030
35026SOL    HW253918  16.053   7.625   7.980
35027SOL     OW53919  13.168   7.458   6.556
35027SOL    HW153920  13.206   7.510   6.633
35027SOL    HW253921  13.134   7.370   6.589
35028SOL     OW53922  13.634  14.210   1.916
35028SOL    HW153923  13.637  14.117   1.952
35028SOL    HW253924  13.550  14.224   1.864
35029SOL     OW53925  10.614  15.252   0.382
35029SOL    HW153926  10.556  15.298   0.448
35029SOL    HW253927  10.696  15.306   0.365
35030SOL     OW53928   7.341  12.266   0.706
35030SOL    HW153929   7.363  12.251   0.610
35030SOL    HW253930   7.252  12.226   0.726
35031SOL     OW53931   6.520   8.813   0.409
35031SOL    HW153932   6.477   8.807   0.499
35031SOL    HW253933   6.450   8.805   0.338
35032SOL     OW53934  13.305   4.894   8.420
35032SOL    HW153935  13.395   4.912   8.379
35032SOL    HW253936  13.285   4.964   0.034
35033SOL     OW53937  10.717   3.180   6.663
35033SOL    HW153938  10.805   3.227   6.652
35033SOL    HW253939  10.730   3.081   6.654
35034SOL     OW53940   5.958   8.989   7.991
35034SOL    HW153941   6.036   8.970   7.932
35034SOL    HW253942   5.882   9.024   7.936
35035SOL     OW53943   4.693   3.718   7.670
35035SOL    HW153944   4.601   3.756   7.671
35035SOL    HW253945   4.693   3.627   7.710
35036SOL     OW53946  12.096   3.084   0.859
35036SOL    HW153947  12.140   2.996   0.879
35036SOL    HW253948  12.102   3.103   0.761
35037SOL     OW53949  12.490  10.474   1.742
35037SOL    HW153950  12.474  10.407   1.669
35037SOL    HW253951  12.449  10.440   1.827
35038SOL     OW53952   1.862   5.464   6.805
35038SOL    HW153953   1.855   5.560   6.832
35038SOL    HW253954   1.782   5.414   6.837
35039SOL     OW53955   0.176  11.399   1.902
35039SOL    HW153956   0.254  11.440   1.948
35039SOL    HW253957   0.119  11.471   1.863
35040SOL     OW53958   2.581   9.006   7.375
35040SOL    HW153959   2.581   8.916   7.419
35040SOL    HW253960   2.564   8.995   7.277
35041SOL     OW53961   2.836  11.770   6.612
35041SOL    HW153962   2.931  11.755   6.585
35041SOL    HW253963   2.778  11.702   6.567
35042SOL     OW53964   4.886   6.798   8.325
35042SOL    HW153965   4.910   6.840   8.413
35042SOL    HW253966   4.966   6.753   8.286
35043SOL     OW53967   8.863   2.867   7.000
35043SOL    HW153968   8.884   2.798   6.931
35043SOL    HW253969   8.764   2.873   7.012
35044SOL     OW53970   0.530   9.856   8.424
35044SOL    HW153971   0.588   9.898   0.040
35044SOL    HW253972   0.473   9.785   0.011
35045SOL     OW53973   1.738   8.924   0.507
35045SOL    HW153974   1.779   8.976   0.432
35045SOL    HW253975   1.680   8.985   0.561
35046SOL     OW53976   8.244   5.167   0.415
35046SOL    HW153977   8.184   5.211   0.482
35046SOL    HW253978   8.279   5.236   0.352
35047SOL     OW53979  13.167   4.397   0.386
35047SOL    HW153980  13.218   4.418   0.302
35047SOL    HW253981  13.071   4.422   0.374
35048SOL     OW53982   6.640  14.815   8.012
35048SOL    HW153983   6.554  14.821   7.962
35048SOL    HW253984   6.652  14.896   8.069
35049SOL     OW53985  16.449  13.199   1.709
35049SOL    HW153986  16.390  13.256   1.652
35049SOL    HW253987  16.497  13.256   1.775
35050SOL     OW53988   8.808  12.890   6.737
35050SOL    HW153989   8.710  12.905   6.719
35050SOL    HW253990   8.857  12.884   6.650
35051SOL     OW53991   0.566  11.735   8.214
35051SOL    HW153992   0.636  11.697   8.275
35051SOL    HW253993   0.602  11.816   8.168
35052SOL     OW53994   0.371   9.685   1.948
35052SOL    HW153995   0.405   9.692   2.042
35052SOL    HW253996   0.304   9.611   1.942
35053SOL     OW53997  13.240  10.307   0.007
35053SOL    HW153998  13.156  10.309   0.061
35053SOL    HW253999  13.224  10.351   8.372
35054SOL     OW54000   2.378  12.089   1.680
35054SOL    HW154001   2.293  12.037   1.679
35054SOL    HW254002   2.404  12.111   1.586
35055SOL     OW54003   9.583   9.955   1.474
35055SOL    HW154004   9.555  10.050   1.463
35055SOL    HW254005   9.675   9.942   1.438
35056SOL     OW54006   4.325  14.685   0.026
35056SOL    HW154007   4.241  14.667   8.428
35056SOL    HW254008   4.404  14.674   8.420
35057SOL     OW54009   5.585  12.083   7.026
35057SOL    HW154010   5.577  12.091   6.927
35057SOL    HW254011   5.672  12.121   7.056
35058SOL     OW54012   5.406   7.653   7.449
35058SOL    HW154013   5.327   7.703   7.485
35058SOL    HW254014   5.490   7.701   7.474
35059SOL     OW54015   5.185   6.433   7.691
35059SOL    HW154016   5.120   6.361   7.713
35059SOL    HW254017   5.244   6.450   7.770
35060SOL     OW54018  12.680   9.494   7.366
35060SOL    HW154019  12.594   9.521   7.409
35060SOL    HW254020  12.689   9.539   7.278
35061SOL     OW54021  12.921   4.165   0.515
35061SOL    HW154022  12.982   4.100   0.560
35061SOL    HW254023  12.885   4.230   0.582
35062SOL     OW54024   7.492  13.029   8.078
35062SOL    HW154025   7.540  13.109   8.114
35062SOL    HW254026   7.401  13.024   8.119
35063SOL     OW54027  10.003  15.646   1.029
35063SOL    HW154028   9.968  15.691   0.947
35063SOL    HW254029  10.100  15.667   1.042
35064SOL     OW54030  13.686   7.785   7.439
35064SOL    HW154031  13.663   7.789   7.537
35064SOL    HW254032  13.676   7.876   7.399
35065SOL     OW54033  12.398   3.525   0.922
35065SOL    HW154034  12.486   3.570   0.936
35065SOL    HW254035  12.353   3.511   1.010
35066SOL     OW54036   4.337  14.073   2.312
35066SOL    HW154037   4.244  14.046   2.337
35066SOL    HW254038   4.355  14.044   2.218
35067SOL     OW54039  14.988  11.692   0.051
35067SOL    HW154040  15.035  11.655   0.131
35067SOL    HW254041  15.004  11.631   8.427
35068SOL     OW54042   7.725   4.532   1.612
35068SOL    HW154043   7.695   4.527   1.707
35068SOL    HW254044   7.817   4.494   1.604
35069SOL     OW54045  10.072  12.280   7.800
35069SOL    HW154046  10.088  12.286   7.701
35069SOL    HW254047  10.131  12.344   7.848
35070SOL     OW54048   7.279   8.528   2.139
35070SOL    HW154049   7.344   8.474   2.192
35070SOL    HW254050   7.188   8.520   2.179
35071SOL     OW54051   1.551   4.618   0.376
35071SOL    HW154052   1.541   4.569   0.463
35071SOL    HW254053   1.612   4.566   0.316
35072SOL     OW54054   6.635   1.804   7.255
35072SOL    HW154055   6.608   1.889   7.209
35072SOL    HW254056   6.650   1.822   7.352
35073SOL     OW54057   4.429  13.413   7.241
35073SOL    HW154058   4.392  13.432   7.332
35073SOL    HW254059   4.519  13.456   7.233
35074SOL     OW54060  12.548  13.585   0.521
35074SOL    HW154061  12.614  13.541   0.459
35074SOL    HW254062  12.551  13.684   0.507
35075SOL     OW54063   1.135   8.264   7.790
35075SOL    HW154064   1.060   8.226   7.737
35075SOL    HW254065   1.220   8.217   7.765
35076SOL     OW54066   7.801  14.174   8.204
35076SOL    HW154067   7.834  14.084   8.175
35076SOL    HW254068   7.786  14.174   8.303
35077SOL     OW54069  13.666   2.080   5.978
35077SOL    HW154070  13.654   2.145   6.053
35077SOL    HW254071  13.762   2.076   5.953
35078SOL     OW54072   9.113   5.056   8.161
35078SOL    HW154073   9.110   4.968   8.115
35078SOL    HW254074   9.168   5.120   8.108
35079SOL     OW54075   2.830   5.857   0.603
35079SOL    HW154076   2.832   5.912   0.687
35079SOL    HW254077   2.810   5.917   0.526
35080SOL     OW54078  15.746   7.958   1.095
35080SOL    HW154079  15.798   7.960   1.010
35080SOL    HW254080  15.704   7.868   1.106
35081SOL     OW54081  15.311  14.347   1.324
35081SOL    HW154082  15.260  14.274   1.278
35081SOL    HW254083  15.268  14.435   1.305
35082SOL     OW54084   4.047   1.365   0.184
35082SOL    HW154085   3.975   1.295   0.185
35082SOL    HW254086   4.012   1.447   0.140
35083SOL     OW54087  16.442   0.870   6.085
35083SOL    HW154088  16.451   0.799   6.015
35083SOL    HW254089  16.533   0.896   6.117
35084SOL     OW54090   0.761   9.680   1.003
35084SOL    HW154091   0.711   9.645   0.924
35084SOL    HW254092   0.699   9.731   1.062
35085SOL     OW54093   1.728   9.434   0.159
35085SOL    HW154094   1.690   9.384   0.236
35085SOL    HW254095   1.827   9.420   0.156
35086SOL     OW54096  16.405  16.099   0.424
35086SOL    HW154097  16.403  16.192   0.461
35086SOL    HW254098  16.500  16.071   0.411
35087SOL     OW54099   7.651   4.143   6.592
35087SOL    HW154100   7.739   4.160   6.547
35087SOL    HW254101   7.593   4.088   6.532
35088SOL     OW54102  16.158  16.956   7.422
35088SOL    HW154103  16.065  16.981   7.450
35088SOL    HW254104  16.171  16.981   7.326
35089SOL     OW54105   1.541   8.209   7.922
35089SOL    HW154106   1.616   8.269   7.894
35089SOL    HW254107   1.501   8.243   8.006
35090SOL     OW54108   3.508   5.586   0.529
35090SOL    HW154109   3.529   5.609   0.434
35090SOL    HW254110   3.591   5.555   0.575
35091SOL     OW54111  14.304   2.129   6.015
35091SOL    HW154112  14.240   2.204   6.000
35091SOL    HW254113  14.291   2.059   5.945
35092SOL     OW54114   8.898   0.998   1.685
35092SOL    HW154115   8.904   0.961   1.778
35092SOL    HW254116   8.967   1.070   1.674
35093SOL     OW54117   8.467   9.852   0.045
35093SOL    HW154118   8.462   9.940   0.091
35093SOL    HW254119   8.399   9.849   8.425
35094SOL     OW54120  14.356   1.454   0.726
35094SOL    HW154121  14.373   1.514   0.649
35094SOL    HW254122  14.268   1.476   0.768
35095SOL     OW54123  14.154   1.752   7.744
35095SOL    HW154124  14.136   1.789   7.835
35095SOL    HW254125  14.159   1.652   7.748
35096SOL     OW54126   4.871  11.914   1.614
35096SOL    HW154127   4.785  11.926   1.564
35096SOL    HW254128   4.923  11.839   1.573
35097SOL     OW54129   5.760  14.902   7.281
35097SOL    HW154130   5.759  14.820   7.224
35097SOL    HW254131   5.715  14.977   7.232
35098SOL     OW54132   2.002  15.404   8.311
35098SOL    HW154133   2.073  15.438   8.374
35098SOL    HW254134   2.030  15.315   8.275
35099SOL     OW54135  15.038  10.253   7.410
35099SOL    HW154136  14.940  10.256   7.430
35099SOL    HW254137  15.056  10.179   7.346
35100SOL     OW54138  12.440   3.595   0.175
35100SOL    HW154139  12.480   3.683   0.150
35100SOL    HW254140  12.455   3.529   0.101
35101SOL     OW54141   9.172  14.737   2.217
35101SOL    HW154142   9.205  14.643   2.225
35101SOL    HW254143   9.250  14.798   2.206
35102SOL     OW54144  15.694   9.162   7.732
35102SOL    HW154145  15.684   9.170   7.831
35102SOL    HW254146  15.617   9.206   7.687
35103SOL     OW54147   0.698   7.775   8.079
35103SOL    HW154148   0.652   7.856   8.116
35103SOL    HW254149   0.785   7.761   8.127
35104SOL     OW54150   9.127  13.877   1.241
35104SOL    HW154151   9.210  13.894   1.188
35104SOL    HW254152   9.149  13.869   1.338
35105SOL     OW54153  13.280   0.512   7.160
35105SOL    HW154154  13.192   0.523   7.207
35105SOL    HW254155  13.354   0.534   7.222
35106SOL     OW54156  12.725  12.167   6.936
35106SOL    HW154157  12.709  12.083   6.886
35106SOL    HW254158  12.799  12.218   6.892
35107SOL     OW54159  11.128  13.210   7.675
35107SOL    HW154160  11.212  13.171   7.637
35107SOL    HW254161  11.115  13.178   7.769
35108SOL     OW54162  13.634  13.482   1.516
35108SOL    HW154163  13.691  13.456   1.594
35108SOL    HW254164  13.693  13.516   1.442
35109SOL     OW54165  14.365  15.358   8.381
35109SOL    HW154166  14.316  15.417   8.317
35109SOL    HW254167  14.302  15.326   8.451
35110SOL     OW54168  11.765  14.303   1.152
35110SOL    HW154169  11.841  14.246   1.183
35110SOL    HW254170  11.773  14.319   1.054
35111SOL     OW54171  15.248  10.533   1.005
35111SOL    HW154172  15.278  10.619   0.966
35111SOL    HW254173  15.319  10.464   0.993
35112SOL     OW54174   8.388   0.979   0.761
35112SOL    HW154175   8.311   0.919   0.782
35112SOL    HW254176   8.440   0.941   0.685
35113SOL     OW54177   9.916  12.003   6.824
35113SOL    HW154178   9.848  11.975   6.892
35113SOL    HW254179   9.872  12.060   6.754
35114SOL     OW54180  13.311  16.145   1.253
35114SOL    HW154181  13.268  16.095   1.178
35114SOL    HW254182  13.260  16.129   1.338
35115SOL     OW54183  16.351   0.314   0.060
35115SOL    HW154184  16.432   0.372   0.057
35115SOL    HW254185  16.364   0.235   0.000
35116SOL     OW54186   6.308   2.679   8.213
35116SOL    HW154187   6.307   2.691   8.114
35116SOL    HW254188   6.402   2.687   8.246
35117SOL     OW54189   1.714   5.602   0.997
35117SOL    HW154190   1.729   5.527   1.062
35117SOL    HW254191   1.784   5.672   1.010
35118SOL     OW54192  10.431   6.826   2.002
35118SOL    HW154193  10.495   6.896   1.972
35118SOL    HW254194  10.359   6.868   2.057
35119SOL     OW54195  10.107   8.099   1.806
35119SOL    HW154196  10.168   8.125   1.880
35119SOL    HW254197  10.060   8.014   1.830
35120SOL     OW54198  16.468  14.299   1.840
35120SOL    HW154199  16.470  14.328   1.744
35120SOL    HW254200  16.499  14.374   1.898
35121SOL     OW54201   7.505  14.832   6.858
35121SOL    HW154202   7.405  14.834   6.864
35121SOL    HW254203   7.535  14.898   6.790
35122SOL     OW54204  12.395   6.369   8.190
35122SOL    HW154205  12.312   6.317   8.168
35122SOL    HW254206  12.392   6.457   8.143
35123SOL     OW54207  16.612   3.935   0.587
35123SOL    HW154208  16.582   4.011   0.528
35123SOL    HW254209  16.662   3.972   0.666
35124SOL     OW54210   3.795  16.261   0.853
35124SOL    HW154211   3.766  16.166   0.861
35124SOL    HW254212   3.718  16.322   0.871
35125SOL     OW54213  12.748   6.246   6.618
35125SOL    HW154214  12.814   6.315   6.589
35125SOL    HW254215  12.772   6.212   6.709
35126SOL     OW54216   1.051  14.438   0.557
35126SOL    HW154217   1.058  14.526   0.510
35126SOL    HW254218   1.104  14.370   0.508
35127SOL     OW54219   4.869   3.260   8.395
35127SOL    HW154220   4.964   3.251   8.368
35127SOL    HW254221   4.822   3.323   8.333
35128SOL     OW54222   0.904  14.407   8.008
35128SOL    HW154223   0.977  14.385   7.943
35128SOL    HW254224   0.868  14.322   8.048
35129SOL     OW54225  16.773  15.026   0.218
35129SOL    HW154226  16.759  15.114   0.262
35129SOL    HW254227  16.735  14.953   0.275
35130SOL     OW54228   4.378   6.295   1.906
35130SOL    HW154229   4.328   6.325   1.987
35130SOL    HW254230   4.431   6.213   1.928
35131SOL     OW54231  11.563  14.317   7.954
35131SOL    HW154232  11.473  14.339   7.990
35131SOL    HW254233  11.629  14.308   8.029
35132SOL     OW54234  12.394   4.324   7.550
35132SOL    HW154235  12.391   4.224   7.548
35132SOL    HW254236  12.411   4.354   7.644
35133SOL     OW54237   6.295   7.058   7.047
35133SOL    HW154238   6.391   7.029   7.041
35133SOL    HW254239   6.270   7.076   7.142
35134SOL     OW54240  13.014  10.280   8.108
35134SOL    HW154241  13.054  10.352   8.165
35134SOL    HW254242  12.953  10.224   8.164
35135SOL     OW54243   2.693   2.143   0.763
35135SOL    HW154244   2.669   2.193   0.846
35135SOL    HW254245   2.685   2.045   0.779
35136SOL     OW54246  16.637  13.342   8.005
35136SOL    HW154247  16.663  13.262   8.060
35136SOL    HW254248  16.642  13.318   7.908
35137SOL     OW54249   9.624   8.572   0.335
35137SOL    HW154250   9.576   8.627   0.404
35137SOL    HW254251   9.620   8.619   0.247
35138SOL     OW54252   7.809   1.436   6.910
35138SOL    HW154253   7.781   1.465   7.001
35138SOL    HW254254   7.740   1.463   6.843
35139SOL     OW54255  11.422   4.340   0.392
35139SOL    HW154256  11.355   4.403   0.430
35139SOL    HW254257  11.392   4.309   0.302
35140SOL     OW54258  11.454   3.897   0.603
35140SOL    HW154259  11.440   3.801   0.580
35140SOL    HW254260  11.540   3.908   0.654
35141SOL     OW54261   8.217  14.251   6.799
35141SOL    HW154262   8.211  14.182   6.727
35141SOL    HW254263   8.311  14.256   6.833
35142SOL     OW54264  16.011   1.184   6.057
35142SOL    HW154265  15.959   1.232   5.986
35142SOL    HW254266  16.087   1.135   6.015
35143SOL     OW54267  11.402   1.731   6.383
35143SOL    HW154268  11.316   1.746   6.333
35143SOL    HW254269  11.457   1.663   6.335
35144SOL     OW54270  10.109   6.697   0.752
35144SOL    HW154271  10.183   6.661   0.810
35144SOL    HW254272  10.126   6.671   0.657
35145SOL     OW54273  13.541   4.139   7.621
35145SOL    HW154274  13.559   4.100   7.531
35145SOL    HW254275  13.549   4.239   7.616
35146SOL     OW54276  13.905  12.254   0.201
35146SOL    HW154277  13.985  12.241   0.259
35146SOL    HW254278  13.874  12.349   0.208
35147SOL     OW54279  14.483   2.029   0.772
35147SOL    HW154280  14.533   2.028   0.858
35147SOL    HW254281  14.535   1.980   0.702
35148SOL     OW54282   5.412   5.263   6.407
35148SOL    HW154283   5.496   5.306   6.373
35148SOL    HW254284   5.382   5.193   6.343
35149SOL     OW54285   7.531   7.339   6.720
35149SOL    HW154286   7.584   7.353   6.636
35149SOL    HW254287   7.448   7.395   6.717
35150SOL     OW54288   2.282   2.096   0.709
35150SOL    HW154289   2.308   2.163   0.639
35150SOL    HW254290   2.251   2.143   0.791
35151SOL     OW54291   9.426   0.593   5.830
35151SOL    HW154292   9.479   0.650   5.767
35151SOL    HW254293   9.458   0.498   5.824
35152SOL     OW54294   4.752   5.463   0.906
35152SOL    HW154295   4.678   5.420   0.957
35152SOL    HW254296   4.795   5.533   0.962
35153SOL     OW54297   9.873   5.013   8.423
35153SOL    HW154298   9.817   5.082   8.377
35153SOL    HW254299   9.901   5.048   0.059
35154SOL     OW54300   0.219   8.006   0.091
35154SOL    HW154301   0.227   8.019   0.190
35154SOL    HW254302   0.285   8.065   0.045
35155SOL     OW54303  14.568   4.394   7.714
35155SOL    HW154304  14.629   4.318   7.735
35155SOL    HW254305  14.480   4.380   7.760
35156SOL     OW54306  12.873   6.570   7.297
35156SOL    HW154307  12.958   6.605   7.337
35156SOL    HW254308  12.807   6.644   7.290
35157SOL     OW54309  13.423  13.734   1.761
35157SOL    HW154310  13.449  13.737   1.664
35157SOL    HW254311  13.397  13.826   1.792
35158SOL     OW54312   3.259  14.965   0.691
35158SOL    HW154313   3.327  14.934   0.625
35158SOL    HW254314   3.181  14.902   0.691
35159SOL     OW54315   3.890   1.545   1.566
35159SOL    HW154316   3.869   1.582   1.476
35159SOL    HW254317   3.987   1.556   1.586
35160SOL     OW54318   2.925   5.927   1.685
35160SOL    HW154319   3.014   5.888   1.663
35160SOL    HW254320   2.870   5.859   1.735
35161SOL     OW54321   4.209  15.820   7.506
35161SOL    HW154322   4.302  15.792   7.532
35161SOL    HW254323   4.159  15.847   7.588
35162SOL     OW54324   8.172  12.354   8.431
35162SOL    HW154325   8.186  12.288   8.357
35162SOL    HW254326   8.120  12.312   0.051
35163SOL     OW54327  15.767   1.577   7.793
35163SOL    HW154328  15.749   1.510   7.720
35163SOL    HW254329  15.774   1.529   7.881
35164SOL     OW54330   1.368   0.559   0.227
35164SOL    HW154331   1.283   0.587   0.183
35164SOL    HW254332   1.397   0.470   0.191
35165SOL     OW54333  11.248   5.654   6.300
35165SOL    HW154334  11.171   5.628   6.359
35165SOL    HW254335  11.239   5.750   6.273
35166SOL     OW54336  15.612  13.531   0.543
35166SOL    HW154337  15.535  13.518   0.606
35166SOL    HW254338  15.577  13.564   0.455
35167SOL     OW54339  13.634   1.683   6.595
35167SOL    HW154340  13.697   1.644   6.662
35167SOL    HW254341  13.679   1.690   6.506
35168SOL     OW54342   0.940   8.234   0.046
35168SOL    HW154343   0.983   8.190   0.125
35168SOL    HW254344   1.008   8.289   8.451
35169SOL     OW54345  11.558   6.482   6.858
35169SOL    HW154346  11.570   6.504   6.955
35169SOL    HW254347  11.604   6.395   6.838
35170SOL     OW54348   5.638   3.126   8.003
35170SOL    HW154349   5.680   3.047   7.958
35170SOL    HW254350   5.544   3.103   8.030
35171SOL     OW54351   7.622   5.422   7.846
35171SOL    HW154352   7.651   5.513   7.818
35171SOL    HW254353   7.647   5.356   7.774
35172SOL     OW54354   6.647  14.225   2.327
35172SOL    HW154355   6.576  14.236   2.397
35172SOL    HW254356   6.717  14.162   2.359
35173SOL     OW54357   7.448   4.792   1.814
35173SOL    HW154358   7.413   4.776   1.906
35173SOL    HW254359   7.511   4.870   1.814
35174SOL     OW54360  12.007   4.509   8.017
35174SOL    HW154361  12.091   4.501   8.071
35174SOL    HW254362  11.937   4.554   8.072
35175SOL     OW54363  13.381   6.331   6.951
35175SOL    HW154364  13.448   6.351   7.023
35175SOL    HW254365  13.395   6.393   6.874
35176SOL     OW54366   2.146   4.063   0.211
35176SOL    HW154367   2.213   4.130   0.178
35176SOL    HW254368   2.184   4.016   0.291
35177SOL     OW54369   8.399   5.710   0.323
35177SOL    HW154370   8.484   5.658   0.312
35177SOL    HW254371   8.355   5.685   0.409
35178SOL     OW54372   3.282  10.851   1.898
35178SOL    HW154373   3.217  10.903   1.842
35178SOL    HW254374   3.232  10.804   1.971
35179SOL     OW54375  12.062   7.024   6.281
35179SOL    HW154376  12.077   7.014   6.182
35179SOL    HW254377  11.964   7.031   6.299
35180SOL     OW54378  14.590   0.188   7.206
35180SOL    HW154379  14.528   0.114   7.234
35180SOL    HW254380  14.664   0.149   7.151
35181SOL     OW54381   1.148   7.444   6.703
35181SOL    HW154382   1.216   7.496   6.651
35181SOL    HW254383   1.109   7.372   6.645
35182SOL     OW54384   9.265   6.385   6.706
35182SOL    HW154385   9.351   6.409   6.660
35182SOL    HW254386   9.285   6.361   6.802
35183SOL     OW54387   5.222   9.033   6.855
35183SOL    HW154388   5.129   9.006   6.880
35183SOL    HW254389   5.250   8.983   6.773
35184SOL     OW54390   3.288  14.930   1.780
35184SOL    HW154391   3.293  14.976   1.692
35184SOL    HW254392   3.355  14.970   1.842
35185SOL     OW54393   1.129   7.635   0.213
35185SOL    HW154394   1.150   7.627   0.310
35185SOL    HW254395   1.213   7.623   0.160
35186SOL     OW54396  16.632   8.969   7.071
35186SOL    HW154397  16.677   8.881   7.058
35186SOL    HW254398  16.695   9.032   7.117
35187SOL     OW54399   7.531   2.258   6.381
35187SOL    HW154400   7.623   2.284   6.410
35187SOL    HW254401   7.535   2.222   6.288
35188SOL     OW54402  14.208  12.374   2.914
35188SOL    HW154403  14.159  12.430   2.981
35188SOL    HW254404  14.259  12.302   2.960
35189SOL     OW54405  12.244   8.020   7.020
35189SOL    HW154406  12.250   8.008   7.119
35189SOL    HW254407  12.242   7.930   6.976
35190SOL     OW54408  10.833  15.403   1.104
35190SOL    HW154409  10.898  15.382   1.176
35190SOL    HW254410  10.794  15.318   1.068
35191SOL     OW54411  16.175  12.831   7.284
35191SOL    HW154412  16.149  12.811   7.379
35191SOL    HW254413  16.260  12.783   7.262
35192SOL     OW54414  13.751  11.157   7.994
35192SOL    HW154415  13.782  11.194   8.081
35192SOL    HW254416  13.789  11.066   7.981
35193SOL     OW54417  11.119   5.394   6.029
35193SOL    HW154418  11.152   5.367   5.939
35193SOL    HW254419  11.195   5.396   6.094
35194SOL     OW54420   0.491   1.437   6.935
35194SOL    HW154421   0.573   1.468   6.984
35194SOL    HW254422   0.411   1.485   6.972
35195SOL     OW54423  10.295  13.999   7.229
35195SOL    HW154424  10.289  13.899   7.233
35195SOL    HW254425  10.378  14.029   7.276
35196SOL     OW54426   0.201   3.558   6.301
35196SOL    HW154427   0.287   3.531   6.258
35196SOL    HW254428   0.162   3.635   6.250
35197SOL     OW54429   4.745   9.581   1.861
35197SOL    HW154430   4.729   9.634   1.944
35197SOL    HW254431   4.838   9.543   1.864
35198SOL     OW54432   7.848   2.713   7.197
35198SOL    HW154433   7.828   2.809   7.216
35198SOL    HW254434   7.790   2.680   7.123
35199SOL     OW54435  15.498   1.335   8.367
35199SOL    HW154436  15.580   1.391   8.364
35199SOL    HW254437  15.505   1.268   8.441
35200SOL     OW54438   7.072  15.778   0.211
35200SOL    HW154439   6.981  15.807   0.238
35200SOL    HW254440   7.103  15.834   0.133
35201SOL     OW54441  13.938   3.309   8.415
35201SOL    HW154442  13.937   3.255   8.330
35201SOL    HW254443  13.844   3.332   8.440
35202SOL     OW54444  13.979  15.796   7.265
35202SOL    HW154445  13.917  15.868   7.297
35202SOL    HW254446  13.926  15.722   7.224
35203SOL     OW54447   6.414   5.727   7.336
35203SOL    HW154448   6.460   5.803   7.382
35203SOL    HW254449   6.320   5.719   7.369
35204SOL     OW54450   8.148  11.985   7.044
35204SOL    HW154451   8.062  11.974   6.994
35204SOL    HW254452   8.222  12.006   6.980
35205SOL     OW54453  13.256   9.658   1.221
35205SOL    HW154454  13.295   9.749   1.234
35205SOL    HW254455  13.212   9.653   1.131
35206SOL     OW54456   1.133   5.334   8.207
35206SOL    HW154457   1.144   5.427   8.171
35206SOL    HW254458   1.111   5.272   8.133
35207SOL     OW54459   0.655   6.952   8.420
35207SOL    HW154460   0.559   6.963   8.395
35207SOL    HW254461   0.686   7.033   0.016
35208SOL     OW54462  11.090   0.825   6.700
35208SOL    HW154463  11.084   0.770   6.617
35208SOL    HW254464  11.177   0.808   6.746
35209SOL     OW54465   4.021   1.208   0.927
35209SOL    HW154466   4.062   1.125   0.888
35209SOL    HW254467   4.085   1.247   0.994
35210SOL     OW54468  10.897  14.736   7.484
35210SOL    HW154469  10.941  14.787   7.558
35210SOL    HW254470  10.893  14.793   7.402
35211SOL     OW54471   9.791   8.319   6.173
35211SOL    HW154472   9.773   8.221   6.169
35211SOL    HW254473   9.731   8.366   6.109
35212SOL     OW54474  15.911  12.571   6.720
35212SOL    HW154475  15.874  12.508   6.652
35212SOL    HW254476  15.851  12.573   6.800
35213SOL     OW54477   8.469   1.811   1.135
35213SOL    HW154478   8.551   1.754   1.134
35213SOL    HW254479   8.401   1.770   1.196
35214SOL     OW54480   0.444  14.251   7.859
35214SOL    HW154481   0.358  14.201   7.863
35214SOL    HW254482   0.519  14.191   7.886
35215SOL     OW54483   0.155   6.134   0.942
35215SOL    HW154484   0.168   6.116   1.040
35215SOL    HW254485   0.113   6.224   0.930
35216SOL     OW54486   8.203   9.122   7.777
35216SOL    HW154487   8.244   9.210   7.803
35216SOL    HW254488   8.114   9.113   7.822
35217SOL     OW54489   2.109   6.424   0.386
35217SOL    HW154490   2.033   6.374   0.346
35217SOL    HW254491   2.086   6.521   0.391
35218SOL     OW54492  15.124  11.956   0.756
35218SOL    HW154493  15.045  11.944   0.695
35218SOL    HW254494  15.148  12.053   0.760
35219SOL     OW54495   6.974   9.980   8.395
35219SOL    HW154496   6.968   9.928   0.027
35219SOL    HW254497   6.885   9.981   8.350
35220SOL     OW54498   8.153   6.081   6.582
35220SOL    HW154499   8.159   6.164   6.527
35220SOL    HW254500   8.110   6.102   6.669
35221SOL     OW54501  16.457   6.053   1.146
35221SOL    HW154502  16.412   6.131   1.188
35221SOL    HW254503  16.525   6.086   1.080
35222SOL     OW54504   7.094   7.486   1.102
35222SOL    HW154505   7.182   7.454   1.139
35222SOL    HW254506   7.110   7.534   1.016
35223SOL     OW54507  13.544   0.886   7.994
35223SOL    HW154508  13.446   0.866   8.002
35223SOL    HW254509  13.559   0.950   7.918
35224SOL     OW54510   2.061   9.750   7.832
35224SOL    HW154511   2.114   9.668   7.813
35224SOL    HW254512   2.015   9.780   7.749
35225SOL     OW54513  10.610  12.899   8.383
35225SOL    HW154514  10.703  12.900   8.419
35225SOL    HW254515  10.610  12.858   8.292
35226SOL     OW54516  15.410   7.777   0.867
35226SOL    HW154517  15.354   7.765   0.950
35226SOL    HW254518  15.411   7.692   0.815
35227SOL     OW54519   9.884   3.572   7.459
35227SOL    HW154520   9.855   3.490   7.409
35227SOL    HW254521   9.891   3.649   7.396
35228SOL     OW54522   8.748   2.694   0.640
35228SOL    HW154523   8.814   2.728   0.707
35228SOL    HW254524   8.690   2.625   0.683
35229SOL     OW54525   7.026   7.015   1.713
35229SOL    HW154526   7.095   6.999   1.783
35229SOL    HW254527   6.957   7.078   1.749
35230SOL     OW54528   9.695   1.866   6.426
35230SOL    HW154529   9.791   1.894   6.435
35230SOL    HW254530   9.652   1.918   6.352
35231SOL     OW54531   4.971   9.522   7.853
35231SOL    HW154532   4.909   9.448   7.831
35231SOL    HW254533   5.052   9.486   7.899
35232SOL     OW54534   4.423   6.556   7.761
35232SOL    HW154535   4.388   6.528   7.851
35232SOL    HW254536   4.397   6.651   7.743
35233SOL     OW54537  10.552  13.871   1.878
35233SOL    HW154538  10.601  13.939   1.931
35233SOL    HW254539  10.522  13.911   1.791
35234SOL     OW54540  10.272  13.230   7.293
35234SOL    HW154541  10.339  13.301   7.272
35234SOL    HW254542  10.317  13.141   7.298
35235SOL     OW54543   0.720  10.986   0.916
35235SOL    HW154544   0.644  10.921   0.922
35235SOL    HW254545   0.784  10.956   0.845
35236SOL     OW54546   2.096  16.799   1.856
35236SOL    HW154547   2.078  16.830   1.949
35236SOL    HW254548   2.165  16.857   1.813
35237SOL     OW54549   3.149   4.484   7.015
35237SOL    HW154550   3.121   4.442   7.101
35237SOL    HW254551   3.072   4.533   6.974
35238SOL     OW54552  16.851   1.454   1.475
35238SOL    HW154553  16.816   1.361   1.470
35238SOL    HW254554  16.778   1.516   1.503
35239SOL     OW54555  11.404  15.715   0.729
35239SOL    HW154556  11.435  15.644   0.666
35239SOL    HW254557  11.383  15.673   0.818
35240SOL     OW54558   0.269   9.180   7.889
35240SOL    HW154559   0.329   9.133   7.825
35240SOL    HW254560   0.306   9.270   7.909
35241SOL     OW54561  13.706   6.106   7.834
35241SOL    HW154562  13.627   6.062   7.877
35241SOL    HW254563  13.676   6.189   7.786
35242SOL     OW54564   4.936  12.708   8.164
35242SOL    HW154565   4.882  12.773   8.111
35242SOL    HW254566   4.884  12.624   8.177
35243SOL     OW54567   2.565   1.549   1.973
35243SOL    HW154568   2.472   1.525   2.001
35243SOL    HW254569   2.561   1.609   1.893
35244SOL     OW54570  10.010   1.410   5.982
35244SOL    HW154571   9.963   1.385   5.898
35244SOL    HW254572   9.976   1.354   6.057
35245SOL     OW54573   6.867   5.175   0.272
35245SOL    HW154574   6.806   5.120   0.329
35245SOL    HW254575   6.839   5.169   0.177
35246SOL     OW54576  13.863  10.076   8.299
35246SOL    HW154577  13.847   9.977   8.306
35246SOL    HW254578  13.959  10.094   8.282
35247SOL     OW54579  11.828   5.500   0.371
35247SOL    HW154580  11.814   5.537   0.279
35247SOL    HW254581  11.755   5.435   0.392
35248SOL     OW54582  15.950  13.865   6.397
35248SOL    HW154583  15.881  13.931   6.428
35248SOL    HW254584  15.929  13.837   6.303
35249SOL     OW54585  14.765   2.451   7.490
35249SOL    HW154586  14.833   2.519   7.518
35249SOL    HW254587  14.687   2.498   7.449
35250SOL     OW54588   3.619  14.244   7.224
35250SOL    HW154589   3.667  14.159   7.247
35250SOL    HW254590   3.630  14.263   7.126
35251SOL     OW54591  16.178   1.945   1.380
35251SOL    HW154592  16.181   1.860   1.328
35251SOL    HW254593  16.238   1.938   1.460
35252SOL     OW54594  14.068  13.042   0.763
35252SOL    HW154595  14.049  12.991   0.847
35252SOL    HW254596  14.166  13.063   0.759
35253SOL     OW54597  10.670   4.858   6.097
35253SOL    HW154598  10.586   4.889   6.141
35253SOL    HW254599  10.661   4.865   5.998
35254SOL     OW54600   4.277  14.301   2.480
35254SOL    HW154601   4.195  14.293   2.537
35254SOL    HW254602   4.291  14.214   2.432
35255SOL     OW54603   4.589  12.680   0.118
35255SOL    HW154604   4.614  12.684   0.215
35255SOL    HW254605   4.609  12.589   0.082
35256SOL     OW54606  10.482   8.747   8.015
35256SOL    HW154607  10.433   8.710   7.936
35256SOL    HW254608  10.420   8.753   8.093
35257SOL     OW54609   1.220   4.826   8.225
35257SOL    HW154610   1.253   4.898   8.286
35257SOL    HW254611   1.147   4.776   8.271
35258SOL     OW54612   4.767   0.577   1.398
35258SOL    HW154613   4.703   0.563   1.323
35258SOL    HW254614   4.855   0.609   1.362
35259SOL     OW54615   0.919  15.474   7.177
35259SOL    HW154616   0.899  15.378   7.197
35259SOL    HW254617   1.009  15.498   7.215
35260SOL     OW54618  15.859   2.084   7.910
35260SOL    HW154619  15.868   1.992   7.870
35260SOL    HW254620  15.917   2.090   7.991
35261SOL     OW54621   8.454  15.206   1.141
35261SOL    HW154622   8.442  15.278   1.073
35261SOL    HW254623   8.483  15.246   1.227
35262SOL     OW54624  14.793  16.304   6.475
35262SOL    HW154625  14.835  16.267   6.393
35262SOL    HW254626  14.856  16.369   6.518
35263SOL     OW54627   7.194   2.078   1.210
35263SOL    HW154628   7.258   2.011   1.174
35263SOL    HW254629   7.101   2.056   1.180
35264SOL     OW54630   5.919  15.484   7.143
35264SOL    HW154631   5.901  15.386   7.152
35264SOL    HW254632   5.860  15.535   7.206
35265SOL     OW54633   8.905  10.739   7.775
35265SOL    HW154634   8.846  10.686   7.836
35265SOL    HW254635   8.973  10.679   7.733
35266SOL     OW54636   3.184  16.167   7.681
35266SOL    HW154637   3.249  16.243   7.688
35266SOL    HW254638   3.235  16.081   7.679
35267SOL     OW54639   4.770  13.182   1.229
35267SOL    HW154640   4.770  13.275   1.265
35267SOL    HW254641   4.865  13.152   1.213
35268SOL     OW54642   0.016   5.053   7.563
35268SOL    HW154643  16.947   5.134   7.535
35268SOL    HW254644  16.941   4.972   7.554
35269SOL     OW54645  14.392  16.821   7.607
35269SOL    HW154646  14.429  16.734   7.574
35269SOL    HW254647  14.295  16.810   7.628
35270SOL     OW54648   8.481  10.120   1.795
35270SOL    HW154649   8.495  10.087   1.889
35270SOL    HW254650   8.567  10.110   1.744
35271SOL     OW54651  15.288   7.553   7.112
35271SOL    HW154652  15.266   7.645   7.145
35271SOL    HW254653  15.337   7.503   7.184
35272SOL     OW54654   3.565   4.706   1.150
35272SOL    HW154655   3.482   4.752   1.118
35272SOL    HW254656   3.600   4.646   1.077
35273SOL     OW54657  12.828   3.573   0.355
35273SOL    HW154658  12.804   3.509   0.428
35273SOL    HW254659  12.834   3.524   0.268
35274SOL     OW54660   1.760  11.214   6.636
35274SOL    HW154661   1.804  11.177   6.718
35274SOL    HW254662   1.679  11.160   6.614
35275SOL     OW54663  12.727   6.558   2.066
35275SOL    HW154664  12.718   6.496   1.987
35275SOL    HW254665  12.673   6.523   2.142
35276SOL     OW54666   5.700   5.034   1.325
35276SOL    HW154667   5.769   4.965   1.344
35276SOL    HW254668   5.681   5.087   1.407
35277SOL     OW54669   9.874   5.940   7.189
35277SOL    HW154670   9.863   5.840   7.186
35277SOL    HW254671   9.911   5.967   7.278
35278SOL     OW54672   6.940   5.402   8.195
35278SOL    HW154673   7.032   5.437   8.213
35278SOL    HW254674   6.886   5.404   8.280
35279SOL     OW54675  15.827   7.344   7.129
35279SOL    HW154676  15.798   7.397   7.208
35279SOL    HW254677  15.910   7.293   7.151
35280SOL     OW54678   2.621  12.144   6.716
35280SOL    HW154679   2.652  12.216   6.778
35280SOL    HW254680   2.698  12.110   6.662
35281SOL     OW54681  14.671   1.914   0.068
35281SOL    HW154682  14.717   1.844   0.014
35281SOL    HW254683  14.638   1.873   0.154
35282SOL     OW54684   1.292   8.379   0.592
35282SOL    HW154685   1.378   8.357   0.545
35282SOL    HW254686   1.286   8.478   0.606
35283SOL     OW54687   8.583  13.636   7.988
35283SOL    HW154688   8.502  13.656   7.932
35283SOL    HW254689   8.559  13.570   8.059
35284SOL     OW54690   4.349   7.267   7.235
35284SOL    HW154691   4.319   7.207   7.161
35284SOL    HW254692   4.270   7.316   7.272
35285SOL     OW54693  16.851  13.757   7.918
35285SOL    HW154694  16.839  13.673   7.970
35285SOL    HW254695  16.821  13.835   7.973
35286SOL     OW54696   4.295  13.352   2.312
35286SOL    HW154697   4.384  13.353   2.357
35286SOL    HW254698   4.239  13.278   2.350
35287SOL     OW54699  10.782   4.692   1.138
35287SOL    HW154700  10.785   4.790   1.117
35287SOL    HW254701  10.815   4.677   1.232
35288SOL     OW54702   9.008   7.728   1.604
35288SOL    HW154703   8.953   7.770   1.676
35288SOL    HW254704   9.100   7.710   1.638
35289SOL     OW54705  13.563   2.523   7.352
35289SOL    HW154706  13.486   2.463   7.332
35289SOL    HW254707  13.647   2.484   7.314
35290SOL     OW54708   9.520   9.650   7.549
35290SOL    HW154709   9.546   9.560   7.515
35290SOL    HW254710   9.495   9.708   7.472
35291SOL     OW54711   9.047  14.280   5.713
35291SOL    HW154712   9.046  14.210   5.641
35291SOL    HW254713   9.084  14.240   5.797
35292SOL     OW54714   5.107   7.609   7.223
35292SOL    HW154715   5.169   7.553   7.278
35292SOL    HW254716   5.128   7.705   7.236
35293SOL     OW54717  11.615   5.442   7.022
35293SOL    HW154718  11.573   5.529   7.047
35293SOL    HW254719  11.609   5.429   6.923
35294SOL     OW54720   4.487   0.375   0.303
35294SOL    HW154721   4.461   0.314   0.229
35294SOL    HW254722   4.458   0.336   0.391
35295SOL     OW54723  12.986   1.227   8.336
35295SOL    HW154724  13.003   1.325   8.351
35295SOL    HW254725  12.949   1.214   8.244
35296SOL     OW54726   3.244  13.353   7.053
35296SOL    HW154727   3.311  13.329   7.123
35296SOL    HW254728   3.285  13.341   6.962
35297SOL     OW54729  14.915   1.601   0.349
35297SOL    HW154730  14.816   1.585   0.355
35297SOL    HW254731  14.938   1.683   0.401
35298SOL     OW54732   9.778   2.631   6.587
35298SOL    HW154733   9.878   2.632   6.585
35298SOL    HW254734   9.746   2.536   6.594
35299SOL     OW54735  11.779   5.820   0.811
35299SOL    HW154736  11.778   5.754   0.736
35299SOL    HW254737  11.809   5.909   0.778
35300SOL     OW54738  12.784   4.146   0.817
35300SOL    HW154739  12.786   4.050   0.789
35300SOL    HW254740  12.854   4.163   0.886
35301SOL     OW54741   4.656  10.147   7.452
35301SOL    HW154742   4.679  10.216   7.383
35301SOL    HW254743   4.559  10.153   7.474
35302SOL     OW54744  14.622  12.379   2.322
35302SOL    HW154745  14.677  12.350   2.400
35302SOL    HW254746  14.555  12.308   2.299
35303SOL     OW54747  14.444   5.341   0.072
35303SOL    HW154748  14.377   5.408   0.039
35303SOL    HW254749  14.486   5.375   0.156
35304SOL     OW54750  16.475  15.890   8.390
35304SOL    HW154751  16.561  15.850   8.358
35304SOL    HW254752  16.492  15.984   8.421
35305SOL     OW54753   3.573  10.236   0.672
35305SOL    HW154754   3.508  10.300   0.712
35305SOL    HW254755   3.569  10.149   0.722
35306SOL     OW54756  11.308  10.737   7.210
35306SOL    HW154757  11.254  10.818   7.191
35306SOL    HW254758  11.361  10.712   7.129
35307SOL     OW54759  13.889   8.689   5.945
35307SOL    HW154760  13.921   8.594   5.945
35307SOL    HW254761  13.828   8.705   5.867
35308SOL     OW54762   1.968   8.119   7.709
35308SOL    HW154763   2.048   8.078   7.754
35308SOL    HW254764   1.977   8.218   7.710
35309SOL     OW54765   0.181   8.529   6.774
35309SOL    HW154766   0.206   8.590   6.698
35309SOL    HW254767   0.194   8.434   6.746
35310SOL     OW54768   0.456   0.879   7.156
35310SOL    HW154769   0.360   0.851   7.147
35310SOL    HW254770   0.512   0.827   7.091
35311SOL     OW54771  15.914   5.429   6.669
35311SOL    HW154772  15.835   5.474   6.709
35311SOL    HW254773  15.952   5.486   6.596
35312SOL     OW54774   9.867  16.717   8.295
35312SOL    HW154775   9.961  16.682   8.288
35312SOL    HW254776   9.818  16.698   8.210
35313SOL     OW54777   6.810   8.770   6.796
35313SOL    HW154778   6.843   8.682   6.762
35313SOL    HW254779   6.786   8.829   6.719
35314SOL     OW54780   5.758  11.979   8.268
35314SOL    HW154781   5.793  11.891   8.301
35314SOL    HW254782   5.813  12.009   8.190
35315SOL     OW54783   8.198  13.429   0.300
35315SOL    HW154784   8.165  13.385   0.384
35315SOL    HW254785   8.137  13.404   0.224
35316SOL     OW54786   3.291   9.129   0.744
35316SOL    HW154787   3.194   9.108   0.736
35316SOL    HW254788   3.345   9.065   0.689
35317SOL     OW54789  10.642  15.486   6.090
35317SOL    HW154790  10.678  15.393   6.086
35317SOL    HW254791  10.559  15.492   6.033
35318SOL     OW54792  14.075   4.777   6.462
35318SOL    HW154793  13.977   4.766   6.473
35318SOL    HW254794  14.103   4.739   6.373
35319SOL     OW54795  16.774   3.103   8.062
35319SOL    HW154796  16.678   3.122   8.042
35319SOL    HW254797  16.799   3.145   8.150
35320SOL     OW54798  15.208   0.196   0.351
35320SOL    HW154799  15.208   0.098   0.372
35320SOL    HW254800  15.270   0.214   0.274
35321SOL     OW54801  16.119   4.433   1.492
35321SOL    HW154802  16.058   4.466   1.420
35321SOL    HW254803  16.111   4.492   1.572
35322SOL     OW54804  12.538   9.300   6.546
35322SOL    HW154805  12.616   9.245   6.518
35322SOL    HW254806  12.565   9.396   6.551
35323SOL     OW54807   0.588   8.419   1.377
35323SOL    HW154808   0.616   8.489   1.442
35323SOL    HW254809   0.563   8.462   1.290
35324SOL     OW54810  11.391  12.469   7.225
35324SOL    HW154811  11.334  12.506   7.299
35324SOL    HW254812  11.482  12.508   7.232
35325SOL     OW54813   0.901   2.394   6.895
35325SOL    HW154814   0.846   2.338   6.833
35325SOL    HW254815   0.992   2.355   6.904
35326SOL     OW54816   3.614   9.591   8.148
35326SOL    HW154817   3.694   9.595   8.207
35326SOL    HW254818   3.532   9.613   8.201
35327SOL     OW54819  16.563   5.977   7.493
35327SOL    HW154820  16.505   6.003   7.570
35327SOL    HW254821  16.635   6.045   7.481
35328SOL     OW54822   0.196   3.946   0.278
35328SOL    HW154823   0.233   3.889   0.205
35328SOL    HW254824   0.263   4.015   0.304
35329SOL     OW54825   2.016   2.220   2.307
35329SOL    HW154826   2.070   2.182   2.382
35329SOL    HW254827   2.001   2.318   2.324
35330SOL     OW54828   1.150   0.459   8.209
35330SOL    HW154829   1.183   0.414   8.126
35330SOL    HW254830   1.116   0.391   8.273
35331SOL     OW54831   1.186   8.094   2.244
35331SOL    HW154832   1.277   8.053   2.257
35331SOL    HW254833   1.179   8.177   2.299
35332SOL     OW54834   3.665   2.724   1.793
35332SOL    HW154835   3.658   2.823   1.809
35332SOL    HW254836   3.596   2.676   1.846
35333SOL     OW54837  13.033  11.780   1.606
35333SOL    HW154838  13.117  11.802   1.556
35333SOL    HW254839  13.056  11.727   1.687
35334SOL     OW54840  12.363  12.686   0.491
35334SOL    HW154841  12.407  12.668   0.579
35334SOL    HW254842  12.284  12.745   0.505
35335SOL     OW54843  16.494   5.155   1.409
35335SOL    HW154844  16.440   5.158   1.494
35335SOL    HW254845  16.442   5.197   1.335
35336SOL     OW54846   4.194   8.002   7.163
35336SOL    HW154847   4.293   8.001   7.153
35336SOL    HW254848   4.151   7.962   7.082
35337SOL     OW54849   9.324   1.892   1.452
35337SOL    HW154850   9.423   1.879   1.449
35337SOL    HW254851   9.299   1.931   1.541
35338SOL     OW54852   0.285   8.649   8.117
35338SOL    HW154853   0.275   8.663   8.215
35338SOL    HW254854   0.380   8.626   8.096
35339SOL     OW54855   8.264  11.435   1.701
35339SOL    HW154856   8.348  11.393   1.736
35339SOL    HW254857   8.281  11.469   1.608
35340SOL     OW54858  14.687   2.818   5.887
35340SOL    HW154859  14.744   2.828   5.806
35340SOL    HW254860  14.593   2.799   5.860
35341SOL     OW54861  15.773   8.564   7.692
35341SOL    HW154862  15.769   8.649   7.640
35341SOL    HW254863  15.703   8.565   7.763
35342SOL     OW54864  16.071   1.167   0.901
35342SOL    HW154865  16.164   1.197   0.880
35342SOL    HW254866  16.018   1.160   0.816
35343SOL     OW54867   6.873  11.496   1.657
35343SOL    HW154868   6.875  11.550   1.741
35343SOL    HW254869   6.799  11.428   1.663
35344SOL     OW54870  14.759  14.677   0.115
35344SOL    HW154871  14.850  14.712   0.091
35344SOL    HW254872  14.698  14.753   0.137
35345SOL     OW54873   7.543  10.715   7.768
35345SOL    HW154874   7.462  10.696   7.712
35345SOL    HW254875   7.625  10.703   7.714
35346SOL     OW54876   7.708  13.571   6.501
35346SOL    HW154877   7.743  13.567   6.595
35346SOL    HW254878   7.634  13.505   6.491
35347SOL     OW54879   8.710  15.778   6.741
35347SOL    HW154880   8.702  15.849   6.811
35347SOL    HW254881   8.691  15.817   6.651
35348SOL     OW54882  16.931  16.786   6.520
35348SOL    HW154883   0.016  16.860   6.516
35348SOL    HW254884  16.978  16.700   6.537
35349SOL     OW54885  13.002   5.009   8.288
35349SOL    HW154886  13.052   5.058   8.217
35349SOL    HW254887  13.027   4.913   8.286
35350SOL     OW54888   6.731   6.111   8.226
35350SOL    HW154889   6.786   6.178   8.176
35350SOL    HW254890   6.646   6.155   8.257
35351SOL     OW54891   5.664   7.396   6.814
35351SOL    HW154892   5.611   7.316   6.840
35351SOL    HW254893   5.758   7.386   6.846
35352SOL     OW54894   9.268  15.890   1.591
35352SOL    HW154895   9.274  15.927   1.684
35352SOL    HW254896   9.334  15.936   1.532
35353SOL     OW54897   3.368   8.776   7.567
35353SOL    HW154898   3.422   8.814   7.642
35353SOL    HW254899   3.295   8.840   7.542
35354SOL     OW54900   7.981   8.953   7.178
35354SOL    HW154901   7.995   8.877   7.115
35354SOL    HW254902   7.993   8.920   7.272
35355SOL     OW54903   2.367   1.318   7.754
35355SOL    HW154904   2.346   1.231   7.800
35355SOL    HW254905   2.313   1.326   7.671
35356SOL     OW54906  11.184  13.384   7.293
35356SOL    HW154907  11.239  13.441   7.232
35356SOL    HW254908  11.156  13.438   7.372
35357SOL     OW54909   4.755   2.053   7.631
35357SOL    HW154910   4.766   1.956   7.651
35357SOL    HW254911   4.682   2.091   7.688
35358SOL     OW54912  15.017   1.069   1.246
35358SOL    HW154913  14.919   1.066   1.266
35358SOL    HW254914  15.042   1.159   1.212
35359SOL     OW54915   5.600   4.792   7.094
35359SOL    HW154916   5.572   4.868   7.036
35359SOL    HW254917   5.642   4.827   7.177
35360SOL     OW54918  14.525   7.534   0.207
35360SOL    HW154919  14.490   7.619   0.247
35360SOL    HW254920  14.573   7.555   0.122
35361SOL     OW54921   8.498   7.454   1.075
35361SOL    HW154922   8.565   7.415   1.013
35361SOL    HW254923   8.475   7.386   1.145
35362SOL     OW54924  11.356   9.618   6.851
35362SOL    HW154925  11.295   9.692   6.880
35362SOL    HW254926  11.445   9.657   6.825
35363SOL     OW54927   2.060   3.491   2.078
35363SOL    HW154928   2.068   3.397   2.113
35363SOL    HW254929   2.119   3.552   2.131
35364SOL     OW54930  10.850   6.320   7.340
35364SOL    HW154931  10.882   6.225   7.336
35364SOL    HW254932  10.928   6.380   7.360
35365SOL     OW54933   5.361   9.750   7.185
35365SOL    HW154934   5.331   9.774   7.277
35365SOL    HW254935   5.357   9.651   7.173
35366SOL     OW54936  13.041   2.950   8.121
35366SOL    HW154937  12.989   2.886   8.177
35366SOL    HW254938  13.058   2.910   8.031
35367SOL     OW54939  11.080   4.979   1.397
35367SOL    HW154940  11.069   4.978   1.298
35367SOL    HW254941  11.077   5.074   1.430
35368SOL     OW54942   5.783  11.486   8.406
35368SOL    HW154943   5.850  11.414   8.391
35368SOL    HW254944   5.693  11.455   8.376
35369SOL     OW54945  10.444   2.550   6.698
35369SOL    HW154946  10.421   2.503   6.783
35369SOL    HW254947  10.426   2.490   6.620
35370SOL     OW54948   3.523  15.056   8.199
35370SOL    HW154949   3.622  15.044   8.195
35370SOL    HW254950   3.499  15.145   8.161
35371SOL     OW54951  11.081   1.044   8.108
35371SOL    HW154952  11.018   1.041   8.031
35371SOL    HW254953  11.031   1.066   8.192
35372SOL     OW54954   5.060   6.948   7.992
35372SOL    HW154955   5.079   6.979   8.085
35372SOL    HW254956   5.084   6.851   7.983
35373SOL     OW54957   1.470  10.587   1.582
35373SOL    HW154958   1.444  10.634   1.667
35373SOL    HW254959   1.499  10.493   1.603
35374SOL     OW54960   8.170   0.251   1.789
35374SOL    HW154961   8.207   0.333   1.834
35374SOL    HW254962   8.145   0.184   1.859
35375SOL     OW54963  14.590  13.266   8.342
35375SOL    HW154964  14.554  13.204   8.412
35375SOL    HW254965  14.626  13.212   8.266
35376SOL     OW54966   9.988   8.264   1.373
35376SOL    HW154967  10.071   8.311   1.402
35376SOL    HW254968   9.949   8.214   1.450
35377SOL     OW54969   8.324  15.806   6.969
35377SOL    HW154970   8.345  15.899   6.999
35377SOL    HW254971   8.404  15.747   6.984
35378SOL     OW54972  16.837   4.769   7.252
35378SOL    HW154973  16.806   4.727   7.167
35378SOL    HW254974  16.856   4.866   7.236
35379SOL     OW54975   9.878   5.454   8.311
35379SOL    HW154976   9.825   5.370   8.298
35379SOL    HW254977   9.844   5.524   8.248
35380SOL     OW54978  12.360  13.689   7.312
35380SOL    HW154979  12.340  13.602   7.266
35380SOL    HW254980  12.451  13.683   7.354
35381SOL     OW54981   1.708  12.832   0.481
35381SOL    HW154982   1.799  12.860   0.513
35381SOL    HW254983   1.648  12.815   0.559
35382SOL     OW54984  15.284   8.477   1.629
35382SOL    HW154985  15.189   8.445   1.637
35382SOL    HW254986  15.331   8.465   1.716
35383SOL     OW54987   6.981   7.476   1.810
35383SOL    HW154988   7.017   7.504   1.721
35383SOL    HW254989   7.051   7.427   1.861
35384SOL     OW54990   3.467   6.569   0.323
35384SOL    HW154991   3.513   6.506   0.261
35384SOL    HW254992   3.438   6.521   0.405
35385SOL     OW54993   6.384  11.936   6.779
35385SOL    HW154994   6.440  11.946   6.861
35385SOL    HW254995   6.352  11.841   6.771
35386SOL     OW54996  16.198   6.099   8.413
35386SOL    HW154997  16.265   6.069   0.027
35386SOL    HW254998  16.209   6.197   8.397
35387SOL     OW54999   6.634   2.937   0.123
35387SOL    HW155000   6.553   2.995   0.123
35387SOL    HW255001   6.607   2.841   0.129
35388SOL     OW55002  12.187   3.408   0.211
35388SOL    HW155003  12.265   3.467   0.193
35388SOL    HW255004  12.216   3.312   0.204
35389SOL     OW55005   9.105   3.791   1.747
35389SOL    HW155006   9.069   3.859   1.683
35389SOL    HW255007   9.151   3.718   1.696
35390SOL     OW55008   6.210  12.508   1.018
35390SOL    HW155009   6.157  12.507   0.934
35390SOL    HW255010   6.284  12.576   1.010
35391SOL     OW55011  11.740  12.972   7.167
35391SOL    HW155012  11.756  12.941   7.261
35391SOL    HW255013  11.816  13.032   7.140
35392SOL     OW55014  11.290   9.211   7.217
35392SOL    HW155015  11.373   9.167   7.253
35392SOL    HW255016  11.290   9.206   7.117
35393SOL     OW55017  13.496  10.736   7.809
35393SOL    HW155018  13.517  10.769   7.717
35393SOL    HW255019  13.580  10.702   7.852
35394SOL     OW55020  11.160  12.536   0.662
35394SOL    HW155021  11.067  12.557   0.693
35394SOL    HW255022  11.218  12.517   0.741
35395SOL     OW55023   9.306   2.234   7.201
35395SOL    HW155024   9.274   2.161   7.261
35395SOL    HW255025   9.385   2.202   7.149
35396SOL     OW55026   6.110   9.657   1.275
35396SOL    HW155027   6.164   9.737   1.248
35396SOL    HW255028   6.154   9.574   1.242
35397SOL     OW55029   8.088   3.352   8.076
35397SOL    HW155030   8.069   3.437   8.027
35397SOL    HW255031   8.187   3.342   8.089
35398SOL     OW55032  14.385  13.695   7.646
35398SOL    HW155033  14.401  13.675   7.743
35398SOL    HW255034  14.302  13.751   7.638
35399SOL     OW55035  16.353  10.888   1.031
35399SOL    HW155036  16.283  10.924   1.093
35399SOL    HW255037  16.410  10.963   0.997
35400SOL     OW55038  10.787  13.222   0.191
35400SOL    HW155039  10.768  13.237   0.094
35400SOL    HW255040  10.788  13.310   0.239
35401SOL     OW55041   0.279  15.290   2.046
35401SOL    HW155042   0.296  15.344   2.128
35401SOL    HW255043   0.299  15.346   1.965
35402SOL     OW55044  13.816  13.100   2.581
35402SOL    HW155045  13.908  13.079   2.612
35402SOL    HW255046  13.801  13.199   2.585
35403SOL     OW55047   1.329   3.600   0.902
35403SOL    HW155048   1.251   3.623   0.960
35403SOL    HW255049   1.388   3.534   0.949
35404SOL     OW55050   9.044   5.376   8.028
35404SOL    HW155051   9.126   5.321   8.012
35404SOL    HW255052   9.043   5.454   7.966
35405SOL     OW55053   4.304  13.095   7.811
35405SOL    HW155054   4.277  13.003   7.837
35405SOL    HW255055   4.323  13.149   7.894
35406SOL     OW55056   7.706   8.124   8.250
35406SOL    HW155057   7.619   8.166   8.273
35406SOL    HW255058   7.691   8.040   8.198
35407SOL     OW55059   1.090   6.451   5.986
35407SOL    HW155060   1.071   6.353   5.990
35407SOL    HW255061   1.150   6.471   5.909
35408SOL     OW55062   5.437   2.810   1.632
35408SOL    HW155063   5.479   2.729   1.592
35408SOL    HW255064   5.492   2.841   1.710
35409SOL     OW55065   2.475  16.271   1.368
35409SOL    HW155066   2.399  16.328   1.400
35409SOL    HW255067   2.496  16.201   1.436
35410SOL     OW55068  12.838  16.860   0.757
35410SOL    HW155069  12.809  16.944   0.710
35410SOL    HW255070  12.837  16.784   0.692
35411SOL     OW55071   3.380  12.329   1.090
35411SOL    HW155072   3.319  12.328   1.170
35411SOL    HW255073   3.420  12.238   1.078
35412SOL     OW55074  13.037  13.910   1.652
35412SOL    HW155075  13.058  13.911   1.750
35412SOL    HW255076  13.104  13.853   1.604
35413SOL     OW55077  16.759  16.187   7.808
35413SOL    HW155078  16.715  16.216   7.722
35413SOL    HW255079  16.695  16.132   7.861
35414SOL     OW55080   6.032   6.721   2.271
35414SOL    HW155081   5.989   6.719   2.362
35414SOL    HW255082   6.105   6.653   2.268
35415SOL     OW55083  13.024   3.815   6.486
35415SOL    HW155084  13.031   3.866   6.400
35415SOL    HW255085  13.088   3.738   6.485
35416SOL     OW55086   0.775   3.517   6.273
35416SOL    HW155087   0.798   3.614   6.287
35416SOL    HW255088   0.703   3.490   6.337
35417SOL     OW55089  15.454   2.160   7.724
35417SOL    HW155090  15.482   2.240   7.777
35417SOL    HW255091  15.382   2.112   7.774
35418SOL     OW55092   4.119  16.524   1.810
35418SOL    HW155093   4.083  16.616   1.797
35418SOL    HW255094   4.115  16.500   1.907
35419SOL     OW55095  11.160   0.279   6.859
35419SOL    HW155096  11.123   0.249   6.947
35419SOL    HW255097  11.130   0.217   6.787
35420SOL     OW55098  15.382   8.670   0.168
35420SOL    HW155099  15.332   8.707   0.247
35420SOL    HW255100  15.479   8.667   0.190
35421SOL     OW55101  16.843   7.840   0.149
35421SOL    HW155102  16.858   7.878   0.240
35421SOL    HW255103  16.900   7.759   0.136
35422SOL     OW55104   3.101   4.408   7.698
35422SOL    HW155105   3.049   4.453   7.771
35422SOL    HW255106   3.199   4.415   7.718
35423SOL     OW55107   4.527   9.106   1.004
35423SOL    HW155108   4.437   9.122   1.044
35423SOL    HW255109   4.517   9.050   0.921
35424SOL     OW55110  15.566   1.570   1.177
35424SOL    HW155111  15.551   1.667   1.196
35424SOL    HW255112  15.597   1.524   1.260
35425SOL     OW55113   6.816  14.643   1.009
35425SOL    HW155114   6.854  14.721   1.059
35425SOL    HW255115   6.872  14.562   1.026
35426SOL     OW55116   9.050   5.921   5.852
35426SOL    HW155117   9.126   5.893   5.793
35426SOL    HW255118   9.017   5.841   5.902
35427SOL     OW55119   3.382  15.457   7.130
35427SOL    HW155120   3.308  15.400   7.094
35427SOL    HW255121   3.470  15.420   7.102
35428SOL     OW55122   6.637   7.493   7.314
35428SOL    HW155123   6.618   7.429   7.240
35428SOL    HW255124   6.727   7.534   7.300
35429SOL     OW55125  10.610   9.296   0.037
35429SOL    HW155126  10.689   9.236   0.030
35429SOL    HW255127  10.608   9.339   0.127
35430SOL     OW55128   5.214   6.184   0.412
35430SOL    HW155129   5.215   6.132   0.498
35430SOL    HW255130   5.136   6.247   0.413
35431SOL     OW55131   7.678   3.638   1.005
35431SOL    HW155132   7.647   3.731   1.023
35431SOL    HW255133   7.772   3.627   1.036
35432SOL     OW55134   8.177  15.180   0.096
35432SOL    HW155135   8.239  15.248   0.056
35432SOL    HW255136   8.165  15.104   0.031
35433SOL     OW55137   8.965   5.445   6.349
35433SOL    HW155138   8.865   5.449   6.345
35433SOL    HW255139   9.000   5.400   6.267
35434SOL     OW55140  16.107   4.504   7.415
35434SOL    HW155141  16.121   4.445   7.335
35434SOL    HW255142  16.171   4.581   7.411
35435SOL     OW55143  16.599   3.106   6.881
35435SOL    HW155144  16.669   3.061   6.935
35435SOL    HW255145  16.627   3.110   6.785
35436SOL     OW55146   8.540   3.175   8.408
35436SOL    HW155147   8.456   3.138   8.369
35436SOL    HW255148   8.618   3.117   8.383
35437SOL     OW55149  10.580   2.094   0.288
35437SOL    HW155150  10.603   1.998   0.305
35437SOL    HW255151  10.623   2.123   0.202
35438SOL     OW55152  12.475  11.334   7.343
35438SOL    HW155153  12.443  11.427   7.359
35438SOL    HW255154  12.575  11.334   7.336
35439SOL     OW55155  15.735   1.789   8.265
35439SOL    HW155156  15.802   1.781   8.192
35439SOL    HW255157  15.757   1.869   8.321
35440SOL     OW55158   3.903   2.412   1.423
35440SOL    HW155159   3.822   2.403   1.481
35440SOL    HW255160   3.982   2.435   1.480
35441SOL     OW55161   5.494   3.513   2.081
35441SOL    HW155162   5.422   3.514   2.151
35441SOL    HW255163   5.571   3.458   2.114
35442SOL     OW55164   0.720   0.568   7.797
35442SOL    HW155165   0.630   0.532   7.771
35442SOL    HW255166   0.740   0.544   7.892
35443SOL     OW55167   9.639   9.205   1.611
35443SOL    HW155168   9.709   9.188   1.543
35443SOL    HW255169   9.678   9.195   1.703
35444SOL     OW55170  10.454  13.823   7.469
35444SOL    HW155171  10.397  13.791   7.393
35444SOL    HW255172  10.484  13.917   7.451
35445SOL     OW55173  10.782  15.941   7.582
35445SOL    HW155174  10.712  15.887   7.627
35445SOL    HW255175  10.748  15.973   7.493
35446SOL     OW55176   7.204   9.952   7.941
35446SOL    HW155177   7.269   9.942   8.016
35446SOL    HW255178   7.118   9.989   7.976
35447SOL     OW55179  16.145   8.831   7.034
35447SOL    HW155180  16.158   8.755   6.970
35447SOL    HW255181  16.233   8.853   7.077
35448SOL     OW55182   4.828   5.675   5.939
35448SOL    HW155183   4.730   5.662   5.952
35448SOL    HW255184   4.850   5.772   5.951
35449SOL     OW55185  14.070   5.657   5.932
35449SOL    HW155186  14.155   5.699   5.900
35449SOL    HW255187  13.992   5.712   5.901
35450SOL     OW55188   0.335   2.414   0.418
35450SOL    HW155189   0.277   2.487   0.382
35450SOL    HW255190   0.342   2.423   0.517
35451SOL     OW55191   7.369  13.978   6.220
35451SOL    HW155192   7.286  13.932   6.187
35451SOL    HW255193   7.449  13.936   6.178
35452SOL     OW55194  16.363  11.228   0.736
35452SOL    HW155195  16.343  11.322   0.708
35452SOL    HW255196  16.280  11.186   0.773
35453SOL     OW55197  13.127   4.532   6.997
35453SOL    HW155198  13.166   4.469   7.064
35453SOL    HW255199  13.162   4.624   7.014
35454SOL     OW55200   4.581  12.436   7.331
35454SOL    HW155201   4.552  12.474   7.244
35454SOL    HW255202   4.505  12.386   7.373
35455SOL     OW55203  16.156   2.628   7.291
35455SOL    HW155204  16.144   2.582   7.380
35455SOL    HW255205  16.126   2.567   7.218
35456SOL     OW55206  16.044  16.484   1.003
35456SOL    HW155207  15.948  16.511   0.993
35456SOL    HW255208  16.064  16.408   0.942
35457SOL     OW55209   1.089  13.630   2.599
35457SOL    HW155210   1.068  13.711   2.653
35457SOL    HW255211   1.111  13.554   2.660
35458SOL     OW55212  13.569   6.932   8.215
35458SOL    HW155213  13.516   6.974   8.289
35458SOL    HW255214  13.660   6.909   8.248
35459SOL     OW55215   4.446  11.584   6.390
35459SOL    HW155216   4.455  11.591   6.291
35459SOL    HW255217   4.460  11.489   6.418
35460SOL     OW55218   6.830   2.320   6.917
35460SOL    HW155219   6.766   2.305   6.841
35460SOL    HW255220   6.846   2.418   6.928
35461SOL     OW55221  16.208   8.470   7.104
35461SOL    HW155222  16.196   8.514   7.015
35461SOL    HW255223  16.300   8.488   7.137
35462SOL     OW55224  15.919   0.858   6.468
35462SOL    HW155225  15.958   0.925   6.405
35462SOL    HW255226  15.992   0.813   6.520
35463SOL     OW55227   6.981   7.938   0.513
35463SOL    HW155228   6.903   7.908   0.458
35463SOL    HW255229   6.999   8.035   0.496
35464SOL     OW55230  14.369   7.614   1.451
35464SOL    HW155231  14.395   7.684   1.385
35464SOL    HW255232  14.439   7.607   1.522
35465SOL     OW55233   7.343   6.694   8.452
35465SOL    HW155234   7.283   6.772   0.019
35465SOL    HW255235   7.426   6.727   8.408
35466SOL     OW55236  11.529   6.971   8.234
35466SOL    HW155237  11.544   7.034   8.310
35466SOL    HW255238  11.449   7.001   8.181
35467SOL     OW55239   8.898   7.035   7.353
35467SOL    HW155240   8.995   7.028   7.375
35467SOL    HW255241   8.845   6.984   7.422
35468SOL     OW55242  14.968  11.025   1.588
35468SOL    HW155243  14.979  11.094   1.516
35468SOL    HW255244  15.058  11.002   1.625
35469SOL     OW55245   7.101  14.713   1.150
35469SOL    HW155246   7.127  14.699   1.245
35469SOL    HW255247   7.033  14.787   1.144
35470SOL     OW55248   0.679   0.395   1.111
35470SOL    HW155249   0.636   0.425   1.026
35470SOL    HW255250   0.723   0.472   1.156
35471SOL     OW55251   8.204  10.794   0.302
35471SOL    HW155252   8.180  10.757   0.212
35471SOL    HW255253   8.141  10.757   0.371
35472SOL     OW55254   2.705   2.123   7.826
35472SOL    HW155255   2.645   2.055   7.786
35472SOL    HW255256   2.799   2.109   7.794
35473SOL     OW55257  15.757  11.212   1.586
35473SOL    HW155258  15.835  11.176   1.637
35473SOL    HW255259  15.782  11.298   1.543
35474SOL     OW55260  12.433   5.539   7.454
35474SOL    HW155261  12.335   5.557   7.447
35474SOL    HW255262  12.448   5.455   7.508
35475SOL     OW55263   1.356  16.115   2.387
35475SOL    HW155264   1.426  16.084   2.451
35475SOL    HW255265   1.268  16.118   2.434
35476SOL     OW55266  15.572   8.263   1.980
35476SOL    HW155267  15.602   8.229   2.069
35476SOL    HW255268  15.524   8.191   1.930
35477SOL     OW55269   7.731   3.141   0.269
35477SOL    HW155270   7.668   3.069   0.298
35477SOL    HW255271   7.811   3.101   0.224
35478SOL     OW55272   2.967   7.128   6.525
35478SOL    HW155273   3.009   7.207   6.480
35478SOL    HW255274   2.869   7.143   6.534
35479SOL     OW55275  13.820   5.878   6.227
35479SOL    HW155276  13.773   5.830   6.153
35479SOL    HW255277  13.915   5.893   6.202
35480SOL     OW55278   2.186   2.887   7.198
35480SOL    HW155279   2.133   2.816   7.152
35480SOL    HW255280   2.153   2.898   7.292
35481SOL     OW55281   1.207   8.576   6.734
35481SOL    HW155282   1.152   8.548   6.656
35481SOL    HW255283   1.264   8.500   6.764
35482SOL     OW55284   8.450  15.955   2.052
35482SOL    HW155285   8.407  15.935   2.139
35482SOL    HW255286   8.481  16.050   2.051
35483SOL     OW55287  15.722   0.659   7.045
35483SOL    HW155288  15.714   0.749   7.004
35483SOL    HW255289  15.773   0.598   6.984
35484SOL     OW55290   1.952  15.882   0.892
35484SOL    HW155291   1.852  15.891   0.888
35484SOL    HW255292   1.978  15.832   0.975
35485SOL     OW55293  15.381   3.956   1.066
35485SOL    HW155294  15.378   3.908   1.153
35485SOL    HW255295  15.380   3.889   0.991
35486SOL     OW55296   7.344  13.655   7.328
35486SOL    HW155297   7.349  13.614   7.237
35486SOL    HW255298   7.328  13.753   7.319
35487SOL     OW55299   5.209   6.522   1.035
35487SOL    HW155300   5.124   6.562   1.068
35487SOL    HW255301   5.266   6.494   1.113
35488SOL     OW55302   7.702  11.031   0.555
35488SOL    HW155303   7.603  11.026   0.542
35488SOL    HW255304   7.744  10.947   0.519
35489SOL     OW55305   8.709   6.177   1.728
35489SOL    HW155306   8.765   6.132   1.659
35489SOL    HW255307   8.751   6.165   1.818
35490SOL     OW55308   8.864  13.821   7.315
35490SOL    HW155309   8.766  13.834   7.300
35490SOL    HW255310   8.905  13.908   7.342
35491SOL     OW55311   3.210  14.620   0.284
35491SOL    HW155312   3.250  14.528   0.285
35491SOL    HW255313   3.134  14.623   0.349
35492SOL     OW55314   1.351   2.226   1.570
35492SOL    HW155315   1.403   2.215   1.655
35492SOL    HW255316   1.397   2.179   1.496
35493SOL     OW55317   9.018   6.390   7.875
35493SOL    HW155318   8.952   6.466   7.874
35493SOL    HW255319   9.101   6.419   7.924
35494SOL     OW55320  15.073  15.560   6.904
35494SOL    HW155321  15.044  15.509   6.823
35494SOL    HW255322  15.142  15.507   6.954
35495SOL     OW55323   9.633  14.845   7.732
35495SOL    HW155324   9.685  14.923   7.699
35495SOL    HW255325   9.676  14.808   7.814
35496SOL     OW55326   8.331   2.526   0.306
35496SOL    HW155327   8.236   2.501   0.324
35496SOL    HW255328   8.391   2.452   0.335
35497SOL     OW55329   5.809  16.795   1.857
35497SOL    HW155330   5.736  16.863   1.855
35497SOL    HW255331   5.888  16.832   1.907
35498SOL     OW55332   2.233  16.889   1.078
35498SOL    HW155333   2.332  16.897   1.086
35498SOL    HW255334   2.209  16.843   0.993
35499SOL     OW55335   7.859  15.672   7.492
35499SOL    HW155336   7.838  15.614   7.571
35499SOL    HW255337   7.937  15.634   7.442
35500SOL     OW55338  15.032  15.819   0.694
35500SOL    HW155339  14.974  15.835   0.774
35500SOL    HW255340  15.050  15.721   0.685
35501SOL     OW55341   3.644   8.926   6.767
35501SOL    HW155342   3.615   8.843   6.814
35501SOL    HW255343   3.664   8.904   6.671
35502SOL     OW55344   9.049   6.581   8.208
35502SOL    HW155345   9.066   6.643   8.285
35502SOL    HW255346   9.092   6.616   8.126
35503SOL     OW55347   5.062   8.704   6.859
35503SOL    HW155348   5.021   8.794   6.871
35503SOL    HW255349   5.108   8.700   6.770
35504SOL     OW55350  14.553   1.463   6.423
35504SOL    HW155351  14.583   1.539   6.480
35504SOL    HW255352  14.548   1.494   6.327
35505SOL     OW55353   3.878   5.663   0.994
35505SOL    HW155354   3.783   5.666   0.961
35505SOL    HW255355   3.931   5.733   0.947
35506SOL     OW55356   8.103   9.284   1.577
35506SOL    HW155357   8.066   9.239   1.659
35506SOL    HW255358   8.032   9.341   1.536
35507SOL     OW55359  11.704   3.827   6.221
35507SOL    HW155360  11.803   3.840   6.227
35507SOL    HW255361  11.684   3.761   6.149
35508SOL     OW55362   9.921   1.597   6.852
35508SOL    HW155363   9.960   1.664   6.790
35508SOL    HW255364   9.840   1.635   6.897
35509SOL     OW55365  11.628   4.644   7.433
35509SOL    HW155366  11.584   4.727   7.466
35509SOL    HW255367  11.672   4.663   7.345
35510SOL     OW55368   2.239   1.429   6.199
35510SOL    HW155369   2.196   1.367   6.134
35510SOL    HW255370   2.237   1.522   6.163
35511SOL     OW55371   1.352  14.458   1.196
35511SOL    HW155372   1.362  14.384   1.263
35511SOL    HW255373   1.434  14.516   1.198
35512SOL     OW55374   2.325  12.545   6.802
35512SOL    HW155375   2.417  12.556   6.841
35512SOL    HW255376   2.323  12.583   6.710
35513SOL     OW55377   1.713  16.801   1.642
35513SOL    HW155378   1.752  16.760   1.724
35513SOL    HW255379   1.671  16.889   1.666
35514SOL     OW55380   1.110   9.677   7.903
35514SOL    HW155381   1.173   9.692   7.979
35514SOL    HW255382   1.019   9.707   7.929
35515SOL     OW55383   8.256  12.250   7.752
35515SOL    HW155384   8.205  12.315   7.695
35515SOL    HW255385   8.258  12.283   7.846
35516SOL     OW55386  13.474   1.168   6.297
35516SOL    HW155387  13.476   1.088   6.237
35516SOL    HW255388  13.476   1.139   6.393
35517SOL     OW55389  13.958   6.782   0.715
35517SOL    HW155390  13.877   6.759   0.662
35517SOL    HW255391  13.994   6.870   0.684
35518SOL     OW55392   9.493   3.127   0.285
35518SOL    HW155393   9.532   3.092   0.199
35518SOL    HW255394   9.394   3.116   0.283
35519SOL     OW55395  15.415   7.755   8.206
35519SOL    HW155396  15.441   7.801   8.121
35519SOL    HW255397  15.422   7.819   8.283
35520SOL     OW55398   6.002   4.656   6.354
35520SOL    HW155399   6.030   4.729   6.416
35520SOL    HW255400   5.955   4.695   6.275
35521SOL     OW55401   8.230   1.706   1.583
35521SOL    HW155402   8.318   1.670   1.615
35521SOL    HW255403   8.174   1.733   1.662
35522SOL     OW55404  10.575   2.696   5.199
35522SOL    HW155405  10.564   2.780   5.146
35522SOL    HW255406  10.595   2.620   5.136
35523SOL     OW55407  11.591  10.915   1.237
35523SOL    HW155408  11.656  10.966   1.294
35523SOL    HW255409  11.519  10.877   1.293
35524SOL     OW55410  15.369   0.471   7.136
35524SOL    HW155411  15.459   0.493   7.174
35524SOL    HW255412  15.298   0.504   7.198
35525SOL     OW55413   7.672  14.901   7.523
35525SOL    HW155414   7.662  14.916   7.621
35525SOL    HW255415   7.677  14.802   7.505
35526SOL     OW55416   4.317  11.238   0.785
35526SOL    HW155417   4.342  11.174   0.712
35526SOL    HW255418   4.310  11.330   0.747
35527SOL     OW55419   7.186   0.708   7.102
35527SOL    HW155420   7.196   0.748   7.193
35527SOL    HW255421   7.099   0.660   7.096
35528SOL     OW55422  12.452   2.128   7.587
35528SOL    HW155423  12.505   2.151   7.506
35528SOL    HW255424  12.398   2.208   7.616
35529SOL     OW55425  14.117  14.842   7.782
35529SOL    HW155426  14.055  14.868   7.708
35529SOL    HW255427  14.208  14.877   7.764
35530SOL     OW55428   9.679   3.004   7.449
35530SOL    HW155429   9.742   3.041   7.380
35530SOL    HW255430   9.726   2.997   7.537
35531SOL     OW55431   8.562   7.409   7.789
35531SOL    HW155432   8.465   7.425   7.769
35531SOL    HW255433   8.586   7.453   7.876
35532SOL     OW55434   6.272   1.024   7.165
35532SOL    HW155435   6.353   1.082   7.173
35532SOL    HW255436   6.284   0.961   7.088
35533SOL     OW55437  13.168  16.267   8.349
35533SOL    HW155438  13.081  16.219   8.342
35533SOL    HW255439  13.152  16.366   8.354
35534SOL     OW55440   3.775   0.965   1.118
35534SOL    HW155441   3.824   1.024   1.182
35534SOL    HW255442   3.841   0.908   1.069
35535SOL     OW55443   4.180  16.103   1.851
35535SOL    HW155444   4.125  16.052   1.784
35535SOL    HW255445   4.275  16.073   1.844
35536SOL     OW55446   6.213   8.145   7.322
35536SOL    HW155447   6.295   8.176   7.275
35536SOL    HW255448   6.232   8.136   7.420
35537SOL     OW55449  13.719  14.742   1.502
35537SOL    HW155450  13.710  14.693   1.588
35537SOL    HW255451  13.739  14.678   1.429
35538SOL     OW55452   3.839  11.457   0.582
35538SOL    HW155453   3.864  11.543   0.537
35538SOL    HW255454   3.745  11.433   0.558
35539SOL     OW55455   3.830   6.129   1.518
35539SOL    HW155456   3.747   6.186   1.521
35539SOL    HW255457   3.905   6.177   1.562
35540SOL     OW55458   2.835   0.163   0.331
35540SOL    HW155459   2.854   0.082   0.276
35540SOL    HW255460   2.837   0.139   0.428
35541SOL     OW55461   6.668   5.648   7.269
35541SOL    HW155462   6.572   5.673   7.279
35541SOL    HW255463   6.679   5.597   7.183
35542SOL     OW55464  15.506   4.086   7.738
35542SOL    HW155465  15.594   4.121   7.706
35542SOL    HW255466  15.484   4.002   7.689
35543SOL     OW55467  16.123   8.742   6.291
35543SOL    HW155468  16.157   8.663   6.239
35543SOL    HW255469  16.199   8.792   6.330
35544SOL     OW55470  11.206   1.805   6.945
35544SOL    HW155471  11.160   1.845   7.024
35544SOL    HW255472  11.299   1.779   6.969
35545SOL     OW55473   3.506  10.448   7.572
35545SOL    HW155474   3.417  10.451   7.618
35545SOL    HW255475   3.554  10.364   7.598
35546SOL     OW55476   6.428   3.762   0.482
35546SOL    HW155477   6.407   3.707   0.402
35546SOL    HW255478   6.513   3.813   0.467
35547SOL     OW55479  15.137  14.967   7.541
35547SOL    HW155480  15.201  14.893   7.521
35547SOL    HW255481  15.083  14.943   7.622
35548SOL     OW55482   6.365  16.640   7.491
35548SOL    HW155483   6.410  16.654   7.579
35548SOL    HW255484   6.267  16.631   7.505
35549SOL     OW55485   8.236  16.978   8.228
35549SOL    HW155486   8.203  16.915   8.158
35549SOL    HW255487   8.316   0.044   8.193
35550SOL     OW55488   0.418   7.811   1.925
35550SOL    HW155489   0.403   7.713   1.934
35550SOL    HW255490   0.340   7.861   1.963
35551SOL     OW55491  16.698  12.204   1.912
35551SOL    HW155492  16.668  12.236   1.822
35551SOL    HW255493  16.644  12.250   1.983
35552SOL     OW55494   0.434  12.088   8.054
35552SOL    HW155495   0.389  12.061   7.968
35552SOL    HW255496   0.521  12.040   8.062
35553SOL     OW55497   1.822  12.084   8.069
35553SOL    HW155498   1.847  12.108   7.975
35553SOL    HW255499   1.905  12.069   8.123
35554SOL     OW55500   4.572   4.060   7.910
35554SOL    HW155501   4.531   3.975   7.943
35554SOL    HW255502   4.655   4.040   7.858
35555SOL     OW55503   5.792   7.374   7.820
35555SOL    HW155504   5.867   7.354   7.883
35555SOL    HW255505   5.705   7.367   7.870
35556SOL     OW55506   2.162  16.792   1.527
35556SOL    HW155507   2.208  16.847   1.596
35556SOL    HW255508   2.086  16.743   1.569
35557SOL     OW55509   4.387  14.833   6.665
35557SOL    HW155510   4.460  14.865   6.605
35557SOL    HW255511   4.395  14.734   6.677
35558SOL     OW55512  13.919   2.697   1.706
35558SOL    HW155513  14.004   2.645   1.710
35558SOL    HW255514  13.908   2.751   1.789
35559SOL     OW55515  14.947  14.325   7.328
35559SOL    HW155516  15.019  14.329   7.259
35559SOL    HW255517  14.909  14.233   7.332
35560SOL     OW55518   6.881  10.645   0.133
35560SOL    HW155519   6.864  10.559   0.084
35560SOL    HW255520   6.979  10.664   0.132
35561SOL     OW55521  14.220   5.571   0.630
35561SOL    HW155522  14.264   5.660   0.619
35561SOL    HW255523  14.124   5.578   0.600
35562SOL     OW55524   7.100   1.508   7.202
35562SOL    HW155525   7.019   1.476   7.152
35562SOL    HW255526   7.085   1.602   7.233
35563SOL     OW55527   3.231  16.248   1.445
35563SOL    HW155528   3.185  16.311   1.508
35563SOL    HW255529   3.312  16.291   1.407
35564SOL     OW55530   1.806  16.173   1.941
35564SOL    HW155531   1.807  16.270   1.967
35564SOL    HW255532   1.789  16.166   1.843
35565SOL     OW55533   7.117   4.815   2.184
35565SOL    HW155534   7.142   4.743   2.248
35565SOL    HW255535   7.024   4.798   2.150
35566SOL     OW55536  14.507  10.874   2.241
35566SOL    HW155537  14.535  10.937   2.169
35566SOL    HW255538  14.587  10.830   2.281
35567SOL     OW55539   5.483   1.385   1.064
35567SOL    HW155540   5.459   1.354   0.973
35567SOL    HW255541   5.459   1.482   1.075
35568SOL     OW55542  11.817   4.829   0.266
35568SOL    HW155543  11.816   4.772   0.184
35568SOL    HW255544  11.911   4.851   0.291
35569SOL     OW55545   2.155  15.249   7.064
35569SOL    HW155546   2.120  15.251   7.158
35569SOL    HW255547   2.146  15.156   7.028
35570SOL     OW55548  10.190  11.450   7.858
35570SOL    HW155549  10.155  11.541   7.880
35570SOL    HW255550  10.285  11.458   7.826
35571SOL     OW55551   0.946   4.333   7.334
35571SOL    HW155552   0.948   4.256   7.271
35571SOL    HW255553   0.851   4.356   7.355
35572SOL     OW55554  16.413   2.775   1.029
35572SOL    HW155555  16.494   2.733   0.990
35572SOL    HW255556  16.349   2.799   0.955
35573SOL     OW55557  16.529   2.453   1.137
35573SOL    HW155558  16.434   2.432   1.114
35573SOL    HW255559  16.565   2.520   1.072
35574SOL     OW55560   1.759   6.466   7.108
35574SOL    HW155561   1.799   6.415   7.032
35574SOL    HW255562   1.744   6.405   7.186
35575SOL     OW55563  15.762   6.647   6.417
35575SOL    HW155564  15.723   6.695   6.338
35575SOL    HW255565  15.701   6.572   6.443
35576SOL     OW55566  14.630   2.819   7.504
35576SOL    HW155567  14.728   2.838   7.501
35576SOL    HW255568  14.608   2.772   7.589
35577SOL     OW55569   0.777   2.858   0.017
35577SOL    HW155570   0.705   2.926   0.019
35577SOL    HW255571   0.775   2.809   8.383
35578SOL     OW55572  12.332   7.340   7.175
35578SOL    HW155573  12.414   7.384   7.212
35578SOL    HW255574  12.341   7.241   7.183
35579SOL     OW55575   6.776   4.440   7.486
35579SOL    HW155576   6.845   4.498   7.530
35579SOL    HW255577   6.711   4.409   7.555
35580SOL     OW55578   0.653   5.220   1.328
35580SOL    HW155579   0.604   5.252   1.247
35580SOL    HW255580   0.662   5.295   1.393
35581SOL     OW55581  11.796  13.339   0.431
35581SOL    HW155582  11.844  13.365   0.348
35581SOL    HW255583  11.810  13.241   0.449
35582SOL     OW55584   8.922  14.836   2.251
35582SOL    HW155585   8.904  14.881   2.339
35582SOL    HW255586   9.018  14.807   2.248
35583SOL     OW55587   2.290   5.561   8.180
35583SOL    HW155588   2.271   5.645   8.129
35583SOL    HW255589   2.236   5.486   8.143
35584SOL     OW55590   4.859   9.562   0.475
35584SOL    HW155591   4.792   9.612   0.421
35584SOL    HW255592   4.816   9.527   0.558
35585SOL     OW55593  16.407  13.050   0.109
35585SOL    HW155594  16.481  12.982   0.117
35585SOL    HW255595  16.415  13.116   0.184
35586SOL     OW55596   1.488  12.216   0.767
35586SOL    HW155597   1.539  12.290   0.809
35586SOL    HW255598   1.401  12.203   0.815
35587SOL     OW55599  14.137   5.518   7.943
35587SOL    HW155600  14.157   5.588   7.874
35587SOL    HW255601  14.133   5.428   7.899
35588SOL     OW55602  15.160   5.719   7.686
35588SOL    HW155603  15.118   5.638   7.645
35588SOL    HW255604  15.138   5.800   7.631
35589SOL     OW55605   3.631   8.200   0.956
35589SOL    HW155606   3.729   8.201   0.977
35589SOL    HW255607   3.615   8.250   0.870
35590SOL     OW55608  13.723   3.053   1.033
35590SOL    HW155609  13.734   2.971   1.088
35590SOL    HW255610  13.761   3.037   0.942
35591SOL     OW55611   2.721   8.576   7.621
35591SOL    HW155612   2.741   8.504   7.555
35591SOL    HW255613   2.660   8.541   7.692
35592SOL     OW55614  11.304   7.665   0.786
35592SOL    HW155615  11.349   7.610   0.857
35592SOL    HW255616  11.231   7.720   0.828
35593SOL     OW55617  13.848  11.233   8.264
35593SOL    HW155618  13.786  11.217   8.341
35593SOL    HW255619  13.943  11.227   8.296
35594SOL     OW55620  13.308  12.957   1.886
35594SOL    HW155621  13.315  12.992   1.979
35594SOL    HW255622  13.214  12.969   1.852
35595SOL     OW55623   5.385   8.251   1.046
35595SOL    HW155624   5.441   8.217   0.970
35595SOL    HW255625   5.398   8.192   1.125
35596SOL     OW55626   0.708   4.213   8.055
35596SOL    HW155627   0.626   4.177   8.100
35596SOL    HW255628   0.783   4.149   8.066
35597SOL     OW55629   3.722  15.014   2.641
35597SOL    HW155630   3.756  14.928   2.679
35597SOL    HW255631   3.753  15.090   2.698
35598SOL     OW55632   6.043   3.160   1.901
35598SOL    HW155633   6.137   3.175   1.933
35598SOL    HW255634   5.996   3.098   1.964
35599SOL     OW55635  13.154   7.421   0.959
35599SOL    HW155636  13.218   7.441   0.886
35599SOL    HW255637  13.138   7.503   1.014
35600SOL     OW55638  10.895  12.581   0.736
35600SOL    HW155639  10.887  12.482   0.743
35600SOL    HW255640  10.845  12.624   0.811
35601SOL     OW55641  11.781  15.290   1.919
35601SOL    HW155642  11.687  15.322   1.928
35601SOL    HW255643  11.810  15.248   2.006
35602SOL     OW55644  15.638  10.147   2.273
35602SOL    HW155645  15.649  10.057   2.231
35602SOL    HW255646  15.540  10.167   2.283
35603SOL     OW55647   0.431  15.249   7.291
35603SOL    HW155648   0.426  15.270   7.388
35603SOL    HW255649   0.339  15.234   7.255
35604SOL     OW55650  14.478  14.966   0.960
35604SOL    HW155651  14.574  14.946   0.940
35604SOL    HW255652  14.447  15.041   0.902
35605SOL     OW55653  11.432  10.933   1.667
35605SOL    HW155654  11.504  10.872   1.700
35605SOL    HW255655  11.349  10.919   1.722
35606SOL     OW55656   0.307  13.691   0.724
35606SOL    HW155657   0.234  13.645   0.673
35606SOL    HW255658   0.380  13.626   0.743
35607SOL     OW55659  16.230  15.902   8.267
35607SOL    HW155660  16.208  15.817   8.219
35607SOL    HW255661  16.319  15.892   8.312
35608SOL     OW55662  11.329  16.831   8.132
35608SOL    HW155663  11.232  16.840   8.110
35608SOL    HW255664  11.352  16.895   8.205
35609SOL     OW55665   5.777   2.647   6.307
35609SOL    HW155666   5.835   2.668   6.229
35609SOL    HW255667   5.700   2.591   6.277
35610SOL     OW55668   6.027   7.371   0.529
35610SOL    HW155669   6.050   7.406   0.620
35610SOL    HW255670   6.014   7.447   0.466
35611SOL     OW55671   1.670  14.492   0.513
35611SOL    HW155672   1.658  14.589   0.538
35611SOL    HW255673   1.707  14.443   0.592
35612SOL     OW55674  12.681   4.403   5.458
35612SOL    HW155675  12.769   4.359   5.439
35612SOL    HW255676  12.607   4.347   5.420
35613SOL     OW55677   0.337   7.848   7.545
35613SOL    HW155678   0.357   7.939   7.581
35613SOL    HW255679   0.365   7.778   7.610
35614SOL     OW55680   8.366  14.357   1.756
35614SOL    HW155681   8.400  14.416   1.683
35614SOL    HW255682   8.417  14.272   1.758
35615SOL     OW55683  13.819   9.529   1.045
35615SOL    HW155684  13.911   9.559   1.068
35615SOL    HW255685  13.816   9.503   0.948
35616SOL     OW55686   9.421  15.151   1.582
35616SOL    HW155687   9.430  15.166   1.484
35616SOL    HW255688   9.507  15.114   1.618
35617SOL     OW55689  15.426  14.621   7.896
35617SOL    HW155690  15.479  14.698   7.861
35617SOL    HW255691  15.379  14.648   7.980
35618SOL     OW55692  10.556  15.069   8.336
35618SOL    HW155693  10.535  15.033   8.244
35618SOL    HW255694  10.493  15.029   8.402
35619SOL     OW55695   3.264  14.305   7.338
35619SOL    HW155696   3.350  14.355   7.351
35619SOL    HW255697   3.272  14.215   7.381
35620SOL     OW55698  11.822  14.111   6.958
35620SOL    HW155699  11.910  14.157   6.970
35620SOL    HW255700  11.831  14.013   6.976
35621SOL     OW55701  10.822  10.971   0.608
35621SOL    HW155702  10.826  11.026   0.525
35621SOL    HW255703  10.748  11.004   0.666
35622SOL     OW55704  10.182  14.579   8.386
35622SOL    HW155705  10.122  14.571   0.012
35622SOL    HW255706  10.129  14.566   8.303
35623SOL     OW55707  14.859   4.165   1.238
35623SOL    HW155708  14.936   4.103   1.222
35623SOL    HW255709  14.773   4.114   1.226
35624SOL     OW55710  15.207   8.503   8.114
35624SOL    HW155711  15.207   8.529   8.017
35624SOL    HW255712  15.120   8.529   8.155
35625SOL     OW55713   8.851   1.255   0.060
35625SOL    HW155714   8.927   1.312   0.091
35625SOL    HW255715   8.764   1.299   0.084
35626SOL     OW55716  11.422  16.487   6.224
35626SOL    HW155717  11.466  16.441   6.146
35626SOL    HW255718  11.332  16.519   6.196
35627SOL     OW55719  10.827   6.434   8.291
35627SOL    HW155720  10.817   6.455   8.388
35627SOL    HW255721  10.884   6.353   8.280
35628SOL     OW55722  14.566  15.855   7.437
35628SOL    HW155723  14.612  15.813   7.359
35628SOL    HW255724  14.611  15.941   7.460
35629SOL     OW55725   7.102  11.269   7.764
35629SOL    HW155726   7.169  11.335   7.799
35629SOL    HW255727   7.143  11.178   7.761
35630SOL     OW55728  14.823  11.387   8.248
35630SOL    HW155729  14.739  11.437   8.270
35630SOL    HW255730  14.902  11.445   8.268
35631SOL     OW55731   4.448  13.229   0.942
35631SOL    HW155732   4.455  13.314   0.889
35631SOL    HW255733   4.446  13.250   1.039
35632SOL     OW55734   3.604  12.579   6.796
35632SOL    HW155735   3.574  12.675   6.795
35632SOL    HW255736   3.527  12.521   6.820
35633SOL     OW55737   7.570   6.350   8.449
35633SOL    HW155738   7.566   6.394   8.359
35633SOL    HW255739   7.554   6.418   0.066
35634SOL     OW55740  11.164   0.735   0.838
35634SOL    HW155741  11.090   0.684   0.795
35634SOL    HW255742  11.233   0.759   0.770
35635SOL     OW55743   5.340   2.442   7.487
35635SOL    HW155744   5.414   2.391   7.531
35635SOL    HW255745   5.358   2.448   7.389
35636SOL     OW55746   7.206  16.832   1.401
35636SOL    HW155747   7.304  16.826   1.387
35636SOL    HW255748   7.180  16.786   1.485
35637SOL     OW55749   6.831   0.773   2.173
35637SOL    HW155750   6.889   0.833   2.229
35637SOL    HW255751   6.838   0.679   2.206
35638SOL     OW55752  11.596  13.154   0.159
35638SOL    HW155753  11.518  13.120   0.106
35638SOL    HW255754  11.579  13.249   0.186
35639SOL     OW55755  15.794   1.963   6.695
35639SOL    HW155756  15.837   1.928   6.612
35639SOL    HW255757  15.802   2.062   6.698
35640SOL     OW55758   1.095  11.753   0.367
35640SOL    HW155759   1.057  11.668   0.329
35640SOL    HW255760   1.183  11.734   0.410
35641SOL     OW55761  13.267   5.093   0.159
35641SOL    HW155762  13.290   5.123   0.252
35641SOL    HW255763  13.296   5.163   0.094
35642SOL     OW55764   9.309   7.167   1.685
35642SOL    HW155765   9.215   7.153   1.716
35642SOL    HW255766   9.357   7.226   1.750
35643SOL     OW55767  16.365   1.589   6.607
35643SOL    HW155768  16.382   1.638   6.693
35643SOL    HW255769  16.448   1.589   6.552
35644SOL     OW55770  11.064   2.749   7.232
35644SOL    HW155771  11.083   2.784   7.141
35644SOL    HW255772  11.148   2.745   7.286
35645SOL     OW55773   5.901  15.551   7.746
35645SOL    HW155774   5.947  15.586   7.664
35645SOL    HW255775   5.908  15.451   7.748
35646SOL     OW55776  15.969  15.316   1.507
35646SOL    HW155777  15.905  15.363   1.446
35646SOL    HW255778  16.037  15.381   1.541
35647SOL     OW55779  13.727   4.008   7.779
35647SOL    HW155780  13.791   4.079   7.807
35647SOL    HW255781  13.651   4.049   7.728
35648SOL     OW55782   0.241   7.305   0.848
35648SOL    HW155783   0.142   7.290   0.837
35648SOL    HW255784   0.273   7.371   0.780
35649SOL     OW55785  13.466  13.508   8.428
35649SOL    HW155786  13.409  13.443   0.024
35649SOL    HW255787  13.562  13.492   8.450
35650SOL     OW55788  15.247  15.911   1.484
35650SOL    HW155789  15.262  16.007   1.458
35650SOL    HW255790  15.170  15.905   1.547
35651SOL     OW55791   6.770   9.770   1.512
35651SOL    HW155792   6.797   9.705   1.441
35651SOL    HW255793   6.801   9.736   1.601
35652SOL     OW55794  10.518  12.093   7.450
35652SOL    HW155795  10.563  12.012   7.490
35652SOL    HW255796  10.432  12.065   7.407
35653SOL     OW55797  10.622   3.317   6.882
35653SOL    HW155798  10.656   3.256   6.810
35653SOL    HW255799  10.606   3.408   6.843
35654SOL     OW55800   5.602   7.233   2.036
35654SOL    HW155801   5.546   7.266   2.112
35654SOL    HW255802   5.656   7.308   2.000
35655SOL     OW55803  10.485   5.264   1.722
35655SOL    HW155804  10.553   5.325   1.762
35655SOL    HW255805  10.429   5.224   1.794
35656SOL     OW55806  16.721  15.946   7.463
35656SOL    HW155807  16.659  15.952   7.542
35656SOL    HW255808  16.706  16.025   7.404
35657SOL     OW55809  16.496   4.047   7.014
35657SOL    HW155810  16.470   4.093   6.929
35657SOL    HW255811  16.577   3.991   6.999
35658SOL     OW55812   7.174   6.653   1.310
35658SOL    HW155813   7.226   6.630   1.392
35658SOL    HW255814   7.082   6.614   1.316
35659SOL     OW55815   4.217   3.174   0.940
35659SOL    HW155816   4.297   3.206   0.991
35659SOL    HW255817   4.231   3.080   0.912
35660SOL     OW55818  11.846   6.078   6.695
35660SOL    HW155819  11.877   6.123   6.611
35660SOL    HW255820  11.903   5.998   6.713
35661SOL     OW55821   4.738   3.225   7.671
35661SOL    HW155822   4.741   3.126   7.686
35661SOL    HW255823   4.741   3.244   7.573
35662SOL     OW55824   6.692  15.102   1.263
35662SOL    HW155825   6.730  15.025   1.315
35662SOL    HW255826   6.608  15.072   1.218
35663SOL     OW55827   3.788   7.709   7.738
35663SOL    HW155828   3.728   7.665   7.804
35663SOL    HW255829   3.749   7.701   7.647
35664SOL     OW55830  14.993  11.982   1.375
35664SOL    HW155831  15.076  11.949   1.331
35664SOL    HW255832  15.015  12.057   1.437
35665SOL     OW55833  12.985   0.255   7.710
35665SOL    HW155834  13.031   0.302   7.634
35665SOL    HW255835  12.887   0.275   7.706
35666SOL     OW55836   9.003   5.298   0.565
35666SOL    HW155837   8.908   5.267   0.557
35666SOL    HW255838   9.008   5.373   0.631
35667SOL     OW55839   8.786   4.749   0.824
35667SOL    HW155840   8.793   4.717   0.730
35667SOL    HW255841   8.864   4.808   0.845
35668SOL     OW55842  16.085   4.747   6.532
35668SOL    HW155843  16.041   4.679   6.591
35668SOL    HW255844  16.096   4.710   6.440
35669SOL     OW55845  14.166  12.841   2.188
35669SOL    HW155846  14.175  12.801   2.278
35669SOL    HW255847  14.123  12.931   2.195
35670SOL     OW55848  14.462   0.329   7.405
35670SOL    HW155849  14.385   0.272   7.432
35670SOL    HW255850  14.508   0.289   7.325
35671SOL     OW55851   2.624  14.027   1.673
35671SOL    HW155852   2.528  14.042   1.650
35671SOL    HW255853   2.678  14.104   1.639
35672SOL     OW55854   8.684   4.274   7.605
35672SOL    HW155855   8.610   4.326   7.561
35672SOL    HW255856   8.697   4.308   7.698
35673SOL     OW55857  14.386   6.123   7.269
35673SOL    HW155858  14.318   6.110   7.341
35673SOL    HW255859  14.389   6.042   7.211
35674SOL     OW55860  16.456  10.102   0.449
35674SOL    HW155861  16.496  10.123   0.538
35674SOL    HW255862  16.483  10.010   0.421
35675SOL     OW55863  13.240  16.654   7.519
35675SOL    HW155864  13.251  16.575   7.579
35675SOL    HW255865  13.153  16.700   7.540
35676SOL     OW55866  14.676   4.902   1.838
35676SOL    HW155867  14.754   4.955   1.805
35676SOL    HW255868  14.685   4.890   1.937
35677SOL     OW55869  13.040   8.349   0.213
35677SOL    HW155870  13.119   8.377   0.267
35677SOL    HW255871  13.070   8.290   0.138
35678SOL     OW55872  10.206  15.300   6.020
35678SOL    HW155873  10.270  15.335   6.089
35678SOL    HW255874  10.208  15.361   5.941
35679SOL     OW55875   6.643  11.071   6.856
35679SOL    HW155876   6.640  11.042   6.760
35679SOL    HW255877   6.622  11.168   6.862
35680SOL     OW55878  14.539  11.052   0.118
35680SOL    HW155879  14.462  11.092   0.169
35680SOL    HW255880  14.624  11.073   0.165
35681SOL     OW55881   6.529   2.827   7.943
35681SOL    HW155882   6.574   2.760   7.884
35681SOL    HW255883   6.432   2.806   7.949
35682SOL     OW55884  12.235   0.390   8.286
35682SOL    HW155885  12.167   0.462   8.294
35682SOL    HW255886  12.304   0.401   8.357
35683SOL     OW55887  11.667  10.388   1.492
35683SOL    HW155888  11.706  10.478   1.474
35683SOL    HW255889  11.589  10.373   1.432
35684SOL     OW55890   7.383   9.121   0.440
35684SOL    HW155891   7.338   9.180   0.508
35684SOL    HW255892   7.333   9.126   0.354
35685SOL     OW55893   1.201   9.648   6.553
35685SOL    HW155894   1.152   9.585   6.493
35685SOL    HW255895   1.286   9.677   6.510
35686SOL     OW55896  14.400   6.684   6.091
35686SOL    HW155897  14.304   6.710   6.093
35686SOL    HW255898  14.455   6.757   6.133
35687SOL     OW55899   5.212  10.088   8.206
35687SOL    HW155900   5.183  10.037   8.287
35687SOL    HW255901   5.294  10.141   8.228
35688SOL     OW55902  15.055  10.061   0.880
35688SOL    HW155903  15.135  10.048   0.822
35688SOL    HW255904  14.972  10.037   0.830
35689SOL     OW55905  13.255   7.819   7.087
35689SOL    HW155906  13.180   7.775   7.038
35689SOL    HW255907  13.284   7.901   7.037
35690SOL     OW55908   4.350   6.450   8.011
35690SOL    HW155909   4.394   6.519   8.069
35690SOL    HW255910   4.385   6.360   8.035
35691SOL     OW55911  10.402   0.290   6.919
35691SOL    HW155912  10.489   0.303   6.872
35691SOL    HW255913  10.372   0.377   6.957
35692SOL     OW55914  16.066   1.064   6.760
35692SOL    HW155915  16.129   1.053   6.684
35692SOL    HW255916  16.058   0.978   6.811
35693SOL     OW55917   9.534   8.549   1.291
35693SOL    HW155918   9.565   8.564   1.197
35693SOL    HW255919   9.451   8.602   1.308
35694SOL     OW55920  12.447  14.969   6.776
35694SOL    HW155921  12.444  14.888   6.717
35694SOL    HW255922  12.532  15.019   6.759
35695SOL     OW55923  15.273  11.304   1.539
35695SOL    HW155924  15.261  11.256   1.452
35695SOL    HW255925  15.358  11.274   1.582
35696SOL     OW55926  16.569  14.686   6.696
35696SOL    HW155927  16.597  14.610   6.637
35696SOL    HW255928  16.471  14.679   6.714
35697SOL     OW55929   1.760   4.892   1.829
35697SOL    HW155930   1.831   4.861   1.892
35697SOL    HW255931   1.800   4.905   1.738
35698SOL     OW55932  15.464  13.254   1.393
35698SOL    HW155933  15.419  13.229   1.479
35698SOL    HW255934  15.480  13.353   1.392
35699SOL     OW55935   4.085  13.924   1.113
35699SOL    HW155936   4.000  13.964   1.149
35699SOL    HW255937   4.142  13.893   1.189
35700SOL     OW55938  11.796  16.903   1.696
35700SOL    HW155939  11.710  16.916   1.746
35700SOL    HW255940  11.798  16.966   1.618
35701SOL     OW55941   2.179   3.675   1.801
35701SOL    HW155942   2.090   3.639   1.827
35701SOL    HW255943   2.176   3.775   1.805
35702SOL     OW55944   5.197   6.967   0.245
35702SOL    HW155945   5.207   6.992   0.342
35702SOL    HW255946   5.200   7.050   0.189
35703SOL     OW55947   5.922  13.596   8.051
35703SOL    HW155948   6.011  13.604   8.095
35703SOL    HW255949   5.929  13.536   7.971
35704SOL     OW55950  13.909  13.347   6.441
35704SOL    HW155951  13.877  13.275   6.379
35704SOL    HW255952  13.858  13.431   6.423
35705SOL     OW55953  16.647   4.304   7.254
35705SOL    HW155954  16.590   4.246   7.313
35705SOL    HW255955  16.718   4.248   7.212
35706SOL     OW55956   1.481  12.949   8.156
35706SOL    HW155957   1.503  13.038   8.195
35706SOL    HW255958   1.502  12.877   8.223
35707SOL     OW55959   8.091   7.291   0.263
35707SOL    HW155960   8.011   7.335   0.302
35707SOL    HW255961   8.085   7.295   0.163
35708SOL     OW55962   9.346   7.333   8.192
35708SOL    HW155963   9.278   7.402   8.216
35708SOL    HW255964   9.320   7.289   8.106
35709SOL     OW55965   3.027  13.266   1.205
35709SOL    HW155966   3.035  13.273   1.304
35709SOL    HW255967   2.989  13.351   1.168
35710SOL     OW55968  16.484   2.517   7.521
35710SOL    HW155969  16.417   2.466   7.576
35710SOL    HW255970  16.519   2.594   7.575
35711SOL     OW55971   2.035  13.093   1.008
35711SOL    HW155972   1.963  13.076   0.941
35711SOL    HW255973   2.103  13.020   1.002
35712SOL     OW55974   2.247  11.859   0.618
35712SOL    HW155975   2.301  11.935   0.581
35712SOL    HW255976   2.150  11.886   0.623
35713SOL     OW55977   9.329   5.531   0.958
35713SOL    HW155978   9.355   5.436   0.941
35713SOL    HW255979   9.276   5.536   1.043
35714SOL     OW55980   9.069   5.385   1.531
35714SOL    HW155981   9.097   5.444   1.606
35714SOL    HW255982   9.136   5.311   1.520
35715SOL     OW55983  16.442   4.431   7.111
35715SOL    HW155984  16.473   4.421   7.016
35715SOL    HW255985  16.509   4.388   7.172
35716SOL     OW55986  16.816   9.217   1.637
35716SOL    HW155987  16.854   9.157   1.707
35716SOL    HW255988  16.814   9.311   1.671
35717SOL     OW55989  13.633   2.483   7.803
35717SOL    HW155990  13.683   2.404   7.768
35717SOL    HW255991  13.697   2.557   7.823
35718SOL     OW55992  16.578  14.406   0.828
35718SOL    HW155993  16.521  14.432   0.906
35718SOL    HW255994  16.524  14.349   0.766
35719SOL     OW55995  14.803   0.822   8.035
35719SOL    HW155996  14.789   0.724   8.046
35719SOL    HW255997  14.893   0.839   7.994
35720SOL     OW55998   4.938  12.317   7.111
35720SOL    HW155999   5.002  12.294   7.038
35720SOL    HW256000   4.855  12.357   7.072
35721SOL     OW56001   3.794  12.969   7.862
35721SOL    HW156002   3.884  12.940   7.897
35721SOL    HW256003   3.739  13.003   7.938
35722SOL     OW56004   3.376  14.010   7.945
35722SOL    HW156005   3.455  13.951   7.960
35722SOL    HW256006   3.405  14.094   7.900
35723SOL     OW56007  16.341   0.998   1.061
35723SOL    HW156008  16.250   0.958   1.057
35723SOL    HW256009  16.381   0.999   0.969
35724SOL     OW56010   9.266   1.470   0.971
35724SOL    HW156011   9.249   1.372   0.960
35724SOL    HW256012   9.209   1.506   1.045
35725SOL     OW56013  15.605  11.399   8.103
35725SOL    HW156014  15.577  11.304   8.111
35725SOL    HW256015  15.595  11.445   8.191
35726SOL     OW56016  13.656   0.090   0.373
35726SOL    HW156017  13.566   0.080   0.415
35726SOL    HW256018  13.692   0.182   0.393
35727SOL     OW56019   9.171  13.305   0.351
35727SOL    HW156020   9.250  13.314   0.411
35727SOL    HW256021   9.148  13.395   0.313
35728SOL     OW56022  16.008   3.408   7.305
35728SOL    HW156023  15.944   3.420   7.381
35728SOL    HW256024  16.086   3.354   7.336
35729SOL     OW56025  13.567   5.152   0.893
35729SOL    HW156026  13.660   5.124   0.917
35729SOL    HW256027  13.522   5.191   0.974
35730SOL     OW56028   0.791   5.482   6.039
35730SOL    HW156029   0.853   5.511   6.111
35730SOL    HW256030   0.843   5.445   5.963
35731SOL     OW56031  14.581   5.592   1.621
35731SOL    HW156032  14.650   5.555   1.684
35731SOL    HW256033  14.543   5.676   1.660
35732SOL     OW56034   0.392   1.643   1.602
35732SOL    HW156035   0.481   1.632   1.557
35732SOL    HW256036   0.406   1.670   1.697
35733SOL     OW56037   0.400   9.200   6.828
35733SOL    HW156038   0.309   9.227   6.798
35733SOL    HW256039   0.403   9.101   6.844
35734SOL     OW56040   7.023  12.087   7.095
35734SOL    HW156041   7.023  11.997   7.140
35734SOL    HW256042   7.049  12.157   7.161
35735SOL     OW56043  10.709   6.563   7.462
35735SOL    HW156044  10.707   6.623   7.382
35735SOL    HW256045  10.758   6.479   7.440
35736SOL     OW56046  11.849   9.774   0.263
35736SOL    HW156047  11.917   9.720   0.213
35736SOL    HW256048  11.825   9.855   0.210
35737SOL     OW56049   3.128   7.820   7.513
35737SOL    HW156050   3.062   7.885   7.552
35737SOL    HW256051   3.131   7.738   7.569
35738SOL     OW56052   3.357   6.793   8.010
35738SOL    HW156053   3.288   6.855   8.047
35738SOL    HW256054   3.447   6.818   8.045
35739SOL     OW56055   7.950   3.883   1.142
35739SOL    HW156056   7.923   3.942   1.066
35739SOL    HW256057   7.956   3.788   1.110
35740SOL     OW56058  13.434  13.017   8.280
35740SOL    HW156059  13.456  13.085   8.209
35740SOL    HW256060  13.441  12.925   8.241
35741SOL     OW56061  12.639  16.051   1.446
35741SOL    HW156062  12.695  16.117   1.396
35741SOL    HW256063  12.672  16.045   1.540
35742SOL     OW56064  15.404   0.540   1.386
35742SOL    HW156065  15.334   0.607   1.362
35742SOL    HW256066  15.403   0.524   1.485
35743SOL     OW56067   7.779   5.710   6.312
35743SOL    HW156068   7.879   5.708   6.305
35743SOL    HW256069   7.744   5.616   6.307
35744SOL     OW56070  11.415   4.377   1.865
35744SOL    HW156071  11.496   4.385   1.923
35744SOL    HW256072  11.422   4.293   1.810
35745SOL     OW56073  15.129   6.142   7.143
35745SOL    HW156074  15.166   6.225   7.185
35745SOL    HW256075  15.185   6.064   7.169
35746SOL     OW56076   8.115   1.988   8.388
35746SOL    HW156077   8.081   1.954   0.022
35746SOL    HW256078   8.215   1.989   8.389
35747SOL     OW56079   2.760  12.760   6.743
35747SOL    HW156080   2.824  12.684   6.735
35747SOL    HW256081   2.801  12.843   6.706
35748SOL     OW56082  16.436  15.084   6.597
35748SOL    HW156083  16.469  15.175   6.572
35748SOL    HW256084  16.510  15.018   6.586
35749SOL     OW56085  14.891   1.906   0.989
35749SOL    HW156086  14.924   1.874   1.078
35749SOL    HW256087  14.960   1.965   0.947
35750SOL     OW56088  15.699  16.297   0.061
35750SOL    HW156089  15.688  16.292   0.161
35750SOL    HW256090  15.678  16.390   0.031
35751SOL     OW56091  10.844   1.615   1.417
35751SOL    HW156092  10.772   1.670   1.459
35751SOL    HW256093  10.928   1.622   1.471
35752SOL     OW56094   8.722   2.553   1.642
35752SOL    HW156095   8.780   2.630   1.615
35752SOL    HW256096   8.759   2.512   1.726
35753SOL     OW56097  10.820  10.053   0.176
35753SOL    HW156098  10.765  10.122   0.223
35753SOL    HW256099  10.902  10.033   0.229
35754SOL     OW56100   8.674   0.379   0.730
35754SOL    HW156101   8.665   0.364   0.632
35754SOL    HW256102   8.740   0.452   0.747
35755SOL     OW56103   8.977   1.126   7.484
35755SOL    HW156104   8.971   1.118   7.584
35755SOL    HW256105   8.886   1.141   7.446
35756SOL     OW56106   5.870   1.004   0.661
35756SOL    HW156107   5.882   0.924   0.719
35756SOL    HW256108   5.942   1.070   0.680
35757SOL     OW56109   7.915  12.592   7.311
35757SOL    HW156110   7.933  12.546   7.224
35757SOL    HW256111   7.870  12.529   7.374
35758SOL     OW56112   1.910  11.046   1.264
35758SOL    HW156113   1.879  11.137   1.236
35758SOL    HW256114   1.916  11.043   1.364
35759SOL     OW56115  13.345   2.791   6.575
35759SOL    HW156116  13.270   2.850   6.545
35759SOL    HW256117  13.428   2.846   6.585
35760SOL     OW56118   7.659   1.490   8.170
35760SOL    HW156119   7.686   1.412   8.227
35760SOL    HW256120   7.560   1.498   8.170
35761SOL     OW56121  11.295   7.085   8.130
35761SOL    HW156122  11.234   7.014   8.165
35761SOL    HW256123  11.309   7.155   8.199
35762SOL     OW56124  10.309  14.068   7.690
35762SOL    HW156125  10.367  14.102   7.764
35762SOL    HW256126  10.261  13.986   7.720
35763SOL     OW56127   3.676   7.496   0.562
35763SOL    HW156128   3.667   7.397   0.549
35763SOL    HW256129   3.724   7.514   0.648
35764SOL     OW56130   7.893   8.505   7.632
35764SOL    HW156131   7.957   8.554   7.691
35764SOL    HW256132   7.879   8.557   7.548
35765SOL     OW56133  15.516  14.701   2.319
35765SOL    HW156134  15.512  14.608   2.358
35765SOL    HW256135  15.605  14.715   2.276
35766SOL     OW56136   2.608  12.723   8.429
35766SOL    HW156137   2.568  12.634   8.410
35766SOL    HW256138   2.536  12.792   8.435
35767SOL     OW56139  11.452   2.564   1.680
35767SOL    HW156140  11.381   2.502   1.714
35767SOL    HW256141  11.426   2.658   1.703
35768SOL     OW56142  15.736  14.768   8.106
35768SOL    HW156143  15.727  14.709   8.186
35768SOL    HW256144  15.757  14.713   8.026
35769SOL     OW56145  16.724   5.738   1.259
35769SOL    HW156146  16.675   5.812   1.304
35769SOL    HW256147  16.671   5.707   1.179
35770SOL     OW56148  14.141   6.042   5.894
35770SOL    HW156149  14.171   5.992   5.813
35770SOL    HW256150  14.091   6.124   5.867
35771SOL     OW56151  10.718  14.237   0.850
35771SOL    HW156152  10.618  14.241   0.858
35771SOL    HW256153  10.757  14.325   0.879
35772SOL     OW56154   3.813   8.517   0.734
35772SOL    HW156155   3.879   8.591   0.752
35772SOL    HW256156   3.734   8.528   0.794
35773SOL     OW56157  16.977  12.487   1.881
35773SOL    HW156158   0.047  12.570   1.896
35773SOL    HW256159  16.885  12.498   1.919
35774SOL     OW56160  11.504   5.396   8.250
35774SOL    HW156161  11.428   5.421   8.189
35774SOL    HW256162  11.467   5.375   8.341
35775SOL     OW56163  15.954   9.392   0.538
35775SOL    HW156164  15.999   9.461   0.482
35775SOL    HW256165  16.023   9.329   0.574
35776SOL     OW56166  10.222   9.750   8.305
35776SOL    HW156167  10.316   9.723   8.286
35776SOL    HW256168  10.160   9.676   8.279
35777SOL     OW56169   4.314   4.174   7.120
35777SOL    HW156170   4.343   4.213   7.033
35777SOL    HW256171   4.290   4.249   7.183
35778SOL     OW56172  13.788   0.045   7.080
35778SOL    HW156173  13.698   0.001   7.074
35778SOL    HW256174  13.859  16.958   7.085
35779SOL     OW56175   8.296  14.575   2.254
35779SOL    HW156176   8.374  14.525   2.291
35779SOL    HW256177   8.266  14.644   2.320
35780SOL     OW56178   7.303  14.004   0.432
35780SOL    HW156179   7.351  14.088   0.457
35780SOL    HW256180   7.357  13.925   0.462
35781SOL     OW56181  14.748  15.617   6.473
35781SOL    HW156182  14.754  15.525   6.434
35781SOL    HW256183  14.693  15.675   6.413
35782SOL     OW56184   2.766  11.739   7.569
35782SOL    HW156185   2.745  11.649   7.606
35782SOL    HW256186   2.773  11.734   7.470
35783SOL     OW56187   5.387   6.490   1.550
35783SOL    HW156188   5.410   6.394   1.529
35783SOL    HW256189   5.410   6.509   1.645
35784SOL     OW56190   9.140   9.813   7.679
35784SOL    HW156191   9.114   9.725   7.640
35784SOL    HW256192   9.120   9.886   7.614
35785SOL     OW56193   9.622   7.966   7.565
35785SOL    HW156194   9.559   7.911   7.620
35785SOL    HW256195   9.624   8.059   7.601
35786SOL     OW56196  11.618   9.998   7.956
35786SOL    HW156197  11.569   9.949   8.028
35786SOL    HW256198  11.552  10.043   7.896
35787SOL     OW56199  13.467  11.413   7.896
35787SOL    HW156200  13.462  11.313   7.899
35787SOL    HW256201  13.425  11.452   7.978
35788SOL     OW56202  13.997  15.716   6.759
35788SOL    HW156203  13.954  15.626   6.765
35788SOL    HW256204  13.928  15.786   6.776
35789SOL     OW56205   8.173   3.688   1.379
35789SOL    HW156206   8.113   3.615   1.345
35789SOL    HW256207   8.254   3.648   1.421
35790SOL     OW56208   5.447  11.069   7.370
35790SOL    HW156209   5.489  10.980   7.388
35790SOL    HW256210   5.513  11.128   7.323
35791SOL     OW56211   2.553   5.871   7.392
35791SOL    HW156212   2.512   5.946   7.443
35791SOL    HW256213   2.481   5.809   7.359
35792SOL     OW56214   5.031  16.570   6.629
35792SOL    HW156215   4.986  16.647   6.675
35792SOL    HW256216   4.992  16.559   6.537
35793SOL     OW56217  15.248   1.885   1.873
35793SOL    HW156218  15.170   1.946   1.882
35793SOL    HW256219  15.245   1.816   1.945
35794SOL     OW56220   7.144  10.520   6.336
35794SOL    HW156221   7.218  10.587   6.332
35794SOL    HW256222   7.140  10.470   6.249
35795SOL     OW56223   7.585   5.178   0.384
35795SOL    HW156224   7.603   5.214   0.475
35795SOL    HW256225   7.636   5.231   0.316
35796SOL     OW56226   7.698   1.267   8.336
35796SOL    HW156227   7.743   1.187   8.296
35796SOL    HW256228   7.758   1.308   8.404
35797SOL     OW56229   2.249   6.049   8.442
35797SOL    HW156230   2.282   6.016   0.077
35797SOL    HW256231   2.193   5.978   8.399
35798SOL     OW56232   5.414  16.490   2.156
35798SOL    HW156233   5.433  16.394   2.137
35798SOL    HW256234   5.340  16.497   2.223
35799SOL     OW56235   6.141   9.919   7.997
35799SOL    HW156236   6.155   9.935   7.899
35799SOL    HW256237   6.088   9.994   8.036
35800SOL     OW56238  11.861   7.104   1.456
35800SOL    HW156239  11.816   7.035   1.513
35800SOL    HW256240  11.873   7.188   1.508
35801SOL     OW56241  15.218   2.409   1.873
35801SOL    HW156242  15.257   2.360   1.951
35801SOL    HW256243  15.129   2.369   1.850
35802SOL     OW56244  14.462   8.184   0.169
35802SOL    HW156245  14.494   8.264   0.118
35802SOL    HW256246  14.368   8.163   0.143
35803SOL     OW56247   7.538  16.640   0.006
35803SOL    HW156248   7.600  16.717   8.442
35803SOL    HW256249   7.470  16.668   0.074
35804SOL     OW56250  15.558  16.475   7.533
35804SOL    HW156251  15.493  16.399   7.539
35804SOL    HW256252  15.619  16.473   7.612
35805SOL     OW56253   0.123   2.455   7.822
35805SOL    HW156254   0.091   2.501   7.905
35805SOL    HW256255   0.116   2.517   7.745
35806SOL     OW56256  15.839  10.059   7.343
35806SOL    HW156257  15.802  10.001   7.415
35806SOL    HW256258  15.906  10.122   7.381
35807SOL     OW56259  11.322  13.788   8.015
35807SOL    HW156260  11.400  13.739   7.977
35807SOL    HW256261  11.241  13.771   7.959
35808SOL     OW56262   5.875   0.600   8.108
35808SOL    HW156263   5.972   0.611   8.086
35808SOL    HW256264   5.829   0.554   8.033
35809SOL     OW56265  16.910   5.167   1.122
35809SOL    HW156266  16.918   5.083   1.177
35809SOL    HW256267   0.013   5.217   1.125
35810SOL     OW56268   1.446  11.809   1.880
35810SOL    HW156269   1.465  11.713   1.899
35810SOL    HW256270   1.505  11.867   1.937
35811SOL     OW56271   4.901   7.386   0.249
35811SOL    HW156272   4.964   7.406   0.174
35811SOL    HW256273   4.863   7.294   0.236
35812SOL     OW56274   2.617  10.148   0.632
35812SOL    HW156275   2.580  10.140   0.724
35812SOL    HW256276   2.638  10.244   0.613
35813SOL     OW56277   4.721   4.503   1.397
35813SOL    HW156278   4.719   4.599   1.372
35813SOL    HW256279   4.792   4.456   1.345
35814SOL     OW56280   0.507   0.160   1.568
35814SOL    HW156281   0.597   0.189   1.534
35814SOL    HW256282   0.520   0.096   1.644
35815SOL     OW56283   5.018   3.790   8.412
35815SOL    HW156284   5.106   3.764   8.371
35815SOL    HW256285   4.955   3.817   8.339
35816SOL     OW56286   8.800   4.870   0.220
35816SOL    HW156287   8.846   4.872   0.131
35816SOL    HW256288   8.806   4.777   0.258
35817SOL     OW56289   0.839  12.597   0.636
35817SOL    HW156290   0.762  12.539   0.609
35817SOL    HW256291   0.883  12.558   0.717
35818SOL     OW56292   8.671   5.039   7.428
35818SOL    HW156293   8.679   4.944   7.398
35818SOL    HW256294   8.597   5.046   7.496
35819SOL     OW56295   1.374  14.568   8.376
35819SOL    HW156296   1.405  14.597   0.012
35819SOL    HW256297   1.293  14.509   8.386
35820SOL     OW56298  16.807   2.267   0.930
35820SOL    HW156299  16.851   2.315   1.006
35820SOL    HW256300  16.752   2.332   0.878
35821SOL     OW56301   4.701  11.899   6.269
35821SOL    HW156302   4.609  11.883   6.236
35821SOL    HW256303   4.763  11.913   6.192
35822SOL     OW56304  15.433  15.304   8.433
35822SOL    HW156305  15.350  15.352   0.006
35822SOL    HW256306  15.415  15.205   8.429
35823SOL     OW56307  10.761  14.053   0.642
35823SOL    HW156308  10.707  14.091   0.567
35823SOL    HW256309  10.752  14.113   0.722
35824SOL     OW56310   8.890  16.287   0.248
35824SOL    HW156311   8.988  16.277   0.231
35824SOL    HW256312   8.868  16.383   0.262
35825SOL     OW56313  10.664   8.267   1.986
35825SOL    HW156314  10.576   8.312   2.002
35825SOL    HW256315  10.712   8.256   2.073
35826SOL     OW56316   9.053   3.381   0.869
35826SOL    HW156317   9.094   3.300   0.912
35826SOL    HW256318   8.971   3.407   0.919
35827SOL     OW56319   4.275  13.812   0.150
35827SOL    HW156320   4.189  13.776   0.116
35827SOL    HW256321   4.339  13.824   0.074
35828SOL     OW56322   1.144   0.184   1.742
35828SOL    HW156323   1.211   0.112   1.757
35828SOL    HW256324   1.159   0.259   1.807
35829SOL     OW56325   7.880  14.857   1.492
35829SOL    HW156326   7.943  14.887   1.564
35829SOL    HW256327   7.798  14.913   1.494
35830SOL     OW56328   8.015  12.796   6.704
35830SOL    HW156329   7.941  12.783   6.638
35830SOL    HW256330   8.078  12.718   6.699
35831SOL     OW56331  15.287  11.726   1.657
35831SOL    HW156332  15.245  11.666   1.588
35831SOL    HW256333  15.218  11.756   1.722
35832SOL     OW56334   4.674   7.532   0.308
35832SOL    HW156335   4.759   7.482   0.292
35832SOL    HW256336   4.693   7.611   0.367
35833SOL     OW56337  13.194   6.570   6.510
35833SOL    HW156338  13.262   6.639   6.533
35833SOL    HW256339  13.223   6.521   6.427
35834SOL     OW56340   6.032   7.717   7.307
35834SOL    HW156341   6.004   7.654   7.378
35834SOL    HW256342   6.028   7.811   7.341
35835SOL     OW56343  10.230   4.938   1.812
35835SOL    HW156344  10.264   4.938   1.718
35835SOL    HW256345  10.254   5.025   1.856
35836SOL     OW56346  14.970   8.592   8.221
35836SOL    HW156347  14.893   8.635   8.174
35836SOL    HW256348  14.982   8.635   8.311
35837SOL     OW56349  16.448  11.096   0.512
35837SOL    HW156350  16.482  11.171   0.455
35837SOL    HW256351  16.422  11.131   0.602
35838SOL     OW56352   4.730  12.048   7.836
35838SOL    HW156353   4.635  12.050   7.868
35838SOL    HW256354   4.789  12.087   7.906
35839SOL     OW56355  16.802   8.897   1.266
35839SOL    HW156356  16.754   8.963   1.323
35839SOL    HW256357  16.750   8.812   1.262
35840SOL     OW56358   2.361   7.297   7.180
35840SOL    HW156359   2.380   7.268   7.086
35840SOL    HW256360   2.447   7.302   7.230
35841SOL     OW56361  10.376   0.929   7.785
35841SOL    HW156362  10.323   1.008   7.753
35841SOL    HW256363  10.381   0.860   7.713
35842SOL     OW56364  16.098   5.665   7.102
35842SOL    HW156365  16.112   5.684   7.200
35842SOL    HW256366  16.124   5.746   7.049
35843SOL     OW56367  15.325  10.010   0.750
35843SOL    HW156368  15.386   9.957   0.691
35843SOL    HW256369  15.378  10.057   0.820
35844SOL     OW56370   1.316   0.524   1.695
35844SOL    HW156371   1.287   0.618   1.676
35844SOL    HW256372   1.268   0.490   1.776
35845SOL     OW56373  10.605   3.211   1.471
35845SOL    HW156374  10.559   3.299   1.465
35845SOL    HW256375  10.568   3.159   1.548
35846SOL     OW56376   9.405  12.316   0.092
35846SOL    HW156377   9.477  12.363   0.040
35846SOL    HW256378   9.443  12.285   0.180
35847SOL     OW56379   5.008   7.413   1.874
35847SOL    HW156380   5.027   7.479   1.947
35847SOL    HW256381   5.089   7.356   1.858
35848SOL     OW56382   9.975  11.102   1.388
35848SOL    HW156383  10.049  11.046   1.351
35848SOL    HW256384   9.910  11.123   1.315
35849SOL     OW56385   4.564  15.239   0.963
35849SOL    HW156386   4.552  15.140   0.968
35849SOL    HW256387   4.577  15.276   1.055
35850SOL     OW56388  12.779   3.152   6.254
35850SOL    HW156389  12.827   3.213   6.191
35850SOL    HW256390  12.831   3.068   6.267
35851SOL     OW56391   1.122   0.809   2.011
35851SOL    HW156392   1.107   0.742   2.084
35851SOL    HW256393   1.156   0.894   2.051
35852SOL     OW56394  15.229   2.181   0.689
35852SOL    HW156395  15.242   2.150   0.783
35852SOL    HW256396  15.309   2.232   0.659
35853SOL     OW56397   5.612   1.531   0.407
35853SOL    HW156398   5.698   1.544   0.357
35853SOL    HW256399   5.627   1.555   0.503
35854SOL     OW56400  14.108  10.752   1.874
35854SOL    HW156401  14.019  10.792   1.893
35854SOL    HW256402  14.175  10.824   1.855
35855SOL     OW56403   5.855   4.598   1.066
35855SOL    HW156404   5.820   4.598   1.160
35855SOL    HW256405   5.919   4.674   1.055
35856SOL     OW56406   4.245   7.102   7.036
35856SOL    HW156407   4.263   7.159   6.955
35856SOL    HW256408   4.231   7.007   7.008
35857SOL     OW56409   7.111  14.359   0.623
35857SOL    HW156410   7.149  14.292   0.687
35857SOL    HW256411   7.026  14.396   0.660
35858SOL     OW56412   3.368   2.902   8.268
35858SOL    HW156413   3.461   2.868   8.278
35858SOL    HW256414   3.321   2.897   8.357
35859SOL     OW56415   7.500   0.743   1.124
35859SOL    HW156416   7.435   0.818   1.141
35859SOL    HW256417   7.535   0.709   1.212
35860SOL     OW56418  11.779  15.384   7.898
35860SOL    HW156419  11.757  15.289   7.877
35860SOL    HW256420  11.834  15.423   7.825
35861SOL     OW56421   1.036  11.356   7.754
35861SOL    HW156422   1.099  11.413   7.806
35861SOL    HW256423   0.994  11.410   7.681
35862SOL     OW56424   3.210   1.539   0.978
35862SOL    HW156425   3.225   1.508   0.884
35862SOL    HW256426   3.196   1.638   0.978
35863SOL     OW56427  13.573  11.115   7.308
35863SOL    HW156428  13.489  11.105   7.255
35863SOL    HW256429  13.625  11.193   7.274
35864SOL     OW56430   8.151   4.136   0.938
35864SOL    HW156431   8.141   4.184   1.025
35864SOL    HW256432   8.207   4.191   0.876
35865SOL     OW56433  16.179   1.768   6.510
35865SOL    HW156434  16.242   1.704   6.554
35865SOL    HW256435  16.118   1.717   6.449
35866SOL     OW56436   2.527  11.196   7.998
35866SOL    HW156437   2.506  11.178   7.902
35866SOL    HW256438   2.591  11.127   8.032
35867SOL     OW56439  13.491   6.141   8.189
35867SOL    HW156440  13.430   6.138   8.268
35867SOL    HW256441  13.506   6.236   8.163
35868SOL     OW56442   6.645   4.543   7.779
35868SOL    HW156443   6.619   4.626   7.730
35868SOL    HW256444   6.630   4.557   7.877
35869SOL     OW56445   9.880   0.424   1.679
35869SOL    HW156446   9.870   0.428   1.779
35869SOL    HW256447   9.939   0.499   1.648
35870SOL     OW56448  11.027  11.617   8.398
35870SOL    HW156449  10.993  11.700   8.353
35870SOL    HW256450  11.069  11.642   0.031
35871SOL     OW56451  14.653  10.453   8.273
35871SOL    HW156452  14.655  10.431   8.176
35871SOL    HW256453  14.580  10.519   8.290
35872SOL     OW56454   4.686  15.984   2.602
35872SOL    HW156455   4.599  15.969   2.650
35872SOL    HW256456   4.742  16.048   2.654
35873SOL     OW56457   8.046   9.454   7.639
35873SOL    HW156458   8.141   9.461   7.608
35873SOL    HW256459   8.044   9.429   7.736
35874SOL     OW56460  16.235   3.976   5.912
35874SOL    HW156461  16.212   4.055   5.856
35874SOL    HW256462  16.269   3.902   5.854
35875SOL     OW56463  10.659   4.175   0.935
35875SOL    HW156464  10.662   4.255   0.875
35875SOL    HW256465  10.744   4.171   0.988
35876SOL     OW56466   0.228  14.010   0.379
35876SOL    HW156467   0.297  13.958   0.327
35876SOL    HW256468   0.271  14.090   0.420
35877SOL     OW56469  14.665  10.599   0.635
35877SOL    HW156470  14.719  10.529   0.682
35877SOL    HW256471  14.718  10.684   0.630
35878SOL     OW56472  14.617   5.625   8.128
35878SOL    HW156473  14.675   5.661   8.055
35878SOL    HW256474  14.611   5.693   8.201
35879SOL     OW56475  10.987   6.303   2.152
35879SOL    HW156476  11.086   6.292   2.160
35879SOL    HW256477  10.959   6.385   2.202
35880SOL     OW56478   0.959   1.749   7.773
35880SOL    HW156479   0.987   1.654   7.787
35880SOL    HW256480   0.904   1.780   7.851
35881SOL     OW56481  13.597   5.054   0.124
35881SOL    HW156482  13.574   5.061   0.027
35881SOL    HW256483  13.678   5.108   0.143
35882SOL     OW56484   6.394   3.667   6.900
35882SOL    HW156485   6.342   3.651   6.816
35882SOL    HW256486   6.391   3.764   6.923
35883SOL     OW56487  16.376   3.634   7.284
35883SOL    HW156488  16.387   3.680   7.196
35883SOL    HW256489  16.292   3.664   7.328
35884SOL     OW56490   8.268   1.358   7.445
35884SOL    HW156491   8.268   1.284   7.377
35884SOL    HW256492   8.205   1.335   7.519
35885SOL     OW56493   6.713  12.534   1.735
35885SOL    HW156494   6.733  12.561   1.829
35885SOL    HW256495   6.630  12.479   1.733
35886SOL     OW56496   0.597  16.708   1.795
35886SOL    HW156497   0.647  16.649   1.733
35886SOL    HW256498   0.512  16.663   1.824
35887SOL     OW56499   1.725  14.212   7.826
35887SOL    HW156500   1.795  14.157   7.781
35887SOL    HW256501   1.752  14.232   7.920
35888SOL     OW56502  15.139   0.413   6.646
35888SOL    HW156503  15.141   0.372   6.555
35888SOL    HW256504  15.179   0.505   6.642
35889SOL     OW56505   0.354   0.450   6.603
35889SOL    HW156506   0.257   0.474   6.597
35889SOL    HW256507   0.375   0.382   6.533
35890SOL     OW56508   3.411   7.292   1.731
35890SOL    HW156509   3.485   7.328   1.787
35890SOL    HW256510   3.372   7.211   1.775
35891SOL     OW56511   8.885   9.136   7.396
35891SOL    HW156512   8.892   9.055   7.454
35891SOL    HW256513   8.964   9.195   7.411
35892SOL     OW56514   6.071   3.884   6.934
35892SOL    HW156515   6.134   3.918   7.004
35892SOL    HW256516   5.985   3.933   6.939
35893SOL     OW56517   6.619  14.902   8.388
35893SOL    HW156518   6.677  14.821   8.402
35893SOL    HW256519   6.653  14.953   8.309
35894SOL     OW56520   6.360   5.537   0.514
35894SOL    HW156521   6.403   5.611   0.462
35894SOL    HW256522   6.262   5.554   0.521
35895SOL     OW56523   4.928  13.840   6.539
35895SOL    HW156524   4.864  13.807   6.608
35895SOL    HW256525   4.892  13.822   6.447
35896SOL     OW56526   3.696   8.076   8.272
35896SOL    HW156527   3.745   7.995   8.304
35896SOL    HW256528   3.615   8.049   8.221
35897SOL     OW56529   9.915  15.976   0.590
35897SOL    HW156530  10.002  16.014   0.560
35897SOL    HW256531   9.852  16.050   0.614
35898SOL     OW56532   5.716   9.356   6.845
35898SOL    HW156533   5.757   9.423   6.782
35898SOL    HW256534   5.764   9.360   6.933
35899SOL     OW56535   8.899  14.741   6.937
35899SOL    HW156536   8.997  14.760   6.936
35899SOL    HW256537   8.884  14.642   6.934
35900SOL     OW56538  10.494  10.511   6.274
35900SOL    HW156539  10.574  10.538   6.220
35900SOL    HW256540  10.417  10.494   6.213
35901SOL     OW56541   6.114  14.755   7.098
35901SOL    HW156542   6.205  14.733   7.063
35901SOL    HW256543   6.049  14.686   7.066
35902SOL     OW56544   3.426  11.600   1.976
35902SOL    HW156545   3.352  11.668   1.981
35902SOL    HW256546   3.514  11.646   1.985
35903SOL     OW56547  10.099   0.156   8.285
35903SOL    HW156548  10.154   0.207   8.351
35903SOL    HW256549  10.051   0.082   8.332
35904SOL     OW56550   5.464   8.545   2.346
35904SOL    HW156551   5.376   8.565   2.391
35904SOL    HW256552   5.500   8.629   2.305
35905SOL     OW56553  15.018   1.729   6.861
35905SOL    HW156554  14.930   1.682   6.850
35905SOL    HW256555  15.005   1.827   6.845
35906SOL     OW56556  14.960  11.379   1.016
35906SOL    HW156557  14.966  11.416   1.108
35906SOL    HW256558  14.939  11.452   0.951
35907SOL     OW56559  12.365  11.184   7.143
35907SOL    HW156560  12.341  11.249   7.071
35907SOL    HW256561  12.406  11.233   7.220
35908SOL     OW56562   0.455   5.144   8.412
35908SOL    HW156563   0.473   5.092   0.041
35908SOL    HW256564   0.386   5.097   8.357
35909SOL     OW56565  10.598  11.785   0.605
35909SOL    HW156566  10.591  11.881   0.631
35909SOL    HW256567  10.596  11.727   0.687
35910SOL     OW56568  14.241   4.555   1.357
35910SOL    HW156569  14.156   4.574   1.307
35910SOL    HW256570  14.219   4.521   1.448
35911SOL     OW56571  11.182   2.706   0.746
35911SOL    HW156572  11.160   2.628   0.688
35911SOL    HW256573  11.230   2.675   0.828
35912SOL     OW56574   4.543   4.511   0.619
35912SOL    HW156575   4.564   4.462   0.704
35912SOL    HW256576   4.547   4.447   0.542
35913SOL     OW56577   3.022  14.348   7.239
35913SOL    HW156578   3.113  14.334   7.277
35913SOL    HW256579   2.987  14.437   7.266
35914SOL     OW56580   9.583   8.071   0.147
35914SOL    HW156581   9.552   8.152   0.197
35914SOL    HW256582   9.581   7.991   0.207
35915SOL     OW56583  16.183   3.072   7.055
35915SOL    HW156584  16.153   3.116   6.970
35915SOL    HW256585  16.169   2.973   7.049
35916SOL     OW56586   1.672   5.961   6.958
35916SOL    HW156587   1.638   5.994   6.870
35916SOL    HW256588   1.729   5.880   6.944
35917SOL     OW56589   1.332   4.812   7.223
35917SOL    HW156590   1.249   4.843   7.176
35917SOL    HW256591   1.322   4.830   7.321
35918SOL     OW56592   4.949   7.814   7.667
35918SOL    HW156593   4.948   7.877   7.745
35918SOL    HW256594   4.865   7.827   7.613
35919SOL     OW56595   4.144  14.961   1.255
35919SOL    HW156596   4.237  14.990   1.234
35919SOL    HW256597   4.079  15.027   1.217
35920SOL     OW56598   5.835   6.332   1.915
35920SOL    HW156599   5.899   6.283   1.975
35920SOL    HW256600   5.886   6.390   1.852
35921SOL     OW56601   3.103   1.170   7.434
35921SOL    HW156602   3.036   1.107   7.394
35921SOL    HW256603   3.058   1.257   7.455
35922SOL     OW56604  13.683   7.570   7.891
35922SOL    HW156605  13.666   7.629   7.812
35922SOL    HW256606  13.658   7.476   7.868
35923SOL     OW56607   1.686  14.758   7.696
35923SOL    HW156608   1.773  14.708   7.692
35923SOL    HW256609   1.621  14.716   7.632
35924SOL     OW56610   6.580   1.536   7.233
35924SOL    HW156611   6.591   1.499   7.325
35924SOL    HW256612   6.594   1.635   7.234
35925SOL     OW56613   7.693   7.129   7.976
35925SOL    HW156614   7.764   7.143   7.907
35925SOL    HW256615   7.730   7.073   8.050
35926SOL     OW56616  11.070  15.980   0.254
35926SOL    HW156617  10.994  15.944   0.199
35926SOL    HW256618  11.153  15.929   0.232
35927SOL     OW56619   1.982   4.057   8.296
35927SOL    HW156620   2.069   4.104   8.282
35927SOL    HW256621   1.966   4.044   8.394
35928SOL     OW56622  16.979   9.112   0.220
35928SOL    HW156623   0.080   9.076   0.261
35928SOL    HW256624  16.982   9.211   0.219
35929SOL     OW56625  10.965   4.588   0.558
35929SOL    HW156626  10.960   4.529   0.639
35929SOL    HW256627  10.931   4.679   0.581
35930SOL     OW56628   5.827  12.134   6.600
35930SOL    HW156629   5.867  12.113   6.689
35930SOL    HW256630   5.851  12.062   6.535
35931SOL     OW56631   1.553   7.478   7.695
35931SOL    HW156632   1.484   7.478   7.768
35931SOL    HW256633   1.546   7.562   7.642
35932SOL     OW56634   8.263  13.231   1.992
35932SOL    HW156635   8.324  13.263   2.065
35932SOL    HW256636   8.171  13.217   2.029
35933SOL     OW56637   5.846   4.268   7.059
35933SOL    HW156638   5.771   4.312   7.109
35933SOL    HW256639   5.934   4.304   7.092
35934SOL     OW56640   0.804   7.148   6.810
35934SOL    HW156641   0.765   7.104   6.890
35934SOL    HW256642   0.738   7.214   6.773
35935SOL     OW56643   2.210  15.793   2.188
35935SOL    HW156644   2.273  15.810   2.264
35935SOL    HW256645   2.254  15.819   2.102
35936SOL     OW56646   0.245  11.019   0.688
35936SOL    HW156647   0.293  11.105   0.708
35936SOL    HW256648   0.192  11.029   0.605
35937SOL     OW56649   4.451  15.255   6.487
35937SOL    HW156650   4.544  15.223   6.470
35937SOL    HW256651   4.438  15.344   6.443
35938SOL     OW56652  13.699   2.472   0.855
35938SOL    HW156653  13.643   2.449   0.934
35938SOL    HW256654  13.769   2.538   0.882
35939SOL     OW56655   1.306  16.004   7.101
35939SOL    HW156656   1.257  15.936   7.155
35939SOL    HW256657   1.244  16.046   7.035
35940SOL     OW56658  15.754  12.163   6.758
35940SOL    HW156659  15.669  12.180   6.708
35940SOL    HW256660  15.830  12.157   6.693
35941SOL     OW56661  15.849  14.667   7.655
35941SOL    HW156662  15.920  14.734   7.634
35941SOL    HW256663  15.766  14.688   7.602
35942SOL     OW56664   9.624   8.923   7.335
35942SOL    HW156665   9.601   8.990   7.405
35942SOL    HW256666   9.630   8.968   7.246
35943SOL     OW56667  15.905   3.016   5.831
35943SOL    HW156668  15.990   3.064   5.806
35943SOL    HW256669  15.829   3.081   5.828
35944SOL     OW56670   2.207   2.240   1.602
35944SOL    HW156671   2.201   2.313   1.669
35944SOL    HW256672   2.192   2.152   1.647
35945SOL     OW56673   1.048   4.340   1.065
35945SOL    HW156674   0.952   4.318   1.051
35945SOL    HW256675   1.056   4.413   1.133
35946SOL     OW56676   8.465   9.037   1.095
35946SOL    HW156677   8.445   9.123   1.142
35946SOL    HW256678   8.385   9.008   1.043
35947SOL     OW56679   7.095  16.018   2.373
35947SOL    HW156680   7.156  15.973   2.438
35947SOL    HW256681   7.135  16.105   2.344
35948SOL     OW56682   8.066   6.307   1.785
35948SOL    HW156683   8.156   6.351   1.790
35948SOL    HW256684   8.020   6.315   1.873
35949SOL     OW56685   2.305   5.527   6.511
35949SOL    HW156686   2.267   5.491   6.426
35949SOL    HW256687   2.252   5.493   6.588
35950SOL     OW56688   9.778   7.274   6.777
35950SOL    HW156689   9.729   7.361   6.789
35950SOL    HW256690   9.806   7.239   6.866
35951SOL     OW56691   7.860   1.396   0.069
35951SOL    HW156692   7.814   1.378   0.156
35951SOL    HW256693   7.888   1.492   0.066
35952SOL     OW56694   7.336   1.955   0.395
35952SOL    HW156695   7.323   1.968   0.494
35952SOL    HW256696   7.365   2.041   0.354
35953SOL     OW56697  13.936   6.137   8.008
35953SOL    HW156698  13.971   6.045   8.025
35953SOL    HW256699  13.853   6.132   7.954
35954SOL     OW56700   8.254   6.361   0.136
35954SOL    HW156701   8.184   6.289   0.140
35954SOL    HW256702   8.222   6.442   0.186
35955SOL     OW56703  11.728  15.649   1.809
35955SOL    HW156704  11.695  15.690   1.893
35955SOL    HW256705  11.819  15.686   1.787
35956SOL     OW56706  13.140   1.346   6.077
35956SOL    HW156707  13.240   1.340   6.081
35956SOL    HW256708  13.104   1.273   6.019
35957SOL     OW56709   6.464   4.691   0.981
35957SOL    HW156710   6.420   4.616   0.932
35957SOL    HW256711   6.493   4.659   1.071
35958SOL     OW56712  10.134  11.941   0.791
35958SOL    HW156713  10.143  11.996   0.708
35958SOL    HW256714  10.042  11.902   0.796
35959SOL     OW56715   7.220   9.502   0.410
35959SOL    HW156716   7.123   9.508   0.387
35959SOL    HW256717   7.250   9.586   0.455
35960SOL     OW56718   3.579  16.330   7.506
35960SOL    HW156719   3.519  16.292   7.436
35960SOL    HW256720   3.668  16.349   7.466
35961SOL     OW56721  10.435   6.479   7.818
35961SOL    HW156722  10.348   6.512   7.853
35961SOL    HW256723  10.453   6.521   7.729
35962SOL     OW56724   9.858   8.574   8.440
35962SOL    HW156725   9.848   8.495   0.046
35962SOL    HW256726   9.930   8.556   8.373
35963SOL     OW56727   0.343   3.706   6.562
35963SOL    HW156728   0.254   3.735   6.528
35963SOL    HW256729   0.346   3.606   6.567
35964SOL     OW56730  11.000  14.537   7.305
35964SOL    HW156731  11.011  14.586   7.219
35964SOL    HW256732  10.963  14.599   7.375
35965SOL     OW56733   2.124   7.273   6.285
35965SOL    HW156734   2.222   7.271   6.265
35965SOL    HW256735   2.084   7.355   6.244
35966SOL     OW56736   3.243   6.565   1.127
35966SOL    HW156737   3.153   6.541   1.165
35966SOL    HW256738   3.235   6.649   1.073
35967SOL     OW56739  11.237  12.108   1.162
35967SOL    HW156740  11.209  12.036   1.225
35967SOL    HW256741  11.247  12.070   1.070
35968SOL     OW56742   2.810  11.497   0.867
35968SOL    HW156743   2.728  11.496   0.924
35968SOL    HW256744   2.876  11.431   0.902
35969SOL     OW56745   4.533   4.291   8.273
35969SOL    HW156746   4.630   4.270   8.284
35969SOL    HW256747   4.510   4.297   8.176
35970SOL     OW56748   7.146  11.621   6.974
35970SOL    HW156749   7.099  11.537   6.946
35970SOL    HW256750   7.135  11.691   6.904
35971SOL     OW56751  10.954  10.251   0.879
35971SOL    HW156752  11.005  10.296   0.806
35971SOL    HW256753  11.016  10.232   0.956
35972SOL     OW56754   4.552   7.079   1.559
35972SOL    HW156755   4.617   7.025   1.506
35972SOL    HW256756   4.582   7.083   1.654
35973SOL     OW56757  14.501   1.226   6.729
35973SOL    HW156758  14.486   1.256   6.823
35973SOL    HW256759  14.437   1.273   6.669
35974SOL     OW56760   6.256  15.526   7.601
35974SOL    HW156761   6.171  15.559   7.560
35974SOL    HW256762   6.334  15.558   7.548
35975SOL     OW56763   7.213   2.306   8.348
35975SOL    HW156764   7.234   2.398   8.315
35975SOL    HW256765   7.283   2.277   8.413
35976SOL     OW56766  15.828   6.511   7.891
35976SOL    HW156767  15.916   6.552   7.915
35976SOL    HW256768  15.760   6.584   7.878
35977SOL     OW56769  15.772  13.271   0.981
35977SOL    HW156770  15.766  13.306   0.888
35977SOL    HW256771  15.739  13.177   0.984
35978SOL     OW56772  11.770  13.690   7.451
35978SOL    HW156773  11.860  13.707   7.491
35978SOL    HW256774  11.772  13.604   7.400
35979SOL     OW56775  13.205   2.052   5.641
35979SOL    HW156776  13.290   2.029   5.594
35979SOL    HW256777  13.128   2.015   5.589
35980SOL     OW56778  14.675  14.026   0.625
35980SOL    HW156779  14.646  14.024   0.721
35980SOL    HW256780  14.706  13.935   0.599
35981SOL     OW56781   1.421   1.868   8.245
35981SOL    HW156782   1.369   1.893   8.164
35981SOL    HW256783   1.361   1.865   8.325
35982SOL     OW56784   3.703  16.886   0.237
35982SOL    HW156785   3.743  16.940   0.163
35982SOL    HW256786   3.687  16.793   0.205
35983SOL     OW56787   1.441  11.931   0.606
35983SOL    HW156788   1.398  11.996   0.544
35983SOL    HW256789   1.536  11.957   0.624
35984SOL     OW56790   3.948   0.389   7.171
35984SOL    HW156791   3.931   0.352   7.079
35984SOL    HW256792   3.863   0.430   7.205
35985SOL     OW56793   9.145   5.186   1.809
35985SOL    HW156794   9.122   5.178   1.906
35985SOL    HW256795   9.210   5.260   1.796
35986SOL     OW56796   6.774   4.309   1.389
35986SOL    HW156797   6.782   4.212   1.411
35986SOL    HW256798   6.715   4.321   1.309
35987SOL     OW56799  16.760   5.007   8.310
35987SOL    HW156800  16.778   4.917   8.270
35987SOL    HW256801  16.748   5.074   8.237
35988SOL     OW56802  10.414   1.361   1.262
35988SOL    HW156803  10.491   1.425   1.258
35988SOL    HW256804  10.347   1.395   1.328
35989SOL     OW56805  16.349   0.899   7.001
35989SOL    HW156806  16.401   0.823   7.040
35989SOL    HW256807  16.412   0.971   6.972
35990SOL     OW56808  13.333   1.704   7.308
35990SOL    HW156809  13.336   1.799   7.339
35990SOL    HW256810  13.321   1.702   7.209
35991SOL     OW56811  15.352  12.965   7.414
35991SOL    HW156812  15.441  12.920   7.401
35991SOL    HW256813  15.305  12.970   7.326
35992SOL     OW56814   4.632  10.112   0.017
35992SOL    HW156815   4.666  10.164   8.393
35992SOL    HW256816   4.656  10.159   0.102
35993SOL     OW56817   2.397   7.028   0.865
35993SOL    HW156818   2.385   7.120   0.828
35993SOL    HW256819   2.360   7.024   0.957
35994SOL     OW56820   9.240  16.615   6.833
35994SOL    HW156821   9.152  16.657   6.814
35994SOL    HW256822   9.308  16.649   6.767
35995SOL     OW56823   4.720   8.720   0.686
35995SOL    HW156824   4.758   8.813   0.686
35995SOL    HW256825   4.700   8.693   0.592
35996SOL     OW56826  16.717  11.832   1.091
35996SOL    HW156827  16.790  11.856   1.027
35996SOL    HW256828  16.649  11.904   1.093
35997SOL     OW56829  11.455  11.932   0.019
35997SOL    HW156830  11.437  12.005   0.084
35997SOL    HW256831  11.512  11.966   8.399
35998SOL     OW56832  11.671  16.129   0.223
35998SOL    HW156833  11.707  16.213   0.263
35998SOL    HW256834  11.584  16.106   0.266
35999SOL     OW56835   2.826  10.793   7.615
35999SOL    HW156836   2.777  10.864   7.566
35999SOL    HW256837   2.789  10.784   7.707
36000SOL     OW56838  15.709   6.325   0.750
36000SOL    HW156839  15.799   6.310   0.709
36000SOL    HW256840  15.716   6.390   0.825
36001SOL     OW56841   0.212   3.320   7.430
36001SOL    HW156842   0.307   3.317   7.401
36001SOL    HW256843   0.206   3.361   7.521
36002SOL     OW56844   0.292   9.166   8.407
36002SOL    HW156845   0.246   9.175   8.319
36002SOL    HW256846   0.329   9.073   8.416
36003SOL     OW56847   0.947   6.286   7.899
36003SOL    HW156848   1.009   6.357   7.933
36003SOL    HW256849   0.943   6.212   7.965
36004SOL     OW56850   6.022  14.906   0.142
36004SOL    HW156851   5.989  14.817   0.109
36004SOL    HW256852   6.121  14.901   0.158
36005SOL     OW56853   9.129   4.190   6.590
36005SOL    HW156854   9.227   4.212   6.586
36005SOL    HW256855   9.092   4.219   6.678
36006SOL     OW56856  13.406   9.446   2.299
36006SOL    HW156857  13.438   9.540   2.311
36006SOL    HW256858  13.341   9.423   2.372
36007SOL     OW56859  12.617   9.354   1.342
36007SOL    HW156860  12.666   9.327   1.425
36007SOL    HW256861  12.640   9.292   1.267
36008SOL     OW56862   5.162  10.410   7.048
36008SOL    HW156863   5.163  10.323   7.097
36008SOL    HW256864   5.123  10.481   7.108
36009SOL     OW56865   2.655  12.327   2.131
36009SOL    HW156866   2.738  12.280   2.158
36009SOL    HW256867   2.580  12.302   2.193
36010SOL     OW56868   4.137  10.468   6.384
36010SOL    HW156869   4.151  10.567   6.375
36010SOL    HW256870   4.066  10.438   6.320
36011SOL     OW56871  10.976  12.683   7.391
36011SOL    HW156872  10.960  12.781   7.394
36011SOL    HW256873  10.989  12.654   7.296
36012SOL     OW56874   3.391  16.351   7.703
36012SOL    HW156875   3.377  16.444   7.739
36012SOL    HW256876   3.457  16.355   7.627
36013SOL     OW56877   5.636   6.023   6.475
36013SOL    HW156878   5.621   6.095   6.406
36013SOL    HW256879   5.733   6.016   6.496
36014SOL     OW56880  12.427   6.638   2.146
36014SOL    HW156881  12.489   6.590   2.209
36014SOL    HW256882  12.419   6.734   2.174
36015SOL     OW56883   5.926   7.259   0.036
36015SOL    HW156884   5.876   7.190   8.437
36015SOL    HW256885   5.924   7.235   0.133
36016SOL     OW56886   0.155   6.875   6.056
36016SOL    HW156887   0.222   6.808   6.024
36016SOL    HW256888   0.130   6.936   5.980
36017SOL     OW56889   5.167   1.334   8.031
36017SOL    HW156890   5.241   1.319   8.097
36017SOL    HW256891   5.136   1.246   7.995
36018SOL     OW56892   9.961   8.319   7.542
36018SOL    HW156893   9.908   8.372   7.608
36018SOL    HW256894  10.050   8.363   7.528
36019SOL     OW56895  13.771   3.057   1.804
36019SOL    HW156896  13.811   2.978   1.849
36019SOL    HW256897  13.824   3.139   1.828
36020SOL     OW56898  12.000  16.905   7.800
36020SOL    HW156899  12.022  16.843   7.724
36020SOL    HW256900  11.927  16.866   7.855
36021SOL     OW56901  12.011   7.902   1.081
36021SOL    HW156902  12.022   7.964   1.159
36021SOL    HW256903  12.082   7.831   1.086
36022SOL     OW56904  14.750   1.178   7.852
36022SOL    HW156905  14.716   1.127   7.931
36022SOL    HW256906  14.769   1.273   7.880
36023SOL     OW56907   1.649   3.674   6.406
36023SOL    HW156908   1.673   3.759   6.359
36023SOL    HW256909   1.661   3.597   6.343
36024SOL     OW56910   4.275  14.187   6.872
36024SOL    HW156911   4.291  14.093   6.844
36024SOL    HW256912   4.243  14.189   6.967
36025SOL     OW56913  16.402   2.392   0.176
36025SOL    HW156914  16.405   2.468   0.241
36025SOL    HW256915  16.483   2.335   0.188
36026SOL     OW56916   3.768   5.386   6.561
36026SOL    HW156917   3.748   5.404   6.464
36026SOL    HW256918   3.831   5.309   6.568
36027SOL     OW56919  13.657   2.059   0.602
36027SOL    HW156920  13.558   2.061   0.607
36027SOL    HW256921  13.688   1.965   0.587
36028SOL     OW56922  16.914   7.240   7.259
36028SOL    HW156923   0.020   7.203   7.287
36028SOL    HW256924  16.929   7.317   7.197
36029SOL     OW56925   9.075  14.420   8.022
36029SOL    HW156926   9.064  14.424   8.122
36029SOL    HW256927   9.172  14.416   8.000
36030SOL     OW56928  10.409   4.905   6.181
36030SOL    HW156929  10.367   4.818   6.205
36030SOL    HW256930  10.374   4.936   6.092
36031SOL     OW56931   4.210  15.805   1.507
36031SOL    HW156932   4.247  15.712   1.509
36031SOL    HW256933   4.280  15.870   1.538
36032SOL     OW56934  13.978   0.088   6.366
36032SOL    HW156935  13.998   0.054   6.275
36032SOL    HW256936  13.879   0.096   6.378
36033SOL     OW56937  14.637  11.706   7.052
36033SOL    HW156938  14.730  11.672   7.065
36033SOL    HW256939  14.627  11.794   7.098
36034SOL     OW56940   4.878  14.481   7.944
36034SOL    HW156941   4.838  14.531   8.022
36034SOL    HW256942   4.972  14.512   7.931
36035SOL     OW56943   2.542   6.362   7.385
36035SOL    HW156944   2.517   6.278   7.434
36035SOL    HW256945   2.626   6.346   7.333
36036SOL     OW56946   7.873   6.409   7.076
36036SOL    HW156947   7.849   6.428   6.981
36036SOL    HW256948   7.794   6.368   7.123
36037SOL     OW56949   3.355  15.394   0.647
36037SOL    HW156950   3.289  15.320   0.635
36037SOL    HW256951   3.428  15.385   0.579
36038SOL     OW56952   0.754   4.472   6.421
36038SOL    HW156953   0.739   4.443   6.327
36038SOL    HW256954   0.668   4.467   6.472
36039SOL     OW56955   9.021   8.382   6.358
36039SOL    HW156956   8.977   8.293   6.346
36039SOL    HW256957   9.011   8.436   6.274
36040SOL     OW56958  13.021  11.129   7.882
36040SOL    HW156959  12.931  11.129   7.837
36040SOL    HW256960  13.049  11.034   7.900
36041SOL     OW56961   5.993  10.084   0.482
36041SOL    HW156962   5.957  10.176   0.467
36041SOL    HW256963   5.917  10.019   0.482
36042SOL     OW56964  16.337  10.499   8.155
36042SOL    HW156965  16.396  10.426   8.190
36042SOL    HW256966  16.261  10.514   8.218
36043SOL     OW56967   6.045   2.189   2.036
36043SOL    HW156968   6.090   2.229   2.116
36043SOL    HW256969   6.044   2.089   2.044
36044SOL     OW56970  14.159   5.584   1.314
36044SOL    HW156971  14.177   5.677   1.282
36044SOL    HW256972  14.235   5.553   1.372
36045SOL     OW56973  10.883  15.644   0.181
36045SOL    HW156974  10.860  15.740   0.163
36045SOL    HW256975  10.958  15.640   0.248
36046SOL     OW56976   0.886  14.969   7.562
36046SOL    HW156977   0.944  14.963   7.643
36046SOL    HW256978   0.886  14.882   7.513
36047SOL     OW56979   5.455  10.898   7.816
36047SOL    HW156980   5.538  10.947   7.792
36047SOL    HW256981   5.474  10.835   7.892
36048SOL     OW56982  10.083  13.629   7.355
36048SOL    HW156983  10.018  13.663   7.424
36048SOL    HW256984  10.040  13.557   7.301
36049SOL     OW56985   9.699   3.388   1.417
36049SOL    HW156986   9.722   3.473   1.464
36049SOL    HW256987   9.600   3.381   1.406
36050SOL     OW56988  16.854   7.158   6.741
36050SOL    HW156989  16.858   7.132   6.644
36050SOL    HW256990  16.880   7.079   6.797
36051SOL     OW56991  11.460   9.600   8.157
36051SOL    HW156992  11.390   9.531   8.139
36051SOL    HW256993  11.530   9.597   8.086
36052SOL     OW56994   0.977  16.158   2.133
36052SOL    HW156995   1.006  16.210   2.214
36052SOL    HW256996   0.999  16.061   2.147
36053SOL     OW56997  14.892   8.839   0.988
36053SOL    HW156998  14.842   8.827   1.073
36053SOL    HW256999  14.832   8.883   0.920
36054SOL     OW57000  11.790  16.678   6.358
36054SOL    HW157001  11.835  16.722   6.280
36054SOL    HW257002  11.691  16.689   6.350
36055SOL     OW57003   0.996   5.850   7.708
36055SOL    HW157004   0.977   5.770   7.651
36055SOL    HW257005   0.971   5.933   7.658
36056SOL     OW57006   7.524  14.758   1.304
36056SOL    HW157007   7.461  14.717   1.238
36056SOL    HW257008   7.543  14.853   1.277
36057SOL     OW57009  11.941  14.499   6.673
36057SOL    HW157010  11.952  14.530   6.578
36057SOL    HW257011  11.985  14.411   6.685
36058SOL     OW57012   1.672   7.049   7.199
36058SOL    HW157013   1.747   7.111   7.176
36058SOL    HW257014   1.642   7.001   7.117
36059SOL     OW57015  10.533  16.369   7.441
36059SOL    HW157016  10.593  16.369   7.521
36059SOL    HW257017  10.487  16.280   7.435
36060SOL     OW57018   6.540  11.680   1.081
36060SOL    HW157019   6.518  11.663   1.177
36060SOL    HW257020   6.617  11.743   1.076
36061SOL     OW57021  16.131  16.340   7.470
36061SOL    HW157022  16.215  16.355   7.418
36061SOL    HW257023  16.058  16.399   7.436
36062SOL     OW57024  15.976  13.744   1.416
36062SOL    HW157025  15.980  13.739   1.516
36062SOL    HW257026  15.993  13.653   1.378
36063SOL     OW57027   0.991   7.159   1.049
36063SOL    HW157028   1.037   7.157   0.960
36063SOL    HW257029   0.892   7.164   1.035
36064SOL     OW57030   2.077   3.260   7.688
36064SOL    HW157031   2.100   3.270   7.785
36064SOL    HW257032   2.015   3.334   7.661
36065SOL     OW57033   1.185  10.772   0.328
36065SOL    HW157034   1.151  10.696   0.273
36065SOL    HW257035   1.278  10.795   0.301
36066SOL     OW57036   0.737   2.615   0.868
36066SOL    HW157037   0.705   2.528   0.829
36066SOL    HW257038   0.792   2.663   0.799
36067SOL     OW57039   9.370   4.314   0.752
36067SOL    HW157040   9.304   4.239   0.758
36067SOL    HW257041   9.412   4.328   0.842
36068SOL     OW57042   2.150   7.038   1.560
36068SOL    HW157043   2.147   6.942   1.532
36068SOL    HW257044   2.153   7.044   1.660
36069SOL     OW57045  14.784  13.166   7.725
36069SOL    HW157046  14.831  13.140   7.641
36069SOL    HW257047  14.709  13.102   7.742
36070SOL     OW57048  10.916  10.993   8.126
36070SOL    HW157049  10.939  10.896   8.127
36070SOL    HW257050  11.000  11.047   8.120
36071SOL     OW57051  11.138   3.406   6.837
36071SOL    HW157052  11.220   3.403   6.781
36071SOL    HW257053  11.156   3.362   6.925
36072SOL     OW57054  14.555   4.104   7.341
36072SOL    HW157055  14.600   4.189   7.371
36072SOL    HW257056  14.457   4.110   7.361
36073SOL     OW57057  12.079  14.270   6.710
36073SOL    HW157058  12.080  14.240   6.805
36073SOL    HW257059  12.083  14.190   6.650
36074SOL     OW57060   2.078   0.496   1.739
36074SOL    HW157061   2.161   0.544   1.770
36074SOL    HW257062   2.030   0.458   1.818
36075SOL     OW57063   9.289  10.301   1.312
36075SOL    HW157064   9.302  10.263   1.220
36075SOL    HW257065   9.215  10.368   1.309
36076SOL     OW57066   5.586  13.286   7.996
36076SOL    HW157067   5.554  13.228   8.071
36076SOL    HW257068   5.579  13.382   8.023
36077SOL     OW57069  12.023  13.446   7.625
36077SOL    HW157070  12.033  13.544   7.608
36077SOL    HW257071  12.109  13.399   7.603
36078SOL     OW57072   8.877   0.254   6.534
36078SOL    HW157073   8.830   0.341   6.522
36078SOL    HW257074   8.962   0.269   6.585
36079SOL     OW57075  14.014  16.465   8.100
36079SOL    HW157076  13.955  16.473   8.020
36079SOL    HW257077  13.958  16.461   8.183
36080SOL     OW57078  14.236   4.064   6.133
36080SOL    HW157079  14.314   4.004   6.117
36080SOL    HW257080  14.165   4.045   6.066
36081SOL     OW57081  10.805   3.677   8.335
36081SOL    HW157082  10.754   3.598   8.368
36081SOL    HW257083  10.880   3.646   8.277
36082SOL     OW57084   6.644   9.776   1.143
36082SOL    HW157085   6.604   9.688   1.167
36082SOL    HW257086   6.744   9.766   1.136
36083SOL     OW57087   4.181   5.103   7.914
36083SOL    HW157088   4.096   5.056   7.939
36083SOL    HW257089   4.238   5.114   7.996
36084SOL     OW57090  13.056   1.576   7.000
36084SOL    HW157091  13.004   1.623   6.928
36084SOL    HW257092  13.039   1.477   6.994
36085SOL     OW57093   1.381   1.778   7.882
36085SOL    HW157094   1.329   1.845   7.935
36085SOL    HW257095   1.344   1.686   7.898
36086SOL     OW57096  14.905  15.541   1.235
36086SOL    HW157097  14.961  15.533   1.153
36086SOL    HW257098  14.886  15.638   1.253
36087SOL     OW57099  16.320   6.389   0.881
36087SOL    HW157100  16.273   6.414   0.966
36087SOL    HW257101  16.404   6.443   0.873
36088SOL     OW57102   7.087  11.376   1.516
36088SOL    HW157103   7.013  11.415   1.571
36088SOL    HW257104   7.145  11.449   1.480
36089SOL     OW57105   9.742  14.223   7.352
36089SOL    HW157106   9.675  14.270   7.408
36089SOL    HW257107   9.729  14.248   7.256
36090SOL     OW57108   0.266  13.050   2.076
36090SOL    HW157109   0.279  13.023   2.172
36090SOL    HW257110   0.255  13.149   2.070
36091SOL     OW57111   7.044   4.637   1.909
36091SOL    HW157112   7.067   4.556   1.963
36091SOL    HW257113   6.981   4.694   1.961
36092SOL     OW57114   1.761  16.477   2.489
36092SOL    HW157115   1.786  16.522   2.575
36092SOL    HW257116   1.755  16.378   2.504
36093SOL     OW57117   2.628  12.625   1.451
36093SOL    HW157118   2.617  12.689   1.527
36093SOL    HW257119   2.564  12.649   1.378
36094SOL     OW57120   0.998  13.445   1.009
36094SOL    HW157121   0.944  13.480   0.932
36094SOL    HW257122   0.951  13.368   1.051
36095SOL     OW57123   4.259   3.145   8.326
36095SOL    HW157124   4.294   3.237   8.346
36095SOL    HW257125   4.335   3.086   8.302
36096SOL     OW57126  13.267  16.573   0.239
36096SOL    HW157127  13.341  16.638   0.254
36096SOL    HW257128  13.204  16.608   0.170
36097SOL     OW57129   6.692   3.909   7.758
36097SOL    HW157130   6.757   3.939   7.828
36097SOL    HW257131   6.700   3.811   7.744
36098SOL     OW57132  10.544   0.627   7.845
36098SOL    HW157133  10.491   0.656   7.765
36098SOL    HW257134  10.526   0.530   7.863
36099SOL     OW57135  15.343  14.402   6.266
36099SOL    HW157136  15.271  14.356   6.215
36099SOL    HW257137  15.354  14.495   6.232
36100SOL     OW57138  11.244  14.400   1.143
36100SOL    HW157139  11.324  14.423   1.087
36100SOL    HW257140  11.199  14.484   1.174
36101SOL     OW57141   0.348   4.798   8.417
36101SOL    HW157142   0.427   4.761   8.368
36101SOL    HW257143   0.308   4.873   8.364
36102SOL     OW57144   1.684   5.430   7.942
36102SOL    HW157145   1.702   5.519   7.899
36102SOL    HW257146   1.586   5.419   7.956
36103SOL     OW57147   6.544  12.121   1.100
36103SOL    HW157148   6.460  12.166   1.132
36103SOL    HW257149   6.619  12.187   1.100
36104SOL     OW57150   4.290  13.572   7.797
36104SOL    HW157151   4.321  13.486   7.757
36104SOL    HW257152   4.190  13.580   7.787
36105SOL     OW57153  13.200   3.281   7.712
36105SOL    HW157154  13.183   3.245   7.620
36105SOL    HW257155  13.230   3.207   7.772
36106SOL     OW57156   3.936  10.388   6.213
36106SOL    HW157157   3.924  10.296   6.175
36106SOL    HW257158   3.851  10.439   6.204
36107SOL     OW57159   0.477   4.641   7.516
36107SOL    HW157160   0.544   4.668   7.447
36107SOL    HW257161   0.403   4.590   7.471
36108SOL     OW57162   3.628   2.374   1.843
36108SOL    HW157163   3.573   2.453   1.871
36108SOL    HW257164   3.673   2.334   1.923
36109SOL     OW57165  16.369   3.408   7.836
36109SOL    HW157166  16.409   3.327   7.793
36109SOL    HW257167  16.442   3.470   7.863
36110SOL     OW57168   9.928  16.696   1.560
36110SOL    HW157169   9.969  16.784   1.536
36110SOL    HW257170   9.840  16.686   1.513
36111SOL     OW57171  13.621   2.777   7.426
36111SOL    HW157172  13.597   2.685   7.395
36111SOL    HW257173  13.541   2.818   7.470
36112SOL     OW57174   0.491   8.365   7.344
36112SOL    HW157175   0.511   8.273   7.376
36112SOL    HW257176   0.567   8.425   7.364
36113SOL     OW57177  14.641   5.152   6.775
36113SOL    HW157178  14.689   5.124   6.692
36113SOL    HW257179  14.610   5.070   6.824
36114SOL     OW57180   5.143  13.682   6.882
36114SOL    HW157181   5.156  13.584   6.900
36114SOL    HW257182   5.178  13.704   6.791
36115SOL     OW57183   7.462  10.907   6.666
36115SOL    HW157184   7.491  10.929   6.573
36115SOL    HW257185   7.392  10.835   6.662
36116SOL     OW57186  10.103   8.515   0.995
36116SOL    HW157187  10.050   8.431   0.982
36116SOL    HW257188  10.053   8.578   1.055
36117SOL     OW57189   6.850   4.218   6.067
36117SOL    HW157190   6.752   4.197   6.064
36117SOL    HW257191   6.879   4.252   5.978
36118SOL     OW57192   3.883   9.534   0.308
36118SOL    HW157193   3.831   9.450   0.319
36118SOL    HW257194   3.834   9.595   0.245
36119SOL     OW57195   9.473   4.123   0.300
36119SOL    HW157196   9.486   4.190   0.374
36119SOL    HW257197   9.387   4.075   0.314
36120SOL     OW57198   5.155  16.036   7.650
36120SOL    HW157199   5.107  16.083   7.724
36120SOL    HW257200   5.118  15.943   7.641
36121SOL     OW57201   7.919  11.590   7.658
36121SOL    HW157202   8.003  11.645   7.650
36121SOL    HW257203   7.943  11.495   7.678
36122SOL     OW57204  11.205   4.442   7.286
36122SOL    HW157205  11.304   4.457   7.277
36122SOL    HW257206  11.179   4.452   7.382
36123SOL     OW57207   1.004   7.608   6.435
36123SOL    HW157208   1.072   7.674   6.467
36123SOL    HW257209   1.028   7.579   6.342
36124SOL     OW57210   0.905  12.146   1.885
36124SOL    HW157211   0.830  12.195   1.840
36124SOL    HW257212   0.870  12.098   1.965
36125SOL     OW57213  13.805  15.372   0.141
36125SOL    HW157214  13.866  15.441   0.178
36125SOL    HW257215  13.849  15.326   0.064
36126SOL     OW57216   8.285   9.860   0.515
36126SOL    HW157217   8.261   9.803   0.436
36126SOL    HW257218   8.371   9.908   0.497
36127SOL     OW57219  14.503   1.374   1.514
36127SOL    HW157220  14.405   1.358   1.525
36127SOL    HW257221  14.529   1.455   1.566
36128SOL     OW57222   8.715   1.130   8.287
36128SOL    HW157223   8.621   1.163   8.291
36128SOL    HW257224   8.769   1.176   8.358
36129SOL     OW57225  10.222  13.054   1.153
36129SOL    HW157226  10.208  13.073   1.250
36129SOL    HW257227  10.319  13.061   1.131
36130SOL     OW57228  13.172   9.051   2.062
36130SOL    HW157229  13.136   9.019   1.975
36130SOL    HW257230  13.189   8.973   2.122
36131SOL     OW57231   5.343   1.699   0.063
36131SOL    HW157232   5.379   1.756   8.443
36131SOL    HW257233   5.393   1.720   0.147
36132SOL     OW57234  15.705   8.461   1.148
36132SOL    HW157235  15.688   8.460   1.050
36132SOL    HW257236  15.635   8.515   1.194
36133SOL     OW57237  15.289   9.190   1.230
36133SOL    HW157238  15.335   9.198   1.319
36133SOL    HW257239  15.275   9.094   1.209
36134SOL     OW57240  16.377  15.906   1.431
36134SOL    HW157241  16.466  15.862   1.418
36134SOL    HW257242  16.312  15.839   1.467
36135SOL     OW57243   2.190  11.595   7.116
36135SOL    HW157244   2.147  11.647   7.190
36135SOL    HW257245   2.152  11.503   7.113
36136SOL     OW57246  10.796  14.494   0.925
36136SOL    HW157247  10.878  14.517   0.873
36136SOL    HW257248  10.731  14.569   0.920
36137SOL     OW57249   1.344  11.696   0.500
36137SOL    HW157250   1.379  11.784   0.532
36137SOL    HW257251   1.385  11.622   0.553
36138SOL     OW57252  15.719  12.665   0.812
36138SOL    HW157253  15.724  12.643   0.715
36138SOL    HW257254  15.623  12.675   0.838
36139SOL     OW57255   3.657   7.219   0.527
36139SOL    HW157256   3.717   7.161   0.472
36139SOL    HW257257   3.565   7.217   0.490
36140SOL     OW57258   7.635   7.198   0.856
36140SOL    HW157259   7.631   7.149   0.769
36140SOL    HW257260   7.665   7.292   0.839
36141SOL     OW57261   4.631   3.182   6.766
36141SOL    HW157262   4.717   3.139   6.738
36141SOL    HW257263   4.554   3.124   6.740
36142SOL     OW57264  15.399  10.025   1.977
36142SOL    HW157265  15.482  10.002   1.927
36142SOL    HW257266  15.366   9.945   2.027
36143SOL     OW57267   0.264  15.193   1.277
36143SOL    HW157268   0.202  15.215   1.352
36143SOL    HW257269   0.244  15.253   1.199
36144SOL     OW57270   3.522   4.436   6.279
36144SOL    HW157271   3.477   4.348   6.263
36144SOL    HW257272   3.619   4.428   6.257
36145SOL     OW57273  10.538   6.787   6.925
36145SOL    HW157274  10.611   6.841   6.883
36145SOL    HW257275  10.571   6.694   6.943
36146SOL     OW57276  16.269  13.185   7.947
36146SOL    HW157277  16.193  13.135   7.989
36146SOL    HW257278  16.340  13.120   7.920
36147SOL     OW57279  11.653  12.536   1.173
36147SOL    HW157280  11.605  12.594   1.108
36147SOL    HW257281  11.589  12.503   1.242
36148SOL     OW57282   6.538   3.490   7.535
36148SOL    HW157283   6.455   3.528   7.495
36148SOL    HW257284   6.615   3.552   7.519
36149SOL     OW57285   4.404   0.886   7.056
36149SOL    HW157286   4.379   0.826   6.980
36149SOL    HW257287   4.399   0.835   7.142
36150SOL     OW57288   2.943  10.405   0.732
36150SOL    HW157289   2.974  10.316   0.764
36150SOL    HW257290   3.019  10.454   0.688
36151SOL     OW57291   4.229  11.452   7.832
36151SOL    HW157292   4.225  11.368   7.778
36151SOL    HW257293   4.254  11.430   7.927
36152SOL     OW57294   5.691  16.449   7.040
36152SOL    HW157295   5.665  16.537   7.080
36152SOL    HW257296   5.612  16.406   6.998
36153SOL     OW57297  10.549   7.409   6.082
36153SOL    HW157298  10.504   7.330   6.041
36153SOL    HW257299  10.480   7.470   6.122
36154SOL     OW57300  14.669   8.211   2.112
36154SOL    HW157301  14.710   8.147   2.047
36154SOL    HW257302  14.625   8.159   2.186
36155SOL     OW57303  16.945   3.269   1.421
36155SOL    HW157304  16.958   3.358   1.464
36155SOL    HW257305  16.847   3.250   1.413
36156SOL     OW57306  14.742  10.236   2.184
36156SOL    HW157307  14.697  10.197   2.264
36156SOL    HW257308  14.797  10.165   2.138
36157SOL     OW57309  11.962  14.746   6.771
36157SOL    HW157310  11.944  14.653   6.741
36157SOL    HW257311  12.034  14.786   6.715
36158SOL     OW57312  15.620  15.077   7.093
36158SOL    HW157313  15.550  15.060   7.024
36158SOL    HW257314  15.582  15.061   7.184
36159SOL     OW57315  15.060  13.139   8.211
36159SOL    HW157316  14.991  13.076   8.174
36159SOL    HW257317  15.026  13.179   8.296
36160SOL     OW57318  10.865  14.927   0.956
36160SOL    HW157319  10.828  15.017   0.978
36160SOL    HW257320  10.931  14.936   0.882
36161SOL     OW57321  14.933   3.065   5.786
36161SOL    HW157322  14.900   2.980   5.745
36161SOL    HW257323  14.856   3.127   5.803
36162SOL     OW57324  16.085  13.336   6.399
36162SOL    HW157325  16.038  13.423   6.413
36162SOL    HW257326  16.130  13.336   6.310
36163SOL     OW57327   0.516  10.802   0.923
36163SOL    HW157328   0.471  10.787   0.835
36163SOL    HW257329   0.575  10.724   0.944
36164SOL     OW57330   2.470  14.110   0.190
36164SOL    HW157331   2.474  14.039   0.261
36164SOL    HW257332   2.399  14.085   0.123
36165SOL     OW57333  10.781   3.846   5.453
36165SOL    HW157334  10.861   3.786   5.455
36165SOL    HW257335  10.808   3.939   5.477
36166SOL     OW57336   5.282  14.909   8.040
36166SOL    HW157337   5.219  14.897   7.963
36166SOL    HW257338   5.232  14.899   8.126
36167SOL     OW57339   9.211  15.135   6.211
36167SOL    HW157340   9.132  15.161   6.155
36167SOL    HW257341   9.266  15.217   6.231
36168SOL     OW57342   1.423  11.359   0.050
36168SOL    HW157343   1.359  11.429   0.018
36168SOL    HW257344   1.509  11.403   0.078
36169SOL     OW57345   8.406  12.426   6.719
36169SOL    HW157346   8.456  12.401   6.801
36169SOL    HW257347   8.356  12.347   6.685
36170SOL     OW57348   1.993   6.469   0.080
36170SOL    HW157349   1.947   6.413   0.148
36170SOL    HW257350   2.070   6.418   0.040
36171SOL     OW57351   9.532  12.894   1.119
36171SOL    HW157352   9.449  12.842   1.139
36171SOL    HW257353   9.537  12.973   1.180
36172SOL     OW57354   9.587  11.877   1.153
36172SOL    HW157355   9.679  11.851   1.123
36172SOL    HW257356   9.538  11.920   1.077
36173SOL     OW57357   7.693  15.343   7.121
36173SOL    HW157358   7.658  15.394   7.042
36173SOL    HW257359   7.617  15.303   7.171
36174SOL     OW57360   2.872   1.907   0.418
36174SOL    HW157361   2.930   1.872   0.345
36174SOL    HW257362   2.848   2.002   0.400
36175SOL     OW57363   6.608   7.444   0.975
36175SOL    HW157364   6.621   7.442   0.876
36175SOL    HW257365   6.678   7.503   1.016
36176SOL     OW57366  11.018  11.225   0.093
36176SOL    HW157367  11.087  11.198   0.027
36176SOL    HW257368  11.062  11.246   0.181
36177SOL     OW57369   1.284   9.779   2.323
36177SOL    HW157370   1.274   9.738   2.414
36177SOL    HW257371   1.221   9.856   2.314
36178SOL     OW57372  15.462   0.312   8.277
36178SOL    HW157373  15.454   0.387   8.343
36178SOL    HW257374  15.461   0.224   8.325
36179SOL     OW57375  14.664   2.419   6.017
36179SOL    HW157376  14.659   2.490   6.086
36179SOL    HW257377  14.652   2.460   5.926
36180SOL     OW57378  16.701   7.341   1.039
36180SOL    HW157379  16.652   7.332   1.126
36180SOL    HW257380  16.795   7.368   1.056
36181SOL     OW57381  15.327   0.054   1.285
36181SOL    HW157382  15.239   0.009   1.299
36181SOL    HW257383  15.317   0.124   1.214
36182SOL     OW57384  10.539   3.379   5.735
36182SOL    HW157385  10.492   3.299   5.697
36182SOL    HW257386  10.636   3.357   5.748
36183SOL     OW57387  12.945   2.777   8.315
36183SOL    HW157388  13.033   2.750   8.352
36183SOL    HW257389  12.882   2.700   8.319
36184SOL     OW57390   4.453  13.544   0.539
36184SOL    HW157391   4.548  13.515   0.536
36184SOL    HW257392   4.447  13.643   0.532
36185SOL     OW57393   8.410   0.107   7.262
36185SOL    HW157394   8.473   0.095   7.186
36185SOL    HW257395   8.368   0.198   7.256
36186SOL     OW57396  16.732   0.122   7.613
36186SOL    HW157397  16.801   0.082   7.553
36186SOL    HW257398  16.666   0.052   7.640
36187SOL     OW57399   8.330   8.536   1.586
36187SOL    HW157400   8.391   8.489   1.649
36187SOL    HW257401   8.308   8.627   1.623
36188SOL     OW57402   3.297   1.023   6.782
36188SOL    HW157403   3.343   0.971   6.710
36188SOL    HW257404   3.331   1.117   6.783
36189SOL     OW57405   3.823   6.435   7.630
36189SOL    HW157406   3.883   6.357   7.612
36189SOL    HW257407   3.731   6.415   7.595
36190SOL     OW57408  15.557  15.384   0.965
36190SOL    HW157409  15.647  15.376   0.923
36190SOL    HW257410  15.520  15.475   0.947
36191SOL     OW57411   4.076  11.699   7.523
36191SOL    HW157412   4.160  11.740   7.488
36191SOL    HW257413   4.057  11.614   7.473
36192SOL     OW57414  10.519   3.826   1.116
36192SOL    HW157415  10.506   3.917   1.154
36192SOL    HW257416  10.602   3.825   1.059
36193SOL     OW57417   2.467   6.107   7.525
36193SOL    HW157418   2.377   6.111   7.567
36193SOL    HW257419   2.537   6.103   7.596
36194SOL     OW57420  13.530   0.212   2.137
36194SOL    HW157421  13.619   0.249   2.165
36194SOL    HW257422  13.517   0.122   2.180
36195SOL     OW57423  15.819   5.627   7.038
36195SOL    HW157424  15.918   5.628   7.053
36195SOL    HW257425  15.781   5.717   7.059
36196SOL     OW57426   2.265   1.899   6.416
36196SOL    HW157427   2.356   1.937   6.402
36196SOL    HW257428   2.200   1.973   6.431
36197SOL     OW57429  12.451   6.023   8.272
36197SOL    HW157430  12.448   6.097   8.339
36197SOL    HW257431  12.547   6.002   8.249
36198SOL     OW57432  15.685  15.091   7.560
36198SOL    HW157433  15.759  15.150   7.527
36198SOL    HW257434  15.632  15.057   7.483
36199SOL     OW57435  10.630   1.218   5.559
36199SOL    HW157436  10.598   1.311   5.539
36199SOL    HW257437  10.557   1.153   5.539
36200SOL     OW57438   7.639   7.704   1.718
36200SOL    HW157439   7.575   7.737   1.787
36200SOL    HW257440   7.619   7.608   1.697
36201SOL     OW57441  11.138   9.733   1.728
36201SOL    HW157442  11.135   9.638   1.760
36201SOL    HW257443  11.172   9.792   1.802
36202SOL     OW57444   8.782  15.576   6.916
36202SOL    HW157445   8.766  15.645   6.845
36202SOL    HW257446   8.880  15.567   6.933
36203SOL     OW57447   7.121   7.599   7.412
36203SOL    HW157448   7.138   7.695   7.433
36203SOL    HW257449   7.127   7.545   7.496
36204SOL     OW57450   4.336   9.817   1.316
36204SOL    HW157451   4.418   9.780   1.360
36204SOL    HW257452   4.286   9.743   1.272
36205SOL     OW57453   0.453   3.922   7.900
36205SOL    HW157454   0.504   3.878   7.974
36205SOL    HW257455   0.514   3.941   7.823
36206SOL     OW57456  15.384   3.755   0.881
36206SOL    HW157457  15.438   3.680   0.917
36206SOL    HW257458  15.301   3.719   0.838
36207SOL     OW57459   2.998   6.529   1.253
36207SOL    HW157460   2.910   6.485   1.236
36207SOL    HW257461   3.027   6.512   1.348
36208SOL     OW57462   5.917  11.445   6.473
36208SOL    HW157463   5.930  11.525   6.414
36208SOL    HW257464   5.890  11.367   6.418
36209SOL     OW57465   4.900   7.019   2.013
36209SOL    HW157466   4.896   6.973   2.101
36209SOL    HW257467   4.854   7.108   2.020
36210SOL     OW57468  14.389   7.195   7.665
36210SOL    HW157469  14.300   7.224   7.701
36210SOL    HW257470  14.442   7.275   7.638
36211SOL     OW57471   6.057  12.657   6.464
36211SOL    HW157472   6.133  12.717   6.487
36211SOL    HW257473   6.042  12.657   6.365
36212SOL     OW57474  15.903   3.904   8.359
36212SOL    HW157475  15.870   3.826   8.306
36212SOL    HW257476  15.961   3.961   8.301
36213SOL     OW57477  15.583   7.241   8.217
36213SOL    HW157478  15.529   7.201   8.292
36213SOL    HW257479  15.570   7.340   8.215
36214SOL     OW57480   1.626  13.797   1.523
36214SOL    HW157481   1.609  13.823   1.618
36214SOL    HW257482   1.589  13.705   1.506
36215SOL     OW57483   6.999   8.163   0.013
36215SOL    HW157484   7.060   8.186   0.088
36215SOL    HW257485   7.045   8.178   8.380
36216SOL     OW57486  16.393   7.645   7.279
36216SOL    HW157487  16.305   7.617   7.319
36216SOL    HW257488  16.458   7.664   7.352
36217SOL     OW57489  12.771  11.852   1.534
36217SOL    HW157490  12.761  11.951   1.537
36217SOL    HW257491  12.864  11.826   1.562
36218SOL     OW57492   7.551   0.092   6.420
36218SOL    HW157493   7.472   0.041   6.385
36218SOL    HW257494   7.627   0.029   6.435
36219SOL     OW57495  11.724   3.081   0.602
36219SOL    HW157496  11.650   3.049   0.542
36219SOL    HW257497  11.783   3.143   0.551
36220SOL     OW57498   2.626  15.973   0.143
36220SOL    HW157499   2.678  16.049   0.183
36220SOL    HW257500   2.537  15.966   0.187
36221SOL     OW57501   7.858   3.010   7.810
36221SOL    HW157502   7.874   2.963   7.723
36221SOL    HW257503   7.935   3.072   7.828
36222SOL     OW57504  13.898   2.662   8.444
36222SOL    HW157505  13.924   2.734   8.380
36222SOL    HW257506  13.825   2.607   8.405
36223SOL     OW57507   1.828   8.343   8.106
36223SOL    HW157508   1.809   8.248   8.131
36223SOL    HW257509   1.852   8.395   8.188
36224SOL     OW57510   3.867   1.400   2.003
36224SOL    HW157511   3.947   1.341   1.992
36224SOL    HW257512   3.886   1.470   2.072
36225SOL     OW57513  10.848   3.276   1.173
36225SOL    HW157514  10.948   3.277   1.177
36225SOL    HW257515  10.816   3.182   1.160
36226SOL     OW57516  12.943  13.699   1.981
36226SOL    HW157517  12.854  13.743   1.967
36226SOL    HW257518  13.015  13.762   1.954
36227SOL     OW57519   0.854   0.516   0.872
36227SOL    HW157520   0.868   0.554   0.963
36227SOL    HW257521   0.756   0.506   0.855
36228SOL     OW57522   4.547  11.127   0.911
36228SOL    HW157523   4.479  11.168   0.850
36228SOL    HW257524   4.529  11.156   1.005
36229SOL     OW57525  13.475   4.466   0.847
36229SOL    HW157526  13.492   4.494   0.753
36229SOL    HW257527  13.472   4.366   0.851
36230SOL     OW57528   7.693  11.615   1.490
36230SOL    HW157529   7.715  11.706   1.527
36230SOL    HW257530   7.594  11.608   1.477
36231SOL     OW57531   0.089  10.626   1.640
36231SOL    HW157532   0.184  10.596   1.649
36231SOL    HW257533   0.028  10.552   1.670
36232SOL     OW57534   6.089   5.582   0.510
36232SOL    HW157535   6.042   5.521   0.446
36232SOL    HW257536   6.037   5.587   0.595
36233SOL     OW57537   3.727  12.846   7.153
36233SOL    HW157538   3.749  12.887   7.242
36233SOL    HW257539   3.629  12.854   7.136
36234SOL     OW57540   5.784   6.325   8.221
36234SOL    HW157541   5.863   6.383   8.199
36234SOL    HW257542   5.745   6.290   8.136
36235SOL     OW57543   1.177  14.676   1.195
36235SOL    HW157544   1.099  14.675   1.133
36235SOL    HW257545   1.227  14.590   1.188
36236SOL     OW57546   1.271   6.403   1.362
36236SOL    HW157547   1.187   6.450   1.389
36236SOL    HW257548   1.349   6.449   1.405
36237SOL     OW57549  12.836  15.205   1.029
36237SOL    HW157550  12.792  15.228   1.116
36237SOL    HW257551  12.772  15.155   0.971
36238SOL     OW57552   0.907  16.289   7.906
36238SOL    HW157553   0.813  16.264   7.929
36238SOL    HW257554   0.939  16.231   7.831
36239SOL     OW57555  10.797   7.486   7.288
36239SOL    HW157556  10.879   7.437   7.257
36239SOL    HW257557  10.716   7.446   7.245
36240SOL     OW57558   1.074   0.381   1.279
36240SOL    HW157559   1.093   0.389   1.377
36240SOL    HW257560   1.025   0.296   1.261
36241SOL     OW57561   9.661  15.592   7.325
36241SOL    HW157562   9.709  15.679   7.334
36241SOL    HW257563   9.612  15.572   7.410
36242SOL     OW57564  11.984   6.459   6.554
36242SOL    HW157565  11.931   6.393   6.502
36242SOL    HW257566  12.081   6.448   6.533
36243SOL     OW57567   0.869   4.667   0.232
36243SOL    HW157568   0.900   4.584   0.186
36243SOL    HW257569   0.789   4.703   0.185
36244SOL     OW57570   3.721   7.328   0.948
36244SOL    HW157571   3.754   7.398   0.884
36244SOL    HW257572   3.795   7.300   1.008
36245SOL     OW57573   2.783   9.754   1.061
36245SOL    HW157574   2.768   9.786   0.968
36245SOL    HW257575   2.871   9.787   1.094
36246SOL     OW57576   8.249  10.301   0.931
36246SOL    HW157577   8.224  10.359   0.853
36246SOL    HW257578   8.224  10.206   0.911
36247SOL     OW57579   7.576  14.381   2.202
36247SOL    HW157580   7.480  14.399   2.224
36247SOL    HW257581   7.622  14.343   2.283
36248SOL     OW57582  10.100  13.772   8.076
36248SOL    HW157583  10.180  13.816   8.116
36248SOL    HW257584  10.051  13.839   8.019
36249SOL     OW57585  11.030   4.973   8.138
36249SOL    HW157586  11.019   4.880   8.174
36249SOL    HW257587  11.064   4.968   8.044
36250SOL     OW57588  11.604  10.035   0.638
36250SOL    HW157589  11.568  10.021   0.546
36250SOL    HW257590  11.554  10.108   0.684
36251SOL     OW57591  10.065   3.008   8.122
36251SOL    HW157592  10.110   3.077   8.179
36251SOL    HW257593  10.030   2.935   8.180
36252SOL     OW57594  15.912  16.555   8.202
36252SOL    HW157595  15.899  16.623   8.273
36252SOL    HW257596  15.949  16.471   8.243
36253SOL     OW57597  12.891  10.103   7.091
36253SOL    HW157598  12.942  10.025   7.054
36253SOL    HW257599  12.953  10.179   7.108
36254SOL     OW57600  15.203   9.444   7.674
36254SOL    HW157601  15.180   9.406   7.585
36254SOL    HW257602  15.213   9.370   7.741
36255SOL     OW57603   4.714  14.303   2.110
36255SOL    HW157604   4.687  14.330   2.203
36255SOL    HW257605   4.732  14.385   2.056
36256SOL     OW57606   9.631   1.653   1.765
36256SOL    HW157607   9.729   1.669   1.773
36256SOL    HW257608   9.584   1.740   1.749
36257SOL     OW57609  14.740   6.353   1.738
36257SOL    HW157610  14.830   6.327   1.774
36257SOL    HW257611  14.708   6.436   1.783
36258SOL     OW57612   8.280  11.762   1.260
36258SOL    HW157613   8.302  11.849   1.216
36258SOL    HW257614   8.196  11.725   1.220
36259SOL     OW57615   3.397   5.753   8.446
36259SOL    HW157616   3.342   5.715   0.067
36259SOL    HW257617   3.440   5.838   0.022
36260SOL     OW57618   4.404   6.183   0.734
36260SOL    HW157619   4.354   6.097   0.730
36260SOL    HW257620   4.364   6.247   0.668
36261SOL     OW57621   2.709  10.974   8.039
36261SOL    HW157622   2.753  10.968   8.129
36261SOL    HW257623   2.778  10.996   7.970
36262SOL     OW57624  13.316  12.328   6.906
36262SOL    HW157625  13.336  12.425   6.889
36262SOL    HW257626  13.269  12.289   6.826
36263SOL     OW57627   6.946   4.328   6.294
36263SOL    HW157628   6.921   4.290   6.205
36263SOL    HW257629   6.871   4.385   6.328
36264SOL     OW57630   1.731  14.876   0.322
36264SOL    HW157631   1.820  14.868   0.278
36264SOL    HW257632   1.659  14.874   0.253
36265SOL     OW57633   7.077   2.736   0.547
36265SOL    HW157634   7.111   2.797   0.618
36265SOL    HW257635   7.154   2.704   0.492
36266SOL     OW57636   5.898   1.357   0.898
36266SOL    HW157637   5.890   1.455   0.880
36266SOL    HW257638   5.854   1.335   0.985
36267SOL     OW57639   5.502   0.922   2.166
36267SOL    HW157640   5.539   0.971   2.245
36267SOL    HW257641   5.403   0.913   2.175
36268SOL     OW57642   5.814   2.013   1.456
36268SOL    HW157643   5.892   2.066   1.425
36268SOL    HW257644   5.833   1.976   1.547
36269SOL     OW57645  10.141   6.414   1.633
36269SOL    HW157646  10.212   6.421   1.563
36269SOL    HW257647  10.083   6.334   1.614
36270SOL     OW57648  12.103   8.919   0.547
36270SOL    HW157649  12.046   8.895   0.625
36270SOL    HW257650  12.045   8.941   0.468
36271SOL     OW57651  16.703   4.010   8.220
36271SOL    HW157652  16.745   4.066   8.149
36271SOL    HW257653  16.726   4.046   8.310
36272SOL     OW57654  12.677  10.249   1.390
36272SOL    HW157655  12.667  10.255   1.291
36272SOL    HW257656  12.774  10.253   1.415
36273SOL     OW57657   1.854   9.650   0.584
36273SOL    HW157658   1.842   9.710   0.664
36273SOL    HW257659   1.764   9.631   0.544
36274SOL     OW57660  12.270  10.194   0.978
36274SOL    HW157661  12.182  10.147   0.984
36274SOL    HW257662  12.272  10.250   0.895
36275SOL     OW57663   7.141   0.357   0.048
36275SOL    HW157664   7.056   0.381   0.095
36275SOL    HW257665   7.127   0.359   8.403
36276SOL     OW57666  14.725   4.656   7.295
36276SOL    HW157667  14.731   4.705   7.208
36276SOL    HW257668  14.642   4.599   7.295
36277SOL     OW57669  14.363   5.186   8.056
36277SOL    HW157670  14.287   5.156   7.999
36277SOL    HW257671  14.402   5.269   8.018
36278SOL     OW57672   7.768   0.369   0.361
36278SOL    HW157673   7.763   0.441   0.293
36278SOL    HW257674   7.833   0.299   0.331
36279SOL     OW57675  15.866   1.071   1.450
36279SOL    HW157676  15.902   1.152   1.496
36279SOL    HW257677  15.937   1.032   1.392
36280SOL     OW57678  11.825   8.648   8.180
36280SOL    HW157679  11.905   8.709   8.181
36280SOL    HW257680  11.815   8.604   8.269
36281SOL     OW57681   7.489   3.269   8.061
36281SOL    HW157682   7.535   3.288   7.975
36281SOL    HW257683   7.543   3.306   8.137
36282SOL     OW57684   3.326   7.649   1.056
36282SOL    HW157685   3.278   7.737   1.062
36282SOL    HW257686   3.363   7.626   1.146
36283SOL     OW57687   3.750   8.640   1.116
36283SOL    HW157688   3.844   8.619   1.090
36283SOL    HW257689   3.689   8.617   1.040
36284SOL     OW57690   6.853   0.720   8.153
36284SOL    HW157691   6.847   0.627   8.190
36284SOL    HW257692   6.803   0.783   8.213
36285SOL     OW57693  12.429   1.978   8.218
36285SOL    HW157694  12.437   1.968   8.317
36285SOL    HW257695  12.344   1.936   8.186
36286SOL     OW57696   0.332  13.407   0.122
36286SOL    HW157697   0.254  13.394   0.060
36286SOL    HW257698   0.409  13.352   0.089
36287SOL     OW57699  11.017   6.099   8.066
36287SOL    HW157700  11.007   6.126   8.162
36287SOL    HW257701  10.971   6.166   8.008
36288SOL     OW57702   9.320  12.677   7.123
36288SOL    HW157703   9.327  12.681   7.023
36288SOL    HW257704   9.224  12.681   7.149
36289SOL     OW57705   8.948   4.480   0.118
36289SOL    HW157706   8.880   4.437   0.058
36289SOL    HW257707   8.999   4.410   0.166
36290SOL     OW57708  12.666   2.539   7.167
36290SOL    HW157709  12.662   2.465   7.100
36290SOL    HW257710  12.693   2.624   7.121
36291SOL     OW57711   3.469   6.185   0.263
36291SOL    HW157712   3.380   6.213   0.228
36291SOL    HW257713   3.537   6.255   0.239
36292SOL     OW57714   0.002   6.724   1.318
36292SOL    HW157715  16.980   6.642   1.375
36292SOL    HW257716  16.928   6.796   1.358
36293SOL     OW57717   0.030  14.344   1.581
36293SOL    HW157718  16.949  14.365   1.507
36293SOL    HW257719   0.122  14.370   1.553
36294SOL     OW57720   7.410   0.379   7.701
36294SOL    HW157721   7.342   0.441   7.740
36294SOL    HW257722   7.459   0.332   7.774
36295SOL     OW57723   0.173   9.590   7.839
36295SOL    HW157724   0.188   9.603   7.741
36295SOL    HW257725   0.075   9.591   7.858
36296SOL     OW57726   6.005   9.765   8.232
36296SOL    HW157727   6.071   9.769   8.157
36296SOL    HW257728   5.920   9.810   8.204
36297SOL     OW57729   7.807   2.689   1.289
36297SOL    HW157730   7.793   2.766   1.352
36297SOL    HW257731   7.862   2.719   1.211
36298SOL     OW57732   9.097  16.962   0.115
36298SOL    HW157733   9.082  16.864   0.100
36298SOL    HW257734   9.157   0.014   0.043
36299SOL     OW57735   6.361  10.298   0.768
36299SOL    HW157736   6.348  10.235   0.692
36299SOL    HW257737   6.278  10.351   0.783
36300SOL     OW57738  11.289  16.318   0.404
36300SOL    HW157739  11.232  16.305   0.485
36300SOL    HW257740  11.350  16.396   0.418
36301SOL     OW57741   5.007   5.787   1.609
36301SOL    HW157742   4.926   5.730   1.615
36301SOL    HW257743   5.018   5.839   1.694
36302SOL     OW57744   5.918   0.876   0.410
36302SOL    HW157745   5.913   0.922   0.499
36302SOL    HW257746   5.863   0.926   0.344
36303SOL     OW57747  10.238  11.536   7.289
36303SOL    HW157748  10.189  11.502   7.369
36303SOL    HW257749  10.336  11.537   7.308
36304SOL     OW57750  11.873   6.765   7.157
36304SOL    HW157751  11.798   6.740   7.218
36304SOL    HW257752  11.919   6.682   7.124
36305SOL     OW57753   4.621  10.799   0.550
36305SOL    HW157754   4.637  10.704   0.576
36305SOL    HW257755   4.533  10.807   0.503
36306SOL     OW57756   1.742  10.315   1.842
36306SOL    HW157757   1.783  10.395   1.888
36306SOL    HW257758   1.680  10.346   1.770
36307SOL     OW57759   2.079   1.929   8.175
36307SOL    HW157760   2.016   1.949   8.100
36307SOL    HW257761   2.168   1.903   8.138
36308SOL     OW57762  15.895   5.127   0.394
36308SOL    HW157763  15.936   5.090   0.311
36308SOL    HW257764  15.962   5.186   0.440
36309SOL     OW57765   3.948   0.271   7.571
36309SOL    HW157766   3.902   0.191   7.531
36309SOL    HW257767   3.880   0.339   7.596
36310SOL     OW57768   3.998  16.328   1.029
36310SOL    HW157769   3.927  16.303   0.963
36310SOL    HW257770   3.991  16.426   1.050
36311SOL     OW57771  10.118  11.391   7.516
36311SOL    HW157772  10.111  11.417   7.613
36311SOL    HW257773  10.197  11.331   7.503
36312SOL     OW57774  14.671   3.671   6.860
36312SOL    HW157775  14.586   3.678   6.912
36312SOL    HW257776  14.748   3.696   6.919
36313SOL     OW57777  12.271   3.237   1.638
36313SOL    HW157778  12.175   3.216   1.655
36313SOL    HW257779  12.328   3.172   1.689
36314SOL     OW57780   9.760   1.847   8.241
36314SOL    HW157781   9.819   1.871   8.317
36314SOL    HW257782   9.664   1.851   8.271
36315SOL     OW57783  11.964  10.785   2.270
36315SOL    HW157784  11.872  10.751   2.250
36315SOL    HW257785  11.959  10.847   2.348
36316SOL     OW57786  13.329  11.876   0.337
36316SOL    HW157787  13.354  11.814   0.411
36316SOL    HW257788  13.237  11.854   0.304
36317SOL     OW57789   7.983   7.622   7.328
36317SOL    HW157790   7.884   7.617   7.338
36317SOL    HW257791   8.010   7.579   7.241
36318SOL     OW57792   3.893  13.237   1.816
36318SOL    HW157793   3.875  13.146   1.779
36318SOL    HW257794   3.856  13.306   1.754
36319SOL     OW57795  11.724   9.021   0.097
36319SOL    HW157796  11.736   9.091   0.167
36319SOL    HW257797  11.647   9.045   0.038
36320SOL     OW57798   9.094   5.293   0.917
36320SOL    HW157799   9.013   5.241   0.890
36320SOL    HW257800   9.095   5.381   0.869
36321SOL     OW57801   6.307   4.134   0.537
36321SOL    HW157802   6.253   4.092   0.464
36321SOL    HW257803   6.331   4.065   0.605
36322SOL     OW57804  14.079  12.517   7.970
36322SOL    HW157805  14.021  12.560   8.039
36322SOL    HW257806  14.083  12.574   7.888
36323SOL     OW57807   4.875   0.326   0.901
36323SOL    HW157808   4.964   0.361   0.931
36323SOL    HW257809   4.826   0.287   0.979
36324SOL     OW57810   2.398   0.232   7.981
36324SOL    HW157811   2.399   0.172   8.062
36324SOL    HW257812   2.445   0.318   8.003
36325SOL     OW57813   8.430   0.809   6.775
36325SOL    HW157814   8.510   0.867   6.763
36325SOL    HW257815   8.433   0.734   6.710
36326SOL     OW57816  10.860   3.270   1.830
36326SOL    HW157817  10.788   3.331   1.862
36326SOL    HW257818  10.896   3.217   1.907
36327SOL     OW57819   4.789   4.114   7.548
36327SOL    HW157820   4.863   4.177   7.573
36327SOL    HW257821   4.775   4.048   7.622
36328SOL     OW57822  16.965   7.453   7.096
36328SOL    HW157823  16.962   7.437   6.997
36328SOL    HW257824   0.054   7.519   7.117
36329SOL     OW57825   7.913  10.286   7.000
36329SOL    HW157826   7.848  10.346   6.954
36329SOL    HW257827   7.898  10.191   6.971
36330SOL     OW57828   4.945  16.478   7.495
36330SOL    HW157829   4.975  16.512   7.585
36330SOL    HW257830   4.964  16.381   7.488
36331SOL     OW57831  10.319   0.272   1.579
36331SOL    HW157832  10.398   0.333   1.588
36331SOL    HW257833  10.273   0.263   1.667
36332SOL     OW57834   6.796   9.081   7.108
36332SOL    HW157835   6.699   9.076   7.084
36332SOL    HW257836   6.849   9.103   7.026
36333SOL     OW57837  13.249  12.575   8.202
36333SOL    HW157838  13.309  12.496   8.196
36333SOL    HW257839  13.180  12.569   8.130
36334SOL     OW57840  16.236  16.361   8.141
36334SOL    HW157841  16.162  16.357   8.208
36334SOL    HW257842  16.256  16.457   8.121
36335SOL     OW57843  15.116  14.239   6.916
36335SOL    HW157844  15.054  14.275   6.846
36335SOL    HW257845  15.172  14.166   6.876
36336SOL     OW57846   5.661  14.339   7.545
36336SOL    HW157847   5.752  14.296   7.546
36336SOL    HW257848   5.591  14.268   7.537
36337SOL     OW57849   8.482  14.969   2.358
36337SOL    HW157850   8.512  15.064   2.353
36337SOL    HW257851   8.420  14.958   2.436
36338SOL     OW57852  13.597  10.420   0.907
36338SOL    HW157853  13.597  10.483   0.830
36338SOL    HW257854  13.532  10.453   0.976
36339SOL     OW57855  14.821  10.765   1.026
36339SOL    HW157856  14.732  10.767   0.980
36339SOL    HW257857  14.868  10.679   1.003
36340SOL     OW57858   5.473   6.295   6.754
36340SOL    HW157859   5.494   6.321   6.660
36340SOL    HW257860   5.391   6.239   6.756
36341SOL     OW57861   5.885   0.763   0.802
36341SOL    HW157862   5.859   0.689   0.741
36341SOL    HW257863   5.815   0.774   0.873
36342SOL     OW57864   7.379  11.974   2.016
36342SOL    HW157865   7.423  11.886   2.003
36342SOL    HW257866   7.354  11.985   2.112
36343SOL     OW57867   1.344  10.470   7.531
36343SOL    HW157868   1.421  10.535   7.530
36343SOL    HW257869   1.321  10.444   7.437
36344SOL     OW57870  12.051   4.559   6.576
36344SOL    HW157871  12.117   4.520   6.512
36344SOL    HW257872  12.000   4.485   6.621
36345SOL     OW57873  13.033  16.342   1.510
36345SOL    HW157874  13.047  16.409   1.583
36345SOL    HW257875  13.044  16.386   1.421
36346SOL     OW57876  11.028   6.822   1.629
36346SOL    HW157877  10.998   6.866   1.714
36346SOL    HW257878  11.128   6.815   1.629
36347SOL     OW57879  12.689   4.883   0.413
36347SOL    HW157880  12.780   4.842   0.411
36347SOL    HW257881  12.670   4.916   0.506
36348SOL     OW57882  16.906   1.328   0.135
36348SOL    HW157883  16.949   1.238   0.132
36348SOL    HW257884  16.888   1.354   0.229
36349SOL     OW57885   7.894   9.730   1.889
36349SOL    HW157886   7.946   9.731   1.974
36349SOL    HW257887   7.799   9.705   1.908
36350SOL     OW57888  12.761   4.058   1.436
36350SOL    HW157889  12.690   4.116   1.477
36350SOL    HW257890  12.851   4.090   1.466
36351SOL     OW57891   3.137   1.206   0.738
36351SOL    HW157892   3.195   1.185   0.817
36351SOL    HW257893   3.147   1.133   0.669
36352SOL     OW57894  14.458  11.544   0.066
36352SOL    HW157895  14.493  11.631   0.099
36352SOL    HW257896  14.501  11.521   8.432
36353SOL     OW57897  13.230   2.941   8.332
36353SOL    HW157898  13.166   2.959   8.257
36353SOL    HW257899  13.229   2.843   8.354
36354SOL     OW57900   2.728  15.858   7.454
36354SOL    HW157901   2.748  15.940   7.400
36354SOL    HW257902   2.777  15.861   7.541
36355SOL     OW57903   4.471   2.907   7.541
36355SOL    HW157904   4.540   2.836   7.528
36355SOL    HW257905   4.490   2.983   7.478
36356SOL     OW57906   2.809   8.703   8.251
36356SOL    HW157907   2.770   8.750   8.331
36356SOL    HW257908   2.736   8.685   8.185
36357SOL     OW57909  10.479   1.035   8.017
36357SOL    HW157910  10.477   1.134   8.003
36357SOL    HW257911  10.432   0.989   7.942
36358SOL     OW57912   4.721   0.504   0.380
36358SOL    HW157913   4.645   0.448   0.346
36358SOL    HW257914   4.736   0.581   0.318
36359SOL     OW57915  16.588   2.580   7.906
36359SOL    HW157916  16.498   2.554   7.942
36359SOL    HW257917  16.653   2.506   7.925
36360SOL     OW57918   6.011   8.984   0.492
36360SOL    HW157919   5.924   8.988   0.542
36360SOL    HW257920   6.002   9.033   0.406
36361SOL     OW57921   0.738   5.309   7.180
36361SOL    HW157922   0.665   5.321   7.113
36361SOL    HW257923   0.822   5.281   7.133
36362SOL     OW57924  14.722   3.292   1.174
36362SOL    HW157925  14.665   3.335   1.244
36362SOL    HW257926  14.664   3.241   1.111
36363SOL     OW57927  16.718  10.222   6.683
36363SOL    HW157928  16.703  10.226   6.585
36363SOL    HW257929  16.784  10.149   6.704
36364SOL     OW57930  10.934   2.017   7.458
36364SOL    HW157931  10.857   2.072   7.427
36364SOL    HW257932  10.911   1.920   7.451
36365SOL     OW57933  13.756   0.857   1.794
36365SOL    HW157934  13.849   0.833   1.819
36365SOL    HW257935  13.710   0.777   1.754
36366SOL     OW57936  10.407  10.903   1.491
36366SOL    HW157937  10.440  10.924   1.583
36366SOL    HW257938  10.481  10.862   1.437
36367SOL     OW57939   1.246  10.853   8.190
36367SOL    HW157940   1.240  10.850   8.290
36367SOL    HW257941   1.334  10.890   8.163
36368SOL     OW57942   1.642   8.967   0.907
36368SOL    HW157943   1.618   9.009   0.995
36368SOL    HW257944   1.649   8.868   0.919
36369SOL     OW57945   9.143  10.810   7.431
36369SOL    HW157946   9.062  10.863   7.458
36369SOL    HW257947   9.117  10.714   7.421
36370SOL     OW57948   9.838   0.115   6.753
36370SOL    HW157949   9.750   0.092   6.794
36370SOL    HW257950   9.829   0.114   6.653
36371SOL     OW57951  10.251   5.345   1.579
36371SOL    HW157952  10.199   5.387   1.653
36371SOL    HW257953  10.333   5.301   1.616
36372SOL     OW57954  11.466   4.696   7.086
36372SOL    HW157955  11.385   4.752   7.105
36372SOL    HW257956  11.458   4.608   7.133
36373SOL     OW57957  12.100   0.802   6.473
36373SOL    HW157958  12.034   0.727   6.484
36373SOL    HW257959  12.063   0.885   6.513
36374SOL     OW57960   1.729  12.520   1.940
36374SOL    HW157961   1.780  12.486   2.019
36374SOL    HW257962   1.631  12.502   1.954
36375SOL     OW57963  13.154   9.708   7.608
36375SOL    HW157964  13.165   9.668   7.517
36375SOL    HW257965  13.237   9.758   7.632
36376SOL     OW57966   7.293  16.244   8.012
36376SOL    HW157967   7.254  16.195   7.933
36376SOL    HW257968   7.230  16.315   8.042
36377SOL     OW57969  12.430  12.371   7.510
36377SOL    HW157970  12.507  12.347   7.450
36377SOL    HW257971  12.395  12.462   7.484
36378SOL     OW57972   6.342   3.033   6.194
36378SOL    HW157973   6.390   2.948   6.172
36378SOL    HW257974   6.280   3.056   6.119
36379SOL     OW57975   7.133   3.287   0.587
36379SOL    HW157976   7.193   3.219   0.543
36379SOL    HW257977   7.039   3.256   0.584
36380SOL     OW57978  13.732   7.798   8.355
36380SOL    HW157979  13.821   7.807   8.399
36380SOL    HW257980  13.699   7.704   8.365
36381SOL     OW57981  15.860   1.556   6.817
36381SOL    HW157982  15.795   1.562   6.740
36381SOL    HW257983  15.872   1.461   6.844
36382SOL     OW57984  16.511   7.467   7.093
36382SOL    HW157985  16.564   7.520   7.027
36382SOL    HW257986  16.465   7.529   7.157
36383SOL     OW57987  11.308  12.492   7.659
36383SOL    HW157988  11.249  12.533   7.728
36383SOL    HW257989  11.402  12.487   7.693
36384SOL     OW57990   6.766  12.205   5.923
36384SOL    HW157991   6.731  12.205   5.829
36384SOL    HW257992   6.861  12.173   5.924
36385SOL     OW57993   8.456  16.219   7.815
36385SOL    HW157994   8.367  16.200   7.856
36385SOL    HW257995   8.444  16.271   7.730
36386SOL     OW57996   4.811   7.887   0.998
36386SOL    HW157997   4.841   7.919   1.088
36386SOL    HW257998   4.809   7.963   0.934
36387SOL     OW57999  10.903  13.018   6.795
36387SOL    HW158000  10.812  13.047   6.824
36387SOL    HW258001  10.965  13.096   6.796
36388SOL     OW58002   4.939   4.060   1.445
36388SOL    HW158003   4.998   3.997   1.496
36388SOL    HW258004   4.910   4.134   1.505
36389SOL     OW58005   3.147   3.448   8.228
36389SOL    HW158006   3.235   3.495   8.223
36389SOL    HW258007   3.102   3.472   8.314
36390SOL     OW58008   2.739  11.916   1.829
36390SOL    HW158009   2.683  11.994   1.858
36390SOL    HW258010   2.822  11.949   1.785
36391SOL     OW58011   9.866  10.338   7.852
36391SOL    HW158012   9.781  10.383   7.826
36391SOL    HW258013   9.848  10.241   7.871
36392SOL     OW58014   6.358   5.484   1.249
36392SOL    HW158015   6.261   5.495   1.227
36392SOL    HW258016   6.406   5.444   1.171
36393SOL     OW58017   4.376  11.647   8.187
36393SOL    HW158018   4.412  11.648   8.280
36393SOL    HW258019   4.284  11.688   8.186
36394SOL     OW58020   5.449  13.985   2.293
36394SOL    HW158021   5.516  13.980   2.368
36394SOL    HW258022   5.371  14.040   2.322
36395SOL     OW58023  13.902  14.974   8.335
36395SOL    HW158024  13.865  14.939   8.420
36395SOL    HW258025  13.943  14.899   8.283
36396SOL     OW58026  14.053  12.812   0.152
36396SOL    HW158027  13.995  12.756   0.093
36396SOL    HW258028  13.997  12.881   0.198
36397SOL     OW58029   3.431  10.228   2.248
36397SOL    HW158030   3.469  10.268   2.165
36397SOL    HW258031   3.375  10.295   2.296
36398SOL     OW58032   7.561  12.440   0.378
36398SOL    HW158033   7.528  12.528   0.342
36398SOL    HW258034   7.620  12.457   0.456
36399SOL     OW58035  16.261  12.141   7.329
36399SOL    HW158036  16.186  12.189   7.375
36399SOL    HW258037  16.273  12.051   7.370
36400SOL     OW58038  10.167  11.853   0.413
36400SOL    HW158039  10.250  11.797   0.417
36400SOL    HW258040  10.174  11.927   0.479
36401SOL     OW58041   2.580   7.311   7.345
36401SOL    HW158042   2.622   7.364   7.419
36401SOL    HW258043   2.597   7.213   7.360
36402SOL     OW58044   4.679   5.874   8.298
36402SOL    HW158045   4.582   5.896   8.288
36402SOL    HW258046   4.730   5.912   8.221
36403SOL     OW58047   4.181   6.433   1.755
36403SOL    HW158048   4.196   6.527   1.724
36403SOL    HW258049   4.263   6.400   1.802
36404SOL     OW58050  10.165   2.302   6.060
36404SOL    HW158051  10.189   2.380   6.001
36404SOL    HW258052  10.084   2.324   6.113
36405SOL     OW58053   4.311  10.015   0.547
36405SOL    HW158054   4.263  10.064   0.620
36405SOL    HW258055   4.264   9.929   0.528
36406SOL     OW58056   1.413   2.964   2.136
36406SOL    HW158057   1.334   2.910   2.163
36406SOL    HW258058   1.489   2.944   2.198
36407SOL     OW58059  12.613  16.435   1.971
36407SOL    HW158060  12.694  16.445   1.915
36407SOL    HW258061  12.596  16.338   1.990
36408SOL     OW58062   2.950  13.968   1.936
36408SOL    HW158063   2.988  14.057   1.909
36408SOL    HW258064   2.850  13.975   1.943
36409SOL     OW58065  12.052   3.748   6.015
36409SOL    HW158066  12.003   3.779   5.933
36409SOL    HW258067  12.145   3.722   5.990
36410SOL     OW58068  10.171   7.287   7.332
36410SOL    HW158069  10.080   7.262   7.364
36410SOL    HW258070  10.204   7.366   7.383
36411SOL     OW58071   2.392  15.237   7.744
36411SOL    HW158072   2.314  15.298   7.760
36411SOL    HW258073   2.358  15.144   7.728
36412SOL     OW58074  12.929   0.627   8.134
36412SOL    HW158075  12.985   0.697   8.177
36412SOL    HW258076  12.870   0.585   8.202
36413SOL     OW58077   8.485  14.839   1.361
36413SOL    HW158078   8.547  14.896   1.308
36413SOL    HW258079   8.455  14.761   1.305
36414SOL     OW58080   1.490   2.998   8.440
36414SOL    HW158081   1.391   2.989   8.452
36414SOL    HW258082   1.532   2.908   8.440
36415SOL     OW58083  16.375  11.380   7.221
36415SOL    HW158084  16.294  11.349   7.171
36415SOL    HW258085  16.374  11.343   7.314
36416SOL     OW58086  16.064  14.828   7.598
36416SOL    HW158087  16.151  14.778   7.599
36416SOL    HW258088  16.056  14.879   7.512
36417SOL     OW58089   7.660   9.737   6.788
36417SOL    HW158090   7.621   9.686   6.711
36417SOL    HW258091   7.681   9.831   6.758
36418SOL     OW58092  12.566  12.062   0.621
36418SOL    HW158093  12.626  12.065   0.541
36418SOL    HW258094  12.483  12.116   0.603
36419SOL     OW58095  15.952   9.822   7.753
36419SOL    HW158096  15.949   9.893   7.824
36419SOL    HW258097  16.013   9.749   7.782
36420SOL     OW58098   9.740   3.636   5.967
36420SOL    HW158099   9.759   3.727   5.928
36420SOL    HW258100   9.681   3.585   5.904
36421SOL     OW58101  16.119   5.596   7.958
36421SOL    HW158102  16.062   5.564   7.883
36421SOL    HW258103  16.071   5.584   8.044
36422SOL     OW58104  11.141   6.965   1.360
36422SOL    HW158105  11.042   6.965   1.378
36422SOL    HW258106  11.175   6.871   1.361
36423SOL     OW58107  12.938   3.053   7.468
36423SOL    HW158108  12.898   3.048   7.376
36423SOL    HW258109  13.021   3.109   7.464
36424SOL     OW58110   6.217   4.517   6.675
36424SOL    HW158111   6.138   4.576   6.689
36424SOL    HW258112   6.297   4.572   6.652
36425SOL     OW58113   8.709   0.246   2.395
36425SOL    HW158114   8.662   0.166   2.432
36425SOL    HW258115   8.740   0.304   2.470
36426SOL     OW58116  14.492   7.132   2.033
36426SOL    HW158117  14.510   7.040   1.997
36426SOL    HW258118  14.568   7.161   2.090
36427SOL     OW58119   9.339  16.156   0.023
36427SOL    HW158120   9.284  16.209   8.412
36427SOL    HW258121   9.283  16.086   0.066
36428SOL     OW58122   8.648   8.237   7.771
36428SOL    HW158123   8.678   8.331   7.790
36428SOL    HW258124   8.590   8.237   7.690
36429SOL     OW58125   1.433  16.638   1.680
36429SOL    HW158126   1.483  16.656   1.595
36429SOL    HW258127   1.351  16.695   1.683
36430SOL     OW58128  15.115   8.974   7.780
36430SOL    HW158129  15.211   8.973   7.806
36430SOL    HW258130  15.106   9.003   7.685
36431SOL     OW58131   6.855   6.470   7.889
36431SOL    HW158132   6.849   6.424   7.978
36431SOL    HW258133   6.775   6.528   7.875
36432SOL     OW58134   1.768   9.905   8.344
36432SOL    HW158135   1.770   9.818   8.393
36432SOL    HW258136   1.722   9.892   8.256
36433SOL     OW58137   3.563   5.070   7.942
36433SOL    HW158138   3.466   5.050   7.959
36433SOL    HW258139   3.590   5.030   7.855
36434SOL     OW58140  13.340   0.709   5.478
36434SOL    HW158141  13.342   0.702   5.577
36434SOL    HW258142  13.433   0.720   5.443
36435SOL     OW58143   6.731  11.356   7.508
36435SOL    HW158144   6.687  11.387   7.592
36435SOL    HW258145   6.829  11.350   7.522
36436SOL     OW58146   9.712   0.699   1.835
36436SOL    HW158147   9.764   0.623   1.872
36436SOL    HW258148   9.617   0.693   1.865
36437SOL     OW58149   8.319   6.455   0.459
36437SOL    HW158150   8.257   6.501   0.395
36437SOL    HW258151   8.344   6.517   0.532
36438SOL     OW58152  15.066  14.846   7.192
36438SOL    HW158153  15.116  14.768   7.229
36438SOL    HW258154  15.018  14.818   7.108
36439SOL     OW58155   3.939  13.038   1.397
36439SOL    HW158156   4.016  13.097   1.419
36439SOL    HW258157   3.900  13.065   1.309
36440SOL     OW58158   0.936  14.123   0.092
36440SOL    HW158159   0.895  14.100   0.181
36440SOL    HW258160   0.936  14.222   0.081
36441SOL     OW58161  11.276   7.820   7.148
36441SOL    HW158162  11.181   7.790   7.144
36441SOL    HW258163  11.337   7.743   7.128
36442SOL     OW58164   5.967   4.552   7.999
36442SOL    HW158165   6.001   4.473   8.051
36442SOL    HW258166   6.044   4.599   7.956
36443SOL     OW58167   7.042  11.898   0.720
36443SOL    HW158168   7.107  11.832   0.759
36443SOL    HW258169   7.060  11.908   0.622
36444SOL     OW58170  10.740   3.627   0.645
36444SOL    HW158171  10.720   3.726   0.646
36444SOL    HW258172  10.674   3.580   0.705
36445SOL     OW58173   5.005  16.639   0.435
36445SOL    HW158174   5.056  16.645   0.349
36445SOL    HW258175   5.047  16.570   0.494
36446SOL     OW58176   0.155  15.395   7.461
36446SOL    HW158177   0.068  15.359   7.427
36446SOL    HW258178   0.181  15.475   7.406
36447SOL     OW58179   2.523   6.796   1.712
36447SOL    HW158180   2.454   6.736   1.671
36447SOL    HW258181   2.614   6.771   1.676
36448SOL     OW58182   7.672   2.643   7.001
36448SOL    HW158183   7.592   2.672   7.054
36448SOL    HW258184   7.667   2.682   6.909
36449SOL     OW58185   6.702  15.617   0.310
36449SOL    HW158186   6.729  15.710   0.286
36449SOL    HW258187   6.784  15.563   0.332
36450SOL     OW58188   1.327  12.127   0.441
36450SOL    HW158189   1.246  12.143   0.499
36450SOL    HW258190   1.390  12.204   0.450
36451SOL     OW58191  15.367   6.921   7.152
36451SOL    HW158192  15.280   6.967   7.132
36451SOL    HW258193  15.423   6.917   7.069
36452SOL     OW58194   1.257   9.180   7.185
36452SOL    HW158195   1.203   9.113   7.134
36452SOL    HW258196   1.313   9.133   7.253
36453SOL     OW58197   6.392  13.914   0.139
36453SOL    HW158198   6.346  13.830   0.111
36453SOL    HW258199   6.464  13.892   0.204
36454SOL     OW58200   5.457   2.039   6.932
36454SOL    HW158201   5.435   1.950   6.892
36454SOL    HW258202   5.555   2.057   6.922
36455SOL     OW58203   3.896   1.600   2.192
36455SOL    HW158204   3.933   1.649   2.271
36455SOL    HW258205   3.850   1.664   2.131
36456SOL     OW58206  14.417  16.983   7.312
36456SOL    HW158207  14.441  16.887   7.324
36456SOL    HW258208  14.379   0.035   7.397
36457SOL     OW58209  13.312   6.784   0.751
36457SOL    HW158210  13.280   6.847   0.822
36457SOL    HW258211  13.235   6.730   0.717
36458SOL     OW58212   9.477   3.185   7.493
36458SOL    HW158213   9.554   3.125   7.475
36458SOL    HW258214   9.507   3.264   7.546
36459SOL     OW58215   9.859  15.471   1.180
36459SOL    HW158216   9.910  15.530   1.118
36459SOL    HW258217   9.818  15.526   1.253
36460SOL     OW58218   2.467  11.466   7.766
36460SOL    HW158219   2.456  11.455   7.865
36460SOL    HW258220   2.564  11.472   7.744
36461SOL     OW58221   4.360   2.490   7.166
36461SOL    HW158222   4.274   2.464   7.210
36461SOL    HW258223   4.433   2.427   7.196
36462SOL     OW58224   0.374   7.629   6.924
36462SOL    HW158225   0.390   7.722   6.958
36462SOL    HW258226   0.327   7.632   6.836
36463SOL     OW58227   8.849   2.149   1.177
36463SOL    HW158228   8.766   2.107   1.142
36463SOL    HW258229   8.836   2.248   1.183
36464SOL     OW58230   9.893  13.338   7.435
36464SOL    HW158231   9.915  13.370   7.343
36464SOL    HW258232   9.974  13.298   7.478
36465SOL     OW58233   3.699  10.676   2.656
36465SOL    HW158234   3.704  10.764   2.609
36465SOL    HW258235   3.765  10.674   2.731
36466SOL     OW58236  14.731   9.643   6.192
36466SOL    HW158237  14.773   9.733   6.182
36466SOL    HW258238  14.642   9.642   6.146
36467SOL     OW58239  16.120   8.127   0.831
36467SOL    HW158240  16.208   8.113   0.876
36467SOL    HW258241  16.127   8.203   0.767
36468SOL     OW58242   4.714  15.162   6.711
36468SOL    HW158243   4.788  15.095   6.719
36468SOL    HW258244   4.702  15.186   6.614
36469SOL     OW58245   4.518   9.828   7.543
36469SOL    HW158246   4.423   9.798   7.558
36469SOL    HW258247   4.555   9.865   7.628
36470SOL     OW58248   3.964   8.737   0.802
36470SOL    HW158249   3.899   8.813   0.814
36470SOL    HW258250   4.057   8.774   0.801
36471SOL     OW58251   8.588   5.160   1.473
36471SOL    HW158252   8.519   5.141   1.402
36471SOL    HW258253   8.654   5.085   1.476
36472SOL     OW58254  10.848   9.981   7.977
36472SOL    HW158255  10.775   9.993   8.044
36472SOL    HW258256  10.903  10.065   7.974
36473SOL     OW58257   5.999  11.967   7.339
36473SOL    HW158258   6.012  12.060   7.304
36473SOL    HW258259   6.047  11.902   7.280
36474SOL     OW58260  15.051  10.560   7.765
36474SOL    HW158261  14.988  10.526   7.835
36474SOL    HW258262  15.095  10.482   7.719
36475SOL     OW58263   7.098  16.421   8.089
36475SOL    HW158264   7.067  16.482   8.162
36475SOL    HW258265   7.040  16.434   8.008
36476SOL     OW58266  11.126  16.460   7.294
36476SOL    HW158267  11.185  16.492   7.367
36476SOL    HW258268  11.099  16.537   7.236
36477SOL     OW58269   3.439  13.012   1.957
36477SOL    HW158270   3.366  12.991   1.891
36477SOL    HW258271   3.459  13.110   1.954
36478SOL     OW58272   3.361   0.313   7.846
36478SOL    HW158273   3.403   0.233   7.805
36478SOL    HW258274   3.367   0.306   7.946
36479SOL     OW58275   3.649   7.929   1.671
36479SOL    HW158276   3.585   7.876   1.726
36479SOL    HW258277   3.740   7.923   1.710
36480SOL     OW58278   1.798   2.022   0.804
36480SOL    HW158279   1.748   1.949   0.758
36480SOL    HW258280   1.881   2.044   0.752
36481SOL     OW58281   7.381  14.820   0.181
36481SOL    HW158282   7.419  14.730   0.155
36481SOL    HW258283   7.424  14.851   0.266
36482SOL     OW58284  12.986  14.047   0.175
36482SOL    HW158285  12.938  14.125   0.216
36482SOL    HW258286  13.009  13.981   0.247
36483SOL     OW58287  12.676  10.272   1.108
36483SOL    HW158288  12.774  10.268   1.088
36483SOL    HW258289  12.643  10.366   1.096
36484SOL     OW58290   4.681  12.658   7.464
36484SOL    HW158291   4.654  12.578   7.409
36484SOL    HW258292   4.663  12.741   7.411
36485SOL     OW58293   4.894   4.389   7.003
36485SOL    HW158294   4.796   4.403   7.015
36485SOL    HW258295   4.936   4.373   7.092
36486SOL     OW58296   5.651   0.766   8.138
36486SOL    HW158297   5.736   0.718   8.120
36486SOL    HW258298   5.645   0.790   8.235
36487SOL     OW58299   4.267   3.681   0.969
36487SOL    HW158300   4.289   3.610   1.036
36487SOL    HW258301   4.168   3.690   0.961
36488SOL     OW58302  10.161   3.235   8.259
36488SOL    HW158303  10.219   3.247   8.340
36488SOL    HW258304  10.065   3.233   8.286
36489SOL     OW58305  14.282  14.213   7.151
36489SOL    HW158306  14.272  14.168   7.062
36489SOL    HW258307  14.287  14.143   7.223
36490SOL     OW58308   1.983   1.509   7.073
36490SOL    HW158309   2.055   1.458   7.027
36490SOL    HW258310   2.012   1.532   7.166
36491SOL     OW58311  16.105   0.439   1.195
36491SOL    HW158312  16.031   0.374   1.175
36491SOL    HW258313  16.177   0.392   1.245
36492SOL     OW58314   4.924  15.297   6.962
36492SOL    HW158315   4.934  15.378   6.904
36492SOL    HW258316   4.922  15.215   6.906
36493SOL     OW58317  10.954   3.559   0.180
36493SOL    HW158318  10.905   3.535   0.264
36493SOL    HW258319  10.969   3.658   0.179
36494SOL     OW58320   3.412   0.712   0.961
36494SOL    HW158321   3.467   0.629   0.952
36494SOL    HW258322   3.319   0.695   0.929
36495SOL     OW58323  15.828   7.022   6.240
36495SOL    HW158324  15.772   7.101   6.213
36495SOL    HW258325  15.891   7.000   6.166
36496SOL     OW58326   5.094   7.444   0.064
36496SOL    HW158327   5.074   7.513   8.448
36496SOL    HW258328   5.177   7.468   0.113
36497SOL     OW58329  16.384  13.945   0.296
36497SOL    HW158330  16.421  14.031   0.259
36497SOL    HW258331  16.423  13.868   0.245
36498SOL     OW58332   5.145   1.058   0.431
36498SOL    HW158333   5.119   1.122   0.503
36498SOL    HW258334   5.074   1.054   0.361
36499SOL     OW58335  10.064   2.260   7.834
36499SOL    HW158336  10.001   2.184   7.847
36499SOL    HW258337  10.021   2.346   7.862
36500SOL     OW58338  13.971   2.347   0.035
36500SOL    HW158339  14.017   2.278   8.434
36500SOL    HW258340  13.998   2.438   0.003
36501SOL     OW58341   0.541   6.246   6.609
36501SOL    HW158342   0.442   6.245   6.593
36501SOL    HW258343   0.583   6.170   6.561
36502SOL     OW58344   5.258  16.045   8.119
36502SOL    HW158345   5.202  16.058   8.201
36502SOL    HW258346   5.262  15.948   8.096
36503SOL     OW58347   5.721   4.859   6.353
36503SOL    HW158348   5.774   4.883   6.434
36503SOL    HW258349   5.783   4.835   6.278
36504SOL     OW58350   8.650   8.126   0.730
36504SOL    HW158351   8.691   8.104   0.819
36504SOL    HW258352   8.710   8.092   0.657
36505SOL     OW58353  15.020   9.272   0.983
36505SOL    HW158354  15.057   9.326   1.058
36505SOL    HW258355  14.937   9.225   1.014
36506SOL     OW58356  11.885   8.032   7.594
36506SOL    HW158357  11.894   8.014   7.692
36506SOL    HW258358  11.912   7.949   7.543
36507SOL     OW58359   5.060   6.708   6.941
36507SOL    HW158360   5.062   6.717   7.040
36507SOL    HW258361   5.113   6.628   6.913
36508SOL     OW58362  16.779  16.971   1.791
36508SOL    HW158363  16.800   0.046   1.713
36508SOL    HW258364  16.795   0.038   1.876
36509SOL     OW58365   1.163  15.532   8.422
36509SOL    HW158366   1.189  15.535   8.325
36509SOL    HW258367   1.082  15.589   8.436
36510SOL     OW58368  10.119  11.918   2.137
36510SOL    HW158369  10.072  11.836   2.167
36510SOL    HW258370  10.123  11.984   2.212
36511SOL     OW58371  10.763   4.468   0.175
36511SOL    HW158372  10.792   4.373   0.166
36511SOL    HW258373  10.756   4.509   0.084
36512SOL     OW58374  15.883   2.770   6.880
36512SOL    HW158375  15.871   2.741   6.975
36512SOL    HW258376  15.818   2.844   6.859
36513SOL     OW58377  15.473  10.366   7.121
36513SOL    HW158378  15.374  10.365   7.137
36513SOL    HW258379  15.493  10.418   7.038
36514SOL     OW58380   5.716  16.624   1.203
36514SOL    HW158381   5.671  16.709   1.177
36514SOL    HW258382   5.776  16.594   1.129
36515SOL     OW58383  13.661  13.065   7.344
36515SOL    HW158384  13.601  13.048   7.265
36515SOL    HW258385  13.741  13.118   7.314
36516SOL     OW58386   9.773  16.353   7.262
36516SOL    HW158387   9.802  16.405   7.182
36516SOL    HW258388   9.845  16.357   7.332
36517SOL     OW58389   8.382   3.091   0.955
36517SOL    HW158390   8.284   3.104   0.939
36517SOL    HW258391   8.397   3.058   1.048
36518SOL     OW58392  14.886   3.097   7.041
36518SOL    HW158393  14.829   3.160   6.988
36518SOL    HW258394  14.833   3.016   7.066
36519SOL     OW58395   1.027  15.202   6.904
36519SOL    HW158396   0.936  15.244   6.903
36519SOL    HW258397   1.065  15.202   6.812
36520SOL     OW58398   5.597   9.747   7.773
36520SOL    HW158399   5.529   9.680   7.803
36520SOL    HW258400   5.553   9.817   7.716
36521SOL     OW58401  11.071   2.428   1.002
36521SOL    HW158402  11.155   2.473   0.973
36521SOL    HW258403  11.058   2.344   0.949
36522SOL     OW58404   2.945   1.442   1.723
36522SOL    HW158405   2.995   1.465   1.640
36522SOL    HW258406   2.943   1.520   1.785
36523SOL     OW58407   8.658   7.191   1.639
36523SOL    HW158408   8.579   7.132   1.649
36523SOL    HW258409   8.714   7.188   1.722
36524SOL     OW58410   4.389   8.698   0.302
36524SOL    HW158411   4.302   8.703   0.350
36524SOL    HW258412   4.378   8.646   0.217
36525SOL     OW58413  12.727  16.121   6.339
36525SOL    HW158414  12.722  16.032   6.292
36525SOL    HW258415  12.797  16.117   6.410
36526SOL     OW58416   4.322   5.026   7.393
36526SOL    HW158417   4.313   5.050   7.490
36526SOL    HW258418   4.383   5.091   7.348
36527SOL     OW58419   6.446   9.359   0.801
36527SOL    HW158420   6.364   9.302   0.796
36527SOL    HW258421   6.520   9.306   0.842
36528SOL     OW58422   9.307   0.939   6.535
36528SOL    HW158423   9.295   1.017   6.596
36528SOL    HW258424   9.405   0.927   6.515
36529SOL     OW58425   9.927   9.107   8.393
36529SOL    HW158426   9.915   9.008   8.391
36529SOL    HW258427   9.873   9.146   0.014
36530SOL     OW58428   7.735   5.425   7.253
36530SOL    HW158429   7.800   5.350   7.257
36530SOL    HW258430   7.707   5.440   7.158
36531SOL     OW58431  14.717   0.963   6.356
36531SOL    HW158432  14.674   1.045   6.395
36531SOL    HW258433  14.810   0.986   6.327
36532SOL     OW58434   2.966   2.703   0.613
36532SOL    HW158435   2.997   2.738   0.525
36532SOL    HW258436   2.901   2.628   0.598
36533SOL     OW58437  10.124   4.716   6.799
36533SOL    HW158438  10.204   4.753   6.845
36533SOL    HW258439  10.048   4.781   6.805
36534SOL     OW58440  15.822  15.661   7.439
36534SOL    HW158441  15.855  15.755   7.430
36534SOL    HW258442  15.773  15.635   7.356
36535SOL     OW58443  12.214   8.738   1.435
36535SOL    HW158444  12.120   8.716   1.461
36535SOL    HW258445  12.222   8.736   1.335
36536SOL     OW58446  16.525   2.077   7.482
36536SOL    HW158447  16.618   2.103   7.508
36536SOL    HW258448  16.503   2.117   7.393
36537SOL     OW58449  10.383  12.139   8.339
36537SOL    HW158450  10.312  12.070   8.354
36537SOL    HW258451  10.414  12.135   8.244
36538SOL     OW58452  16.248   7.214   0.253
36538SOL    HW158453  16.219   7.205   0.158
36538SOL    HW258454  16.270   7.309   0.273
36539SOL     OW58455   8.006   0.997   7.230
36539SOL    HW158456   7.985   0.900   7.242
36539SOL    HW258457   7.946   1.035   7.160
36540SOL     OW58458   2.633  11.789   0.660
36540SOL    HW158459   2.715  11.790   0.717
36540SOL    HW258460   2.553  11.770   0.718
36541SOL     OW58461   4.029   3.957   1.828
36541SOL    HW158462   3.966   4.006   1.889
36541SOL    HW258463   4.004   3.860   1.827
36542SOL     OW58464   1.771  15.276   7.831
36542SOL    HW158465   1.786  15.375   7.835
36542SOL    HW258466   1.679  15.258   7.795
36543SOL     OW58467  13.652   0.824   2.179
36543SOL    HW158468  13.686   0.730   2.172
36543SOL    HW258469  13.575   0.827   2.242
36544SOL     OW58470  15.298  15.157   7.431
36544SOL    HW158471  15.330  15.225   7.497
36544SOL    HW258472  15.238  15.092   7.478
36545SOL     OW58473  14.450  10.282   0.168
36545SOL    HW158474  14.497  10.242   0.248
36545SOL    HW258475  14.463  10.381   0.168
36546SOL     OW58476  12.466   7.553   6.276
36546SOL    HW158477  12.540   7.584   6.336
36546SOL    HW258478  12.380   7.591   6.307
36547SOL     OW58479   3.519  11.692   8.065
36547SOL    HW158480   3.492  11.601   8.034
36547SOL    HW258481   3.619  11.695   8.076
36548SOL     OW58482   0.927  11.274   6.897
36548SOL    HW158483   0.920  11.260   6.798
36548SOL    HW258484   1.021  11.300   6.920
36549SOL     OW58485  14.868  16.759   1.666
36549SOL    HW158486  14.929  16.770   1.744
36549SOL    HW258487  14.773  16.760   1.698
36550SOL     OW58488   5.694   0.042   6.569
36550SOL    HW158489   5.747   0.114   6.523
36550SOL    HW258490   5.623   0.084   6.625
36551SOL     OW58491  13.815   8.908   1.464
36551SOL    HW158492  13.868   8.838   1.512
36551SOL    HW258493  13.833   8.997   1.505
36552SOL     OW58494   1.448   9.184   1.570
36552SOL    HW158495   1.440   9.173   1.670
36552SOL    HW258496   1.530   9.137   1.538
36553SOL     OW58497  15.128   7.020   7.050
36553SOL    HW158498  15.129   6.942   6.986
36553SOL    HW258499  15.133   7.105   6.998
36554SOL     OW58500  15.555  13.227   7.718
36554SOL    HW158501  15.538  13.212   7.816
36554SOL    HW258502  15.630  13.292   7.707
36555SOL     OW58503   6.457   2.705   7.161
36555SOL    HW158504   6.358   2.719   7.160
36555SOL    HW258505   6.476   2.607   7.168
36556SOL     OW58506   3.247   9.519   7.472
36556SOL    HW158507   3.247   9.503   7.373
36556SOL    HW258508   3.196   9.446   7.517
36557SOL     OW58509   6.814   2.124   7.442
36557SOL    HW158510   6.914   2.123   7.432
36557SOL    HW258511   6.780   2.030   7.447
36558SOL     OW58512   3.224  13.107   1.106
36558SOL    HW158513   3.151  13.167   1.139
36558SOL    HW258514   3.233  13.029   1.167
36559SOL     OW58515   7.527   1.487   6.040
36559SOL    HW158516   7.529   1.416   5.970
36559SOL    HW258517   7.610   1.481   6.096
36560SOL     OW58518   7.537   0.921   8.175
36560SOL    HW158519   7.610   0.935   8.242
36560SOL    HW258520   7.464   0.865   8.216
36561SOL     OW58521  10.358   2.125   8.211
36561SOL    HW158522  10.306   2.160   8.290
36561SOL    HW258523  10.328   2.172   8.128
36562SOL     OW58524   8.223   5.258   1.609
36562SOL    HW158525   8.215   5.326   1.536
36562SOL    HW258526   8.133   5.243   1.651
36563SOL     OW58527  14.048  11.453   0.495
36563SOL    HW158528  14.106  11.507   0.435
36563SOL    HW258529  14.027  11.504   0.578
36564SOL     OW58530  12.397  16.279   7.394
36564SOL    HW158531  12.470  16.213   7.378
36564SOL    HW258532  12.317  16.232   7.430
36565SOL     OW58533   1.524   8.315   0.450
36565SOL    HW158534   1.504   8.353   0.360
36565SOL    HW258535   1.524   8.215   0.446
36566SOL     OW58536  15.732  16.262   1.285
36566SOL    HW158537  15.740  16.283   1.187
36566SOL    HW258538  15.679  16.335   1.329
36567SOL     OW58539   4.226  15.245   0.631
36567SOL    HW158540   4.157  15.174   0.645
36567SOL    HW258541   4.198  15.304   0.555
36568SOL     OW58542  16.153   2.253   0.211
36568SOL    HW158543  16.092   2.322   0.171
36568SOL    HW258544  16.247   2.286   0.206
36569SOL     OW58545   6.377   1.808   7.007
36569SOL    HW158546   6.338   1.849   7.089
36569SOL    HW258547   6.310   1.747   6.965
36570SOL     OW58548   3.722  10.985   1.415
36570SOL    HW158549   3.693  10.974   1.320
36570SOL    HW258550   3.783  11.063   1.423
36571SOL     OW58551   6.201   2.876   0.395
36571SOL    HW158552   6.257   2.810   0.345
36571SOL    HW258553   6.137   2.919   0.331
36572SOL     OW58554  13.502  12.576   7.219
36572SOL    HW158555  13.404  12.584   7.199
36572SOL    HW258556  13.552  12.643   7.164
36573SOL     OW58557   4.856   0.548   1.662
36573SOL    HW158558   4.835   0.569   1.567
36573SOL    HW258559   4.911   0.622   1.701
36574SOL     OW58560   8.146   2.206   7.451
36574SOL    HW158561   8.099   2.293   7.467
36574SOL    HW258562   8.083   2.131   7.467
36575SOL     OW58563  10.385   3.536   7.311
36575SOL    HW158564  10.328   3.619   7.322
36575SOL    HW258565  10.472   3.561   7.269
36576SOL     OW58566   3.524   6.918   1.925
36576SOL    HW158567   3.533   6.946   2.020
36576SOL    HW258568   3.543   6.820   1.917
36577SOL     OW58569  15.730  16.979   0.769
36577SOL    HW158570  15.701  16.957   0.862
36577SOL    HW258571  15.731   0.095   0.756
36578SOL     OW58572  12.451   4.938   8.105
36578SOL    HW158573  12.372   4.877   8.110
36578SOL    HW258574  12.528   4.889   8.063
36579SOL     OW58575  14.647  12.491   7.955
36579SOL    HW158576  14.599  12.404   7.970
36579SOL    HW258577  14.695  12.488   7.867
36580SOL     OW58578   4.663   9.159   1.242
36580SOL    HW158579   4.632   9.135   1.151
36580SOL    HW258580   4.758   9.130   1.254
36581SOL     OW58581   0.593  16.163   0.836
36581SOL    HW158582   0.685  16.124   0.826
36581SOL    HW258583   0.600  16.255   0.877
36582SOL     OW58584  12.087   0.822   5.671
36582SOL    HW158585  12.055   0.794   5.761
36582SOL    HW258586  12.012   0.815   5.605
36583SOL     OW58587  11.957   1.838   1.008
36583SOL    HW158588  11.958   1.886   0.920
36583SOL    HW258589  11.935   1.741   0.992
36584SOL     OW58590   6.576   3.743   0.037
36584SOL    HW158591   6.576   3.718   8.394
36584SOL    HW258592   6.669   3.766   0.065
36585SOL     OW58593   3.543  10.383   1.205
36585SOL    HW158594   3.590  10.434   1.277
36585SOL    HW258595   3.597  10.383   1.122
36586SOL     OW58596   5.812   6.468   0.257
36586SOL    HW158597   5.763   6.435   0.176
36586SOL    HW258598   5.840   6.390   0.313
36587SOL     OW58599   4.285  12.993   7.544
36587SOL    HW158600   4.314  13.051   7.469
36587SOL    HW258601   4.294  13.043   7.630
36588SOL     OW58602   0.969  14.703   0.994
36588SOL    HW158603   0.998  14.629   0.933
36588SOL    HW258604   0.969  14.789   0.943
36589SOL     OW58605  11.379   0.913   6.385
36589SOL    HW158606  11.336   0.832   6.346
36589SOL    HW258607  11.471   0.889   6.418
36590SOL     OW58608   2.413   6.571   0.866
36590SOL    HW158609   2.377   6.653   0.821
36590SOL    HW258610   2.338   6.516   0.901
36591SOL     OW58611  11.856   3.527   7.479
36591SOL    HW158612  11.934   3.492   7.428
36591SOL    HW258613  11.811   3.599   7.425
36592SOL     OW58614  13.795  15.868   7.594
36592SOL    HW158615  13.798  15.912   7.505
36592SOL    HW258616  13.864  15.797   7.599
36593SOL     OW58617   1.136  10.245   2.119
36593SOL    HW158618   1.059  10.181   2.123
36593SOL    HW258619   1.165  10.268   2.212
36594SOL     OW58620   5.338   8.810   0.008
36594SOL    HW158621   5.438   8.816   0.011
36594SOL    HW258622   5.311   8.716   8.444
36595SOL     OW58623  15.098   6.265   6.375
36595SOL    HW158624  15.119   6.206   6.297
36595SOL    HW258625  15.059   6.209   6.449
36596SOL     OW58626   3.606   9.234   7.635
36596SOL    HW158627   3.632   9.330   7.633
36596SOL    HW258628   3.596   9.200   7.541
36597SOL     OW58629  16.598  11.862   2.273
36597SOL    HW158630  16.594  11.821   2.364
36597SOL    HW258631  16.572  11.958   2.279
36598SOL     OW58632   9.967   1.923   6.449
36598SOL    HW158633  10.047   1.983   6.452
36598SOL    HW258634   9.972   1.864   6.368
36599SOL     OW58635   6.614   6.607   7.332
36599SOL    HW158636   6.642   6.598   7.428
36599SOL    HW258637   6.525   6.652   7.327
36600SOL     OW58638  11.851   0.569   0.704
36600SOL    HW158639  11.844   0.656   0.655
36600SOL    HW258640  11.801   0.576   0.791
36601SOL     OW58641  16.048   0.788   0.767
36601SOL    HW158642  16.124   0.779   0.703
36601SOL    HW258643  15.968   0.823   0.717
36602SOL     OW58644   6.507   6.122   6.971
36602SOL    HW158645   6.601   6.087   6.973
36602SOL    HW258646   6.504   6.204   6.915
36603SOL     OW58647  11.811   1.357   7.597
36603SOL    HW158648  11.757   1.422   7.543
36603SOL    HW258649  11.900   1.398   7.619
36604SOL     OW58650  10.286   7.167   2.043
36604SOL    HW158651  10.259   7.079   2.082
36604SOL    HW258652  10.343   7.217   2.108
36605SOL     OW58653  15.589   9.265   0.464
36605SOL    HW158654  15.515   9.210   0.426
36605SOL    HW258655  15.630   9.320   0.392
36606SOL     OW58656  15.763   5.846   7.923
36606SOL    HW158657  15.861   5.866   7.929
36606SOL    HW258658  15.749   5.769   7.861
36607SOL     OW58659   0.976   2.917   7.930
36607SOL    HW158660   0.942   2.904   7.837
36607SOL    HW258661   1.040   2.994   7.932
36608SOL     OW58662   1.594  16.043   1.073
36608SOL    HW158663   1.613  16.133   1.035
36608SOL    HW258664   1.633  15.972   1.014
36609SOL     OW58665   6.737  10.136   0.804
36609SOL    HW158666   6.753  10.095   0.714
36609SOL    HW258667   6.684  10.072   0.861
36610SOL     OW58668   8.055   4.607   0.893
36610SOL    HW158669   7.976   4.547   0.877
36610SOL    HW258670   8.077   4.657   0.809
36611SOL     OW58671   5.747   7.525   0.258
36611SOL    HW158672   5.716   7.429   0.260
36611SOL    HW258673   5.679   7.582   0.304
36612SOL     OW58674  10.662   4.584   6.077
36612SOL    HW158675  10.632   4.577   5.982
36612SOL    HW258676  10.675   4.681   6.101
36613SOL     OW58677  10.877   8.846   7.935
36613SOL    HW158678  10.820   8.787   7.992
36613SOL    HW258679  10.825   8.876   7.855
36614SOL     OW58680   6.402  11.725   0.606
36614SOL    HW158681   6.333  11.692   0.542
36614SOL    HW258682   6.431  11.650   0.666
36615SOL     OW58683   3.965   3.318   8.192
36615SOL    HW158684   4.005   3.309   8.283
36615SOL    HW258685   3.875   3.275   8.191
36616SOL     OW58686   9.243  10.421   7.238
36616SOL    HW158687   9.315  10.393   7.175
36616SOL    HW258688   9.283  10.455   7.322
36617SOL     OW58689   7.488   5.003   7.159
36617SOL    HW158690   7.551   5.003   7.082
36617SOL    HW258691   7.515   4.933   7.225
36618SOL     OW58692   8.547  11.905   6.994
36618SOL    HW158693   8.639  11.931   6.967
36618SOL    HW258694   8.481  11.958   6.941
36619SOL     OW58695  15.485  13.533   1.385
36619SOL    HW158696  15.392  13.565   1.405
36619SOL    HW258697  15.511  13.562   1.293
36620SOL     OW58698  14.470   9.948   1.457
36620SOL    HW158699  14.431  10.015   1.394
36620SOL    HW258700  14.397   9.892   1.495
36621SOL     OW58701   9.230   4.019   0.381
36621SOL    HW158702   9.167   4.082   0.427
36621SOL    HW258703   9.181   3.970   0.309
36622SOL     OW58704  11.735   1.900   6.768
36622SOL    HW158705  11.665   1.944   6.825
36622SOL    HW258706  11.766   1.965   6.698
36623SOL     OW58707  13.331  15.264   1.489
36623SOL    HW158708  13.402  15.231   1.550
36623SOL    HW258709  13.371  15.330   1.424
36624SOL     OW58710  13.396  12.106   6.600
36624SOL    HW158711  13.398  12.006   6.603
36624SOL    HW258712  13.306  12.139   6.631
36625SOL     OW58713   2.613  10.773   7.842
36625SOL    HW158714   2.652  10.841   7.904
36625SOL    HW258715   2.515  10.764   7.859
36626SOL     OW58716   2.371   1.040   7.584
36626SOL    HW158717   2.359   1.044   7.683
36626SOL    HW258718   2.314   1.110   7.541
36627SOL     OW58719  14.317  12.752   7.835
36627SOL    HW158720  14.239  12.703   7.797
36627SOL    HW258721  14.295  12.849   7.845
36628SOL     OW58722  16.331   6.499   6.476
36628SOL    HW158723  16.345   6.429   6.545
36628SOL    HW258724  16.249   6.476   6.422
36629SOL     OW58725  13.413   7.695   1.998
36629SOL    HW158726  13.487   7.719   2.060
36629SOL    HW258727  13.326   7.698   2.046
36630SOL     OW58728   2.840   4.555   6.446
36630SOL    HW158729   2.898   4.604   6.380
36630SOL    HW258730   2.803   4.473   6.403
36631SOL     OW58731   5.017   1.775   1.188
36631SOL    HW158732   5.033   1.723   1.273
36631SOL    HW258733   5.074   1.737   1.115
36632SOL     OW58734  14.678   1.460   7.290
36632SOL    HW158735  14.615   1.390   7.321
36632SOL    HW258736  14.773   1.428   7.300
36633SOL     OW58737   7.435   5.012   0.134
36633SOL    HW158738   7.365   4.972   0.076
36633SOL    HW258739   7.393   5.049   0.217
36634SOL     OW58740   6.378   9.718   0.159
36634SOL    HW158741   6.327   9.755   0.081
36634SOL    HW258742   6.319   9.719   0.240
36635SOL     OW58743  10.153  16.385   0.936
36635SOL    HW158744  10.059  16.417   0.943
36635SOL    HW258745  10.192  16.416   0.849
36636SOL     OW58746   9.311   5.032   6.495
36636SOL    HW158747   9.372   4.960   6.463
36636SOL    HW258748   9.313   5.109   6.431
36637SOL     OW58749  11.797   3.987   7.436
36637SOL    HW158750  11.762   4.060   7.495
36637SOL    HW258751  11.882   4.017   7.393
36638SOL     OW58752  16.402   7.129   6.493
36638SOL    HW158753  16.315   7.105   6.448
36638SOL    HW258754  16.449   7.045   6.520
36639SOL     OW58755  14.419   2.523   7.917
36639SOL    HW158756  14.321   2.531   7.938
36639SOL    HW258757  14.467   2.485   7.996
36640SOL     OW58758  10.510   0.960   0.493
36640SOL    HW158759  10.454   0.898   0.548
36640SOL    HW258760  10.578   0.907   0.443
36641SOL     OW58761   3.355  11.630   7.297
36641SOL    HW158762   3.423  11.675   7.354
36641SOL    HW258763   3.399  11.590   7.217
36642SOL     OW58764   3.950  10.751   6.464
36642SOL    HW158765   3.900  10.828   6.423
36642SOL    HW258766   4.040  10.742   6.421
36643SOL     OW58767  10.808  16.919   0.970
36643SOL    HW158768  10.731  16.915   0.905
36643SOL    HW258769  10.786  16.863   1.050
36644SOL     OW58770  16.559  14.782   0.351
36644SOL    HW158771  16.492  14.717   0.385
36644SOL    HW258772  16.513  14.863   0.316
36645SOL     OW58773   8.823   2.430   0.928
36645SOL    HW158774   8.893   2.369   0.890
36645SOL    HW258775   8.826   2.426   1.028
36646SOL     OW58776  11.307  12.978   1.413
36646SOL    HW158777  11.321  13.030   1.497
36646SOL    HW258778  11.298  12.881   1.435
36647SOL     OW58779   5.439   4.532   7.434
36647SOL    HW158780   5.385   4.600   7.384
36647SOL    HW258781   5.415   4.440   7.404
36648SOL     OW58782  12.946   5.243   7.383
36648SOL    HW158783  12.979   5.330   7.346
36648SOL    HW258784  12.950   5.172   7.312
36649SOL     OW58785  14.138   3.938   0.932
36649SOL    HW158786  14.114   3.976   0.843
36649SOL    HW258787  14.058   3.892   0.971
36650SOL     OW58788   8.349  16.060   6.756
36650SOL    HW158789   8.337  15.969   6.716
36650SOL    HW258790   8.393  16.052   6.845
36651SOL     OW58791   1.179   1.904   1.429
36651SOL    HW158792   1.245   1.846   1.382
36651SOL    HW258793   1.120   1.949   1.361
36652SOL     OW58794   1.920   4.747   0.208
36652SOL    HW158795   1.944   4.651   0.196
36652SOL    HW258796   1.978   4.788   0.278
36653SOL     OW58797   8.231  12.855   0.273
36653SOL    HW158798   8.257  12.950   0.252
36653SOL    HW258799   8.309  12.795   0.256
36654SOL     OW58800   9.884  16.910   7.985
36654SOL    HW158801   9.833  16.980   8.035
36654SOL    HW258802   9.846  16.901   7.893
36655SOL     OW58803  14.983   3.088   8.130
36655SOL    HW158804  14.893   3.121   8.103
36655SOL    HW258805  15.050   3.162   8.119
36656SOL     OW58806   6.732  16.126   7.744
36656SOL    HW158807   6.702  16.038   7.708
36656SOL    HW258808   6.818  16.153   7.699
36657SOL     OW58809  11.083   6.882   0.486
36657SOL    HW158810  11.003   6.941   0.472
36657SOL    HW258811  11.165   6.930   0.454
36658SOL     OW58812   9.952   7.299   2.347
36658SOL    HW158813   9.981   7.373   2.409
36658SOL    HW258814   9.853   7.305   2.334
36659SOL     OW58815   3.620  12.104   2.045
36659SOL    HW158816   3.672  12.189   2.046
36659SOL    HW258817   3.621  12.066   1.952
36660SOL     OW58818   0.349   0.040   1.994
36660SOL    HW158819   0.264   0.068   1.949
36660SOL    HW258820   0.335   0.038   2.093
36661SOL     OW58821   1.656  16.405   6.546
36661SOL    HW158822   1.672  16.499   6.518
36661SOL    HW258823   1.723  16.345   6.501
36662SOL     OW58824  10.494   6.837   0.791
36662SOL    HW158825  10.469   6.910   0.728
36662SOL    HW258826  10.496   6.872   0.884
36663SOL     OW58827   3.492  11.836   8.307
36663SOL    HW158828   3.403  11.878   8.326
36663SOL    HW258829   3.487  11.784   8.222
36664SOL     OW58830  10.643   3.856   0.089
36664SOL    HW158831  10.726   3.836   0.036
36664SOL    HW258832  10.622   3.953   0.082
36665SOL     OW58833   8.586  11.143   0.971
36665SOL    HW158834   8.635  11.062   0.938
36665SOL    HW258835   8.487  11.126   0.968
36666SOL     OW58836   1.079  14.041   7.272
36666SOL    HW158837   0.987  14.003   7.261
36666SOL    HW258838   1.077  14.109   7.345
36667SOL     OW58839  13.535  14.218   7.347
36667SOL    HW158840  13.525  14.301   7.402
36667SOL    HW258841  13.583  14.240   7.262
36668SOL     OW58842   3.892   6.106   1.254
36668SOL    HW158843   3.869   6.119   1.350
36668SOL    HW258844   3.938   6.187   1.219
36669SOL     OW58845   5.583   7.421   0.995
36669SOL    HW158846   5.674   7.437   0.958
36669SOL    HW258847   5.543   7.340   0.953
36670SOL     OW58848  14.620   6.668   1.653
36670SOL    HW158849  14.630   6.767   1.651
36670SOL    HW258850  14.638   6.634   1.745
36671SOL     OW58851   6.734  12.793   8.188
36671SOL    HW158852   6.696  12.815   8.098
36671SOL    HW258853   6.829  12.765   8.178
36672SOL     OW58854  12.153  16.090   0.719
36672SOL    HW158855  12.250  16.068   0.722
36672SOL    HW258856  12.100  16.006   0.708
36673SOL     OW58857   0.802  14.241   1.033
36673SOL    HW158858   0.885  14.210   0.987
36673SOL    HW258859   0.737  14.273   0.964
36674SOL     OW58860   5.978  16.770   0.857
36674SOL    HW158861   6.077  16.783   0.871
36674SOL    HW258862   5.957  16.779   0.760
36675SOL     OW58863  16.485  10.825   0.571
36675SOL    HW158864  16.467  10.920   0.545
36675SOL    HW258865  16.433  10.801   0.652
36676SOL     OW58866   9.595   8.927   1.795
36676SOL    HW158867   9.588   8.913   1.696
36676SOL    HW258868   9.639   9.015   1.812
36677SOL     OW58869  12.220   2.228   6.088
36677SOL    HW158870  12.140   2.177   6.120
36677SOL    HW258871  12.199   2.326   6.086
36678SOL     OW58872  15.833  15.516   6.942
36678SOL    HW158873  15.909  15.520   7.007
36678SOL    HW258874  15.782  15.431   6.954
36679SOL     OW58875   8.472   8.942   7.295
36679SOL    HW158876   8.565   8.965   7.268
36679SOL    HW258877   8.410   9.016   7.266
36680SOL     OW58878   3.054  16.535   7.464
36680SOL    HW158879   3.067  16.529   7.365
36680SOL    HW258880   3.077  16.627   7.495
36681SOL     OW58881  15.099  12.545   8.046
36681SOL    HW158882  15.125  12.461   7.998
36681SOL    HW258883  15.180  12.588   8.085
36682SOL     OW58884   6.610   1.663   6.980
36682SOL    HW158885   6.528   1.719   6.992
36682SOL    HW258886   6.614   1.594   7.052
36683SOL     OW58887   1.588  13.705   7.825
36683SOL    HW158888   1.594  13.724   7.727
36683SOL    HW258889   1.495  13.723   7.857
36684SOL     OW58890   8.645  11.131   8.318
36684SOL    HW158891   8.730  11.079   8.307
36684SOL    HW258892   8.656  11.222   8.277
36685SOL     OW58893  11.617  11.066   0.941
36685SOL    HW158894  11.580  11.001   0.875
36685SOL    HW258895  11.543  11.120   0.981
36686SOL     OW58896   8.657   7.689   0.303
36686SOL    HW158897   8.638   7.606   0.355
36686SOL    HW258898   8.610   7.767   0.345
36687SOL     OW58899  14.980   1.017   1.695
36687SOL    HW158900  14.991   0.980   1.787
36687SOL    HW258901  14.885   1.043   1.681
36688SOL     OW58902   9.750   4.435   6.316
36688SOL    HW158903   9.746   4.354   6.258
36688SOL    HW258904   9.693   4.421   6.397
36689SOL     OW58905   1.466  11.131   0.623
36689SOL    HW158906   1.534  11.061   0.602
36689SOL    HW258907   1.501  11.191   0.695
36690SOL     OW58908  15.513   2.341   1.329
36690SOL    HW158909  15.468   2.421   1.371
36690SOL    HW258910  15.488   2.259   1.380
36691SOL     OW58911  12.169  14.665   0.285
36691SOL    HW158912  12.077  14.648   0.248
36691SOL    HW258913  12.199  14.757   0.257
36692SOL     OW58914   3.424  11.623   0.518
36692SOL    HW158915   3.371  11.601   0.599
36692SOL    HW258916   3.434  11.722   0.510
36693SOL     OW58917  14.218   3.891   2.146
36693SOL    HW158918  14.152   3.964   2.164
36693SOL    HW258919  14.298   3.902   2.205
36694SOL     OW58920  11.668   2.729   7.631
36694SOL    HW158921  11.710   2.819   7.617
36694SOL    HW258922  11.617   2.703   7.549
36695SOL     OW58923   3.091  15.857   6.366
36695SOL    HW158924   3.134  15.915   6.297
36695SOL    HW258925   3.056  15.773   6.323
36696SOL     OW58926   9.216  12.281   7.090
36696SOL    HW158927   9.257  12.190   7.096
36696SOL    HW258928   9.262  12.335   7.020
36697SOL     OW58929   1.923   3.467   7.600
36697SOL    HW158930   1.871   3.441   7.518
36697SOL    HW258931   1.861   3.510   7.666
36698SOL     OW58932   4.932   4.273   6.442
36698SOL    HW158933   4.942   4.369   6.465
36698SOL    HW258934   4.943   4.260   6.343
36699SOL     OW58935  11.514  10.999   7.113
36699SOL    HW158936  11.572  10.917   7.107
36699SOL    HW258937  11.436  10.988   7.051
36700SOL     OW58938   7.570  11.369   0.802
36700SOL    HW158939   7.550  11.390   0.897
36700SOL    HW258940   7.631  11.290   0.798
36701SOL     OW58941   6.663   0.120   6.752
36701SOL    HW158942   6.681   0.205   6.802
36701SOL    HW258943   6.744   0.096   6.698
36702SOL     OW58944   8.266  13.370   6.244
36702SOL    HW158945   8.213  13.323   6.173
36702SOL    HW258946   8.358  13.387   6.209
36703SOL     OW58947   8.137  11.749   7.615
36703SOL    HW158948   8.155  11.835   7.662
36703SOL    HW258949   8.217  11.722   7.562
36704SOL     OW58950   0.250  16.475   1.309
36704SOL    HW158951   0.300  16.461   1.395
36704SOL    HW258952   0.222  16.387   1.272
36705SOL     OW58953  13.237   6.944   0.961
36705SOL    HW158954  13.182   7.022   0.990
36705SOL    HW258955  13.288   6.908   1.039
36706SOL     OW58956  12.727   7.654   6.419
36706SOL    HW158957  12.823   7.633   6.402
36706SOL    HW258958  12.717   7.753   6.431
36707SOL     OW58959  11.525  16.724   6.314
36707SOL    HW158960  11.524  16.791   6.240
36707SOL    HW258961  11.488  16.637   6.281
36708SOL     OW58962   3.116  11.156   6.733
36708SOL    HW158963   3.157  11.077   6.687
36708SOL    HW258964   3.017  11.152   6.723
36709SOL     OW58965  10.280   0.732   0.139
36709SOL    HW158966  10.259   0.772   0.229
36709SOL    HW258967  10.196   0.714   0.090
36710SOL     OW58968  11.468   1.918   1.000
36710SOL    HW158969  11.537   1.852   0.971
36710SOL    HW258970  11.505   2.011   0.994
36711SOL     OW58971   0.575   9.122   0.807
36711SOL    HW158972   0.643   9.052   0.787
36711SOL    HW258973   0.619   9.199   0.853
36712SOL     OW58974   5.244   3.460   8.419
36712SOL    HW158975   5.322   3.418   0.012
36712SOL    HW258976   5.179   3.494   0.032
36713SOL     OW58977   7.156  13.614   0.606
36713SOL    HW158978   7.237  13.568   0.642
36713SOL    HW258979   7.086  13.619   0.676
36714SOL     OW58980  12.961   4.621   6.780
36714SOL    HW158981  12.898   4.547   6.754
36714SOL    HW258982  13.015   4.592   6.859
36715SOL     OW58983  12.937  11.466   2.026
36715SOL    HW158984  12.897  11.378   2.050
36715SOL    HW258985  12.979  11.508   2.106
36716SOL     OW58986   5.787   0.242   2.645
36716SOL    HW158987   5.868   0.283   2.687
36716SOL    HW258988   5.756   0.300   2.569
36717SOL     OW58989  14.816  16.974   7.495
36717SOL    HW158990  14.752   0.064   7.520
36717SOL    HW258991  14.905   0.031   7.476
36718SOL     OW58992  11.949   2.623   7.406
36718SOL    HW158993  12.012   2.681   7.458
36718SOL    HW258994  11.950   2.650   7.310
36719SOL     OW58995   6.093   4.479   0.778
36719SOL    HW158996   6.187   4.493   0.811
36719SOL    HW258997   6.081   4.383   0.752
36720SOL     OW58998   6.762   4.761   1.473
36720SOL    HW158999   6.802   4.848   1.444
36720SOL    HW259000   6.817   4.686   1.438
36721SOL     OW59001  12.212  14.460   0.787
36721SOL    HW159002  12.179  14.535   0.845
36721SOL    HW259003  12.180  14.474   0.693
36722SOL     OW59004   5.986   4.600   7.154
36722SOL    HW159005   5.926   4.629   7.079
36722SOL    HW259006   6.041   4.678   7.184
36723SOL     OW59007  10.970  16.021   1.408
36723SOL    HW159008  10.939  16.096   1.349
36723SOL    HW259009  10.942  16.039   1.502
36724SOL     OW59010   7.192   7.237   1.662
36724SOL    HW159011   7.122   7.165   1.665
36724SOL    HW259012   7.199   7.273   1.569
36725SOL     OW59013   2.499  14.178   6.903
36725SOL    HW159014   2.404  14.161   6.877
36725SOL    HW259015   2.559  14.120   6.849
36726SOL     OW59016   9.850   4.748   0.340
36726SOL    HW159017   9.786   4.768   0.266
36726SOL    HW259018   9.867   4.650   0.343
36727SOL     OW59019   9.894  16.165   8.077
36727SOL    HW159020   9.951  16.205   8.149
36727SOL    HW259021   9.816  16.225   8.059
36728SOL     OW59022  12.180  10.068   1.597
36728SOL    HW159023  12.137  10.154   1.625
36728SOL    HW259024  12.193  10.068   1.498
36729SOL     OW59025   8.576  14.699   1.077
36729SOL    HW159026   8.495  14.669   1.127
36729SOL    HW259027   8.564  14.793   1.045
36730SOL     OW59028  11.047   1.424   8.025
36730SOL    HW159029  11.027   1.413   8.123
36730SOL    HW259030  10.966   1.456   7.978
36731SOL     OW59031  12.705  11.293   8.218
36731SOL    HW159032  12.795  11.288   8.260
36731SOL    HW259033  12.689  11.210   8.163
36732SOL     OW59034   3.165  11.444   8.398
36732SOL    HW159035   3.201  11.435   0.036
36732SOL    HW259036   3.207  11.376   8.338
36733SOL     OW59037  14.101   4.849   1.163
36733SOL    HW159038  14.056   4.772   1.208
36733SOL    HW259039  14.088   4.932   1.218
36734SOL     OW59040  10.813  11.205   2.374
36734SOL    HW159041  10.900  11.225   2.418
36734SOL    HW259042  10.783  11.113   2.401
36735SOL     OW59043   0.419   6.877   6.677
36735SOL    HW159044   0.347   6.893   6.745
36735SOL    HW259045   0.456   6.964   6.646
36736SOL     OW59046   5.297   8.618   8.168
36736SOL    HW159047   5.203   8.600   8.199
36736SOL    HW259048   5.299   8.703   8.116
36737SOL     OW59049   3.940   4.785   6.451
36737SOL    HW159050   3.984   4.856   6.396
36737SOL    HW259051   3.949   4.697   6.404
36738SOL     OW59052   0.544   8.454   0.297
36738SOL    HW159053   0.525   8.363   0.260
36738SOL    HW259054   0.640   8.478   0.281
36739SOL     OW59055  12.551  14.660   2.033
36739SOL    HW159056  12.576  14.569   1.998
36739SOL    HW259057  12.627  14.696   2.088
36740SOL     OW59058  10.362   5.295   0.506
36740SOL    HW159059  10.447   5.250   0.478
36740SOL    HW259060  10.342   5.272   0.601
36741SOL     OW59061   0.506   8.516   1.132
36741SOL    HW159062   0.449   8.592   1.163
36741SOL    HW259063   0.462   8.472   1.053
36742SOL     OW59064   3.784  11.033   1.767
36742SOL    HW159065   3.701  10.985   1.794
36742SOL    HW259066   3.761  11.126   1.739
36743SOL     OW59067   2.417   0.066   2.317
36743SOL    HW159068   2.391   0.163   2.321
36743SOL    HW259069   2.378   0.018   2.395
36744SOL     OW59070   2.269  16.568   1.832
36744SOL    HW159071   2.364  16.599   1.834
36744SOL    HW259072   2.209  16.647   1.847
36745SOL     OW59073   4.649  14.996   8.300
36745SOL    HW159074   4.711  14.984   8.223
36745SOL    HW259075   4.611  15.088   8.299
36746SOL     OW59076   0.767  14.437   1.418
36746SOL    HW159077   0.684  14.420   1.364
36746SOL    HW259078   0.755  14.521   1.471
36747SOL     OW59079  13.585   8.090   6.843
36747SOL    HW159080  13.599   8.159   6.772
36747SOL    HW259081  13.626   8.121   6.929
36748SOL     OW59082   0.717  10.326   7.827
36748SOL    HW159083   0.792  10.336   7.762
36748SOL    HW259084   0.752  10.336   7.920
36749SOL     OW59085   4.078   0.173   0.398
36749SOL    HW159086   4.098   0.098   0.335
36749SOL    HW259087   3.980   0.195   0.394
36750SOL     OW59088   3.521   8.510   6.385
36750SOL    HW159089   3.605   8.526   6.437
36750SOL    HW259090   3.506   8.586   6.322
36751SOL     OW59091   7.914   6.729   0.790
36751SOL    HW159092   7.952   6.812   0.830
36751SOL    HW259093   7.987   6.672   0.753
36752SOL     OW59094   7.256  15.662   7.261
36752SOL    HW159095   7.319  15.711   7.321
36752SOL    HW259096   7.232  15.720   7.183
36753SOL     OW59097  16.197  11.074   6.907
36753SOL    HW159098  16.159  11.000   6.962
36753SOL    HW259099  16.124  11.115   6.852
36754SOL     OW59100   7.000   7.769   1.279
36754SOL    HW159101   6.921   7.829   1.294
36754SOL    HW259102   6.977   7.676   1.306
36755SOL     OW59103  14.067   1.191   0.432
36755SOL    HW159104  13.969   1.193   0.414
36755SOL    HW259105  14.083   1.175   0.529
36756SOL     OW59106  14.820  14.823   1.689
36756SOL    HW159107  14.866  14.911   1.680
36756SOL    HW259108  14.730  14.828   1.646
36757SOL     OW59109   3.122   2.611   7.498
36757SOL    HW159110   3.104   2.707   7.481
36757SOL    HW259111   3.036   2.560   7.497
36758SOL     OW59112   7.343  14.361   1.101
36758SOL    HW159113   7.408  14.354   1.177
36758SOL    HW259114   7.362  14.445   1.049
36759SOL     OW59115   5.877  16.815   0.588
36759SOL    HW159116   5.884  16.789   0.492
36759SOL    HW259117   5.888  16.914   0.597
36760SOL     OW59118   5.536  11.764   6.844
36760SOL    HW159119   5.465  11.824   6.882
36760SOL    HW259120   5.565  11.799   6.755
36761SOL     OW59121  11.411  10.207   0.736
36761SOL    HW159122  11.427  10.306   0.733
36761SOL    HW259123  11.328  10.186   0.685
36762SOL     OW59124  12.283  14.067   8.033
36762SOL    HW159125  12.368  14.099   7.993
36762SOL    HW259126  12.206  14.121   7.997
36763SOL     OW59127   1.452   8.157   7.464
36763SOL    HW159128   1.400   8.243   7.467
36763SOL    HW259129   1.536   8.171   7.412
36764SOL     OW59130   5.309   8.893   1.435
36764SOL    HW159131   5.375   8.888   1.510
36764SOL    HW259132   5.357   8.910   1.350
36765SOL     OW59133   1.923  15.653   8.227
36765SOL    HW159134   1.872  15.682   8.307
36765SOL    HW259135   1.961  15.561   8.243
36766SOL     OW59136  13.734   9.068   6.617
36766SOL    HW159137  13.702   9.135   6.550
36766SOL    HW259138  13.814   9.019   6.581
36767SOL     OW59139  14.718  14.571   6.963
36767SOL    HW159140  14.743  14.475   6.978
36767SOL    HW259141  14.625  14.576   6.927
36768SOL     OW59142   5.461   4.198   0.471
36768SOL    HW159143   5.456   4.290   0.433
36768SOL    HW259144   5.538   4.148   0.430
36769SOL     OW59145   2.151   8.546   2.244
36769SOL    HW159146   2.112   8.625   2.291
36769SOL    HW259147   2.197   8.487   2.311
36770SOL     OW59148   6.098   1.878   1.818
36770SOL    HW159149   6.113   1.779   1.817
36770SOL    HW259150   6.091   1.910   1.913
36771SOL     OW59151   8.249   6.559   7.185
36771SOL    HW159152   8.152   6.583   7.191
36771SOL    HW259153   8.279   6.520   7.272
36772SOL     OW59154   4.396  11.056   0.600
36772SOL    HW159155   4.448  11.038   0.516
36772SOL    HW259156   4.320  10.992   0.607
36773SOL     OW59157   4.679   2.252   2.703
36773SOL    HW159158   4.729   2.318   2.758
36773SOL    HW259159   4.582   2.274   2.703
36774SOL     OW59160  14.697   3.884   7.880
36774SOL    HW159161  14.732   3.802   7.925
36774SOL    HW259162  14.746   3.899   7.794
36775SOL     OW59163   4.823   4.277   1.597
36775SOL    HW159164   4.795   4.353   1.538
36775SOL    HW259165   4.741   4.233   1.635
36776SOL     OW59166   6.758  13.660   7.271
36776SOL    HW159167   6.858  13.658   7.268
36776SOL    HW259168   6.725  13.741   7.221
36777SOL     OW59169  14.636   4.347   7.454
36777SOL    HW159170  14.735   4.336   7.458
36777SOL    HW259171  14.600   4.368   7.544
36778SOL     OW59172   8.826  15.304   0.195
36778SOL    HW159173   8.885  15.355   0.133
36778SOL    HW259174   8.828  15.207   0.172
36779SOL     OW59175   1.937   8.613   7.525
36779SOL    HW159176   1.960   8.663   7.609
36779SOL    HW259177   1.899   8.677   7.458
36780SOL     OW59178   8.168  12.167   8.223
36780SOL    HW159179   8.071  12.144   8.227
36780SOL    HW259180   8.222  12.084   8.209
36781SOL     OW59181   8.394   5.874   1.335
36781SOL    HW159182   8.460   5.801   1.319
36781SOL    HW259183   8.438   5.963   1.316
36782SOL     OW59184  16.879   4.637   0.694
36782SOL    HW159185  16.871   4.731   0.662
36782SOL    HW259186  16.965   4.598   0.662
36783SOL     OW59187   8.898   3.674   6.986
36783SOL    HW159188   8.973   3.701   7.045
36783SOL    HW259189   8.822   3.738   6.998
36784SOL     OW59190  10.812  15.403   0.717
36784SOL    HW159191  10.884  15.455   0.762
36784SOL    HW259192  10.726  15.454   0.722
36785SOL     OW59193  12.004   1.440   7.217
36785SOL    HW159194  12.054   1.499   7.154
36785SOL    HW259195  12.062   1.419   7.296
36786SOL     OW59196  12.600   2.520   6.342
36786SOL    HW159197  12.691   2.522   6.300
36786SOL    HW259198  12.530   2.519   6.270
36787SOL     OW59199   7.243  13.525   2.123
36787SOL    HW159200   7.316  13.562   2.180
36787SOL    HW259201   7.157  13.524   2.175
36788SOL     OW59202   7.156  16.016   6.289
36788SOL    HW159203   7.233  15.994   6.229
36788SOL    HW259204   7.107  15.931   6.313
36789SOL     OW59205   2.170  14.179   2.265
36789SOL    HW159206   2.201  14.093   2.223
36789SOL    HW259207   2.176  14.171   2.364
36790SOL     OW59208   5.024   5.925   2.508
36790SOL    HW159209   4.937   5.973   2.496
36790SOL    HW259210   5.022   5.840   2.454
36791SOL     OW59211  15.441  15.067   7.836
36791SOL    HW159212  15.495  15.141   7.796
36791SOL    HW259213  15.462  14.981   7.789
36792SOL     OW59214   3.035   3.470   0.025
36792SOL    HW159215   3.010   3.373   0.031
36792SOL    HW259216   2.974   3.524   0.083
36793SOL     OW59217   3.098  10.512   7.167
36793SOL    HW159218   3.186  10.541   7.130
36793SOL    HW259219   3.050  10.455   7.100
36794SOL     OW59220   7.004  11.345   7.520
36794SOL    HW159221   7.037  11.436   7.495
36794SOL    HW259222   7.040  11.319   7.610
36795SOL     OW59223  11.076  10.748   6.830
36795SOL    HW159224  11.071  10.844   6.855
36795SOL    HW259225  11.004  10.697   6.877
36796SOL     OW59226   3.676   2.141   1.071
36796SOL    HW159227   3.693   2.122   0.975
36796SOL    HW259228   3.762   2.154   1.119
36797SOL     OW59229  16.487   5.242   0.873
36797SOL    HW159230  16.453   5.206   0.787
36797SOL    HW259231  16.579   5.205   0.891
36798SOL     OW59232  15.302   3.615   8.023
36798SOL    HW159233  15.204   3.603   8.043
36798SOL    HW259234  15.350   3.530   8.042
36799SOL     OW59235  12.329   4.680   6.318
36799SOL    HW159236  12.290   4.701   6.228
36799SOL    HW259237  12.289   4.595   6.353
36800SOL     OW59238  13.671   4.440   1.523
36800SOL    HW159239  13.762   4.481   1.520
36800SOL    HW259240  13.642   4.429   1.618
36801SOL     OW59241   5.354  11.906   0.411
36801SOL    HW159242   5.443  11.949   0.424
36801SOL    HW259243   5.349  11.863   0.321
36802SOL     OW59244   7.878  14.667   0.957
36802SOL    HW159245   7.824  14.585   0.936
36802SOL    HW259246   7.941  14.647   1.031
36803SOL     OW59247  10.820   9.970   7.161
36803SOL    HW159248  10.891   9.973   7.231
36803SOL    HW259249  10.730   9.972   7.204
36804SOL     OW59250   3.906  14.359   7.160
36804SOL    HW159251   3.907  14.265   7.129
36804SOL    HW259252   3.938  14.364   7.255
36805SOL     OW59253   7.207   9.076   7.362
36805SOL    HW159254   7.207   9.132   7.280
36805SOL    HW259255   7.255   9.124   7.436
36806SOL     OW59256   9.017  10.855   2.007
36806SOL    HW159257   9.114  10.853   2.031
36806SOL    HW259258   8.994  10.771   1.956
36807SOL     OW59259  14.141   2.121   7.705
36807SOL    HW159260  14.203   2.199   7.719
36807SOL    HW259261  14.107   2.123   7.612
36808SOL     OW59262  15.897   4.375   7.103
36808SOL    HW159263  15.875   4.330   7.017
36808SOL    HW259264  15.995   4.365   7.123
36809SOL     OW59265  16.047   9.701   0.132
36809SOL    HW159266  16.109   9.771   0.097
36809SOL    HW259267  16.035   9.629   0.064
36810SOL     OW59268  10.472   6.608   7.581
36810SOL    HW159269  10.566   6.602   7.547
36810SOL    HW259270  10.424   6.681   7.533
36811SOL     OW59271   6.723  13.866   7.090
36811SOL    HW159272   6.774  13.934   7.144
36811SOL    HW259273   6.778  13.838   7.011
36812SOL     OW59274  10.662   4.387   0.763
36812SOL    HW159275  10.589   4.443   0.803
36812SOL    HW259276  10.637   4.362   0.670
36813SOL     OW59277  15.237   1.198   6.687
36813SOL    HW159278  15.304   1.139   6.734
36813SOL    HW259279  15.231   1.285   6.735
36814SOL     OW59280  10.784   0.383   0.694
36814SOL    HW159281  10.689   0.388   0.722
36814SOL    HW259282  10.827   0.302   0.734
36815SOL     OW59283   8.300   4.274   0.759
36815SOL    HW159284   8.257   4.291   0.670
36815SOL    HW259285   8.396   4.300   0.755
36816SOL     OW59286   7.007   8.638   1.281
36816SOL    HW159287   7.065   8.592   1.348
36816SOL    HW259288   7.057   8.648   1.195
36817SOL     OW59289   8.691  15.248   0.430
36817SOL    HW159290   8.678  15.149   0.442
36817SOL    HW259291   8.741  15.265   0.345
36818SOL     OW59292  14.637   8.658   1.514
36818SOL    HW159293  14.608   8.740   1.465
36818SOL    HW259294  14.734   8.666   1.538
36819SOL     OW59295   9.859   6.821   1.399
36819SOL    HW159296   9.839   6.725   1.420
36819SOL    HW259297   9.955   6.840   1.421
36820SOL     OW59298  16.109   9.031   7.797
36820SOL    HW159299  16.057   9.085   7.731
36820SOL    HW259300  16.091   8.934   7.781
36821SOL     OW59301   5.052  16.400   7.964
36821SOL    HW159302   4.983  16.409   8.037
36821SOL    HW259303   5.140  16.375   8.004
36822SOL     OW59304  11.153  15.169   7.046
36822SOL    HW159305  11.063  15.125   7.053
36822SOL    HW259306  11.149  15.259   7.090
36823SOL     OW59307  11.410   3.133   6.907
36823SOL    HW159308  11.481   3.099   6.968
36823SOL    HW259309  11.336   3.175   6.961
36824SOL     OW59310   2.321  14.846   7.089
36824SOL    HW159311   2.395  14.797   7.043
36824SOL    HW259312   2.328  14.832   7.188
36825SOL     OW59313   5.625   6.089   0.108
36825SOL    HW159314   5.570   6.042   0.176
36825SOL    HW259315   5.611   6.046   0.018
36826SOL     OW59316  10.141   8.353   7.151
36826SOL    HW159317  10.109   8.411   7.076
36826SOL    HW259318  10.172   8.265   7.114
36827SOL     OW59319  11.286   1.491   7.756
36827SOL    HW159320  11.257   1.399   7.782
36827SOL    HW259321  11.260   1.556   7.828
36828SOL     OW59322  11.621   5.914   7.440
36828SOL    HW159323  11.636   5.971   7.521
36828SOL    HW259324  11.523   5.913   7.419
36829SOL     OW59325   4.666   7.499   1.171
36829SOL    HW159326   4.633   7.415   1.213
36829SOL    HW259327   4.756   7.522   1.208
36830SOL     OW59328  12.001   1.579   6.378
36830SOL    HW159329  11.913   1.552   6.417
36830SOL    HW259330  12.069   1.586   6.451
36831SOL     OW59331  15.689  10.300   2.588
36831SOL    HW159332  15.762  10.232   2.594
36831SOL    HW259333  15.608  10.265   2.636
36832SOL     OW59334   3.439  16.878   1.400
36832SOL    HW159335   3.358  16.936   1.413
36832SOL    HW259336   3.521  16.934   1.408
36833SOL     OW59337   8.756   1.995   7.081
36833SOL    HW159338   8.810   2.054   7.021
36833SOL    HW259339   8.803   1.984   7.168
36834SOL     OW59340  10.005   5.218   8.130
36834SOL    HW159341  10.054   5.146   8.179
36834SOL    HW259342   9.916   5.233   8.173
36835SOL     OW59343  11.372   6.287   1.014
36835SOL    HW159344  11.380   6.345   0.934
36835SOL    HW259345  11.415   6.198   0.996
36836SOL     OW59346  10.009  16.827   7.617
36836SOL    HW159347   9.989  16.757   7.550
36836SOL    HW259348   9.929  16.841   7.676
36837SOL     OW59349  16.068   2.446   6.495
36837SOL    HW159350  16.148   2.492   6.456
36837SOL    HW259351  16.039   2.493   6.578
36838SOL     OW59352   8.175  10.691   0.043
36838SOL    HW159353   8.272  10.665   0.033
36838SOL    HW259354   8.118  10.611   0.025
36839SOL     OW59355   1.722   5.302   7.240
36839SOL    HW159356   1.701   5.231   7.172
36839SOL    HW259357   1.805   5.350   7.213
36840SOL     OW59358   5.765   0.979   7.644
36840SOL    HW159359   5.823   0.963   7.724
36840SOL    HW259360   5.705   0.901   7.629
36841SOL     OW59361  13.480   6.230   1.981
36841SOL    HW159362  13.465   6.132   1.980
36841SOL    HW259363  13.562   6.252   1.928
36842SOL     OW59364   4.066   7.704   0.418
36842SOL    HW159365   3.991   7.648   0.384
36842SOL    HW259366   4.109   7.754   0.341
36843SOL     OW59367   8.768   0.440   7.215
36843SOL    HW159368   8.675   0.451   7.250
36843SOL    HW259369   8.782   0.344   7.188
36844SOL     OW59370   3.081   0.115   8.309
36844SOL    HW159371   3.127   0.084   8.225
36844SOL    HW259372   2.997   0.061   8.322
36845SOL     OW59373  11.629   0.372   8.090
36845SOL    HW159374  11.712   0.388   8.036
36845SOL    HW259375  11.651   0.372   8.187
36846SOL     OW59376  14.478   0.530   6.109
36846SOL    HW159377  14.402   0.501   6.050
36846SOL    HW259378  14.509   0.621   6.080
36847SOL     OW59379   5.573  11.016   6.789
36847SOL    HW159380   5.619  10.931   6.817
36847SOL    HW259381   5.499  11.037   6.852
36848SOL     OW59382   5.467   4.249   1.071
36848SOL    HW159383   5.428   4.339   1.054
36848SOL    HW259384   5.394   4.186   1.098
36849SOL     OW59385  15.020   3.553   5.892
36849SOL    HW159386  14.931   3.560   5.847
36849SOL    HW259387  15.091   3.587   5.831
36850SOL     OW59388  14.186   0.959   8.012
36850SOL    HW159389  14.144   0.889   7.955
36850SOL    HW259390  14.185   0.929   8.108
36851SOL     OW59391  10.101  13.033   0.909
36851SOL    HW159392  10.172  13.006   0.843
36851SOL    HW259393  10.140  13.038   1.000
36852SOL     OW59394  12.300  14.402   2.450
36852SOL    HW159395  12.268  14.318   2.494
36852SOL    HW259396  12.247  14.480   2.484
36853SOL     OW59397   1.706   1.832   7.641
36853SOL    HW159398   1.715   1.737   7.612
36853SOL    HW259399   1.785   1.885   7.610
36854SOL     OW59400  15.257   9.250   7.863
36854SOL    HW159401  15.286   9.294   7.947
36854SOL    HW259402  15.295   9.157   7.859
36855SOL     OW59403  16.260   4.493   8.385
36855SOL    HW159404  16.181   4.445   8.424
36855SOL    HW259405  16.344   4.459   8.429
36856SOL     OW59406   4.550   7.662   7.983
36856SOL    HW159407   4.650   7.662   7.972
36856SOL    HW259408   4.508   7.625   7.901
36857SOL     OW59409   9.607   9.664   6.671
36857SOL    HW159410   9.582   9.693   6.578
36857SOL    HW259411   9.582   9.568   6.684
36858SOL     OW59412   8.953  11.943   1.220
36858SOL    HW159413   8.980  11.855   1.261
36858SOL    HW259414   8.857  11.961   1.240
36859SOL     OW59415  15.720  13.091   0.595
36859SOL    HW159416  15.637  13.124   0.551
36859SOL    HW259417  15.765  13.024   0.536
36860SOL     OW59418  12.652  14.707   6.837
36860SOL    HW159419  12.617  14.617   6.813
36860SOL    HW259420  12.698  14.747   6.758
36861SOL     OW59421  14.797  11.318   1.785
36861SOL    HW159422  14.765  11.234   1.741
36861SOL    HW259423  14.892  11.335   1.759
36862SOL     OW59424  15.903  14.731   1.533
36862SOL    HW159425  15.820  14.717   1.588
36862SOL    HW259426  15.899  14.673   1.452
36863SOL     OW59427   9.390  13.798   8.150
36863SOL    HW159428   9.459  13.731   8.174
36863SOL    HW259429   9.320  13.755   8.093
36864SOL     OW59430  14.686   2.770   0.035
36864SOL    HW159431  14.761   2.735   8.433
36864SOL    HW259432  14.685   2.870   0.030
36865SOL     OW59433   2.655  13.754   0.513
36865SOL    HW159434   2.699  13.727   0.599
36865SOL    HW259435   2.721  13.802   0.455
36866SOL     OW59436   3.859  14.383   0.917
36866SOL    HW159437   3.889  14.314   0.852
36866SOL    HW259438   3.819  14.460   0.867
36867SOL     OW59439   8.768  10.541   7.271
36867SOL    HW159440   8.723  10.610   7.215
36867SOL    HW259441   8.749  10.450   7.233
36868SOL     OW59442   6.133  16.839   1.704
36868SOL    HW159443   6.178  16.876   1.623
36868SOL    HW259444   6.201  16.825   1.777
36869SOL     OW59445   9.216   7.568   0.802
36869SOL    HW159446   9.256   7.623   0.875
36869SOL    HW259447   9.289   7.530   0.745
36870SOL     OW59448  15.410  10.435   7.743
36870SOL    HW159449  15.453  10.432   7.653
36870SOL    HW259450  15.317  10.399   7.736
36871SOL     OW59451  10.620  10.028   0.675
36871SOL    HW159452  10.643  10.114   0.721
36871SOL    HW259453  10.684  10.012   0.600
36872SOL     OW59454   7.718  15.797   0.344
36872SOL    HW159455   7.638  15.830   0.294
36872SOL    HW259456   7.695  15.712   0.393
36873SOL     OW59457   0.146   2.821   1.553
36873SOL    HW159458   0.135   2.810   1.652
36873SOL    HW259459   0.107   2.742   1.506
36874SOL     OW59460  11.191   0.226   7.314
36874SOL    HW159461  11.273   0.205   7.261
36874SOL    HW259462  11.206   0.202   7.410
36875SOL     OW59463   6.222   6.480   1.767
36875SOL    HW159464   6.225   6.389   1.807
36875SOL    HW259465   6.308   6.499   1.721
36876SOL     OW59466  12.649   7.517   8.081
36876SOL    HW159467  12.587   7.552   8.151
36876SOL    HW259468  12.599   7.457   8.019
36877SOL     OW59469   0.617   5.403   8.045
36877SOL    HW159470   0.637   5.365   8.135
36877SOL    HW259471   0.545   5.471   8.054
36878SOL     OW59472   9.301   2.463   8.381
36878SOL    HW159473   9.265   2.472   8.288
36878SOL    HW259474   9.226   2.471   8.447
36879SOL     OW59475  15.425  16.395   8.318
36879SOL    HW159476  15.404  16.403   8.221
36879SOL    HW259477  15.504  16.452   8.340
36880SOL     OW59478   0.481  16.371   7.349
36880SOL    HW159479   0.498  16.407   7.257
36880SOL    HW259480   0.567  16.365   7.399
36881SOL     OW59481   0.353   2.494   0.677
36881SOL    HW159482   0.381   2.483   0.773
36881SOL    HW259483   0.389   2.581   0.642
36882SOL     OW59484   1.961   3.349   6.133
36882SOL    HW159485   2.027   3.314   6.200
36882SOL    HW259486   2.006   3.359   6.044
36883SOL     OW59487   4.556  12.323   1.531
36883SOL    HW159488   4.525  12.229   1.544
36883SOL    HW259489   4.481  12.386   1.554
36884SOL     OW59490   7.348   3.315   7.394
36884SOL    HW159491   7.300   3.346   7.312
36884SOL    HW259492   7.441   3.351   7.394
36885SOL     OW59493   0.671   1.771   6.777
36885SOL    HW159494   0.737   1.699   6.758
36885SOL    HW259495   0.646   1.769   6.873
36886SOL     OW59496   5.640   5.447   1.126
36886SOL    HW159497   5.613   5.391   1.048
36886SOL    HW259498   5.684   5.531   1.093
36887SOL     OW59499  11.260  12.535   2.011
36887SOL    HW159500  11.229  12.600   2.081
36887SOL    HW259501  11.218  12.446   2.026
36888SOL     OW59502  15.889   9.670   0.902
36888SOL    HW159503  15.861   9.582   0.938
36888SOL    HW259504  15.965   9.657   0.838
36889SOL     OW59505  12.160  12.777   1.636
36889SOL    HW159506  12.128  12.691   1.675
36889SOL    HW259507  12.226  12.820   1.697
36890SOL     OW59508   0.861   5.834   8.087
36890SOL    HW159509   0.762   5.820   8.083
36890SOL    HW259510   0.907   5.768   8.028
36891SOL     OW59511   4.774  12.889   1.976
36891SOL    HW159512   4.833  12.810   1.993
36891SOL    HW259513   4.734  12.919   2.063
36892SOL     OW59514   3.699  13.784   7.584
36892SOL    HW159515   3.680  13.703   7.529
36892SOL    HW259516   3.774  13.836   7.543
36893SOL     OW59517   8.869  10.172   0.588
36893SOL    HW159518   8.913  10.257   0.617
36893SOL    HW259519   8.798  10.193   0.521
36894SOL     OW59520   1.062   5.345   0.427
36894SOL    HW159521   1.086   5.347   0.330
36894SOL    HW259522   1.043   5.251   0.455
36895SOL     OW59523   4.337   7.797   7.659
36895SOL    HW159524   4.410   7.860   7.632
36895SOL    HW259525   4.276   7.842   7.724
36896SOL     OW59526   4.302   5.128   8.162
36896SOL    HW159527   4.278   5.224   8.176
36896SOL    HW259528   4.298   5.080   8.250
36897SOL     OW59529  10.123   7.737   0.037
36897SOL    HW159530  10.087   7.807   0.100
36897SOL    HW259531  10.111   7.769   8.397
36898SOL     OW59532  16.449  16.560   7.043
36898SOL    HW159533  16.533  16.612   7.052
36898SOL    HW259534  16.377  16.603   7.097
36899SOL     OW59535   5.141   5.686   1.105
36899SOL    HW159536   5.174   5.653   1.193
36899SOL    HW259537   5.165   5.783   1.095
36900SOL     OW59538   1.022  12.163   1.526
36900SOL    HW159539   1.051  12.231   1.458
36900SOL    HW259540   0.948  12.108   1.488
36901SOL     OW59541  11.095   2.134   1.162
36901SOL    HW159542  11.063   2.141   1.068
36901SOL    HW259543  11.062   2.212   1.215
36902SOL     OW59544   1.351  14.522   1.668
36902SOL    HW159545   1.304  14.569   1.594
36902SOL    HW259546   1.450  14.540   1.662
36903SOL     OW59547  14.795   2.058   0.651
36903SOL    HW159548  14.784   2.077   0.554
36903SOL    HW259549  14.849   2.131   0.694
36904SOL     OW59550   7.617   4.551   1.860
36904SOL    HW159551   7.534   4.606   1.861
36904SOL    HW259552   7.594   4.454   1.863
36905SOL     OW59553   4.957   4.587   8.184
36905SOL    HW159554   4.899   4.552   8.258
36905SOL    HW259555   4.914   4.567   8.096
36906SOL     OW59556  13.456  10.439   7.705
36906SOL    HW159557  13.472  10.498   7.784
36906SOL    HW259558  13.456  10.344   7.734
36907SOL     OW59559   1.293  10.091   1.224
36907SOL    HW159560   1.379  10.064   1.267
36907SOL    HW259561   1.247  10.011   1.187
36908SOL     OW59562  11.446   4.984   7.955
36908SOL    HW159563  11.486   5.064   7.911
36908SOL    HW259564  11.437   4.910   7.888
36909SOL     OW59565  16.137  10.480   1.952
36909SOL    HW159566  16.109  10.391   1.917
36909SOL    HW259567  16.065  10.547   1.933
36910SOL     OW59568   5.361   1.074   7.001
36910SOL    HW159569   5.372   1.171   6.982
36910SOL    HW259570   5.438   1.023   6.963
36911SOL     OW59571   0.144   4.057   8.438
36911SOL    HW159572   0.086   4.052   0.066
36911SOL    HW259573   0.099   4.114   8.370
36912SOL     OW59574   6.144  14.786   1.833
36912SOL    HW159575   6.231  14.781   1.882
36912SOL    HW259576   6.081  14.717   1.868
36913SOL     OW59577  16.276  16.626   8.058
36913SOL    HW159578  16.327  16.691   8.002
36913SOL    HW259579  16.182  16.620   8.026
36914SOL     OW59580  11.426   1.370   0.595
36914SOL    HW159581  11.432   1.317   0.679
36914SOL    HW259582  11.363   1.325   0.531
36915SOL     OW59583   4.693   2.581   0.106
36915SOL    HW159584   4.644   2.620   0.184
36915SOL    HW259585   4.706   2.651   0.036
36916SOL     OW59586   5.263   2.595   8.378
36916SOL    HW159587   5.336   2.644   8.425
36916SOL    HW259588   5.185   2.585   8.439
36917SOL     OW59589   3.340   0.418   1.880
36917SOL    HW159590   3.260   0.388   1.827
36917SOL    HW259591   3.386   0.339   1.920
36918SOL     OW59592   7.377  15.055   0.024
36918SOL    HW159593   7.380  14.977   0.086
36918SOL    HW259594   7.353  15.024   8.386
36919SOL     OW59595   5.204   6.728   0.601
36919SOL    HW159596   5.105   6.727   0.595
36919SOL    HW259597   5.241   6.645   0.559
36920SOL     OW59598  14.667  15.700   6.726
36920SOL    HW159599  14.694  15.666   6.636
36920SOL    HW259600  14.588  15.760   6.716
36921SOL     OW59601   7.511  13.488   8.184
36921SOL    HW159602   7.435  13.553   8.183
36921SOL    HW259603   7.528  13.459   8.278
36922SOL     OW59604   9.852   7.169   7.025
36922SOL    HW159605   9.925   7.233   7.050
36922SOL    HW259606   9.883   7.075   7.044
36923SOL     OW59607   8.902  10.308   1.180
36923SOL    HW159608   8.934  10.294   1.086
36923SOL    HW259609   8.811  10.350   1.179
36924SOL     OW59610  16.943   4.750   6.235
36924SOL    HW159611  16.922   4.815   6.161
36924SOL    HW259612  16.922   4.658   6.204
36925SOL     OW59613   6.052   8.722   7.731
36925SOL    HW159614   5.963   8.737   7.689
36925SOL    HW259615   6.082   8.628   7.715
36926SOL     OW59616   5.923   1.904   0.881
36926SOL    HW159617   5.906   1.959   0.962
36926SOL    HW259618   5.883   1.950   0.801
36927SOL     OW59619   1.427   0.064   7.646
36927SOL    HW159620   1.329   0.046   7.641
36927SOL    HW259621   1.461   0.042   7.737
36928SOL     OW59622   8.459  10.961   0.595
36928SOL    HW159623   8.431  11.055   0.575
36928SOL    HW259624   8.420  10.932   0.683
36929SOL     OW59625  15.042   5.061   0.479
36929SOL    HW159626  14.986   5.049   0.560
36929SOL    HW259627  15.090   5.149   0.483
36930SOL     OW59628   2.174  14.164   8.259
36930SOL    HW159629   2.208  14.112   8.337
36930SOL    HW259630   2.200  14.117   8.174
36931SOL     OW59631   8.183   6.125   1.079
36931SOL    HW159632   8.144   6.167   1.161
36931SOL    HW259633   8.186   6.026   1.090
36932SOL     OW59634   4.718   7.843   8.420
36932SOL    HW159635   4.619   7.829   8.422
36932SOL    HW259636   4.753   7.819   8.329
36933SOL     OW59637   7.413  14.351   1.544
36933SOL    HW159638   7.402  14.255   1.570
36933SOL    HW259639   7.442  14.404   1.623
36934SOL     OW59640   9.921  13.687   0.789
36934SOL    HW159641   9.946  13.718   0.697
36934SOL    HW259642   9.824  13.665   0.791
36935SOL     OW59643   4.660  16.861   6.572
36935SOL    HW159644   4.714  16.871   6.488
36935SOL    HW259645   4.566  16.839   6.549
36936SOL     OW59646   2.367  11.464   0.864
36936SOL    HW159647   2.447  11.466   0.923
36936SOL    HW259648   2.391  11.425   0.775
36937SOL     OW59649   7.893  13.911   8.190
36937SOL    HW159650   7.868  13.889   8.284
36937SOL    HW259651   7.860  13.840   8.128
36938SOL     OW59652   6.445  11.195   8.388
36938SOL    HW159653   6.372  11.171   8.452
36938SOL    HW259654   6.494  11.112   8.360
36939SOL     OW59655   6.758  11.674   7.940
36939SOL    HW159656   6.834  11.611   7.925
36939SOL    HW259657   6.773  11.725   8.024
36940SOL     OW59658  14.289   0.943   8.296
36940SOL    HW159659  14.231   1.024   8.297
36940SOL    HW259660  14.384   0.971   8.310
36941SOL     OW59661  14.416   9.664   7.915
36941SOL    HW159662  14.354   9.609   7.970
36941SOL    HW259663  14.413   9.759   7.946
36942SOL     OW59664  12.058  12.192   6.890
36942SOL    HW159665  12.116  12.177   6.970
36942SOL    HW259666  12.094  12.268   6.836
36943SOL     OW59667   7.204   7.893   1.411
36943SOL    HW159668   7.130   7.850   1.359
36943SOL    HW259669   7.218   7.986   1.378
36944SOL     OW59670  11.655  16.769   6.926
36944SOL    HW159671  11.653  16.762   7.026
36944SOL    HW259672  11.671  16.678   6.887
36945SOL     OW59673   1.573  16.677   2.446
36945SOL    HW159674   1.646  16.609   2.447
36945SOL    HW259675   1.531  16.682   2.537
36946SOL     OW59676   0.291  10.908   1.048
36946SOL    HW159677   0.372  10.864   1.008
36946SOL    HW259678   0.313  11.003   1.072
36947SOL     OW59679  14.134  11.165   6.198
36947SOL    HW159680  14.063  11.097   6.216
36947SOL    HW259681  14.105  11.254   6.235
36948SOL     OW59682  11.932   5.861   7.028
36948SOL    HW159683  12.019   5.901   7.057
36948SOL    HW259684  11.882   5.927   6.972
36949SOL     OW59685   0.838   6.297   5.809
36949SOL    HW159686   0.750   6.261   5.839
36949SOL    HW259687   0.824   6.370   5.742
36950SOL     OW59688  15.141   0.827   1.586
36950SOL    HW159689  15.157   0.758   1.657
36950SOL    HW259690  15.073   0.893   1.618
36951SOL     OW59691   9.195  10.268   7.608
36951SOL    HW159692   9.220  10.240   7.701
36951SOL    HW259693   9.161  10.362   7.610
36952SOL     OW59694  11.470   8.441   0.531
36952SOL    HW159695  11.522   8.514   0.486
36952SOL    HW259696  11.496   8.436   0.627
36953SOL     OW59697  12.069   8.194   0.625
36953SOL    HW159698  12.063   8.129   0.701
36953SOL    HW259699  12.000   8.266   0.638
36954SOL     OW59700  15.512   4.375   6.483
36954SOL    HW159701  15.438   4.439   6.504
36954SOL    HW259702  15.554   4.400   6.395
36955SOL     OW59703   6.265  12.935   6.775
36955SOL    HW159704   6.228  13.020   6.735
36955SOL    HW259705   6.206  12.904   6.849
36956SOL     OW59706   4.227   3.704   7.065
36956SOL    HW159707   4.143   3.683   7.116
36956SOL    HW259708   4.271   3.619   7.038
36957SOL     OW59709   0.264   6.001   7.156
36957SOL    HW159710   0.322   5.921   7.140
36957SOL    HW259711   0.168   5.975   7.146
36958SOL     OW59712  12.794  10.829   7.707
36958SOL    HW159713  12.885  10.859   7.681
36958SOL    HW259714  12.727  10.899   7.681
36959SOL     OW59715   2.391   9.877   1.210
36959SOL    HW159716   2.452   9.798   1.205
36959SOL    HW259717   2.384   9.908   1.305
36960SOL     OW59718  13.501  13.006   0.890
36960SOL    HW159719  13.538  13.095   0.863
36960SOL    HW259720  13.421  13.019   0.948
36961SOL     OW59721   5.502   1.884   1.072
36961SOL    HW159722   5.455   1.800   1.098
36961SOL    HW259723   5.591   1.887   1.119
36962SOL     OW59724  16.794  12.216   7.220
36962SOL    HW159725  16.735  12.257   7.151
36962SOL    HW259726  16.825  12.127   7.188
36963SOL     OW59727  13.565   7.314   7.886
36963SOL    HW159728  13.466   7.304   7.883
36963SOL    HW259729  13.601   7.266   7.967
36964SOL     OW59730  15.918   3.954   7.895
36964SOL    HW159731  16.004   4.006   7.892
36964SOL    HW259732  15.903   3.920   7.987
36965SOL     OW59733   1.638  15.253   1.498
36965SOL    HW159734   1.667  15.334   1.548
36965SOL    HW259735   1.610  15.279   1.405
36966SOL     OW59736   8.122  12.017   0.485
36966SOL    HW159737   8.075  11.981   0.404
36966SOL    HW259738   8.082  11.979   0.567
36967SOL     OW59739  13.454  10.146   2.144
36967SOL    HW159740  13.420  10.239   2.160
36967SOL    HW259741  13.518  10.121   2.217
36968SOL     OW59742  10.840   1.894   7.175
36968SOL    HW159743  10.783   1.974   7.158
36968SOL    HW259744  10.819   1.855   7.265
36969SOL     OW59745   0.082  12.090   7.399
36969SOL    HW159746   0.073  11.992   7.382
36969SOL    HW259747  16.978  12.136   7.382
36970SOL     OW59748   6.904  15.926   0.911
36970SOL    HW159749   6.918  15.830   0.933
36970SOL    HW259750   6.957  15.950   0.829
36971SOL     OW59751   4.128   2.519   6.832
36971SOL    HW159752   4.076   2.454   6.888
36971SOL    HW259753   4.070   2.598   6.810
36972SOL     OW59754   6.579   0.093   8.411
36972SOL    HW159755   6.609   0.164   0.021
36972SOL    HW259756   6.482   0.073   8.426
36973SOL     OW59757   7.169   5.234   7.822
36973SOL    HW159758   7.125   5.318   7.854
36973SOL    HW259759   7.224   5.254   7.741
36974SOL     OW59760   4.112  13.159   8.111
36974SOL    HW159761   4.207  13.188   8.099
36974SOL    HW259762   4.086  13.168   8.206
36975SOL     OW59763  13.793   6.481   0.967
36975SOL    HW159764  13.818   6.385   0.956
36975SOL    HW259765  13.719   6.503   0.904
36976SOL     OW59766  11.658   1.280   6.300
36976SOL    HW159767  11.693   1.278   6.394
36976SOL    HW259768  11.569   1.235   6.297
36977SOL     OW59769   7.291   9.571   6.567
36977SOL    HW159770   7.265   9.547   6.473
36977SOL    HW259771   7.383   9.611   6.566
36978SOL     OW59772   5.550  10.743   8.027
36978SOL    HW159773   5.492  10.709   8.100
36978SOL    HW259774   5.618  10.674   8.003
36979SOL     OW59775   7.575   5.154   2.352
36979SOL    HW159776   7.610   5.241   2.318
36979SOL    HW259777   7.626   5.127   2.433
36980SOL     OW59778   0.780   6.500   1.012
36980SOL    HW159779   0.868   6.462   1.039
36980SOL    HW259780   0.716   6.425   0.993
36981SOL     OW59781   0.394   3.960   7.051
36981SOL    HW159782   0.380   3.913   6.964
36981SOL    HW259783   0.490   3.950   7.079
36982SOL     OW59784   6.732   4.993   6.728
36982SOL    HW159785   6.762   4.904   6.694
36982SOL    HW259786   6.748   5.063   6.659
36983SOL     OW59787   6.613   1.138   8.214
36983SOL    HW159788   6.631   1.233   8.241
36983SOL    HW259789   6.520   1.131   8.178
36984SOL     OW59790   6.445  10.177   7.415
36984SOL    HW159791   6.466  10.223   7.328
36984SOL    HW259792   6.424  10.246   7.484
36985SOL     OW59793   6.824  13.509   0.164
36985SOL    HW159794   6.814  13.605   0.138
36985SOL    HW259795   6.785  13.451   0.094
36986SOL     OW59796  14.416  13.342   6.963
36986SOL    HW159797  14.453  13.411   6.901
36986SOL    HW259798  14.321  13.365   6.984
36987SOL     OW59799  15.706   8.042   6.268
36987SOL    HW159800  15.801   8.043   6.238
36987SOL    HW259801  15.697   8.096   6.352
36988SOL     OW59802  16.798   1.422   6.677
36988SOL    HW159803  16.849   1.354   6.729
36988SOL    HW259804  16.859   1.469   6.614
36989SOL     OW59805   7.478   0.572   6.400
36989SOL    HW159806   7.555   0.618   6.356
36989SOL    HW259807   7.394   0.591   6.349
36990SOL     OW59808   6.333  16.149   1.003
36990SOL    HW159809   6.239  16.115   1.011
36990SOL    HW259810   6.397  16.081   1.039
36991SOL     OW59811  10.636  16.208   7.864
36991SOL    HW159812  10.724  16.166   7.887
36991SOL    HW259813  10.572  16.137   7.834
36992SOL     OW59814  13.564  15.156   1.611
36992SOL    HW159815  13.586  15.108   1.696
36992SOL    HW259816  13.566  15.092   1.535
36993SOL     OW59817   0.706  15.823   1.185
36993SOL    HW159818   0.777  15.887   1.153
36993SOL    HW259819   0.742  15.771   1.263
36994SOL     OW59820  14.137  11.565   7.410
36994SOL    HW159821  14.167  11.661   7.413
36994SOL    HW259822  14.052  11.555   7.461
36995SOL     OW59823  16.579  16.701   7.883
36995SOL    HW159824  16.590  16.698   7.983
36995SOL    HW259825  16.548  16.612   7.850
36996SOL     OW59826   2.938   6.857   7.871
36996SOL    HW159827   2.845   6.865   7.906
36996SOL    HW259828   2.937   6.809   7.783
36997SOL     OW59829  11.294  13.932   7.110
36997SOL    HW159830  11.263  13.969   7.198
36997SOL    HW259831  11.240  13.851   7.087
36998SOL     OW59832   6.047  16.817   6.542
36998SOL    HW159833   5.983  16.780   6.475
36998SOL    HW259834   6.127  16.757   6.549
36999SOL     OW59835  12.130   2.806   7.503
36999SOL    HW159836  12.215   2.769   7.465
36999SOL    HW259837  12.098   2.881   7.446
37000SOL     OW59838   6.283   9.586   6.776
37000SOL    HW159839   6.335   9.581   6.862
37000SOL    HW259840   6.186   9.576   6.795
37001SOL     OW59841   8.655   1.455   7.315
37001SOL    HW159842   8.607   1.482   7.399
37001SOL    HW259843   8.598   1.479   7.236
37002SOL     OW59844  11.545   1.032   8.372
37002SOL    HW159845  11.532   1.109   8.435
37002SOL    HW259846  11.459   1.012   8.325
37003SOL     OW59847  13.072  12.288   8.447
37003SOL    HW159848  13.133  12.257   8.375
37003SOL    HW259849  13.123  12.344   0.059
37004SOL     OW59850   9.412   9.832   7.733
37004SOL    HW159851   9.314   9.829   7.712
37004SOL    HW259852   9.461   9.772   7.669
37005SOL     OW59853   8.448  10.755   2.212
37005SOL    HW159854   8.494  10.717   2.292
37005SOL    HW259855   8.495  10.724   2.129
37006SOL     OW59856  10.492   6.756   1.572
37006SOL    HW159857  10.448   6.710   1.649
37006SOL    HW259858  10.496   6.854   1.590
37007SOL     OW59859  16.382  16.685   8.308
37007SOL    HW159860  16.475  16.709   8.280
37007SOL    HW259861  16.328  16.661   8.227
37008SOL     OW59862  13.822  11.513   1.636
37008SOL    HW159863  13.814  11.572   1.556
37008SOL    HW259864  13.885  11.438   1.617
37009SOL     OW59865  16.178  14.972   0.597
37009SOL    HW159866  16.130  15.037   0.655
37009SOL    HW259867  16.180  14.883   0.641
37010SOL     OW59868  11.190   2.842   6.552
37010SOL    HW159869  11.159   2.861   6.459
37010SOL    HW259870  11.244   2.919   6.585
37011SOL     OW59871   1.888  16.751   7.928
37011SOL    HW159872   1.937  16.820   7.981
37011SOL    HW259873   1.955  16.691   7.884
37012SOL     OW59874  16.153  14.761   1.652
37012SOL    HW159875  16.063  14.773   1.610
37012SOL    HW259876  16.179  14.846   1.698
37013SOL     OW59877   9.116   2.086   1.171
37013SOL    HW159878   9.153   2.106   1.261
37013SOL    HW259879   9.021   2.116   1.166
37014SOL     OW59880   6.044   6.399   7.668
37014SOL    HW159881   6.089   6.455   7.598
37014SOL    HW259882   6.035   6.305   7.634
37015SOL     OW59883   8.661   2.559   7.169
37015SOL    HW159884   8.738   2.499   7.147
37015SOL    HW259885   8.690   2.629   7.235
37016SOL     OW59886   0.463  16.516   7.859
37016SOL    HW159887   0.378  16.519   7.807
37016SOL    HW259888   0.540  16.505   7.796
37017SOL     OW59889   5.731  16.559   7.519
37017SOL    HW159890   5.743  16.633   7.585
37017SOL    HW259891   5.640  16.519   7.532
37018SOL     OW59892   8.515   0.633   7.779
37018SOL    HW159893   8.568   0.650   7.862
37018SOL    HW259894   8.428   0.590   7.802
37019SOL     OW59895   4.391   3.732   8.450
37019SOL    HW159896   4.410   3.779   8.364
37019SOL    HW259897   4.293   3.733   0.013
37020SOL     OW59898  10.099  11.692   7.088
37020SOL    HW159899  10.159  11.645   7.153
37020SOL    HW259900  10.005  11.689   7.121
37021SOL     OW59901   3.344  12.688   0.991
37021SOL    HW159902   3.341  12.588   0.989
37021SOL    HW259903   3.254  12.723   1.015
37022SOL     OW59904   4.334   3.268   1.962
37022SOL    HW159905   4.320   3.365   1.979
37022SOL    HW259906   4.284   3.214   2.030
37023SOL     OW59907   5.319   8.305   0.196
37023SOL    HW159908   5.252   8.293   0.270
37023SOL    HW259909   5.322   8.221   0.141
37024SOL     OW59910   0.021  12.450   7.768
37024SOL    HW159911   0.095  12.422   7.708
37024SOL    HW259912   0.045  12.430   7.863
37025SOL     OW59913   7.526  14.346   7.905
37025SOL    HW159914   7.502  14.250   7.920
37025SOL    HW259915   7.442  14.400   7.892
37026SOL     OW59916  12.691   6.261   7.876
37026SOL    HW159917  12.626   6.188   7.854
37026SOL    HW259918  12.697   6.270   7.976
37027SOL     OW59919   4.002  15.379   7.551
37027SOL    HW159920   4.007  15.288   7.592
37027SOL    HW259921   4.049  15.378   7.462
37028SOL     OW59922   8.022   2.451   7.488
37028SOL    HW159923   7.966   2.533   7.472
37028SOL    HW259924   8.114   2.479   7.516
37029SOL     OW59925   0.796   3.108   5.765
37029SOL    HW159926   0.825   3.013   5.751
37029SOL    HW259927   0.856   3.169   5.713
37030SOL     OW59928   3.854  11.999   6.970
37030SOL    HW159929   3.768  11.964   6.931
37030SOL    HW259930   3.904  12.049   6.899
37031SOL     OW59931   5.933  14.362   0.369
37031SOL    HW159932   5.949  14.460   0.361
37031SOL    HW259933   6.020  14.313   0.365
37032SOL     OW59934   9.153  10.786   6.590
37032SOL    HW159935   9.081  10.763   6.523
37032SOL    HW259936   9.116  10.775   6.682
37033SOL     OW59937  16.481   9.860   8.388
37033SOL    HW159938  16.561   9.828   8.438
37033SOL    HW259939  16.510   9.899   8.301
37034SOL     OW59940   9.220   9.723   6.839
37034SOL    HW159941   9.226   9.624   6.833
37034SOL    HW259942   9.310   9.761   6.859
37035SOL     OW59943   6.026  11.138   6.975
37035SOL    HW159944   5.936  11.160   6.937
37035SOL    HW259945   6.074  11.077   6.912
37036SOL     OW59946   2.212   7.921   0.395
37036SOL    HW159947   2.175   7.965   0.313
37036SOL    HW259948   2.204   7.822   0.386
37037SOL     OW59949   3.875   4.182   0.940
37037SOL    HW159950   3.931   4.121   0.883
37037SOL    HW259951   3.928   4.264   0.962
37038SOL     OW59952   9.686   7.614   0.526
37038SOL    HW159953   9.731   7.695   0.491
37038SOL    HW259954   9.594   7.638   0.559
37039SOL     OW59955   5.969   4.494   8.392
37039SOL    HW159956   5.999   4.423   0.001
37039SOL    HW259957   5.892   4.544   8.432
37040SOL     OW59958   2.461   4.518   7.346
37040SOL    HW159959   2.449   4.545   7.442
37040SOL    HW259960   2.406   4.436   7.328
37041SOL     OW59961   4.408   3.562   0.631
37041SOL    HW159962   4.374   3.476   0.668
37041SOL    HW259963   4.442   3.619   0.705
37042SOL     OW59964  12.944   6.109   1.250
37042SOL    HW159965  12.911   6.029   1.201
37042SOL    HW259966  13.042   6.100   1.267
37043SOL     OW59967   9.363   9.422   8.357
37043SOL    HW159968   9.425   9.466   8.292
37043SOL    HW259969   9.410   9.406   8.443
37044SOL     OW59970  11.405   0.575   1.373
37044SOL    HW159971  11.322   0.603   1.419
37044SOL    HW259972  11.383   0.506   1.304
37045SOL     OW59973  12.209  16.523   8.234
37045SOL    HW159974  12.295  16.571   8.251
37045SOL    HW259975  12.222  16.425   8.246
37046SOL     OW59976  11.718   2.912   7.986
37046SOL    HW159977  11.636   2.871   7.945
37046SOL    HW259978  11.696   2.946   8.077
37047SOL     OW59979   4.528  11.696   6.635
37047SOL    HW159980   4.500  11.665   6.544
37047SOL    HW259981   4.625  11.720   6.635
37048SOL     OW59982  12.941   8.725   7.562
37048SOL    HW159983  13.035   8.709   7.592
37048SOL    HW259984  12.881   8.731   7.641
37049SOL     OW59985  10.214   7.684   7.229
37049SOL    HW159986  10.119   7.710   7.213
37049SOL    HW259987  10.269   7.766   7.244
37050SOL     OW59988   0.113  10.818   1.845
37050SOL    HW159989   0.091  10.757   1.769
37050SOL    HW259990   0.189  10.780   1.898
37051SOL     OW59991   5.430  10.251   7.759
37051SOL    HW159992   5.454  10.348   7.749
37051SOL    HW259993   5.468  10.200   7.683
37052SOL     OW59994   1.690   9.733   7.563
37052SOL    HW159995   1.610   9.778   7.523
37052SOL    HW259996   1.663   9.686   7.647
37053SOL     OW59997   9.325   5.421   0.283
37053SOL    HW159998   9.386   5.343   0.267
37053SOL    HW259999   9.333   5.485   0.207
37054SOL     OW60000   8.922   7.648   0.662
37054SOL    HW160001   8.918   7.683   0.569
37054SOL    HW260002   9.018   7.644   0.693
37055SOL     OW60003  16.073   3.113   6.406
37055SOL    HW160004  16.069   3.015   6.424
37055SOL    HW260005  16.124   3.159   6.479
37056SOL     OW60006   0.727  12.758   0.102
37056SOL    HW160007   0.744  12.749   0.004
37056SOL    HW260008   0.791  12.700   0.152
37057SOL     OW60009  10.765   5.681   7.319
37057SOL    HW160010  10.695   5.749   7.343
37057SOL    HW260011  10.848   5.699   7.372
37058SOL     OW60012  10.024   2.577   7.635
37058SOL    HW160013  10.024   2.569   7.735
37058SOL    HW260014   9.948   2.523   7.598
37059SOL     OW60015  10.883   8.318   1.294
37059SOL    HW160016  10.839   8.408   1.298
37059SOL    HW260017  10.947   8.316   1.217
37060SOL     OW60018   6.105   9.059   1.893
37060SOL    HW160019   6.107   9.070   1.992
37060SOL    HW260020   6.017   9.091   1.857
37061SOL     OW60021  16.408   4.363   5.812
37061SOL    HW160022  16.491   4.312   5.790
37061SOL    HW260023  16.409   4.451   5.762
37062SOL     OW60024  14.863   8.489   6.920
37062SOL    HW160025  14.836   8.585   6.919
37062SOL    HW260026  14.782   8.432   6.933
37063SOL     OW60027  11.321  15.919   6.566
37063SOL    HW160028  11.235  15.937   6.517
37063SOL    HW260029  11.393  15.980   6.530
37064SOL     OW60030   8.531  12.595   7.017
37064SOL    HW160031   8.456  12.628   7.074
37064SOL    HW260032   8.608  12.658   7.024
37065SOL     OW60033  13.112  13.159   6.905
37065SOL    HW160034  13.117  13.134   6.808
37065SOL    HW260035  13.082  13.081   6.959
37066SOL     OW60036   0.824  16.405   8.359
37066SOL    HW160037   0.797  16.422   8.454
37066SOL    HW260038   0.784  16.318   8.328
37067SOL     OW60039   2.656   0.805   7.756
37067SOL    HW160040   2.740   0.850   7.726
37067SOL    HW260041   2.598   0.786   7.676
37068SOL     OW60042   3.213   8.853   2.011
37068SOL    HW160043   3.197   8.949   2.031
37068SOL    HW260044   3.167   8.828   1.926
37069SOL     OW60045   4.532   1.941   1.169
37069SOL    HW160046   4.453   2.003   1.164
37069SOL    HW260047   4.542   1.893   1.082
37070SOL     OW60048   2.445  10.812   1.429
37070SOL    HW160049   2.377  10.885   1.423
37070SOL    HW260050   2.432  10.760   1.513
37071SOL     OW60051   8.641   9.434   6.554
37071SOL    HW160052   8.719   9.426   6.492
37071SOL    HW260053   8.637   9.527   6.591
37072SOL     OW60054   4.728  16.626   7.360
37072SOL    HW160055   4.819  16.599   7.392
37072SOL    HW260056   4.658  16.580   7.416
37073SOL     OW60057   8.454   8.410   6.917
37073SOL    HW160058   8.444   8.379   7.011
37073SOL    HW260059   8.500   8.499   6.915
37074SOL     OW60060   0.882  16.401   0.622
37074SOL    HW160061   0.860  16.310   0.588
37074SOL    HW260062   0.956  16.440   0.567
37075SOL     OW60063   8.328   1.976   0.934
37075SOL    HW160064   8.384   1.921   0.996
37075SOL    HW260065   8.382   2.054   0.900
37076SOL     OW60066  12.265   6.110   0.141
37076SOL    HW160067  12.327   6.156   0.078
37076SOL    HW260068  12.187   6.169   0.161
37077SOL     OW60069  14.710   7.345   6.620
37077SOL    HW160070  14.637   7.392   6.669
37077SOL    HW260071  14.779   7.412   6.592
37078SOL     OW60072   0.731   8.080   7.804
37078SOL    HW160073   0.704   7.994   7.762
37078SOL    HW260074   0.747   8.067   7.901
37079SOL     OW60075   2.677   5.854   1.869
37079SOL    HW160076   2.595   5.827   1.920
37079SOL    HW260077   2.759   5.821   1.916
37080SOL     OW60078  11.965   0.845   1.341
37080SOL    HW160079  11.928   0.811   1.255
37080SOL    HW260080  12.053   0.890   1.325
37081SOL     OW60081  16.840  14.958   7.512
37081SOL    HW160082  16.928  14.911   7.524
37081SOL    HW260083  16.841  15.044   7.563
37082SOL     OW60084   4.302   0.232   1.861
37082SOL    HW160085   4.314   0.327   1.832
37082SOL    HW260086   4.260   0.231   1.952
37083SOL     OW60087   6.559   9.466   7.440
37083SOL    HW160088   6.567   9.403   7.517
37083SOL    HW260089   6.531   9.416   7.358
37084SOL     OW60090  10.197   5.493   0.203
37084SOL    HW160091  10.240   5.558   0.266
37084SOL    HW260092  10.264   5.463   0.135
37085SOL     OW60093   8.309  13.259   1.726
37085SOL    HW160094   8.390  13.317   1.715
37085SOL    HW260095   8.294  13.241   1.823
37086SOL     OW60096  15.402  14.041   0.867
37086SOL    HW160097  15.423  14.139   0.858
37086SOL    HW260098  15.432  13.994   0.784
37087SOL     OW60099   3.594  10.638   1.691
37087SOL    HW160100   3.661  10.577   1.734
37087SOL    HW260101   3.595  10.727   1.738
37088SOL     OW60102   5.560  11.924   0.015
37088SOL    HW160103   5.498  12.002   0.029
37088SOL    HW260104   5.619  11.942   8.390
37089SOL     OW60105   7.668  13.135   2.238
37089SOL    HW160106   7.764  13.112   2.253
37089SOL    HW260107   7.611  13.075   2.295
37090SOL     OW60108   5.973  13.412   0.476
37090SOL    HW160109   5.937  13.388   0.567
37090SOL    HW260110   5.937  13.501   0.449
37091SOL     OW60111   2.747  16.284   1.318
37091SOL    HW160112   2.648  16.286   1.329
37091SOL    HW260113   2.769  16.260   1.223
37092SOL     OW60114   6.823   0.911   1.052
37092SOL    HW160115   6.847   0.951   1.140
37092SOL    HW260116   6.724   0.896   1.048
37093SOL     OW60117  12.946   4.449   6.484
37093SOL    HW160118  12.893   4.454   6.399
37093SOL    HW260119  12.884   4.453   6.562
37094SOL     OW60120   7.154   2.876   0.765
37094SOL    HW160121   7.184   2.970   0.778
37094SOL    HW260122   7.204   2.815   0.827
37095SOL     OW60123  12.541  15.033   1.181
37095SOL    HW160124  12.499  14.976   1.251
37095SOL    HW260125  12.471  15.066   1.117
37096SOL     OW60126  13.107   1.690   0.638
37096SOL    HW160127  13.059   1.690   0.726
37096SOL    HW260128  13.138   1.783   0.618
37097SOL     OW60129  11.300   6.567   6.804
37097SOL    HW160130  11.245   6.556   6.886
37097SOL    HW260131  11.394   6.539   6.822
37098SOL     OW60132   0.734  12.757   8.028
37098SOL    HW160133   0.814  12.815   8.012
37098SOL    HW260134   0.661  12.784   7.966
37099SOL     OW60135  10.132  13.230   7.531
37099SOL    HW160136  10.185  13.237   7.446
37099SOL    HW260137  10.188  13.263   7.607
37100SOL     OW60138   7.165   5.197   7.397
37100SOL    HW160139   7.216   5.251   7.463
37100SOL    HW260140   7.120   5.120   7.443
37101SOL     OW60141  16.351   1.885   1.579
37101SOL    HW160142  16.440   1.864   1.539
37101SOL    HW260143  16.362   1.946   1.657
37102SOL     OW60144  13.102   0.457   1.051
37102SOL    HW160145  13.093   0.441   0.952
37102SOL    HW260146  13.090   0.554   1.070
37103SOL     OW60147   3.959  10.862   1.643
37103SOL    HW160148   3.895  10.925   1.689
37103SOL    HW260149   3.911  10.816   1.569
37104SOL     OW60150   8.446  13.028   6.983
37104SOL    HW160151   8.388  12.964   7.033
37104SOL    HW260152   8.511  13.071   7.046
37105SOL     OW60153   0.603  12.062   8.413
37105SOL    HW160154   0.671  11.988   8.414
37105SOL    HW260155   0.650  12.150   8.408
37106SOL     OW60156   5.373  12.713   8.203
37106SOL    HW160157   5.288  12.760   8.223
37106SOL    HW260158   5.417  12.755   8.123
37107SOL     OW60159  15.272   7.622   0.146
37107SOL    HW160160  15.338   7.561   0.102
37107SOL    HW260161  15.187   7.572   0.163
37108SOL     OW60162   0.121   3.193   0.269
37108SOL    HW160163   0.142   3.279   0.315
37108SOL    HW260164   0.175   3.186   0.185
37109SOL     OW60165   8.983  15.995   2.575
37109SOL    HW160166   8.898  15.943   2.574
37109SOL    HW260167   8.963  16.092   2.591
37110SOL     OW60168  15.839   9.861   6.983
37110SOL    HW160169  15.886   9.888   7.067
37110SOL    HW260170  15.873   9.771   6.954
37111SOL     OW60171   2.331   1.726   8.427
37111SOL    HW160172   2.350   1.665   0.050
37111SOL    HW260173   2.234   1.722   8.405
37112SOL     OW60174   7.016   8.988   0.493
37112SOL    HW160175   6.982   8.926   0.422
37112SOL    HW260176   6.970   9.076   0.485
37113SOL     OW60177  11.936  16.343   0.177
37113SOL    HW160178  11.938  16.335   0.077
37113SOL    HW260179  12.024  16.315   0.215
37114SOL     OW60180  16.080  11.669   7.520
37114SOL    HW160181  16.007  11.642   7.583
37114SOL    HW260182  16.169  11.651   7.561
37115SOL     OW60183  15.172   3.289   8.391
37115SOL    HW160184  15.084   3.298   8.440
37115SOL    HW260185  15.155   3.291   8.293
37116SOL     OW60186   9.343   3.154   0.647
37116SOL    HW160187   9.343   3.243   0.600
37116SOL    HW260188   9.410   3.157   0.721
37117SOL     OW60189  16.557   4.925   7.636
37117SOL    HW160190  16.514   4.836   7.645
37117SOL    HW260191  16.523   4.971   7.554
37118SOL     OW60192  12.121  10.741   7.158
37118SOL    HW160193  12.205  10.766   7.206
37118SOL    HW260194  12.092  10.649   7.185
37119SOL     OW60195   6.579   2.430   8.209
37119SOL    HW160196   6.653   2.472   8.262
37119SOL    HW260197   6.529   2.365   8.267
37120SOL     OW60198   3.920   7.008   6.976
37120SOL    HW160199   3.969   6.925   7.001
37120SOL    HW260200   3.966   7.053   6.900
37121SOL     OW60201   7.455  13.082   0.854
37121SOL    HW160202   7.441  13.032   0.768
37121SOL    HW260203   7.511  13.027   0.916
37122SOL     OW60204   2.622  15.979   1.183
37122SOL    HW160205   2.538  16.031   1.167
37122SOL    HW260206   2.599  15.881   1.186
37123SOL     OW60207   8.315   7.904   8.274
37123SOL    HW160208   8.219   7.908   8.246
37123SOL    HW260209   8.322   7.920   8.372
37124SOL     OW60210   5.628   7.185   7.474
37124SOL    HW160211   5.664   7.220   7.387
37124SOL    HW260212   5.565   7.110   7.456
37125SOL     OW60213   7.290   1.656   7.956
37125SOL    HW160214   7.368   1.717   7.973
37125SOL    HW260215   7.244   1.637   8.043
37126SOL     OW60216  11.433   0.262   6.782
37126SOL    HW160217  11.340   0.267   6.816
37126SOL    HW260218  11.492   0.218   6.850
37127SOL     OW60219   2.075   5.773   6.785
37127SOL    HW160220   2.174   5.769   6.802
37127SOL    HW260221   2.050   5.866   6.757
37128SOL     OW60222  13.869   2.046   6.459
37128SOL    HW160223  13.881   1.977   6.531
37128SOL    HW260224  13.927   2.023   6.381
37129SOL     OW60225   5.987  10.128   8.104
37129SOL    HW160226   5.907  10.068   8.113
37129SOL    HW260227   5.980  10.180   8.018
37130SOL     OW60228   4.455  16.005   1.842
37130SOL    HW160229   4.411  15.936   1.899
37130SOL    HW260230   4.516  16.061   1.898
37131SOL     OW60231   3.430   0.530   1.404
37131SOL    HW160232   3.407   0.446   1.453
37131SOL    HW260233   3.524   0.525   1.370
37132SOL     OW60234   5.270   1.271   0.299
37132SOL    HW160235   5.248   1.185   0.345
37132SOL    HW260236   5.204   1.288   0.226
37133SOL     OW60237  11.852   7.752   6.207
37133SOL    HW160238  11.896   7.825   6.155
37133SOL    HW260239  11.885   7.663   6.175
37134SOL     OW60240   3.319   0.976   2.091
37134SOL    HW160241   3.226   0.954   2.063
37134SOL    HW260242   3.384   0.940   2.024
37135SOL     OW60243   5.958   7.994   1.719
37135SOL    HW160244   5.914   8.084   1.714
37135SOL    HW260245   6.012   7.988   1.802
37136SOL     OW60246  16.284   4.949   8.157
37136SOL    HW160247  16.251   4.868   8.206
37136SOL    HW260248  16.226   4.965   8.076
37137SOL     OW60249   4.486  15.764   0.321
37137SOL    HW160250   4.582  15.737   0.316
37137SOL    HW260251   4.439  15.708   0.389
37138SOL     OW60252   9.999   8.391   7.947
37138SOL    HW160253  10.021   8.295   7.964
37138SOL    HW260254  10.076   8.448   7.974
37139SOL     OW60255  15.764  14.145   0.509
37139SOL    HW160256  15.857  14.170   0.483
37139SOL    HW260257  15.740  14.191   0.595
37140SOL     OW60258  16.395  10.481   7.315
37140SOL    HW160259  16.462  10.407   7.317
37140SOL    HW260260  16.355  10.488   7.224
37141SOL     OW60261   2.444  10.632   1.632
37141SOL    HW160262   2.505  10.556   1.654
37141SOL    HW260263   2.353  10.597   1.610
37142SOL     OW60264   9.634   9.785   0.596
37142SOL    HW160265   9.664   9.810   0.688
37142SOL    HW260266   9.652   9.689   0.579
37143SOL     OW60267  13.245  12.134   7.317
37143SOL    HW160268  13.202  12.116   7.405
37143SOL    HW260269  13.306  12.213   7.325
37144SOL     OW60270   7.457  11.333   8.345
37144SOL    HW160271   7.443  11.420   8.299
37144SOL    HW260272   7.376  11.310   8.398
37145SOL     OW60273  12.670  16.585   7.927
37145SOL    HW160274  12.704  16.518   7.861
37145SOL    HW260275  12.571  16.595   7.917
37146SOL     OW60276   4.260   6.062   7.998
37146SOL    HW160277   4.185   6.058   8.064
37146SOL    HW260278   4.338   6.109   8.040
37147SOL     OW60279  13.077   9.751   0.442
37147SOL    HW160280  13.107   9.801   0.361
37147SOL    HW260281  13.089   9.807   0.523
37148SOL     OW60282   7.006   8.668   8.259
37148SOL    HW160283   7.048   8.740   8.316
37148SOL    HW260284   7.076   8.625   8.203
37149SOL     OW60285   8.621  11.232   6.503
37149SOL    HW160286   8.645  11.179   6.422
37149SOL    HW260287   8.591  11.324   6.475
37150SOL     OW60288   9.862   5.798   6.493
37150SOL    HW160289   9.872   5.859   6.571
37150SOL    HW260290   9.941   5.737   6.488
37151SOL     OW60291   2.409  11.441   8.044
37151SOL    HW160292   2.423  11.472   8.138
37151SOL    HW260293   2.444  11.348   8.034
37152SOL     OW60294   2.965   0.912   6.606
37152SOL    HW160295   3.014   0.858   6.674
37152SOL    HW260296   3.027   0.935   6.531
37153SOL     OW60297   1.976  10.588   8.200
37153SOL    HW160298   2.035  10.638   8.264
37153SOL    HW260299   1.885  10.578   8.240
37154SOL     OW60300  12.082  13.234   0.759
37154SOL    HW160301  12.014  13.212   0.829
37154SOL    HW260302  12.052  13.315   0.708
37155SOL     OW60303   3.377   3.250   6.732
37155SOL    HW160304   3.334   3.207   6.653
37155SOL    HW260305   3.434   3.327   6.703
37156SOL     OW60306   5.194  14.509   8.180
37156SOL    HW160307   5.279  14.515   8.231
37156SOL    HW260308   5.138  14.434   8.217
37157SOL     OW60309  14.457   1.884   8.220
37157SOL    HW160310  14.489   1.794   8.252
37157SOL    HW260311  14.366   1.902   8.257
37158SOL     OW60312   9.462  13.425   6.832
37158SOL    HW160313   9.368  13.449   6.807
37158SOL    HW260314   9.509  13.387   6.753
37159SOL     OW60315   0.570  11.211   0.918
37159SOL    HW160316   0.622  11.126   0.909
37159SOL    HW260317   0.632  11.284   0.948
37160SOL     OW60318  15.979   3.639   7.153
37160SOL    HW160319  15.997   3.729   7.193
37160SOL    HW260320  15.998   3.568   7.220
37161SOL     OW60321  15.947   0.399   5.883
37161SOL    HW160322  16.046   0.394   5.898
37161SOL    HW260323  15.906   0.311   5.904
37162SOL     OW60324  13.814   5.983   1.210
37162SOL    HW160325  13.812   6.074   1.250
37162SOL    HW260326  13.760   5.920   1.266
37163SOL     OW60327   8.280   3.262   7.271
37163SOL    HW160328   8.191   3.232   7.308
37163SOL    HW260329   8.271   3.279   7.173
37164SOL     OW60330  13.692   9.736   1.177
37164SOL    HW160331  13.739   9.656   1.138
37164SOL    HW260332  13.652   9.790   1.103
37165SOL     OW60333  11.141  15.134   8.360
37165SOL    HW160334  11.198  15.115   8.440
37165SOL    HW260335  11.076  15.206   8.382
37166SOL     OW60336  10.672   7.412   0.065
37166SOL    HW160337  10.751   7.391   0.007
37166SOL    HW260338  10.679   7.506   0.099
37167SOL     OW60339   8.904   9.830   8.422
37167SOL    HW160340   8.867   9.905   8.366
37167SOL    HW260341   9.004   9.831   8.415
37168SOL     OW60342  13.132  14.531   7.536
37168SOL    HW160343  13.211  14.563   7.484
37168SOL    HW260344  13.135  14.569   7.629
37169SOL     OW60345   6.266  13.643   2.279
37169SOL    HW160346   6.355  13.659   2.235
37169SOL    HW260347   6.259  13.702   2.360
37170SOL     OW60348   0.961   5.639   6.955
37170SOL    HW160349   0.974   5.712   6.887
37170SOL    HW260350   1.046   5.623   7.004
37171SOL     OW60351   0.678   8.902   8.180
37171SOL    HW160352   0.737   8.966   8.130
37171SOL    HW260353   0.582   8.924   8.163
37172SOL     OW60354   2.446  13.541   2.431
37172SOL    HW160355   2.352  13.570   2.416
37172SOL    HW260356   2.462  13.525   2.528
37173SOL     OW60357  15.401  15.837   7.107
37173SOL    HW160358  15.395  15.778   7.188
37173SOL    HW260359  15.357  15.792   7.030
37174SOL     OW60360  13.006  14.336   6.962
37174SOL    HW160361  12.907  14.337   6.948
37174SOL    HW260362  13.038  14.429   6.980
37175SOL     OW60363   6.508   4.160   8.026
37175SOL    HW160364   6.416   4.188   8.052
37175SOL    HW260365   6.505   4.068   7.988
37176SOL     OW60366  15.508  10.716   8.194
37176SOL    HW160367  15.577  10.650   8.162
37176SOL    HW260368  15.418  10.671   8.194
37177SOL     OW60369  15.742  14.563   0.636
37177SOL    HW160370  15.778  14.646   0.677
37177SOL    HW260371  15.744  14.571   0.536
37178SOL     OW60372   8.321   0.762   1.292
37178SOL    HW160373   8.320   0.689   1.361
37178SOL    HW260374   8.315   0.851   1.338
37179SOL     OW60375   9.613   0.942   7.348
37179SOL    HW160376   9.638   0.874   7.416
37179SOL    HW260377   9.619   1.034   7.388
37180SOL     OW60378   2.211  13.935   0.791
37180SOL    HW160379   2.255  14.021   0.766
37180SOL    HW260380   2.157  13.902   0.714
37181SOL     OW60381  13.452   6.009   1.690
37181SOL    HW160382  13.449   5.928   1.632
37181SOL    HW260383  13.446   5.983   1.786
37182SOL     OW60384  12.088  12.390   0.141
37182SOL    HW160385  12.116  12.461   0.206
37182SOL    HW260386  12.169  12.347   0.101
37183SOL     OW60387   0.789   6.466   7.761
37183SOL    HW160388   0.831   6.391   7.812
37183SOL    HW260389   0.846   6.548   7.769
37184SOL     OW60390  10.673  14.739   0.882
37184SOL    HW160391  10.583  14.783   0.885
37184SOL    HW260392  10.743  14.804   0.911
37185SOL     OW60393  11.899   4.843   5.747
37185SOL    HW160394  11.914   4.904   5.669
37185SOL    HW260395  11.924   4.750   5.721
37186SOL     OW60396  13.939   8.951   7.571
37186SOL    HW160397  13.955   9.022   7.640
37186SOL    HW260398  13.968   8.985   7.482
37187SOL     OW60399   6.730  15.696   0.730
37187SOL    HW160400   6.683  15.779   0.760
37187SOL    HW260401   6.789  15.662   0.803
37188SOL     OW60402   0.250   5.984   8.148
37188SOL    HW160403   0.252   5.947   8.055
37188SOL    HW260404   0.300   6.070   8.151
37189SOL     OW60405  16.297   4.235   6.267
37189SOL    HW160406  16.249   4.155   6.230
37189SOL    HW260407  16.313   4.301   6.193
37190SOL     OW60408  15.662   3.989   6.343
37190SOL    HW160409  15.595   4.021   6.409
37190SOL    HW260410  15.628   4.005   6.250
37191SOL     OW60411   0.586   1.338   0.235
37191SOL    HW160412   0.555   1.403   0.165
37191SOL    HW260413   0.573   1.379   0.326
37192SOL     OW60414   9.380  14.902   2.151
37192SOL    HW160415   9.475  14.893   2.124
37192SOL    HW260416   9.369  14.983   2.209
37193SOL     OW60417  16.053   9.707   1.413
37193SOL    HW160418  16.086   9.613   1.422
37193SOL    HW260419  16.007   9.719   1.326
37194SOL     OW60420  13.368   1.318   7.716
37194SOL    HW160421  13.277   1.346   7.685
37194SOL    HW260422  13.428   1.306   7.637
37195SOL     OW60423   6.143   4.177   1.084
37195SOL    HW160424   6.219   4.183   1.020
37195SOL    HW260425   6.177   4.188   1.178
37196SOL     OW60426   9.233   5.054   5.935
37196SOL    HW160427   9.194   5.094   5.852
37196SOL    HW260428   9.313   5.108   5.963
37197SOL     OW60429   4.757   7.797   2.511
37197SOL    HW160430   4.772   7.811   2.609
37197SOL    HW260431   4.678   7.850   2.481
37198SOL     OW60432   2.024   1.165   1.848
37198SOL    HW160433   2.054   1.134   1.938
37198SOL    HW260434   2.104   1.189   1.793
37199SOL     OW60435  15.532   8.976   6.981
37199SOL    HW160436  15.453   8.991   6.921
37199SOL    HW260437  15.596   8.915   6.935
37200SOL     OW60438   6.377   6.252   0.169
37200SOL    HW160439   6.395   6.220   0.075
37200SOL    HW260440   6.338   6.177   0.222
37201SOL     OW60441  13.093  15.157   1.791
37201SOL    HW160442  13.088  15.226   1.719
37201SOL    HW260443  13.188  15.150   1.823
37202SOL     OW60444   5.428   0.361   2.234
37202SOL    HW160445   5.399   0.356   2.329
37202SOL    HW260446   5.441   0.456   2.207
37203SOL     OW60447  11.549   9.708   1.220
37203SOL    HW160448  11.596   9.625   1.249
37203SOL    HW260449  11.614   9.771   1.179
37204SOL     OW60450   7.064   6.813   2.291
37204SOL    HW160451   7.006   6.740   2.257
37204SOL    HW260452   7.134   6.775   2.351
37205SOL     OW60453  11.027  14.509   1.728
37205SOL    HW160454  11.108  14.451   1.733
37205SOL    HW260455  11.017  14.561   1.813
37206SOL     OW60456   8.083  12.566   0.813
37206SOL    HW160457   8.136  12.589   0.895
37206SOL    HW260458   8.027  12.644   0.787
37207SOL     OW60459   9.921  10.916   0.697
37207SOL    HW160460   9.968  10.866   0.769
37207SOL    HW260461   9.963  10.895   0.608
37208SOL     OW60462   2.469  13.911   0.371
37208SOL    HW160463   2.382  13.863   0.379
37208SOL    HW260464   2.540  13.860   0.420
37209SOL     OW60465  11.357  15.609   0.300
37209SOL    HW160466  11.401  15.582   0.386
37209SOL    HW260467  11.388  15.549   0.226
37210SOL     OW60468  15.960   2.588   8.324
37210SOL    HW160469  16.017   2.670   8.318
37210SOL    HW260470  15.942   2.553   8.233
37211SOL     OW60471  11.450  13.486   1.215
37211SOL    HW160472  11.413  13.571   1.177
37211SOL    HW260473  11.535  13.505   1.264
37212SOL     OW60474  12.978   4.198   1.008
37212SOL    HW160475  13.005   4.219   1.102
37212SOL    HW260476  13.015   4.268   0.947
37213SOL     OW60477   5.705   1.207   0.772
37213SOL    HW160478   5.752   1.131   0.729
37213SOL    HW260479   5.772   1.269   0.813
37214SOL     OW60480  16.691  16.369   6.795
37214SOL    HW160481  16.595  16.363   6.820
37214SOL    HW260482  16.715  16.465   6.779
37215SOL     OW60483   9.073   5.686   7.426
37215SOL    HW160484   9.055   5.653   7.334
37215SOL    HW260485   9.105   5.610   7.483
37216SOL     OW60486   2.410  11.129   6.632
37216SOL    HW160487   2.325  11.079   6.616
37216SOL    HW260488   2.487  11.076   6.597
37217SOL     OW60489   3.298   7.120   2.197
37217SOL    HW160490   3.315   7.204   2.145
37217SOL    HW260491   3.266   7.144   2.289
37218SOL     OW60492  10.673   6.299   1.611
37218SOL    HW160493  10.768   6.327   1.621
37218SOL    HW260494  10.642   6.256   1.695
37219SOL     OW60495   0.351   6.730   6.451
37219SOL    HW160496   0.394   6.770   6.370
37219SOL    HW260497   0.375   6.783   6.532
37220SOL     OW60498   5.535   5.778   7.267
37220SOL    HW160499   5.445   5.739   7.285
37220SOL    HW260500   5.604   5.728   7.319
37221SOL     OW60501   6.791   1.302   1.127
37221SOL    HW160502   6.807   1.347   1.214
37221SOL    HW260503   6.873   1.250   1.100
37222SOL     OW60504   0.546  15.415   0.847
37222SOL    HW160505   0.557  15.481   0.921
37222SOL    HW260506   0.459  15.366   0.859
37223SOL     OW60507   5.337   0.725   7.674
37223SOL    HW160508   5.310   0.738   7.769
37223SOL    HW260509   5.314   0.807   7.621
37224SOL     OW60510  14.012  15.174   7.982
37224SOL    HW160511  14.058  15.090   8.014
37224SOL    HW260512  14.050  15.200   7.893
37225SOL     OW60513   8.788   0.186   2.141
37225SOL    HW160514   8.760   0.216   2.232
37225SOL    HW260515   8.711   0.144   2.094
37226SOL     OW60516  11.088  13.132   7.929
37226SOL    HW160517  11.040  13.045   7.938
37226SOL    HW260518  11.123  13.160   8.019
37227SOL     OW60519   3.774   0.210   6.683
37227SOL    HW160520   3.816   0.121   6.664
37227SOL    HW260521   3.746   0.253   6.597
37228SOL     OW60522  15.256   3.470   1.005
37228SOL    HW160523  15.217   3.522   1.081
37228SOL    HW260524  15.355   3.482   1.004
37229SOL     OW60525   4.193  11.052   8.202
37229SOL    HW160526   4.104  11.094   8.183
37229SOL    HW260527   4.179  10.959   8.236
37230SOL     OW60528   1.479   7.359   7.075
37230SOL    HW160529   1.533   7.302   7.013
37230SOL    HW260530   1.408   7.406   7.022
37231SOL     OW60531  10.775   8.303   7.846
37231SOL    HW160532  10.834   8.372   7.889
37231SOL    HW260533  10.831   8.229   7.810
37232SOL     OW60534  15.576   6.925   1.615
37232SOL    HW160535  15.513   6.934   1.692
37232SOL    HW260536  15.670   6.940   1.647
37233SOL     OW60537  10.639  12.609   7.888
37233SOL    HW160538  10.640  12.511   7.868
37233SOL    HW260539  10.585  12.657   7.819
37234SOL     OW60540   0.987   2.685   8.100
37234SOL    HW160541   0.904   2.696   8.154
37234SOL    HW260542   1.003   2.767   8.046
37235SOL     OW60543   0.008   4.372   7.708
37235SOL    HW160544   0.096   4.329   7.730
37235SOL    HW260545  16.918   4.306   7.725
37236SOL     OW60546  15.547   7.517   8.263
37236SOL    HW160547  15.492   7.596   8.235
37236SOL    HW260548  15.644   7.541   8.258
37237SOL     OW60549  16.401   6.481   1.421
37237SOL    HW160550  16.343   6.537   1.480
37237SOL    HW260551  16.493   6.520   1.418
37238SOL     OW60552   3.538  13.827   2.411
37238SOL    HW160553   3.505  13.916   2.442
37238SOL    HW260554   3.498  13.755   2.468
37239SOL     OW60555  14.508   2.238   6.163
37239SOL    HW160556  14.557   2.307   6.109
37239SOL    HW260557  14.438   2.195   6.107
37240SOL     OW60558   8.243   7.524   1.001
37240SOL    HW160559   8.342   7.518   1.017
37240SOL    HW260560   8.199   7.440   1.032
37241SOL     OW60561   6.766  10.674   0.378
37241SOL    HW160562   6.803  10.662   0.286
37241SOL    HW260563   6.730  10.586   0.410
37242SOL     OW60564   7.069   6.175   5.808
37242SOL    HW160565   7.038   6.106   5.875
37242SOL    HW260566   7.126   6.130   5.739
37243SOL     OW60567  13.333   0.337   0.370
37243SOL    HW160568  13.374   0.273   0.436
37243SOL    HW260569  13.318   0.290   0.283
37244SOL     OW60570   6.367   7.933   1.428
37244SOL    HW160571   6.276   7.914   1.464
37244SOL    HW260572   6.378   7.888   1.339
37245SOL     OW60573   8.209   3.486   6.812
37245SOL    HW160574   8.219   3.557   6.881
37245SOL    HW260575   8.283   3.494   6.745
37246SOL     OW60576   8.792   4.425   7.820
37246SOL    HW160577   8.858   4.426   7.895
37246SOL    HW260578   8.837   4.457   7.737
37247SOL     OW60579  15.071   9.341   0.725
37247SOL    HW160580  15.042   9.436   0.716
37247SOL    HW260581  15.060   9.312   0.820
37248SOL     OW60582   0.005  10.756   7.038
37248SOL    HW160583  16.971  10.704   6.954
37248SOL    HW260584  16.924  10.726   7.109
37249SOL     OW60585   7.198   8.301   7.981
37249SOL    HW160586   7.277   8.350   8.017
37249SOL    HW260587   7.226   8.243   7.904
37250SOL     OW60588  11.496  11.480   7.487
37250SOL    HW160589  11.593  11.500   7.471
37250SOL    HW260590  11.442  11.559   7.459
37251SOL     OW60591  11.500   1.838   1.716
37251SOL    HW160592  11.549   1.925   1.715
37251SOL    HW260593  11.491   1.805   1.810
37252SOL     OW60594  12.665   8.867   6.758
37252SOL    HW160595  12.575   8.825   6.768
37252SOL    HW260596  12.699   8.896   6.847
37253SOL     OW60597   0.616   2.226   1.301
37253SOL    HW160598   0.710   2.197   1.284
37253SOL    HW260599   0.569   2.156   1.355
37254SOL     OW60600  12.964   5.996   0.332
37254SOL    HW160601  12.923   5.957   0.414
37254SOL    HW260602  12.998   5.922   0.274
37255SOL     OW60603   8.070   2.238   8.245
37255SOL    HW160604   8.049   2.226   8.148
37255SOL    HW260605   8.078   2.148   8.289
37256SOL     OW60606   2.661   7.154   8.275
37256SOL    HW160607   2.595   7.090   8.236
37256SOL    HW260608   2.633   7.248   8.255
37257SOL     OW60609   5.795   0.744   1.475
37257SOL    HW160610   5.840   0.668   1.427
37257SOL    HW260611   5.854   0.825   1.473
37258SOL     OW60612   9.112   7.971   6.357
37258SOL    HW160613   9.034   8.034   6.356
37258SOL    HW260614   9.182   8.005   6.294
37259SOL     OW60615  10.843  12.717   0.253
37259SOL    HW160616  10.803  12.627   0.235
37259SOL    HW260617  10.924  12.707   0.311
37260SOL     OW60618  13.983  12.433   7.593
37260SOL    HW160619  14.055  12.435   7.524
37260SOL    HW260620  14.006  12.367   7.665
37261SOL     OW60621   4.031   6.647   0.339
37261SOL    HW160622   4.009   6.721   0.402
37261SOL    HW260623   3.964   6.573   0.350
37262SOL     OW60624   5.082   5.301   6.526
37262SOL    HW160625   5.147   5.236   6.564
37262SOL    HW260626   4.990   5.260   6.526
37263SOL     OW60627   5.589   0.133   8.030
37263SOL    HW160628   5.624   0.084   8.111
37263SOL    HW260629   5.602   0.076   7.949
37264SOL     OW60630   0.802   9.670   7.552
37264SOL    HW160631   0.869   9.732   7.512
37264SOL    HW260632   0.741   9.635   7.481
37265SOL     OW60633   7.395   3.786   0.510
37265SOL    HW160634   7.325   3.720   0.535
37265SOL    HW260635   7.360   3.845   0.438
37266SOL     OW60636   2.037  14.765   6.447
37266SOL    HW160637   2.064  14.670   6.467
37266SOL    HW260638   1.981  14.766   6.364
37267SOL     OW60639   9.597   5.284   0.754
37267SOL    HW160640   9.508   5.275   0.798
37267SOL    HW260641   9.664   5.318   0.820
37268SOL     OW60642   3.930  15.134   0.882
37268SOL    HW160643   3.840  15.090   0.884
37268SOL    HW260644   3.982  15.099   0.804
37269SOL     OW60645   5.654  16.708   7.140
37269SOL    HW160646   5.668  16.797   7.096
37269SOL    HW260647   5.563  16.704   7.181
37270SOL     OW60648   3.783   0.757   1.314
37270SOL    HW160649   3.761   0.824   1.242
37270SOL    HW260650   3.881   0.759   1.332
37271SOL     OW60651   8.647  10.403   1.144
37271SOL    HW160652   8.606  10.361   1.063
37271SOL    HW260653   8.617  10.354   1.226
37272SOL     OW60654   5.894   4.202   6.534
37272SOL    HW160655   5.960   4.157   6.594
37272SOL    HW260656   5.868   4.139   6.461
37273SOL     OW60657   4.662  16.189   7.014
37273SOL    HW160658   4.568  16.221   7.022
37273SOL    HW260659   4.666  16.112   6.951
37274SOL     OW60660   8.808  16.844   2.016
37274SOL    HW160661   8.888  16.889   2.055
37274SOL    HW260662   8.737  16.912   1.998
37275SOL     OW60663  10.660  15.176   7.033
37275SOL    HW160664  10.651  15.124   7.119
37275SOL    HW260665  10.571  15.181   6.988
37276SOL     OW60666  14.678   3.585   0.924
37276SOL    HW160667  14.738   3.665   0.915
37276SOL    HW260668  14.717   3.508   0.873
37277SOL     OW60669   5.946  13.682   1.754
37277SOL    HW160670   5.889  13.600   1.766
37277SOL    HW260671   6.038  13.664   1.790
37278SOL     OW60672   8.936   6.136   0.519
37278SOL    HW160673   8.889   6.099   0.599
37278SOL    HW260674   9.018   6.186   0.549
37279SOL     OW60675  11.328  13.420   0.625
37279SOL    HW160676  11.346  13.482   0.701
37279SOL    HW260677  11.237  13.379   0.637
37280SOL     OW60678  12.287  13.732   0.209
37280SOL    HW160679  12.326  13.671   0.141
37280SOL    HW260680  12.351  13.807   0.228
37281SOL     OW60681   8.070  13.807   0.095
37281SOL    HW160682   8.160  13.832   0.060
37281SOL    HW260683   8.078  13.763   0.184
37282SOL     OW60684  15.858  10.351   1.522
37282SOL    HW160685  15.940  10.296   1.536
37282SOL    HW260686  15.788  10.324   1.588
37283SOL     OW60687   1.624   7.293   7.505
37283SOL    HW160688   1.551   7.228   7.480
37283SOL    HW260689   1.591   7.352   7.578
37284SOL     OW60690  13.791  12.721   7.904
37284SOL    HW160691  13.848  12.787   7.854
37284SOL    HW260692  13.831  12.704   7.994
37285SOL     OW60693  14.701  15.026   7.451
37285SOL    HW160694  14.637  15.075   7.392
37285SOL    HW260695  14.790  15.072   7.449
37286SOL     OW60696   3.551   8.352   0.740
37286SOL    HW160697   3.547   8.438   0.792
37286SOL    HW260698   3.516   8.367   0.648
37287SOL     OW60699  12.382   4.177   6.771
37287SOL    HW160700  12.399   4.273   6.747
37287SOL    HW260701  12.330   4.172   6.856
37288SOL     OW60702   9.025  10.555   7.392
37288SOL    HW160703   9.087  10.506   7.331
37288SOL    HW260704   8.933  10.554   7.353
37289SOL     OW60705  16.189  12.876   6.594
37289SOL    HW160706  16.214  12.960   6.545
37289SOL    HW260707  16.090  12.864   6.591
37290SOL     OW60708  16.008  14.961   7.831
37290SOL    HW160709  16.069  14.931   7.903
37290SOL    HW260710  16.032  14.917   7.745
37291SOL     OW60711   8.054   3.856   8.127
37291SOL    HW160712   7.993   3.860   8.206
37291SOL    HW260713   8.001   3.833   8.045
37292SOL     OW60714   9.503  15.083   7.337
37292SOL    HW160715   9.465  15.098   7.428
37292SOL    HW260716   9.564  15.158   7.313
37293SOL     OW60717  12.359   9.427   1.399
37293SOL    HW160718  12.452   9.403   1.373
37293SOL    HW260719  12.332   9.375   1.480
37294SOL     OW60720   7.340   7.459   6.446
37294SOL    HW160721   7.277   7.473   6.370
37294SOL    HW260722   7.354   7.361   6.459
37295SOL     OW60723  13.845   2.687   7.571
37295SOL    HW160724  13.767   2.715   7.515
37295SOL    HW260725  13.822   2.700   7.668
37296SOL     OW60726  14.520  11.591   1.457
37296SOL    HW160727  14.507  11.498   1.490
37296SOL    HW260728  14.491  11.656   1.528
37297SOL     OW60729   9.660  14.896   2.113
37297SOL    HW160730   9.659  14.832   2.189
37297SOL    HW260731   9.736  14.960   2.123
37298SOL     OW60732   4.770   2.548   0.509
37298SOL    HW160733   4.676   2.581   0.505
37298SOL    HW260734   4.776   2.470   0.572
37299SOL     OW60735   2.935   8.466   8.290
37299SOL    HW160736   2.927   8.443   8.387
37299SOL    HW260737   2.891   8.554   8.272
37300SOL     OW60738  10.525   2.922   0.531
37300SOL    HW160739  10.595   2.854   0.508
37300SOL    HW260740  10.552   2.971   0.614
37301SOL     OW60741   3.787  13.158   7.486
37301SOL    HW160742   3.827  13.173   7.576
37301SOL    HW260743   3.799  13.062   7.460
37302SOL     OW60744   6.080  16.068   1.069
37302SOL    HW160745   5.990  16.101   1.041
37302SOL    HW260746   6.086  15.969   1.052
37303SOL     OW60747   1.783   4.768   8.091
37303SOL    HW160748   1.853   4.817   8.143
37303SOL    HW260749   1.756   4.822   8.012
37304SOL     OW60750   4.756   2.669   1.416
37304SOL    HW160751   4.717   2.701   1.330
37304SOL    HW260752   4.731   2.573   1.431
37305SOL     OW60753   2.039  11.848   1.995
37305SOL    HW160754   1.998  11.768   2.038
37305SOL    HW260755   1.969  11.900   1.947
37306SOL     OW60756   8.582  16.864   7.676
37306SOL    HW160757   8.598  16.791   7.610
37306SOL    HW260758   8.563  16.950   7.628
37307SOL     OW60759  14.717  10.856   0.343
37307SOL    HW160760  14.722  10.954   0.323
37307SOL    HW260761  14.732  10.804   0.259
37308SOL     OW60762  15.118  15.773   7.607
37308SOL    HW160763  15.031  15.758   7.560
37308SOL    HW260764  15.101  15.806   7.700
37309SOL     OW60765   0.643   7.829   7.666
37309SOL    HW160766   0.562   7.816   7.722
37309SOL    HW260767   0.657   7.748   7.609
37310SOL     OW60768  14.172   3.444   8.353
37310SOL    HW160769  14.083   3.403   8.376
37310SOL    HW260770  14.245   3.393   8.398
37311SOL     OW60771   7.077   5.239   0.457
37311SOL    HW160772   7.045   5.312   0.518
37311SOL    HW260773   7.003   5.215   0.394
37312SOL     OW60774  12.390   3.371   7.770
37312SOL    HW160775  12.489   3.360   7.772
37312SOL    HW260776  12.367   3.468   7.776
37313SOL     OW60777   1.869   4.313   1.172
37313SOL    HW160778   1.809   4.236   1.152
37313SOL    HW260779   1.878   4.324   1.271
37314SOL     OW60780  10.779  12.729   0.956
37314SOL    HW160781  10.828  12.805   0.998
37314SOL    HW260782  10.783  12.649   1.017
37315SOL     OW60783   9.058   7.252   0.395
37315SOL    HW160784   9.040   7.245   0.493
37315SOL    HW260785   9.144   7.205   0.374
37316SOL     OW60786  15.509   6.736   1.039
37316SOL    HW160787  15.576   6.696   1.102
37316SOL    HW260788  15.436   6.670   1.022
37317SOL     OW60789  13.376   0.876   0.286
37317SOL    HW160790  13.311   0.945   0.254
37317SOL    HW260791  13.464   0.888   0.240
37318SOL     OW60792  11.080   1.612   1.548
37318SOL    HW160793  11.147   1.628   1.476
37318SOL    HW260794  11.126   1.576   1.629
37319SOL     OW60795   1.725   8.845   6.714
37319SOL    HW160796   1.796   8.912   6.694
37319SOL    HW260797   1.759   8.753   6.694
37320SOL     OW60798   8.160  11.703   0.272
37320SOL    HW160799   8.099  11.781   0.275
37320SOL    HW260800   8.177  11.670   0.365
37321SOL     OW60801   2.180   5.963   1.174
37321SOL    HW160802   2.194   5.864   1.176
37321SOL    HW260803   2.187   5.995   1.080
37322SOL     OW60804  15.374  16.188   1.042
37322SOL    HW160805  15.292  16.132   1.034
37322SOL    HW260806  15.429  16.158   1.119
37323SOL     OW60807  14.033  12.291   7.825
37323SOL    HW160808  13.967  12.234   7.875
37323SOL    HW260809  14.051  12.374   7.878
37324SOL     OW60810  13.090  14.248   7.880
37324SOL    HW160811  13.181  14.275   7.848
37324SOL    HW260812  13.099  14.178   7.950
37325SOL     OW60813   2.844   6.749   7.382
37325SOL    HW160814   2.795   6.797   7.310
37325SOL    HW260815   2.942   6.750   7.362
37326SOL     OW60816   3.301   5.900   0.781
37326SOL    HW160817   3.295   5.929   0.877
37326SOL    HW260818   3.210   5.878   0.747
37327SOL     OW60819   5.846   9.287   0.046
37327SOL    HW160820   5.821   9.248   8.411
37327SOL    HW260821   5.893   9.374   0.032
37328SOL     OW60822  15.160   6.150   8.202
37328SOL    HW160823  15.107   6.068   8.220
37328SOL    HW260824  15.192   6.189   8.288
37329SOL     OW60825   1.490   0.776   7.137
37329SOL    HW160826   1.563   0.840   7.114
37329SOL    HW260827   1.413   0.825   7.178
37330SOL     OW60828   7.746   9.038   7.044
37330SOL    HW160829   7.809   9.021   7.120
37330SOL    HW260830   7.768   8.976   6.968
37331SOL     OW60831   5.750   2.088   7.968
37331SOL    HW160832   5.661   2.095   8.012
37331SOL    HW260833   5.800   2.010   8.006
37332SOL     OW60834   9.343   6.328   6.969
37332SOL    HW160835   9.264   6.328   7.031
37332SOL    HW260836   9.385   6.419   6.970
37333SOL     OW60837   1.956   1.810   0.160
37333SOL    HW160838   1.900   1.891   0.175
37333SOL    HW260839   1.921   1.734   0.216
37334SOL     OW60840  12.503   2.855   7.216
37334SOL    HW160841  12.531   2.915   7.291
37334SOL    HW260842  12.582   2.834   7.159
37335SOL     OW60843   0.714   0.382   6.618
37335SOL    HW160844   0.727   0.372   6.520
37335SOL    HW260845   0.672   0.298   6.654
37336SOL     OW60846  14.579   5.133   6.084
37336SOL    HW160847  14.499   5.101   6.033
37336SOL    HW260848  14.640   5.056   6.102
37337SOL     OW60849   5.239   8.291   7.638
37337SOL    HW160850   5.217   8.219   7.704
37337SOL    HW260851   5.337   8.291   7.620
37338SOL     OW60852   0.651  13.136   7.831
37338SOL    HW160853   0.682  13.113   7.923
37338SOL    HW260854   0.552  13.142   7.829
37339SOL     OW60855   5.417  12.440   6.641
37339SOL    HW160856   5.404  12.377   6.717
37339SOL    HW260857   5.327  12.469   6.606
37340SOL     OW60858  14.960   1.829   0.499
37340SOL    HW160859  14.893   1.903   0.485
37340SOL    HW260860  15.048   1.869   0.526
37341SOL     OW60861  14.197   5.311   7.272
37341SOL    HW160862  14.250   5.271   7.198
37341SOL    HW260863  14.251   5.311   7.356
37342SOL     OW60864   3.112   3.173   8.223
37342SOL    HW160865   3.192   3.139   8.174
37342SOL    HW260866   3.117   3.273   8.228
37343SOL     OW60867   3.008  11.071   1.383
37343SOL    HW160868   3.067  10.996   1.413
37343SOL    HW260869   2.913  11.050   1.406
37344SOL     OW60870   5.148  16.953   1.204
37344SOL    HW160871   5.238  16.923   1.237
37344SOL    HW260872   5.077  16.913   1.261
37345SOL     OW60873  14.650   1.137   5.903
37345SOL    HW160874  14.686   1.043   5.903
37345SOL    HW260875  14.688   1.187   5.826
37346SOL     OW60876   0.932   8.432   7.248
37346SOL    HW160877   0.917   8.510   7.188
37346SOL    HW260878   0.979   8.360   7.197
37347SOL     OW60879   5.275   9.344   1.213
37347SOL    HW160880   5.269   9.255   1.169
37347SOL    HW260881   5.245   9.337   1.308
37348SOL     OW60882  12.062   6.400   1.799
37348SOL    HW160883  11.980   6.342   1.802
37348SOL    HW260884  12.096   6.413   1.892
37349SOL     OW60885  12.744   9.710   0.908
37349SOL    HW160886  12.708   9.670   0.823
37349SOL    HW260887  12.668   9.728   0.970
37350SOL     OW60888  10.938   7.664   1.151
37350SOL    HW160889  10.952   7.584   1.209
37350SOL    HW260890  10.840   7.677   1.135
37351SOL     OW60891   4.630   0.488   1.795
37351SOL    HW160892   4.719   0.512   1.756
37351SOL    HW260893   4.624   0.524   1.888
37352SOL     OW60894   9.405   1.080   1.114
37352SOL    HW160895   9.418   0.985   1.142
37352SOL    HW260896   9.493   1.120   1.089
37353SOL     OW60897   6.812  11.370   1.284
37353SOL    HW160898   6.872  11.295   1.313
37353SOL    HW260899   6.723  11.333   1.256
37354SOL     OW60900   8.747   2.996   7.715
37354SOL    HW160901   8.784   2.938   7.788
37354SOL    HW260902   8.796   2.977   7.629
37355SOL     OW60903   0.419   5.261   6.282
37355SOL    HW160904   0.442   5.309   6.367
37355SOL    HW260905   0.465   5.305   6.205
37356SOL     OW60906  10.338  11.234   7.480
37356SOL    HW160907  10.371  11.170   7.548
37356SOL    HW260908  10.374  11.210   7.390
37357SOL     OW60909  16.466   8.004   7.849
37357SOL    HW160910  16.480   8.103   7.859
37357SOL    HW260911  16.511   7.972   7.766
37358SOL     OW60912   0.275   4.432   1.068
37358SOL    HW160913   0.230   4.417   0.979
37358SOL    HW260914   0.206   4.431   1.140
37359SOL     OW60915   2.949  12.694   7.090
37359SOL    HW160916   2.990  12.715   7.002
37359SOL    HW260917   3.007  12.731   7.163
37360SOL     OW60918   6.133  13.110   1.361
37360SOL    HW160919   6.168  13.022   1.331
37360SOL    HW260920   6.058  13.096   1.426
37361SOL     OW60921   3.162   0.795   2.783
37361SOL    HW160922   3.221   0.776   2.861
37361SOL    HW260923   3.070   0.816   2.815
37362SOL     OW60924   2.231  14.696   0.132
37362SOL    HW160925   2.282  14.644   0.064
37362SOL    HW260926   2.215  14.639   0.213
37363SOL     OW60927  14.425  13.338   1.676
37363SOL    HW160928  14.447  13.316   1.771
37363SOL    HW260929  14.508  13.332   1.621
37364SOL     OW60930  13.132   8.809   6.925
37364SOL    HW160931  13.154   8.847   6.835
37364SOL    HW260932  13.217   8.781   6.971
37365SOL     OW60933   6.748   0.539   7.528
37365SOL    HW160934   6.836   0.565   7.488
37365SOL    HW260935   6.696   0.621   7.550
37366SOL     OW60936  12.351   1.677   7.847
37366SOL    HW160937  12.409   1.746   7.892
37366SOL    HW260938  12.384   1.660   7.755
37367SOL     OW60939   2.848  15.825   7.708
37367SOL    HW160940   2.818  15.743   7.758
37367SOL    HW260941   2.947  15.820   7.692
37368SOL     OW60942   8.029   9.487   8.330
37368SOL    HW160943   8.022   9.389   8.349
37368SOL    HW260944   8.072   9.532   8.408
37369SOL     OW60945  15.087   4.852   0.311
37369SOL    HW160946  15.074   4.926   0.377
37369SOL    HW260947  15.185   4.834   0.300
37370SOL     OW60948   6.816  13.566   1.247
37370SOL    HW160949   6.738  13.565   1.309
37370SOL    HW260950   6.899  13.544   1.299
37371SOL     OW60951   3.929  11.449   0.847
37371SOL    HW160952   3.904  11.436   0.752
37371SOL    HW260953   3.948  11.546   0.864
37372SOL     OW60954   9.411  10.555   1.427
37372SOL    HW160955   9.500  10.534   1.468
37372SOL    HW260956   9.377  10.475   1.379
37373SOL     OW60957  13.137   1.835   1.405
37373SOL    HW160958  13.104   1.928   1.390
37373SOL    HW260959  13.095   1.799   1.489
37374SOL     OW60960  11.714   9.242   7.601
37374SOL    HW160961  11.657   9.215   7.523
37374SOL    HW260962  11.775   9.167   7.625
37375SOL     OW60963   4.379   5.675   0.694
37375SOL    HW160964   4.328   5.654   0.777
37375SOL    HW260965   4.465   5.719   0.718
37376SOL     OW60966   8.784   9.084   8.108
37376SOL    HW160967   8.833   9.131   8.035
37376SOL    HW260968   8.695   9.054   8.076
37377SOL     OW60969   7.138   8.669   0.690
37377SOL    HW160970   7.116   8.765   0.709
37377SOL    HW260971   7.196   8.633   0.763
37378SOL     OW60972   7.265   6.013   6.055
37378SOL    HW160973   7.177   5.987   6.014
37378SOL    HW260974   7.304   5.933   6.102
37379SOL     OW60975   3.953  11.531   1.971
37379SOL    HW160976   3.981  11.513   2.065
37379SOL    HW260977   4.025  11.582   1.924
37380SOL     OW60978  16.024   0.169   0.904
37380SOL    HW160979  15.991   0.122   0.822
37380SOL    HW260980  16.106   0.221   0.882
37381SOL     OW60981  10.233  14.652   1.081
37381SOL    HW160982  10.210  14.559   1.106
37381SOL    HW260983  10.248  14.657   0.982
37382SOL     OW60984   6.632   7.676   6.040
37382SOL    HW160985   6.672   7.692   5.950
37382SOL    HW260986   6.536   7.703   6.039
37383SOL     OW60987  11.336   4.324   7.705
37383SOL    HW160988  11.265   4.277   7.757
37383SOL    HW260989  11.381   4.391   7.763
37384SOL     OW60990   7.794  14.542   6.680
37384SOL    HW160991   7.823  14.463   6.626
37384SOL    HW260992   7.852  14.551   6.761
37385SOL     OW60993   7.887   0.145   7.713
37385SOL    HW160994   7.857   0.050   7.715
37385SOL    HW260995   7.874   0.182   7.621
37386SOL     OW60996   0.622   9.560   7.052
37386SOL    HW160997   0.715   9.593   7.063
37386SOL    HW260998   0.619   9.490   6.980
37387SOL     OW60999  13.405   0.758   1.409
37387SOL    HW161000  13.379   0.757   1.506
37387SOL    HW261001  13.348   0.824   1.360
37388SOL     OW61002   6.392  15.949   0.389
37388SOL    HW161003   6.451  15.936   0.310
37388SOL    HW261004   6.448  15.973   0.469
37389SOL     OW61005   1.654  14.814   7.221
37389SOL    HW161006   1.634  14.910   7.201
37389SOL    HW261007   1.570  14.767   7.246
37390SOL     OW61008   4.517  15.801   0.911
37390SOL    HW161009   4.613  15.819   0.930
37390SOL    HW261010   4.493  15.838   0.821
37391SOL     OW61011  15.612   4.107   1.073
37391SOL    HW161012  15.528   4.055   1.055
37391SOL    HW261013  15.599   4.163   1.154
37392SOL     OW61014  12.771  14.327   1.049
37392SOL    HW161015  12.675  14.305   1.030
37392SOL    HW261016  12.830  14.257   1.009
37393SOL     OW61017   1.224   9.677   2.564
37393SOL    HW161018   1.261   9.606   2.624
37393SOL    HW261019   1.184   9.750   2.619
37394SOL     OW61020   6.993   2.326   0.618
37394SOL    HW161021   6.953   2.257   0.678
37394SOL    HW261022   6.937   2.334   0.536
37395SOL     OW61023  11.600   9.626   0.732
37395SOL    HW161024  11.634   9.626   0.638
37395SOL    HW261025  11.671   9.661   0.793
37396SOL     OW61026   7.862   5.834   0.630
37396SOL    HW161027   7.953   5.874   0.637
37396SOL    HW261028   7.794   5.908   0.627
37397SOL     OW61029   5.356  11.943   6.953
37397SOL    HW161030   5.289  11.929   7.025
37397SOL    HW261031   5.432  11.998   6.989
37398SOL     OW61032   3.401  10.694   7.318
37398SOL    HW161033   3.462  10.615   7.310
37398SOL    HW261034   3.318  10.667   7.368
37399SOL     OW61035   5.153  15.558   1.891
37399SOL    HW161036   5.064  15.589   1.925
37399SOL    HW261037   5.143  15.519   1.800
37400SOL     OW61038   4.309  11.876   7.807
37400SOL    HW161039   4.287  11.935   7.729
37400SOL    HW261040   4.236  11.808   7.819
37401SOL     OW61041  12.231   2.081   7.231
37401SOL    HW161042  12.272   1.990   7.235
37401SOL    HW261043  12.133   2.073   7.213
37402SOL     OW61044   1.554  13.957   2.025
37402SOL    HW161045   1.479  13.957   2.090
37402SOL    HW261046   1.539  14.029   1.956
37403SOL     OW61047   5.527  11.844   1.180
37403SOL    HW161048   5.477  11.760   1.204
37403SOL    HW261049   5.514  11.864   1.083
37404SOL     OW61050  10.801   2.582   7.720
37404SOL    HW161051  10.736   2.527   7.668
37404SOL    HW261052  10.756   2.666   7.751
37405SOL     OW61053   2.233   2.687   1.341
37405SOL    HW161054   2.190   2.716   1.427
37405SOL    HW261055   2.286   2.603   1.357
37406SOL     OW61056   8.576   2.289   7.460
37406SOL    HW161057   8.537   2.200   7.483
37406SOL    HW261058   8.515   2.338   7.397
37407SOL     OW61059  11.674  15.458   1.262
37407SOL    HW161060  11.655  15.363   1.235
37407SOL    HW261061  11.763  15.463   1.308
37408SOL     OW61062   8.872   7.066   0.291
37408SOL    HW161063   8.792   7.095   0.237
37408SOL    HW261064   8.928   7.145   0.313
37409SOL     OW61065   4.083   6.850   0.114
37409SOL    HW161066   4.115   6.804   0.197
37409SOL    HW261067   4.152   6.917   0.086
37410SOL     OW61068  16.848   3.120   0.304
37410SOL    HW161069  16.786   3.198   0.311
37410SOL    HW261070  16.940   3.151   0.285
37411SOL     OW61071  11.865   2.535   7.693
37411SOL    HW161072  11.906   2.530   7.602
37411SOL    HW261073  11.796   2.607   7.694
37412SOL     OW61074  10.282  16.973   1.347
37412SOL    HW161075  10.254   0.086   1.340
37412SOL    HW261076  10.368  16.960   1.299
37413SOL     OW61077   1.224   5.690   7.045
37413SOL    HW161078   1.301   5.629   7.062
37413SOL    HW261079   1.206   5.746   7.127
37414SOL     OW61080   1.608  15.686   7.523
37414SOL    HW161081   1.591  15.749   7.447
37414SOL    HW261082   1.611  15.593   7.488
37415SOL     OW61083  16.657  11.516   0.465
37415SOL    HW161084  16.591  11.447   0.437
37415SOL    HW261085  16.657  11.524   0.565
37416SOL     OW61086   3.044   7.649   6.729
37416SOL    HW161087   3.141   7.674   6.720
37416SOL    HW261088   3.016   7.600   6.646
37417SOL     OW61089   7.207  14.299   7.410
37417SOL    HW161090   7.274  14.328   7.343
37417SOL    HW261091   7.230  14.207   7.443
37418SOL     OW61092   6.340   2.696   0.677
37418SOL    HW161093   6.390   2.645   0.608
37418SOL    HW261094   6.245   2.666   0.679
37419SOL     OW61095  12.632  12.229   2.117
37419SOL    HW161096  12.605  12.139   2.154
37419SOL    HW261097  12.696  12.273   2.179
37420SOL     OW61098  10.541   5.199   7.260
37420SOL    HW161099  10.585   5.173   7.174
37420SOL    HW261100  10.562   5.295   7.281
37421SOL     OW61101   6.024   2.307   8.155
37421SOL    HW161102   6.059   2.380   8.213
37421SOL    HW261103   5.941   2.337   8.109
37422SOL     OW61104   1.594   2.145   0.092
37422SOL    HW161105   1.508   2.106   0.126
37422SOL    HW261106   1.603   2.125   8.448
37423SOL     OW61107   0.372   5.514   1.160
37423SOL    HW161108   0.383   5.611   1.139
37423SOL    HW261109   0.386   5.499   1.258
37424SOL     OW61110  10.776  15.211   7.459
37424SOL    HW161111  10.745  15.164   7.542
37424SOL    HW261112  10.717  15.290   7.442
37425SOL     OW61113   9.481  10.858   1.860
37425SOL    HW161114   9.505  10.762   1.848
37425SOL    HW261115   9.561  10.909   1.891
37426SOL     OW61116  13.067   5.387   8.249
37426SOL    HW161117  12.979   5.434   8.251
37426SOL    HW261118  13.077   5.332   8.332
37427SOL     OW61119  13.841   6.380   8.252
37427SOL    HW161120  13.858   6.283   8.273
37427SOL    HW261121  13.836   6.392   8.153
37428SOL     OW61122   1.578  15.510   0.046
37428SOL    HW161123   1.626  15.455   8.432
37428SOL    HW261124   1.528  15.450   0.109
37429SOL     OW61125   9.606   1.336   1.497
37429SOL    HW161126   9.620   1.244   1.458
37429SOL    HW261127   9.601   1.403   1.423
37430SOL     OW61128   3.581   4.539   7.602
37430SOL    HW161129   3.593   4.518   7.505
37430SOL    HW261130   3.669   4.561   7.642
37431SOL     OW61131  10.806   1.292   5.986
37431SOL    HW161132  10.853   1.352   5.921
37431SOL    HW261133  10.836   1.198   5.972
37432SOL     OW61134   5.121   0.217   0.007
37432SOL    HW161135   5.218   0.213   8.439
37432SOL    HW261136   5.105   0.176   0.097
37433SOL     OW61137  10.378   6.659   1.800
37433SOL    HW161138  10.397   6.726   1.871
37433SOL    HW261139  10.412   6.569   1.829
37434SOL     OW61140   9.331   0.542   6.344
37434SOL    HW161141   9.298   0.451   6.321
37434SOL    HW261142   9.420   0.557   6.301
37435SOL     OW61143   0.583   7.972   8.263
37435SOL    HW161144   0.619   7.897   8.318
37435SOL    HW261145   0.638   8.054   8.277
37436SOL     OW61146   2.123  13.125   7.112
37436SOL    HW161147   2.127  13.222   7.133
37436SOL    HW261148   2.059  13.109   7.037
37437SOL     OW61149  13.742   5.851   0.981
37437SOL    HW161150  13.816   5.797   0.941
37437SOL    HW261151  13.777   5.907   1.056
37438SOL     OW61152   1.450   8.462   7.247
37438SOL    HW161153   1.547   8.482   7.260
37438SOL    HW261154   1.408   8.439   7.335
37439SOL     OW61155  16.921   2.042   8.289
37439SOL    HW161156   0.025   1.998   8.309
37439SOL    HW261157  16.849   1.998   8.342
37440SOL     OW61158  10.487  11.098   7.262
37440SOL    HW161159  10.537  11.176   7.226
37440SOL    HW261160  10.409  11.078   7.203
37441SOL     OW61161   8.963  14.143   2.290
37441SOL    HW161162   8.984  14.240   2.281
37441SOL    HW261163   8.919  14.126   2.378
37442SOL     OW61164  15.376   2.553   1.446
37442SOL    HW161165  15.454   2.604   1.482
37442SOL    HW261166  15.303   2.551   1.514
37443SOL     OW61167   3.602   3.451   8.345
37443SOL    HW161168   3.644   3.482   8.430
37443SOL    HW261169   3.516   3.500   8.329
37444SOL     OW61170  14.481  11.922   1.421
37444SOL    HW161171  14.557  11.900   1.360
37444SOL    HW261172  14.516  11.970   1.501
37445SOL     OW61173  13.480   0.141   6.047
37445SOL    HW161174  13.568   0.166   6.007
37445SOL    HW261175  13.425   0.093   5.979
37446SOL     OW61176  16.631   8.607   8.385
37446SOL    HW161177  16.588   8.613   8.295
37446SOL    HW261178  16.728   8.583   8.374
37447SOL     OW61179   5.505   6.774   0.495
37447SOL    HW161180   5.409   6.767   0.525
37447SOL    HW261181   5.555   6.833   0.558
37448SOL     OW61182   7.396  15.513   0.387
37448SOL    HW161183   7.362  15.446   0.321
37448SOL    HW261184   7.359  15.603   0.365
37449SOL     OW61185   5.347   4.598   8.356
37449SOL    HW161186   5.289   4.526   8.319
37449SOL    HW261187   5.306   4.687   8.336
37450SOL     OW61188   0.031  13.870   0.515
37450SOL    HW161189  16.946  13.928   0.558
37450SOL    HW261190   0.100  13.926   0.469
37451SOL     OW61191  16.271   0.261   7.316
37451SOL    HW161192  16.173   0.278   7.310
37451SOL    HW261193  16.295   0.183   7.259
37452SOL     OW61194   9.658   0.895   8.057
37452SOL    HW161195   9.722   0.966   8.027
37452SOL    HW261196   9.627   0.843   7.977
37453SOL     OW61197   6.237   0.137   0.183
37453SOL    HW161198   6.277   0.083   0.109
37453SOL    HW261199   6.232   0.233   0.154
37454SOL     OW61200  13.475   6.671   8.165
37454SOL    HW161201  13.486   6.769   8.177
37454SOL    HW261202  13.385   6.642   8.201
37455SOL     OW61203  13.084   7.176   6.325
37455SOL    HW161204  13.137   7.209   6.247
37455SOL    HW261205  12.989   7.207   6.316
37456SOL     OW61206  16.112   6.431   7.136
37456SOL    HW161207  16.044   6.357   7.135
37456SOL    HW261208  16.195   6.399   7.182
37457SOL     OW61209   0.897   2.236   1.268
37457SOL    HW161210   0.939   2.327   1.273
37457SOL    HW261211   0.892   2.196   1.359
37458SOL     OW61212  13.034   3.867   0.996
37458SOL    HW161213  13.066   3.782   1.037
37458SOL    HW261214  13.065   3.944   1.052
37459SOL     OW61215  15.307  11.108   6.609
37459SOL    HW161216  15.324  11.207   6.605
37459SOL    HW261217  15.312  11.070   6.517
37460SOL     OW61218   7.678  10.004   6.703
37460SOL    HW161219   7.718  10.085   6.659
37460SOL    HW261220   7.582   9.995   6.675
37461SOL     OW61221   7.300  13.257   7.478
37461SOL    HW161222   7.259  13.347   7.491
37461SOL    HW261223   7.342  13.252   7.388
37462SOL     OW61224  16.417   0.229   6.352
37462SOL    HW161225  16.436   0.146   6.405
37462SOL    HW261226  16.493   0.245   6.288
37463SOL     OW61227   9.106   2.580   0.892
37463SOL    HW161228   9.116   2.582   0.992
37463SOL    HW261229   9.067   2.492   0.865
37464SOL     OW61230   0.557   8.121   7.437
37464SOL    HW161231   0.646   8.079   7.453
37464SOL    HW261232   0.500   8.111   7.519
37465SOL     OW61233   9.530   8.126   0.953
37465SOL    HW161234   9.482   8.133   1.040
37465SOL    HW261235   9.548   8.030   0.932
37466SOL     OW61236   5.061  13.498   7.638
37466SOL    HW161237   5.076  13.401   7.620
37466SOL    HW261238   5.127  13.530   7.706
37467SOL     OW61239   5.027  10.573   7.228
37467SOL    HW161240   4.969  10.627   7.166
37467SOL    HW261241   5.087  10.635   7.278
37468SOL     OW61242   4.797   4.882   7.330
37468SOL    HW161243   4.726   4.816   7.305
37468SOL    HW261244   4.821   4.936   7.249
37469SOL     OW61245   4.110   9.042   1.526
37469SOL    HW161246   4.209   9.037   1.515
37469SOL    HW261247   4.086   9.131   1.565
37470SOL     OW61248  14.343  14.989   8.404
37470SOL    HW161249  14.410  15.038   0.005
37470SOL    HW261250  14.257  14.982   0.001
37471SOL     OW61251  14.116   4.997   0.351
37471SOL    HW161252  14.135   5.006   0.253
37471SOL    HW261253  14.089   4.903   0.371
37472SOL     OW61254  15.563  14.822   0.376
37472SOL    HW161255  15.487  14.807   0.439
37472SOL    HW261256  15.532  14.808   0.282
37473SOL     OW61257   1.256  13.150   8.281
37473SOL    HW161258   1.234  13.155   8.378
37473SOL    HW261259   1.353  13.172   8.268
37474SOL     OW61260  14.864   0.436   6.691
37474SOL    HW161261  14.957   0.398   6.688
37474SOL    HW261262  14.864   0.527   6.651
37475SOL     OW61263   8.407   2.945   0.563
37475SOL    HW161264   8.505   2.935   0.544
37475SOL    HW261265   8.388   2.911   0.655
37476SOL     OW61266   9.879   2.320   6.702
37476SOL    HW161267   9.906   2.228   6.733
37476SOL    HW261268   9.783   2.319   6.675
37477SOL     OW61269  10.336   6.275   7.038
37477SOL    HW161270  10.294   6.366   7.036
37477SOL    HW261271  10.269   6.209   7.072
37478SOL     OW61272  13.046   2.441   8.313
37478SOL    HW161273  13.033   2.424   8.216
37478SOL    HW261274  12.959   2.465   8.356
37479SOL     OW61275  16.973   5.971   8.242
37479SOL    HW161276   0.085   5.986   8.218
37479SOL    HW261277  16.938   5.890   8.195
37480SOL     OW61278   6.016  16.916   7.314
37480SOL    HW161279   6.111  16.886   7.302
37480SOL    HW261280   5.955  16.838   7.301
37481SOL     OW61281   2.358   9.754   7.633
37481SOL    HW161282   2.360   9.851   7.654
37481SOL    HW261283   2.347   9.741   7.534
37482SOL     OW61284  10.960   1.810   0.830
37482SOL    HW161285  11.053   1.821   0.866
37482SOL    HW261286  10.909   1.747   0.889
37483SOL     OW61287   6.457   6.477   0.298
37483SOL    HW161288   6.429   6.395   0.249
37483SOL    HW261289   6.555   6.471   0.319
37484SOL     OW61290   8.114  15.525   8.219
37484SOL    HW161291   8.050  15.556   8.289
37484SOL    HW261292   8.098  15.575   8.134
37485SOL     OW61293  14.781  13.490   1.138
37485SOL    HW161294  14.841  13.475   1.059
37485SOL    HW261295  14.816  13.438   1.216
37486SOL     OW61296   7.119   9.731   0.758
37486SOL    HW161297   7.089   9.822   0.731
37486SOL    HW261298   7.040   9.676   0.784
37487SOL     OW61299   5.875  16.675   7.307
37487SOL    HW161300   5.809  16.689   7.232
37487SOL    HW261301   5.829  16.631   7.384
37488SOL     OW61302  15.511  13.992   7.645
37488SOL    HW161303  15.478  14.061   7.709
37488SOL    HW261304  15.446  13.984   7.569
37489SOL     OW61305  14.140   3.704   1.767
37489SOL    HW161306  14.089   3.623   1.738
37489SOL    HW261307  14.177   3.688   1.859
37490SOL     OW61308  16.423   0.734   1.554
37490SOL    HW161309  16.491   0.774   1.493
37490SOL    HW261310  16.454   0.746   1.649
37491SOL     OW61311  11.513   3.261   0.344
37491SOL    HW161312  11.529   3.169   0.381
37491SOL    HW261313  11.550   3.329   0.407
37492SOL     OW61314   1.090  12.392   0.409
37492SOL    HW161315   1.113  12.390   0.312
37492SOL    HW261316   1.082  12.487   0.440
37493SOL     OW61317  15.853  10.914   7.218
37493SOL    HW161318  15.757  10.912   7.189
37493SOL    HW261319  15.859  10.881   7.312
37494SOL     OW61320   9.956   5.927   6.256
37494SOL    HW161321   9.896   5.962   6.185
37494SOL    HW261322   9.901   5.883   6.327
37495SOL     OW61323  14.139   1.662   8.185
37495SOL    HW161324  14.204   1.615   8.125
37495SOL    HW261325  14.053   1.611   8.187
37496SOL     OW61326   9.194  16.966   7.926
37496SOL    HW161327   9.203   0.020   7.833
37496SOL    HW261328   9.231  16.873   7.928
37497SOL     OW61329   5.354  11.022   0.021
37497SOL    HW161330   5.349  10.924   0.037
37497SOL    HW261331   5.269  11.065   0.051
37498SOL     OW61332  15.117  12.573   0.526
37498SOL    HW161333  15.047  12.515   0.568
37498SOL    HW261334  15.079  12.665   0.511
37499SOL     OW61335  13.199  12.854   7.231
37499SOL    HW161336  13.203  12.757   7.204
37499SOL    HW261337  13.265  12.872   7.303
37500SOL     OW61338  11.809  15.826   8.373
37500SOL    HW161339  11.822  15.781   8.285
37500SOL    HW261340  11.867  15.782   8.442
37501SOL     OW61341  12.708   5.334   8.075
37501SOL    HW161342  12.644   5.358   8.002
37501SOL    HW261343  12.667   5.262   8.132
37502SOL     OW61344   2.861   0.665   0.199
37502SOL    HW161345   2.786   0.656   0.133
37502SOL    HW261346   2.875   0.762   0.220
37503SOL     OW61347  15.386  13.742   8.373
37503SOL    HW161348  15.387  13.740   8.273
37503SOL    HW261349  15.428  13.827   8.405
37504SOL     OW61350  14.299  14.858   7.020
37504SOL    HW161351  14.251  14.781   6.978
37504SOL    HW261352  14.393  14.832   7.040
37505SOL     OW61353   2.476  16.657   1.158
37505SOL    HW161354   2.484  16.754   1.134
37505SOL    HW261355   2.442  16.648   1.251
37506SOL     OW61356   3.937   7.273   1.106
37506SOL    HW161357   3.962   7.257   1.202
37506SOL    HW261358   3.984   7.207   1.048
37507SOL     OW61359   9.620  15.565   0.817
37507SOL    HW161360   9.678  15.556   0.736
37507SOL    HW261361   9.654  15.640   0.874
37508SOL     OW61362  10.190  14.506   1.981
37508SOL    HW161363  10.216  14.568   1.907
37508SOL    HW261364  10.218  14.545   2.068
37509SOL     OW61365   3.956   0.712   6.397
37509SOL    HW161366   3.964   0.811   6.389
37509SOL    HW261367   4.045   0.670   6.379
37510SOL     OW61368   5.934   0.585   7.027
37510SOL    HW161369   5.963   0.543   7.113
37510SOL    HW261370   5.835   0.597   7.027
37511SOL     OW61371  10.075   0.330   7.871
37511SOL    HW161372  10.159   0.280   7.853
37511SOL    HW261373  10.033   0.357   7.785
37512SOL     OW61374  13.612   8.379   1.746
37512SOL    HW161375  13.648   8.287   1.766
37512SOL    HW261376  13.680   8.430   1.693
37513SOL     OW61377   6.405   4.150   1.904
37513SOL    HW161378   6.477   4.158   1.973
37513SOL    HW261379   6.356   4.064   1.917
37514SOL     OW61380  10.792   8.243   2.235
37514SOL    HW161381  10.855   8.177   2.193
37514SOL    HW261382  10.721   8.193   2.285
37515SOL     OW61383  11.974   3.184   8.293
37515SOL    HW161384  11.955   3.103   8.348
37515SOL    HW261385  12.072   3.196   8.283
37516SOL     OW61386  11.485  13.999   1.100
37516SOL    HW161387  11.549  14.033   1.031
37516SOL    HW261388  11.513  14.031   1.190
37517SOL     OW61389   7.700   4.077   0.190
37517SOL    HW161390   7.687   4.072   0.091
37517SOL    HW261391   7.618   4.115   0.233
37518SOL     OW61392   1.035  14.154   0.901
37518SOL    HW161393   1.100  14.221   0.936
37518SOL    HW261394   1.067  14.118   0.813
37519SOL     OW61395  12.424  14.751   6.593
37519SOL    HW161396  12.368  14.679   6.552
37519SOL    HW261397  12.509  14.760   6.543
37520SOL     OW61398  15.835   6.522   0.976
37520SOL    HW161399  15.782   6.560   1.052
37520SOL    HW261400  15.874   6.435   1.003
37521SOL     OW61401  12.588   5.540   0.113
37521SOL    HW161402  12.517   5.507   0.051
37521SOL    HW261403  12.672   5.487   0.099
37522SOL     OW61404   2.353   1.956   6.905
37522SOL    HW161405   2.342   1.864   6.869
37522SOL    HW261406   2.403   2.013   6.840
37523SOL     OW61407   2.153   9.232   2.342
37523SOL    HW161408   2.161   9.149   2.396
37523SOL    HW261409   2.244   9.271   2.327
37524SOL     OW61410   1.571  13.460   0.956
37524SOL    HW161411   1.614  13.380   0.998
37524SOL    HW261412   1.622  13.542   0.982
37525SOL     OW61413  12.349  10.784   7.312
37525SOL    HW161414  12.447  10.791   7.329
37525SOL    HW261415  12.300  10.836   7.382
37526SOL     OW61416   8.189   5.078   7.488
37526SOL    HW161417   8.282   5.110   7.510
37526SOL    HW261418   8.195   5.003   7.422
37527SOL     OW61419  16.138  12.732   8.311
37527SOL    HW161420  16.039  12.744   8.325
37527SOL    HW261421  16.184  12.727   8.399
37528SOL     OW61422   6.598   9.150   0.929
37528SOL    HW161423   6.522   9.138   0.994
37528SOL    HW261424   6.637   9.060   0.908
37529SOL     OW61425  16.129  10.907   8.293
37529SOL    HW161426  16.046  10.947   8.253
37529SOL    HW261427  16.104  10.845   8.366
37530SOL     OW61428  11.079   5.389   7.969
37530SOL    HW161429  11.057   5.462   7.905
37530SOL    HW261430  11.163   5.411   8.018
37531SOL     OW61431   6.112  15.281   1.504
37531SOL    HW161432   6.188  15.310   1.562
37531SOL    HW261433   6.033  15.260   1.561
37532SOL     OW61434  12.044   0.431   0.848
37532SOL    HW161435  12.012   0.343   0.884
37532SOL    HW261436  11.972   0.471   0.791
37533SOL     OW61437  15.760  15.866   1.466
37533SOL    HW161438  15.767  15.778   1.514
37533SOL    HW261439  15.712  15.853   1.380
37534SOL     OW61440   1.405   5.456   7.979
37534SOL    HW161441   1.410   5.522   7.904
37534SOL    HW261442   1.324   5.475   8.035
37535SOL     OW61443  11.286  14.511   0.628
37535SOL    HW161444  11.281  14.594   0.684
37535SOL    HW261445  11.232  14.439   0.671
37536SOL     OW61446  16.216   5.111   0.196
37536SOL    HW161447  16.219   5.189   0.133
37536SOL    HW261448  16.307   5.096   0.234
37537SOL     OW61449   2.540   1.698   2.378
37537SOL    HW161450   2.532   1.786   2.426
37537SOL    HW261451   2.534   1.624   2.444
37538SOL     OW61452   2.492  14.689   0.330
37538SOL    HW161453   2.417  14.624   0.344
37538SOL    HW261454   2.533  14.672   0.241
37539SOL     OW61455   7.074  11.866   0.195
37539SOL    HW161456   7.062  11.767   0.195
37539SOL    HW261457   6.993  11.909   0.156
37540SOL     OW61458  12.995   8.181   6.903
37540SOL    HW161459  13.042   8.187   6.815
37540SOL    HW261460  13.003   8.269   6.950
37541SOL     OW61461  10.965  15.272   0.526
37541SOL    HW161462  10.926  15.317   0.607
37541SOL    HW261463  10.927  15.314   0.444
37542SOL     OW61464  14.648  10.292   1.731
37542SOL    HW161465  14.647  10.192   1.719
37542SOL    HW261466  14.568  10.331   1.687
37543SOL     OW61467   9.936   1.251   8.407
37543SOL    HW161468   9.964   1.248   0.049
37543SOL    HW261469  10.014   1.279   8.351
37544SOL     OW61470   9.073   1.396   8.287
37544SOL    HW161471   9.077   1.296   8.288
37544SOL    HW261472   9.096   1.429   8.195
37545SOL     OW61473   7.926   3.812   7.883
37545SOL    HW161474   7.827   3.811   7.872
37545SOL    HW261475   7.966   3.886   7.829
37546SOL     OW61476  11.000   7.753   6.474
37546SOL    HW161477  10.988   7.850   6.493
37546SOL    HW261478  11.096   7.728   6.485
37547SOL     OW61479   2.398  15.208   2.041
37547SOL    HW161480   2.340  15.213   1.960
37547SOL    HW261481   2.423  15.300   2.070
37548SOL     OW61482  14.935  10.705   7.560
37548SOL    HW161483  14.836  10.701   7.577
37548SOL    HW261484  14.983  10.661   7.636
37549SOL     OW61485   5.763  14.995   8.243
37549SOL    HW161486   5.686  14.994   8.179
37549SOL    HW261487   5.847  15.019   8.194
37550SOL     OW61488   9.912   5.011   6.269
37550SOL    HW161489   9.915   5.018   6.369
37550SOL    HW261490   9.818   5.024   6.237
37551SOL     OW61491  12.064   4.843   1.222
37551SOL    HW161492  11.965   4.832   1.219
37551SOL    HW261493  12.106   4.763   1.263
37552SOL     OW61494   3.231  14.863   7.018
37552SOL    HW161495   3.204  14.852   6.922
37552SOL    HW261496   3.170  14.810   7.076
37553SOL     OW61497   9.912  16.214   0.293
37553SOL    HW161498   9.932  16.203   0.195
37553SOL    HW261499   9.996  16.239   0.341
37554SOL     OW61500   5.000   4.280   7.248
37554SOL    HW161501   5.089   4.264   7.205
37554SOL    HW261502   4.963   4.193   7.282
37555SOL     OW61503  16.299  15.849   7.168
37555SOL    HW161504  16.311  15.946   7.188
37555SOL    HW261505  16.202  15.825   7.175
37556SOL     OW61506   7.698  15.938   6.278
37556SOL    HW161507   7.640  15.861   6.252
37556SOL    HW261508   7.791  15.906   6.295
37557SOL     OW61509   9.005   4.695   1.256
37557SOL    HW161510   9.001   4.697   1.355
37557SOL    HW261511   8.940   4.628   1.220
37558SOL     OW61512  12.900   5.007   0.785
37558SOL    HW161513  12.809   5.015   0.745
37558SOL    HW261514  12.948   4.929   0.745
37559SOL     OW61515   2.717   5.417   6.987
37559SOL    HW161516   2.775   5.441   6.909
37559SOL    HW261517   2.637   5.366   6.955
37560SOL     OW61518   0.377   4.151   7.525
37560SOL    HW161519   0.327   4.191   7.602
37560SOL    HW261520   0.370   4.052   7.529
37561SOL     OW61521  16.658  13.377   1.042
37561SOL    HW161522  16.727  13.448   1.026
37561SOL    HW261523  16.567  13.420   1.044
37562SOL     OW61524  10.604   6.380   7.235
37562SOL    HW161525  10.615   6.442   7.158
37562SOL    HW261526  10.694   6.356   7.271
37563SOL     OW61527   3.107   5.399   6.382
37563SOL    HW161528   3.062   5.356   6.304
37563SOL    HW261529   3.158   5.480   6.351
37564SOL     OW61530   8.821  10.781   1.264
37564SOL    HW161531   8.794  10.772   1.360
37564SOL    HW261532   8.745  10.753   1.205
37565SOL     OW61533   9.287  15.227   0.578
37565SOL    HW161534   9.247  15.164   0.645
37565SOL    HW261535   9.213  15.267   0.523
37566SOL     OW61536  10.140  12.125   6.924
37566SOL    HW161537  10.187  12.177   6.853
37566SOL    HW261538  10.059  12.081   6.885
37567SOL     OW61539   9.017  11.732   1.933
37567SOL    HW161540   9.093  11.731   1.998
37567SOL    HW261541   8.953  11.805   1.957
37568SOL     OW61542  10.199  16.653   0.044
37568SOL    HW161543  10.170  16.670   8.404
37568SOL    HW261544  10.273  16.716   0.069
37569SOL     OW61545   2.412  15.073   8.082
37569SOL    HW161546   2.323  15.082   8.037
37569SOL    HW261547   2.407  15.004   8.154
37570SOL     OW61548  15.452   8.634   8.123
37570SOL    HW161549  15.431   8.731   8.134
37570SOL    HW261550  15.367   8.581   8.125
37571SOL     OW61551  15.375  14.653   6.171
37571SOL    HW161552  15.472  14.660   6.151
37571SOL    HW261553  15.323  14.700   6.099
37572SOL     OW61554   4.389  16.147   2.570
37572SOL    HW161555   4.411  16.077   2.638
37572SOL    HW261556   4.464  16.214   2.568
37573SOL     OW61557   6.273   7.879   0.201
37573SOL    HW161558   6.251   7.784   0.180
37573SOL    HW261559   6.364   7.902   0.166
37574SOL     OW61560   5.386  12.310   0.427
37574SOL    HW161561   5.464  12.287   0.370
37574SOL    HW261562   5.344  12.395   0.394
37575SOL     OW61563   4.964  16.853   1.953
37575SOL    HW161564   4.891  16.916   1.978
37575SOL    HW261565   4.952  16.767   2.003
37576SOL     OW61566  14.860  11.738   1.785
37576SOL    HW161567  14.952  11.759   1.819
37576SOL    HW261568  14.861  11.736   1.685
37577SOL     OW61569   7.208   2.436   7.031
37577SOL    HW161570   7.234   2.531   7.013
37577SOL    HW261571   7.124   2.435   7.086
37578SOL     OW61572   6.219  12.278   0.248
37578SOL    HW161573   6.157  12.279   0.169
37578SOL    HW261574   6.308  12.244   0.220
37579SOL     OW61575   8.534   7.966   1.566
37579SOL    HW161576   8.504   7.872   1.576
37579SOL    HW261577   8.599   7.973   1.490
37580SOL     OW61578  14.478  13.941   0.255
37580SOL    HW161579  14.403  13.914   0.195
37580SOL    HW261580  14.444  14.004   0.324
37581SOL     OW61581  10.935   4.418   0.776
37581SOL    HW161582  10.836   4.404   0.777
37581SOL    HW261583  10.981   4.330   0.770
37582SOL     OW61584   3.860  10.628   7.245
37582SOL    HW161585   3.912  10.659   7.165
37582SOL    HW261586   3.848  10.529   7.241
37583SOL     OW61587   2.253   5.093   7.794
37583SOL    HW161588   2.174   5.153   7.783
37583SOL    HW261589   2.332   5.132   7.747
37584SOL     OW61590  15.346  13.480   7.502
37584SOL    HW161591  15.341  13.382   7.519
37584SOL    HW261592  15.332  13.499   7.405
37585SOL     OW61593  10.322  14.936   6.861
37585SOL    HW161594  10.388  14.864   6.838
37585SOL    HW261595  10.293  14.925   6.956
37586SOL     OW61596  15.194   5.707   7.236
37586SOL    HW161597  15.268   5.644   7.212
37586SOL    HW261598  15.224   5.801   7.220
37587SOL     OW61599  10.019  10.987   6.675
37587SOL    HW161600   9.962  11.033   6.607
37587SOL    HW261601  10.115  11.009   6.659
37588SOL     OW61602  13.862   1.778   0.849
37588SOL    HW161603  13.812   1.865   0.858
37588SOL    HW261604  13.886   1.744   0.939
37589SOL     OW61605   5.891   6.095   1.336
37589SOL    HW161606   5.835   6.023   1.293
37589SOL    HW261607   5.971   6.053   1.379
37590SOL     OW61608  10.499  13.318   1.364
37590SOL    HW161609  10.531  13.224   1.379
37590SOL    HW261610  10.539  13.378   1.434
37591SOL     OW61611   5.411   7.720   0.804
37591SOL    HW161612   5.348   7.677   0.869
37591SOL    HW261613   5.360   7.783   0.745
37592SOL     OW61614  10.137   3.777   1.393
37592SOL    HW161615  10.163   3.747   1.485
37592SOL    HW261616  10.106   3.872   1.396
37593SOL     OW61617   6.911  14.432   7.755
37593SOL    HW161618   7.001  14.407   7.719
37593SOL    HW261619   6.881  14.517   7.712
37594SOL     OW61620   8.198  12.776   0.539
37594SOL    HW161621   8.131  12.702   0.539
37594SOL    HW261622   8.208  12.812   0.446
37595SOL     OW61623   7.087   5.503   7.889
37595SOL    HW161624   7.057   5.588   7.932
37595SOL    HW261625   7.185   5.490   7.907
37596SOL     OW61626  10.264  16.484   0.704
37596SOL    HW161627  10.224  16.573   0.723
37596SOL    HW261628  10.218  16.442   0.626
37597SOL     OW61629  13.291  16.038   0.002
37597SOL    HW161630  13.256  16.129   8.431
37597SOL    HW261631  13.222  15.990   0.057
37598SOL     OW61632   7.337   5.037   6.630
37598SOL    HW161633   7.420   5.074   6.670
37598SOL    HW261634   7.361   4.971   6.559
37599SOL     OW61635  13.992  13.236   1.960
37599SOL    HW161636  13.923  13.174   1.922
37599SOL    HW261637  13.951  13.326   1.975
37600SOL     OW61638   5.028  13.089   1.191
37600SOL    HW161639   5.038  13.045   1.280
37600SOL    HW261640   5.118  13.113   1.155
37601SOL     OW61641   3.553   6.364   7.851
37601SOL    HW161642   3.458   6.383   7.876
37601SOL    HW261643   3.607   6.448   7.859
37602SOL     OW61644  12.705   7.114   0.130
37602SOL    HW161645  12.645   7.071   0.063
37602SOL    HW261646  12.666   7.202   0.158
37603SOL     OW61647  12.822   7.351   6.775
37603SOL    HW161648  12.839   7.269   6.721
37603SOL    HW261649  12.896   7.363   6.842
37604SOL     OW61650   1.501  11.550   1.921
37604SOL    HW161651   1.531  11.483   1.989
37604SOL    HW261652   1.556  11.539   1.838
37605SOL     OW61653   1.993   6.340   1.086
37605SOL    HW161654   1.927   6.268   1.108
37605SOL    HW261655   1.995   6.408   1.159
37606SOL     OW61656   8.514   1.612   0.198
37606SOL    HW161657   8.424   1.621   0.242
37606SOL    HW261658   8.581   1.584   0.266
37607SOL     OW61659   9.523   4.515   0.039
37607SOL    HW161660   9.451   4.583   0.028
37607SOL    HW261661   9.481   4.424   0.050
37608SOL     OW61662   4.589   2.845   0.400
37608SOL    HW161663   4.525   2.917   0.427
37608SOL    HW261664   4.563   2.759   0.443
37609SOL     OW61665  15.951  13.740   6.863
37609SOL    HW161666  16.044  13.772   6.882
37609SOL    HW261667  15.911  13.704   6.947
37610SOL     OW61668   7.089   2.325   1.174
37610SOL    HW161669   7.126   2.238   1.205
37610SOL    HW261670   7.104   2.335   1.076
37611SOL     OW61671  12.862  10.744   0.609
37611SOL    HW161672  12.955  10.715   0.634
37611SOL    HW261673  12.808  10.664   0.584
37612SOL     OW61674  12.016   4.857   1.940
37612SOL    HW161675  11.918   4.854   1.921
37612SOL    HW261676  12.034   4.927   2.010
37613SOL     OW61677   6.827   8.230   1.166
37613SOL    HW161678   6.801   8.323   1.191
37613SOL    HW261679   6.862   8.182   1.246
37614SOL     OW61680  11.332   3.881   5.989
37614SOL    HW161681  11.338   3.828   5.904
37614SOL    HW261682  11.312   3.821   6.065
37615SOL     OW61683   3.836  15.789   7.648
37615SOL    HW161684   3.826  15.694   7.619
37615SOL    HW261685   3.929  15.804   7.681
37616SOL     OW61686   3.902  11.801   2.129
37616SOL    HW161687   3.954  11.855   2.062
37616SOL    HW261688   3.956  11.722   2.156
37617SOL     OW61689  10.951  13.123   8.353
37617SOL    HW161690  10.912  13.037   8.385
37617SOL    HW261691  10.879  13.193   8.350
37618SOL     OW61692  10.785   5.954   0.379
37618SOL    HW161693  10.770   5.923   0.285
37618SOL    HW261694  10.870   6.006   0.383
37619SOL     OW61695   8.345   0.146   0.286
37619SOL    HW161696   8.425   0.199   0.261
37619SOL    HW261697   8.298   0.113   0.204
37620SOL     OW61698   2.713   1.141   0.332
37620SOL    HW161699   2.624   1.102   0.354
37620SOL    HW261700   2.753   1.181   0.415
37621SOL     OW61701  16.514  12.471   1.050
37621SOL    HW161702  16.472  12.398   0.996
37621SOL    HW261703  16.446  12.510   1.113
37622SOL     OW61704  15.469   8.786   7.191
37622SOL    HW161705  15.392   8.723   7.191
37622SOL    HW261706  15.456   8.855   7.120
37623SOL     OW61707   6.137   7.399   6.768
37623SOL    HW161708   6.222   7.378   6.721
37623SOL    HW261709   6.086   7.468   6.716
37624SOL     OW61710   2.518  13.519   0.181
37624SOL    HW161711   2.472  13.528   0.094
37624SOL    HW261712   2.451  13.503   0.253
37625SOL     OW61713   8.906   1.973   7.324
37625SOL    HW161714   8.885   1.888   7.372
37625SOL    HW261715   9.002   1.996   7.337
37626SOL     OW61716   4.438   7.527   1.469
37626SOL    HW161717   4.351   7.478   1.473
37626SOL    HW261718   4.479   7.530   1.560
37627SOL     OW61719   5.120   3.058   1.448
37627SOL    HW161720   5.062   3.029   1.524
37627SOL    HW261721   5.109   3.156   1.433
37628SOL     OW61722  16.758  10.408   6.879
37628SOL    HW161723  16.818  10.481   6.848
37628SOL    HW261724  16.739  10.346   6.803
37629SOL     OW61725   6.326  11.983   6.304
37629SOL    HW161726   6.267  12.035   6.365
37629SOL    HW261727   6.365  12.044   6.235
37630SOL     OW61728   8.629  12.394   0.384
37630SOL    HW161729   8.595  12.336   0.309
37630SOL    HW261730   8.722  12.424   0.363
37631SOL     OW61731  12.590  16.421   6.431
37631SOL    HW161732  12.688  16.411   6.410
37631SOL    HW261733  12.542  16.453   6.349
37632SOL     OW61734   2.318   5.590   0.598
37632SOL    HW161735   2.380   5.540   0.537
37632SOL    HW261736   2.362   5.675   0.627
37633SOL     OW61737   8.829  15.897   0.639
37633SOL    HW161738   8.845  15.958   0.561
37633SOL    HW261739   8.786  15.813   0.607
37634SOL     OW61740   8.553  11.269   7.747
37634SOL    HW161741   8.495  11.191   7.723
37634SOL    HW261742   8.639  11.264   7.695
37635SOL     OW61743  10.711  13.282   7.176
37635SOL    HW161744  10.778  13.309   7.107
37635SOL    HW261745  10.670  13.195   7.151
37636SOL     OW61746  10.680  10.204   7.845
37636SOL    HW161747  10.722  10.213   7.935
37636SOL    HW261748  10.606  10.138   7.850
37637SOL     OW61749  10.390   7.192   5.992
37637SOL    HW161750  10.353   7.256   5.924
37637SOL    HW261751  10.410   7.105   5.948
37638SOL     OW61752   1.518   0.971   6.605
37638SOL    HW161753   1.422   0.966   6.577
37638SOL    HW261754   1.565   0.887   6.578
37639SOL     OW61755   5.654   1.406   7.899
37639SOL    HW161756   5.651   1.416   7.799
37639SOL    HW261757   5.597   1.477   7.941
37640SOL     OW61758   1.490  13.184   1.848
37640SOL    HW161759   1.438  13.189   1.934
37640SOL    HW261760   1.452  13.112   1.790
37641SOL     OW61761   1.967   7.479   0.728
37641SOL    HW161762   1.901   7.533   0.780
37641SOL    HW261763   2.040   7.447   0.789
37642SOL     OW61764  16.777   2.963   7.028
37642SOL    HW161765  16.860   3.016   7.044
37642SOL    HW261766  16.744   2.926   7.115
37643SOL     OW61767   6.265   6.783   8.116
37643SOL    HW161768   6.168   6.804   8.110
37643SOL    HW261769   6.282   6.723   8.193
37644SOL     OW61770   7.704  14.463   7.709
37644SOL    HW161771   7.692  14.387   7.646
37644SOL    HW261772   7.653  14.446   7.794
37645SOL     OW61773   0.973   6.341   1.235
37645SOL    HW161774   0.994   6.396   1.315
37645SOL    HW261775   0.987   6.244   1.256
37646SOL     OW61776   7.443   1.255   0.019
37646SOL    HW161777   7.462   1.208   0.105
37646SOL    HW261778   7.527   1.264   8.420
37647SOL     OW61779   9.565   3.383   7.675
37647SOL    HW161780   9.619   3.326   7.736
37647SOL    HW261781   9.607   3.473   7.666
37648SOL     OW61782   1.624  15.728   1.748
37648SOL    HW161783   1.577  15.689   1.827
37648SOL    HW261784   1.569  15.802   1.710
37649SOL     OW61785   6.375   9.408   1.828
37649SOL    HW161786   6.453   9.375   1.773
37649SOL    HW261787   6.356   9.342   1.901
37650SOL     OW61788   2.387  10.107   2.529
37650SOL    HW161789   2.416  10.156   2.447
37650SOL    HW261790   2.465  10.097   2.590
37651SOL     OW61791  13.912   9.100   2.901
37651SOL    HW161792  13.995   9.152   2.922
37651SOL    HW261793  13.929   9.041   2.821
37652SOL     OW61794   3.163   9.335   8.073
37652SOL    HW161795   3.101   9.260   8.050
37652SOL    HW261796   3.138   9.416   8.020
37653SOL     OW61797  14.120   1.020   2.054
37653SOL    HW161798  14.026   1.017   2.089
37653SOL    HW261799  14.147   1.116   2.042
37654SOL     OW61800   3.002   5.986   6.797
37654SOL    HW161801   2.984   5.889   6.812
37654SOL    HW261802   2.917   6.033   6.771
37655SOL     OW61803  16.011  16.303   8.303
37655SOL    HW161804  15.942  16.279   8.234
37655SOL    HW261805  16.033  16.222   8.358
37656SOL     OW61806  13.602   6.215   1.038
37656SOL    HW161807  13.540   6.164   0.978
37656SOL    HW261808  13.695   6.209   1.001
37657SOL     OW61809   2.097  13.447   6.879
37657SOL    HW161810   2.176  13.426   6.821
37657SOL    HW261811   2.013  13.431   6.828
37658SOL     OW61812   6.813   3.032   7.568
37658SOL    HW161813   6.853   3.118   7.538
37658SOL    HW261814   6.856   2.956   7.518
37659SOL     OW61815  15.428  14.791   0.123
37659SOL    HW161816  15.459  14.745   0.040
37659SOL    HW261817  15.348  14.744   0.160
37660SOL     OW61818   6.904   4.809   0.375
37660SOL    HW161819   6.830   4.872   0.396
37660SOL    HW261820   6.941   4.771   0.460
37661SOL     OW61821   2.149   6.758   7.981
37661SOL    HW161822   2.104   6.812   7.911
37661SOL    HW261823   2.097   6.762   8.066
37662SOL     OW61824   8.220   3.909   0.786
37662SOL    HW161825   8.138   3.857   0.766
37662SOL    HW261826   8.197   3.988   0.843
37663SOL     OW61827   3.367  16.244   6.551
37663SOL    HW161828   3.330  16.152   6.534
37663SOL    HW261829   3.319  16.311   6.494
37664SOL     OW61830   9.145  11.417   0.805
37664SOL    HW161831   9.209  11.359   0.857
37664SOL    HW261832   9.195  11.467   0.734
37665SOL     OW61833  13.898   7.688   2.318
37665SOL    HW161834  13.834   7.614   2.299
37665SOL    HW261835  13.847   7.771   2.341
37666SOL     OW61836  16.515   4.588   6.440
37666SOL    HW161837  16.503   4.676   6.486
37666SOL    HW261838  16.428   4.539   6.438
37667SOL     OW61839   0.230   4.486   0.095
37667SOL    HW161840   0.135   4.494   0.064
37667SOL    HW261841   0.271   4.404   0.055
37668SOL     OW61842  13.493   5.838   0.113
37668SOL    HW161843  13.445   5.777   0.050
37668SOL    HW261844  13.428   5.900   0.157
37669SOL     OW61845   6.292   1.378   7.752
37669SOL    HW161846   6.239   1.396   7.670
37669SOL    HW261847   6.349   1.297   7.738
37670SOL     OW61848  11.981  15.969   7.451
37670SOL    HW161849  12.039  15.903   7.404
37670SOL    HW261850  11.916  15.921   7.510
37671SOL     OW61851  14.421  10.129   0.807
37671SOL    HW161852  14.459  10.038   0.823
37671SOL    HW261853  14.336  10.139   0.859
37672SOL     OW61854   5.731   6.593   6.483
37672SOL    HW161855   5.799   6.610   6.412
37672SOL    HW261856   5.665   6.669   6.484
37673SOL     OW61857   5.151  16.764   0.997
37673SOL    HW161858   5.147  16.837   1.065
37673SOL    HW261859   5.188  16.681   1.039
37674SOL     OW61860  16.790   8.406   0.623
37674SOL    HW161861  16.855   8.331   0.607
37674SOL    HW261862  16.722   8.377   0.690
37675SOL     OW61863  11.627   4.492   0.269
37675SOL    HW161864  11.718   4.509   0.305
37675SOL    HW261865  11.576   4.435   0.334
37676SOL     OW61866   3.521   3.125   7.118
37676SOL    HW161867   3.495   3.152   7.211
37676SOL    HW261868   3.604   3.174   7.091
37677SOL     OW61869  15.858  11.955   5.917
37677SOL    HW161870  15.788  12.026   5.904
37677SOL    HW261871  15.818  11.865   5.898
37678SOL     OW61872  11.058  16.175   8.110
37678SOL    HW161873  11.093  16.160   8.203
37678SOL    HW261874  11.076  16.270   8.083
37679SOL     OW61875   3.339  10.718   1.149
37679SOL    HW161876   3.426  10.713   1.101
37679SOL    HW261877   3.349  10.679   1.240
37680SOL     OW61878   0.583  15.045   0.712
37680SOL    HW161879   0.625  15.136   0.713
37680SOL    HW261880   0.570  15.015   0.618
37681SOL     OW61881   3.635   1.731   1.147
37681SOL    HW161882   3.646   1.829   1.160
37681SOL    HW261883   3.625   1.710   1.050
37682SOL     OW61884   1.062   0.234   8.357
37682SOL    HW161885   1.108   0.246   8.445
37682SOL    HW261886   1.055   0.136   8.337
37683SOL     OW61887  13.588   8.106   6.426
37683SOL    HW161888  13.578   8.145   6.334
37683SOL    HW261889  13.499   8.079   6.461
37684SOL     OW61890   3.559  15.390   0.472
37684SOL    HW161891   3.651  15.423   0.493
37684SOL    HW261892   3.536  15.414   0.377
37685SOL     OW61893  10.984   8.882   7.583
37685SOL    HW161894  10.983   8.783   7.595
37685SOL    HW261895  10.902   8.921   7.626
37686SOL     OW61896   0.769  10.088   7.463
37686SOL    HW161897   0.810  10.120   7.377
37686SOL    HW261898   0.841  10.067   7.529
37687SOL     OW61899   3.511  12.846   6.803
37687SOL    HW161900   3.585  12.892   6.754
37687SOL    HW261901   3.428  12.900   6.797
37688SOL     OW61902  16.392   2.193   8.200
37688SOL    HW161903  16.422   2.210   8.106
37688SOL    HW261904  16.393   2.278   8.252
37689SOL     OW61905  11.455   5.517   0.270
37689SOL    HW161906  11.504   5.585   0.214
37689SOL    HW261907  11.402   5.565   0.340
37690SOL     OW61908   0.698  12.294   1.787
37690SOL    HW161909   0.715  12.390   1.766
37690SOL    HW261910   0.621  12.286   1.849
37691SOL     OW61911   5.678  14.606   8.345
37691SOL    HW161912   5.669  14.692   8.293
37691SOL    HW261913   5.710  14.534   8.284
37692SOL     OW61914   9.199  12.344   7.357
37692SOL    HW161915   9.113  12.392   7.374
37692SOL    HW261916   9.212  12.331   7.259
37693SOL     OW61917   9.891  10.916   1.572
37693SOL    HW161918   9.800  10.882   1.547
37693SOL    HW261919   9.911  10.998   1.518
37694SOL     OW61920   7.922  12.013   7.831
37694SOL    HW161921   8.018  12.001   7.807
37694SOL    HW261922   7.911  12.096   7.885
37695SOL     OW61923  11.716   0.576   0.954
37695SOL    HW161924  11.625   0.594   0.918
37695SOL    HW261925  11.708   0.536   1.045
37696SOL     OW61926   1.167  13.998   8.442
37696SOL    HW161927   1.178  13.994   8.343
37696SOL    HW261928   1.074  14.027   0.010
37697SOL     OW61929   5.930  15.075   7.829
37697SOL    HW161930   5.835  15.046   7.825
37697SOL    HW261931   5.942  15.157   7.773
37698SOL     OW61932  10.326  10.645   0.850
37698SOL    HW161933  10.381  10.723   0.820
37698SOL    HW261934  10.345  10.566   0.793
37699SOL     OW61935  16.084  16.067   8.439
37699SOL    HW161936  16.124  16.000   8.376
37699SOL    HW261937  16.149  16.087   0.058
37700SOL     OW61938   4.546  13.403   2.423
37700SOL    HW161939   4.506  13.493   2.440
37700SOL    HW261940   4.643  13.414   2.400
37701SOL     OW61941   7.346   8.017   8.138
37701SOL    HW161942   7.287   7.986   8.063
37701SOL    HW261943   7.429   7.962   8.139
37702SOL     OW61944   3.705   1.241   2.383
37702SOL    HW161945   3.627   1.197   2.339
37702SOL    HW261946   3.674   1.289   2.465
37703SOL     OW61947   3.068  14.126   1.005
37703SOL    HW161948   3.110  14.151   1.093
37703SOL    HW261949   3.034  14.208   0.961
37704SOL     OW61950   4.448  10.667   2.400
37704SOL    HW161951   4.464  10.576   2.440
37704SOL    HW261952   4.518  10.730   2.433
37705SOL     OW61953   7.275   2.581   7.958
37705SOL    HW161954   7.322   2.669   7.960
37705SOL    HW261955   7.177   2.596   7.941
37706SOL     OW61956   9.872  10.683   1.189
37706SOL    HW161957   9.921  10.697   1.275
37706SOL    HW261958   9.937  10.679   1.114
37707SOL     OW61959  15.693   8.353   0.481
37707SOL    HW161960  15.717   8.266   0.526
37707SOL    HW261961  15.629   8.403   0.539
37708SOL     OW61962   4.132   3.535   8.090
37708SOL    HW161963   4.142   3.528   7.991
37708SOL    HW261964   4.089   3.451   8.125
37709SOL     OW61965   3.781   6.488   7.321
37709SOL    HW161966   3.806   6.496   7.225
37709SOL    HW261967   3.835   6.416   7.364
37710SOL     OW61968  14.178   6.104   7.447
37710SOL    HW161969  14.157   6.157   7.529
37710SOL    HW261970  14.112   6.126   7.375
37711SOL     OW61971  13.394  15.070   8.406
37711SOL    HW161972  13.440  15.138   8.348
37711SOL    HW261973  13.359  15.115   0.034
37712SOL     OW61974   1.241   6.234   7.520
37712SOL    HW161975   1.311   6.206   7.585
37712SOL    HW261976   1.150   6.217   7.559
37713SOL     OW61977   8.814   9.947   7.361
37713SOL    HW161978   8.737  10.008   7.345
37713SOL    HW261979   8.895   9.984   7.314
37714SOL     OW61980  12.882   4.066   7.575
37714SOL    HW161981  12.950   4.073   7.647
37714SOL    HW261982  12.791   4.057   7.615
37715SOL     OW61983  10.097  10.564   2.256
37715SOL    HW161984  10.118  10.655   2.292
37715SOL    HW261985  10.110  10.496   2.329
37716SOL     OW61986  14.371   8.178   1.033
37716SOL    HW161987  14.340   8.170   1.127
37716SOL    HW261988  14.395   8.088   0.998
37717SOL     OW61989   5.299   9.831   6.677
37717SOL    HW161990   5.334   9.797   6.590
37717SOL    HW261991   5.202   9.853   6.667
37718SOL     OW61992  16.804  13.879   7.421
37718SOL    HW161993  16.822  13.815   7.347
37718SOL    HW261994  16.773  13.830   7.502
37719SOL     OW61995   9.941  11.893   1.507
37719SOL    HW161996   9.960  11.946   1.589
37719SOL    HW261997   9.928  11.797   1.531
37720SOL     OW61998  10.582   0.613   7.394
37720SOL    HW161999  10.631   0.656   7.318
37720SOL    HW262000  10.562   0.518   7.371
37721SOL     OW62001   3.470  13.024   0.669
37721SOL    HW162002   3.371  13.033   0.658
37721SOL    HW262003   3.490  12.960   0.742
37722SOL     OW62004   3.470   1.800   7.128
37722SOL    HW162005   3.434   1.827   7.217
37722SOL    HW262006   3.494   1.703   7.131
37723SOL     OW62007   8.085  11.161   7.518
37723SOL    HW162008   8.092  11.092   7.590
37723SOL    HW262009   8.072  11.116   7.430
37724SOL     OW62010  13.583  10.261   1.747
37724SOL    HW162011  13.489  10.229   1.757
37724SOL    HW262012  13.585  10.360   1.738
37725SOL     OW62013  16.232   6.326   0.626
37725SOL    HW162014  16.267   6.350   0.716
37725SOL    HW262015  16.254   6.399   0.561
37726SOL     OW62016  16.468   0.275   7.058
37726SOL    HW162017  16.555   0.285   7.107
37726SOL    HW262018  16.423   0.191   7.088
37727SOL     OW62019   4.434   9.289   0.563
37727SOL    HW162020   4.349   9.298   0.511
37727SOL    HW262021   4.423   9.331   0.654
37728SOL     OW62022   6.920  16.201   0.555
37728SOL    HW162023   6.824  16.215   0.578
37728SOL    HW262024   6.962  16.288   0.530
37729SOL     OW62025   5.411  15.717   6.899
37729SOL    HW162026   5.431  15.721   6.801
37729SOL    HW262027   5.324  15.671   6.914
37730SOL     OW62028  11.558   1.368   8.097
37730SOL    HW162029  11.557   1.431   8.019
37730SOL    HW262030  11.558   1.274   8.063
37731SOL     OW62031   8.995  16.479   2.211
37731SOL    HW162032   8.920  16.522   2.262
37731SOL    HW262033   9.082  16.514   2.245
37732SOL     OW62034   1.917   1.484   1.657
37732SOL    HW162035   1.873   1.394   1.660
37732SOL    HW262036   2.016   1.473   1.663
37733SOL     OW62037  14.143   6.246   8.163
37733SOL    HW162038  14.063   6.227   8.105
37733SOL    HW262039  14.226   6.221   8.114
37734SOL     OW62040   4.703   4.656   0.923
37734SOL    HW162041   4.771   4.673   0.995
37734SOL    HW262042   4.749   4.644   0.836
37735SOL     OW62043  14.155   6.527   1.400
37735SOL    HW162044  14.136   6.598   1.333
37735SOL    HW262045  14.248   6.539   1.436
37736SOL     OW62046   0.536  10.721   0.482
37736SOL    HW162047   0.506  10.769   0.399
37736SOL    HW262048   0.476  10.747   0.558
37737SOL     OW62049   7.703  11.852   1.021
37737SOL    HW162050   7.763  11.803   0.957
37737SOL    HW262051   7.615  11.804   1.026
37738SOL     OW62052   1.630   7.345   0.404
37738SOL    HW162053   1.693   7.345   0.326
37738SOL    HW262054   1.551   7.287   0.383
37739SOL     OW62055  13.539   9.300   0.457
37739SOL    HW162056  13.568   9.205   0.467
37739SOL    HW262057  13.461   9.305   0.394
37740SOL     OW62058   8.445   4.974   0.424
37740SOL    HW162059   8.531   5.013   0.390
37740SOL    HW262060   8.376   5.046   0.431
37741SOL     OW62061   5.249   2.218   6.943
37741SOL    HW162062   5.326   2.157   6.924
37741SOL    HW262063   5.167   2.164   6.961
37742SOL     OW62064  14.833   9.594   6.997
37742SOL    HW162065  14.804   9.604   6.901
37742SOL    HW262066  14.849   9.684   7.036
37743SOL     OW62067   0.564  11.308   6.687
37743SOL    HW162068   0.572  11.386   6.625
37743SOL    HW262069   0.504  11.239   6.647
37744SOL     OW62070   1.008   1.738   6.886
37744SOL    HW162071   1.093   1.758   6.837
37744SOL    HW262072   0.952   1.676   6.831
37745SOL     OW62073  11.345  15.254   1.740
37745SOL    HW162074  11.376  15.280   1.648
37745SOL    HW262075  11.318  15.158   1.740
37746SOL     OW62076   3.074  12.153   0.621
37746SOL    HW162077   3.114  12.210   0.550
37746SOL    HW262078   3.142  12.087   0.653
37747SOL     OW62079  12.443   9.715   1.557
37747SOL    HW162080  12.424   9.713   1.459
37747SOL    HW262081  12.513   9.647   1.579
37748SOL     OW62082  16.033   2.053   7.118
37748SOL    HW162083  15.965   2.096   7.178
37748SOL    HW262084  16.028   1.954   7.128
37749SOL     OW62085  15.117   5.946   0.665
37749SOL    HW162086  15.149   5.964   0.759
37749SOL    HW262087  15.052   5.869   0.666
37750SOL     OW62088   2.532   7.973   0.770
37750SOL    HW162089   2.555   8.062   0.809
37750SOL    HW262090   2.551   7.974   0.672
37751SOL     OW62091  11.202  12.750   0.196
37751SOL    HW162092  11.161  12.693   0.267
37751SOL    HW262093  11.184  12.846   0.216
37752SOL     OW62094   4.799  11.599   2.203
37752SOL    HW162095   4.708  11.621   2.237
37752SOL    HW262096   4.862  11.591   2.281
37753SOL     OW62097   2.826  11.130   7.098
37753SOL    HW162098   2.921  11.103   7.114
37753SOL    HW262099   2.819  11.229   7.094
37754SOL     OW62100  16.168   3.074   6.145
37754SOL    HW162101  16.140   3.088   6.240
37754SOL    HW262102  16.186   3.163   6.103
37755SOL     OW62103   5.280  11.439   0.992
37755SOL    HW162104   5.358  11.378   1.007
37755SOL    HW262105   5.201  11.407   1.044
37756SOL     OW62106   4.526   2.764   6.534
37756SOL    HW162107   4.496   2.837   6.473
37756SOL    HW262108   4.447   2.729   6.585
37757SOL     OW62109  15.987   9.456   7.669
37757SOL    HW162110  15.894   9.494   7.670
37757SOL    HW262111  16.040   9.497   7.743
37758SOL     OW62112   6.065   8.881   1.169
37758SOL    HW162113   6.104   8.826   1.095
37758SOL    HW262114   5.993   8.830   1.215
37759SOL     OW62115  12.089  12.117   6.429
37759SOL    HW162116  12.113  12.025   6.399
37759SOL    HW262117  11.990  12.124   6.439
37760SOL     OW62118   4.422  16.184   1.024
37760SOL    HW162119   4.366  16.261   1.055
37760SOL    HW262120   4.518  16.203   1.040
37761SOL     OW62121  10.821  11.333   1.890
37761SOL    HW162122  10.746  11.304   1.831
37761SOL    HW262123  10.788  11.344   1.984
37762SOL     OW62124   3.972   3.671   1.820
37762SOL    HW162125   3.997   3.585   1.776
37762SOL    HW262126   3.982   3.661   1.919
37763SOL     OW62127  13.369   5.818   6.413
37763SOL    HW162128  13.357   5.883   6.338
37763SOL    HW262129  13.434   5.747   6.385
37764SOL     OW62130   7.591   6.057   0.210
37764SOL    HW162131   7.661   6.119   0.244
37764SOL    HW262132   7.591   6.058   0.110
37765SOL     OW62133   7.990   0.345   1.603
37765SOL    HW162134   8.061   0.324   1.670
37765SOL    HW262135   7.992   0.276   1.530
37766SOL     OW62136  14.018   6.279   5.822
37766SOL    HW162137  14.112   6.310   5.821
37766SOL    HW262138  13.965   6.330   5.754
37767SOL     OW62139  16.537  12.053   1.573
37767SOL    HW162140  16.550  12.139   1.622
37767SOL    HW262141  16.443  12.049   1.539
37768SOL     OW62142  13.760  11.170   1.554
37768SOL    HW162143  13.845  11.211   1.588
37768SOL    HW262144  13.771  11.070   1.551
37769SOL     OW62145   4.471   1.989   8.273
37769SOL    HW162146   4.499   1.997   8.177
37769SOL    HW262147   4.534   1.928   8.321
37770SOL     OW62148   8.427   4.456   1.416
37770SOL    HW162149   8.485   4.443   1.336
37770SOL    HW262150   8.403   4.553   1.425
37771SOL     OW62151   5.999   7.071   1.767
37771SOL    HW162152   5.932   7.145   1.760
37771SOL    HW262153   6.091   7.111   1.777
37772SOL     OW62154  11.596   3.382   8.340
37772SOL    HW162155  11.610   3.478   8.318
37772SOL    HW262156  11.503   3.355   8.315
37773SOL     OW62157   7.782   7.520   7.686
37773SOL    HW162158   7.798   7.540   7.783
37773SOL    HW262159   7.685   7.534   7.665
37774SOL     OW62160  10.379  13.469   0.109
37774SOL    HW162161  10.466  13.518   0.097
37774SOL    HW262162  10.395  13.383   0.156
37775SOL     OW62163  12.087   5.204   7.588
37775SOL    HW162164  12.124   5.168   7.502
37775SOL    HW262165  12.125   5.294   7.606
37776SOL     OW62166  13.918   6.947   7.449
37776SOL    HW162167  13.874   6.902   7.527
37776SOL    HW262168  13.936   6.880   7.377
37777SOL     OW62169   0.055  12.064   0.326
37777SOL    HW162170  16.953  12.016   0.345
37777SOL    HW262171   0.127  12.029   0.385
37778SOL     OW62172  15.744   6.229   5.823
37778SOL    HW162173  15.743   6.130   5.810
37778SOL    HW262174  15.679   6.271   5.759
37779SOL     OW62175   8.336  12.934   1.532
37779SOL    HW162176   8.357  13.002   1.462
37779SOL    HW262177   8.258  12.964   1.587
37780SOL     OW62178  14.684  16.153   1.097
37780SOL    HW162179  14.611  16.208   1.057
37780SOL    HW262180  14.654  16.117   1.185
37781SOL     OW62181  12.833   0.926   8.290
37781SOL    HW162182  12.860   0.921   8.193
37781SOL    HW262183  12.915   0.936   8.346
37782SOL     OW62184  14.710   2.311   7.052
37782SOL    HW162185  14.741   2.247   6.982
37782SOL    HW262186  14.782   2.324   7.120
37783SOL     OW62187  13.661  13.494   7.289
37783SOL    HW162188  13.695  13.448   7.371
37783SOL    HW262189  13.735  13.499   7.221
37784SOL     OW62190  10.900   4.867   1.564
37784SOL    HW162191  10.931   4.879   1.658
37784SOL    HW262192  10.967   4.907   1.502
37785SOL     OW62193  15.775   3.244   6.914
37785SOL    HW162194  15.690   3.269   6.960
37785SOL    HW262195  15.848   3.236   6.982
37786SOL     OW62196  14.117   7.719   7.238
37786SOL    HW162197  14.210   7.737   7.269
37786SOL    HW262198  14.119   7.651   7.164
37787SOL     OW62199   1.048   7.042   7.386
37787SOL    HW162200   1.113   7.005   7.320
37787SOL    HW262201   1.026   7.137   7.361
37788SOL     OW62202   0.441   8.845   7.881
37788SOL    HW162203   0.422   8.877   7.974
37788SOL    HW262204   0.429   8.920   7.816
37789SOL     OW62205   8.686   0.520   0.085
37789SOL    HW162206   8.773   0.548   0.043
37789SOL    HW262207   8.680   0.561   0.176
37790SOL     OW62208   6.490   5.169   7.670
37790SOL    HW162209   6.528   5.148   7.760
37790SOL    HW262210   6.563   5.178   7.603
37791SOL     OW62211   3.771   4.392   7.931
37791SOL    HW162212   3.708   4.468   7.947
37791SOL    HW262213   3.863   4.428   7.917
37792SOL     OW62214  14.881   6.386   0.982
37792SOL    HW162215  14.934   6.329   0.919
37792SOL    HW262216  14.785   6.388   0.952
37793SOL     OW62217   4.823  14.864   7.202
37793SOL    HW162218   4.778  14.946   7.236
37793SOL    HW262219   4.858  14.881   7.110
37794SOL     OW62220   9.427   3.380   1.389
37794SOL    HW162221   9.393   3.319   1.318
37794SOL    HW262222   9.386   3.356   1.477
37795SOL     OW62223  16.530  15.332   6.533
37795SOL    HW162224  16.630  15.332   6.538
37795SOL    HW262225  16.492  15.360   6.621
37796SOL     OW62226  16.778   8.873   8.012
37796SOL    HW162227  16.797   8.959   7.965
37796SOL    HW262228  16.864   8.835   8.047
37797SOL     OW62229   0.081   5.368   0.062
37797SOL    HW162230   0.032   5.410   8.440
37797SOL    HW262231   0.179   5.374   0.047
37798SOL     OW62232  13.228   8.837   1.119
37798SOL    HW162233  13.254   8.901   1.191
37798SOL    HW262234  13.129   8.821   1.123
37799SOL     OW62235  15.688   8.214   6.482
37799SOL    HW162236  15.620   8.202   6.554
37799SOL    HW262237  15.745   8.293   6.504
37800SOL     OW62238   9.084   1.399   1.487
37800SOL    HW162239   9.025   1.388   1.407
37800SOL    HW262240   9.177   1.423   1.457
37801SOL     OW62241   4.001  16.488   7.936
37801SOL    HW162242   3.949  16.546   7.999
37801SOL    HW262243   3.938  16.436   7.879
37802SOL     OW62244   4.759   1.694   0.867
37802SOL    HW162245   4.773   1.652   0.957
37802SOL    HW262246   4.739   1.623   0.800
37803SOL     OW62247  15.792  15.487   1.375
37803SOL    HW162248  15.785  15.548   1.454
37803SOL    HW262249  15.701  15.468   1.338
37804SOL     OW62250   7.103  15.280   7.619
37804SOL    HW162251   7.190  15.260   7.666
37804SOL    HW262252   7.074  15.200   7.567
37805SOL     OW62253  16.290   7.093   6.032
37805SOL    HW162254  16.358   7.101   5.960
37805SOL    HW262255  16.313   7.015   6.091
37806SOL     OW62256   5.819   8.139   8.256
37806SOL    HW162257   5.766   8.149   8.340
37806SOL    HW262258   5.907   8.184   8.266
37807SOL     OW62259   0.173   8.112   7.007
37807SOL    HW162260   0.253   8.120   6.947
37807SOL    HW262261   0.177   8.025   7.056
37808SOL     OW62262  12.327  15.052   2.340
37808SOL    HW162263  12.311  15.081   2.434
37808SOL    HW262264  12.309  14.954   2.331
37809SOL     OW62265  13.883  14.242   1.102
37809SOL    HW162266  13.914  14.267   1.011
37809SOL    HW262267  13.933  14.294   1.171
37810SOL     OW62268  15.440   4.680   8.044
37810SOL    HW162269  15.437   4.642   8.136
37810SOL    HW262270  15.535   4.701   8.020
37811SOL     OW62271   1.396   6.051   6.192
37811SOL    HW162272   1.400   5.956   6.160
37811SOL    HW262273   1.453   6.108   6.133
37812SOL     OW62274   1.941   6.045   0.389
37812SOL    HW162275   2.036   6.062   0.416
37812SOL    HW262276   1.931   5.949   0.363
37813SOL     OW62277   8.779  11.562   0.109
37813SOL    HW162278   8.742  11.503   0.181
37813SOL    HW262279   8.754  11.657   0.129
37814SOL     OW62280  15.783   8.793   0.037
37814SOL    HW162281  15.815   8.710   8.446
37814SOL    HW262282  15.861   8.848   0.068
37815SOL     OW62283  14.243  11.053   1.357
37815SOL    HW162284  14.267  10.990   1.430
37815SOL    HW262285  14.324  11.107   1.331
37816SOL     OW62286  15.988  13.804   0.216
37816SOL    HW162287  15.892  13.801   0.247
37816SOL    HW262288  16.027  13.893   0.237
37817SOL     OW62289  13.323   9.164   0.880
37817SOL    HW162290  13.394   9.201   0.820
37817SOL    HW262291  13.364   9.134   0.966
37818SOL     OW62292  12.934   5.038   7.200
37818SOL    HW162293  12.998   4.986   7.257
37818SOL    HW262294  12.842   5.001   7.210
37819SOL     OW62295  13.274  12.323   1.939
37819SOL    HW162296  13.283  12.417   1.973
37819SOL    HW262297  13.364  12.289   1.912
37820SOL     OW62298   1.437   9.802   7.912
37820SOL    HW162299   1.396   9.752   7.988
37820SOL    HW262300   1.366   9.854   7.863
37821SOL     OW62301  15.334  11.691   2.523
37821SOL    HW162302  15.419  11.744   2.520
37821SOL    HW262303  15.332  11.636   2.606
37822SOL     OW62304  16.814   6.770   7.283
37822SOL    HW162305  16.798   6.862   7.318
37822SOL    HW262306  16.820   6.706   7.359
37823SOL     OW62307  11.229  11.667   1.443
37823SOL    HW162308  11.300  11.644   1.376
37823SOL    HW262309  11.265  11.656   1.535
37824SOL     OW62310   0.892   4.221   6.417
37824SOL    HW162311   0.956   4.224   6.339
37824SOL    HW262312   0.838   4.305   6.419
37825SOL     OW62313  14.954  13.293   0.485
37825SOL    HW162314  14.893  13.264   0.411
37825SOL    HW262315  14.901  13.342   0.554
37826SOL     OW62316   3.061   8.069   7.193
37826SOL    HW162317   2.986   8.046   7.132
37826SOL    HW262318   3.128   8.125   7.144
37827SOL     OW62319   5.537   6.107   7.428
37827SOL    HW162320   5.539   6.084   7.330
37827SOL    HW262321   5.448   6.083   7.466
37828SOL     OW62322   2.831   0.606   1.903
37828SOL    HW162323   2.754   0.605   1.966
37828SOL    HW262324   2.857   0.513   1.880
37829SOL     OW62325   8.501   8.402   1.747
37829SOL    HW162326   8.572   8.406   1.677
37829SOL    HW262327   8.485   8.306   1.771
37830SOL     OW62328   3.120   4.198   1.252
37830SOL    HW162329   3.040   4.226   1.198
37830SOL    HW262330   3.100   4.114   1.302
37831SOL     OW62331  13.535   5.669   1.914
37831SOL    HW162332  13.584   5.735   1.972
37831SOL    HW262333  13.601   5.611   1.867
37832SOL     OW62334   6.173  15.857   6.950
37832SOL    HW162335   6.090  15.800   6.946
37832SOL    HW262336   6.212  15.863   6.858
37833SOL     OW62337   9.732  11.922   7.015
37833SOL    HW162338   9.654  11.977   6.985
37833SOL    HW262339   9.715  11.826   6.995
37834SOL     OW62340  13.433   3.913   1.133
37834SOL    HW162341  13.523   3.927   1.091
37834SOL    HW262342  13.412   3.815   1.136
37835SOL     OW62343   2.127   6.983   1.842
37835SOL    HW162344   2.105   6.997   1.938
37835SOL    HW262345   2.092   6.894   1.812
37836SOL     OW62346   6.705   6.595   6.900
37836SOL    HW162347   6.726   6.638   6.987
37836SOL    HW262348   6.753   6.642   6.826
37837SOL     OW62349   8.743   1.037   2.088
37837SOL    HW162350   8.718   1.045   2.185
37837SOL    HW262351   8.754   1.129   2.050
37838SOL     OW62352   5.711   2.206   7.141
37838SOL    HW162353   5.717   2.147   7.061
37838SOL    HW262354   5.621   2.196   7.183
37839SOL     OW62355   7.900   5.790   1.297
37839SOL    HW162356   7.811   5.753   1.325
37839SOL    HW262357   7.886   5.880   1.256
37840SOL     OW62358   5.012   4.521   0.208
37840SOL    HW162359   4.939   4.583   0.181
37840SOL    HW262360   5.101   4.564   0.190
37841SOL     OW62361  13.710   3.645   6.090
37841SOL    HW162362  13.676   3.725   6.041
37841SOL    HW262363  13.646   3.569   6.079
37842SOL     OW62364   3.862   7.896   0.169
37842SOL    HW162365   3.847   7.991   0.196
37842SOL    HW262366   3.957   7.870   0.187
37843SOL     OW62367   6.142  14.898   7.776
37843SOL    HW162368   6.069  14.963   7.797
37843SOL    HW262369   6.112  14.834   7.705
37844SOL     OW62370  15.208  10.953   1.692
37844SOL    HW162371  15.271  10.929   1.618
37844SOL    HW262372  15.253  11.017   1.754
37845SOL     OW62373   6.908   2.395   7.942
37845SOL    HW162374   6.811   2.408   7.922
37845SOL    HW262375   6.957   2.481   7.930
37846SOL     OW62376   2.806   9.875   0.804
37846SOL    HW162377   2.902   9.849   0.817
37846SOL    HW262378   2.798   9.974   0.812
37847SOL     OW62379   2.627   0.205   7.141
37847SOL    HW162380   2.647   0.116   7.100
37847SOL    HW262381   2.610   0.194   7.239
37848SOL     OW62382  14.979  13.076   7.209
37848SOL    HW162383  14.993  13.152   7.145
37848SOL    HW262384  15.062  13.020   7.211
37849SOL     OW62385  11.939  12.263   0.335
37849SOL    HW162386  11.957  12.318   0.416
37849SOL    HW262387  11.995  12.297   0.259
37850SOL     OW62388  12.369  15.136   0.991
37850SOL    HW162389  12.424  15.217   0.972
37850SOL    HW262390  12.273  15.156   0.971
37851SOL     OW62391  13.112   7.163   1.055
37851SOL    HW162392  13.130   7.254   1.018
37851SOL    HW262393  13.049   7.171   1.133
37852SOL     OW62394   8.747  14.728   0.710
37852SOL    HW162395   8.775  14.797   0.777
37852SOL    HW262396   8.689  14.659   0.755
37853SOL     OW62397  16.199   5.913   7.019
37853SOL    HW162398  16.175   5.981   7.088
37853SOL    HW262399  16.299   5.909   7.010
37854SOL     OW62400   2.612   6.929   1.386
37854SOL    HW162401   2.605   6.829   1.386
37854SOL    HW262402   2.558   6.965   1.310
37855SOL     OW62403   5.498  14.710   0.916
37855SOL    HW162404   5.422  14.679   0.859
37855SOL    HW262405   5.463  14.734   1.007
37856SOL     OW62406   0.097   6.704   8.157
37856SOL    HW162407   0.046   6.711   8.243
37856SOL    HW262408   0.175   6.643   8.170
37857SOL     OW62409   0.202  10.381   0.429
37857SOL    HW162410   0.149  10.332   0.360
37857SOL    HW262411   0.299  10.374   0.408
37858SOL     OW62412   9.780  16.141   6.972
37858SOL    HW162413   9.686  16.123   6.997
37858SOL    HW262414   9.783  16.216   6.905
37859SOL     OW62415   1.257  12.045   2.959
37859SOL    HW162416   1.318  11.966   2.957
37859SOL    HW262417   1.312  12.129   2.961
37860SOL     OW62418  10.753   0.387   0.425
37860SOL    HW162419  10.835   0.356   0.376
37860SOL    HW262420  10.770   0.382   0.523
37861SOL     OW62421  15.339   0.194   7.125
37861SOL    HW162422  15.360   0.292   7.119
37861SOL    HW262423  15.423   0.143   7.139
37862SOL     OW62424  14.769   9.181   1.077
37862SOL    HW162425  14.689   9.127   1.050
37862SOL    HW262426  14.748   9.279   1.067
37863SOL     OW62427   2.714   2.957   1.022
37863SOL    HW162428   2.649   3.013   0.970
37863SOL    HW262429   2.730   2.871   0.974
37864SOL     OW62430   4.718   2.143   1.163
37864SOL    HW162431   4.799   2.119   1.110
37864SOL    HW262432   4.656   2.065   1.168
37865SOL     OW62433  16.147  12.146   6.368
37865SOL    HW162434  16.201  12.101   6.296
37865SOL    HW262435  16.205  12.210   6.418
37866SOL     OW62436  11.722   7.243   8.143
37866SOL    HW162437  11.809   7.290   8.151
37866SOL    HW262438  11.723   7.184   8.062
37867SOL     OW62439  15.034  13.759   0.264
37867SOL    HW162440  14.959  13.704   0.227
37867SOL    HW262441  15.061  13.829   0.197
37868SOL     OW62442   9.683   9.244   6.609
37868SOL    HW162443   9.622   9.166   6.603
37868SOL    HW262444   9.728   9.258   6.520
37869SOL     OW62445  16.803   9.362   7.959
37869SOL    HW162446  16.703   9.367   7.955
37869SOL    HW262447  16.842   9.449   7.932
37870SOL     OW62448  10.936   6.549   2.269
37870SOL    HW162449  10.980   6.637   2.249
37870SOL    HW262450  10.850   6.565   2.318
37871SOL     OW62451   4.433  13.598   1.308
37871SOL    HW162452   4.337  13.615   1.331
37871SOL    HW262453   4.469  13.679   1.261
37872SOL     OW62454  11.435   8.961   0.947
37872SOL    HW162455  11.489   9.031   0.900
37872SOL    HW262456  11.345   8.997   0.971
37873SOL     OW62457  16.776  11.815   7.387
37873SOL    HW162458  16.705  11.845   7.322
37873SOL    HW262459  16.770  11.871   7.470
37874SOL     OW62460   7.408  14.396   6.684
37874SOL    HW162461   7.361  14.450   6.615
37874SOL    HW262462   7.463  14.456   6.741
37875SOL     OW62463  14.899  15.414   7.508
37875SOL    HW162464  14.904  15.317   7.484
37875SOL    HW262465  14.991  15.450   7.521
37876SOL     OW62466   8.895   6.557   6.176
37876SOL    HW162467   8.966   6.539   6.108
37876SOL    HW262468   8.911   6.500   6.257
37877SOL     OW62469  11.107   1.962   7.155
37877SOL    HW162470  11.110   2.061   7.170
37877SOL    HW262471  11.014   1.930   7.173
37878SOL     OW62472   8.512   0.274   0.959
37878SOL    HW162473   8.533   0.310   1.050
37878SOL    HW262474   8.583   0.302   0.895
37879SOL     OW62475  10.356   9.176   0.095
37879SOL    HW162476  10.446   9.212   0.072
37879SOL    HW262477  10.358   9.134   0.186
37880SOL     OW62478  14.917  10.593   0.437
37880SOL    HW162479  14.870  10.657   0.499
37880SOL    HW262480  14.992  10.640   0.392
37881SOL     OW62481  10.357   1.955   7.155
37881SOL    HW162482  10.415   1.947   7.074
37881SOL    HW262483  10.288   2.026   7.141
37882SOL     OW62484   1.793   2.343   6.923
37882SOL    HW162485   1.796   2.353   6.823
37882SOL    HW262486   1.708   2.297   6.949
37883SOL     OW62487   1.117   3.667   1.066
37883SOL    HW162488   1.080   3.712   1.148
37883SOL    HW262489   1.048   3.672   0.993
37884SOL     OW62490  16.156   1.705   1.648
37884SOL    HW162491  16.068   1.746   1.627
37884SOL    HW262492  16.230   1.765   1.617
37885SOL     OW62493   5.931   0.878   7.846
37885SOL    HW162494   5.930   0.792   7.794
37885SOL    HW262495   6.016   0.885   7.898
37886SOL     OW62496   0.820   6.979   0.814
37886SOL    HW162497   0.811   6.879   0.815
37886SOL    HW262498   0.774   7.017   0.895
37887SOL     OW62499   3.860   3.074   1.209
37887SOL    HW162500   3.784   3.033   1.159
37887SOL    HW262501   3.851   3.055   1.307
37888SOL     OW62502  15.778   8.028   1.362
37888SOL    HW162503  15.783   7.993   1.268
37888SOL    HW262504  15.807   7.957   1.426
37889SOL     OW62505  12.264   2.496   7.193
37889SOL    HW162506  12.231   2.541   7.110
37889SOL    HW262507  12.296   2.566   7.257
37890SOL     OW62508  16.050   8.680   7.526
37890SOL    HW162509  16.043   8.626   7.442
37890SOL    HW262510  16.034   8.776   7.506
37891SOL     OW62511   1.828  16.708   1.875
37891SOL    HW162512   1.926  16.728   1.866
37891SOL    HW262513   1.785  16.776   1.935
37892SOL     OW62514  15.812  15.836   2.448
37892SOL    HW162515  15.725  15.789   2.432
37892SOL    HW262516  15.807  15.930   2.415
37893SOL     OW62517  10.245   1.685   6.586
37893SOL    HW162518  10.280   1.728   6.503
37893SOL    HW262519  10.200   1.598   6.562
37894SOL     OW62520   7.135   4.700   1.457
37894SOL    HW162521   7.178   4.668   1.542
37894SOL    HW262522   7.060   4.639   1.432
37895SOL     OW62523  12.670  14.373   0.051
37895SOL    HW162524  12.706  14.307   8.438
37895SOL    HW262525  12.644  14.457   0.004
37896SOL     OW62526   6.230   9.880   1.176
37896SOL    HW162527   6.211   9.973   1.208
37896SOL    HW262528   6.221   9.875   1.077
37897SOL     OW62529  10.829  14.524   8.282
37897SOL    HW162530  10.752  14.582   8.253
37897SOL    HW262531  10.882  14.573   8.352
37898SOL     OW62532   6.808   8.315   7.433
37898SOL    HW162533   6.746   8.252   7.387
37898SOL    HW262534   6.900   8.305   7.394
37899SOL     OW62535   1.189  11.333   1.812
37899SOL    HW162536   1.220  11.408   1.753
37899SOL    HW262537   1.090  11.323   1.805
37900SOL     OW62538   6.729   3.733   0.835
37900SOL    HW162539   6.738   3.646   0.883
37900SOL    HW262540   6.757   3.722   0.740
37901SOL     OW62541   4.402   0.335   1.171
37901SOL    HW162542   4.440   0.243   1.161
37901SOL    HW262543   4.332   0.350   1.101
37902SOL     OW62544  13.007   4.666   1.293
37902SOL    HW162545  13.085   4.603   1.293
37902SOL    HW262546  12.943   4.641   1.366
37903SOL     OW62547   4.664   2.262   1.805
37903SOL    HW162548   4.758   2.286   1.778
37903SOL    HW262549   4.631   2.189   1.745
37904SOL     OW62550   1.610  11.361   1.491
37904SOL    HW162551   1.561  11.274   1.489
37904SOL    HW262552   1.705  11.346   1.464
37905SOL     OW62553   9.500   1.595   5.643
37905SOL    HW162554   9.568   1.608   5.570
37905SOL    HW262555   9.418   1.554   5.604
37906SOL     OW62556  15.044  15.895   1.666
37906SOL    HW162557  14.957  15.942   1.654
37906SOL    HW262558  15.062  15.883   1.764
37907SOL     OW62559  15.232   5.297   0.475
37907SOL    HW162560  15.254   5.382   0.521
37907SOL    HW262561  15.274   5.220   0.523
37908SOL     OW62562   9.478   7.799   7.217
37908SOL    HW162563   9.422   7.773   7.295
37908SOL    HW262564   9.433   7.874   7.168
37909SOL     OW62565   9.946   5.010   1.691
37909SOL    HW162566   9.986   5.083   1.746
37909SOL    HW262567   9.972   4.921   1.728
37910SOL     OW62568  14.556   7.988   6.719
37910SOL    HW162569  14.509   8.002   6.631
37910SOL    HW262570  14.581   7.892   6.728
37911SOL     OW62571  13.349   0.482   1.374
37911SOL    HW162572  13.376   0.418   1.446
37911SOL    HW262573  13.392   0.571   1.390
37912SOL     OW62574   4.859  14.831   7.893
37912SOL    HW162575   4.835  14.906   7.955
37912SOL    HW262576   4.958  14.828   7.882
37913SOL     OW62577   8.358  10.053   7.150
37913SOL    HW162578   8.444  10.012   7.117
37913SOL    HW262579   8.350  10.146   7.116
37914SOL     OW62580  15.266   4.935   1.800
37914SOL    HW162581  15.185   4.907   1.852
37914SOL    HW262582  15.314   5.008   1.850
37915SOL     OW62583  14.714   6.712   6.864
37915SOL    HW162584  14.775   6.674   6.933
37915SOL    HW262585  14.767   6.749   6.788
37916SOL     OW62586   4.783  15.760   2.199
37916SOL    HW162587   4.713  15.816   2.155
37916SOL    HW262588   4.761  15.750   2.296
37917SOL     OW62589   3.570   5.252   1.177
37917SOL    HW162590   3.532   5.178   1.233
37917SOL    HW262591   3.498   5.319   1.159
37918SOL     OW62592  11.199  14.073   7.336
37918SOL    HW162593  11.201  14.171   7.359
37918SOL    HW262594  11.105  14.044   7.322
37919SOL     OW62595  13.451   5.333   1.637
37919SOL    HW162596  13.541   5.294   1.616
37919SOL    HW262597  13.419   5.299   1.725
37920SOL     OW62598   5.102  11.332   1.169
37920SOL    HW162599   5.101  11.321   1.268
37920SOL    HW262600   5.017  11.297   1.130
37921SOL     OW62601  16.829   9.098   7.880
37921SOL    HW162602  16.825   9.084   7.781
37921SOL    HW262603  16.828   9.196   7.900
37922SOL     OW62604  12.359   7.120   6.024
37922SOL    HW162605  12.348   7.180   5.945
37922SOL    HW262606  12.378   7.176   6.105
37923SOL     OW62607   2.300  13.412   1.432
37923SOL    HW162608   2.346  13.479   1.373
37923SOL    HW262609   2.362  13.384   1.505
37924SOL     OW62610   9.396  12.710   1.446
37924SOL    HW162611   9.434  12.629   1.489
37924SOL    HW262612   9.357  12.770   1.516
37925SOL     OW62613   5.402  11.502   1.423
37925SOL    HW162614   5.416  11.535   1.516
37925SOL    HW262615   5.383  11.403   1.426
37926SOL     OW62616   9.774   3.008   2.157
37926SOL    HW162617   9.779   3.099   2.198
37926SOL    HW262618   9.680   2.975   2.160
37927SOL     OW62619   5.623  12.591   7.884
37927SOL    HW162620   5.572  12.590   7.798
37927SOL    HW262621   5.631  12.498   7.920
37928SOL     OW62622   7.404   1.626   7.244
37928SOL    HW162623   7.460   1.543   7.244
37928SOL    HW262624   7.331   1.617   7.312
37929SOL     OW62625   4.102  11.694   7.794
37929SOL    HW162626   4.143  11.606   7.816
37929SOL    HW262627   4.088  11.701   7.695
37930SOL     OW62628  12.981   1.957   7.172
37930SOL    HW162629  13.014   1.867   7.200
37930SOL    HW262630  12.914   1.990   7.239
37931SOL     OW62631   8.114   6.572   0.692
37931SOL    HW162632   8.212   6.590   0.687
37931SOL    HW262633   8.096   6.477   0.667
37932SOL     OW62634  16.272   7.405   7.659
37932SOL    HW162635  16.352   7.394   7.600
37932SOL    HW262636  16.294   7.465   7.736
37933SOL     OW62637  13.765   4.283   7.168
37933SOL    HW162638  13.700   4.250   7.237
37933SOL    HW262639  13.846   4.225   7.168
37934SOL     OW62640  16.228   9.695   1.148
37934SOL    HW162641  16.289   9.689   1.069
37934SOL    HW262642  16.250   9.621   1.212
37935SOL     OW62643   6.056   3.545   8.116
37935SOL    HW162644   5.974   3.579   8.070
37935SOL    HW262645   6.043   3.450   8.141
37936SOL     OW62646  11.741  14.303   8.168
37936SOL    HW162647  11.714  14.286   8.263
37936SOL    HW262648  11.802  14.382   8.165
37937SOL     OW62649  16.235   8.655   8.222
37937SOL    HW162650  16.263   8.560   8.220
37937SOL    HW262651  16.153   8.667   8.165
37938SOL     OW62652   6.758  10.594   1.574
37938SOL    HW162653   6.801  10.542   1.501
37938SOL    HW262654   6.686  10.539   1.616
37939SOL     OW62655   6.572   4.831   1.658
37939SOL    HW162656   6.640   4.811   1.587
37939SOL    HW262657   6.618   4.840   1.746
37940SOL     OW62658  10.991  11.566   2.103
37940SOL    HW162659  11.033  11.493   2.158
37940SOL    HW262660  10.897  11.580   2.134
37941SOL     OW62661   9.898  15.032   2.168
37941SOL    HW162662   9.921  15.108   2.228
37941SOL    HW262663   9.965  14.959   2.179
37942SOL     OW62664  15.558  14.424   7.455
37942SOL    HW162665  15.498  14.483   7.510
37942SOL    HW262666  15.631  14.388   7.513
37943SOL     OW62667   3.165   8.132   7.792
37943SOL    HW162668   3.263   8.149   7.799
37943SOL    HW262669   3.117   8.177   7.868
37944SOL     OW62670   3.955   2.283   1.743
37944SOL    HW162671   3.911   2.371   1.758
37944SOL    HW262672   4.054   2.293   1.750
37945SOL     OW62673   4.741  15.508   7.761
37945SOL    HW162674   4.724  15.606   7.752
37945SOL    HW262675   4.744  15.467   7.670
37946SOL     OW62676   1.419   4.481   8.284
37946SOL    HW162677   1.367   4.488   8.369
37946SOL    HW262678   1.424   4.385   8.256
37947SOL     OW62679  11.356  11.338   8.435
37947SOL    HW162680  11.301  11.257   8.412
37947SOL    HW262681  11.448  11.309   0.007
37948SOL     OW62682   0.581   8.276   7.078
37948SOL    HW162683   0.552   8.321   7.163
37948SOL    HW262684   0.641   8.337   7.027
37949SOL     OW62685   9.853   6.759   7.324
37949SOL    HW162686   9.812   6.818   7.393
37949SOL    HW262687   9.808   6.669   7.326
37950SOL     OW62688   7.707  14.550   1.320
37950SOL    HW162689   7.784  14.563   1.383
37950SOL    HW262690   7.652  14.633   1.317
37951SOL     OW62691   7.446   5.516   8.195
37951SOL    HW162692   7.498   5.593   8.231
37951SOL    HW262693   7.352   5.521   8.230
37952SOL     OW62694   3.904   6.607   0.049
37952SOL    HW162695   3.899   6.508   0.067
37952SOL    HW262696   3.974   6.647   0.107
37953SOL     OW62697  14.387  11.057   2.697
37953SOL    HW162698  14.360  11.124   2.766
37953SOL    HW262699  14.357  10.966   2.726
37954SOL     OW62700  16.983   8.591   6.965
37954SOL    HW162701   0.073   8.568   6.901
37954SOL    HW262702   0.019   8.548   7.053
37955SOL     OW62703   0.711   5.119   6.820
37955SOL    HW162704   0.690   5.182   6.895
37955SOL    HW262705   0.808   5.125   6.798
37956SOL     OW62706   3.399   0.873   6.577
37956SOL    HW162707   3.445   0.932   6.511
37956SOL    HW262708   3.396   0.779   6.543
37957SOL     OW62709   3.174   9.481   0.380
37957SOL    HW162710   3.129   9.530   0.455
37957SOL    HW262711   3.207   9.392   0.412
37958SOL     OW62712   9.507   1.923   7.568
37958SOL    HW162713   9.465   2.013   7.559
37958SOL    HW262714   9.553   1.917   7.657
37959SOL     OW62715   6.273   3.722   7.637
37959SOL    HW162716   6.253   3.691   7.730
37959SOL    HW262717   6.249   3.818   7.627
37960SOL     OW62718   7.095  11.484   1.975
37960SOL    HW162719   7.122  11.483   2.071
37960SOL    HW262720   7.172  11.456   1.919
37961SOL     OW62721  13.438  14.358   7.012
37961SOL    HW162722  13.528  14.340   7.053
37961SOL    HW262723  13.399  14.441   7.051
37962SOL     OW62724  13.387   2.043   0.606
37962SOL    HW162725  13.307   2.013   0.658
37962SOL    HW262726  13.381   2.008   0.513
37963SOL     OW62727   4.997  13.046   1.677
37963SOL    HW162728   5.051  13.127   1.651
37963SOL    HW262729   4.943  13.067   1.758
37964SOL     OW62730   0.507  13.414   8.086
37964SOL    HW162731   0.604  13.389   8.089
37964SOL    HW262732   0.479  13.423   7.990
37965SOL     OW62733   6.015   3.408   6.645
37965SOL    HW162734   5.991   3.499   6.612
37965SOL    HW262735   5.936   3.369   6.693
37966SOL     OW62736   5.981  13.087   7.128
37966SOL    HW162737   5.948  13.042   7.211
37966SOL    HW262738   5.906  13.138   7.086
37967SOL     OW62739   9.045   0.538   0.357
37967SOL    HW162740   8.997   0.450   0.359
37967SOL    HW262741   8.996   0.604   0.414
37968SOL     OW62742  11.144  15.645   1.923
37968SOL    HW162743  11.153  15.546   1.918
37968SOL    HW262744  11.207  15.681   1.992
37969SOL     OW62745   5.110  16.189   0.602
37969SOL    HW162746   5.029  16.172   0.546
37969SOL    HW262747   5.188  16.139   0.564
37970SOL     OW62748   6.536   4.437   0.663
37970SOL    HW162749   6.513   4.383   0.583
37970SOL    HW262750   6.555   4.531   0.636
37971SOL     OW62751   5.305   7.703   8.051
37971SOL    HW162752   5.257   7.785   8.081
37971SOL    HW262753   5.278   7.626   8.109
37972SOL     OW62754   2.972   7.908   1.303
37972SOL    HW162755   2.958   7.950   1.214
37972SOL    HW262756   2.883   7.886   1.343
37973SOL     OW62757   8.493   9.003   6.779
37973SOL    HW162758   8.419   8.955   6.827
37973SOL    HW262759   8.480   9.102   6.787
37974SOL     OW62760  11.609  16.803   0.923
37974SOL    HW162761  11.647  16.887   0.884
37974SOL    HW262762  11.635  16.796   1.019
37975SOL     OW62763  12.687   8.621   1.894
37975SOL    HW162764  12.683   8.605   1.993
37975SOL    HW262765  12.774   8.666   1.872
37976SOL     OW62766  14.815   0.320   8.281
37976SOL    HW162767  14.795   0.418   8.289
37976SOL    HW262768  14.788   0.288   8.190
37977SOL     OW62769   0.266   2.981   7.845
37977SOL    HW162770   0.303   2.890   7.866
37977SOL    HW262771   0.319   3.022   7.771
37978SOL     OW62772   4.340  10.116   7.784
37978SOL    HW162773   4.339  10.018   7.803
37978SOL    HW262774   4.405  10.161   7.845
37979SOL     OW62775   8.934  13.563   1.529
37979SOL    HW162776   8.952  13.543   1.625
37979SOL    HW262777   9.020  13.571   1.479
37980SOL     OW62778   5.204   3.936   0.809
37980SOL    HW162779   5.152   3.991   0.875
37980SOL    HW262780   5.230   3.849   0.851
37981SOL     OW62781   8.725   3.836   1.556
37981SOL    HW162782   8.672   3.849   1.640
37981SOL    HW262783   8.795   3.907   1.549
37982SOL     OW62784  15.025  15.380   0.369
37982SOL    HW162785  15.043  15.478   0.368
37982SOL    HW262786  15.106  15.331   0.401
37983SOL     OW62787   8.045  10.942   1.149
37983SOL    HW162788   8.043  11.041   1.138
37983SOL    HW262789   7.960  10.911   1.191
37984SOL     OW62790  14.747   1.656   8.084
37984SOL    HW162791  14.798   1.722   8.027
37984SOL    HW262792  14.649   1.667   8.068
37985SOL     OW62793   0.319   9.410   7.406
37985SOL    HW162794   0.282   9.317   7.404
37985SOL    HW262795   0.333   9.441   7.312
37986SOL     OW62796   8.069  14.272   7.751
37986SOL    HW162797   8.109  14.183   7.770
37986SOL    HW262798   8.101  14.338   7.819
37987SOL     OW62799  15.612   8.197   1.084
37987SOL    HW162800  15.664   8.267   1.133
37987SOL    HW262801  15.661   8.110   1.088
37988SOL     OW62802   9.801   1.876   0.674
37988SOL    HW162803   9.772   1.959   0.627
37988SOL    HW262804   9.736   1.855   0.748
37989SOL     OW62805  14.686  13.718   1.267
37989SOL    HW162806  14.710  13.635   1.216
37989SOL    HW262807  14.602  13.757   1.228
37990SOL     OW62808   8.472  12.753   1.375
37990SOL    HW162809   8.570  12.769   1.385
37990SOL    HW262810   8.422  12.813   1.438
37991SOL     OW62811  16.485   5.643   7.161
37991SOL    HW162812  16.479   5.556   7.113
37991SOL    HW262813  16.487   5.718   7.095
37992SOL     OW62814  10.546   7.029   8.244
37992SOL    HW162815  10.572   7.012   8.339
37992SOL    HW262816  10.478   6.962   8.215
37993SOL     OW62817  15.076   3.757   6.788
37993SOL    HW162818  15.027   3.830   6.741
37993SOL    HW262819  15.062   3.670   6.740
37994SOL     OW62820  15.657  16.888   7.751
37994SOL    HW162821  15.687  16.977   7.715
37994SOL    HW262822  15.685  16.880   7.846
37995SOL     OW62823  16.159  10.622   1.250
37995SOL    HW162824  16.155  10.535   1.201
37995SOL    HW262825  16.072  10.671   1.238
37996SOL     OW62826   6.771  11.674   2.160
37996SOL    HW162827   6.815  11.603   2.216
37996SOL    HW262828   6.731  11.743   2.219
37997SOL     OW62829   8.255   7.811   7.590
37997SOL    HW162830   8.242   7.766   7.679
37997SOL    HW262831   8.335   7.772   7.544
37998SOL     OW62832  11.986   8.908   6.971
37998SOL    HW162833  12.047   8.867   7.039
37998SOL    HW262834  11.934   8.982   7.013
37999SOL     OW62835  11.908  15.439   1.440
37999SOL    HW162836  11.898  15.344   1.412
37999SOL    HW262837  12.000  15.454   1.476
38000SOL     OW62838   7.864  10.155   7.414
38000SOL    HW162839   7.943  10.176   7.472
38000SOL    HW262840   7.859  10.056   7.400
38001SOL     OW62841   3.572  16.048   0.616
38001SOL    HW162842   3.552  15.961   0.572
38001SOL    HW262843   3.488  16.102   0.624
38002SOL     OW62844   3.108   6.380   0.543
38002SOL    HW162845   3.091   6.409   0.449
38002SOL    HW262846   3.058   6.439   0.606
38003SOL     OW62847  10.944   5.248   1.967
38003SOL    HW162848  10.993   5.252   2.054
38003SOL    HW262849  10.957   5.335   1.918
38004SOL     OW62850   8.276   0.967   5.807
38004SOL    HW162851   8.228   1.051   5.780
38004SOL    HW262852   8.223   0.888   5.776
38005SOL     OW62853  13.370   4.225   6.941
38005SOL    HW162854  13.299   4.254   6.877
38005SOL    HW262855  13.367   4.125   6.951
38006SOL     OW62856   4.855   4.786   1.584
38006SOL    HW162857   4.905   4.870   1.568
38006SOL    HW262858   4.784   4.801   1.653
38007SOL     OW62859   2.842  16.458   1.503
38007SOL    HW162860   2.812  16.393   1.434
38007SOL    HW262861   2.779  16.456   1.581
38008SOL     OW62862  13.835   1.727   0.082
38008SOL    HW162863  13.826   1.740   0.181
38008SOL    HW262864  13.847   1.815   0.037
38009SOL     OW62865  16.266  15.075   1.108
38009SOL    HW162866  16.343  15.112   1.056
38009SOL    HW262867  16.230  15.146   1.170
38010SOL     OW62868   4.117   4.260   1.186
38010SOL    HW162869   4.024   4.243   1.219
38010SOL    HW262870   4.176   4.284   1.262
38011SOL     OW62871   4.757   0.219   1.118
38011SOL    HW162872   4.676   0.174   1.155
38011SOL    HW262873   4.830   0.218   1.187
38012SOL     OW62874  12.643  14.186   2.206
38012SOL    HW162875  12.602  14.105   2.247
38012SOL    HW262876  12.605  14.269   2.248
38013SOL     OW62877   9.562  14.839   6.262
38013SOL    HW162878   9.564  14.741   6.245
38013SOL    HW262879   9.567  14.888   6.175
38014SOL     OW62880   4.319  13.401   0.036
38014SOL    HW162881   4.365  13.468   0.094
38014SOL    HW262882   4.371  13.315   0.036
38015SOL     OW62883  12.909   2.264   5.656
38015SOL    HW162884  12.943   2.250   5.563
38015SOL    HW262885  12.929   2.184   5.711
38016SOL     OW62886  16.568   4.912   0.896
38016SOL    HW162887  16.639   4.980   0.915
38016SOL    HW262888  16.563   4.895   0.798
38017SOL     OW62889  14.966  13.727   2.255
38017SOL    HW162890  14.942  13.821   2.229
38017SOL    HW262891  14.899  13.693   2.321
38018SOL     OW62892  14.225   5.318   7.736
38018SOL    HW162893  14.302   5.353   7.789
38018SOL    HW262894  14.254   5.301   7.642
38019SOL     OW62895   1.273  13.680   6.916
38019SOL    HW162896   1.314  13.632   6.838
38019SOL    HW262897   1.254  13.775   6.891
38020SOL     OW62898   4.647  14.456   0.949
38020SOL    HW162899   4.601  14.376   0.910
38020SOL    HW262900   4.724  14.482   0.891
38021SOL     OW62901   4.901  12.180   8.017
38021SOL    HW162902   4.940  12.230   7.939
38021SOL    HW262903   4.927  12.225   8.102
38022SOL     OW62904  11.453   0.847   1.640
38022SOL    HW162905  11.465   0.893   1.551
38022SOL    HW262906  11.521   0.881   1.704
38023SOL     OW62907  10.017   2.886   6.521
38023SOL    HW162908  10.069   2.962   6.560
38023SOL    HW262909   9.932   2.920   6.482
38024SOL     OW62910   0.999   0.745   1.776
38024SOL    HW162911   1.046   0.761   1.863
38024SOL    HW262912   0.971   0.650   1.769
38025SOL     OW62913   9.312   0.541   0.461
38025SOL    HW162914   9.340   0.447   0.480
38025SOL    HW262915   9.214   0.543   0.441
38026SOL     OW62916   6.644  13.449   6.602
38026SOL    HW162917   6.601  13.373   6.553
38026SOL    HW262918   6.602  13.457   6.693
38027SOL     OW62919  10.239   6.931   2.174
38027SOL    HW162920  10.297   6.893   2.247
38027SOL    HW262921  10.154   6.965   2.214
38028SOL     OW62922   3.098   4.206   1.718
38028SOL    HW162923   3.182   4.219   1.666
38028SOL    HW262924   3.094   4.272   1.793
38029SOL     OW62925  12.019   5.059   7.813
38029SOL    HW162926  12.041   5.107   7.728
38029SOL    HW262927  12.075   4.977   7.820
38030SOL     OW62928  15.960  10.433   2.894
38030SOL    HW162929  15.869  10.414   2.932
38030SOL    HW262930  15.989  10.524   2.923
38031SOL     OW62931   6.400  14.078   7.132
38031SOL    HW162932   6.440  14.069   7.223
38031SOL    HW262933   6.300  14.083   7.139
38032SOL     OW62934   6.051   4.756   0.856
38032SOL    HW162935   6.122   4.764   0.786
38032SOL    HW262936   6.021   4.660   0.862
38033SOL     OW62937   2.546  12.036   0.083
38033SOL    HW162938   2.519  12.082   8.453
38033SOL    HW262939   2.639  12.062   0.107
38034SOL     OW62940  14.533  13.223   2.299
38034SOL    HW162941  14.615  13.212   2.355
38034SOL    HW262942  14.539  13.163   2.219
38035SOL     OW62943   3.089   0.008   2.686
38035SOL    HW162944   3.130  16.945   2.607
38035SOL    HW262945   3.037  16.925   2.740
38036SOL     OW62946   5.419   3.266   2.268
38036SOL    HW162947   5.516   3.290   2.266
38036SOL    HW262948   5.364   3.349   2.277
38037SOL     OW62949  14.567   2.588   7.374
38037SOL    HW162950  14.522   2.592   7.284
38037SOL    HW262951  14.579   2.680   7.409
38038SOL     OW62952   6.947   4.168   8.420
38038SOL    HW162953   6.919   4.192   0.059
38038SOL    HW262954   7.036   4.123   8.423
38039SOL     OW62955  14.763  16.799   7.718
38039SOL    HW162956  14.846  16.808   7.773
38039SOL    HW262957  14.769  16.857   7.638
38040SOL     OW62958  10.874   1.575   6.511
38040SOL    HW162959  10.796   1.530   6.555
38040SOL    HW262960  10.855   1.673   6.502
38041SOL     OW62961   4.175  13.926   1.590
38041SOL    HW162962   4.160  14.024   1.575
38041SOL    HW262963   4.091  13.877   1.565
38042SOL     OW62964  15.796  13.468   2.182
38042SOL    HW162965  15.744  13.421   2.253
38042SOL    HW262966  15.793  13.566   2.199
38043SOL     OW62967   2.716  11.557   6.486
38043SOL    HW162968   2.713  11.585   6.390
38043SOL    HW262969   2.645  11.489   6.503
38044SOL     OW62970   6.789  16.304   8.115
38044SOL    HW162971   6.864  16.271   8.172
38044SOL    HW262972   6.827  16.352   8.035
38045SOL     OW62973  10.458   1.245   7.573
38045SOL    HW162974  10.542   1.226   7.624
38045SOL    HW262975  10.379   1.220   7.628
38046SOL     OW62976  11.509  16.516   0.368
38046SOL    HW162977  11.470  16.550   0.283
38046SOL    HW262978  11.584  16.453   0.348
38047SOL     OW62979  13.369   7.294   0.353
38047SOL    HW162980  13.326   7.328   0.269
38047SOL    HW262981  13.449   7.349   0.374
38048SOL     OW62982  10.969  15.330   8.420
38048SOL    HW162983  10.879  15.287   8.411
38048SOL    HW262984  10.964  15.426   8.391
38049SOL     OW62985   3.035   3.287   7.649
38049SOL    HW162986   3.054   3.245   7.737
38049SOL    HW262987   2.936   3.297   7.637
38050SOL     OW62988   0.457   2.760   6.112
38050SOL    HW162989   0.437   2.822   6.036
38050SOL    HW262990   0.550   2.777   6.145
38051SOL     OW62991  15.087   9.313   0.228
38051SOL    HW162992  15.119   9.278   0.316
38051SOL    HW262993  15.016   9.382   0.244
38052SOL     OW62994   8.264   9.776   7.599
38052SOL    HW162995   8.256   9.748   7.503
38052SOL    HW262996   8.315   9.706   7.650
38053SOL     OW62997   5.817   1.712   2.044
38053SOL    HW162998   5.770   1.656   1.975
38053SOL    HW262999   5.886   1.656   2.090
38054SOL     OW63000  15.873   7.154   1.430
38054SOL    HW163001  15.898   7.135   1.525
38054SOL    HW263002  15.937   7.109   1.368
38055SOL     OW63003  13.625   5.072   1.993
38055SOL    HW163004  13.573   5.024   2.063
38055SOL    HW263005  13.685   5.007   1.945
38056SOL     OW63006   0.355   3.299   0.800
38056SOL    HW163007   0.455   3.300   0.790
38056SOL    HW263008   0.326   3.385   0.843
38057SOL     OW63009   1.872   4.376   0.686
38057SOL    HW163010   1.947   4.311   0.669
38057SOL    HW263011   1.837   4.363   0.778
38058SOL     OW63012   0.394  13.447   6.989
38058SOL    HW163013   0.314  13.433   6.932
38058SOL    HW263014   0.456  13.369   6.979
38059SOL     OW63015  11.518   3.623   6.918
38059SOL    HW163016  11.438   3.648   6.972
38059SOL    HW263017  11.595   3.605   6.979
38060SOL     OW63018  11.521   3.967   5.692
38060SOL    HW163019  11.468   4.035   5.742
38060SOL    HW263020  11.574   4.013   5.621
38061SOL     OW63021   7.991   6.131   1.591
38061SOL    HW163022   7.982   6.045   1.641
38061SOL    HW263023   8.026   6.201   1.653
38062SOL     OW63024   3.634   5.256   7.238
38062SOL    HW163025   3.710   5.209   7.194
38062SOL    HW263026   3.613   5.340   7.188
38063SOL     OW63027   5.291   8.280   6.924
38063SOL    HW163028   5.269   8.254   7.019
38063SOL    HW263029   5.312   8.199   6.871
38064SOL     OW63030   1.465   8.374   0.184
38064SOL    HW163031   1.404   8.444   0.148
38064SOL    HW263032   1.550   8.373   0.132
38065SOL     OW63033   7.676  14.400   8.127
38065SOL    HW163034   7.624  14.382   8.043
38065SOL    HW263035   7.728  14.318   8.152
38066SOL     OW63036  10.629   8.714   7.034
38066SOL    HW163037  10.554   8.732   6.972
38066SOL    HW263038  10.698   8.658   6.988
38067SOL     OW63039  15.111  11.096   8.232
38067SOL    HW163040  15.019  11.106   8.270
38067SOL    HW263041  15.105  11.088   8.132
38068SOL     OW63042  15.521   5.431   7.754
38068SOL    HW163043  15.570   5.361   7.702
38068SOL    HW263044  15.496   5.395   7.844
38069SOL     OW63045   8.748  14.612   6.281
38069SOL    HW163046   8.649  14.604   6.293
38069SOL    HW263047   8.775  14.573   6.193
38070SOL     OW63048  15.904   1.110   0.678
38070SOL    HW163049  15.847   1.093   0.759
38070SOL    HW263050  15.901   1.031   0.618
38071SOL     OW63051  10.158  16.515   7.121
38071SOL    HW163052  10.221  16.590   7.144
38071SOL    HW263053  10.191  16.466   7.041
38072SOL     OW63054   2.707   0.577   1.518
38072SOL    HW163055   2.731   0.656   1.574
38072SOL    HW263056   2.608   0.572   1.507
38073SOL     OW63057  12.181   1.584   0.023
38073SOL    HW163058  12.169   1.682   0.037
38073SOL    HW263059  12.122   1.553   8.403
38074SOL     OW63060   4.058   6.583   7.584
38074SOL    HW163061   3.968   6.541   7.600
38074SOL    HW263062   4.057   6.677   7.618
38075SOL     OW63063   4.142   7.065   8.201
38075SOL    HW163064   4.186   7.129   8.138
38075SOL    HW263065   4.097   6.992   8.149
38076SOL     OW63066  12.108   4.995   6.710
38076SOL    HW163067  12.135   5.034   6.798
38076SOL    HW263068  12.141   4.902   6.703
38077SOL     OW63069  11.540  10.937   0.039
38077SOL    HW163070  11.640  10.940   0.042
38077SOL    HW263071  11.510  10.862   8.434
38078SOL     OW63072  14.805   2.543   0.345
38078SOL    HW163073  14.889   2.491   0.356
38078SOL    HW263074  14.756   2.510   0.264
38079SOL     OW63075  12.095   1.739   7.600
38079SOL    HW163076  12.086   1.641   7.618
38079SOL    HW263077  12.046   1.791   7.670
38080SOL     OW63078   7.933  13.987   0.756
38080SOL    HW163079   7.882  14.001   0.671
38080SOL    HW263080   7.871  14.000   0.834
38081SOL     OW63081  14.220   3.457   0.661
38081SOL    HW163082  14.219   3.360   0.638
38081SOL    HW263083  14.197   3.468   0.758
38082SOL     OW63084   6.002  15.653   0.777
38082SOL    HW163085   6.050  15.688   0.696
38082SOL    HW263086   5.933  15.718   0.805
38083SOL     OW63087  12.427  14.581   7.857
38083SOL    HW163088  12.381  14.646   7.796
38083SOL    HW263089  12.361  14.547   7.925
38084SOL     OW63090   7.588  16.391   6.720
38084SOL    HW163091   7.515  16.348   6.667
38084SOL    HW263092   7.560  16.483   6.747
38085SOL     OW63093  16.297  16.740   1.271
38085SOL    HW163094  16.271  16.708   1.362
38085SOL    HW263095  16.383  16.697   1.244
38086SOL     OW63096   6.695  12.265   2.400
38086SOL    HW163097   6.711  12.181   2.452
38086SOL    HW263098   6.707  12.344   2.459
38087SOL     OW63099  10.100  10.011   7.226
38087SOL    HW163100  10.181   9.981   7.176
38087SOL    HW263101  10.115  10.103   7.262
38088SOL     OW63102  10.619  15.239   2.452
38088SOL    HW163103  10.645  15.227   2.548
38088SOL    HW263104  10.643  15.331   2.422
38089SOL     OW63105   8.016  15.122   1.221
38089SOL    HW163106   8.070  15.180   1.281
38089SOL    HW263107   8.031  15.026   1.245
38090SOL     OW63108   7.591  12.032   0.390
38090SOL    HW163109   7.585  11.995   0.297
38090SOL    HW263110   7.592  11.957   0.455
38091SOL     OW63111  12.804  14.223   1.826
38091SOL    HW163112  12.897  14.248   1.803
38091SOL    HW263113  12.804  14.160   1.904
38092SOL     OW63114   9.285   4.581   1.015
38092SOL    HW163115   9.349   4.504   1.019
38092SOL    HW263116   9.288   4.632   1.101
38093SOL     OW63117   1.818  13.783   7.398
38093SOL    HW163118   1.736  13.764   7.452
38093SOL    HW263119   1.793  13.836   7.317
38094SOL     OW63120  11.976  13.391   0.229
38094SOL    HW163121  12.032  13.463   0.270
38094SOL    HW263122  11.975  13.402   0.129
38095SOL     OW63123   3.495   1.416   1.657
38095SOL    HW163124   3.584   1.432   1.701
38095SOL    HW263125   3.486   1.318   1.636
38096SOL     OW63126  10.320   2.484   0.276
38096SOL    HW163127  10.287   2.453   0.365
38096SOL    HW263128  10.420   2.476   0.272
38097SOL     OW63129   7.191  14.256   6.760
38097SOL    HW163130   7.278  14.296   6.730
38097SOL    HW263131   7.118  14.323   6.748
38098SOL     OW63132   6.793   2.587   7.379
38098SOL    HW163133   6.709   2.641   7.390
38098SOL    HW263134   6.768   2.494   7.351
38099SOL     OW63135   6.633   9.587   6.567
38099SOL    HW163136   6.691   9.512   6.600
38099SOL    HW263137   6.541   9.553   6.551
38100SOL     OW63138   7.997   6.565   7.817
38100SOL    HW163139   7.919   6.506   7.837
38100SOL    HW263140   7.966   6.643   7.762
38101SOL     OW63141   8.541  14.052   8.117
38101SOL    HW163142   8.535  14.130   8.055
38101SOL    HW263143   8.554  14.084   8.211
38102SOL     OW63144   4.331  15.488   7.689
38102SOL    HW163145   4.237  15.488   7.724
38102SOL    HW263146   4.392  15.455   7.760
38103SOL     OW63147  12.037   1.442   6.823
38103SOL    HW163148  12.078   1.360   6.782
38103SOL    HW263149  11.948   1.418   6.863
38104SOL     OW63150   5.833  12.145   1.158
38104SOL    HW163151   5.888  12.199   1.095
38104SOL    HW263152   5.736  12.167   1.145
38105SOL     OW63153  16.878   2.322   0.466
38105SOL    HW163154  16.888   2.273   0.552
38105SOL    HW263155  16.958   2.304   0.408
38106SOL     OW63156  13.255   2.901   6.848
38106SOL    HW163157  13.333   2.870   6.794
38106SOL    HW263158  13.170   2.866   6.807
38107SOL     OW63159  16.835  16.160   0.837
38107SOL    HW163160  16.803  16.253   0.818
38107SOL    HW263161  16.824  16.104   0.755
38108SOL     OW63162   0.021  12.164   1.027
38108SOL    HW163163   0.049  12.213   0.945
38108SOL    HW263164   0.032  12.065   1.012
38109SOL     OW63165   4.786   3.218   0.202
38109SOL    HW163166   4.809   3.236   0.106
38109SOL    HW263167   4.698   3.260   0.223
38110SOL     OW63168  10.719   5.786   6.522
38110SOL    HW163169  10.633   5.739   6.542
38110SOL    HW263170  10.750   5.762   6.430
38111SOL     OW63171   6.602  16.469   1.122
38111SOL    HW163172   6.662  16.394   1.147
38111SOL    HW263173   6.508  16.435   1.112
38112SOL     OW63174   6.561  12.414   0.066
38112SOL    HW163175   6.593  12.473   8.446
38112SOL    HW263176   6.595  12.448   0.154
38113SOL     OW63177  12.312  13.443   1.787
38113SOL    HW163178  12.283  13.539   1.790
38113SOL    HW263179  12.249  13.388   1.843
38114SOL     OW63180  11.668  15.795   2.033
38114SOL    HW163181  11.729  15.871   2.011
38114SOL    HW263182  11.626  15.812   2.122
38115SOL     OW63183   0.455  10.021   0.760
38115SOL    HW163184   0.461  10.043   0.858
38115SOL    HW263185   0.543  10.041   0.716
38116SOL     OW63186  16.289   4.207   0.390
38116SOL    HW163187  16.203   4.156   0.384
38116SOL    HW263188  16.275   4.301   0.361
38117SOL     OW63189   8.886   8.659   6.966
38117SOL    HW163190   8.900   8.560   6.958
38117SOL    HW263191   8.789   8.680   6.955
38118SOL     OW63192  16.876  11.743   8.331
38118SOL    HW163193  16.791  11.733   8.383
38118SOL    HW263194  16.942  11.675   8.362
38119SOL     OW63195   4.247  10.549   1.302
38119SOL    HW163196   4.163  10.596   1.275
38119SOL    HW263197   4.252  10.460   1.256
38120SOL     OW63198   0.173  12.816   8.153
38120SOL    HW163199   0.143  12.816   8.249
38120SOL    HW263200   0.217  12.729   8.132
38121SOL     OW63201   5.909  15.524   1.741
38121SOL    HW163202   5.848  15.549   1.666
38121SOL    HW263203   6.000  15.562   1.724
38122SOL     OW63204   0.339   2.519   7.083
38122SOL    HW163205   0.423   2.574   7.081
38122SOL    HW263206   0.313   2.495   6.990
38123SOL     OW63207   6.204   3.081   0.580
38123SOL    HW163208   6.225   3.008   0.515
38123SOL    HW263209   6.143   3.045   0.651
38124SOL     OW63210  14.524   3.485   0.073
38124SOL    HW163211  14.575   3.471   0.158
38124SOL    HW263212  14.470   3.404   0.053
38125SOL     OW63213   7.387   7.494   1.848
38125SOL    HW163214   7.309   7.446   1.886
38125SOL    HW263215   7.471   7.462   1.892
38126SOL     OW63216   2.003   6.132   6.143
38126SOL    HW163217   2.010   6.122   6.044
38126SOL    HW263218   2.093   6.154   6.181
38127SOL     OW63219  14.358  11.340   6.612
38127SOL    HW163220  14.353  11.376   6.519
38127SOL    HW263221  14.287  11.270   6.625
38128SOL     OW63222  10.216  14.570   7.719
38128SOL    HW163223  10.217  14.526   7.809
38128SOL    HW263224  10.257  14.508   7.652
38129SOL     OW63225   1.047   7.740   1.737
38129SOL    HW163226   1.049   7.730   1.837
38129SOL    HW263227   1.140   7.756   1.704
38130SOL     OW63228   7.939  14.361   0.716
38130SOL    HW163229   7.960  14.415   0.634
38130SOL    HW263230   7.963  14.265   0.700
38131SOL     OW63231   5.884   5.156   1.723
38131SOL    HW163232   5.867   5.206   1.807
38131SOL    HW263233   5.801   5.155   1.667
38132SOL     OW63234  13.981   9.385   7.080
38132SOL    HW163235  14.020   9.473   7.108
38132SOL    HW263236  13.899   9.401   7.024
38133SOL     OW63237  11.440   6.827   1.120
38133SOL    HW163238  11.513   6.891   1.095
38133SOL    HW263239  11.428   6.761   1.046
38134SOL     OW63240  16.918   1.702   0.350
38134SOL    HW163241  16.840   1.756   0.381
38134SOL    HW263242   0.009   1.708   0.417
38135SOL     OW63243   7.711  12.885   8.163
38135SOL    HW163244   7.775  12.887   8.087
38135SOL    HW263245   7.626  12.931   8.137
38136SOL     OW63246   3.930   9.473   8.022
38136SOL    HW163247   3.933   9.565   8.061
38136SOL    HW263248   3.994   9.413   8.071
38137SOL     OW63249   1.260   2.385   7.873
38137SOL    HW163250   1.322   2.464   7.880
38137SOL    HW263251   1.165   2.417   7.877
38138SOL     OW63252  15.748   8.905   8.157
38138SOL    HW163253  15.775   8.876   8.065
38138SOL    HW263254  15.675   8.846   8.191
38139SOL     OW63255  12.971   7.807   8.053
38139SOL    HW163256  12.891   7.780   8.000
38139SOL    HW263257  12.951   7.799   8.151
38140SOL     OW63258   9.074  15.486   1.641
38140SOL    HW163259   9.094  15.388   1.638
38140SOL    HW263260   9.065  15.516   1.736
38141SOL     OW63261  10.823   3.482   0.412
38141SOL    HW163262  10.790   3.540   0.487
38141SOL    HW263263  10.754   3.413   0.391
38142SOL     OW63264   7.750   8.764   2.040
38142SOL    HW163265   7.706   8.850   2.065
38142SOL    HW263266   7.813   8.736   2.112
38143SOL     OW63267   8.326   6.464   7.433
38143SOL    HW163268   8.371   6.376   7.448
38143SOL    HW263269   8.244   6.469   7.490
38144SOL     OW63270   5.326   0.444   7.742
38144SOL    HW163271   5.339   0.540   7.718
38144SOL    HW263272   5.229   0.425   7.754
38145SOL     OW63273   2.996   8.952   1.408
38145SOL    HW163274   3.083   8.906   1.388
38145SOL    HW263275   3.003   9.048   1.381
38146SOL     OW63276   8.322   6.015   8.041
38146SOL    HW163277   8.312   6.107   8.003
38146SOL    HW263278   8.403   5.971   8.002
38147SOL     OW63279   0.442  14.831   1.600
38147SOL    HW163280   0.539  14.857   1.603
38147SOL    HW263281   0.422  14.788   1.512
38148SOL     OW63282   2.641   2.968   1.299
38148SOL    HW163283   2.640   3.068   1.302
38148SOL    HW263284   2.681   2.938   1.213
38149SOL     OW63285  14.974  10.387   7.041
38149SOL    HW163286  14.956  10.450   6.965
38149SOL    HW263287  14.941  10.296   7.018
38150SOL     OW63288   6.670   7.941   7.517
38150SOL    HW163289   6.589   7.936   7.575
38150SOL    HW263290   6.649   7.995   7.435
38151SOL     OW63291  10.141  16.720   0.773
38151SOL    HW163292  10.082  16.725   0.853
38151SOL    HW263293  10.204  16.798   0.772
38152SOL     OW63294   5.249  15.108   6.934
38152SOL    HW163295   5.197  15.141   7.013
38152SOL    HW263296   5.215  15.153   6.851
38153SOL     OW63297   7.228  14.798   1.946
38153SOL    HW163298   7.177  14.860   1.886
38153SOL    HW263299   7.216  14.827   2.041
38154SOL     OW63300   8.613   2.494   0.773
38154SOL    HW163301   8.602   2.414   0.715
38154SOL    HW263302   8.688   2.478   0.837
38155SOL     OW63303  16.245   7.663   0.464
38155SOL    HW163304  16.215   7.753   0.495
38155SOL    HW263305  16.188   7.592   0.506
38156SOL     OW63306   7.830   4.745   7.410
38156SOL    HW163307   7.838   4.651   7.376
38156SOL    HW263308   7.854   4.747   7.507
38157SOL     OW63309  14.756  11.659   2.028
38157SOL    HW163310  14.777  11.562   2.041
38157SOL    HW263311  14.785  11.687   1.936
38158SOL     OW63312   6.897   9.127   6.358
38158SOL    HW163313   6.929   9.155   6.268
38158SOL    HW263314   6.848   9.040   6.350
38159SOL     OW63315   1.758   5.813   8.099
38159SOL    HW163316   1.727   5.907   8.085
38159SOL    HW263317   1.767   5.795   8.197
38160SOL     OW63318  15.525  10.033   1.625
38160SOL    HW163319  15.490   9.939   1.630
38160SOL    HW263320  15.583  10.051   1.705
38161SOL     OW63321  16.486  12.799   8.353
38161SOL    HW163322  16.404  12.783   8.409
38161SOL    HW263323  16.467  12.873   8.287
38162SOL     OW63324  11.647  12.449   1.575
38162SOL    HW163325  11.603  12.538   1.589
38162SOL    HW263326  11.744  12.463   1.556
38163SOL     OW63327  14.838   5.822   6.812
38163SOL    HW163328  14.933   5.827   6.843
38163SOL    HW263329  14.788   5.757   6.869
38164SOL     OW63330  11.904   4.043   0.986
38164SOL    HW163331  11.932   4.021   0.892
38164SOL    HW263332  11.960   3.992   1.050
38165SOL     OW63333   5.876   9.795   1.213
38165SOL    HW163334   5.883   9.840   1.124
38165SOL    HW263335   5.964   9.753   1.236
38166SOL     OW63336   7.211  11.651   1.263
38166SOL    HW163337   7.137  11.590   1.236
38166SOL    HW263338   7.222  11.723   1.195
38167SOL     OW63339  16.359   0.042   7.151
38167SOL    HW163340  16.437  16.965   7.165
38167SOL    HW263341  16.316   0.021   7.063
38168SOL     OW63342   6.283  15.893   8.414
38168SOL    HW163343   6.278  15.832   8.335
38168SOL    HW263344   6.236  15.979   8.392
38169SOL     OW63345  14.108   6.971   0.390
38169SOL    HW163346  14.112   7.034   0.312
38169SOL    HW263347  14.045   6.896   0.369
38170SOL     OW63348   2.937  10.575   8.103
38170SOL    HW163349   2.877  10.505   8.142
38170SOL    HW263350   2.987  10.621   8.177
38171SOL     OW63351   6.501   0.968   1.548
38171SOL    HW163352   6.548   1.006   1.627
38171SOL    HW263353   6.420   0.917   1.578
38172SOL     OW63354   4.724  10.616   7.509
38172SOL    HW163355   4.724  10.538   7.571
38172SOL    HW263356   4.783  10.688   7.546
38173SOL     OW63357   7.790  10.455   8.134
38173SOL    HW163358   7.831  10.364   8.128
38173SOL    HW263359   7.857  10.523   8.103
38174SOL     OW63360  15.030  13.517   1.562
38174SOL    HW163361  15.104  13.562   1.512
38174SOL    HW263362  15.066  13.482   1.649
38175SOL     OW63363  11.335   9.445   7.818
38175SOL    HW163364  11.381   9.533   7.808
38175SOL    HW263365  11.400   9.371   7.798
38176SOL     OW63366  13.009  10.086   1.969
38176SOL    HW163367  12.960  10.058   1.887
38176SOL    HW263368  12.966  10.045   2.049
38177SOL     OW63369  16.554   6.100   0.421
38177SOL    HW163370  16.584   6.129   0.512
38177SOL    HW263371  16.631   6.106   0.357
38178SOL     OW63372  16.815  11.487   0.115
38178SOL    HW163373  16.911  11.464   0.133
38178SOL    HW263374  16.792  11.571   0.164
38179SOL     OW63375  12.464   8.170   1.260
38179SOL    HW163376  12.370   8.203   1.254
38179SOL    HW263377  12.481   8.105   1.185
38180SOL     OW63378   7.010   2.654   7.939
38180SOL    HW163379   6.973   2.730   7.885
38180SOL    HW263380   7.004   2.678   8.036
38181SOL     OW63381  11.924   2.234   7.454
38181SOL    HW163382  12.017   2.271   7.445
38181SOL    HW263383  11.858   2.309   7.450
38182SOL     OW63384  13.130  11.635   7.863
38182SOL    HW163385  13.189  11.555   7.878
38182SOL    HW263386  13.036  11.612   7.889
38183SOL     OW63387   0.795  12.044   1.409
38183SOL    HW163388   0.736  12.058   1.488
38183SOL    HW263389   0.750  12.081   1.327
38184SOL     OW63390   8.176   2.249   1.216
38184SOL    HW163391   8.266   2.242   1.174
38184SOL    HW263392   8.178   2.314   1.292
38185SOL     OW63393   5.686   9.005   1.137
38185SOL    HW163394   5.740   8.967   1.062
38185SOL    HW263395   5.731   8.985   1.224
38186SOL     OW63396   7.325  11.722   0.118
38186SOL    HW163397   7.361  11.728   0.026
38186SOL    HW263398   7.275  11.806   0.140
38187SOL     OW63399   4.429  16.422   0.506
38187SOL    HW163400   4.408  16.424   0.603
38187SOL    HW263401   4.373  16.491   0.458
38188SOL     OW63402  16.824   6.890   7.016
38188SOL    HW163403  16.893   6.859   6.951
38188SOL    HW263404  16.844   6.852   7.106
38189SOL     OW63405  15.969   0.952   7.315
38189SOL    HW163406  16.037   0.989   7.251
38189SOL    HW263407  15.978   0.852   7.318
38190SOL     OW63408   0.902   2.152   1.522
38190SOL    HW163409   0.976   2.216   1.543
38190SOL    HW263410   0.890   2.089   1.598
38191SOL     OW63411  10.607   6.151   1.835
38191SOL    HW163412  10.578   6.189   1.923
38191SOL    HW263413  10.660   6.067   1.851
38192SOL     OW63414   2.106  10.602   6.863
38192SOL    HW163415   2.079  10.508   6.845
38192SOL    HW263416   2.113  10.652   6.777
38193SOL     OW63417  15.617   6.703   7.880
38193SOL    HW163418  15.620   6.720   7.782
38193SOL    HW263419  15.531   6.739   7.917
38194SOL     OW63420   8.957   1.112   7.764
38194SOL    HW163421   8.951   1.017   7.793
38194SOL    HW263422   9.039   1.155   7.803
38195SOL     OW63423  10.573   4.340   0.506
38195SOL    HW163424  10.625   4.415   0.466
38195SOL    HW263425  10.475   4.363   0.505
38196SOL     OW63426  14.147  12.963   8.123
38196SOL    HW163427  14.049  12.964   8.142
38196SOL    HW263428  14.193  13.027   8.184
38197SOL     OW63429  11.294  13.335   2.025
38197SOL    HW163430  11.292  13.433   2.044
38197SOL    HW263431  11.214  13.291   2.068
38198SOL     OW63432  16.815   7.659   1.853
38198SOL    HW163433  16.754   7.609   1.791
38198SOL    HW263434  16.864   7.594   1.911
38199SOL     OW63435   2.757   4.162   7.776
38199SOL    HW163436   2.775   4.202   7.866
38199SOL    HW263437   2.843   4.154   7.726
38200SOL     OW63438   4.389  12.421   7.883
38200SOL    HW163439   4.318  12.363   7.843
38200SOL    HW263440   4.431  12.477   7.812
38201SOL     OW63441  15.300   6.078   0.388
38201SOL    HW163442  15.336   6.144   0.322
38201SOL    HW263443  15.201   6.091   0.397
38202SOL     OW63444   4.322  11.572   6.767
38202SOL    HW163445   4.313  11.479   6.733
38202SOL    HW263446   4.401  11.616   6.724
38203SOL     OW63447  12.515   5.031   6.997
38203SOL    HW163448  12.498   5.047   6.900
38203SOL    HW263449  12.568   4.947   7.009
38204SOL     OW63450   2.246  13.327   0.122
38204SOL    HW163451   2.272  13.367   0.210
38204SOL    HW263452   2.300  13.368   0.049
38205SOL     OW63453   8.511  13.454   8.195
38205SOL    HW163454   8.452  13.401   8.256
38205SOL    HW263455   8.593  13.483   8.246
38206SOL     OW63456   7.000   3.615   7.896
38206SOL    HW163457   7.075   3.564   7.853
38206SOL    HW263458   7.037   3.679   7.963
38207SOL     OW63459  15.992   2.558   6.741
38207SOL    HW163460  15.953   2.639   6.784
38207SOL    HW263461  16.075   2.530   6.790
38208SOL     OW63462   5.949   3.277   1.277
38208SOL    HW163463   5.942   3.370   1.241
38208SOL    HW263464   5.982   3.216   1.205
38209SOL     OW63465  12.600  15.506   6.962
38209SOL    HW163466  12.660  15.585   6.980
38209SOL    HW263467  12.628  15.463   6.876
38210SOL     OW63468  15.965   4.559   6.703
38210SOL    HW163469  15.882   4.513   6.673
38210SOL    HW263470  15.944   4.618   6.781
38211SOL     OW63471  13.307   5.411   7.520
38211SOL    HW163472  13.304   5.509   7.540
38211SOL    HW263473  13.353   5.397   7.432
38212SOL     OW63474  13.171  14.056   8.067
38212SOL    HW163475  13.199  14.138   8.118
38212SOL    HW263476  13.174  13.976   8.128
38213SOL     OW63477  10.101   0.038   6.711
38213SOL    HW163478  10.155   0.121   6.696
38213SOL    HW263479  10.004   0.063   6.720
38214SOL     OW63480   7.071   0.099   1.415
38214SOL    HW163481   7.056   0.157   1.335
38214SOL    HW263482   7.122   0.017   1.388
38215SOL     OW63483   2.806  15.672   0.353
38215SOL    HW163484   2.819  15.722   0.267
38215SOL    HW263485   2.721  15.701   0.396
38216SOL     OW63486  13.333   8.034   6.938
38216SOL    HW163487  13.302   8.122   6.976
38216SOL    HW263488  13.424   8.045   6.899
38217SOL     OW63489   1.752  15.711   8.430
38217SOL    HW163490   1.703  15.774   8.370
38217SOL    HW263491   1.689  15.641   0.010
38218SOL     OW63492  13.882   8.723   1.091
38218SOL    HW163493  13.796   8.680   1.062
38218SOL    HW263494  13.861   8.809   1.137
38219SOL     OW63495   6.809   1.947   6.680
38219SOL    HW163496   6.729   2.005   6.687
38219SOL    HW263497   6.782   1.851   6.689
38220SOL     OW63498  16.493   2.246   7.945
38220SOL    HW163499  16.429   2.323   7.934
38220SOL    HW263500  16.585   2.280   7.959
38221SOL     OW63501  13.452   9.972   0.539
38221SOL    HW163502  13.538   9.976   0.488
38221SOL    HW263503  13.468   9.999   0.633
38222SOL     OW63504  15.066   9.664   7.791
38222SOL    HW163505  15.114   9.591   7.743
38222SOL    HW263506  15.047   9.635   7.885
38223SOL     OW63507   9.520   6.924   7.868
38223SOL    HW163508   9.577   7.004   7.850
38223SOL    HW263509   9.493   6.881   7.781
38224SOL     OW63510   0.907  11.657   0.652
38224SOL    HW163511   0.942  11.746   0.624
38224SOL    HW263512   0.966  11.585   0.615
38225SOL     OW63513   0.893  10.080   0.871
38225SOL    HW163514   0.832  10.067   0.793
38225SOL    HW263515   0.845  10.132   0.942
38226SOL     OW63516   0.545   2.815   0.936
38226SOL    HW163517   0.495   2.797   1.021
38226SOL    HW263518   0.611   2.741   0.921
38227SOL     OW63519   1.360  14.920   7.105
38227SOL    HW163520   1.439  14.977   7.127
38227SOL    HW263521   1.290  14.975   7.059
38228SOL     OW63522  16.376   3.825   0.708
38228SOL    HW163523  16.466   3.843   0.668
38228SOL    HW263524  16.327   3.759   0.651
38229SOL     OW63525  10.982   8.737   0.885
38229SOL    HW163526  11.072   8.696   0.902
38229SOL    HW263527  10.983   8.833   0.911
38230SOL     OW63528  14.940   3.755   0.057
38230SOL    HW163529  14.947   3.853   0.075
38230SOL    HW263530  14.907   3.741   8.418
38231SOL     OW63531  10.357   6.745   7.137
38231SOL    HW163532  10.431   6.780   7.080
38231SOL    HW263533  10.324   6.659   7.099
38232SOL     OW63534   8.923  12.595   8.131
38232SOL    HW163535   8.891  12.555   8.217
38232SOL    HW263536   9.018  12.568   8.115
38233SOL     OW63537  16.815   0.022   0.269
38233SOL    HW163538  16.859  16.936   0.212
38233SOL    HW263539  16.883   0.063   0.330
38234SOL     OW63540   3.113  12.022   6.828
38234SOL    HW163541   3.085  12.116   6.809
38234SOL    HW263542   3.143  11.979   6.743
38235SOL     OW63543   2.387   5.014   0.683
38235SOL    HW163544   2.366   4.920   0.654
38235SOL    HW263545   2.464   5.013   0.747
38236SOL     OW63546  10.862   4.475   8.191
38236SOL    HW163547  10.936   4.409   8.207
38236SOL    HW263548  10.785   4.429   8.148
38237SOL     OW63549  12.789  10.401   7.991
38237SOL    HW163550  12.754  10.353   7.910
38237SOL    HW263551  12.877  10.361   8.017
38238SOL     OW63552   2.515   4.044   0.776
38238SOL    HW163553   2.455   4.103   0.721
38238SOL    HW263554   2.484   4.045   0.871
38239SOL     OW63555   8.642   3.391   1.431
38239SOL    HW163556   8.647   3.491   1.426
38239SOL    HW263557   8.575   3.358   1.364
38240SOL     OW63558   5.190  11.410   7.190
38240SOL    HW163559   5.189  11.314   7.219
38240SOL    HW263560   5.218  11.416   7.094
38241SOL     OW63561  16.770  14.394   1.405
38241SOL    HW163562  16.694  14.366   1.346
38241SOL    HW263563  16.739  14.465   1.468
38242SOL     OW63564   0.696   6.705   0.078
38242SOL    HW163565   0.680   6.801   0.054
38242SOL    HW263566   0.688   6.648   8.450
38243SOL     OW63567   9.599   8.155   7.831
38243SOL    HW163568   9.506   8.121   7.816
38243SOL    HW263569   9.602   8.253   7.810
38244SOL     OW63570  14.270   2.424   0.789
38244SOL    HW163571  14.250   2.522   0.777
38244SOL    HW263572  14.187   2.376   0.816
38245SOL     OW63573   4.928   5.230   2.146
38245SOL    HW163574   4.950   5.133   2.139
38245SOL    HW263575   4.880   5.247   2.231
38246SOL     OW63576  12.107   5.393   1.424
38246SOL    HW163577  12.051   5.373   1.344
38246SOL    HW263578  12.175   5.321   1.437
38247SOL     OW63579   1.694   2.534   6.587
38247SOL    HW163580   1.785   2.494   6.600
38247SOL    HW263581   1.673   2.538   6.490
38248SOL     OW63582   6.278   6.059   7.482
38248SOL    HW163583   6.296   6.156   7.463
38248SOL    HW263584   6.365   6.010   7.488
38249SOL     OW63585  16.245   0.612   1.009
38249SOL    HW163586  16.184   0.586   0.935
38249SOL    HW263587  16.214   0.569   1.094
38250SOL     OW63588   3.495  14.452   7.354
38250SOL    HW163589   3.541  14.386   7.294
38250SOL    HW263590   3.562  14.496   7.412
38251SOL     OW63591  10.789   0.109   7.454
38251SOL    HW163592  10.691   0.093   7.440
38251SOL    HW263593  10.801   0.192   7.508
38252SOL     OW63594  14.402  16.215   0.433
38252SOL    HW163595  14.305  16.236   0.451
38252SOL    HW263596  14.408  16.139   0.369
38253SOL     OW63597  16.256  15.259   8.406
38253SOL    HW163598  16.290  15.348   8.434
38253SOL    HW263599  16.268  15.248   8.307
38254SOL     OW63600  16.061   5.696   1.425
38254SOL    HW163601  15.964   5.675   1.412
38254SOL    HW263602  16.074   5.743   1.512
38255SOL     OW63603   6.244  11.088   0.103
38255SOL    HW163604   6.168  11.099   0.168
38255SOL    HW263605   6.207  11.061   0.014
38256SOL     OW63606   4.452   4.758   0.336
38256SOL    HW163607   4.483   4.850   0.360
38256SOL    HW263608   4.395   4.722   0.411
38257SOL     OW63609  14.397   0.681   5.806
38257SOL    HW163610  14.303   0.653   5.787
38257SOL    HW263611  14.459   0.606   5.784
38258SOL     OW63612   4.396  13.725   7.490
38258SOL    HW163613   4.481  13.680   7.514
38258SOL    HW263614   4.401  13.822   7.513
38259SOL     OW63615   2.634  13.174   1.461
38259SOL    HW163616   2.583  13.100   1.418
38259SOL    HW263617   2.574  13.224   1.524
38260SOL     OW63618  11.211   3.663   0.343
38260SOL    HW163619  11.187   3.709   0.258
38260SOL    HW263620  11.143   3.685   0.413
38261SOL     OW63621   7.903  10.574   2.135
38261SOL    HW163622   7.979  10.619   2.181
38261SOL    HW263623   7.841  10.536   2.204
38262SOL     OW63624   5.646  13.592   7.975
38262SOL    HW163625   5.640  13.578   7.876
38262SOL    HW263626   5.742  13.602   8.002
38263SOL     OW63627   3.841   7.060   0.386
38263SOL    HW163628   3.832   7.041   0.288
38263SOL    HW263629   3.865   6.976   0.434
38264SOL     OW63630  16.128   8.535   1.379
38264SOL    HW163631  16.150   8.575   1.468
38264SOL    HW263632  16.038   8.566   1.349
38265SOL     OW63633  15.061  10.533   2.297
38265SOL    HW163634  15.091  10.612   2.243
38265SOL    HW263635  14.964  10.517   2.280
38266SOL     OW63636   5.572   2.326   7.603
38266SOL    HW163637   5.579   2.234   7.643
38266SOL    HW263638   5.658   2.348   7.557
38267SOL     OW63639  13.563   1.884   6.770
38267SOL    HW163640  13.593   1.979   6.756
38267SOL    HW263641  13.593   1.828   6.692
38268SOL     OW63642  10.270   3.536   0.121
38268SOL    HW163643  10.188   3.593   0.126
38268SOL    HW263644  10.342   3.587   0.074
38269SOL     OW63645  16.308   2.119   7.646
38269SOL    HW163646  16.387   2.106   7.586
38269SOL    HW263647  16.318   2.061   7.727
38270SOL     OW63648  10.820   6.194   0.159
38270SOL    HW163649  10.764   6.145   0.092
38270SOL    HW263650  10.808   6.293   0.147
38271SOL     OW63651  12.116  15.461   6.609
38271SOL    HW163652  12.054  15.538   6.591
38271SOL    HW263653  12.077  15.378   6.569
38272SOL     OW63654   7.156   9.801   8.281
38272SOL    HW163655   7.094   9.868   8.321
38272SOL    HW263656   7.233   9.848   8.238
38273SOL     OW63657   7.904   7.989   0.158
38273SOL    HW163658   7.903   7.890   0.174
38273SOL    HW263659   7.810   8.021   0.147
38274SOL     OW63660  14.533   4.930   6.916
38274SOL    HW163661  14.448   4.945   6.966
38274SOL    HW263662  14.602   4.892   6.977
38275SOL     OW63663   7.969  15.014   6.070
38275SOL    HW163664   8.038  14.957   6.024
38275SOL    HW263665   7.889  15.023   6.011
38276SOL     OW63666  11.696  11.726   7.693
38276SOL    HW163667  11.681  11.659   7.766
38276SOL    HW263668  11.616  11.785   7.686
38277SOL     OW63669   2.859   1.955   8.147
38277SOL    HW163670   2.919   1.971   8.068
38277SOL    HW263671   2.781   1.900   8.118
38278SOL     OW63672  11.066  11.507   1.716
38278SOL    HW163673  11.059  11.457   1.802
38278SOL    HW263674  11.003  11.468   1.649
38279SOL     OW63675   8.807   8.260   8.169
38279SOL    HW163676   8.832   8.275   8.073
38279SOL    HW263677   8.776   8.166   8.181
38280SOL     OW63678  15.419   1.517   1.532
38280SOL    HW163679  15.470   1.546   1.613
38280SOL    HW263680  15.480   1.469   1.469
38281SOL     OW63681  16.469   6.651   0.609
38281SOL    HW163682  16.552   6.679   0.561
38281SOL    HW263683  16.493   6.618   0.700
38282SOL     OW63684  11.940  16.362   6.117
38282SOL    HW163685  12.026  16.378   6.166
38282SOL    HW263686  11.950  16.390   6.022
38283SOL     OW63687  14.718  12.002   8.376
38283SOL    HW163688  14.768  12.047   8.302
38283SOL    HW263689  14.675  11.919   8.340
38284SOL     OW63690  14.932  15.370   0.109
38284SOL    HW163691  14.863  15.305   0.079
38284SOL    HW263692  14.952  15.356   0.206
38285SOL     OW63693   7.369  11.200   7.476
38285SOL    HW163694   7.370  11.278   7.413
38285SOL    HW263695   7.457  11.194   7.523
38286SOL     OW63696   5.657  11.416   7.865
38286SOL    HW163697   5.668  11.355   7.943
38286SOL    HW263698   5.621  11.504   7.896
38287SOL     OW63699   9.243  14.437   6.973
38287SOL    HW163700   9.207  14.371   7.039
38287SOL    HW263701   9.209  14.529   6.995
38288SOL     OW63702   3.654   2.311   7.687
38288SOL    HW163703   3.735   2.285   7.635
38288SOL    HW263704   3.637   2.409   7.675
38289SOL     OW63705  16.103  14.605   8.270
38289SOL    HW163706  16.202  14.615   8.274
38289SOL    HW263707  16.060  14.695   8.273
38290SOL     OW63708   4.095   4.426   8.265
38290SOL    HW163709   4.013   4.377   8.294
38290SOL    HW263710   4.134   4.381   8.184
38291SOL     OW63711   6.764  12.525   7.487
38291SOL    HW163712   6.681  12.567   7.452
38291SOL    HW263713   6.788  12.447   7.429
38292SOL     OW63714   7.034   9.994   0.701
38292SOL    HW163715   7.083  10.076   0.672
38292SOL    HW263716   7.032   9.991   0.801
38293SOL     OW63717   4.351   2.049   7.622
38293SOL    HW163718   4.353   2.034   7.523
38293SOL    HW263719   4.265   2.094   7.647
38294SOL     OW63720  11.192  10.169   0.119
38294SOL    HW163721  11.261  10.195   0.186
38294SOL    HW263722  11.237  10.140   0.034
38295SOL     OW63723   0.579   8.846   0.562
38295SOL    HW163724   0.485   8.833   0.530
38295SOL    HW263725   0.614   8.933   0.527
38296SOL     OW63726   2.751   4.382   1.518
38296SOL    HW163727   2.807   4.299   1.516
38296SOL    HW263728   2.794   4.450   1.576
38297SOL     OW63729   3.926   4.947   1.330
38297SOL    HW163730   3.986   5.008   1.279
38297SOL    HW263731   3.972   4.860   1.346
38298SOL     OW63732   6.079  11.413   0.201
38298SOL    HW163733   5.997  11.470   0.210
38298SOL    HW263734   6.058  11.320   0.229
38299SOL     OW63735   3.661   5.813   8.261
38299SOL    HW163736   3.600   5.891   8.242
38299SOL    HW263737   3.663   5.754   8.180
38300SOL     OW63738   2.547   1.714   1.747
38300SOL    HW163739   2.519   1.708   1.651
38300SOL    HW263740   2.644   1.738   1.752
38301SOL     OW63741  13.403   5.227   1.891
38301SOL    HW163742  13.485   5.185   1.932
38301SOL    HW263743  13.387   5.316   1.933
38302SOL     OW63744   1.449   1.201   8.305
38302SOL    HW163745   1.498   1.212   8.392
38302SOL    HW263746   1.417   1.107   8.297
38303SOL     OW63747   9.436   6.282   7.491
38303SOL    HW163748   9.365   6.215   7.508
38303SOL    HW263749   9.515   6.238   7.450
38304SOL     OW63750  14.830  16.404   7.878
38304SOL    HW163751  14.853  16.442   7.789
38304SOL    HW263752  14.913  16.369   7.922
38305SOL     OW63753   3.518  11.506   7.103
38305SOL    HW163754   3.579  11.465   7.170
38305SOL    HW263755   3.551  11.485   7.010
38306SOL     OW63756   2.326   9.455   6.297
38306SOL    HW163757   2.377   9.526   6.249
38306SOL    HW263758   2.229   9.462   6.274
38307SOL     OW63759  11.885   8.137   1.777
38307SOL    HW163760  11.874   8.146   1.876
38307SOL    HW263761  11.873   8.042   1.750
38308SOL     OW63762  10.447  11.714   6.489
38308SOL    HW163763  10.434  11.662   6.405
38308SOL    HW263764  10.490  11.802   6.467
38309SOL     OW63765  15.968   5.315   6.923
38309SOL    HW163766  15.971   5.362   6.835
38309SOL    HW263767  16.035   5.241   6.924
38310SOL     OW63768   7.360  16.310   6.564
38310SOL    HW163769   7.329  16.215   6.560
38310SOL    HW263770   7.280  16.371   6.558
38311SOL     OW63771  11.558  14.362   0.810
38311SOL    HW163772  11.512  14.414   0.882
38311SOL    HW263773  11.602  14.281   0.850
38312SOL     OW63774   3.116  16.160   1.823
38312SOL    HW163775   3.026  16.134   1.859
38312SOL    HW263776   3.146  16.093   1.755
38313SOL     OW63777  11.485   8.533   8.021
38313SOL    HW163778  11.450   8.507   7.932
38313SOL    HW263779  11.538   8.617   8.013
38314SOL     OW63780  15.307   0.469   0.378
38314SOL    HW163781  15.265   0.378   0.378
38314SOL    HW263782  15.287   0.514   0.465
38315SOL     OW63783  14.747  15.068   6.668
38315SOL    HW163784  14.691  14.992   6.635
38315SOL    HW263785  14.797  15.108   6.591
38316SOL     OW63786   1.431   1.854   7.613
38316SOL    HW163787   1.531   1.855   7.613
38316SOL    HW263788   1.397   1.833   7.705
38317SOL     OW63789  13.281  11.817   0.781
38317SOL    HW163790  13.325  11.907   0.788
38317SOL    HW263791  13.291  11.769   0.869
38318SOL     OW63792  15.016  15.427   6.666
38318SOL    HW163793  15.042  15.355   6.602
38318SOL    HW263794  15.011  15.515   6.617
38319SOL     OW63795   1.895  11.113   6.850
38319SOL    HW163796   1.914  11.020   6.818
38319SOL    HW263797   1.979  11.167   6.846
38320SOL     OW63798   3.680  13.893   0.573
38320SOL    HW163799   3.597  13.863   0.621
38320SOL    HW263800   3.756  13.833   0.598
38321SOL     OW63801   5.404   2.186   8.327
38321SOL    HW163802   5.400   2.185   8.427
38321SOL    HW263803   5.416   2.280   8.295
38322SOL     OW63804   7.708   9.423   0.835
38322SOL    HW163805   7.690   9.384   0.925
38322SOL    HW263806   7.731   9.350   0.771
38323SOL     OW63807   6.865  16.143   7.023
38323SOL    HW163808   6.924  16.080   7.074
38323SOL    HW263809   6.862  16.115   6.927
38324SOL     OW63810  14.103   6.421   7.027
38324SOL    HW163811  14.130   6.501   7.081
38324SOL    HW263812  14.005   6.403   7.041
38325SOL     OW63813  15.091  12.201   0.584
38325SOL    HW163814  15.032  12.122   0.569
38325SOL    HW263815  15.035  12.281   0.604
38326SOL     OW63816  11.390  16.829   7.856
38326SOL    HW163817  11.347  16.743   7.832
38326SOL    HW263818  11.382  16.844   7.954
38327SOL     OW63819   3.895   2.566   1.777
38327SOL    HW163820   3.955   2.615   1.713
38327SOL    HW263821   3.807   2.613   1.782
38328SOL     OW63822   4.855   9.938   7.434
38328SOL    HW163823   4.914   9.964   7.511
38328SOL    HW263824   4.775   9.998   7.433
38329SOL     OW63825   0.009  14.038   7.149
38329SOL    HW163826   0.053  14.127   7.163
38329SOL    HW263827  16.970  13.998   7.237
38330SOL     OW63828  15.234   7.199   7.764
38330SOL    HW163829  15.206   7.155   7.679
38330SOL    HW263830  15.277   7.287   7.745
38331SOL     OW63831  10.546  15.663   7.989
38331SOL    HW163832  10.578  15.569   7.997
38331SOL    HW263833  10.615  15.725   8.028
38332SOL     OW63834  15.846   1.985   0.585
38332SOL    HW163835  15.944   1.982   0.565
38332SOL    HW263836  15.814   2.080   0.583
38333SOL     OW63837   5.013   8.731   2.536
38333SOL    HW163838   5.011   8.829   2.554
38333SOL    HW263839   4.956   8.684   2.604
38334SOL     OW63840   5.213   5.852   0.286
38334SOL    HW163841   5.225   5.753   0.285
38334SOL    HW263842   5.143   5.876   0.354
38335SOL     OW63843   7.113  16.580   6.772
38335SOL    HW163844   7.107  16.534   6.683
38335SOL    HW263845   7.170  16.661   6.764
38336SOL     OW63846   5.836  12.197   7.056
38336SOL    HW163847   5.912  12.192   7.121
38336SOL    HW263848   5.828  12.291   7.021
38337SOL     OW63849   5.329  10.534   1.376
38337SOL    HW163850   5.283  10.608   1.327
38337SOL    HW263851   5.265  10.492   1.441
38338SOL     OW63852  10.988  12.342   1.529
38338SOL    HW163853  10.966  12.418   1.468
38338SOL    HW263854  10.918  12.335   1.600
38339SOL     OW63855   0.661   0.910   1.518
38339SOL    HW163856   0.753   0.928   1.552
38339SOL    HW263857   0.605   0.993   1.529
38340SOL     OW63858   2.227  10.847   8.098
38340SOL    HW163859   2.276  10.807   8.020
38340SOL    HW263860   2.199  10.941   8.076
38341SOL     OW63861   4.882   6.587   2.668
38341SOL    HW163862   4.966   6.582   2.615
38341SOL    HW263863   4.841   6.677   2.658
38342SOL     OW63864   2.255  15.204   1.800
38342SOL    HW163865   2.163  15.213   1.837
38342SOL    HW263866   2.264  15.117   1.752
38343SOL     OW63867  13.812   8.491   1.594
38343SOL    HW163868  13.882   8.422   1.613
38343SOL    HW263869  13.853   8.583   1.599
38344SOL     OW63870  15.135  10.832   2.468
38344SOL    HW163871  15.043  10.849   2.502
38344SOL    HW263872  15.168  10.744   2.502
38345SOL     OW63873   9.102   3.223   7.664
38345SOL    HW163874   9.043   3.178   7.731
38345SOL    HW263875   9.048   3.282   7.604
38346SOL     OW63876  10.184   1.533   6.959
38346SOL    HW163877  10.192   1.590   7.041
38346SOL    HW263878  10.092   1.542   6.921
38347SOL     OW63879  12.322   0.940   7.081
38347SOL    HW163880  12.294   0.896   7.167
38347SOL    HW263881  12.380   0.877   7.029
38348SOL     OW63882   5.633   0.937   1.320
38348SOL    HW163883   5.702   0.974   1.257
38348SOL    HW263884   5.676   0.868   1.378
38349SOL     OW63885   4.657   8.501   1.426
38349SOL    HW163886   4.741   8.536   1.384
38349SOL    HW263887   4.650   8.403   1.408
38350SOL     OW63888  12.514  16.415   1.011
38350SOL    HW163889  12.453  16.337   1.000
38350SOL    HW263890  12.460  16.499   1.019
38351SOL     OW63891   2.658  11.996   0.476
38351SOL    HW163892   2.634  11.925   0.542
38351SOL    HW263893   2.753  11.984   0.447
38352SOL     OW63894   1.291   7.688   7.421
38352SOL    HW163895   1.225   7.665   7.349
38352SOL    HW263896   1.262   7.649   7.508
38353SOL     OW63897   8.690   3.571   8.335
38353SOL    HW163898   8.755   3.529   8.273
38353SOL    HW263899   8.597   3.547   8.307
38354SOL     OW63900  13.833  14.462   6.698
38354SOL    HW163901  13.869  14.462   6.605
38354SOL    HW263902  13.847  14.552   6.739
38355SOL     OW63903   2.126   8.993   8.306
38355SOL    HW163904   2.180   8.995   8.390
38355SOL    HW263905   2.117   8.899   8.274
38356SOL     OW63906   4.496   3.922   0.630
38356SOL    HW163907   4.483   3.853   0.701
38356SOL    HW263908   4.594   3.929   0.609
38357SOL     OW63909   1.075  16.609   1.777
38357SOL    HW163910   0.991  16.650   1.812
38357SOL    HW263911   1.124  16.675   1.720
38358SOL     OW63912   3.548  16.711   7.003
38358SOL    HW163913   3.491  16.749   6.931
38358SOL    HW263914   3.494  16.650   7.061
38359SOL     OW63915   8.848  16.900   1.550
38359SOL    HW163916   8.858  16.812   1.596
38359SOL    HW263917   8.929  16.919   1.495
38360SOL     OW63918   2.825  15.632   1.150
38360SOL    HW163919   2.879  15.558   1.191
38360SOL    HW263920   2.831  15.628   1.051
38361SOL     OW63921   7.104  14.749   2.417
38361SOL    HW163922   7.063  14.838   2.439
38361SOL    HW263923   7.095  14.689   2.496
38362SOL     OW63924  13.738   1.381   6.075
38362SOL    HW163925  13.688   1.349   5.994
38362SOL    HW263926  13.822   1.426   6.047
38363SOL     OW63927   9.467   4.372   1.012
38363SOL    HW163928   9.527   4.425   1.071
38363SOL    HW263929   9.480   4.274   1.030
38364SOL     OW63930   2.316   2.482   6.470
38364SOL    HW163931   2.217   2.494   6.467
38364SOL    HW263932   2.361   2.566   6.438
38365SOL     OW63933  11.382   4.421   8.059
38365SOL    HW163934  11.430   4.334   8.072
38365SOL    HW263935  11.383   4.473   8.144
38366SOL     OW63936  11.894  10.723   1.733
38366SOL    HW163937  11.977  10.731   1.789
38366SOL    HW263938  11.874  10.627   1.717
38367SOL     OW63939  13.727   3.204   7.455
38367SOL    HW163940  13.685   3.213   7.545
38367SOL    HW263941  13.656   3.205   7.384
38368SOL     OW63942   6.613   2.087   1.173
38368SOL    HW163943   6.542   2.106   1.241
38368SOL    HW263944   6.590   2.131   1.087
38369SOL     OW63945  11.619  12.182   0.991
38369SOL    HW163946  11.689  12.254   0.988
38369SOL    HW263947  11.548  12.202   0.923
38370SOL     OW63948  15.093  11.084   7.948
38370SOL    HW163949  15.162  11.021   7.912
38370SOL    HW263950  15.107  11.175   7.909
38371SOL     OW63951   1.198  15.446   7.512
38371SOL    HW163952   1.223  15.477   7.604
38371SOL    HW263953   1.117  15.388   7.516
38372SOL     OW63954   6.868  13.620   8.187
38372SOL    HW163955   6.946  13.600   8.247
38372SOL    HW263956   6.785  13.630   8.242
38373SOL     OW63957  10.098  15.223   7.886
38373SOL    HW163958  10.190  15.232   7.846
38373SOL    HW263959  10.056  15.139   7.853
38374SOL     OW63960  13.425   1.330   5.646
38374SOL    HW163961  13.480   1.405   5.609
38374SOL    HW263962  13.333   1.333   5.608
38375SOL     OW63963   4.241   8.721   1.564
38375SOL    HW163964   4.221   8.632   1.605
38375SOL    HW263965   4.325   8.715   1.511
38376SOL     OW63966   5.792  13.807   7.753
38376SOL    HW163967   5.824  13.850   7.837
38376SOL    HW263968   5.775  13.877   7.684
38377SOL     OW63969  11.848  12.938   1.084
38377SOL    HW163970  11.893  12.854   1.053
38377SOL    HW263971  11.887  12.965   1.172
38378SOL     OW63972   8.080  11.936   0.026
38378SOL    HW163973   8.175  11.907   0.035
38378SOL    HW263974   8.043  11.904   8.393
38379SOL     OW63975   6.921  14.070   2.160
38379SOL    HW163976   6.960  13.979   2.150
38379SOL    HW263977   6.876  14.078   2.249
38380SOL     OW63978  11.820   2.010   7.576
38380SOL    HW163979  11.863   2.089   7.532
38380SOL    HW263980  11.875   1.980   7.653
38381SOL     OW63981   7.723  11.138   0.809
38381SOL    HW163982   7.719  11.093   0.720
38381SOL    HW263983   7.708  11.070   0.881
38382SOL     OW63984   7.459  10.529   0.454
38382SOL    HW163985   7.518  10.570   0.524
38382SOL    HW263986   7.505  10.534   0.365
38383SOL     OW63987  15.767   9.117   0.844
38383SOL    HW163988  15.751   9.199   0.790
38383SOL    HW263989  15.848   9.069   0.810
38384SOL     OW63990   1.345  13.212   2.077
38384SOL    HW163991   1.279  13.286   2.067
38384SOL    HW263992   1.335  13.170   2.167
38385SOL     OW63993  15.346  16.119   0.536
38385SOL    HW163994  15.379  16.212   0.553
38385SOL    HW263995  15.330  16.107   0.438
38386SOL     OW63996  11.758   2.279   0.667
38386SOL    HW163997  11.784   2.237   0.580
38386SOL    HW263998  11.741   2.376   0.653
38387SOL     OW63999  12.680   9.572   7.884
38387SOL    HW164000  12.767   9.618   7.903
38387SOL    HW264001  12.679   9.483   7.929
38388SOL     OW64002   0.075  14.655   1.660
38388SOL    HW164003   0.124  14.578   1.619
38388SOL    HW264004   0.019  14.622   1.736
38389SOL     OW64005   1.176   1.542   8.059
38389SOL    HW164006   1.134   1.590   8.137
38389SOL    HW264007   1.260   1.498   8.090
38390SOL     OW64008   3.677   8.323   7.727
38390SOL    HW164009   3.658   8.337   7.630
38390SOL    HW264010   3.757   8.378   7.753
38391SOL     OW64011   8.653   2.259   0.625
38391SOL    HW164012   8.696   2.310   0.550
38391SOL    HW264013   8.678   2.163   0.618
38392SOL     OW64014   5.116  11.153   0.089
38392SOL    HW164015   5.073  11.180   0.175
38392SOL    HW264016   5.045  11.135   0.021
38393SOL     OW64017  13.174  16.297   0.548
38393SOL    HW164018  13.201  16.322   0.640
38393SOL    HW264019  13.248  16.316   0.484
38394SOL     OW64020   3.865  13.061   2.567
38394SOL    HW164021   3.925  13.002   2.621
38394SOL    HW264022   3.873  13.036   2.470
38395SOL     OW64023  15.344   2.726   0.696
38395SOL    HW164024  15.284   2.774   0.761
38395SOL    HW264025  15.426   2.694   0.743
38396SOL     OW64026   9.682   5.677   0.621
38396SOL    HW164027   9.678   5.586   0.577
38396SOL    HW264028   9.750   5.676   0.693
38397SOL     OW64029   8.216  11.735   6.756
38397SOL    HW164030   8.279  11.709   6.829
38397SOL    HW264031   8.192  11.655   6.701
38398SOL     OW64032   7.438   7.188   1.046
38398SOL    HW164033   7.509   7.197   0.976
38398SOL    HW264034   7.452   7.102   1.096
38399SOL     OW64035   5.917   6.723   2.529
38399SOL    HW164036   5.895   6.783   2.606
38399SOL    HW264037   5.890   6.629   2.551
38400SOL     OW64038   8.107  13.944   1.041
38400SOL    HW164039   8.027  13.942   1.100
38400SOL    HW264040   8.152  13.854   1.042
38401SOL     OW64041   0.141   0.062   0.663
38401SOL    HW164042   0.241   0.060   0.663
38401SOL    HW264043   0.109   0.132   0.727
38402SOL     OW64044   3.125  11.114   7.738
38402SOL    HW164045   3.212  11.109   7.786
38402SOL    HW264046   3.136  11.081   7.644
38403SOL     OW64047   4.207  10.051   1.253
38403SOL    HW164048   4.125  10.056   1.311
38403SOL    HW264049   4.261   9.971   1.278
38404SOL     OW64050  15.733   5.031   0.076
38404SOL    HW164051  15.722   5.117   0.024
38404SOL    HW264052  15.828   5.023   0.106
38405SOL     OW64053   6.351   9.934   7.328
38405SOL    HW164054   6.383  10.025   7.353
38405SOL    HW264055   6.257   9.939   7.296
38406SOL     OW64056  11.460   8.206   2.167
38406SOL    HW164057  11.527   8.276   2.190
38406SOL    HW264058  11.399   8.191   2.244
38407SOL     OW64059  15.435  13.682   1.764
38407SOL    HW164060  15.432  13.582   1.765
38407SOL    HW264061  15.380  13.718   1.839
38408SOL     OW64062  13.377   9.541   8.398
38408SOL    HW164063  13.418   9.530   8.308
38408SOL    HW264064  13.427   9.485   0.010
38409SOL     OW64065   6.600   2.252   2.276
38409SOL    HW164066   6.630   2.270   2.370
38409SOL    HW264067   6.613   2.155   2.255
38410SOL     OW64068   9.689   0.989   0.019
38410SOL    HW164069   9.641   1.025   8.393
38410SOL    HW264070   9.782   1.027   0.021
38411SOL     OW64071  12.544   1.466   0.010
38411SOL    HW164072  12.626   1.425   0.050
38411SOL    HW264073  12.463   1.426   0.051
38412SOL     OW64074   3.315  15.151   2.533
38412SOL    HW164075   3.294  15.081   2.602
38412SOL    HW264076   3.290  15.241   2.567
38413SOL     OW64077   2.106   8.725   8.190
38413SOL    HW164078   2.088   8.679   8.103
38413SOL    HW264079   2.061   8.675   8.264
38414SOL     OW64080   3.915   6.342   0.907
38414SOL    HW164081   3.847   6.271   0.892
38414SOL    HW264082   3.949   6.337   1.001
38415SOL     OW64083   6.417   9.664   1.930
38415SOL    HW164084   6.438   9.668   2.028
38415SOL    HW264085   6.407   9.569   1.902
38416SOL     OW64086  13.896  12.623   0.012
38416SOL    HW164087  13.972  12.567   8.432
38416SOL    HW264088  13.860  12.582   0.095
38417SOL     OW64089   8.154   6.295   6.412
38417SOL    HW164090   8.067   6.337   6.437
38417SOL    HW264091   8.203   6.354   6.348
38418SOL     OW64092   4.570   0.549   1.214
38418SOL    HW164093   4.519   0.626   1.176
38418SOL    HW264094   4.520   0.464   1.195
38419SOL     OW64095   6.010   3.488   7.733
38419SOL    HW164096   6.003   3.524   7.640
38419SOL    HW264097   5.928   3.434   7.753
38420SOL     OW64098  15.525   4.224   0.530
38420SOL    HW164099  15.580   4.146   0.502
38420SOL    HW264100  15.460   4.196   0.600
38421SOL     OW64101   6.379   4.985   8.220
38421SOL    HW164102   6.461   5.002   8.275
38421SOL    HW264103   6.361   5.063   8.161
38422SOL     OW64104   9.976  14.985   7.121
38422SOL    HW164105   9.941  14.908   7.174
38422SOL    HW264106   9.943  14.979   7.027
38423SOL     OW64107   2.841  13.918   0.400
38423SOL    HW164108   2.833  14.007   0.354
38423SOL    HW264109   2.937  13.890   0.400
38424SOL     OW64110   5.991   8.375   1.503
38424SOL    HW164111   5.980   8.474   1.513
38424SOL    HW264112   6.081   8.348   1.537
38425SOL     OW64113  10.599   0.840   6.505
38425SOL    HW164114  10.624   0.749   6.539
38425SOL    HW264115  10.503   0.858   6.527
38426SOL     OW64116   0.915   0.939   1.613
38426SOL    HW164117   0.961   1.025   1.635
38426SOL    HW264118   0.943   0.868   1.678
38427SOL     OW64119   4.031   9.024   2.302
38427SOL    HW164120   4.116   8.976   2.281
38427SOL    HW264121   4.018   9.027   2.401
38428SOL     OW64122  12.180  15.562   0.710
38428SOL    HW164123  12.247  15.564   0.636
38428SOL    HW264124  12.121  15.643   0.704
38429SOL     OW64125  10.082  16.237   6.716
38429SOL    HW164126   9.992  16.265   6.749
38429SOL    HW264127  10.088  16.254   6.617
38430SOL     OW64128   1.592   6.046   6.686
38430SOL    HW164129   1.578   6.058   6.588
38430SOL    HW264130   1.592   6.136   6.730
38431SOL     OW64131   4.899   2.207   0.200
38431SOL    HW164132   4.912   2.200   0.101
38431SOL    HW264133   4.934   2.125   0.244
38432SOL     OW64134   2.853  10.856   1.722
38432SOL    HW164135   2.804  10.813   1.647
38432SOL    HW264136   2.805  10.939   1.750
38433SOL     OW64137   3.911   5.804   6.595
38433SOL    HW164138   3.919   5.823   6.693
38433SOL    HW264139   3.815   5.789   6.572
38434SOL     OW64140   7.887   7.412   6.313
38434SOL    HW164141   7.845   7.368   6.233
38434SOL    HW264142   7.981   7.438   6.291
38435SOL     OW64143   4.723  11.786   8.093
38435SOL    HW164144   4.650  11.755   8.033
38435SOL    HW264145   4.692  11.865   8.145
38436SOL     OW64146   8.053   0.759   6.669
38436SOL    HW164147   7.953   0.768   6.662
38436SOL    HW264148   8.088   0.830   6.730
38437SOL     OW64149   6.227  16.965   1.482
38437SOL    HW164150   6.182  16.929   1.400
38437SOL    HW264151   6.326  16.969   1.466
38438SOL     OW64152   4.588   8.932   1.388
38438SOL    HW164153   4.614   9.009   1.329
38438SOL    HW264154   4.665   8.909   1.448
38439SOL     OW64155  12.978   4.936   1.213
38439SOL    HW164156  13.001   4.842   1.240
38439SOL    HW264157  13.030   4.961   1.131
38440SOL     OW64158  14.834   2.769   6.499
38440SOL    HW164159  14.783   2.684   6.508
38440SOL    HW264160  14.773   2.842   6.468
38441SOL     OW64161   5.092   7.161   1.603
38441SOL    HW164162   5.058   7.096   1.671
38441SOL    HW264163   5.014   7.202   1.555
38442SOL     OW64164  10.796   2.484   1.355
38442SOL    HW164165  10.777   2.520   1.264
38442SOL    HW264166  10.768   2.389   1.359
38443SOL     OW64167  15.442   7.233   6.822
38443SOL    HW164168  15.517   7.220   6.886
38443SOL    HW264169  15.478   7.249   6.730
38444SOL     OW64170  10.088  12.214   6.612
38444SOL    HW164171  10.121  12.120   6.606
38444SOL    HW264172  10.156  12.276   6.574
38445SOL     OW64173   8.199   8.094   0.619
38445SOL    HW164174   8.136   8.128   0.549
38445SOL    HW264175   8.196   7.994   0.620
38446SOL     OW64176  11.369   6.525   5.999
38446SOL    HW164177  11.464   6.551   5.983
38446SOL    HW264178  11.339   6.462   5.928
38447SOL     OW64179  16.680   1.598   7.086
38447SOL    HW164180  16.738   1.530   7.131
38447SOL    HW264181  16.587   1.591   7.122
38448SOL     OW64182   7.150  14.686   1.416
38448SOL    HW164183   7.066  14.701   1.469
38448SOL    HW264184   7.229  14.712   1.471
38449SOL     OW64185   0.863   6.751   1.711
38449SOL    HW164186   0.828   6.823   1.771
38449SOL    HW264187   0.936   6.701   1.756
38450SOL     OW64188  12.684   7.160   7.948
38450SOL    HW164189  12.619   7.236   7.943
38450SOL    HW264190  12.691   7.130   8.043
38451SOL     OW64191   8.272   4.772   8.434
38451SOL    HW164192   8.285   4.777   0.079
38451SOL    HW264193   8.176   4.787   8.412
38452SOL     OW64194   0.736   4.488   8.108
38452SOL    HW164195   0.722   4.395   8.076
38452SOL    HW264196   0.813   4.530   8.060
38453SOL     OW64197   9.718  13.786   2.340
38453SOL    HW164198   9.794  13.730   2.373
38453SOL    HW264199   9.744  13.882   2.345
38454SOL     OW64200  13.675  16.422   7.955
38454SOL    HW164201  13.679  16.362   7.875
38454SOL    HW264202  13.712  16.512   7.930
38455SOL     OW64203   6.324   7.603   7.024
38455SOL    HW164204   6.341   7.632   6.930
38455SOL    HW264205   6.301   7.506   7.025
38456SOL     OW64206   1.682  16.278   0.951
38456SOL    HW164207   1.767  16.328   0.966
38456SOL    HW264208   1.678  16.245   0.856
38457SOL     OW64209  15.867   7.335   0.691
38457SOL    HW164210  15.941   7.387   0.650
38457SOL    HW264211  15.904   7.273   0.760
38458SOL     OW64212   6.248  12.772   8.151
38458SOL    HW164213   6.232  12.800   8.056
38458SOL    HW264214   6.196  12.831   8.213
38459SOL     OW64215   7.895   4.741   5.788
38459SOL    HW164216   7.855   4.650   5.803
38459SOL    HW264217   7.854   4.806   5.852
38460SOL     OW64218   6.577   7.182   7.383
38460SOL    HW164219   6.500   7.208   7.441
38460SOL    HW264220   6.563   7.216   7.291
38461SOL     OW64221  12.615   1.026   1.029
38461SOL    HW164222  12.565   0.952   0.984
38461SOL    HW264223  12.598   1.112   0.981
38462SOL     OW64224  13.849  12.166   7.991
38462SOL    HW164225  13.857  12.067   7.988
38462SOL    HW264226  13.772  12.195   7.934
38463SOL     OW64227  15.729  16.185   7.232
38463SOL    HW164228  15.820  16.160   7.199
38463SOL    HW264229  15.712  16.142   7.320
38464SOL     OW64230  15.595  12.832   7.833
38464SOL    HW164231  15.655  12.811   7.910
38464SOL    HW264232  15.502  12.846   7.867
38465SOL     OW64233   0.613   9.376   6.855
38465SOL    HW164234   0.536   9.314   6.838
38465SOL    HW264235   0.675   9.376   6.777
38466SOL     OW64236   8.517   0.105   7.524
38466SOL    HW164237   8.496   0.101   7.426
38466SOL    HW264238   8.433   0.123   7.575
38467SOL     OW64239  15.944   1.008   8.094
38467SOL    HW164240  15.988   1.060   8.021
38467SOL    HW264241  15.873   0.949   8.055
38468SOL     OW64242   1.522  14.215   0.570
38468SOL    HW164243   1.491  14.122   0.589
38468SOL    HW264244   1.564  14.219   0.479
38469SOL     OW64245  13.942   1.917   1.402
38469SOL    HW164246  13.936   1.818   1.384
38469SOL    HW264247  14.007   1.933   1.476
38470SOL     OW64248  14.059   0.332   6.452
38470SOL    HW164249  14.028   0.239   6.433
38470SOL    HW264250  14.093   0.373   6.367
38471SOL     OW64251  11.453   1.779   7.059
38471SOL    HW164252  11.493   1.861   7.017
38471SOL    HW264253  11.416   1.803   7.149
38472SOL     OW64254  15.525   2.770   7.615
38472SOL    HW164255  15.596   2.723   7.563
38472SOL    HW264256  15.438   2.722   7.605
38473SOL     OW64257   1.464  15.600   7.229
38473SOL    HW164258   1.515  15.537   7.288
38473SOL    HW264259   1.366  15.580   7.236
38474SOL     OW64260  12.845  15.969   7.992
38474SOL    HW164261  12.909  15.953   8.067
38474SOL    HW264262  12.763  16.013   8.027
38475SOL     OW64263  15.298  10.874   2.251
38475SOL    HW164264  15.236  10.849   2.325
38475SOL    HW264265  15.294  10.973   2.236
38476SOL     OW64266  14.785   1.570   6.831
38476SOL    HW164267  14.717   1.551   6.902
38476SOL    HW264268  14.850   1.494   6.826
38477SOL     OW64269  10.197   5.257   6.286
38477SOL    HW164270  10.282   5.209   6.309
38477SOL    HW264271  10.154   5.212   6.208
38478SOL     OW64272   8.893   0.616   6.709
38478SOL    HW164273   8.989   0.590   6.718
38478SOL    HW264274   8.847   0.608   6.797
38479SOL     OW64275  16.559   5.295   0.121
38479SOL    HW164276  16.512   5.377   0.153
38479SOL    HW264277  16.582   5.306   0.024
38480SOL     OW64278  15.683  13.125   1.784
38480SOL    HW164279  15.676  13.042   1.730
38480SOL    HW264280  15.627  13.117   1.867
38481SOL     OW64281   8.467  14.961   8.071
38481SOL    HW164282   8.441  14.914   8.156
38481SOL    HW264283   8.451  15.059   8.081
38482SOL     OW64284   2.840  12.057   6.578
38482SOL    HW164285   2.842  11.957   6.572
38482SOL    HW264286   2.925  12.094   6.540
38483SOL     OW64287   1.723  14.311   0.738
38483SOL    HW164288   1.642  14.273   0.693
38483SOL    HW264289   1.696  14.345   0.829
38484SOL     OW64290  14.389  15.502   7.787
38484SOL    HW164291  14.433  15.543   7.867
38484SOL    HW264292  14.432  15.538   7.704
38485SOL     OW64293   2.452   3.828   0.061
38485SOL    HW164294   2.532   3.771   0.039
38485SOL    HW264295   2.420   3.873   8.432
38486SOL     OW64296  14.500   1.746   7.981
38486SOL    HW164297  14.525   1.795   7.898
38486SOL    HW264298  14.477   1.812   8.054
38487SOL     OW64299  10.133   7.708   6.650
38487SOL    HW164300  10.179   7.619   6.636
38487SOL    HW264301  10.042   7.692   6.687
38488SOL     OW64302  12.647   8.579   2.153
38488SOL    HW164303  12.619   8.485   2.170
38488SOL    HW264304  12.646   8.630   2.238
38489SOL     OW64305   3.858  14.047   1.216
38489SOL    HW164306   3.796  14.001   1.280
38489SOL    HW264307   3.807  14.111   1.159
38490SOL     OW64308   3.030  10.169   0.849
38490SOL    HW164309   3.104  10.208   0.903
38490SOL    HW264310   2.951  10.152   0.908
38491SOL     OW64311   2.833   2.058   1.719
38491SOL    HW164312   2.926   2.082   1.747
38491SOL    HW264313   2.780   2.141   1.704
38492SOL     OW64314   4.811   6.219   0.251
38492SOL    HW164315   4.725   6.270   0.252
38492SOL    HW264316   4.819   6.169   0.164
38493SOL     OW64317  16.811   3.570   8.213
38493SOL    HW164318  16.716   3.540   8.209
38493SOL    HW264319  16.855   3.533   8.295
38494SOL     OW64320   3.936  13.555   7.422
38494SOL    HW164321   3.995  13.633   7.401
38494SOL    HW264322   3.981  13.497   7.490
38495SOL     OW64323   4.432  12.757   1.614
38495SOL    HW164324   4.356  12.817   1.588
38495SOL    HW264325   4.481  12.797   1.692
38496SOL     OW64326   9.151  11.045   1.126
38496SOL    HW164327   9.079  11.078   1.066
38496SOL    HW264328   9.212  11.120   1.150
38497SOL     OW64329   7.512   2.961   1.969
38497SOL    HW164330   7.589   2.947   2.030
38497SOL    HW264331   7.429   2.974   2.022
38498SOL     OW64332   7.013  16.027   1.363
38498SOL    HW164333   7.064  15.943   1.344
38498SOL    HW264334   7.076  16.104   1.367
38499SOL     OW64335  13.480   4.979   6.698
38499SOL    HW164336  13.380   4.974   6.701
38499SOL    HW264337  13.515   4.994   6.790
38500SOL     OW64338  11.683  14.496   7.783
38500SOL    HW164339  11.639  14.422   7.834
38500SOL    HW264340  11.642  14.503   7.692
38501SOL     OW64341  14.207   1.897   8.338
38501SOL    HW164342  14.220   1.889   8.437
38501SOL    HW264343  14.175   1.809   8.301
38502SOL     OW64344   5.918   6.016   6.787
38502SOL    HW164345   5.924   5.994   6.689
38502SOL    HW264346   5.837   6.071   6.804
38503SOL     OW64347   5.020   2.664   1.353
38503SOL    HW164348   5.026   2.575   1.308
38503SOL    HW264349   4.927   2.679   1.386
38504SOL     OW64350   8.103   5.951   0.658
38504SOL    HW164351   8.088   6.026   0.722
38504SOL    HW264352   8.201   5.942   0.639
38505SOL     OW64353   0.363  15.882   2.218
38505SOL    HW164354   0.347  15.947   2.292
38505SOL    HW264355   0.455  15.844   2.226
38506SOL     OW64356   7.641   1.780   7.599
38506SOL    HW164357   7.708   1.823   7.660
38506SOL    HW264358   7.549   1.804   7.628
38507SOL     OW64359   9.354   3.611   1.258
38507SOL    HW164360   9.260   3.591   1.228
38507SOL    HW264361   9.387   3.537   1.316
38508SOL     OW64362  10.682   0.970   7.170
38508SOL    HW164363  10.622   1.007   7.240
38508SOL    HW264364  10.675   1.024   7.086
38509SOL     OW64365  13.641   8.813   7.813
38509SOL    HW164366  13.710   8.790   7.744
38509SOL    HW264367  13.609   8.729   7.857
38510SOL     OW64368  11.852   2.708   1.439
38510SOL    HW164369  11.837   2.725   1.536
38510SOL    HW264370  11.784   2.642   1.406
38511SOL     OW64371  14.442  16.952   1.153
38511SOL    HW164372  14.348  16.918   1.154
38511SOL    HW264373  14.475  16.956   1.059
38512SOL     OW64374  15.827   8.811   1.099
38512SOL    HW164375  15.733   8.784   1.076
38512SOL    HW264376  15.830   8.910   1.115
38513SOL     OW64377   3.993  15.734   8.160
38513SOL    HW164378   4.017  15.764   8.252
38513SOL    HW264379   3.947  15.808   8.111
38514SOL     OW64380   5.933  12.331   0.480
38514SOL    HW164381   6.032  12.334   0.496
38514SOL    HW264382   5.891  12.413   0.518
38515SOL     OW64383   9.612  10.436   6.868
38515SOL    HW164384   9.565  10.519   6.837
38515SOL    HW264385   9.711  10.450   6.861
38516SOL     OW64386  15.100  12.772   6.746
38516SOL    HW164387  15.059  12.852   6.791
38516SOL    HW264388  15.029  12.718   6.702
38517SOL     OW64389   4.180   1.268   2.440
38517SOL    HW164390   4.218   1.324   2.514
38517SOL    HW264391   4.091   1.305   2.413
38518SOL     OW64392  12.884   2.757   7.363
38518SOL    HW164393  12.863   2.850   7.332
38518SOL    HW264394  12.930   2.707   7.289
38519SOL     OW64395   0.869  15.335   0.082
38519SOL    HW164396   0.926  15.325   0.164
38519SOL    HW264397   0.914  15.396   0.017
38520SOL     OW64398  13.101   1.351   0.179
38520SOL    HW164399  13.036   1.388   0.245
38520SOL    HW264400  13.155   1.425   0.139
38521SOL     OW64401  13.765   2.991   6.812
38521SOL    HW164402  13.835   2.937   6.765
38521SOL    HW264403  13.757   2.960   6.906
38522SOL     OW64404   3.967   4.268   0.058
38522SOL    HW164405   4.055   4.313   0.071
38522SOL    HW264406   3.980   4.169   0.052
38523SOL     OW64407   7.576  11.858   0.611
38523SOL    HW164408   7.569  11.932   0.678
38523SOL    HW264409   7.616  11.777   0.654
38524SOL     OW64410   8.936   3.387   7.517
38524SOL    HW164411   8.937   3.440   7.433
38524SOL    HW264412   8.872   3.429   7.582
38525SOL     OW64413   0.888   2.762   0.692
38525SOL    HW164414   0.821   2.835   0.676
38525SOL    HW264415   0.935   2.740   0.607
38526SOL     OW64416   5.279   5.815   8.351
38526SOL    HW164417   5.308   5.720   8.344
38526SOL    HW264418   5.310   5.865   8.270
38527SOL     OW64419  15.338  11.802   7.904
38527SOL    HW164420  15.433  11.774   7.915
38527SOL    HW264421  15.335  11.898   7.875
38528SOL     OW64422   5.804   6.511   6.952
38528SOL    HW164423   5.802   6.597   7.003
38528SOL    HW264424   5.874   6.451   6.991
38529SOL     OW64425  11.400  16.478   7.058
38529SOL    HW164426  11.396  16.401   7.122
38529SOL    HW264427  11.335  16.463   6.983
38530SOL     OW64428  13.960   7.129   0.004
38530SOL    HW164429  13.994   7.085   8.374
38530SOL    HW264430  14.034   7.135   0.071
38531SOL     OW64431  13.580   8.745   6.396
38531SOL    HW164432  13.496   8.757   6.342
38531SOL    HW264433  13.649   8.810   6.365
38532SOL     OW64434   7.381   1.427   1.758
38532SOL    HW164435   7.450   1.383   1.816
38532SOL    HW264436   7.358   1.517   1.796
38533SOL     OW64437  11.621   3.903   0.283
38533SOL    HW164438  11.674   3.874   0.363
38533SOL    HW264439  11.678   3.961   0.225
38534SOL     OW64440  14.152  14.030   1.652
38534SOL    HW164441  14.190  14.121   1.670
38534SOL    HW264442  14.088  14.036   1.575
38535SOL     OW64443  13.180   5.676   6.547
38535SOL    HW164444  13.252   5.719   6.492
38535SOL    HW264445  13.104   5.740   6.557
38536SOL     OW64446   1.799  11.743   1.579
38536SOL    HW164447   1.830  11.735   1.484
38536SOL    HW264448   1.754  11.831   1.592
38537SOL     OW64449   2.040  15.192   2.868
38537SOL    HW164450   2.045  15.265   2.936
38537SOL    HW264451   2.042  15.103   2.915
38538SOL     OW64452  10.639  14.183   0.433
38538SOL    HW164453  10.706  14.169   0.360
38538SOL    HW264454  10.633  14.280   0.454
38539SOL     OW64455  10.710  15.654   6.752
38539SOL    HW164456  10.627  15.689   6.709
38539SOL    HW264457  10.789  15.680   6.697
38540SOL     OW64458   8.448   0.145   8.116
38540SOL    HW164459   8.545   0.157   8.096
38540SOL    HW264460   8.409   0.233   8.146
38541SOL     OW64461   5.220  14.342   1.956
38541SOL    HW164462   5.202  14.333   2.054
38541SOL    HW264463   5.318  14.354   1.941
38542SOL     OW64464   5.551  16.467   8.285
38542SOL    HW164465   5.579  16.386   8.233
38542SOL    HW264466   5.451  16.470   8.290
38543SOL     OW64467  13.592  15.476   6.748
38543SOL    HW164468  13.558  15.432   6.831
38543SOL    HW264469  13.592  15.409   6.673
38544SOL     OW64470   8.148   0.569   6.273
38544SOL    HW164471   8.126   0.582   6.176
38544SOL    HW264472   8.225   0.627   6.298
38545SOL     OW64473   8.805   9.192   7.686
38545SOL    HW164474   8.777   9.246   7.607
38545SOL    HW264475   8.828   9.099   7.655
38546SOL     OW64476   1.114   8.503   7.913
38546SOL    HW164477   1.050   8.507   7.989
38546SOL    HW264478   1.116   8.411   7.876
38547SOL     OW64479   6.331  12.289   1.153
38547SOL    HW164480   6.274  12.238   1.217
38547SOL    HW264481   6.276  12.361   1.110
38548SOL     OW64482   9.488   6.188   0.894
38548SOL    HW164483   9.493   6.146   0.985
38548SOL    HW264484   9.569   6.244   0.878
38549SOL     OW64485   3.594  12.984   1.630
38549SOL    HW164486   3.570  13.080   1.648
38549SOL    HW264487   3.691  12.971   1.648
38550SOL     OW64488   5.225   9.025   8.316
38550SOL    HW164489   5.300   9.089   8.303
38550SOL    HW264490   5.256   8.946   8.369
38551SOL     OW64491  16.938   1.545   6.480
38551SOL    HW164492  16.874   1.610   6.439
38551SOL    HW264493  16.969   1.480   6.410
38552SOL     OW64494  10.581  16.212   6.617
38552SOL    HW164495  10.498  16.253   6.579
38552SOL    HW264496  10.623  16.152   6.549
38553SOL     OW64497   0.557   3.427   6.427
38553SOL    HW164498   0.507   3.462   6.347
38553SOL    HW264499   0.499   3.433   6.508
38554SOL     OW64500  14.366   6.141   8.033
38554SOL    HW164501  14.372   6.169   7.937
38554SOL    HW264502  14.352   6.043   8.039
38555SOL     OW64503   3.166   3.848   7.795
38555SOL    HW164504   3.145   3.925   7.856
38555SOL    HW264505   3.169   3.763   7.848
38556SOL     OW64506   8.377  15.844   1.098
38556SOL    HW164507   8.410  15.933   1.130
38556SOL    HW264508   8.450  15.798   1.048
38557SOL     OW64509  14.854  12.693   8.033
38557SOL    HW164510  14.943  12.647   8.034
38557SOL    HW264511  14.782  12.624   8.031
38558SOL     OW64512  15.060   6.785   0.595
38558SOL    HW164513  15.039   6.785   0.693
38558SOL    HW264514  15.148   6.830   0.580
38559SOL     OW64515   3.456   2.539   8.103
38559SOL    HW164516   3.373   2.593   8.089
38559SOL    HW264517   3.526   2.568   8.037
38560SOL     OW64518   6.433   3.139   7.997
38560SOL    HW164519   6.494   3.089   7.935
38560SOL    HW264520   6.410   3.080   8.075
38561SOL     OW64521  14.109   8.323   8.415
38561SOL    HW164522  14.047   8.354   0.033
38561SOL    HW264523  14.067   8.340   8.325
38562SOL     OW64524   0.754   0.033   0.361
38562SOL    HW164525   0.663   0.012   0.398
38562SOL    HW264526   0.747   0.046   0.262
38563SOL     OW64527  13.290   0.297   8.067
38563SOL    HW164528  13.227   0.352   8.122
38563SOL    HW264529  13.365   0.355   8.035
38564SOL     OW64530   7.735  13.228   0.080
38564SOL    HW164531   7.772  13.157   0.020
38564SOL    HW264532   7.756  13.204   0.175
38565SOL     OW64533   2.660   3.636   7.538
38565SOL    HW164534   2.693   3.717   7.586
38565SOL    HW264535   2.692   3.637   7.444
38566SOL     OW64536  11.519   7.215   6.988
38566SOL    HW164537  11.607   7.261   6.974
38566SOL    HW264538  11.532   7.135   7.047
38567SOL     OW64539  13.100  14.623   1.106
38567SOL    HW164540  13.030  14.602   1.039
38567SOL    HW264541  13.190  14.603   1.067
38568SOL     OW64542  14.455   5.183   1.513
38568SOL    HW164543  14.459   5.101   1.569
38568SOL    HW264544  14.368   5.231   1.530
38569SOL     OW64545   6.341  16.402   1.089
38569SOL    HW164546   6.248  16.427   1.118
38569SOL    HW264547   6.340  16.309   1.054
38570SOL     OW64548  12.147  16.015   8.232
38570SOL    HW164549  12.073  15.994   8.168
38570SOL    HW264550  12.206  15.935   8.243
38571SOL     OW64551  16.965  12.076   6.896
38571SOL    HW164552  16.891  12.046   6.836
38571SOL    HW264553   0.059  12.013   6.886
38572SOL     OW64554   3.540   9.276   0.514
38572SOL    HW164555   3.532   9.366   0.558
38572SOL    HW264556   3.606   9.281   0.439
38573SOL     OW64557   3.540   3.131   1.212
38573SOL    HW164558   3.485   3.050   1.230
38573SOL    HW264559   3.575   3.168   1.298
38574SOL     OW64560   5.196   5.956   1.039
38574SOL    HW164561   5.106   5.995   1.022
38574SOL    HW264562   5.263   6.030   1.046
38575SOL     OW64563   2.548   1.142   0.920
38575SOL    HW164564   2.544   1.225   0.975
38575SOL    HW264565   2.465   1.133   0.866
38576SOL     OW64566   8.694  16.929   0.254
38576SOL    HW164567   8.742  16.843   0.270
38576SOL    HW264568   8.759   0.015   0.223
38577SOL     OW64569  15.083   1.339   8.096
38577SOL    HW164570  15.097   1.431   8.132
38577SOL    HW264571  14.989   1.310   8.113
38578SOL     OW64572   9.985   5.417   0.596
38578SOL    HW164573  10.039   5.365   0.530
38578SOL    HW264574  10.034   5.420   0.683
38579SOL     OW64575  15.643   6.840   5.931
38579SOL    HW164576  15.726   6.829   5.876
38579SOL    HW264577  15.574   6.887   5.876
38580SOL     OW64578  11.316   4.403   0.959
38580SOL    HW164579  11.252   4.361   1.024
38580SOL    HW264580  11.287   4.381   0.866
38581SOL     OW64581   9.615   6.723   0.829
38581SOL    HW164582   9.567   6.703   0.744
38581SOL    HW264583   9.560   6.785   0.885
38582SOL     OW64584  10.042   3.709   0.141
38582SOL    HW164585  10.085   3.755   0.063
38582SOL    HW264586   9.959   3.663   0.111
38583SOL     OW64587  14.814   5.244   0.211
38583SOL    HW164588  14.832   5.147   0.195
38583SOL    HW264589  14.877   5.279   0.281
38584SOL     OW64590   5.820   6.461   1.536
38584SOL    HW164591   5.873   6.477   1.619
38584SOL    HW264592   5.778   6.547   1.506
38585SOL     OW64593  10.732  10.743   1.079
38585SOL    HW164594  10.819  10.780   1.110
38585SOL    HW264595  10.672  10.817   1.048
38586SOL     OW64596   0.767  12.180   0.603
38586SOL    HW164597   0.716  12.266   0.602
38586SOL    HW264598   0.818  12.170   0.518
38587SOL     OW64599   3.206  10.883   1.476
38587SOL    HW164600   3.254  10.883   1.389
38587SOL    HW264601   3.250  10.818   1.538
38588SOL     OW64602   4.712   4.964   8.207
38588SOL    HW164603   4.758   5.053   8.200
38588SOL    HW264604   4.635   4.962   8.144
38589SOL     OW64605   9.422   8.540   0.974
38589SOL    HW164606   9.455   8.634   0.978
38589SOL    HW264607   9.368   8.527   0.891
38590SOL     OW64608   3.898  11.785   8.344
38590SOL    HW164609   3.926  11.872   8.385
38590SOL    HW264610   3.826  11.744   8.400
38591SOL     OW64611   6.669   4.371   8.120
38591SOL    HW164612   6.766   4.354   8.135
38591SOL    HW264613   6.628   4.291   8.076
38592SOL     OW64614   3.163   8.410   1.369
38592SOL    HW164615   3.230   8.340   1.345
38592SOL    HW264616   3.098   8.373   1.436
38593SOL     OW64617  13.449   7.300   1.090
38593SOL    HW164618  13.522   7.364   1.067
38593SOL    HW264619  13.403   7.269   1.007
38594SOL     OW64620   3.471   8.754   2.424
38594SOL    HW164621   3.478   8.851   2.447
38594SOL    HW264622   3.540   8.702   2.475
38595SOL     OW64623   7.900   2.596   7.738
38595SOL    HW164624   7.830   2.545   7.787
38595SOL    HW264625   7.868   2.617   7.645
38596SOL     OW64626   8.128   5.006   0.226
38596SOL    HW164627   8.031   4.986   0.239
38596SOL    HW264628   8.162   5.060   0.303
38597SOL     OW64629   3.824   9.938   1.295
38597SOL    HW164630   3.736   9.980   1.316
38597SOL    HW264631   3.895   9.978   1.352
38598SOL     OW64632   3.940  11.496   1.449
38598SOL    HW164633   3.892  11.567   1.398
38598SOL    HW264634   3.915  11.501   1.546
38599SOL     OW64635   4.094   1.289   1.711
38599SOL    HW164636   4.085   1.271   1.809
38599SOL    HW264637   4.100   1.388   1.696
38600SOL     OW64638  15.468  12.440   1.222
38600SOL    HW164639  15.391  12.407   1.277
38600SOL    HW264640  15.471  12.540   1.226
38601SOL     OW64641   2.010  13.086   7.547
38601SOL    HW164642   2.035  13.043   7.460
38601SOL    HW264643   1.990  13.183   7.532
38602SOL     OW64644   0.737   3.776   5.783
38602SOL    HW164645   0.649   3.823   5.782
38602SOL    HW264646   0.751   3.729   5.696
38603SOL     OW64647   4.952  14.163   2.112
38603SOL    HW164648   5.024  14.218   2.155
38603SOL    HW264649   4.867  14.216   2.110
38604SOL     OW64650   7.104   4.207   1.377
38604SOL    HW164651   7.057   4.152   1.309
38604SOL    HW264652   7.082   4.174   1.469
38605SOL     OW64653  13.299   1.850   6.797
38605SOL    HW164654  13.396   1.874   6.795
38605SOL    HW264655  13.248   1.914   6.739
38606SOL     OW64656   6.942  15.737   0.549
38606SOL    HW164657   6.958  15.661   0.486
38606SOL    HW264658   6.861  15.716   0.605
38607SOL     OW64659   5.456  11.544   1.934
38607SOL    HW164660   5.495  11.635   1.950
38607SOL    HW264661   5.402  11.518   2.014
38608SOL     OW64662   3.964   2.028   7.166
38608SOL    HW164663   3.878   2.079   7.161
38608SOL    HW264664   4.036   2.081   7.122
38609SOL     OW64665  12.717  14.586   7.369
38609SOL    HW164666  12.802  14.541   7.341
38609SOL    HW264667  12.734  14.643   7.449
38610SOL     OW64668  16.745   1.914   1.735
38610SOL    HW164669  16.730   1.975   1.812
38610SOL    HW264670  16.724   1.962   1.650
38611SOL     OW64671   8.604   3.138   6.499
38611SOL    HW164672   8.615   3.064   6.433
38611SOL    HW264673   8.685   3.195   6.499
38612SOL     OW64674   5.941  15.333   8.208
38612SOL    HW164675   5.954  15.241   8.173
38612SOL    HW264676   5.962  15.335   8.306
38613SOL     OW64677   6.574  15.556   0.547
38613SOL    HW164678   6.623  15.607   0.617
38613SOL    HW264679   6.615  15.574   0.457
38614SOL     OW64680   0.408   8.138   8.401
38614SOL    HW164681   0.386   8.212   8.337
38614SOL    HW264682   0.458   8.066   8.352
38615SOL     OW64683   0.330  12.230   0.893
38615SOL    HW164684   0.248  12.246   0.837
38615SOL    HW264685   0.340  12.132   0.910
38616SOL     OW64686   7.154  16.091   7.825
38616SOL    HW164687   7.089  16.144   7.770
38616SOL    HW264688   7.105  16.018   7.874
38617SOL     OW64689  13.291   3.097   7.895
38617SOL    HW164690  13.288   3.151   7.979
38617SOL    HW264691  13.386   3.070   7.877
38618SOL     OW64692  10.512  11.499   7.349
38618SOL    HW164693  10.542  11.468   7.439
38618SOL    HW264694  10.540  11.431   7.280
38619SOL     OW64695   8.518   8.990   8.040
38619SOL    HW164696   8.467   9.067   8.078
38619SOL    HW264697   8.503   8.986   7.941
38620SOL     OW64698   5.439  13.647   0.127
38620SOL    HW164699   5.409  13.569   0.072
38620SOL    HW264700   5.467  13.721   0.066
38621SOL     OW64701  10.958   3.313   6.644
38621SOL    HW164702  10.906   3.393   6.615
38621SOL    HW264703  11.021   3.338   6.717
38622SOL     OW64704  14.132   1.933   6.795
38622SOL    HW164705  14.128   1.888   6.884
38622SOL    HW264706  14.190   2.015   6.802
38623SOL     OW64707  12.477  12.296   6.932
38623SOL    HW164708  12.459  12.322   6.837
38623SOL    HW264709  12.565  12.249   6.938
38624SOL     OW64710   2.659  13.964   1.935
38624SOL    HW164711   2.628  13.871   1.957
38624SOL    HW264712   2.644  13.982   1.838
38625SOL     OW64713   7.336   3.206   1.199
38625SOL    HW164714   7.373   3.299   1.202
38625SOL    HW264715   7.366   3.162   1.114
38626SOL     OW64716   4.401   5.892   8.269
38626SOL    HW164717   4.356   5.831   8.334
38626SOL    HW264718   4.362   5.984   8.278
38627SOL     OW64719  15.385   5.152   0.033
38627SOL    HW164720  15.421   5.089   0.102
38627SOL    HW264721  15.368   5.103   8.402
38628SOL     OW64722   2.150   2.464   8.104
38628SOL    HW164723   2.056   2.458   8.069
38628SOL    HW264724   2.172   2.560   8.124
38629SOL     OW64725   9.906  15.256   1.512
38629SOL    HW164726   9.825  15.263   1.453
38629SOL    HW264727   9.917  15.161   1.543
38630SOL     OW64728   5.004  13.090   0.263
38630SOL    HW164729   5.098  13.096   0.296
38630SOL    HW264730   4.944  13.065   0.340
38631SOL     OW64731  15.878  10.836   7.477
38631SOL    HW164732  15.821  10.824   7.558
38631SOL    HW264733  15.963  10.784   7.488
38632SOL     OW64734  13.702   5.954   8.226
38632SOL    HW164735  13.718   5.907   8.139
38632SOL    HW264736  13.624   6.016   8.216
38633SOL     OW64737   0.884   9.614   6.512
38633SOL    HW164738   0.908   9.710   6.498
38633SOL    HW264739   0.954   9.556   6.470
38634SOL     OW64740   8.596  16.766   6.736
38634SOL    HW164741   8.531  16.691   6.728
38634SOL    HW264742   8.591  16.823   6.654
38635SOL     OW64743   6.188   2.989   7.270
38635SOL    HW164744   6.286   3.003   7.269
38635SOL    HW264745   6.165   2.910   7.212
38636SOL     OW64746  12.369   2.952   8.005
38636SOL    HW164747  12.295   2.940   8.070
38636SOL    HW264748  12.375   2.871   7.946
38637SOL     OW64749  10.556   4.052   2.031
38637SOL    HW164750  10.511   4.008   2.109
38637SOL    HW264751  10.558   4.151   2.046
38638SOL     OW64752   7.752  13.378   0.982
38638SOL    HW164753   7.731  13.474   1.000
38638SOL    HW264754   7.702  13.348   0.900
38639SOL     OW64755  14.775   8.439   7.357
38639SOL    HW164756  14.751   8.434   7.454
38639SOL    HW264757  14.805   8.531   7.334
38640SOL     OW64758  12.824  16.653   0.584
38640SOL    HW164759  12.726  16.637   0.591
38640SOL    HW264760  12.872  16.565   0.576
38641SOL     OW64761  13.995   8.930   8.022
38641SOL    HW164762  13.898   8.946   8.002
38641SOL    HW264763  14.006   8.904   8.117
38642SOL     OW64764   9.493   3.394   0.992
38642SOL    HW164765   9.560   3.453   1.037
38642SOL    HW264766   9.458   3.439   0.910
38643SOL     OW64767  16.223  14.161   1.843
38643SOL    HW164768  16.225  14.147   1.942
38643SOL    HW264769  16.311  14.199   1.814
38644SOL     OW64770   8.865  15.387   0.601
38644SOL    HW164771   8.790  15.347   0.548
38644SOL    HW264772   8.951  15.376   0.551
38645SOL     OW64773   5.643  14.443   1.325
38645SOL    HW164774   5.720  14.506   1.337
38645SOL    HW264775   5.557  14.493   1.335
38646SOL     OW64776  10.437  10.885   0.781
38646SOL    HW164777  10.364  10.936   0.826
38646SOL    HW264778  10.520  10.940   0.778
38647SOL     OW64779   4.052  11.926   1.939
38647SOL    HW164780   4.036  11.990   1.864
38647SOL    HW264781   4.092  11.842   1.903
38648SOL     OW64782  10.588  14.671   6.126
38648SOL    HW164783  10.560  14.575   6.123
38648SOL    HW264784  10.683  14.679   6.095
38649SOL     OW64785   8.933   8.338   1.533
38649SOL    HW164786   8.931   8.253   1.586
38649SOL    HW264787   8.974   8.320   1.443
38650SOL     OW64788  13.338  10.384   7.109
38650SOL    HW164789  13.424  10.370   7.061
38650SOL    HW264790  13.318  10.482   7.113
38651SOL     OW64791  10.435  16.799   8.310
38651SOL    HW164792  10.389  16.873   8.261
38651SOL    HW264793  10.438  16.820   8.408
38652SOL     OW64794  12.603   2.107   6.549
38652SOL    HW164795  12.563   2.100   6.457
38652SOL    HW264796  12.586   2.023   6.599
38653SOL     OW64797   7.463   7.772   7.896
38653SOL    HW164798   7.459   7.685   7.946
38653SOL    HW264799   7.390   7.774   7.827
38654SOL     OW64800   9.797   0.336   0.387
38654SOL    HW164801   9.778   0.414   0.447
38654SOL    HW264802   9.770   0.358   0.294
38655SOL     OW64803   8.879  11.381   1.114
38655SOL    HW164804   8.789  11.423   1.106
38655SOL    HW264805   8.878  11.290   1.072
38656SOL     OW64806   1.479  11.117   7.781
38656SOL    HW164807   1.498  11.152   7.872
38656SOL    HW264808   1.387  11.145   7.753
38657SOL     OW64809   5.834   9.355   7.104
38657SOL    HW164810   5.742   9.360   7.144
38657SOL    HW264811   5.895   9.307   7.167
38658SOL     OW64812   6.405   0.915   0.836
38658SOL    HW164813   6.468   0.861   0.781
38658SOL    HW264814   6.355   0.978   0.777
38659SOL     OW64815   3.164  13.409   7.535
38659SOL    HW164816   3.174  13.364   7.624
38659SOL    HW264817   3.254  13.437   7.501
38660SOL     OW64818   2.893  11.225   7.483
38660SOL    HW164819   2.961  11.153   7.468
38660SOL    HW264820   2.851  11.213   7.573
38661SOL     OW64821   6.958   0.171   0.546
38661SOL    HW164822   6.871   0.160   0.499
38661SOL    HW264823   7.004   0.253   0.514
38662SOL     OW64824  11.730   1.956   7.141
38662SOL    HW164825  11.793   1.879   7.131
38662SOL    HW264826  11.675   1.964   7.057
38663SOL     OW64827   8.748  16.460   8.117
38663SOL    HW164828   8.776  16.545   8.073
38663SOL    HW264829   8.824  16.424   8.172
38664SOL     OW64830  13.061  15.105   1.154
38664SOL    HW164831  13.041  15.137   1.247
38664SOL    HW264832  12.990  15.137   1.091
38665SOL     OW64833  12.555   1.280   0.919
38665SOL    HW164834  12.596   1.367   0.947
38665SOL    HW264835  12.455   1.289   0.920
38666SOL     OW64836   5.624  16.960   1.584
38666SOL    HW164837   5.721  16.950   1.564
38666SOL    HW264838   5.611  16.963   1.684
38667SOL     OW64839   0.976   4.548   7.154
38667SOL    HW164840   0.957   4.627   7.212
38667SOL    HW264841   0.966   4.464   7.208
38668SOL     OW64842   1.178  12.894   8.153
38668SOL    HW164843   1.249  12.828   8.130
38668SOL    HW264844   1.221  12.978   8.187
38669SOL     OW64845   8.553  16.318   1.728
38669SOL    HW164846   8.565  16.225   1.695
38669SOL    HW264847   8.477  16.321   1.793
38670SOL     OW64848  10.161   2.656   6.839
38670SOL    HW164849  10.077   2.607   6.861
38670SOL    HW264850  10.227   2.646   6.914
38671SOL     OW64851   5.524   3.971   7.493
38671SOL    HW164852   5.531   4.026   7.576
38671SOL    HW264853   5.483   3.883   7.514
38672SOL     OW64854  14.511  15.959   7.967
38672SOL    HW164855  14.444  15.925   8.033
38672SOL    HW264856  14.595  15.985   8.015
38673SOL     OW64857   5.416   9.600   1.669
38673SOL    HW164858   5.459   9.553   1.592
38673SOL    HW264859   5.487   9.636   1.730
38674SOL     OW64860   7.834   8.335   0.623
38674SOL    HW164861   7.750   8.352   0.571
38674SOL    HW264862   7.811   8.295   0.712
38675SOL     OW64863   8.141   1.320   8.439
38675SOL    HW164864   8.043   1.334   8.453
38675SOL    HW264865   8.189   1.338   0.071
38676SOL     OW64866   8.152   5.393   7.243
38676SOL    HW164867   8.066   5.343   7.236
38676SOL    HW264868   8.148   5.475   7.186
38677SOL     OW64869   7.807  12.035   7.574
38677SOL    HW164870   7.873  12.093   7.527
38677SOL    HW264871   7.836  12.019   7.668
38678SOL     OW64872  11.683  14.459   0.176
38678SOL    HW164873  11.648  14.446   0.268
38678SOL    HW264874  11.775  14.499   0.180
38679SOL     OW64875   7.134  13.880   0.937
38679SOL    HW164876   7.040  13.913   0.942
38679SOL    HW264877   7.185  13.911   1.017
38680SOL     OW64878   4.299   7.832   1.546
38680SOL    HW164879   4.293   7.899   1.621
38680SOL    HW264880   4.209   7.823   1.503
38681SOL     OW64881   1.884   8.872   7.067
38681SOL    HW164882   1.853   8.960   7.032
38681SOL    HW264883   1.807   8.808   7.070
38682SOL     OW64884  16.238   8.480   7.833
38682SOL    HW164885  16.302   8.416   7.876
38682SOL    HW264886  16.286   8.566   7.813
38683SOL     OW64887   4.474  11.474   2.190
38683SOL    HW164888   4.491  11.564   2.230
38683SOL    HW264889   4.514  11.403   2.248
38684SOL     OW64890   4.934  14.039   0.483
38684SOL    HW164891   4.952  14.130   0.519
38684SOL    HW264892   4.859  14.043   0.416
38685SOL     OW64893   4.798   6.791   6.911
38685SOL    HW164894   4.895   6.767   6.918
38685SOL    HW264895   4.743   6.708   6.920
38686SOL     OW64896  11.865   8.388   1.189
38686SOL    HW164897  11.935   8.407   1.257
38686SOL    HW264898  11.807   8.313   1.221
38687SOL     OW64899  15.466  15.603   7.824
38687SOL    HW164900  15.509  15.651   7.900
38687SOL    HW264901  15.509  15.513   7.812
38688SOL     OW64902   3.419   7.485   6.753
38688SOL    HW164903   3.515   7.495   6.725
38688SOL    HW264904   3.373   7.574   6.745
38689SOL     OW64905   1.977  13.401   0.725
38689SOL    HW164906   1.912  13.350   0.669
38689SOL    HW264907   1.961  13.499   0.713
38690SOL     OW64908  12.105  11.523   2.162
38690SOL    HW164909  12.095  11.440   2.108
38690SOL    HW264910  12.083  11.503   2.258
38691SOL     OW64911  15.148   9.420   1.185
38691SOL    HW164912  15.209   9.481   1.134
38691SOL    HW264913  15.196   9.335   1.206
38692SOL     OW64914   1.248  11.557   8.440
38692SOL    HW164915   1.254  11.585   0.082
38692SOL    HW264916   1.153  11.531   8.420
38693SOL     OW64917  10.038  11.471   8.346
38693SOL    HW164918  10.072  11.414   8.422
38693SOL    HW264919  10.106  11.472   8.273
38694SOL     OW64920   1.378   8.379   6.810
38694SOL    HW164921   1.359   8.330   6.895
38694SOL    HW264922   1.448   8.329   6.758
38695SOL     OW64923   2.621  13.636   2.245
38695SOL    HW164924   2.702  13.672   2.291
38695SOL    HW264925   2.555  13.603   2.312
38696SOL     OW64926   4.208  12.250   7.771
38696SOL    HW164927   4.122  12.253   7.822
38696SOL    HW264928   4.212  12.167   7.716
38697SOL     OW64929  11.190  11.900   8.410
38697SOL    HW164930  11.285  11.909   8.442
38697SOL    HW264931  11.191  11.868   8.315
38698SOL     OW64932  10.737   3.015   7.150
38698SOL    HW164933  10.715   2.985   7.243
38698SOL    HW264934  10.657   3.004   7.091
38699SOL     OW64935  16.279   4.576   0.769
38699SOL    HW164936  16.268   4.663   0.721
38699SOL    HW264937  16.361   4.580   0.827
38700SOL     OW64938   1.845   9.350   0.531
38700SOL    HW164939   1.767   9.314   0.480
38700SOL    HW264940   1.831   9.447   0.550
38701SOL     OW64941  10.564  15.397   7.679
38701SOL    HW164942  10.498  15.467   7.707
38701SOL    HW264943  10.569  15.394   7.579
38702SOL     OW64944   7.697  14.629   7.485
38702SOL    HW164945   7.691  14.574   7.568
38702SOL    HW264946   7.789  14.621   7.446
38703SOL     OW64947   3.126  13.565   0.115
38703SOL    HW164948   3.058  13.638   0.114
38703SOL    HW264949   3.080  13.476   0.106
38704SOL     OW64950   4.720   9.788   1.167
38704SOL    HW164951   4.758   9.721   1.104
38704SOL    HW264952   4.723   9.879   1.126
38705SOL     OW64953   9.155  13.628   7.557
38705SOL    HW164954   9.127  13.616   7.461
38705SOL    HW264955   9.254  13.641   7.561
38706SOL     OW64956   9.947  10.132   0.568
38706SOL    HW164957  10.019  10.069   0.598
38706SOL    HW264958   9.985  10.196   0.501
38707SOL     OW64959   4.007   7.920   2.048
38707SOL    HW164960   4.098   7.887   2.069
38707SOL    HW264961   3.942   7.887   2.118
38708SOL     OW64962  10.633  16.952   6.636
38708SOL    HW164963  10.598  16.869   6.680
38708SOL    HW264964  10.652  16.933   6.539
38709SOL     OW64965   5.500   4.745   0.513
38709SOL    HW164966   5.426   4.787   0.566
38709SOL    HW264967   5.553   4.685   0.573
38710SOL     OW64968   4.359  16.845   1.748
38710SOL    HW164969   4.424  16.911   1.785
38710SOL    HW264970   4.279  16.894   1.712
38711SOL     OW64971   3.906   4.558   0.728
38711SOL    HW164972   3.937   4.499   0.802
38711SOL    HW264973   3.972   4.556   0.653
38712SOL     OW64974   6.530  16.237   6.938
38712SOL    HW164975   6.535  16.326   6.984
38712SOL    HW264976   6.584  16.240   6.854
38713SOL     OW64977   8.999   6.395   6.660
38713SOL    HW164978   9.098   6.392   6.674
38713SOL    HW264979   8.959   6.307   6.689
38714SOL     OW64980   9.081  11.565   6.946
38714SOL    HW164981   9.114  11.645   6.896
38714SOL    HW264982   8.981  11.567   6.947
38715SOL     OW64983   0.488  13.171   2.730
38715SOL    HW164984   0.503  13.079   2.767
38715SOL    HW264985   0.391  13.182   2.707
38716SOL     OW64986   2.117   8.535   0.619
38716SOL    HW164987   2.140   8.586   0.701
38716SOL    HW264988   2.096   8.440   0.643
38717SOL     OW64989  10.743   2.260   0.563
38717SOL    HW164990  10.804   2.181   0.570
38717SOL    HW264991  10.648   2.229   0.573
38718SOL     OW64992   8.719   3.424   7.947
38718SOL    HW164993   8.780   3.452   8.022
38718SOL    HW264994   8.713   3.325   7.944
38719SOL     OW64995   4.246   9.337   7.480
38719SOL    HW164996   4.177   9.295   7.421
38719SOL    HW264997   4.208   9.354   7.570
38720SOL     OW64998  12.266   1.274   0.916
38720SOL    HW164999  12.220   1.238   0.997
38720SOL    HW265000  12.283   1.200   0.851
38721SOL     OW65001  14.318   5.540   8.167
38721SOL    HW165002  14.412   5.555   8.136
38721SOL    HW265003  14.259   5.527   8.088
38722SOL     OW65004  16.231   1.422   6.443
38722SOL    HW165005  16.154   1.478   6.412
38722SOL    HW265006  16.285   1.473   6.509
38723SOL     OW65007   6.359  10.818   8.236
38723SOL    HW165008   6.418  10.867   8.300
38723SOL    HW265009   6.415  10.766   8.172
38724SOL     OW65010   4.522  16.909   7.902
38724SOL    HW165011   4.575   0.009   7.888
38724SOL    HW265012   4.518  16.857   7.816
38725SOL     OW65013  16.647   5.263   6.562
38725SOL    HW165014  16.647   5.184   6.501
38725SOL    HW265015  16.568   5.321   6.542
38726SOL     OW65016   4.708   7.013   8.247
38726SOL    HW165017   4.776   6.945   8.274
38726SOL    HW265018   4.647   6.973   8.179
38727SOL     OW65019  15.431  13.425   8.258
38727SOL    HW165020  15.384  13.372   8.188
38727SOL    HW265021  15.365  13.453   8.328
38728SOL     OW65022   4.722  13.502   0.570
38728SOL    HW165023   4.734  13.526   0.666
38728SOL    HW265024   4.758  13.411   0.553
38729SOL     OW65025  16.816   5.771   0.513
38729SOL    HW165026  16.748   5.818   0.570
38729SOL    HW265027  16.871   5.838   0.464
38730SOL     OW65028   3.289   6.412   7.909
38730SOL    HW165029   3.222   6.487   7.909
38730SOL    HW265030   3.263   6.344   7.841
38731SOL     OW65031  14.018  16.331   0.831
38731SOL    HW165032  13.940  16.269   0.841
38731SOL    HW265033  14.103  16.280   0.844
38732SOL     OW65034   6.002   7.319   7.979
38732SOL    HW165035   6.065   7.389   8.012
38732SOL    HW265036   6.048   7.230   7.980
38733SOL     OW65037   9.663   1.988   0.102
38733SOL    HW165038   9.691   2.084   0.100
38733SOL    HW265039   9.743   1.930   0.088
38734SOL     OW65040  16.188  14.173   0.042
38734SOL    HW165041  16.138  14.258   0.027
38734SOL    HW265042  16.189  14.119   8.412
38735SOL     OW65043  12.266  11.759   8.355
38735SOL    HW165044  12.194  11.700   8.393
38735SOL    HW265045  12.230  11.808   8.275
38736SOL     OW65046   4.801  16.343   1.667
38736SOL    HW165047   4.883  16.286   1.673
38736SOL    HW265048   4.820  16.433   1.705
38737SOL     OW65049  16.296  11.482   0.632
38737SOL    HW165050  16.314  11.503   0.536
38737SOL    HW265051  16.314  11.562   0.688
38738SOL     OW65052  16.224   3.415   1.224
38738SOL    HW165053  16.176   3.376   1.302
38738SOL    HW265054  16.199   3.366   1.141
38739SOL     OW65055  12.132   7.543   6.826
38739SOL    HW165056  12.081   7.519   6.743
38739SOL    HW265057  12.208   7.479   6.837
38740SOL     OW65058   5.049  10.770   6.148
38740SOL    HW165059   5.059  10.684   6.098
38740SOL    HW265060   4.975  10.761   6.214
38741SOL     OW65061  10.008  14.274   0.090
38741SOL    HW165062  10.056  14.226   0.163
38741SOL    HW265063  10.045  14.246   0.002
38742SOL     OW65064   7.633   8.494   7.722
38742SOL    HW165065   7.633   8.467   7.818
38742SOL    HW265066   7.726   8.486   7.685
38743SOL     OW65067   4.376  13.146   7.325
38743SOL    HW165068   4.394  13.235   7.284
38743SOL    HW265069   4.457  13.089   7.318
38744SOL     OW65070  15.268  16.420   7.205
38744SOL    HW165071  15.191  16.423   7.140
38744SOL    HW265072  15.273  16.330   7.246
38745SOL     OW65073   8.036   8.492   0.536
38745SOL    HW165074   8.042   8.577   0.590
38745SOL    HW265075   7.964   8.434   0.574
38746SOL     OW65076   9.060   7.087   1.784
38746SOL    HW165077   9.097   7.021   1.849
38746SOL    HW265078   8.974   7.124   1.818
38747SOL     OW65079   5.672  14.695   8.063
38747SOL    HW165080   5.710  14.604   8.082
38747SOL    HW265081   5.585  14.686   8.015
38748SOL     OW65082  15.979   4.392   5.545
38748SOL    HW165083  16.068   4.353   5.523
38748SOL    HW265084  15.907   4.337   5.503
38749SOL     OW65085   7.450  12.579   7.281
38749SOL    HW165086   7.427  12.625   7.196
38749SOL    HW265087   7.366  12.560   7.332
38750SOL     OW65088   4.476  11.914   0.103
38750SOL    HW165089   4.443  12.002   0.136
38750SOL    HW265090   4.569  11.923   0.069
38751SOL     OW65091  14.165  15.886   6.626
38751SOL    HW165092  14.106  15.820   6.674
38751SOL    HW265093  14.137  15.892   6.531
38752SOL     OW65094   5.833   9.784   1.668
38752SOL    HW165095   5.916   9.744   1.630
38752SOL    HW265096   5.785   9.836   1.597
38753SOL     OW65097   2.105   5.268   0.993
38753SOL    HW165098   2.010   5.278   0.964
38753SOL    HW265099   2.164   5.319   0.930
38754SOL     OW65100  15.565  14.020   1.533
38754SOL    HW165101  15.651  14.017   1.584
38754SOL    HW265102  15.523  14.110   1.543
38755SOL     OW65103   9.210   2.156   0.149
38755SOL    HW165104   9.206   2.197   0.241
38755SOL    HW265105   9.123   2.172   0.102
38756SOL     OW65106  12.938   3.660   7.481
38756SOL    HW165107  12.858   3.690   7.534
38756SOL    HW265108  12.916   3.575   7.433
38757SOL     OW65109   5.037   8.578   8.278
38757SOL    HW165110   5.017   8.485   8.310
38757SOL    HW265111   5.020   8.642   8.353
38758SOL     OW65112   9.060  11.639   1.599
38758SOL    HW165113   9.078  11.549   1.639
38758SOL    HW265114   8.969  11.671   1.629
38759SOL     OW65115   9.509   8.319   0.257
38759SOL    HW165116   9.475   8.338   0.164
38759SOL    HW265117   9.560   8.398   0.291
38760SOL     OW65118   2.665   7.402   0.165
38760SOL    HW165119   2.646   7.305   0.182
38760SOL    HW265120   2.630   7.457   0.240
38761SOL     OW65121  10.529   8.861   0.721
38761SOL    HW165122  10.615   8.810   0.708
38761SOL    HW265123  10.549   8.959   0.724
38762SOL     OW65124   5.922  14.897   0.400
38762SOL    HW165125   5.945  14.925   0.307
38762SOL    HW265126   5.986  14.939   0.464
38763SOL     OW65127   0.273  12.925   1.834
38763SOL    HW165128   0.285  12.961   1.926
38763SOL    HW265129   0.214  12.987   1.782
38764SOL     OW65130   5.629   8.011   2.646
38764SOL    HW165131   5.563   7.985   2.717
38764SOL    HW265132   5.699   7.940   2.637
38765SOL     OW65133  16.487   7.035   7.464
38765SOL    HW165134  16.430   7.000   7.389
38765SOL    HW265135  16.428   7.077   7.533
38766SOL     OW65136   7.311   1.987   0.664
38766SOL    HW165137   7.230   2.023   0.711
38766SOL    HW265138   7.330   1.895   0.697
38767SOL     OW65139  15.006   9.578   6.146
38767SOL    HW165140  15.064   9.646   6.101
38767SOL    HW265141  14.910   9.607   6.142
38768SOL     OW65142  13.787  14.242   1.495
38768SOL    HW165143  13.810  14.282   1.584
38768SOL    HW265144  13.853  14.170   1.473
38769SOL     OW65145  16.590  14.765   1.102
38769SOL    HW165146  16.621  14.847   1.149
38769SOL    HW265147  16.515  14.723   1.153
38770SOL     OW65148  15.384  14.399   0.275
38770SOL    HW165149  15.360  14.421   0.369
38770SOL    HW265150  15.484  14.394   0.267
38771SOL     OW65151   7.319  13.937   7.293
38771SOL    HW165152   7.289  13.978   7.379
38771SOL    HW265153   7.419  13.940   7.287
38772SOL     OW65154   4.299  14.438   0.358
38772SOL    HW165155   4.216  14.437   0.302
38772SOL    HW265156   4.274  14.445   0.454
38773SOL     OW65157   5.580   5.832   0.880
38773SOL    HW165158   5.596   5.913   0.936
38773SOL    HW265159   5.484   5.830   0.851
38774SOL     OW65160   5.260   6.039   0.647
38774SOL    HW165161   5.296   6.119   0.695
38774SOL    HW265162   5.285   5.956   0.697
38775SOL     OW65163   5.073  15.777   7.621
38775SOL    HW165164   5.127  15.727   7.553
38775SOL    HW265165   5.081  15.731   7.710
38776SOL     OW65166  13.187   5.549   1.273
38776SOL    HW165167  13.139   5.504   1.197
38776SOL    HW265168  13.250   5.484   1.316
38777SOL     OW65169   3.995   3.663   0.984
38777SOL    HW165170   3.923   3.653   0.916
38777SOL    HW265171   3.991   3.585   1.047
38778SOL     OW65172   2.370  15.824   6.854
38778SOL    HW165173   2.343  15.815   6.758
38778SOL    HW265174   2.293  15.801   6.912
38779SOL     OW65175  11.730   3.558   7.083
38779SOL    HW165176  11.729   3.609   7.169
38779SOL    HW265177  11.734   3.460   7.103
38780SOL     OW65178   8.004   4.047   7.756
38780SOL    HW165179   8.103   4.053   7.747
38780SOL    HW265180   7.974   4.108   7.830
38781SOL     OW65181   5.463   7.273   0.079
38781SOL    HW165182   5.538   7.270   0.146
38781SOL    HW265183   5.495   7.236   8.446
38782SOL     OW65184   0.660   5.723   0.772
38782SOL    HW165185   0.702   5.704   0.683
38782SOL    HW265186   0.561   5.713   0.765
38783SOL     OW65187   1.618   1.297   0.057
38783SOL    HW165188   1.709   1.337   0.043
38783SOL    HW265189   1.550   1.370   0.067
38784SOL     OW65190   3.420   6.896   1.265
38784SOL    HW165191   3.436   6.987   1.228
38784SOL    HW265192   3.322   6.881   1.278
38785SOL     OW65193  11.739   9.146   1.270
38785SOL    HW165194  11.729   9.198   1.355
38785SOL    HW265195  11.712   9.203   1.192
38786SOL     OW65196  10.943   3.396   8.000
38786SOL    HW165197  10.946   3.296   8.003
38786SOL    HW265198  10.856   3.426   7.960
38787SOL     OW65199  14.127   5.358   0.182
38787SOL    HW165200  14.031   5.376   0.160
38787SOL    HW265201  14.186   5.403   0.114
38788SOL     OW65202   2.193   4.749   0.047
38788SOL    HW165203   2.270   4.750   8.437
38788SOL    HW265204   2.112   4.714   0.001
38789SOL     OW65205   8.545   8.008   7.892
38789SOL    HW165206   8.591   8.080   7.839
38789SOL    HW265207   8.517   8.045   7.981
38790SOL     OW65208   7.099  13.120   1.173
38790SOL    HW165209   7.153  13.045   1.134
38790SOL    HW265210   7.066  13.179   1.099
38791SOL     OW65211  11.597   3.256   1.395
38791SOL    HW165212  11.674   3.199   1.425
38791SOL    HW265213  11.587   3.334   1.458
38792SOL     OW65214  13.115   8.903   0.300
38792SOL    HW165215  13.210   8.934   0.305
38792SOL    HW265216  13.056   8.981   0.276
38793SOL     OW65217  10.763  14.165   5.881
38793SOL    HW165218  10.798  14.121   5.799
38793SOL    HW265219  10.692  14.108   5.922
38794SOL     OW65220  10.227   1.279   1.077
38794SOL    HW165221  10.150   1.265   1.140
38794SOL    HW265222  10.307   1.310   1.129
38795SOL     OW65223   5.799   2.368   8.011
38795SOL    HW165224   5.788   2.420   7.926
38795SOL    HW265225   5.774   2.272   7.995
38796SOL     OW65226   7.255  15.134   2.295
38796SOL    HW165227   7.164  15.174   2.286
38796SOL    HW265228   7.285  15.139   2.391
38797SOL     OW65229  14.571   5.561   6.327
38797SOL    HW165230  14.641   5.526   6.389
38797SOL    HW265231  14.574   5.510   6.241
38798SOL     OW65232   7.956  15.874   6.334
38798SOL    HW165233   7.994  15.948   6.390
38798SOL    HW265234   8.012  15.862   6.252
38799SOL     OW65235  10.807  13.905   7.069
38799SOL    HW165236  10.728  13.964   7.085
38799SOL    HW265237  10.796  13.858   6.982
38800SOL     OW65238  14.514  16.668   7.050
38800SOL    HW165239  14.489  16.757   7.012
38800SOL    HW265240  14.436  16.606   7.043
38801SOL     OW65241  12.720   4.877   6.493
38801SOL    HW165242  12.727   4.966   6.449
38801SOL    HW265243  12.681   4.811   6.429
38802SOL     OW65244   0.086   8.858   7.022
38802SOL    HW165245   0.101   8.903   6.934
38802SOL    HW265246   0.055   8.764   7.007
38803SOL     OW65247   2.687  12.343   6.887
38803SOL    HW165248   2.648  12.435   6.890
38803SOL    HW265249   2.717  12.317   6.979
38804SOL     OW65250   4.364  13.181   2.868
38804SOL    HW165251   4.446  13.126   2.882
38804SOL    HW265252   4.357  13.249   2.942
38805SOL     OW65253  15.553  11.205   0.555
38805SOL    HW165254  15.568  11.197   0.653
38805SOL    HW265255  15.456  11.219   0.536
38806SOL     OW65256  10.813  13.782   0.701
38806SOL    HW165257  10.785  13.876   0.681
38806SOL    HW265258  10.732  13.727   0.718
38807SOL     OW65259   8.371   3.829   0.017
38807SOL    HW165260   8.317   3.770   8.412
38807SOL    HW265261   8.446   3.776   0.057
38808SOL     OW65262   3.815   7.341   7.795
38808SOL    HW165263   3.848   7.283   7.870
38808SOL    HW265264   3.798   7.286   7.714
38809SOL     OW65265  16.845   3.532   7.940
38809SOL    HW165266  16.840   3.556   8.037
38809SOL    HW265267  16.879   3.438   7.931
38810SOL     OW65268   8.270   4.518   7.178
38810SOL    HW165269   8.277   4.418   7.176
38810SOL    HW265270   8.329   4.557   7.107
38811SOL     OW65271  16.588  16.867   7.174
38811SOL    HW165272  16.634  16.796   7.121
38811SOL    HW265273  16.584  16.840   7.270
38812SOL     OW65274  10.274   9.188   6.859
38812SOL    HW165275  10.251   9.256   6.929
38812SOL    HW265276  10.313   9.233   6.779
38813SOL     OW65277   1.639   5.113   7.043
38813SOL    HW165278   1.589   5.077   6.964
38813SOL    HW265279   1.598   5.080   7.127
38814SOL     OW65280   2.514   4.006   7.596
38814SOL    HW165281   2.415   3.989   7.590
38814SOL    HW265282   2.542   4.065   7.520
38815SOL     OW65283  10.640  11.951   1.803
38815SOL    HW165284  10.623  11.871   1.861
38815SOL    HW265285  10.595  11.938   1.715
38816SOL     OW65286   2.982  10.425   1.271
38816SOL    HW165287   3.020  10.482   1.198
38816SOL    HW265288   2.933  10.348   1.231
38817SOL     OW65289   6.202  13.296   0.716
38817SOL    HW165290   6.268  13.273   0.788
38817SOL    HW265291   6.112  13.311   0.756
38818SOL     OW65292   1.895  14.914   2.597
38818SOL    HW165293   1.901  14.886   2.692
38818SOL    HW265294   1.987  14.915   2.556
38819SOL     OW65295   5.381   7.542   1.696
38819SOL    HW165296   5.364   7.468   1.632
38819SOL    HW265297   5.455   7.600   1.661
38820SOL     OW65298   5.054  15.530   0.412
38820SOL    HW165299   5.153  15.525   0.427
38820SOL    HW265300   5.020  15.617   0.446
38821SOL     OW65301  12.200   1.857   8.144
38821SOL    HW165302  12.132   1.899   8.203
38821SOL    HW265303  12.154   1.804   8.073
38822SOL     OW65304   7.113  11.921   0.460
38822SOL    HW165305   7.096  11.914   0.361
38822SOL    HW265306   7.198  11.875   0.483
38823SOL     OW65307  11.778  16.262   8.030
38823SOL    HW165308  11.751  16.169   8.010
38823SOL    HW265309  11.709  16.326   7.996
38824SOL     OW65310  14.677  15.165   7.750
38824SOL    HW165311  14.726  15.125   7.827
38824SOL    HW265312  14.692  15.109   7.668
38825SOL     OW65313   7.030   2.693   8.209
38825SOL    HW165314   7.054   2.788   8.230
38825SOL    HW265315   7.106   2.633   8.233
38826SOL     OW65316   7.912   2.078   0.689
38826SOL    HW165317   7.843   2.006   0.678
38826SOL    HW265318   7.979   2.049   0.757
38827SOL     OW65319  10.096   4.996   8.266
38827SOL    HW165320  10.016   4.987   8.326
38827SOL    HW265321  10.084   4.937   8.185
38828SOL     OW65322  11.856  11.842   0.287
38828SOL    HW165323  11.827  11.791   0.206
38828SOL    HW265324  11.786  11.834   0.358
38829SOL     OW65325  12.963   6.088   8.078
38829SOL    HW165326  12.985   6.185   8.064
38829SOL    HW265327  12.973   6.039   7.992
38830SOL     OW65328   2.866  15.845   0.142
38830SOL    HW165329   2.937  15.916   0.138
38830SOL    HW265330   2.776  15.887   0.134
38831SOL     OW65331   2.448   8.858   8.393
38831SOL    HW165332   2.492   8.932   8.343
38831SOL    HW265333   2.378   8.895   0.001
38832SOL     OW65334   5.552   5.367   8.254
38832SOL    HW165335   5.548   5.298   8.326
38832SOL    HW265336   5.622   5.342   8.187
38833SOL     OW65337  13.441   0.667   7.604
38833SOL    HW165338  13.512   0.733   7.626
38833SOL    HW265339  13.472   0.575   7.628
38834SOL     OW65340  14.012   4.497   7.320
38834SOL    HW165341  14.065   4.424   7.278
38834SOL    HW265342  13.947   4.533   7.253
38835SOL     OW65343   0.788  10.667   0.399
38835SOL    HW165344   0.851  10.742   0.421
38835SOL    HW265345   0.697  10.689   0.434
38836SOL     OW65346   5.958  13.700   7.426
38836SOL    HW165347   5.968  13.612   7.379
38836SOL    HW265348   5.867  13.737   7.407
38837SOL     OW65349   5.945  11.648   6.279
38837SOL    HW165350   5.862  11.602   6.248
38837SOL    HW265351   6.021  11.626   6.218
38838SOL     OW65352   1.597  11.083   1.736
38838SOL    HW165353   1.534  11.130   1.798
38838SOL    HW265354   1.561  11.087   1.643
38839SOL     OW65355  13.675   8.453   0.778
38839SOL    HW165356  13.606   8.382   0.794
38839SOL    HW265357  13.762   8.410   0.753
38840SOL     OW65358  14.687   2.913   7.831
38840SOL    HW165359  14.713   2.900   7.927
38840SOL    HW265360  14.761   2.959   7.782
38841SOL     OW65361  10.929   6.360   1.891
38841SOL    HW165362  10.848   6.418   1.887
38841SOL    HW265363  10.948   6.335   1.986
38842SOL     OW65364  13.989   7.789   0.008
38842SOL    HW165365  13.992   7.690   8.450
38842SOL    HW265366  14.078   7.829   8.440
38843SOL     OW65367   0.637  14.280   0.419
38843SOL    HW165368   0.674  14.207   0.361
38843SOL    HW265369   0.695  14.292   0.499
38844SOL     OW65370   1.303   4.890   7.477
38844SOL    HW165371   1.250   4.852   7.553
38844SOL    HW265372   1.377   4.947   7.513
38845SOL     OW65373  11.680   1.327   6.709
38845SOL    HW165374  11.702   1.393   6.637
38845SOL    HW265375  11.717   1.360   6.796
38846SOL     OW65376  10.551   2.330   5.999
38846SOL    HW165377  10.496   2.285   5.929
38846SOL    HW265378  10.640   2.355   5.961
38847SOL     OW65379   5.073  10.484   1.121
38847SOL    HW165380   5.143  10.548   1.092
38847SOL    HW265381   5.046  10.504   1.215
38848SOL     OW65382  14.918  11.985   0.560
38848SOL    HW165383  14.845  11.928   0.597
38848SOL    HW265384  14.896  12.011   0.466
38849SOL     OW65385   6.112   8.750   0.396
38849SOL    HW165386   6.082   8.833   0.441
38849SOL    HW265387   6.188   8.770   0.334
38850SOL     OW65388   6.819  15.195   7.846
38850SOL    HW165389   6.863  15.198   7.936
38850SOL    HW265390   6.842  15.277   7.795
38851SOL     OW65391  14.286   7.957   7.866
38851SOL    HW165392  14.229   7.881   7.897
38851SOL    HW265393  14.291   8.026   7.938
38852SOL     OW65394   1.344   5.315   7.527
38852SOL    HW165395   1.444   5.322   7.524
38852SOL    HW265396   1.307   5.397   7.570
38853SOL     OW65397   4.701  12.897   7.768
38853SOL    HW165398   4.606  12.877   7.743
38853SOL    HW265399   4.721  12.994   7.749
38854SOL     OW65400  13.670   1.458   1.187
38854SOL    HW165401  13.609   1.380   1.200
38854SOL    HW265402  13.663   1.519   1.266
38855SOL     OW65403   8.794   9.833   1.064
38855SOL    HW165404   8.821   9.753   1.011
38855SOL    HW265405   8.704   9.865   1.033
38856SOL     OW65406   1.991   3.538   0.914
38856SOL    HW165407   1.981   3.463   0.848
38856SOL    HW265408   1.904   3.554   0.961
38857SOL     OW65409  11.670  13.963   0.427
38857SOL    HW165410  11.598  13.944   0.360
38857SOL    HW265411  11.666  13.896   0.501
38858SOL     OW65412   2.631   1.560   0.260
38858SOL    HW165413   2.538   1.543   0.227
38858SOL    HW265414   2.659   1.653   0.235
38859SOL     OW65415  10.830   2.822   0.299
38859SOL    HW165416  10.856   2.915   0.273
38859SOL    HW265417  10.812   2.820   0.398
38860SOL     OW65418   3.576   9.602   1.887
38860SOL    HW165419   3.640   9.526   1.902
38860SOL    HW265420   3.518   9.613   1.967
38861SOL     OW65421  11.593  16.256   7.411
38861SOL    HW165422  11.661  16.328   7.398
38861SOL    HW265423  11.526  16.259   7.337
38862SOL     OW65424   1.736  16.823   7.370
38862SOL    HW165425   1.811  16.808   7.435
38862SOL    HW265426   1.679  16.742   7.366
38863SOL     OW65427   2.351  11.409   1.327
38863SOL    HW165428   2.348  11.322   1.278
38863SOL    HW265429   2.338  11.392   1.425
38864SOL     OW65430   0.820   5.216   0.757
38864SOL    HW165431   0.917   5.196   0.747
38864SOL    HW265432   0.787   5.181   0.845
38865SOL     OW65433  12.288  11.107   2.149
38865SOL    HW165434  12.262  11.020   2.191
38865SOL    HW265435  12.387  11.108   2.132
38866SOL     OW65436   8.321   7.305   0.402
38866SOL    HW165437   8.388   7.347   0.341
38866SOL    HW265438   8.231   7.303   0.357
38867SOL     OW65439   7.226   6.208   7.923
38867SOL    HW165440   7.306   6.259   7.891
38867SOL    HW265441   7.216   6.218   8.022
38868SOL     OW65442  13.924  15.241   8.387
38868SOL    HW165443  13.910  15.143   8.376
38868SOL    HW265444  13.994  15.272   8.323
38869SOL     OW65445  12.054  16.807   1.712
38869SOL    HW165446  12.074  16.746   1.788
38869SOL    HW265447  11.959  16.836   1.716
38870SOL     OW65448   2.181   7.646   0.388
38870SOL    HW165449   2.213   7.630   0.481
38870SOL    HW265450   2.119   7.574   0.361
38871SOL     OW65451  12.231   4.420   6.426
38871SOL    HW165452  12.327   4.396   6.437
38871SOL    HW265453  12.174   4.338   6.433
38872SOL     OW65454   0.471  16.166   2.064
38872SOL    HW165455   0.398  16.198   2.124
38872SOL    HW265456   0.559  16.174   2.109
38873SOL     OW65457  16.159  14.810   7.095
38873SOL    HW165458  16.192  14.782   7.185
38873SOL    HW265459  16.069  14.852   7.104
38874SOL     OW65460   2.551   5.581   6.402
38874SOL    HW165461   2.551   5.673   6.362
38874SOL    HW265462   2.463   5.564   6.445
38875SOL     OW65463  14.166  10.431   6.704
38875SOL    HW165464  14.106  10.495   6.751
38875SOL    HW265465  14.243  10.481   6.663
38876SOL     OW65466   5.823  13.452   2.084
38876SOL    HW165467   5.903  13.510   2.099
38876SOL    HW265468   5.750  13.478   2.146
38877SOL     OW65469   7.640   8.817   1.585
38877SOL    HW165470   7.573   8.885   1.556
38877SOL    HW265471   7.604   8.766   1.664
38878SOL     OW65472   5.767  15.501   0.694
38878SOL    HW165473   5.837  15.561   0.732
38878SOL    HW265474   5.698  15.482   0.764
38879SOL     OW65475  14.642   6.966   0.849
38879SOL    HW165476  14.562   6.987   0.905
38879SOL    HW265477  14.612   6.921   0.765
38880SOL     OW65478   3.568   0.299   0.226
38880SOL    HW165479   3.487   0.354   0.246
38880SOL    HW265480   3.586   0.301   0.128
38881SOL     OW65481   5.543   6.855   0.238
38881SOL    HW165482   5.540   6.822   0.332
38881SOL    HW265483   5.468   6.814   0.186
38882SOL     OW65484   6.164   1.764   0.912
38882SOL    HW165485   6.078   1.816   0.909
38882SOL    HW265486   6.153   1.685   0.972
38883SOL     OW65487  12.985   1.398   0.822
38883SOL    HW165488  12.996   1.304   0.855
38883SOL    HW265489  13.010   1.402   0.725
38884SOL     OW65490  10.173   1.910   0.123
38884SOL    HW165491  10.224   1.995   0.139
38884SOL    HW265492  10.170   1.856   0.207
38885SOL     OW65493   1.970  12.447   1.276
38885SOL    HW165494   1.991  12.417   1.183
38885SOL    HW265495   1.932  12.370   1.328
38886SOL     OW65496  15.384   0.547   7.781
38886SOL    HW165497  15.295   0.589   7.798
38886SOL    HW265498  15.415   0.501   7.865
38887SOL     OW65499  14.191  13.628   6.579
38887SOL    HW165500  14.097  13.661   6.576
38887SOL    HW265501  14.242  13.662   6.500
38888SOL     OW65502   2.582  12.598   6.892
38888SOL    HW165503   2.547  12.635   6.978
38888SOL    HW265504   2.642  12.666   6.849
38889SOL     OW65505  11.211  15.896   1.355
38889SOL    HW165506  11.120  15.934   1.373
38889SOL    HW265507  11.268  15.966   1.313
38890SOL     OW65508  14.199  10.410   6.282
38890SOL    HW165509  14.172  10.385   6.189
38890SOL    HW265510  14.262  10.487   6.280
38891SOL     OW65511  16.034   0.600   8.176
38891SOL    HW165512  16.028   0.691   8.218
38891SOL    HW265513  16.080   0.537   8.238
38892SOL     OW65514  16.127   2.646   0.292
38892SOL    HW165515  16.223   2.626   0.308
38892SOL    HW265516  16.102   2.731   0.338
38893SOL     OW65517   3.098   9.507   0.909
38893SOL    HW165518   3.015   9.482   0.859
38893SOL    HW265519   3.109   9.445   0.987
38894SOL     OW65520   6.406  14.880   7.843
38894SOL    HW165521   6.310  14.900   7.823
38894SOL    HW265522   6.458  14.966   7.841
38895SOL     OW65523   5.451   2.637   1.113
38895SOL    HW165524   5.378   2.596   1.167
38895SOL    HW265525   5.476   2.574   1.038
38896SOL     OW65526   1.932  10.074   0.787
38896SOL    HW165527   1.869   9.997   0.776
38896SOL    HW265528   1.993  10.078   0.709
38897SOL     OW65529  12.482   4.838   7.388
38897SOL    HW165530  12.415   4.888   7.333
38897SOL    HW265531  12.449   4.744   7.402
38898SOL     OW65532   6.637   1.529   1.096
38898SOL    HW165533   6.674   1.437   1.084
38898SOL    HW265534   6.710   1.591   1.126
38899SOL     OW65535  11.998   9.675   7.981
38899SOL    HW165536  11.993   9.721   7.892
38899SOL    HW265537  12.045   9.734   8.046
38900SOL     OW65538   7.319   2.007   7.466
38900SOL    HW165539   7.375   2.002   7.384
38900SOL    HW265540   7.364   1.957   7.540
38901SOL     OW65541   5.736  11.942   7.428
38901SOL    HW165542   5.830  11.956   7.397
38901SOL    HW265543   5.724  11.846   7.454
38902SOL     OW65544   9.752   9.607   1.748
38902SOL    HW165545   9.664   9.615   1.701
38902SOL    HW265546   9.744   9.542   1.823
38903SOL     OW65547  11.827  16.564   0.551
38903SOL    HW165548  11.794  16.641   0.497
38903SOL    HW265549  11.774  16.556   0.635
38904SOL     OW65550   6.601   0.779   2.031
38904SOL    HW165551   6.535   0.762   2.104
38904SOL    HW265552   6.693   0.785   2.070
38905SOL     OW65553   6.989   3.280   6.516
38905SOL    HW165554   7.003   3.195   6.466
38905SOL    HW265555   7.046   3.352   6.475
38906SOL     OW65556  14.231  13.072   7.574
38906SOL    HW165557  14.173  13.153   7.564
38906SOL    HW265558  14.219  13.033   7.665
38907SOL     OW65559   9.235   3.525   7.162
38907SOL    HW165560   9.293   3.504   7.240
38907SOL    HW265561   9.173   3.448   7.146
38908SOL     OW65562   8.913  14.357   7.802
38908SOL    HW165563   8.964  14.365   7.887
38908SOL    HW265564   8.932  14.437   7.744
38909SOL     OW65565  15.352  11.144   0.908
38909SOL    HW165566  15.273  11.154   0.969
38909SOL    HW265567  15.330  11.079   0.836
38910SOL     OW65568  15.264   8.412   0.710
38910SOL    HW165569  15.217   8.391   0.624
38910SOL    HW265570  15.262   8.331   0.769
38911SOL     OW65571  10.748  10.684   8.204
38911SOL    HW165572  10.683  10.654   8.134
38911SOL    HW265573  10.700  10.695   8.292
38912SOL     OW65574   1.283   0.949   7.205
38912SOL    HW165575   1.352   0.976   7.273
38912SOL    HW265576   1.284   1.014   7.130
38913SOL     OW65577   8.234   8.337   6.772
38913SOL    HW165578   8.316   8.361   6.823
38913SOL    HW265579   8.208   8.242   6.792
38914SOL     OW65580   3.106   5.176   7.122
38914SOL    HW165581   3.030   5.115   7.099
38914SOL    HW265582   3.135   5.225   7.041
38915SOL     OW65583  14.397   8.045   8.253
38915SOL    HW165584  14.349   8.088   8.177
38915SOL    HW265585  14.470   8.105   8.286
38916SOL     OW65586  10.701  10.066   6.477
38916SOL    HW165587  10.658  10.143   6.429
38916SOL    HW265588  10.686  10.076   6.575
38917SOL     OW65589   1.692  16.617   0.713
38917SOL    HW165590   1.729  16.602   0.621
38917SOL    HW265591   1.758  16.667   0.769
38918SOL     OW65592  11.426   9.771   7.507
38918SOL    HW165593  11.462   9.816   7.426
38918SOL    HW265594  11.338   9.812   7.532
38919SOL     OW65595   0.038   5.192   0.283
38919SOL    HW165596  16.921   5.193   0.286
38919SOL    HW265597   0.069   5.256   0.212
38920SOL     OW65598  13.388   1.669   1.018
38920SOL    HW165599  13.353   1.585   1.058
38920SOL    HW265600  13.466   1.649   0.959
38921SOL     OW65601   7.225  14.811   6.843
38921SOL    HW165602   7.169  14.736   6.879
38921SOL    HW265603   7.257  14.787   6.751
38922SOL     OW65604   6.313   1.858   7.679
38922SOL    HW165605   6.350   1.837   7.769
38922SOL    HW265606   6.364   1.933   7.638
38923SOL     OW65607   1.431   3.098   7.295
38923SOL    HW165608   1.449   3.128   7.389
38923SOL    HW265609   1.430   3.178   7.234
38924SOL     OW65610   4.030   8.399   1.220
38924SOL    HW165611   4.125   8.369   1.221
38924SOL    HW265612   4.020   8.476   1.158
38925SOL     OW65613   4.549   6.958   0.283
38925SOL    HW165614   4.491   6.900   0.342
38925SOL    HW265615   4.496   6.990   0.205
38926SOL     OW65616  10.081   5.619   6.766
38926SOL    HW165617  10.060   5.521   6.766
38926SOL    HW265618  10.102   5.649   6.673
38927SOL     OW65619  10.894  12.307   0.720
38927SOL    HW165620  10.959  12.252   0.772
38927SOL    HW265621  10.867  12.257   0.637
38928SOL     OW65622  15.436  15.046   6.883
38928SOL    HW165623  15.340  15.070   6.894
38928SOL    HW265624  15.462  15.056   6.786
38929SOL     OW65625   7.507  13.591   6.828
38929SOL    HW165626   7.444  13.568   6.754
38929SOL    HW265627   7.458  13.591   6.915
38930SOL     OW65628  10.238   1.269   1.647
38930SOL    HW165629  10.260   1.330   1.723
38930SOL    HW265630  10.272   1.177   1.667
38931SOL     OW65631   1.773   9.448   8.211
38931SOL    HW165632   1.872   9.440   8.196
38931SOL    HW265633   1.726   9.451   8.123
38932SOL     OW65634   1.090   3.938   7.322
38932SOL    HW165635   1.027   3.868   7.288
38932SOL    HW265636   1.184   3.912   7.300
38933SOL     OW65637   8.387   1.899   2.090
38933SOL    HW165638   8.459   1.968   2.081
38933SOL    HW265639   8.368   1.884   2.187
38934SOL     OW65640  16.967  16.344   8.025
38934SOL    HW165641   0.003  16.264   7.969
38934SOL    HW265642  16.949  16.315   8.119
38935SOL     OW65643   7.423  11.585   0.332
38935SOL    HW165644   7.389  11.635   0.253
38935SOL    HW265645   7.506  11.535   0.307
38936SOL     OW65646   9.264   8.438   1.183
38936SOL    HW165647   9.315   8.469   1.102
38936SOL    HW265648   9.266   8.510   1.253
38937SOL     OW65649   2.968  12.421   7.069
38937SOL    HW165650   2.944  12.517   7.083
38937SOL    HW265651   3.020  12.411   6.985
38938SOL     OW65652   6.669   7.672   1.540
38938SOL    HW165653   6.700   7.633   1.627
38938SOL    HW265654   6.653   7.770   1.551
38939SOL     OW65655  14.539  16.117   7.745
38939SOL    HW165656  14.534  16.061   7.827
38939SOL    HW265657  14.462  16.181   7.743
38940SOL     OW65658   9.004  10.371   8.056
38940SOL    HW165659   9.092  10.403   8.024
38940SOL    HW265660   8.994  10.391   8.154
38941SOL     OW65661  13.014  16.778   6.419
38941SOL    HW165662  12.941  16.798   6.353
38941SOL    HW265663  12.985  16.701   6.478
38942SOL     OW65664  15.934   9.591   7.238
38942SOL    HW165665  15.948   9.690   7.232
38942SOL    HW265666  16.004   9.551   7.297
38943SOL     OW65667   3.196  16.172   0.895
38943SOL    HW165668   3.168  16.160   0.800
38943SOL    HW265669   3.137  16.118   0.954
38944SOL     OW65670  16.937   9.624   0.096
38944SOL    HW165671   0.014   9.700   0.119
38944SOL    HW265672  16.958   9.591   0.005
38945SOL     OW65673   3.894   9.940   8.249
38945SOL    HW165674   3.904  10.040   8.246
38945SOL    HW265675   3.813   9.913   8.196
38946SOL     OW65676   5.301   5.176   1.657
38946SOL    HW165677   5.316   5.168   1.559
38946SOL    HW265678   5.243   5.101   1.688
38947SOL     OW65679   8.972   1.998   0.802
38947SOL    HW165680   9.017   1.973   0.716
38947SOL    HW265681   8.993   1.929   0.871
38948SOL     OW65682   2.603   7.891   0.004
38948SOL    HW165683   2.577   7.897   8.361
38948SOL    HW265684   2.624   7.982   0.038
38949SOL     OW65685  12.028  15.611   7.897
38949SOL    HW165686  11.964  15.663   7.954
38949SOL    HW265687  12.064  15.534   7.950
38950SOL     OW65688   7.685  16.942   1.961
38950SOL    HW165689   7.721  16.874   2.024
38950SOL    HW265690   7.651   0.038   2.013
38951SOL     OW65691   3.466   4.731   7.765
38951SOL    HW165692   3.515   4.816   7.747
38951SOL    HW265693   3.495   4.661   7.700
38952SOL     OW65694   9.083  10.845   1.603
38952SOL    HW165695   9.064  10.880   1.512
38952SOL    HW265696   9.001  10.854   1.660
38953SOL     OW65697   3.431   6.471   7.373
38953SOL    HW165698   3.489   6.421   7.437
38953SOL    HW265699   3.405   6.559   7.414
38954SOL     OW65700   2.159  11.341   1.007
38954SOL    HW165701   2.224  11.387   0.946
38954SOL    HW265702   2.104  11.277   0.953
38955SOL     OW65703   3.961   0.438   1.610
38955SOL    HW165704   4.000   0.516   1.659
38955SOL    HW265705   3.862   0.439   1.619
38956SOL     OW65706   1.544   2.513   1.669
38956SOL    HW165707   1.553   2.597   1.615
38956SOL    HW265708   1.451   2.477   1.659
38957SOL     OW65709  13.962  10.934   7.531
38957SOL    HW165710  14.008  11.020   7.552
38957SOL    HW265711  13.863  10.948   7.528
38958SOL     OW65712   5.468   2.738   0.033
38958SOL    HW165713   5.463   2.826   8.439
38958SOL    HW265714   5.479   2.754   0.131
38959SOL     OW65715   6.685  14.338   1.121
38959SOL    HW165716   6.707  14.381   1.208
38959SOL    HW265717   6.616  14.393   1.073
38960SOL     OW65718  13.531  15.550   0.880
38960SOL    HW165719  13.532  15.452   0.858
38960SOL    HW265720  13.548  15.603   0.797
38961SOL     OW65721   4.613   7.450   8.158
38961SOL    HW165722   4.578   7.530   8.109
38961SOL    HW265723   4.672   7.480   8.233
38962SOL     OW65724   8.199   7.239   6.336
38962SOL    HW165725   8.152   7.173   6.278
38962SOL    HW265726   8.193   7.330   6.297
38963SOL     OW65727   8.235   4.497   1.067
38963SOL    HW165728   8.193   4.415   1.107
38963SOL    HW265729   8.174   4.535   0.997
38964SOL     OW65730   2.756  14.306   8.296
38964SOL    HW165731   2.825  14.357   8.349
38964SOL    HW265732   2.720  14.232   8.352
38965SOL     OW65733   7.535   2.839   7.399
38965SOL    HW165734   7.500   2.922   7.442
38965SOL    HW265735   7.542   2.766   7.468
38966SOL     OW65736  10.758   1.458   6.196
38966SOL    HW165737  10.767   1.394   6.120
38966SOL    HW265738  10.682   1.430   6.255
38967SOL     OW65739  14.519   5.655   0.201
38967SOL    HW165740  14.525   5.573   0.258
38967SOL    HW265741  14.585   5.649   0.126
38968SOL     OW65742   2.260   0.721   8.317
38968SOL    HW165743   2.216   0.649   8.370
38968SOL    HW265744   2.333   0.762   8.371
38969SOL     OW65745   7.699   7.606   0.424
38969SOL    HW165746   7.608   7.564   0.423
38969SOL    HW265747   7.692   7.699   0.461
38970SOL     OW65748   2.050  12.409   2.371
38970SOL    HW165749   2.065  12.444   2.463
38970SOL    HW265750   2.133  12.422   2.316
38971SOL     OW65751  15.520   6.213   6.874
38971SOL    HW165752  15.587   6.251   6.937
38971SOL    HW265753  15.516   6.113   6.885
38972SOL     OW65754  16.227  11.217   2.522
38972SOL    HW165755  16.145  11.174   2.484
38972SOL    HW265756  16.236  11.192   2.618
38973SOL     OW65757  10.890   3.327   0.046
38973SOL    HW165758  10.810   3.359   8.450
38973SOL    HW265759  10.933   3.403   0.094
38974SOL     OW65760   6.655  12.822   7.903
38974SOL    HW165761   6.572  12.866   7.870
38974SOL    HW265762   6.667  12.734   7.857
38975SOL     OW65763  14.510  15.606   7.565
38975SOL    HW165764  14.552  15.541   7.500
38975SOL    HW265765  14.533  15.699   7.537
38976SOL     OW65766  10.756   6.696   1.328
38976SOL    HW165767  10.777   6.689   1.230
38976SOL    HW265768  10.681   6.634   1.350
38977SOL     OW65769  16.691  14.997   1.226
38977SOL    HW165770  16.745  15.017   1.308
38977SOL    HW265771  16.746  15.014   1.144
38978SOL     OW65772   8.159   5.379   6.865
38978SOL    HW165773   8.161   5.447   6.791
38978SOL    HW265774   8.066   5.374   6.902
38979SOL     OW65775   3.988  13.478   6.588
38979SOL    HW165776   3.993  13.387   6.547
38979SOL    HW265777   4.052  13.540   6.542
38980SOL     OW65778  12.181  11.967   1.289
38980SOL    HW165779  12.209  11.879   1.250
38980SOL    HW265780  12.085  11.983   1.269
38981SOL     OW65781   4.031   5.455   7.401
38981SOL    HW165782   3.989   5.505   7.325
38981SOL    HW265783   4.022   5.508   7.485
38982SOL     OW65784   7.915   6.002   8.416
38982SOL    HW165785   8.014   6.004   8.427
38982SOL    HW265786   7.872   5.973   0.047
38983SOL     OW65787   7.247   1.444   0.100
38983SOL    HW165788   7.326   1.394   0.066
38983SOL    HW265789   7.262   1.542   0.086
38984SOL     OW65790   5.463  14.256   8.272
38984SOL    HW165791   5.418  14.196   8.338
38984SOL    HW265792   5.437  14.351   8.290
38985SOL     OW65793   6.394  13.837   0.746
38985SOL    HW165794   6.414  13.786   0.662
38985SOL    HW265795   6.364  13.929   0.723
38986SOL     OW65796  15.865   2.048   8.359
38986SOL    HW165797  15.858   1.993   8.443
38986SOL    HW265798  15.847   2.144   8.380
38987SOL     OW65799   4.531  14.969   7.815
38987SOL    HW165800   4.528  14.889   7.875
38987SOL    HW265801   4.600  14.955   7.745
38988SOL     OW65802  13.087   3.640   1.142
38988SOL    HW165803  13.064   3.544   1.130
38988SOL    HW265804  13.036   3.678   1.220
38989SOL     OW65805  12.843   7.995   0.115
38989SOL    HW165806  12.867   8.036   0.027
38989SOL    HW265807  12.765   7.934   0.104
38990SOL     OW65808   7.312  13.688   8.136
38990SOL    HW165809   7.270  13.658   8.051
38990SOL    HW265810   7.392  13.745   8.116
38991SOL     OW65811   9.470  11.798   8.403
38991SOL    HW165812   9.379  11.772   8.370
38991SOL    HW265813   9.494  11.888   8.367
38992SOL     OW65814  10.123  14.907   1.103
38992SOL    HW165815  10.040  14.917   1.159
38992SOL    HW265816  10.150  14.811   1.101
38993SOL     OW65817  15.892   6.033   0.660
38993SOL    HW165818  15.983   5.999   0.685
38993SOL    HW265819  15.900   6.129   0.632
38994SOL     OW65820  13.078   3.324   6.944
38994SOL    HW165821  13.162   3.276   6.917
38994SOL    HW265822  13.013   3.323   6.868
38995SOL     OW65823  15.085  16.354   7.668
38995SOL    HW165824  15.038  16.443   7.665
38995SOL    HW265825  15.020  16.282   7.642
38996SOL     OW65826   8.893   4.868   8.408
38996SOL    HW165827   8.881   4.960   8.370
38996SOL    HW265828   8.824   4.807   8.369
38997SOL     OW65829  16.567   7.655   7.497
38997SOL    HW165830  16.658   7.633   7.461
38997SOL    HW265831  16.527   7.574   7.539
38998SOL     OW65832  13.309   3.625   0.521
38998SOL    HW165833  13.309   3.528   0.494
38998SOL    HW265834  13.231   3.672   0.479
38999SOL     OW65835   4.411   8.824   7.364
38999SOL    HW165836   4.401   8.863   7.272
38999SOL    HW265837   4.506   8.830   7.393
39000SOL     OW65838   7.430   1.270   1.544
39000SOL    HW165839   7.408   1.330   1.621
39000SOL    HW265840   7.522   1.289   1.512
39001SOL     OW65841  14.702   7.384   6.261
39001SOL    HW165842  14.698   7.343   6.170
39001SOL    HW265843  14.771   7.338   6.316
39002SOL     OW65844  14.929  16.410   6.808
39002SOL    HW165845  14.854  16.470   6.835
39002SOL    HW265846  14.956  16.431   6.713
39003SOL     OW65847  11.753   8.157   1.348
39003SOL    HW165848  11.668   8.203   1.373
39003SOL    HW265849  11.745   8.059   1.366
39004SOL     OW65850  13.520   1.231   1.193
39004SOL    HW165851  13.532   1.177   1.110
39004SOL    HW265852  13.542   1.175   1.273
39005SOL     OW65853   7.107   6.268   2.225
39005SOL    HW165854   7.100   6.330   2.147
39005SOL    HW265855   7.153   6.314   2.301
39006SOL     OW65856   1.038   4.648   8.339
39006SOL    HW165857   1.020   4.550   8.351
39006SOL    HW265858   1.060   4.689   8.427
39007SOL     OW65859  10.144  16.076   6.932
39007SOL    HW165860  10.095  16.114   7.011
39007SOL    HW265861  10.127  16.134   6.852
39008SOL     OW65862   6.172   7.539   8.046
39008SOL    HW165863   6.270   7.519   8.041
39008SOL    HW265864   6.146   7.593   7.967
39009SOL     OW65865   7.984   5.240   7.558
39009SOL    HW165866   8.060   5.187   7.522
39009SOL    HW265867   7.983   5.235   7.657
39010SOL     OW65868   2.427   3.562   7.677
39010SOL    HW165869   2.341   3.585   7.632
39010SOL    HW265870   2.503   3.594   7.622
39011SOL     OW65871  12.109   9.089   8.187
39011SOL    HW165872  12.068   9.124   8.103
39011SOL    HW265873  12.076   9.142   8.265
39012SOL     OW65874  10.154  16.112   0.506
39012SOL    HW165875  10.237  16.086   0.555
39012SOL    HW265876  10.139  16.210   0.515
39013SOL     OW65877   5.100   7.957   8.398
39013SOL    HW165878   5.174   7.990   0.003
39013SOL    HW265879   5.015   8.004   8.421
39014SOL     OW65880   8.105  13.009   8.048
39014SOL    HW165881   8.198  12.975   8.040
39014SOL    HW265882   8.102  13.105   8.020
39015SOL     OW65883   0.200   4.790   1.712
39015SOL    HW165884   0.206   4.839   1.799
39015SOL    HW265885   0.124   4.827   1.658
39016SOL     OW65886  12.550   1.598   6.484
39016SOL    HW165887  12.497   1.587   6.400
39016SOL    HW265888  12.488   1.614   6.561
39017SOL     OW65889   1.031  10.177   0.034
39017SOL    HW165890   1.029  10.121   8.406
39017SOL    HW265891   0.938  10.197   0.064
39018SOL     OW65892   0.955  12.500   0.860
39018SOL    HW165893   0.937  12.435   0.934
39018SOL    HW265894   1.048  12.536   0.869
39019SOL     OW65895   3.618  14.198   8.331
39019SOL    HW165896   3.661  14.259   8.397
39019SOL    HW265897   3.589  14.114   8.376
39020SOL     OW65898  11.740   6.365   7.787
39020SOL    HW165899  11.825   6.403   7.750
39020SOL    HW265900  11.676   6.346   7.713
39021SOL     OW65901   7.778   6.404   7.831
39021SOL    HW165902   7.726   6.364   7.906
39021SOL    HW265903   7.816   6.331   7.774
39022SOL     OW65904   7.928   3.765   6.120
39022SOL    HW165905   7.907   3.802   6.030
39022SOL    HW265906   7.871   3.810   6.189
39023SOL     OW65907   8.169   5.862   1.178
39023SOL    HW165908   8.252   5.862   1.234
39023SOL    HW265909   8.089   5.856   1.238
39024SOL     OW65910   3.501   3.842   8.158
39024SOL    HW165911   3.583   3.898   8.170
39024SOL    HW265912   3.420   3.899   8.167
39025SOL     OW65913   3.299   0.805   0.395
39025SOL    HW165914   3.393   0.771   0.399
39025SOL    HW265915   3.275   0.824   0.299
39026SOL     OW65916   4.569   6.545   1.004
39026SOL    HW165917   4.509   6.587   1.072
39026SOL    HW265918   4.600   6.614   0.939
39027SOL     OW65919  10.540  11.907   0.183
39027SOL    HW165920  10.604  11.972   0.225
39027SOL    HW265921  10.582  11.867   0.101
39028SOL     OW65922  10.862   1.115   5.671
39028SOL    HW165923  10.919   1.096   5.590
39028SOL    HW265924  10.777   1.159   5.642
39029SOL     OW65925   1.152  15.886   1.161
39029SOL    HW165926   1.174  15.948   1.236
39029SOL    HW265927   1.063  15.911   1.122
39030SOL     OW65928   4.680   1.207   0.367
39030SOL    HW165929   4.580   1.207   0.358
39030SOL    HW265930   4.716   1.294   0.335
39031SOL     OW65931   3.118  12.228   7.464
39031SOL    HW165932   3.137  12.145   7.411
39031SOL    HW265933   3.050  12.208   7.535
39032SOL     OW65934  14.756   3.205   0.238
39032SOL    HW165935  14.715   3.292   0.266
39032SOL    HW265936  14.824   3.176   0.305
39033SOL     OW65937   4.607   0.248   7.251
39033SOL    HW165938   4.525   0.193   7.260
39033SOL    HW265939   4.688   0.190   7.258
39034SOL     OW65940  15.438  12.920   8.124
39034SOL    HW165941  15.481  12.846   8.177
39034SOL    HW265942  15.388  12.881   8.047
39035SOL     OW65943  16.633   7.065   1.600
39035SOL    HW165944  16.669   7.057   1.693
39035SOL    HW265945  16.577   7.148   1.593
39036SOL     OW65946  16.625   8.783   7.570
39036SOL    HW165947  16.554   8.811   7.635
39036SOL    HW265948  16.684   8.714   7.612
39037SOL     OW65949  16.506   6.890   1.428
39037SOL    HW165950  16.566   6.845   1.362
39037SOL    HW265951  16.561   6.946   1.490
39038SOL     OW65952  15.694   4.172   5.185
39038SOL    HW165953  15.596   4.165   5.203
39038SOL    HW265954  15.728   4.085   5.149
39039SOL     OW65955   9.624  11.743   0.362
39039SOL    HW165956   9.563  11.821   0.368
39039SOL    HW265957   9.719  11.775   0.352
39040SOL     OW65958   2.670   7.288   7.787
39040SOL    HW165959   2.760   7.258   7.820
39040SOL    HW265960   2.606   7.211   7.789
39041SOL     OW65961  13.847   6.373   0.381
39041SOL    HW165962  13.931   6.418   0.351
39041SOL    HW265963  13.818   6.307   0.311
39042SOL     OW65964  14.633   1.594   0.395
39042SOL    HW165965  14.612   1.691   0.378
39042SOL    HW265966  14.657   1.582   0.491
39043SOL     OW65967   4.882   2.493   0.969
39043SOL    HW165968   4.851   2.587   0.956
39043SOL    HW265969   4.958   2.474   0.907
39044SOL     OW65970  13.300   0.363   2.120
39044SOL    HW165971  13.384   0.309   2.118
39044SOL    HW265972  13.316   0.448   2.170
39045SOL     OW65973  15.183  11.652   7.732
39045SOL    HW165974  15.237  11.706   7.796
39045SOL    HW265975  15.184  11.556   7.761
39046SOL     OW65976   6.771   4.745   6.949
39046SOL    HW165977   6.723   4.684   6.886
39046SOL    HW265978   6.864   4.760   6.917
39047SOL     OW65979   6.687  15.640   7.081
39047SOL    HW165980   6.707  15.619   6.985
39047SOL    HW265981   6.596  15.681   7.087
39048SOL     OW65982   7.128  11.801   6.747
39048SOL    HW165983   7.045  11.752   6.721
39048SOL    HW265984   7.197  11.789   6.676
39049SOL     OW65985   0.344   9.432   7.967
39049SOL    HW165986   0.282   9.493   7.918
39049SOL    HW265987   0.337   9.449   8.065
39050SOL     OW65988   7.638   7.529   1.444
39050SOL    HW165989   7.544   7.525   1.478
39050SOL    HW265990   7.666   7.624   1.435
39051SOL     OW65991   0.048   1.478   7.754
39051SOL    HW165992  16.956   1.524   7.800
39051SOL    HW265993   0.100   1.544   7.699
39052SOL     OW65994   6.762   5.248   1.128
39052SOL    HW165995   6.684   5.288   1.080
39052SOL    HW265996   6.764   5.281   1.222
39053SOL     OW65997  12.324   8.539   7.255
39053SOL    HW165998  12.396   8.568   7.318
39053SOL    HW265999  12.301   8.443   7.272
39054SOL     OW66000   0.467  12.412   8.387
39054SOL    HW166001   0.373  12.379   8.379
39054SOL    HW266002   0.513  12.402   8.299
39055SOL     OW66003   6.199  16.104   7.942
39055SOL    HW166004   6.119  16.162   7.958
39055SOL    HW266005   6.279  16.162   7.924
39056SOL     OW66006   3.510  14.471   0.727
39056SOL    HW166007   3.430  14.528   0.706
39056SOL    HW266008   3.486  14.375   0.713
39057SOL     OW66009  16.133  13.388   2.474
39057SOL    HW166010  16.057  13.452   2.483
39057SOL    HW266011  16.102  13.296   2.500
39058SOL     OW66012   7.052   8.203   0.488
39058SOL    HW166013   6.965   8.243   0.458
39058SOL    HW266014   7.081   8.247   0.573
39059SOL     OW66015   1.469  14.320   7.761
39059SOL    HW166016   1.436  14.378   7.835
39059SOL    HW266017   1.560  14.286   7.784
39060SOL     OW66018   3.608  15.900   2.204
39060SOL    HW166019   3.691  15.899   2.147
39060SOL    HW266020   3.593  15.809   2.242
39061SOL     OW66021   7.788   4.007   1.837
39061SOL    HW166022   7.755   3.988   1.929
39061SOL    HW266023   7.733   3.956   1.771
39062SOL     OW66024  10.906   6.500   6.302
39062SOL    HW166025  10.905   6.426   6.235
39062SOL    HW266026  10.928   6.586   6.257
39063SOL     OW66027   2.569  14.192   0.610
39063SOL    HW166028   2.647  14.133   0.628
39063SOL    HW266029   2.574  14.226   0.516
39064SOL     OW66030  12.848  16.387   6.328
39064SOL    HW166031  12.813  16.300   6.294
39064SOL    HW266032  12.881  16.443   6.252
39065SOL     OW66033   7.975  15.431   0.933
39065SOL    HW166034   8.041  15.363   0.903
39065SOL    HW266035   7.883  15.403   0.907
39066SOL     OW66036   9.666  10.510   1.516
39066SOL    HW166037   9.690  10.480   1.423
39066SOL    HW266038   9.705  10.447   1.582
39067SOL     OW66039  12.567  15.107   7.695
39067SOL    HW166040  12.653  15.083   7.741
39067SOL    HW266041  12.581  15.187   7.637
39068SOL     OW66042  12.823   7.231   6.281
39068SOL    HW166043  12.764   7.194   6.353
39068SOL    HW266044  12.769   7.246   6.198
39069SOL     OW66045  15.538   8.194   6.720
39069SOL    HW166046  15.505   8.099   6.713
39069SOL    HW266047  15.628   8.195   6.764
39070SOL     OW66048   7.597  15.971   6.952
39070SOL    HW166049   7.652  16.009   6.878
39070SOL    HW266050   7.651  15.973   7.037
39071SOL     OW66051   2.728  12.107   1.024
39071SOL    HW166052   2.782  12.087   0.942
39071SOL    HW266053   2.789  12.116   1.103
39072SOL     OW66054   4.945   9.522   6.377
39072SOL    HW166055   5.035   9.548   6.340
39072SOL    HW266056   4.875   9.581   6.339
39073SOL     OW66057  10.862   6.940   1.829
39073SOL    HW166058  10.900   7.028   1.798
39073SOL    HW266059  10.769   6.955   1.862
39074SOL     OW66060   5.342  16.906   6.994
39074SOL    HW166061   5.243  16.897   6.990
39074SOL    HW266062   5.384  16.840   6.931
39075SOL     OW66063   2.718   7.131   1.922
39075SOL    HW166064   2.762   7.055   1.873
39075SOL    HW266065   2.694   7.203   1.857
39076SOL     OW66066   5.148  11.761   1.260
39076SOL    HW166067   5.077  11.760   1.189
39076SOL    HW266068   5.231  11.718   1.226
39077SOL     OW66069   5.729  13.983   7.541
39077SOL    HW166070   5.640  14.028   7.550
39077SOL    HW266071   5.728  13.921   7.462
39078SOL     OW66072   3.481   3.194   7.379
39078SOL    HW166073   3.560   3.145   7.416
39078SOL    HW266074   3.399   3.169   7.431
39079SOL     OW66075  15.536  11.446   7.513
39079SOL    HW166076  15.452  11.458   7.461
39079SOL    HW266077  15.607  11.405   7.455
39080SOL     OW66078   7.009   4.579   1.113
39080SOL    HW166079   6.965   4.658   1.069
39080SOL    HW266080   6.963   4.495   1.084
39081SOL     OW66081   7.729   1.189   0.947
39081SOL    HW166082   7.687   1.182   0.857
39081SOL    HW266083   7.758   1.099   0.978
39082SOL     OW66084   7.521   3.929   1.127
39082SOL    HW166085   7.424   3.921   1.102
39082SOL    HW266086   7.541   3.865   1.201
39083SOL     OW66087   8.042   6.183   1.319
39083SOL    HW166088   7.972   6.129   1.271
39083SOL    HW266089   8.032   6.169   1.417
39084SOL     OW66090   3.819   1.635   0.288
39084SOL    HW166091   3.878   1.617   0.210
39084SOL    HW266092   3.803   1.551   0.339
39085SOL     OW66093   6.518   9.099   7.431
39085SOL    HW166094   6.546   9.004   7.446
39085SOL    HW266095   6.550   9.155   7.508
39086SOL     OW66096   5.781   8.518   8.022
39086SOL    HW166097   5.793   8.448   7.951
39086SOL    HW266098   5.688   8.513   8.058
39087SOL     OW66099   2.001  10.658   1.367
39087SOL    HW166100   1.910  10.696   1.386
39087SOL    HW266101   2.047  10.714   1.298
39088SOL     OW66102  10.739   4.899   0.016
39088SOL    HW166103  10.641   4.880   0.023
39088SOL    HW266104  10.760   4.930   8.377
39089SOL     OW66105  16.421   1.767   0.026
39089SOL    HW166106  16.511   1.742   8.445
39089SOL    HW266107  16.362   1.686   0.028
39090SOL     OW66108   7.929  16.799   0.157
39090SOL    HW166109   7.974  16.834   0.075
39090SOL    HW266110   7.981  16.826   0.238
39091SOL     OW66111  11.642  13.903   8.299
39091SOL    HW166112  11.717  13.854   8.343
39091SOL    HW266113  11.674  13.945   8.214
39092SOL     OW66114   0.927  16.131   6.442
39092SOL    HW166115   0.938  16.222   6.480
39092SOL    HW266116   0.885  16.138   6.351
39093SOL     OW66117   1.330  12.565   7.252
39093SOL    HW166118   1.358  12.557   7.347
39093SOL    HW266119   1.408  12.546   7.192
39094SOL     OW66120   2.090   2.048   2.100
39094SOL    HW166121   2.025   2.065   2.025
39094SOL    HW266122   2.068   2.110   2.176
39095SOL     OW66123  10.141  13.827   7.731
39095SOL    HW166124  10.085  13.874   7.799
39095SOL    HW266125  10.086  13.807   7.650
39096SOL     OW66126  12.130  11.105   7.289
39096SOL    HW166127  12.203  11.134   7.227
39096SOL    HW266128  12.049  11.082   7.236
39097SOL     OW66129  11.309  11.275   0.781
39097SOL    HW166130  11.211  11.274   0.799
39097SOL    HW266131  11.359  11.234   0.858
39098SOL     OW66132  13.836   3.609   8.088
39098SOL    HW166133  13.930   3.616   8.056
39098SOL    HW266134  13.832   3.631   8.186
39099SOL     OW66135  12.918   0.957   0.298
39099SOL    HW166136  12.980   0.981   0.223
39099SOL    HW266137  12.951   0.997   0.383
39100SOL     OW66138   3.315   0.465   8.307
39100SOL    HW166139   3.336   0.560   8.332
39100SOL    HW266140   3.224   0.442   8.341
39101SOL     OW66141   9.987   9.395   0.187
39101SOL    HW166142   9.945   9.308   0.162
39101SOL    HW266143  10.069   9.410   0.132
39102SOL     OW66144   5.445   4.659   1.635
39102SOL    HW166145   5.354   4.674   1.674
39102SOL    HW266146   5.437   4.608   1.549
39103SOL     OW66147   6.391   7.644   8.279
39103SOL    HW166148   6.419   7.588   8.200
39103SOL    HW266149   6.295   7.627   8.300
39104SOL     OW66150   0.437   1.162   0.601
39104SOL    HW166151   0.374   1.129   0.672
39104SOL    HW266152   0.390   1.162   0.513
39105SOL     OW66153   3.664  10.070   2.257
39105SOL    HW166154   3.642   9.978   2.223
39105SOL    HW266155   3.581  10.125   2.260
39106SOL     OW66156  14.230   5.813   7.227
39106SOL    HW166157  14.322   5.807   7.190
39106SOL    HW266158  14.234   5.816   7.327
39107SOL     OW66159   9.802   7.821   0.045
39107SOL    HW166160   9.866   7.861   0.110
39107SOL    HW266161   9.784   7.887   8.425
39108SOL     OW66162  15.102   4.937   6.204
39108SOL    HW166163  15.138   4.844   6.214
39108SOL    HW266164  15.024   4.935   6.141
39109SOL     OW66165  10.185   1.654   1.274
39109SOL    HW166166  10.097   1.672   1.230
39109SOL    HW266167  10.181   1.567   1.322
39110SOL     OW66168  15.854   2.410   7.236
39110SOL    HW166169  15.936   2.423   7.181
39110SOL    HW266170  15.853   2.316   7.271
39111SOL     OW66171  16.124   5.931   8.201
39111SOL    HW166172  16.146   5.845   8.246
39111SOL    HW266173  16.146   6.007   8.263
39112SOL     OW66174   7.382   6.464   7.422
39112SOL    HW166175   7.442   6.402   7.473
39112SOL    HW266176   7.408   6.559   7.441
39113SOL     OW66177  11.803   2.745   1.713
39113SOL    HW166178  11.754   2.830   1.726
39113SOL    HW266179  11.851   2.720   1.797
39114SOL     OW66180  11.785  15.142   7.107
39114SOL    HW166181  11.873  15.184   7.129
39114SOL    HW266182  11.781  15.125   7.008
39115SOL     OW66183   8.890  15.599   7.404
39115SOL    HW166184   8.847  15.619   7.316
39115SOL    HW266185   8.988  15.584   7.391
39116SOL     OW66186   5.177  10.135   1.516
39116SOL    HW166187   5.124  10.059   1.554
39116SOL    HW266188   5.265  10.100   1.482
39117SOL     OW66189  12.539   5.627   6.983
39117SOL    HW166190  12.550   5.588   7.075
39117SOL    HW266191  12.622   5.609   6.930
39118SOL     OW66192   2.650   2.269   1.013
39118SOL    HW166193   2.743   2.298   1.037
39118SOL    HW266194   2.620   2.197   1.075
39119SOL     OW66195  16.455  15.846   6.702
39119SOL    HW166196  16.370  15.898   6.711
39119SOL    HW266197  16.529  15.908   6.673
39120SOL     OW66198  15.305  14.707   8.132
39120SOL    HW166199  15.283  14.803   8.146
39120SOL    HW266200  15.364  14.675   8.206
39121SOL     OW66201   2.587  15.245   7.540
39121SOL    HW166202   2.553  15.303   7.466
39121SOL    HW266203   2.521  15.246   7.616
39122SOL     OW66204   5.222  11.966   8.105
39122SOL    HW166205   5.127  11.944   8.125
39122SOL    HW266206   5.232  11.994   8.010
39123SOL     OW66207  14.115   5.059   1.561
39123SOL    HW166208  14.108   5.039   1.463
39123SOL    HW266209  14.070   4.987   1.613
39124SOL     OW66210  16.447   2.817   0.592
39124SOL    HW166211  16.531   2.859   0.626
39124SOL    HW266212  16.373   2.884   0.595
39125SOL     OW66213  14.040   2.448   5.744
39125SOL    HW166214  14.132   2.418   5.719
39125SOL    HW266215  13.998   2.496   5.667
39126SOL     OW66216   2.160  10.190   8.265
39126SOL    HW166217   2.241  10.159   8.216
39126SOL    HW266218   2.185  10.214   8.359
39127SOL     OW66219   5.920   6.734   8.362
39127SOL    HW166220   5.870   6.785   8.432
39127SOL    HW266221   5.987   6.674   8.406
39128SOL     OW66222   4.345  10.057   1.008
39128SOL    HW166223   4.286  10.058   1.089
39128SOL    HW266224   4.395   9.971   1.004
39129SOL     OW66225   1.895  12.297   8.306
39129SOL    HW166226   1.924  12.387   8.340
39129SOL    HW266227   1.899  12.231   8.380
39130SOL     OW66228  16.081  13.296   0.508
39130SOL    HW166229  16.135  13.300   0.424
39130SOL    HW266230  15.997  13.349   0.496
39131SOL     OW66231   3.760   5.149   8.107
39131SOL    HW166232   3.728   5.221   8.169
39131SOL    HW266233   3.685   5.123   8.045
39132SOL     OW66234   3.043  15.890   7.382
39132SOL    HW166235   3.021  15.985   7.402
39132SOL    HW266236   2.993  15.860   7.300
39133SOL     OW66237  10.955   8.104   7.774
39133SOL    HW166238  10.968   8.023   7.717
39133SOL    HW266239  11.044   8.139   7.804
39134SOL     OW66240   0.794   6.945   1.887
39134SOL    HW166241   0.808   7.043   1.874
39134SOL    HW266242   0.826   6.919   1.978
39135SOL     OW66243  16.554  10.670   8.144
39135SOL    HW166244  16.477  10.607   8.138
39135SOL    HW266245  16.545  10.726   8.226
39136SOL     OW66246  14.059   6.531   0.772
39136SOL    HW166247  14.065   6.511   0.870
39136SOL    HW266248  14.022   6.623   0.760
39137SOL     OW66249  12.885   4.167   8.329
39137SOL    HW166250  12.959   4.109   8.363
39137SOL    HW266251  12.799   4.140   8.372
39138SOL     OW66252  14.153   3.262   0.228
39138SOL    HW166253  14.061   3.302   0.227
39138SOL    HW266254  14.152   3.177   0.279
39139SOL     OW66255   3.007   9.117   7.987
39139SOL    HW166256   3.057   9.053   7.929
39139SOL    HW266257   2.927   9.071   8.027
39140SOL     OW66258   5.642  15.158   1.086
39140SOL    HW166259   5.640  15.065   1.123
39140SOL    HW266260   5.728  15.202   1.111
39141SOL     OW66261   8.654   5.242   2.592
39141SOL    HW166262   8.715   5.299   2.647
39141SOL    HW266263   8.611   5.173   2.651
39142SOL     OW66264   6.098   5.018   1.607
39142SOL    HW166265   6.023   5.076   1.640
39142SOL    HW266266   6.069   4.923   1.608
39143SOL     OW66267  14.897   9.692   7.405
39143SOL    HW166268  14.871   9.685   7.501
39143SOL    HW266269  14.873   9.607   7.358
39144SOL     OW66270   7.700  13.646   1.017
39144SOL    HW166271   7.732  13.662   1.110
39144SOL    HW266272   7.629  13.712   0.994
39145SOL     OW66273   4.637   8.829   0.008
39145SOL    HW166274   4.659   8.865   8.371
39145SOL    HW266275   4.636   8.729   0.005
39146SOL     OW66276   1.460   3.806   0.446
39146SOL    HW166277   1.516   3.795   0.363
39146SOL    HW266278   1.391   3.734   0.450
39147SOL     OW66279  14.894   4.224   8.126
39147SOL    HW166280  14.854   4.313   8.149
39147SOL    HW266281  14.980   4.238   8.078
39148SOL     OW66282   5.481   8.983   6.942
39148SOL    HW166283   5.385   9.001   6.920
39148SOL    HW266284   5.539   9.026   6.873
39149SOL     OW66285  14.264   3.531   0.264
39149SOL    HW166286  14.293   3.575   0.179
39149SOL    HW266287  14.247   3.434   0.247
39150SOL     OW66288   0.102   0.569   7.131
39150SOL    HW166289   0.141   0.661   7.124
39150SOL    HW266290   0.092   0.545   7.227
39151SOL     OW66291  15.895   2.978   0.275
39151SOL    HW166292  15.816   3.008   0.329
39151SOL    HW266293  15.968   2.948   0.336
39152SOL     OW66294  13.395   2.962   5.782
39152SOL    HW166295  13.492   2.972   5.758
39152SOL    HW266296  13.350   3.051   5.775
39153SOL     OW66297   9.737  14.712   7.943
39153SOL    HW166298   9.696  14.675   8.026
39153SOL    HW266299   9.801  14.645   7.904
39154SOL     OW66300   5.324  10.129   6.225
39154SOL    HW166301   5.260  10.126   6.148
39154SOL    HW266302   5.395  10.060   6.212
39155SOL     OW66303   0.909  14.961   2.168
39155SOL    HW166304   0.884  15.005   2.254
39155SOL    HW266305   0.993  14.908   2.181
39156SOL     OW66306   1.324   3.491   0.638
39156SOL    HW166307   1.328   3.538   0.726
39156SOL    HW266308   1.232   3.498   0.600
39157SOL     OW66309   1.328   0.678   0.472
39157SOL    HW166310   1.297   0.612   0.541
39157SOL    HW266311   1.353   0.629   0.388
39158SOL     OW66312  12.140   5.195   6.529
39158SOL    HW166313  12.090   5.274   6.564
39158SOL    HW266314  12.133   5.120   6.595
39159SOL     OW66315   3.437  16.027   2.032
39159SOL    HW166316   3.492  15.982   2.102
39159SOL    HW266317   3.451  15.982   1.944
39160SOL     OW66318   2.971  15.690   8.399
39160SOL    HW166319   2.926  15.745   0.016
39160SOL    HW266320   2.961  15.735   8.311
39161SOL     OW66321   8.007  13.627   5.977
39161SOL    HW166322   8.082  13.565   5.953
39161SOL    HW266323   8.012  13.709   5.921
39162SOL     OW66324  14.129  10.805   1.267
39162SOL    HW166325  14.164  10.898   1.279
39162SOL    HW266326  14.203  10.745   1.237
39163SOL     OW66327  12.235   6.971   0.130
39163SOL    HW166328  12.268   7.056   0.090
39163SOL    HW266329  12.270   6.963   0.224
39164SOL     OW66330  10.165  13.118   1.408
39164SOL    HW166331  10.185  13.208   1.448
39164SOL    HW266332  10.137  13.056   1.481
39165SOL     OW66333   9.022  11.500   7.995
39165SOL    HW166334   9.005  11.409   7.956
39165SOL    HW266335   9.089  11.494   8.068
39166SOL     OW66336  16.086   0.464   6.567
39166SOL    HW166337  16.140   0.442   6.486
39166SOL    HW266338  15.991   0.435   6.554
39167SOL     OW66339   6.969   7.061   7.001
39167SOL    HW166340   6.914   7.055   6.917
39167SOL    HW266341   6.913   7.030   7.078
39168SOL     OW66342  14.057  16.389   7.219
39168SOL    HW166343  13.978  16.414   7.162
39168SOL    HW266344  14.118  16.468   7.227
39169SOL     OW66345   3.798  11.503   7.762
39169SOL    HW166346   3.819  11.488   7.858
39169SOL    HW266347   3.875  11.550   7.718
39170SOL     OW66348   0.423   5.441   1.417
39170SOL    HW166349   0.375   5.374   1.474
39170SOL    HW266350   0.514   5.459   1.455
39171SOL     OW66351  10.142  13.204   0.354
39171SOL    HW166352  10.095  13.285   0.319
39171SOL    HW266353  10.075  13.139   0.388
39172SOL     OW66354   6.543   7.308   7.129
39172SOL    HW166355   6.446   7.328   7.112
39172SOL    HW266356   6.589   7.290   7.041
39173SOL     OW66357   6.357  10.741   1.454
39173SOL    HW166358   6.438  10.796   1.436
39173SOL    HW266359   6.331  10.691   1.371
39174SOL     OW66360   7.682  12.746   7.332
39174SOL    HW166361   7.769  12.697   7.326
39174SOL    HW266362   7.606  12.681   7.321
39175SOL     OW66363  12.256   8.203   6.812
39175SOL    HW166364  12.264   8.155   6.724
39175SOL    HW266365  12.260   8.137   6.887
39176SOL     OW66366  13.173  10.355   2.558
39176SOL    HW166367  13.220  10.440   2.534
39176SOL    HW266368  13.218  10.313   2.637
39177SOL     OW66369  11.870   6.990   0.178
39177SOL    HW166370  11.922   7.062   0.224
39177SOL    HW266371  11.904   6.980   0.084
39178SOL     OW66372   7.202   7.445   0.091
39178SOL    HW166373   7.266   7.394   0.149
39178SOL    HW266374   7.119   7.392   0.079
39179SOL     OW66375   5.461  14.397   0.713
39179SOL    HW166376   5.558  14.376   0.701
39179SOL    HW266377   5.419  14.329   0.773
39180SOL     OW66378   5.119  13.308   0.846
39180SOL    HW166379   5.040  13.248   0.862
39180SOL    HW266380   5.147  13.349   0.933
39181SOL     OW66381  10.929  10.518   1.524
39181SOL    HW166382  10.836  10.553   1.533
39181SOL    HW266383  10.931  10.422   1.551
39182SOL     OW66384   8.100  10.511   1.385
39182SOL    HW166385   8.068  10.427   1.430
39182SOL    HW266386   8.119  10.492   1.289
39183SOL     OW66387   8.523  11.813   1.395
39183SOL    HW166388   8.501  11.877   1.469
39183SOL    HW266389   8.439  11.786   1.348
39184SOL     OW66390  13.540   0.407   7.623
39184SOL    HW166391  13.582   0.361   7.701
39184SOL    HW266392  13.609   0.420   7.552
39185SOL     OW66393   7.348   5.271   1.911
39185SOL    HW166394   7.427   5.269   1.850
39185SOL    HW266395   7.369   5.221   1.995
39186SOL     OW66396  14.473   6.860   1.255
39186SOL    HW166397  14.570   6.843   1.268
39186SOL    HW266398  14.437   6.798   1.185
39187SOL     OW66399  15.675  15.179   8.036
39187SOL    HW166400  15.611  15.118   8.084
39187SOL    HW266401  15.712  15.132   7.956
39188SOL     OW66402   1.980   2.625   0.465
39188SOL    HW166403   1.899   2.663   0.510
39188SOL    HW266404   2.038   2.580   0.533
39189SOL     OW66405  10.485   9.178   8.269
39189SOL    HW166406  10.499   9.081   8.290
39189SOL    HW266407  10.525   9.234   8.342
39190SOL     OW66408   6.294  13.425   6.943
39190SOL    HW166409   6.272  13.338   6.986
39190SOL    HW266410   6.286  13.499   7.010
39191SOL     OW66411   2.439  15.087   0.737
39191SOL    HW166412   2.388  15.025   0.677
39191SOL    HW266413   2.535  15.059   0.741
39192SOL     OW66414   2.026   4.756   6.824
39192SOL    HW166415   1.977   4.716   6.747
39192SOL    HW266416   1.962   4.801   6.885
39193SOL     OW66417   0.811  10.841   7.696
39193SOL    HW166418   0.816  10.915   7.629
39193SOL    HW266419   0.855  10.869   7.781
39194SOL     OW66420   9.741   5.213   8.266
39194SOL    HW166421   9.660   5.219   8.325
39194SOL    HW266422   9.716   5.170   8.179
39195SOL     OW66423   0.561  15.964   6.304
39195SOL    HW166424   0.480  15.906   6.300
39195SOL    HW266425   0.606  15.965   6.215
39196SOL     OW66426   7.332  15.162   1.260
39196SOL    HW166427   7.411  15.102   1.244
39196SOL    HW266428   7.250  15.120   1.221
39197SOL     OW66429   3.402  11.025   0.292
39197SOL    HW166430   3.482  10.980   0.333
39197SOL    HW266431   3.432  11.081   0.214
39198SOL     OW66432   0.061   7.950   1.809
39198SOL    HW166433   0.116   7.939   1.891
39198SOL    HW266434   0.121   7.965   1.730
39199SOL     OW66435   3.590  15.328   7.511
39199SOL    HW166436   3.606  15.281   7.424
39199SOL    HW266437   3.492  15.332   7.529
39200SOL     OW66438  15.431   7.761   0.319
39200SOL    HW166439  15.366   7.716   0.258
39200SOL    HW266440  15.384   7.792   0.401
39201SOL     OW66441  14.028  13.076   2.196
39201SOL    HW166442  13.945  13.037   2.235
39201SOL    HW266443  14.004  13.135   2.118
39202SOL     OW66444   2.273   6.222   0.706
39202SOL    HW166445   2.240   6.182   0.621
39202SOL    HW266446   2.355   6.277   0.688
39203SOL     OW66447   3.701   1.844   2.347
39203SOL    HW166448   3.728   1.912   2.280
39203SOL    HW266449   3.667   1.890   2.429
39204SOL     OW66450  14.532  12.747   7.665
39204SOL    HW166451  14.623  12.751   7.706
39204SOL    HW266452  14.463  12.745   7.737
39205SOL     OW66453   9.776   8.808   6.977
39205SOL    HW166454   9.804   8.847   6.889
39205SOL    HW266455   9.733   8.720   6.962
39206SOL     OW66456   1.069   8.587   7.642
39206SOL    HW166457   1.098   8.574   7.737
39206SOL    HW266458   1.074   8.500   7.593
39207SOL     OW66459  15.778   3.826   7.698
39207SOL    HW166460  15.684   3.856   7.680
39207SOL    HW266461  15.820   3.888   7.764
39208SOL     OW66462  16.482   0.036   8.063
39208SOL    HW166463  16.537  16.935   8.064
39208SOL    HW266464  16.447   0.053   8.155
39209SOL     OW66465   0.024   7.527   5.831
39209SOL    HW166466   0.077   7.611   5.839
39209SOL    HW266467   0.077   7.458   5.782
39210SOL     OW66468  15.358  10.016   7.586
39210SOL    HW166469  15.443  10.026   7.637
39210SOL    HW266470  15.284   9.987   7.647
39211SOL     OW66471  15.659  16.116   5.914
39211SOL    HW166472  15.645  16.030   5.963
39211SOL    HW266473  15.573  16.146   5.873
39212SOL     OW66474  16.808  13.324   0.316
39212SOL    HW166475  16.731  13.372   0.358
39212SOL    HW266476  16.775  13.270   0.238
39213SOL     OW66477   5.724   9.619   7.347
39213SOL    HW166478   5.799   9.682   7.366
39213SOL    HW266479   5.696   9.628   7.251
39214SOL     OW66480  14.813   1.272   8.165
39214SOL    HW166481  14.732   1.329   8.156
39214SOL    HW266482  14.788   1.176   8.149
39215SOL     OW66483  13.059  10.586   2.326
39215SOL    HW166484  12.996  10.527   2.377
39215SOL    HW266485  13.140  10.605   2.382
39216SOL     OW66486  16.203   1.877   8.107
39216SOL    HW166487  16.290   1.920   8.130
39216SOL    HW266488  16.215   1.816   8.029
39217SOL     OW66489   8.242   3.886   1.195
39217SOL    HW166490   8.155   3.927   1.169
39217SOL    HW266491   8.227   3.823   1.271
39218SOL     OW66492  11.790   3.104   1.561
39218SOL    HW166493  11.876   3.131   1.603
39218SOL    HW266494  11.731   3.062   1.631
39219SOL     OW66495  12.268   5.042   1.248
39219SOL    HW166496  12.265   5.090   1.336
39219SOL    HW266497  12.198   4.970   1.247
39220SOL     OW66498   9.841   4.017   8.225
39220SOL    HW166499   9.818   4.114   8.232
39220SOL    HW266500   9.780   3.964   8.283
39221SOL     OW66501   1.502   3.136   6.264
39221SOL    HW166502   1.486   3.216   6.206
39221SOL    HW266503   1.564   3.072   6.218
39222SOL     OW66504   5.735   4.660   8.102
39222SOL    HW166505   5.668   4.589   8.121
39222SOL    HW266506   5.821   4.618   8.073
39223SOL     OW66507  11.872   8.415   8.013
39223SOL    HW166508  11.832   8.494   8.059
39223SOL    HW266509  11.808   8.380   7.945
39224SOL     OW66510   1.048  15.938   0.058
39224SOL    HW166511   1.011  15.851   0.026
39224SOL    HW266512   1.136  15.955   0.015
39225SOL     OW66513   4.709   8.919   8.215
39225SOL    HW166514   4.779   8.860   8.174
39225SOL    HW266515   4.748   9.009   8.232
39226SOL     OW66516  16.218   4.033   1.127
39226SOL    HW166517  16.250   3.954   1.075
39226SOL    HW266518  16.277   4.111   1.108
39227SOL     OW66519   2.382  11.692   0.318
39227SOL    HW166520   2.480  11.689   0.336
39227SOL    HW266521   2.332  11.656   0.397
39228SOL     OW66522   0.029   6.320   1.295
39228SOL    HW166523   0.026   6.388   1.368
39228SOL    HW266524  16.919   6.305   1.260
39229SOL     OW66525   8.630   3.211   1.645
39229SOL    HW166526   8.633   3.282   1.575
39229SOL    HW266527   8.570   3.239   1.719
39230SOL     OW66528   9.164   9.382   7.912
39230SOL    HW166529   9.253   9.358   7.875
39230SOL    HW266530   9.141   9.475   7.886
39231SOL     OW66531  14.153   0.438   6.215
39231SOL    HW166532  14.205   0.430   6.130
39231SOL    HW266533  14.058   0.463   6.195
39232SOL     OW66534  11.080  15.301   0.937
39232SOL    HW166535  11.017  15.299   1.014
39232SOL    HW266536  11.070  15.388   0.889
39233SOL     OW66537   3.651  11.512   1.226
39233SOL    HW166538   3.730  11.572   1.237
39233SOL    HW266539   3.654  11.470   1.135
39234SOL     OW66540   4.389  16.145   0.754
39234SOL    HW166541   4.394  16.166   0.852
39234SOL    HW266542   4.321  16.204   0.711
39235SOL     OW66543  12.013   9.118   6.315
39235SOL    HW166544  12.099   9.157   6.282
39235SOL    HW266545  11.971   9.064   6.243
39236SOL     OW66546   8.430  13.704   7.121
39236SOL    HW166547   8.370  13.750   7.055
39236SOL    HW266548   8.490  13.772   7.164
39237SOL     OW66549   4.024  10.622   1.778
39237SOL    HW166550   4.001  10.707   1.732
39237SOL    HW266551   4.102  10.579   1.733
39238SOL     OW66552  14.448   8.033   6.472
39238SOL    HW166553  14.391   8.077   6.402
39238SOL    HW266554  14.493   7.953   6.433
39239SOL     OW66555   8.065  12.498   8.052
39239SOL    HW166556   7.973  12.460   8.054
39239SOL    HW266557   8.131  12.424   8.037
39240SOL     OW66558  16.384   5.478   1.290
39240SOL    HW166559  16.365   5.460   1.386
39240SOL    HW266560  16.348   5.568   1.266
39241SOL     OW66561  11.769  11.599   7.461
39241SOL    HW166562  11.843  11.534   7.477
39241SOL    HW266563  11.748  11.647   7.546
39242SOL     OW66564  16.872  15.061   8.426
39242SOL    HW166565  16.836  15.039   0.063
39242SOL    HW266566  16.804  15.035   8.356
39243SOL     OW66567   3.509   0.107   6.886
39243SOL    HW166568   3.484   0.070   6.797
39243SOL    HW266569   3.496   0.206   6.886
39244SOL     OW66570   6.394  14.677   1.212
39244SOL    HW166571   6.462  14.632   1.154
39244SOL    HW266572   6.302  14.651   1.182
39245SOL     OW66573   2.371   5.533   6.900
39245SOL    HW166574   2.353   5.615   6.846
39245SOL    HW266575   2.429   5.556   6.978
39246SOL     OW66576   4.403   1.209   0.340
39246SOL    HW166577   4.374   1.268   0.265
39246SOL    HW266578   4.389   1.114   0.314
39247SOL     OW66579  15.502   1.784   6.018
39247SOL    HW166580  15.568   1.838   5.967
39247SOL    HW266581  15.432   1.748   5.956
39248SOL     OW66582  13.585  10.124   1.181
39248SOL    HW166583  13.613  10.200   1.240
39248SOL    HW266584  13.664  10.066   1.161
39249SOL     OW66585  13.842   4.053   6.702
39249SOL    HW166586  13.797   4.114   6.637
39249SOL    HW266587  13.920   4.100   6.743
39250SOL     OW66588   7.849   9.964   8.234
39250SOL    HW166589   7.865  10.032   8.164
39250SOL    HW266590   7.756   9.928   8.225
39251SOL     OW66591   6.821   6.274   6.674
39251SOL    HW166592   6.842   6.301   6.768
39251SOL    HW266593   6.906   6.261   6.623
39252SOL     OW66594   0.219  11.595   1.420
39252SOL    HW166595   0.142  11.532   1.430
39252SOL    HW266596   0.296  11.562   1.473
39253SOL     OW66597   5.958  14.738   8.083
39253SOL    HW166598   5.859  14.756   8.081
39253SOL    HW266599   5.983  14.686   8.001
39254SOL     OW66600   9.264   5.214   7.982
39254SOL    HW166601   9.236   5.148   7.912
39254SOL    HW266602   9.358   5.243   7.964
39255SOL     OW66603  11.447  16.750   1.346
39255SOL    HW166604  11.422  16.810   1.422
39255SOL    HW266605  11.527  16.787   1.299
39256SOL     OW66606  13.839   2.214   1.021
39256SOL    HW166607  13.909   2.249   0.959
39256SOL    HW266608  13.816   2.285   1.089
39257SOL     OW66609   7.764   7.045   1.042
39257SOL    HW166610   7.693   6.993   1.089
39257SOL    HW266611   7.723   7.103   0.972
39258SOL     OW66612  10.188  13.354   1.553
39258SOL    HW166613  10.098  13.393   1.539
39258SOL    HW266614  10.255  13.427   1.568
39259SOL     OW66615   8.585  16.915   6.505
39259SOL    HW166616   8.544  16.845   6.446
39259SOL    HW266617   8.562   0.023   6.469
39260SOL     OW66618  10.875   6.933   1.426
39260SOL    HW166619  10.817   6.861   1.386
39260SOL    HW266620  10.917   6.898   1.510
39261SOL     OW66621  14.477  12.912   8.243
39261SOL    HW166622  14.498  12.879   8.335
39261SOL    HW266623  14.465  12.834   8.182
39262SOL     OW66624   3.939   9.492   0.791
39262SOL    HW166625   3.857   9.436   0.798
39262SOL    HW266626   3.921   9.582   0.831
39263SOL     OW66627  14.272  13.136   8.304
39263SOL    HW166628  14.298  13.231   8.320
39263SOL    HW266629  14.353  13.078   8.304
39264SOL     OW66630  12.528  11.247   7.900
39264SOL    HW166631  12.587  11.194   7.960
39264SOL    HW266632  12.464  11.301   7.955
39265SOL     OW66633  12.943  15.403   7.200
39265SOL    HW166634  12.987  15.414   7.111
39265SOL    HW266635  12.854  15.358   7.188
39266SOL     OW66636   6.263  11.935   8.219
39266SOL    HW166637   6.246  11.905   8.125
39266SOL    HW266638   6.219  12.024   8.234
39267SOL     OW66639   7.639   3.137   7.683
39267SOL    HW166640   7.628   3.226   7.728
39267SOL    HW266641   7.707   3.083   7.734
39268SOL     OW66642   9.053  14.561   7.178
39268SOL    HW166643   9.092  14.478   7.217
39268SOL    HW266644   8.995  14.536   7.100
39269SOL     OW66645  14.848   8.076   0.463
39269SOL    HW166646  14.836   8.077   0.562
39269SOL    HW266647  14.942   8.050   0.441
39270SOL     OW66648   7.889  16.435   1.938
39270SOL    HW166649   7.831  16.360   1.972
39270SOL    HW266650   7.954  16.461   2.009
39271SOL     OW66651   5.713   2.411   6.951
39271SOL    HW166652   5.618   2.413   6.918
39271SOL    HW266653   5.718   2.352   7.032
39272SOL     OW66654  14.900  13.354   1.376
39272SOL    HW166655  14.943  13.421   1.438
39272SOL    HW266656  14.957  13.272   1.372
39273SOL     OW66657  10.459  13.516   6.971
39273SOL    HW166658  10.548  13.507   6.926
39273SOL    HW266659  10.465  13.480   7.064
39274SOL     OW66660  10.050   2.023   7.603
39274SOL    HW166661  10.145   1.990   7.598
39274SOL    HW266662  10.011   1.999   7.692
39275SOL     OW66663  15.337  13.206   7.560
39275SOL    HW166664  15.420  13.212   7.614
39275SOL    HW266665  15.342  13.125   7.501
39276SOL     OW66666  12.267   1.741   1.270
39276SOL    HW166667  12.335   1.767   1.338
39276SOL    HW266668  12.198   1.813   1.263
39277SOL     OW66669   0.035  16.223   7.458
39277SOL    HW166670   0.134  16.226   7.448
39277SOL    HW266671   0.008  16.135   7.497
39278SOL     OW66672  15.220   7.798   7.226
39278SOL    HW166673  15.137   7.824   7.177
39278SOL    HW266674  15.211   7.822   7.322
39279SOL     OW66675   6.538   9.175   6.276
39279SOL    HW166676   6.541   9.094   6.218
39279SOL    HW266677   6.459   9.230   6.252
39280SOL     OW66678   2.842   7.602   7.952
39280SOL    HW166679   2.884   7.520   7.991
39280SOL    HW266680   2.754   7.619   7.996
39281SOL     OW66681  11.288  11.966   0.352
39281SOL    HW166682  11.312  12.033   0.282
39281SOL    HW266683  11.199  11.925   0.329
39282SOL     OW66684   8.780  13.132   6.868
39282SOL    HW166685   8.774  13.189   6.786
39282SOL    HW266686   8.787  13.035   6.841
39283SOL     OW66687   8.064   5.662   6.038
39283SOL    HW166688   8.108   5.738   5.989
39283SOL    HW266689   8.028   5.596   5.973
39284SOL     OW66690   1.721   8.802   7.828
39284SOL    HW166691   1.707   8.834   7.734
39284SOL    HW266692   1.643   8.746   7.856
39285SOL     OW66693   0.045   7.619   0.497
39285SOL    HW166694  16.941   7.634   0.450
39285SOL    HW266695   0.060   7.521   0.509
39286SOL     OW66696   6.937   4.330   8.201
39286SOL    HW166697   7.017   4.390   8.205
39286SOL    HW266698   6.935   4.273   8.282
39287SOL     OW66699   0.641  14.775   7.282
39287SOL    HW166700   0.550  14.751   7.317
39287SOL    HW266701   0.646  14.873   7.266
39288SOL     OW66702   3.869   3.502   0.529
39288SOL    HW166703   3.916   3.552   0.456
39288SOL    HW266704   3.869   3.558   0.612
39289SOL     OW66705   3.948  13.296   7.312
39289SOL    HW166706   3.944  13.396   7.325
39289SOL    HW266707   3.891  13.252   7.381
39290SOL     OW66708   4.978  12.051   1.210
39290SOL    HW166709   5.047  12.061   1.282
39290SOL    HW266710   4.962  11.954   1.193
39291SOL     OW66711  15.820   7.556   8.249
39291SOL    HW166712  15.859   7.509   8.328
39291SOL    HW266713  15.835   7.501   8.166
39292SOL     OW66714  15.149  15.496   7.553
39292SOL    HW166715  15.233  15.447   7.576
39292SOL    HW266716  15.159  15.592   7.578
39293SOL     OW66717  12.094   4.171   6.473
39293SOL    HW166718  12.096   4.091   6.533
39293SOL    HW266719  12.111   4.142   6.379
39294SOL     OW66720  11.939   9.595   1.337
39294SOL    HW166721  12.001   9.520   1.316
39294SOL    HW266722  11.845   9.567   1.318
39295SOL     OW66723  11.287  16.972   6.913
39295SOL    HW166724  11.300   0.066   6.974
39295SOL    HW266725  11.299  16.887   6.964
39296SOL     OW66726   1.067  12.340   8.117
39296SOL    HW166727   1.078  12.406   8.042
39296SOL    HW266728   1.008  12.265   8.088
39297SOL     OW66729   1.291  15.969   6.724
39297SOL    HW166730   1.242  15.977   6.637
39297SOL    HW266731   1.389  15.979   6.707
39298SOL     OW66732   8.021  13.043   0.871
39298SOL    HW166733   7.961  13.075   0.945
39298SOL    HW266734   7.987  12.955   0.837
39299SOL     OW66735  11.118   0.081   8.286
39299SOL    HW166736  11.096   0.030   8.203
39299SOL    HW266737  11.211   0.059   8.315
39300SOL     OW66738   8.044   5.666   1.513
39300SOL    HW166739   7.990   5.714   1.444
39300SOL    HW266740   7.986   5.647   1.593
39301SOL     OW66741   7.726  16.411   5.733
39301SOL    HW166742   7.758  16.347   5.803
39301SOL    HW266743   7.722  16.503   5.771
39302SOL     OW66744  12.453   2.734   6.490
39302SOL    HW166745  12.354   2.741   6.473
39302SOL    HW266746  12.490   2.656   6.439
39303SOL     OW66747   8.934   5.107   7.457
39303SOL    HW166748   8.837   5.091   7.438
39303SOL    HW266749   8.990   5.053   7.394
39304SOL     OW66750  15.622   6.567   7.106
39304SOL    HW166751  15.544   6.541   7.049
39304SOL    HW266752  15.659   6.654   7.074
39305SOL     OW66753   1.736   3.536   1.042
39305SOL    HW166754   1.644   3.502   1.025
39305SOL    HW266755   1.778   3.483   1.117
39306SOL     OW66756   8.131  16.132   6.143
39306SOL    HW166757   8.104  16.167   6.054
39306SOL    HW266758   8.124  16.032   6.143
39307SOL     OW66759   8.888   3.353   1.301
39307SOL    HW166760   8.807   3.376   1.354
39307SOL    HW266761   8.865   3.283   1.233
39308SOL     OW66762  14.027   0.723   0.803
39308SOL    HW166763  14.044   0.630   0.835
39308SOL    HW266764  14.091   0.745   0.729
39309SOL     OW66765   3.906  13.730   7.088
39309SOL    HW166766   3.904  13.802   7.019
39309SOL    HW266767   3.968  13.657   7.059
39310SOL     OW66768   6.786   3.035   8.370
39310SOL    HW166769   6.737   2.996   8.449
39310SOL    HW266770   6.759   2.987   8.287
39311SOL     OW66771   7.725   6.429   6.837
39311SOL    HW166772   7.758   6.352   6.783
39311SOL    HW266773   7.626   6.422   6.848
39312SOL     OW66774  13.737  13.767   8.131
39312SOL    HW166775  13.672  13.694   8.152
39312SOL    HW266776  13.721  13.844   8.194
39313SOL     OW66777  16.552   3.999   7.281
39313SOL    HW166778  16.512   4.018   7.191
39313SOL    HW266779  16.640   3.953   7.269
39314SOL     OW66780   0.991   8.019   0.842
39314SOL    HW166781   0.938   8.076   0.904
39314SOL    HW266782   1.065   8.073   0.801
39315SOL     OW66783  16.836   7.582   6.653
39315SOL    HW166784  16.793   7.631   6.730
39315SOL    HW266785  16.861   7.647   6.582
39316SOL     OW66786   0.588   1.141   0.999
39316SOL    HW166787   0.611   1.072   0.930
39316SOL    HW266788   0.488   1.145   1.009
39317SOL     OW66789  12.507   7.698   6.808
39317SOL    HW166790  12.548   7.622   6.757
39317SOL    HW266791  12.502   7.779   6.749
39318SOL     OW66792   0.791  13.546   7.176
39318SOL    HW166793   0.751  13.460   7.206
39318SOL    HW266794   0.849  13.530   7.096
39319SOL     OW66795   7.774   0.562   6.817
39319SOL    HW166796   7.778   0.470   6.779
39319SOL    HW266797   7.747   0.626   6.745
39320SOL     OW66798  16.650  11.035   1.309
39320SOL    HW166799  16.588  10.957   1.318
39320SOL    HW266800  16.641  11.093   1.389
39321SOL     OW66801   6.889   7.954   2.421
39321SOL    HW166802   6.935   8.040   2.439
39321SOL    HW266803   6.852   7.917   2.506
39322SOL     OW66804   3.338   2.372   0.067
39322SOL    HW166805   3.326   2.283   0.024
39322SOL    HW266806   3.249   2.408   0.095
39323SOL     OW66807   5.102  12.915   7.975
39323SOL    HW166808   5.036  12.990   7.972
39323SOL    HW266809   5.127  12.895   8.070
39324SOL     OW66810  13.093   0.405   0.778
39324SOL    HW166811  13.129   0.442   0.692
39324SOL    HW266812  13.071   0.308   0.765
39325SOL     OW66813   4.603   5.258   1.377
39325SOL    HW166814   4.669   5.331   1.361
39325SOL    HW266815   4.521   5.296   1.419
39326SOL     OW66816   4.786   3.164   8.080
39326SOL    HW166817   4.786   3.257   8.116
39326SOL    HW266818   4.878   3.126   8.085
39327SOL     OW66819   7.644  11.714   0.018
39327SOL    HW166820   7.573  11.700   8.404
39327SOL    HW266821   7.731  11.676   8.439
39328SOL     OW66822  10.052   8.439   6.661
39328SOL    HW166823  10.039   8.341   6.655
39328SOL    HW266824  10.123   8.468   6.597
39329SOL     OW66825  11.142  14.902   2.391
39329SOL    HW166826  11.240  14.903   2.368
39329SOL    HW266827  11.107  14.996   2.393
39330SOL     OW66828   6.996   6.880   7.654
39330SOL    HW166829   7.024   6.792   7.693
39330SOL    HW266830   7.076   6.930   7.622
39331SOL     OW66831   2.870  14.350   1.173
39331SOL    HW166832   2.944  14.361   1.106
39331SOL    HW266833   2.790  14.402   1.142
39332SOL     OW66834   4.188   9.854   1.563
39332SOL    HW166835   4.262   9.850   1.496
39332SOL    HW266836   4.226   9.853   1.655
39333SOL     OW66837  10.747   6.736   0.244
39333SOL    HW166838  10.701   6.806   0.190
39333SOL    HW266839  10.722   6.746   0.340
39334SOL     OW66840   7.490   5.194   8.327
39334SOL    HW166841   7.557   5.158   8.393
39334SOL    HW266842   7.539   5.241   8.253
39335SOL     OW66843  11.758  13.206   8.395
39335SOL    HW166844  11.797  13.120   8.364
39335SOL    HW266845  11.703  13.191   0.023
39336SOL     OW66846   7.181   5.981   8.446
39336SOL    HW166847   7.262   5.950   8.396
39336SOL    HW266848   7.210   6.023   0.078
39337SOL     OW66849  11.284  11.381   7.237
39337SOL    HW166850  11.337  11.314   7.288
39337SOL    HW266851  11.229  11.436   7.301
39338SOL     OW66852   0.068   3.708   7.499
39338SOL    HW166853   0.012   3.789   7.519
39338SOL    HW266854   0.046   3.635   7.564
39339SOL     OW66855  10.041   6.432   7.075
39339SOL    HW166856  10.113   6.483   7.028
39339SOL    HW266857  10.070   6.413   7.169
39340SOL     OW66858  11.997  12.062   7.656
39340SOL    HW166859  11.935  12.140   7.662
39340SOL    HW266860  12.080  12.090   7.608
39341SOL     OW66861  15.039   3.709   7.223
39341SOL    HW166862  15.132   3.683   7.249
39341SOL    HW266863  14.977   3.632   7.240
39342SOL     OW66864   6.508   4.296   0.420
39342SOL    HW166865   6.491   4.312   0.323
39342SOL    HW266866   6.434   4.242   0.459
39343SOL     OW66867   3.424   6.983   5.935
39343SOL    HW166868   3.346   7.044   5.943
39343SOL    HW266869   3.402   6.894   5.975
39344SOL     OW66870   2.741  15.103   0.979
39344SOL    HW166871   2.735  15.056   0.890
39344SOL    HW266872   2.699  15.046   1.049
39345SOL     OW66873  15.503  16.769   8.134
39345SOL    HW166874  15.434  16.819   8.083
39345SOL    HW266875  15.475  16.761   8.230
39346SOL     OW66876  11.879   1.561   0.961
39346SOL    HW166877  11.820   1.485   0.934
39346SOL    HW266878  11.971   1.546   0.925
39347SOL     OW66879   1.953   6.030   7.669
39347SOL    HW166880   1.922   6.066   7.757
39347SOL    HW266881   2.053   6.036   7.664
39348SOL     OW66882   9.940   4.912   6.911
39348SOL    HW166883   9.988   4.940   6.994
39348SOL    HW266884   9.881   4.833   6.931
39349SOL     OW66885   8.956   7.072   6.726
39349SOL    HW166886   9.055   7.059   6.735
39349SOL    HW266887   8.932   7.069   6.629
39350SOL     OW66888   1.155  15.804   7.234
39350SOL    HW166889   1.167  15.704   7.239
39350SOL    HW266890   1.136  15.840   7.325
39351SOL     OW66891  12.108  12.829   7.660
39351SOL    HW166892  12.144  12.768   7.730
39351SOL    HW266893  12.124  12.924   7.686
39352SOL     OW66894   9.589  15.939   8.227
39352SOL    HW166895   9.562  15.846   8.252
39352SOL    HW266896   9.670  15.936   8.168
39353SOL     OW66897   2.417  13.480   1.911
39353SOL    HW166898   2.335  13.534   1.930
39353SOL    HW266899   2.391  13.384   1.902
39354SOL     OW66900   9.694   5.848   0.932
39354SOL    HW166901   9.601   5.822   0.909
39354SOL    HW266902   9.701   5.868   1.030
39355SOL     OW66903   1.192  12.839   1.032
39355SOL    HW166904   1.197  12.937   1.013
39355SOL    HW266905   1.117  12.820   1.094
39356SOL     OW66906  13.460   4.098   6.459
39356SOL    HW166907  13.372   4.129   6.425
39356SOL    HW266908  13.459   3.998   6.468
39357SOL     OW66909   7.724   8.981   1.791
39357SOL    HW166910   7.815   8.963   1.829
39357SOL    HW266911   7.713   8.930   1.706
39358SOL     OW66912  13.776   5.138   7.213
39358SOL    HW166913  13.684   5.143   7.254
39358SOL    HW266914  13.827   5.221   7.237
39359SOL     OW66915   0.886   2.306   0.165
39359SOL    HW166916   0.806   2.257   0.199
39359SOL    HW266917   0.892   2.395   0.210
39360SOL     OW66918   3.021   5.875   7.660
39360SOL    HW166919   2.929   5.836   7.652
39360SOL    HW266920   3.064   5.842   7.743
39361SOL     OW66921   2.682   6.323   6.280
39361SOL    HW166922   2.632   6.396   6.234
39361SOL    HW266923   2.754   6.289   6.220
39362SOL     OW66924   0.460   2.156   1.909
39362SOL    HW166925   0.429   2.249   1.890
39362SOL    HW266926   0.409   2.120   1.987
39363SOL     OW66927  15.025  16.389   1.511
39363SOL    HW166928  15.066  16.373   1.601
39363SOL    HW266929  15.022  16.303   1.460
39364SOL     OW66930  11.278  14.407   1.808
39364SOL    HW166931  11.288  14.498   1.847
39364SOL    HW266932  11.368  14.362   1.806
39365SOL     OW66933   4.179   4.221   7.499
39365SOL    HW166934   4.217   4.179   7.582
39365SOL    HW266935   4.123   4.155   7.451
39366SOL     OW66936   6.665   5.963   7.999
39366SOL    HW166937   6.687   6.021   8.077
39366SOL    HW266938   6.573   5.985   7.966
39367SOL     OW66939  15.686  14.402   1.570
39367SOL    HW166940  15.752  14.343   1.524
39367SOL    HW266941  15.595  14.360   1.566
39368SOL     OW66942  15.503   6.202   7.255
39368SOL    HW166943  15.521   6.193   7.353
39368SOL    HW266944  15.415   6.248   7.242
39369SOL     OW66945  11.980   7.216   0.306
39369SOL    HW166946  12.026   7.245   0.389
39369SOL    HW266947  12.007   7.276   0.230
39370SOL     OW66948  14.701   5.497   1.385
39370SOL    HW166949  14.648   5.422   1.345
39370SOL    HW266950  14.657   5.527   1.470
39371SOL     OW66951  13.182   3.983   1.215
39371SOL    HW166952  13.159   3.942   1.303
39371SOL    HW266953  13.277   3.962   1.192
39372SOL     OW66954  13.865   5.291   7.556
39372SOL    HW166955  13.878   5.324   7.462
39372SOL    HW266956  13.874   5.368   7.619
39373SOL     OW66957  15.436   9.019   7.545
39373SOL    HW166958  15.515   9.003   7.486
39373SOL    HW266959  15.443   9.109   7.587
39374SOL     OW66960   6.476   2.129   1.692
39374SOL    HW166961   6.446   2.203   1.752
39374SOL    HW266962   6.396   2.077   1.661
39375SOL     OW66963  15.500  10.883   1.857
39375SOL    HW166964  15.470  10.824   1.932
39375SOL    HW266965  15.445  10.967   1.857
39376SOL     OW66966   0.557   0.784   8.077
39376SOL    HW166967   0.637   0.750   8.125
39376SOL    HW266968   0.583   0.814   7.985
39377SOL     OW66969   8.380  10.038   1.097
39377SOL    HW166970   8.312  10.042   1.024
39377SOL    HW266971   8.462   9.992   1.064
39378SOL     OW66972   7.705   0.764   6.634
39378SOL    HW166973   7.662   0.832   6.693
39378SOL    HW266974   7.670   0.774   6.541
39379SOL     OW66975   5.685  16.095   6.936
39379SOL    HW166976   5.727  16.071   6.848
39379SOL    HW266977   5.640  16.014   6.974
39380SOL     OW66978   2.875   1.386   7.140
39380SOL    HW166979   2.938   1.442   7.195
39380SOL    HW266980   2.882   1.415   7.044
39381SOL     OW66981   1.083   1.096   0.444
39381SOL    HW166982   1.163   1.155   0.435
39381SOL    HW266983   1.048   1.101   0.538
39382SOL     OW66984   3.927  14.099   0.182
39382SOL    HW166985   3.880  14.160   0.245
39382SOL    HW266986   3.944  14.147   0.096
39383SOL     OW66987   1.763  16.828   6.691
39383SOL    HW166988   1.785  16.922   6.662
39383SOL    HW266989   1.729  16.777   6.612
39384SOL     OW66990   4.759  12.378   0.942
39384SOL    HW166991   4.772  12.336   1.032
39384SOL    HW266992   4.848  12.400   0.902
39385SOL     OW66993   6.865   9.242   0.938
39385SOL    HW166994   6.772   9.207   0.922
39385SOL    HW266995   6.860   9.323   0.996
39386SOL     OW66996   9.765  13.952   7.408
39386SOL    HW166997   9.758  14.051   7.390
39386SOL    HW266998   9.675  13.909   7.393
39387SOL     OW66999  10.764   6.177   6.844
39387SOL    HW167000  10.697   6.251   6.852
39387SOL    HW267001  10.739   6.119   6.766
39388SOL     OW67002   2.480  11.151   7.730
39388SOL    HW167003   2.450  11.236   7.687
39388SOL    HW267004   2.419  11.077   7.703
39389SOL     OW67005  15.373   8.236   0.312
39389SOL    HW167006  15.430   8.172   0.365
39389SOL    HW267007  15.432   8.303   0.267
39390SOL     OW67008   9.992   4.652   7.872
39390SOL    HW167009  10.076   4.612   7.837
39390SOL    HW267010   9.941   4.692   7.796
39391SOL     OW67011  15.374   1.381   7.381
39391SOL    HW167012  15.455   1.435   7.360
39391SOL    HW267013  15.365   1.308   7.313
39392SOL     OW67014   7.636   5.038   8.076
39392SOL    HW167015   7.614   5.136   8.081
39392SOL    HW267016   7.578   4.994   8.009
39393SOL     OW67017   8.688  16.641   1.132
39393SOL    HW167018   8.700  16.740   1.134
39393SOL    HW267019   8.671  16.607   1.225
39394SOL     OW67020   3.394   3.073   1.980
39394SOL    HW167021   3.431   3.166   1.971
39394SOL    HW267022   3.337   3.069   2.062
39395SOL     OW67023   3.114  13.927   7.872
39395SOL    HW167024   3.046  13.996   7.847
39395SOL    HW267025   3.201  13.973   7.892
39396SOL     OW67026  15.101   4.909   7.840
39396SOL    HW167027  15.123   4.904   7.742
39396SOL    HW267028  15.013   4.865   7.856
39397SOL     OW67029  11.898   3.274   0.921
39397SOL    HW167030  11.807   3.233   0.914
39397SOL    HW267031  11.967   3.202   0.918
39398SOL     OW67032  12.141  15.792   7.322
39398SOL    HW167033  12.194  15.740   7.388
39398SOL    HW267034  12.133  15.741   7.236
39399SOL     OW67035   6.594  10.870   0.454
39399SOL    HW167036   6.633  10.902   0.540
39399SOL    HW267037   6.647  10.792   0.421
39400SOL     OW67038   3.906   7.239   8.443
39400SOL    HW167039   3.995   7.269   0.022
39400SOL    HW267040   3.879   7.155   0.035
39401SOL     OW67041   6.786   9.986   6.531
39401SOL    HW167042   6.795  10.086   6.534
39401SOL    HW267043   6.877   9.945   6.536
39402SOL     OW67044   1.190   9.359   0.364
39402SOL    HW167045   1.116   9.415   0.328
39402SOL    HW267046   1.248   9.328   0.289
39403SOL     OW67047   6.805   8.852   7.266
39403SOL    HW167048   6.779   8.769   7.216
39403SOL    HW267049   6.811   8.929   7.202
39404SOL     OW67050  13.984   7.623   0.575
39404SOL    HW167051  14.075   7.647   0.542
39404SOL    HW267052  13.989   7.541   0.632
39405SOL     OW67053   3.326  14.428   1.385
39405SOL    HW167054   3.271  14.478   1.451
39405SOL    HW267055   3.396  14.376   1.433
39406SOL     OW67056  14.914  13.960   1.514
39406SOL    HW167057  14.887  13.873   1.556
39406SOL    HW267058  14.919  13.948   1.415
39407SOL     OW67059  16.043   8.992   0.484
39407SOL    HW167060  15.947   9.015   0.470
39407SOL    HW267061  16.066   8.909   0.434
39408SOL     OW67062   7.156  10.877   2.444
39408SOL    HW167063   7.225  10.936   2.487
39408SOL    HW267064   7.065  10.905   2.474
39409SOL     OW67065  15.258   8.792   0.382
39409SOL    HW167066  15.195   8.868   0.371
39409SOL    HW267067  15.255   8.758   0.476
39410SOL     OW67068   1.971   5.048   0.823
39410SOL    HW167069   1.927   5.128   0.864
39410SOL    HW267070   2.035   5.078   0.753
39411SOL     OW67071   6.611   0.100   1.823
39411SOL    HW167072   6.694   0.069   1.868
39411SOL    HW267073   6.560   0.161   1.885
39412SOL     OW67074  14.280   4.363   0.367
39412SOL    HW167075  14.353   4.366   0.299
39412SOL    HW267076  14.300   4.291   0.434
39413SOL     OW67077  14.263   9.818   1.611
39413SOL    HW167078  14.191   9.758   1.646
39413SOL    HW267079  14.267   9.901   1.666
39414SOL     OW67080   7.705   7.627   7.376
39414SOL    HW167081   7.659   7.585   7.455
39414SOL    HW267082   7.651   7.611   7.294
39415SOL     OW67083   4.292   7.349   1.152
39415SOL    HW167084   4.304   7.363   1.250
39415SOL    HW267085   4.215   7.286   1.137
39416SOL     OW67086   0.369  10.133   0.186
39416SOL    HW167087   0.382  10.141   0.087
39416SOL    HW267088   0.414  10.209   0.232
39417SOL     OW67089   4.882   0.446   8.154
39417SOL    HW167090   4.826   0.499   8.218
39417SOL    HW267091   4.901   0.356   8.193
39418SOL     OW67092  11.858  13.966   0.795
39418SOL    HW167093  11.890  13.894   0.733
39418SOL    HW267094  11.890  14.055   0.760
39419SOL     OW67095   4.134  11.761   8.201
39419SOL    HW167096   4.054  11.747   8.259
39419SOL    HW267097   4.134  11.855   8.167
39420SOL     OW67098   0.449  11.496   1.001
39420SOL    HW167099   0.416  11.499   0.907
39420SOL    HW267100   0.543  11.462   1.003
39421SOL     OW67101   4.211   9.445   6.995
39421SOL    HW167102   4.266   9.526   6.976
39421SOL    HW267103   4.116   9.472   7.011
39422SOL     OW67104   5.652  14.906   1.186
39422SOL    HW167105   5.567  14.856   1.175
39422SOL    HW267106   5.669  14.921   1.284
39423SOL     OW67107   4.637  16.160   2.000
39423SOL    HW167108   4.722  16.182   2.047
39423SOL    HW267109   4.611  16.237   1.941
39424SOL     OW67110   7.238  15.546   8.245
39424SOL    HW167111   7.226  15.631   8.193
39424SOL    HW267112   7.323  15.551   8.297
39425SOL     OW67113   7.268   8.154   1.332
39425SOL    HW167114   7.222   8.238   1.305
39425SOL    HW267115   7.330   8.172   1.408
39426SOL     OW67116  12.578   2.120   0.647
39426SOL    HW167117  12.637   2.073   0.581
39426SOL    HW267118  12.614   2.107   0.739
39427SOL     OW67119   9.735   6.514   7.418
39427SOL    HW167120   9.733   6.418   7.445
39427SOL    HW267121   9.749   6.571   7.499
39428SOL     OW67122  11.923   9.949   6.933
39428SOL    HW167123  11.927   9.925   6.836
39428SOL    HW267124  11.952   9.870   6.988
39429SOL     OW67125  11.053   4.904   0.363
39429SOL    HW167126  10.999   4.832   0.407
39429SOL    HW267127  11.145   4.906   0.403
39430SOL     OW67128   6.680  12.052   0.677
39430SOL    HW167129   6.688  12.128   0.742
39430SOL    HW267130   6.751  12.060   0.607
39431SOL     OW67131   0.136   0.789   7.401
39431SOL    HW167132   0.113   0.692   7.409
39431SOL    HW267133   0.165   0.824   7.490
39432SOL     OW67134  12.162  10.235   1.907
39432SOL    HW167135  12.135  10.265   1.816
39432SOL    HW267136  12.125  10.143   1.924
39433SOL     OW67137   9.223   7.019   6.741
39433SOL    HW167138   9.277   6.942   6.774
39433SOL    HW267139   9.225   7.020   6.641
39434SOL     OW67140  14.343  14.478   7.108
39434SOL    HW167141  14.330  14.381   7.129
39434SOL    HW267142  14.398  14.520   7.180
39435SOL     OW67143  10.428  11.731   0.988
39435SOL    HW167144  10.384  11.817   1.011
39435SOL    HW267145  10.428  11.671   1.068
39436SOL     OW67146  13.658  10.315   1.370
39436SOL    HW167147  13.666  10.239   1.435
39436SOL    HW267148  13.603  10.388   1.411
39437SOL     OW67149   7.279  16.960   0.317
39437SOL    HW167150   7.329  16.875   0.302
39437SOL    HW267151   7.248   0.013   0.229
39438SOL     OW67152   8.743  10.263   8.360
39438SOL    HW167153   8.770  10.173   8.324
39438SOL    HW267154   8.737  10.328   8.284
39439SOL     OW67155   4.549  13.125   1.657
39439SOL    HW167156   4.570  13.101   1.562
39439SOL    HW267157   4.556  13.043   1.714
39440SOL     OW67158   1.259  12.119   1.651
39440SOL    HW167159   1.172  12.137   1.607
39440SOL    HW267160   1.334  12.140   1.588
39441SOL     OW67161   5.628  16.204   8.148
39441SOL    HW167162   5.661  16.130   8.090
39441SOL    HW267163   5.620  16.171   8.242
39442SOL     OW67164   7.069   8.702   7.630
39442SOL    HW167165   7.063   8.759   7.548
39442SOL    HW267166   7.098   8.609   7.604
39443SOL     OW67167  13.671   6.925   0.884
39443SOL    HW167168  13.635   6.833   0.868
39443SOL    HW267169  13.623   6.967   0.960
39444SOL     OW67170   5.993   4.764   1.633
39444SOL    HW167171   6.050   4.703   1.688
39444SOL    HW267172   5.896   4.742   1.649
39445SOL     OW67173  14.645  10.021   0.083
39445SOL    HW167174  14.657   9.970   8.452
39445SOL    HW267175  14.683  10.113   0.072
39446SOL     OW67176  14.719  10.689   0.124
39446SOL    HW167177  14.742  10.701   0.028
39446SOL    HW267178  14.632  10.641   0.132
39447SOL     OW67179   1.983   0.934   0.502
39447SOL    HW167180   2.014   0.998   0.432
39447SOL    HW267181   1.922   0.982   0.566
39448SOL     OW67182  11.183  15.014   6.813
39448SOL    HW167183  11.176  15.084   6.884
39448SOL    HW267184  11.274  15.017   6.773
39449SOL     OW67185   7.588   8.199   1.293
39449SOL    HW167186   7.539   8.199   1.380
39449SOL    HW267187   7.608   8.105   1.266
39450SOL     OW67188   3.212  11.242   2.256
39450SOL    HW167189   3.206  11.320   2.318
39450SOL    HW267190   3.120  11.215   2.226
39451SOL     OW67191   0.366  15.711   0.431
39451SOL    HW167192   0.348  15.807   0.452
39451SOL    HW267193   0.464  15.695   0.425
39452SOL     OW67194   7.662   3.384   7.815
39452SOL    HW167195   7.669   3.448   7.892
39452SOL    HW267196   7.752   3.374   7.772
39453SOL     OW67197   3.225  14.036   2.262
39453SOL    HW167198   3.201  13.949   2.306
39453SOL    HW267199   3.155  14.104   2.283
39454SOL     OW67200   4.336   0.591   2.138
39454SOL    HW167201   4.308   0.506   2.182
39454SOL    HW267202   4.341   0.664   2.208
39455SOL     OW67203   3.043  16.149   7.920
39455SOL    HW167204   3.090  16.206   7.988
39455SOL    HW267205   3.085  16.164   7.830
39456SOL     OW67206  15.416   5.706   5.584
39456SOL    HW167207  15.422   5.651   5.501
39456SOL    HW267208  15.507   5.730   5.615
39457SOL     OW67209   2.994   9.219   0.685
39457SOL    HW167210   2.948   9.303   0.714
39457SOL    HW267211   2.957   9.190   0.596
39458SOL     OW67212   5.130  13.725   1.863
39458SOL    HW167213   5.155  13.729   1.959
39458SOL    HW267214   5.164  13.640   1.822
39459SOL     OW67215   2.885   8.475   0.106
39459SOL    HW167216   2.905   8.572   0.119
39459SOL    HW267217   2.930   8.422   0.178
39460SOL     OW67218   6.760   5.942   6.709
39460SOL    HW167219   6.690   6.000   6.667
39460SOL    HW267220   6.785   5.980   6.798
39461SOL     OW67221  10.676   4.163   1.354
39461SOL    HW167222  10.650   4.251   1.313
39461SOL    HW267223  10.776   4.159   1.364
39462SOL     OW67224  10.661   8.677   1.830
39462SOL    HW167225  10.733   8.673   1.899
39462SOL    HW267226  10.586   8.735   1.863
39463SOL     OW67227   6.867   9.568   1.348
39463SOL    HW167228   6.851   9.483   1.399
39463SOL    HW267229   6.961   9.599   1.364
39464SOL     OW67230  13.907   2.963   6.030
39464SOL    HW167231  13.873   3.022   5.957
39464SOL    HW267232  13.985   2.910   5.997
39465SOL     OW67233  10.942   0.465   1.126
39465SOL    HW167234  10.989   0.521   1.194
39465SOL    HW267235  10.998   0.385   1.104
39466SOL     OW67236   5.324   0.194   7.099
39466SOL    HW167237   5.297   0.184   7.195
39466SOL    HW267238   5.341   0.103   7.060
39467SOL     OW67239  13.180   8.800   1.603
39467SOL    HW167240  13.244   8.723   1.598
39467SOL    HW267241  13.103   8.785   1.541
39468SOL     OW67242   0.175   9.171   8.155
39468SOL    HW167243   0.193   9.181   8.057
39468SOL    HW267244   0.084   9.207   8.175
39469SOL     OW67245  12.739   0.658   7.927
39469SOL    HW167246  12.820   0.650   7.986
39469SOL    HW267247  12.698   0.748   7.939
39470SOL     OW67248   6.123  11.876   1.209
39470SOL    HW167249   6.193  11.847   1.143
39470SOL    HW267250   6.033  11.849   1.177
39471SOL     OW67251  14.748   3.184   6.544
39471SOL    HW167252  14.823   3.149   6.601
39471SOL    HW267253  14.703   3.108   6.497
39472SOL     OW67254  13.927  16.180   1.142
39472SOL    HW167255  13.868  16.226   1.208
39472SOL    HW267256  14.023  16.196   1.165
39473SOL     OW67257   8.340  16.085   0.222
39473SOL    HW167258   8.305  16.000   0.260
39473SOL    HW267259   8.412  16.065   0.155
39474SOL     OW67260   5.742   0.355   0.172
39474SOL    HW167261   5.689   0.311   0.246
39474SOL    HW267262   5.729   0.303   0.088
39475SOL     OW67263   0.806   7.010   7.513
39475SOL    HW167264   0.888   7.023   7.458
39475SOL    HW267265   0.728   7.051   7.467
39476SOL     OW67266  13.382   1.625   7.825
39476SOL    HW167267  13.459   1.564   7.840
39476SOL    HW267268  13.359   1.627   7.728
39477SOL     OW67269   8.598   3.534   0.380
39477SOL    HW167270   8.548   3.450   0.359
39477SOL    HW267271   8.680   3.512   0.432
39478SOL     OW67272   3.617  10.219   7.683
39478SOL    HW167273   3.541  10.189   7.742
39478SOL    HW267274   3.683  10.270   7.738
39479SOL     OW67275   5.642  11.222   7.670
39479SOL    HW167276   5.694  11.256   7.592
39479SOL    HW267277   5.642  11.291   7.743
39480SOL     OW67278   1.320   8.708   0.604
39480SOL    HW167279   1.400   8.678   0.656
39480SOL    HW267280   1.331   8.805   0.580
39481SOL     OW67281   6.752   3.322   6.636
39481SOL    HW167282   6.765   3.352   6.731
39481SOL    HW267283   6.841   3.313   6.592
39482SOL     OW67284   0.302   5.693   6.005
39482SOL    HW167285   0.361   5.662   6.080
39482SOL    HW267286   0.251   5.774   6.033
39483SOL     OW67287   7.438   3.550   0.802
39483SOL    HW167288   7.504   3.624   0.813
39483SOL    HW267289   7.478   3.464   0.833
39484SOL     OW67290   4.692   5.825   7.543
39484SOL    HW167291   4.648   5.891   7.605
39484SOL    HW267292   4.766   5.779   7.591
39485SOL     OW67293   1.074   7.536   6.185
39485SOL    HW167294   1.030   7.551   6.097
39485SOL    HW267295   1.172   7.521   6.171
39486SOL     OW67296   3.000  11.787   2.127
39486SOL    HW167297   2.994  11.865   2.189
39486SOL    HW267298   3.085  11.792   2.075
39487SOL     OW67299   9.837  12.407   7.924
39487SOL    HW167300   9.904  12.369   7.861
39487SOL    HW267301   9.794  12.334   7.976
39488SOL     OW67302   1.651   8.817   0.178
39488SOL    HW167303   1.594   8.801   0.258
39488SOL    HW267304   1.605   8.881   0.116
39489SOL     OW67305  14.662   4.419   1.967
39489SOL    HW167306  14.598   4.403   2.042
39489SOL    HW267307  14.756   4.412   2.000
39490SOL     OW67308   3.496  15.039   1.363
39490SOL    HW167309   3.546  15.113   1.320
39490SOL    HW267310   3.561  14.970   1.396
39491SOL     OW67311  12.837  14.285   0.252
39491SOL    HW167312  12.772  14.318   0.184
39491SOL    HW267313  12.798  14.295   0.344
39492SOL     OW67314   7.907   9.593   6.843
39492SOL    HW167315   7.926   9.594   6.745
39492SOL    HW267316   7.810   9.610   6.860
39493SOL     OW67317   5.799  14.219   1.392
39493SOL    HW167318   5.876  14.261   1.440
39493SOL    HW267319   5.733  14.290   1.367
39494SOL     OW67320  10.775   6.756   0.534
39494SOL    HW167321  10.862   6.709   0.519
39494SOL    HW267322  10.736   6.727   0.622
39495SOL     OW67323   3.120   7.676   1.301
39495SOL    HW167324   3.066   7.760   1.299
39495SOL    HW267325   3.069   7.602   1.259
39496SOL     OW67326  15.979   4.754   7.811
39496SOL    HW167327  15.970   4.684   7.741
39496SOL    HW267328  15.907   4.823   7.799
39497SOL     OW67329   7.276  16.456   2.009
39497SOL    HW167330   7.349  16.520   2.033
39497SOL    HW267331   7.200  16.466   2.074
39498SOL     OW67332   3.803   7.733   1.361
39498SOL    HW167333   3.719   7.781   1.384
39498SOL    HW267334   3.783   7.660   1.296
39499SOL     OW67335   6.318   8.506   8.175
39499SOL    HW167336   6.251   8.495   8.102
39499SOL    HW267337   6.352   8.601   8.175
39500SOL     OW67338   6.071   9.093   8.213
39500SOL    HW167339   6.024   9.052   8.135
39500SOL    HW267340   6.056   9.038   8.295
39501SOL     OW67341   2.030  12.599   2.063
39501SOL    HW167342   2.088  12.525   2.030
39501SOL    HW267343   1.954  12.561   2.117
39502SOL     OW67344   9.898  13.081   1.245
39502SOL    HW167345   9.997  13.085   1.254
39502SOL    HW267346   9.872  13.099   1.150
39503SOL     OW67347  10.824  13.540   7.842
39503SOL    HW167348  10.726  13.519   7.839
39503SOL    HW267349  10.839  13.632   7.806
39504SOL     OW67350   1.523   8.586   6.928
39504SOL    HW167351   1.469   8.667   6.905
39504SOL    HW267352   1.478   8.504   6.891
39505SOL     OW67353  11.721   9.512   6.774
39505SOL    HW167354  11.731   9.585   6.707
39505SOL    HW267355  11.653   9.446   6.743
39506SOL     OW67356   3.798   3.811   1.456
39506SOL    HW167357   3.850   3.896   1.450
39506SOL    HW267358   3.709   3.822   1.411
39507SOL     OW67359   1.566  16.081   7.144
39507SOL    HW167360   1.471  16.063   7.118
39507SOL    HW267361   1.599  16.161   7.095
39508SOL     OW67362  10.702  14.566   7.146
39508SOL    HW167363  10.665  14.616   7.224
39508SOL    HW267364  10.730  14.630   7.075
39509SOL     OW67365   0.071   2.045   7.466
39509SOL    HW167366   0.155   2.022   7.418
39509SOL    HW267367   0.075   2.009   7.560
39510SOL     OW67368  16.140   4.349   6.675
39510SOL    HW167369  16.084   4.430   6.688
39510SOL    HW267370  16.128   4.286   6.752
39511SOL     OW67371  15.673   0.895   2.056
39511SOL    HW167372  15.667   0.988   2.092
39511SOL    HW267373  15.712   0.834   2.124
39512SOL     OW67374   8.904   1.829   1.224
39512SOL    HW167375   8.975   1.802   1.288
39512SOL    HW267376   8.920   1.923   1.195
39513SOL     OW67377  13.038   3.596   6.960
39513SOL    HW167378  13.057   3.498   6.955
39513SOL    HW267379  12.939   3.611   6.964
39514SOL     OW67380   0.436   2.190   6.609
39514SOL    HW167381   0.490   2.107   6.606
39514SOL    HW267382   0.490   2.267   6.574
39515SOL     OW67383  14.520  12.501   6.660
39515SOL    HW167384  14.612  12.471   6.636
39515SOL    HW267385  14.454  12.455   6.601
39516SOL     OW67386   8.540   7.352   6.388
39516SOL    HW167387   8.509   7.419   6.455
39516SOL    HW267388   8.635   7.327   6.407
39517SOL     OW67389   7.193  13.605   7.906
39517SOL    HW167390   7.103  13.562   7.916
39517SOL    HW267391   7.253  13.545   7.854
39518SOL     OW67392   7.806   9.268   6.915
39518SOL    HW167393   7.874   9.319   6.968
39518SOL    HW267394   7.777   9.187   6.966
39519SOL     OW67395  15.584  15.095   0.402
39519SOL    HW167396  15.570  15.129   0.495
39519SOL    HW267397  15.584  14.995   0.403
39520SOL     OW67398  14.981  15.286   8.249
39520SOL    HW167399  14.998  15.214   8.316
39520SOL    HW267400  14.886  15.278   8.216
39521SOL     OW67401   4.547   6.331   1.693
39521SOL    HW167402   4.514   6.272   1.619
39521SOL    HW267403   4.487   6.322   1.772
39522SOL     OW67404   8.090  16.044   6.847
39522SOL    HW167405   8.180  16.056   6.806
39522SOL    HW267406   8.043  15.968   6.802
39523SOL     OW67407   7.442   7.473   0.398
39523SOL    HW167408   7.431   7.400   0.330
39523SOL    HW267409   7.385   7.452   0.478
39524SOL     OW67410   5.283  16.313   8.074
39524SOL    HW167411   5.273  16.215   8.092
39524SOL    HW267412   5.364  16.328   8.017
39525SOL     OW67413  12.024  16.133   6.502
39525SOL    HW167414  11.931  16.148   6.469
39525SOL    HW267415  12.073  16.072   6.440
39526SOL     OW67416   6.981  12.690   7.427
39526SOL    HW167417   6.960  12.739   7.343
39526SOL    HW267418   6.902  12.635   7.455
39527SOL     OW67419   9.723   9.437   0.272
39527SOL    HW167420   9.819   9.444   0.245
39527SOL    HW267421   9.711   9.482   0.361
39528SOL     OW67422   2.221   0.583   1.342
39528SOL    HW167423   2.141   0.601   1.398
39528SOL    HW267424   2.218   0.639   1.259
39529SOL     OW67425   2.408   5.766   1.423
39529SOL    HW167426   2.329   5.737   1.477
39529SOL    HW267427   2.435   5.859   1.450
39530SOL     OW67428   6.010   2.777   6.158
39530SOL    HW167429   6.036   2.692   6.111
39530SOL    HW267430   5.981   2.845   6.090
39531SOL     OW67431   4.189  16.220   2.397
39531SOL    HW167432   4.255  16.187   2.465
39531SOL    HW267433   4.203  16.171   2.311
39532SOL     OW67434   6.470  10.836   7.791
39532SOL    HW167435   6.564  10.804   7.785
39532SOL    HW267436   6.467  10.936   7.780
39533SOL     OW67437   0.711   1.156   0.621
39533SOL    HW167438   0.612   1.156   0.610
39533SOL    HW267439   0.751   1.229   0.566
39534SOL     OW67440  16.251   1.585   1.871
39534SOL    HW167441  16.222   1.636   1.790
39534SOL    HW267442  16.186   1.511   1.889
39535SOL     OW67443   6.997   5.132   8.237
39535SOL    HW167444   7.096   5.116   8.236
39535SOL    HW267445   6.978   5.224   8.204
39536SOL     OW67446  13.844   1.788   6.129
39536SOL    HW167447  13.899   1.774   6.046
39536SOL    HW267448  13.749   1.802   6.104
39537SOL     OW67449   1.834  12.100   7.247
39537SOL    HW167450   1.924  12.056   7.243
39537SOL    HW267451   1.780  12.072   7.168
39538SOL     OW67452   5.184   8.217   0.858
39538SOL    HW167453   5.239   8.233   0.940
39538SOL    HW267454   5.236   8.243   0.777
39539SOL     OW67455  15.769  13.730   2.221
39539SOL    HW167456  15.839  13.802   2.222
39539SOL    HW267457  15.679  13.772   2.229
39540SOL     OW67458   3.957   1.166   7.989
39540SOL    HW167459   4.030   1.183   8.056
39540SOL    HW267460   3.930   1.253   7.947
39541SOL     OW67461  11.237  10.207   1.541
39541SOL    HW167462  11.291  10.268   1.483
39541SOL    HW267463  11.283  10.195   1.629
39542SOL     OW67464  15.957  11.176   7.974
39542SOL    HW167465  15.973  11.106   7.905
39542SOL    HW267466  15.933  11.133   8.061
39543SOL     OW67467   7.013  11.183   1.330
39543SOL    HW167468   7.066  11.099   1.337
39543SOL    HW267469   7.054  11.252   1.391
39544SOL     OW67470   9.878   7.017   0.684
39544SOL    HW167471   9.977   7.007   0.671
39544SOL    HW267472   9.853   6.985   0.775
39545SOL     OW67473  13.341   7.493   1.271
39545SOL    HW167474  13.402   7.571   1.280
39545SOL    HW267475  13.379   7.428   1.205
39546SOL     OW67476   1.841   5.421   8.175
39546SOL    HW167477   1.780   5.411   8.096
39546SOL    HW267478   1.816   5.354   8.245
39547SOL     OW67479  10.313  10.657   7.464
39547SOL    HW167480  10.359  10.718   7.398
39547SOL    HW267481  10.339  10.563   7.445
39548SOL     OW67482   9.316   5.547   6.885
39548SOL    HW167483   9.220   5.539   6.860
39548SOL    HW267484   9.358   5.621   6.833
39549SOL     OW67485  16.809  15.982   0.628
39549SOL    HW167486  16.756  15.994   0.544
39549SOL    HW267487  16.797  15.888   0.661
39550SOL     OW67488   6.775   6.095   7.369
39550SOL    HW167489   6.732   6.171   7.321
39550SOL    HW267490   6.848   6.129   7.428
39551SOL     OW67491   0.082   0.193   1.111
39551SOL    HW167492   0.074   0.219   1.208
39551SOL    HW267493   0.178   0.181   1.088
39552SOL     OW67494  10.890  13.336   7.379
39552SOL    HW167495  10.823  13.313   7.309
39552SOL    HW267496  10.982  13.316   7.345
39553SOL     OW67497   5.560  12.059   8.069
39553SOL    HW167498   5.487  12.099   8.125
39553SOL    HW267499   5.621  12.006   8.127
39554SOL     OW67500   1.138   4.223   6.988
39554SOL    HW167501   1.081   4.186   7.061
39554SOL    HW267502   1.080   4.267   6.919
39555SOL     OW67503   9.895  10.597   7.360
39555SOL    HW167504   9.939  10.589   7.449
39555SOL    HW267505   9.962  10.626   7.292
39556SOL     OW67506  13.282  11.555   0.049
39556SOL    HW167507  13.344  11.492   0.003
39556SOL    HW267508  13.187  11.532   0.026
39557SOL     OW67509   4.321  10.592   0.872
39557SOL    HW167510   4.274  10.678   0.889
39557SOL    HW267511   4.410  10.593   0.917
39558SOL     OW67512  13.894   0.770   6.179
39558SOL    HW167513  13.966   0.805   6.238
39558SOL    HW267514  13.805   0.780   6.225
39559SOL     OW67515  14.664   5.253   7.821
39559SOL    HW167516  14.610   5.169   7.814
39559SOL    HW267517  14.676   5.277   7.918
39560SOL     OW67518   6.483  11.625   7.966
39560SOL    HW167519   6.579  11.617   7.941
39560SOL    HW267520   6.472  11.696   8.035
39561SOL     OW67521   3.103  10.175   7.333
39561SOL    HW167522   3.038  10.187   7.258
39561SOL    HW267523   3.080  10.238   7.407
39562SOL     OW67524  13.243  10.868   0.689
39562SOL    HW167525  13.325  10.851   0.745
39562SOL    HW267526  13.187  10.785   0.687
39563SOL     OW67527  15.612  14.820   1.337
39563SOL    HW167528  15.622  14.861   1.428
39563SOL    HW267529  15.660  14.732   1.335
39564SOL     OW67530   5.203   6.488   6.885
39564SOL    HW167531   5.200   6.432   6.968
39564SOL    HW267532   5.149   6.444   6.813
39565SOL     OW67533  10.194   5.930   6.386
39565SOL    HW167534  10.109   5.936   6.335
39565SOL    HW267535  10.183   5.973   6.476
39566SOL     OW67536   7.531  13.863   0.997
39566SOL    HW167537   7.607  13.927   0.984
39566SOL    HW267538   7.466  13.902   1.063
39567SOL     OW67539  15.285  12.924   0.451
39567SOL    HW167540  15.239  13.001   0.407
39567SOL    HW267541  15.326  12.865   0.381
39568SOL     OW67542   1.863   2.657   1.573
39568SOL    HW167543   1.855   2.558   1.587
39568SOL    HW267544   1.774   2.695   1.548
39569SOL     OW67545  10.703   0.329   1.119
39569SOL    HW167546  10.632   0.394   1.092
39569SOL    HW267547  10.792   0.375   1.121
39570SOL     OW67548  13.402   3.163   6.409
39570SOL    HW167549  13.493   3.181   6.444
39570SOL    HW267550  13.398   3.070   6.370
39571SOL     OW67551   1.732   4.270   7.997
39571SOL    HW167552   1.684   4.188   7.968
39571SOL    HW267553   1.694   4.350   7.950
39572SOL     OW67554   4.158   7.312   0.093
39572SOL    HW167555   4.230   7.350   0.034
39572SOL    HW267556   4.196   7.297   0.184
39573SOL     OW67557   2.497  11.635   1.270
39573SOL    HW167558   2.459  11.546   1.295
39573SOL    HW267559   2.422  11.700   1.257
39574SOL     OW67560  11.681   0.054   7.258
39574SOL    HW167561  11.763   0.091   7.302
39574SOL    HW267562  11.601   0.072   7.315
39575SOL     OW67563   7.334   5.289   1.146
39575SOL    HW167564   7.302   5.277   1.052
39575SOL    HW267565   7.428   5.323   1.146
39576SOL     OW67566   8.200   1.557   6.342
39576SOL    HW167567   8.264   1.621   6.300
39576SOL    HW267568   8.107   1.576   6.310
39577SOL     OW67569   0.506   7.569   6.609
39577SOL    HW167570   0.411   7.592   6.633
39577SOL    HW267571   0.536   7.627   6.533
39578SOL     OW67572   8.766  12.657   7.330
39578SOL    HW167573   8.782  12.748   7.367
39578SOL    HW267574   8.682  12.620   7.369
39579SOL     OW67575   5.698   6.886   7.327
39579SOL    HW167576   5.609   6.899   7.371
39579SOL    HW267577   5.769   6.879   7.397
39580SOL     OW67578   7.746  11.390   7.472
39580SOL    HW167579   7.784  11.353   7.556
39580SOL    HW267580   7.708  11.481   7.490
39581SOL     OW67581  13.245  11.862   1.464
39581SOL    HW167582  13.263  11.895   1.371
39581SOL    HW267583  13.316  11.896   1.526
39582SOL     OW67584  13.826   9.351   7.714
39582SOL    HW167585  13.862   9.399   7.633
39582SOL    HW267586  13.883   9.271   7.734
39583SOL     OW67587   4.357   5.200   0.570
39583SOL    HW167588   4.398   5.291   0.564
39583SOL    HW267589   4.419   5.133   0.528
39584SOL     OW67590   7.479   1.131   0.265
39584SOL    HW167591   7.486   1.040   0.306
39584SOL    HW267592   7.423   1.190   0.322
39585SOL     OW67593   0.487   3.246   6.055
39585SOL    HW167594   0.403   3.212   6.013
39585SOL    HW267595   0.497   3.206   6.146
39586SOL     OW67596   0.132   8.454   7.990
39586SOL    HW167597   0.192   8.518   8.038
39586SOL    HW267598   0.169   8.362   7.997
39587SOL     OW67599   0.491  15.732   0.794
39587SOL    HW167600   0.568  15.747   0.732
39587SOL    HW267601   0.429  15.664   0.754
39588SOL     OW67602  11.320  15.870   0.214
39588SOL    HW167603  11.336  15.777   0.247
39588SOL    HW267604  11.374  15.935   0.269
39589SOL     OW67605   7.421  15.849   7.418
39589SOL    HW167606   7.369  15.874   7.500
39589SOL    HW267607   7.473  15.928   7.386
39590SOL     OW67608  10.220   2.238   8.418
39590SOL    HW167609  10.194   2.333   8.434
39590SOL    HW267610  10.262   2.200   0.046
39591SOL     OW67611  13.341   1.327   6.911
39591SOL    HW167612  13.341   1.239   6.863
39591SOL    HW267613  13.278   1.390   6.867
39592SOL     OW67614  10.962   4.832   7.722
39592SOL    HW167615  11.003   4.870   7.805
39592SOL    HW267616  10.883   4.774   7.747
39593SOL     OW67617  12.954  14.421   1.454
39593SOL    HW167618  12.967  14.324   1.475
39593SOL    HW267619  12.872  14.434   1.398
39594SOL     OW67620   2.592  13.521   8.091
39594SOL    HW167621   2.670  13.461   8.106
39594SOL    HW267622   2.516  13.469   8.053
39595SOL     OW67623   1.081   8.375   0.409
39595SOL    HW167624   1.111   8.465   0.378
39595SOL    HW267625   1.140   8.344   0.484
39596SOL     OW67626  12.095   7.997   1.555
39596SOL    HW167627  12.013   7.955   1.594
39596SOL    HW267628  12.157   8.026   1.629
39597SOL     OW67629   3.510   5.393   6.653
39597SOL    HW167630   3.469   5.474   6.612
39597SOL    HW267631   3.607   5.389   6.630
39598SOL     OW67632   4.039  10.534   0.575
39598SOL    HW167633   4.136  10.561   0.569
39598SOL    HW267634   3.982  10.609   0.542
39599SOL     OW67635   2.135   6.903   0.245
39599SOL    HW167636   2.228   6.937   0.260
39599SOL    HW267637   2.135   6.842   0.165
39600SOL     OW67638  16.325  13.563   1.601
39600SOL    HW167639  16.284  13.643   1.643
39600SOL    HW267640  16.419  13.584   1.574
  16.98330  16.98330   8.45397
