CH2CL2
 2560
    1DCME   Cl1    1   2.765   3.948   1.871
    1DCME    C1    2   2.849   4.102   1.913
    1DCME    Cl    3   2.945   4.168   1.776
    1DCME    H1    4   2.917   4.082   1.996
    1DCME    H2    5   2.774   4.176   1.941
    2DCME   Cl1    6   2.120   1.670   0.223
    2DCME    C1    7   1.946   1.695   0.188
    2DCME    Cl    8   1.902   1.869   0.169
    2DCME    H1    9   1.888   1.655   0.271
    2DCME    H2   10   1.922   1.644   0.095
    3DCME   Cl1   11   2.912   4.175   4.748
    3DCME    C1   12   2.913   4.103   4.913
    3DCME    Cl   13   3.052   4.156   0.013
    3DCME    H1   14   2.918   3.994   4.902
    3DCME    H2   15   2.821   4.133   4.964
    4DCME   Cl1   16   1.090   0.373   2.028
    4DCME    C1   17   1.033   0.293   1.877
    4DCME    Cl   18   0.951   0.407   1.764
    4DCME    H1   19   0.961   0.216   1.905
    4DCME    H2   20   1.119   0.250   1.826
    5DCME   Cl1   21   1.001   1.695   1.879
    5DCME    C1   22   1.020   1.727   2.055
    5DCME    Cl   23   0.939   1.878   2.107
    5DCME    H1   24   1.127   1.736   2.076
    5DCME    H2   25   0.977   1.643   2.109
    6DCME   Cl1   26   4.290   3.812   4.569
    6DCME    C1   27   4.273   3.663   4.470
    6DCME    Cl   28   4.367   3.669   4.316
    6DCME    H1   29   4.168   3.650   4.445
    6DCME    H2   30   4.311   3.579   4.529
    7DCME   Cl1   31   2.932   2.845   0.468
    7DCME    C1   32   2.859   2.682   0.444
    7DCME    Cl   33   2.805   2.605   0.597
    7DCME    H1   34   2.935   2.618   0.398
    7DCME    H2   35   2.772   2.693   0.379
    8DCME   Cl1   36   3.396   0.494   4.257
    8DCME    C1   37   3.498   0.429   4.124
    8DCME    Cl   38   3.556   0.558   4.012
    8DCME    H1   39   3.439   0.357   4.067
    8DCME    H2   40   3.585   0.381   4.169
    9DCME   Cl1   41   3.123   2.759   4.025
    9DCME    C1   42   3.240   2.648   4.102
    9DCME    Cl   43   3.230   2.480   4.038
    9DCME    H1   44   3.219   2.645   4.209
    9DCME    H2   45   3.341   2.685   4.084
   10DCME   Cl1   46   1.358   1.635   3.135
   10DCME    C1   47   1.351   1.721   2.976
   10DCME    Cl   48   1.240   1.643   2.858
   10DCME    H1   49   1.452   1.721   2.934
   10DCME    H2   50   1.316   1.822   2.994
   11DCME   Cl1   51   2.446   1.249   4.361
   11DCME    C1   52   2.505   1.413   4.407
   11DCME    Cl   53   2.432   1.545   4.309
   11DCME    H1   54   2.613   1.415   4.393
   11DCME    H2   55   2.479   1.431   4.512
   12DCME   Cl1   56   0.310   4.676   4.928
   12DCME    C1   57   0.230   4.515   4.941
   12DCME    Cl   58   0.267   4.407   4.802
   12DCME    H1   59   0.123   4.531   4.944
   12DCME    H2   60   0.265   4.467   0.032
   13DCME   Cl1   61   0.884   4.018   4.561
   13DCME    C1   62   0.844   4.137   4.689
   13DCME    Cl   63   0.940   4.289   4.675
   13DCME    H1   64   0.866   4.092   4.786
   13DCME    H2   65   0.738   4.162   4.680
   14DCME   Cl1   66   4.868   4.044   3.114
   14DCME    C1   67   4.928   3.877   3.079
   14DCME    Cl   68   4.926   3.837   2.903
   14DCME    H1   69   4.863   3.807   3.130
   14DCME    H2   70   0.030   3.869   3.115
   15DCME   Cl1   71   0.176   1.078   1.186
   15DCME    C1   72   0.043   1.192   1.227
   15DCME    Cl   73   0.026   1.220   1.404
   15DCME    H1   74   4.949   1.150   1.190
   15DCME    H2   75   0.064   1.288   1.179
   16DCME   Cl1   76   1.042   3.691   2.496
   16DCME    C1   77   0.889   3.687   2.400
   16DCME    Cl   78   0.778   3.823   2.439
   16DCME    H1   79   0.838   3.593   2.421
   16DCME    H2   80   0.916   3.694   2.295
   17DCME   Cl1   81   4.734   2.358   1.805
   17DCME    C1   82   4.914   2.345   1.800
   17DCME    Cl   83   4.977   2.298   1.639
   17DCME    H1   84   4.944   2.269   1.872
   17DCME    H2   85   4.956   2.442   1.826
   18DCME   Cl1   86   0.020   0.632   4.815
   18DCME    C1   87   0.180   0.575   4.877
   18DCME    Cl   88   0.197   0.595   0.055
   18DCME    H1   89   0.258   0.633   4.829
   18DCME    H2   90   0.189   0.469   4.854
   19DCME   Cl1   91   2.264   0.373   1.932
   19DCME    C1   92   2.306   0.293   2.087
   19DCME    Cl   93   2.445   0.371   2.172
   19DCME    H1   94   2.334   0.189   2.066
   19DCME    H2   95   2.219   0.298   2.153
   20DCME   Cl1   96   2.433   1.603   4.715
   20DCME    C1   97   2.613   1.617   4.718
   20DCME    Cl   98   2.685   1.638   4.554
   20DCME    H1   99   2.653   1.526   4.761
   20DCME    H2  100   2.639   1.704   4.778
   21DCME   Cl1  101   4.378   1.663   3.236
   21DCME    C1  102   4.284   1.785   3.142
   21DCME    Cl  103   4.215   1.718   2.990
   21DCME    H1  104   4.350   1.867   3.116
   21DCME    H2  105   4.201   1.819   3.204
   22DCME   Cl1  106   1.366   2.736   3.119
   22DCME    C1  107   1.191   2.704   3.144
   22DCME    Cl  108   1.151   2.529   3.151
   22DCME    H1  109   1.137   2.748   3.060
   22DCME    H2  110   1.161   2.750   3.238
   23DCME   Cl1  111   4.052   3.311   1.341
   23DCME    C1  112   4.110   3.452   1.244
   23DCME    Cl  113   4.055   3.447   1.073
   23DCME    H1  114   4.219   3.452   1.244
   23DCME    H2  115   4.071   3.543   1.289
   24DCME   Cl1  116   1.392   3.066   2.549
   24DCME    C1  117   1.561   3.128   2.541
   24DCME    Cl  118   1.579   3.289   2.619
   24DCME    H1  119   1.589   3.138   2.436
   24DCME    H2  120   1.626   3.057   2.592
   25DCME   Cl1  121   1.409   4.323   0.660
   25DCME    C1  122   1.455   4.490   0.613
   25DCME    Cl  123   1.328   4.612   0.652
   25DCME    H1  124   1.473   4.491   0.505
   25DCME    H2  125   1.546   4.517   0.667
   26DCME   Cl1  126   2.984   3.681   0.318
   26DCME    C1  127   2.936   3.632   0.484
   26DCME    Cl  128   2.807   3.506   0.485
   26DCME    H1  129   2.897   3.720   0.535
   26DCME    H2  130   3.024   3.592   0.535
   27DCME   Cl1  131   4.059   2.026   4.521
   27DCME    C1  132   4.182   2.072   4.645
   27DCME    Cl  133   4.122   2.194   4.762
   27DCME    H1  134   4.269   2.114   4.593
   27DCME    H2  135   4.210   1.982   4.700
   28DCME   Cl1  136   2.438   3.172   4.544
   28DCME    C1  137   2.608   3.185   4.602
   28DCME    Cl  138   2.711   3.046   4.552
   28DCME    H1  139   2.607   3.190   4.711
   28DCME    H2  140   2.651   3.276   4.559
   29DCME   Cl1  141   4.250   2.995   1.359
   29DCME    C1  142   4.421   2.962   1.402
   29DCME    Cl  143   4.530   3.097   1.355
   29DCME    H1  144   4.454   2.873   1.349
   29DCME    H2  145   4.428   2.949   1.510
   30DCME   Cl1  146   3.668   0.310   0.420
   30DCME    C1  147   3.629   0.135   0.436
   30DCME    Cl  148   3.522   0.099   0.576
   30DCME    H1  149   3.722   0.079   0.450
   30DCME    H2  150   3.578   0.103   0.345
   31DCME   Cl1  151   2.152   3.781   2.553
   31DCME    C1  152   2.071   3.887   2.432
   31DCME    Cl  153   1.898   3.919   2.469
   31DCME    H1  154   2.077   3.837   2.335
   31DCME    H2  155   2.124   3.982   2.430
   32DCME   Cl1  156   4.989   3.712   3.359
   32DCME    C1  157   0.051   3.574   3.262
   32DCME    Cl  158   4.961   3.550   3.107
   32DCME    H1  159   0.040   3.483   3.321
   32DCME    H2  160   0.156   3.592   3.238
   33DCME   Cl1  161   0.517   3.978   0.399
   33DCME    C1  162   0.572   4.070   0.544
   33DCME    Cl  163   0.614   4.241   0.506
   33DCME    H1  164   0.661   4.021   0.583
   33DCME    H2  165   0.491   4.069   0.617
   34DCME   Cl1  166   2.492   0.008   1.224
   34DCME    C1  167   2.340   4.965   1.311
   34DCME    Cl  168   2.317   4.787   1.327
   34DCME    H1  169   2.255   0.006   1.257
   34DCME    H2  170   2.346   0.006   1.412
   35DCME   Cl1  171   0.327   4.794   1.967
   35DCME    C1  172   0.293   4.620   1.996
   35DCME    Cl  173   0.433   4.531   2.063
   35DCME    H1  174   0.265   4.574   1.901
   35DCME    H2  175   0.211   4.613   2.068
   36DCME   Cl1  176   2.779   0.951   4.902
   36DCME    C1  177   2.668   0.829   4.974
   36DCME    Cl  178   2.734   0.754   0.124
   36DCME    H1  179   2.651   0.750   4.901
   36DCME    H2  180   2.575   0.880   0.000
   37DCME   Cl1  181   4.358   3.987   1.562
   37DCME    C1  182   4.373   4.155   1.626
   37DCME    Cl  183   4.220   4.249   1.613
   37DCME    H1  184   4.450   4.207   1.568
   37DCME    H2  185   4.401   4.149   1.731
   38DCME   Cl1  186   2.622   2.334   2.173
   38DCME    C1  187   2.620   2.357   1.995
   38DCME    Cl  188   2.771   2.301   1.915
   38DCME    H1  189   2.608   2.463   1.974
   38DCME    H2  190   2.536   2.299   1.954
   39DCME   Cl1  191   3.284   0.053   3.902
   39DCME    C1  192   3.112   0.087   3.860
   39DCME    Cl  193   3.045   4.972   3.739
   39DCME    H1  194   3.106   0.189   3.820
   39DCME    H2  195   3.053   0.079   3.952
   40DCME   Cl1  196   3.522   1.738   4.789
   40DCME    C1  197   3.552   1.794   4.958
   40DCME    Cl  198   3.536   1.662   0.079
   40DCME    H1  199   3.477   1.871   4.981
   40DCME    H2  200   3.653   1.835   4.964
   41DCME   Cl1  201   2.138   3.373   0.395
   41DCME    C1  202   2.214   3.397   0.234
   41DCME    Cl  203   2.093   3.423   0.102
   41DCME    H1  204   2.271   3.308   0.210
   41DCME    H2  205   2.278   3.485   0.239
   42DCME   Cl1  206   3.088   0.774   0.066
   42DCME    C1  207   3.090   0.953   0.060
   42DCME    Cl  208   2.979   1.031   0.179
   42DCME    H1  209   3.058   0.984   4.960
   42DCME    H2  210   3.191   0.987   0.080
   43DCME   Cl1  211   0.802   3.213   0.630
   43DCME    C1  212   0.874   3.225   0.466
   43DCME    Cl  213   0.754   3.201   0.334
   43DCME    H1  214   0.950   3.148   0.456
   43DCME    H2  215   0.917   3.324   0.455
   44DCME   Cl1  216   3.313   0.190   1.449
   44DCME    C1  217   3.441   0.145   1.567
   44DCME    Cl  218   3.462   4.967   1.586
   44DCME    H1  219   3.414   0.186   1.664
   44DCME    H2  220   3.536   0.186   1.532
   45DCME   Cl1  221   1.732   1.363   2.607
   45DCME    C1  222   1.889   1.385   2.522
   45DCME    Cl  223   2.027   1.308   2.609
   45DCME    H1  224   1.909   1.492   2.515
   45DCME    H2  225   1.882   1.340   2.423
   46DCME   Cl1  226   0.444   1.661   1.950
   46DCME    C1  227   0.571   1.686   1.826
   46DCME    Cl  228   0.670   1.834   1.854
   46DCME    H1  229   0.522   1.696   1.729
   46DCME    H2  230   0.638   1.600   1.826
   47DCME   Cl1  231   0.953   0.115   0.113
   47DCME    C1  232   0.885   0.241   0.004
   47DCME    Cl  233   0.804   0.172   4.859
   47DCME    H1  234   0.967   0.305   4.971
   47DCME    H2  235   0.811   0.298   0.061
   48DCME   Cl1  236   0.161   1.554   1.231
   48DCME    C1  237   0.018   1.592   1.334
   48DCME    Cl  238   0.057   1.706   1.468
   48DCME    H1  239   4.982   1.499   1.378
   48DCME    H2  240   4.942   1.638   1.271
   49DCME   Cl1  241   1.077   0.723   4.560
   49DCME    C1  242   1.243   0.654   4.552
   49DCME    Cl  243   1.254   0.509   4.446
   49DCME    H1  244   1.273   0.624   4.653
   49DCME    H2  245   1.310   0.730   4.513
   50DCME   Cl1  246   2.295   0.863   3.226
   50DCME    C1  247   2.211   0.890   3.069
   50DCME    Cl  248   2.283   1.023   2.972
   50DCME    H1  249   2.107   0.916   3.090
   50DCME    H2  250   2.216   0.797   3.010
   51DCME   Cl1  251   4.013   2.547   1.141
   51DCME    C1  252   3.974   2.710   1.208
   51DCME    Cl  253   4.054   2.844   1.118
   51DCME    H1  254   4.007   2.713   1.312
   51DCME    H2  255   3.866   2.723   1.200
   52DCME   Cl1  256   4.903   2.182   4.763
   52DCME    C1  257   0.011   2.182   4.619
   52DCME    Cl  258   4.921   2.183   4.463
   52DCME    H1  259   0.072   2.092   4.621
   52DCME    H2  260   0.073   2.272   4.623
   53DCME   Cl1  261   1.631   2.867   0.618
   53DCME    C1  262   1.656   3.041   0.658
   53DCME    Cl  263   1.728   3.137   0.524
   53DCME    H1  264   1.724   3.046   0.744
   53DCME    H2  265   1.559   3.084   0.682
   54DCME   Cl1  266   4.487   4.714   1.263
   54DCME    C1  267   4.367   4.777   1.381
   54DCME    Cl  268   4.336   4.661   1.515
   54DCME    H1  269   4.273   4.792   1.327
   54DCME    H2  270   4.404   4.870   1.422
   55DCME   Cl1  271   0.167   0.086   4.502
   55DCME    C1  272   0.033   0.051   4.387
   55DCME    Cl  273   0.052   4.892   4.303
   55DCME    H1  274   0.032   0.129   4.311
   55DCME    H2  275   4.940   0.049   4.443
   56DCME   Cl1  276   0.453   2.905   4.014
   56DCME    C1  277   0.488   3.015   3.876
   56DCME    Cl  278   0.340   3.069   3.790
   56DCME    H1  279   0.552   2.961   3.805
   56DCME    H2  280   0.539   3.103   3.915
   57DCME   Cl1  281   1.225   1.707   4.157
   57DCME    C1  282   1.164   1.760   4.318
   57DCME    Cl  283   1.168   1.629   4.442
   57DCME    H1  284   1.061   1.792   4.306
   57DCME    H2  285   1.227   1.842   4.353
   58DCME   Cl1  286   2.684   2.080   3.487
   58DCME    C1  287   2.673   1.933   3.590
   58DCME    Cl  288   2.622   1.786   3.499
   58DCME    H1  289   2.601   1.951   3.669
   58DCME    H2  290   2.772   1.914   3.632
   59DCME   Cl1  291   0.431   0.434   4.705
   59DCME    C1  292   0.560   0.344   4.617
   59DCME    Cl  293   0.499   0.265   4.467
   59DCME    H1  294   0.600   0.268   4.683
   59DCME    H2  295   0.637   0.416   4.589
   60DCME   Cl1  296   3.801   0.915   0.655
   60DCME    C1  297   3.755   0.741   0.658
   60DCME    Cl  298   3.731   0.669   0.494
   60DCME    H1  299   3.661   0.732   0.712
   60DCME    H2  300   3.834   0.686   0.708
   61DCME   Cl1  301   4.965   4.890   3.433
   61DCME    C1  302   0.039   4.839   3.277
   61DCME    Cl  303   4.977   4.680   3.218
   61DCME    H1  304   0.146   4.829   3.292
   61DCME    H2  305   0.016   4.914   3.202
   62DCME   Cl1  306   3.387   2.925   4.238
   62DCME    C1  307   3.368   2.993   4.072
   62DCME    Cl  308   3.448   2.894   3.945
   62DCME    H1  309   3.412   3.093   4.071
   62DCME    H2  310   3.261   2.997   4.050
   63DCME   Cl1  311   3.090   2.990   2.229
   63DCME    C1  312   3.106   2.997   2.049
   63DCME    Cl  313   2.957   2.945   1.963
   63DCME    H1  314   3.187   2.930   2.020
   63DCME    H2  315   3.129   3.100   2.021
   64DCME   Cl1  316   3.683   1.302   1.149
   64DCME    C1  317   3.697   1.304   1.329
   64DCME    Cl  318   3.868   1.295   1.385
   64DCME    H1  319   3.645   1.217   1.368
   64DCME    H2  320   3.654   1.396   1.366
   65DCME   Cl1  321   0.035   1.361   2.582
   65DCME    C1  322   4.940   1.281   2.451
   65DCME    Cl  323   4.942   1.374   2.297
   65DCME    H1  324   4.837   1.270   2.485
   65DCME    H2  325   4.985   1.183   2.432
   66DCME   Cl1  326   2.447   1.685   1.067
   66DCME    C1  327   2.534   1.529   1.085
   66DCME    Cl  328   2.643   1.492   0.946
   66DCME    H1  329   2.459   1.449   1.091
   66DCME    H2  330   2.594   1.533   1.176
   67DCME   Cl1  331   3.593   1.312   0.276
   67DCME    C1  332   3.734   1.389   0.193
   67DCME    Cl  333   3.734   1.364   0.015
   67DCME    H1  334   3.825   1.344   0.233
   67DCME    H2  335   3.731   1.496   0.213
   68DCME   Cl1  336   3.070   2.768   2.852
   68DCME    C1  337   2.913   2.802   2.933
   68DCME    Cl  338   2.782   2.689   2.884
   68DCME    H1  339   2.882   2.903   2.905
   68DCME    H2  340   2.927   2.794   3.041
   69DCME   Cl1  341   1.413   2.996   0.379
   69DCME    C1  342   1.283   2.995   0.254
   69DCME    Cl  343   1.121   2.954   0.321
   69DCME    H1  344   1.308   2.919   0.180
   69DCME    H2  345   1.278   3.093   0.208
   70DCME   Cl1  346   4.848   3.799   1.502
   70DCME    C1  347   4.943   3.655   1.453
   70DCME    Cl  348   0.018   3.672   1.291
   70DCME    H1  349   4.876   3.570   1.451
   70DCME    H2  350   0.022   3.639   1.527
   71DCME   Cl1  351   0.269   3.916   2.870
   71DCME    C1  352   0.428   3.888   2.948
   71DCME    Cl  353   0.418   3.778   3.090
   71DCME    H1  354   0.467   3.985   2.982
   71DCME    H2  355   0.495   3.843   2.875
   72DCME   Cl1  356   3.393   3.676   4.627
   72DCME    C1  357   3.379   3.818   4.517
   72DCME    Cl  358   3.263   3.791   4.382
   72DCME    H1  359   3.478   3.837   4.473
   72DCME    H2  360   3.345   3.903   4.575
   73DCME   Cl1  361   3.597   3.195   1.697
   73DCME    C1  362   3.555   3.111   1.850
   73DCME    Cl  363   3.607   2.938   1.853
   73DCME    H1  364   3.446   3.114   1.862
   73DCME    H2  365   3.604   3.163   1.932
   74DCME   Cl1  366   3.240   2.181   2.457
   74DCME    C1  367   3.184   2.328   2.543
   74DCME    Cl  368   3.172   2.472   2.435
   74DCME    H1  369   3.255   2.351   2.623
   74DCME    H2  370   3.085   2.308   2.584
   75DCME   Cl1  371   3.452   4.097   4.356
   75DCME    C1  372   3.365   4.215   4.460
   75DCME    Cl  373   3.224   4.144   4.546
   75DCME    H1  374   3.329   4.296   4.397
   75DCME    H2  375   3.435   4.252   4.536
   76DCME   Cl1  376   2.740   4.764   0.810
   76DCME    C1  377   2.820   4.768   0.971
   76DCME    Cl  378   2.796   4.923   1.059
   76DCME    H1  379   2.926   4.752   0.956
   76DCME    H2  380   2.777   4.687   1.032
   77DCME   Cl1  381   2.060   0.763   0.277
   77DCME    C1  382   2.132   0.616   0.201
   77DCME    Cl  383   2.092   0.601   0.026
   77DCME    H1  384   2.092   0.528   0.253
   77DCME    H2  385   2.240   0.623   0.211
   78DCME   Cl1  386   4.493   4.790   1.788
   78DCME    C1  387   4.625   4.713   1.883
   78DCME    Cl  388   4.691   4.822   2.010
   78DCME    H1  389   4.706   4.688   1.814
   78DCME    H2  390   4.585   4.624   1.932
   79DCME   Cl1  391   0.469   2.690   4.290
   79DCME    C1  392   0.321   2.649   4.195
   79DCME    Cl  393   0.262   2.482   4.226
   79DCME    H1  394   0.344   2.658   4.089
   79DCME    H2  395   0.242   2.719   4.224
   80DCME   Cl1  396   1.143   0.458   4.824
   80DCME    C1  397   1.012   0.415   4.709
   80DCME    Cl  398   0.855   0.495   4.749
   80DCME    H1  399   0.997   0.307   4.712
   80DCME    H2  400   1.042   0.447   4.609
   81DCME   Cl1  401   4.685   1.385   3.073
   81DCME    C1  402   4.852   1.443   3.037
   81DCME    Cl  403   4.874   1.619   3.067
   81DCME    H1  404   4.874   1.422   2.932
   81DCME    H2  405   4.921   1.389   3.102
   82DCME   Cl1  406   0.259   4.204   0.622
   82DCME    C1  407   0.325   4.300   0.760
   82DCME    Cl  408   0.463   4.221   0.844
   82DCME    H1  409   0.244   4.314   0.832
   82DCME    H2  410   0.359   4.395   0.721
   83DCME   Cl1  411   0.169   4.216   1.371
   83DCME    C1  412   0.334   4.276   1.408
   83DCME    Cl  413   0.463   4.189   1.317
   83DCME    H1  414   0.352   4.261   1.514
   83DCME    H2  415   0.338   4.382   1.381
   84DCME   Cl1  416   0.619   2.801   3.152
   84DCME    C1  417   0.799   2.804   3.142
   84DCME    Cl  418   0.864   2.744   2.986
   84DCME    H1  419   0.838   2.739   3.221
   84DCME    H2  420   0.832   2.907   3.155
   85DCME   Cl1  421   2.782   0.492   4.897
   85DCME    C1  422   2.883   0.622   4.824
   85DCME    Cl  423   2.812   0.691   4.673
   85DCME    H1  424   2.980   0.580   4.800
   85DCME    H2  425   2.893   0.703   4.897
   86DCME   Cl1  426   3.560   0.242   3.266
   86DCME    C1  427   3.493   0.349   3.395
   86DCME    Cl  428   3.487   0.522   3.346
   86DCME    H1  429   3.557   0.340   3.483
   86DCME    H2  430   3.391   0.316   3.417
   87DCME   Cl1  431   0.053   1.890   3.805
   87DCME    C1  432   0.027   2.043   3.896
   87DCME    Cl  433   0.037   2.022   4.074
   87DCME    H1  434   4.927   2.080   3.872
   87DCME    H2  435   0.103   2.115   3.865
   88DCME   Cl1  436   3.539   3.452   2.500
   88DCME    C1  437   3.462   3.445   2.337
   88DCME    Cl  438   3.496   3.592   2.238
   88DCME    H1  439   3.354   3.437   2.350
   88DCME    H2  440   3.502   3.358   2.284
   89DCME   Cl1  441   4.723   3.375   1.378
   89DCME    C1  442   4.659   3.406   1.543
   89DCME    Cl  443   4.787   3.434   1.666
   89DCME    H1  444   4.601   3.318   1.573
   89DCME    H2  445   4.595   3.494   1.539
   90DCME   Cl1  446   3.730   3.803   4.579
   90DCME    C1  447   3.662   3.880   4.727
   90DCME    Cl  448   3.566   4.028   4.691
   90DCME    H1  449   3.745   3.908   4.791
   90DCME    H2  450   3.597   3.807   4.777
   91DCME   Cl1  451   1.686   2.862   2.385
   91DCME    C1  452   1.634   2.807   2.222
   91DCME    Cl  453   1.760   2.834   2.096
   91DCME    H1  454   1.546   2.863   2.193
   91DCME    H2  455   1.613   2.700   2.226
   92DCME   Cl1  456   0.647   1.237   3.339
   92DCME    C1  457   0.605   1.207   3.512
   92DCME    Cl  458   0.462   1.100   3.533
   92DCME    H1  459   0.583   1.303   3.558
   92DCME    H2  460   0.691   1.159   3.560
   93DCME   Cl1  461   3.570   2.547   4.021
   93DCME    C1  462   3.544   2.475   4.184
   93DCME    Cl  463   3.486   2.594   4.306
   93DCME    H1  464   3.639   2.435   4.219
   93DCME    H2  465   3.469   2.396   4.176
   94DCME   Cl1  466   4.954   0.488   2.943
   94DCME    C1  467   0.010   0.447   2.778
   94DCME    Cl  468   4.943   0.555   2.651
   94DCME    H1  469   4.979   0.344   2.756
   94DCME    H2  470   0.119   0.455   2.776
   95DCME   Cl1  471   4.954   3.369   4.135
   95DCME    C1  472   0.044   3.400   3.982
   95DCME    Cl  473   0.050   3.256   3.875
   95DCME    H1  474   0.147   3.429   4.007
   95DCME    H2  475   4.993   3.480   3.929
   96DCME   Cl1  476   1.411   4.236   1.710
   96DCME    C1  477   1.243   4.172   1.715
   96DCME    Cl  478   1.122   4.291   1.656
   96DCME    H1  479   1.219   4.147   1.818
   96DCME    H2  480   1.239   4.084   1.651
   97DCME   Cl1  481   0.248   2.184   1.084
   97DCME    C1  482   0.249   2.243   1.253
   97DCME    Cl  483   0.126   2.162   1.357
   97DCME    H1  484   0.227   2.350   1.252
   97DCME    H2  485   0.348   2.224   1.296
   98DCME   Cl1  486   1.983   1.652   2.292
   98DCME    C1  487   1.910   1.564   2.153
   98DCME    Cl  488   1.774   1.457   2.201
   98DCME    H1  489   1.988   1.502   2.107
   98DCME    H2  490   1.872   1.638   2.082
   99DCME   Cl1  491   2.534   0.699   2.112
   99DCME    C1  492   2.374   0.747   2.179
   99DCME    Cl  493   2.238   0.708   2.067
   99DCME    H1  494   2.374   0.854   2.196
   99DCME    H2  495   2.357   0.693   2.272
  100DCME   Cl1  496   1.991   0.127   1.575
  100DCME    C1  497   1.825   0.123   1.644
  100DCME    Cl  498   1.823   0.135   1.824
  100DCME    H1  499   1.779   0.028   1.616
  100DCME    H2  500   1.769   0.208   1.604
  101DCME   Cl1  501   2.418   0.576   3.712
  101DCME    C1  502   2.340   0.499   3.855
  101DCME    Cl  503   2.420   0.346   3.905
  101DCME    H1  504   2.237   0.476   3.829
  101DCME    H2  505   2.346   0.569   3.938
  102DCME   Cl1  506   3.452   1.555   1.269
  102DCME    C1  507   3.371   1.395   1.288
  102DCME    Cl  508   3.390   1.325   1.452
  102DCME    H1  509   3.414   1.326   1.215
  102DCME    H2  510   3.264   1.410   1.269
  103DCME   Cl1  511   1.640   2.324   1.813
  103DCME    C1  512   1.731   2.386   1.671
  103DCME    Cl  513   1.897   2.319   1.658
  103DCME    H1  514   1.739   2.495   1.679
  103DCME    H2  515   1.677   2.358   1.581
  104DCME   Cl1  516   2.778   3.297   4.309
  104DCME    C1  517   2.822   3.357   4.145
  104DCME    Cl  518   2.691   3.336   4.024
  104DCME    H1  519   2.909   3.301   4.111
  104DCME    H2  520   2.846   3.463   4.153
  105DCME   Cl1  521   3.158   0.332   4.066
  105DCME    C1  522   3.174   0.489   3.980
  105DCME    Cl  523   3.137   0.477   3.804
  105DCME    H1  524   3.277   0.524   3.990
  105DCME    H2  525   3.104   0.560   4.024
  106DCME   Cl1  526   1.578   3.615   3.174
  106DCME    C1  527   1.638   3.557   3.014
  106DCME    Cl  528   1.551   3.411   2.955
  106DCME    H1  529   1.744   3.532   3.025
  106DCME    H2  530   1.625   3.637   2.941
  107DCME   Cl1  531   4.398   4.008   0.799
  107DCME    C1  532   4.259   4.016   0.913
  107DCME    Cl  533   4.300   4.097   1.068
  107DCME    H1  534   4.227   3.914   0.935
  107DCME    H2  535   4.179   4.073   0.865
  108DCME   Cl1  536   3.154   3.071   3.809
  108DCME    C1  537   3.276   3.043   3.679
  108DCME    Cl  538   3.402   3.171   3.673
  108DCME    H1  539   3.223   3.043   3.583
  108DCME    H2  540   3.324   2.948   3.697
  109DCME   Cl1  541   3.815   3.338   2.737
  109DCME    C1  542   3.712   3.442   2.842
  109DCME    Cl  543   3.684   3.372   3.006
  109DCME    H1  544   3.615   3.455   2.794
  109DCME    H2  545   3.763   3.538   2.855
  110DCME   Cl1  546   4.426   2.279   0.467
  110DCME    C1  547   4.409   2.383   0.613
  110DCME    Cl  548   4.241   2.444   0.637
  110DCME    H1  549   4.475   2.469   0.600
  110DCME    H2  550   4.437   2.324   0.700
  111DCME   Cl1  551   4.925   0.796   2.182
  111DCME    C1  552   4.759   0.816   2.116
  111DCME    Cl  553   4.733   0.732   1.959
  111DCME    H1  554   4.741   0.923   2.101
  111DCME    H2  555   4.688   0.775   2.189
  112DCME   Cl1  556   3.133   4.459   1.360
  112DCME    C1  557   3.101   4.591   1.242
  112DCME    Cl  558   3.024   4.532   1.090
  112DCME    H1  559   3.196   4.637   1.216
  112DCME    H2  560   3.033   4.662   1.289
  113DCME   Cl1  561   0.779   2.789   3.741
  113DCME    C1  562   0.895   2.926   3.755
  113DCME    Cl  563   0.844   3.050   3.875
  113DCME    H1  564   0.902   2.976   3.658
  113DCME    H2  565   0.991   2.886   3.786
  114DCME   Cl1  566   0.599   0.576   0.754
  114DCME    C1  567   0.667   0.742   0.746
  114DCME    Cl  568   0.790   0.761   0.615
  114DCME    H1  569   0.715   0.765   0.841
  114DCME    H2  570   0.586   0.812   0.726
  115DCME   Cl1  571   4.438   4.307   3.414
  115DCME    C1  572   4.598   4.362   3.353
  115DCME    Cl  573   4.585   4.478   3.217
  115DCME    H1  574   4.653   4.275   3.318
  115DCME    H2  575   4.651   4.411   3.435
  116DCME   Cl1  576   0.483   2.262   3.027
  116DCME    C1  577   0.476   2.295   2.850
  116DCME    Cl  578   0.406   2.158   2.756
  116DCME    H1  579   0.577   2.314   2.815
  116DCME    H2  580   0.412   2.382   2.835
  117DCME   Cl1  581   2.445   2.821   4.465
  117DCME    C1  582   2.291   2.903   4.421
  117DCME    Cl  583   2.158   2.788   4.383
  117DCME    H1  584   2.309   2.965   4.332
  117DCME    H2  585   2.260   2.964   4.505
  118DCME   Cl1  586   1.170   3.306   0.338
  118DCME    C1  587   1.232   3.249   0.497
  118DCME    Cl  588   1.147   3.324   0.636
  118DCME    H1  589   1.338   3.275   0.503
  118DCME    H2  590   1.219   3.141   0.502
  119DCME   Cl1  591   3.448   2.183   1.802
  119DCME    C1  592   3.566   2.292   1.721
  119DCME    Cl  593   3.507   2.353   1.563
  119DCME    H1  594   3.658   2.235   1.702
  119DCME    H2  595   3.585   2.377   1.786
  120DCME   Cl1  596   3.238   0.090   3.420
  120DCME    C1  597   3.321   0.065   3.578
  120DCME    Cl  598   3.501   0.065   3.565
  120DCME    H1  599   3.291   4.968   3.617
  120DCME    H2  600   3.291   0.145   3.645
  121DCME   Cl1  601   0.505   2.834   2.635
  121DCME    C1  602   0.573   2.794   2.796
  121DCME    Cl  603   0.554   2.620   2.839
  121DCME    H1  604   0.521   2.853   2.871
  121DCME    H2  605   0.679   2.818   2.795
  122DCME   Cl1  606   2.956   2.894   1.354
  122DCME    C1  607   3.024   2.877   1.520
  122DCME    Cl  608   2.911   2.794   1.634
  122DCME    H1  609   3.045   2.976   1.560
  122DCME    H2  610   3.115   2.817   1.514
  123DCME   Cl1  611   0.459   3.404   4.489
  123DCME    C1  612   0.560   3.348   4.351
  123DCME    Cl  613   0.571   3.469   4.218
  123DCME    H1  614   0.516   3.257   4.311
  123DCME    H2  615   0.661   3.329   4.388
  124DCME   Cl1  616   1.929   3.575   2.385
  124DCME    C1  617   1.805   3.534   2.508
  124DCME    Cl  618   1.876   3.484   2.666
  124DCME    H1  619   1.747   3.450   2.470
  124DCME    H2  620   1.743   3.622   2.525
  125DCME   Cl1  621   2.570   1.260   4.727
  125DCME    C1  622   2.487   1.116   4.657
  125DCME    Cl  623   2.445   0.991   4.780
  125DCME    H1  624   2.554   1.071   4.584
  125DCME    H2  625   2.394   1.150   4.611
  126DCME   Cl1  626   2.387   0.982   3.622
  126DCME    C1  627   2.282   1.110   3.551
  126DCME    Cl  628   2.368   1.266   3.527
  126DCME    H1  629   2.199   1.128   3.620
  126DCME    H2  630   2.246   1.075   3.454
  127DCME   Cl1  631   1.567   1.362   3.009
  127DCME    C1  632   1.573   1.369   3.189
  127DCME    Cl  633   1.707   1.271   3.258
  127DCME    H1  634   1.478   1.330   3.228
  127DCME    H2  635   1.587   1.473   3.220
  128DCME   Cl1  636   2.485   2.097   1.363
  128DCME    C1  637   2.469   2.003   1.210
  128DCME    Cl  638   2.330   2.058   1.110
  128DCME    H1  639   2.453   1.899   1.236
  128DCME    H2  640   2.560   2.016   1.152
  129DCME   Cl1  641   2.861   1.789   4.175
  129DCME    C1  642   2.722   1.676   4.185
  129DCME    Cl  643   2.773   1.503   4.191
  129DCME    H1  644   2.660   1.689   4.096
  129DCME    H2  645   2.666   1.698   4.275
  130DCME   Cl1  646   3.720   3.190   2.278
  130DCME    C1  647   3.745   3.162   2.454
  130DCME    Cl  648   3.745   2.988   2.499
  130DCME    H1  649   3.664   3.211   2.509
  130DCME    H2  650   3.842   3.204   2.482
  131DCME   Cl1  651   1.108   0.739   1.774
  131DCME    C1  652   1.246   0.853   1.756
  131DCME    Cl  653   1.391   0.807   1.854
  131DCME    H1  654   1.213   0.952   1.790
  131DCME    H2  655   1.275   0.856   1.651
  132DCME   Cl1  656   0.511   4.480   0.154
  132DCME    C1  657   0.563   4.451   4.984
  132DCME    Cl  658   0.736   4.405   4.972
  132DCME    H1  659   0.548   4.543   4.928
  132DCME    H2  660   0.503   4.371   4.942
  133DCME   Cl1  661   3.235   4.497   2.173
  133DCME    C1  662   3.278   4.366   2.059
  133DCME    Cl  663   3.150   4.241   2.044
  133DCME    H1  664   3.368   4.317   2.096
  133DCME    H2  665   3.295   4.410   1.961
  134DCME   Cl1  666   2.949   1.316   3.599
  134DCME    C1  667   2.837   1.401   3.711
  134DCME    Cl  668   2.893   1.397   3.882
  134DCME    H1  669   2.740   1.353   3.706
  134DCME    H2  670   2.830   1.505   3.679
  135DCME   Cl1  671   4.708   2.236   1.296
  135DCME    C1  672   4.643   2.262   1.462
  135DCME    Cl  673   4.533   2.404   1.475
  135DCME    H1  674   4.728   2.279   1.528
  135DCME    H2  675   4.587   2.173   1.491
  136DCME   Cl1  676   0.811   0.382   1.142
  136DCME    C1  677   0.775   0.513   1.023
  136DCME    Cl  678   0.868   0.664   1.055
  136DCME    H1  679   0.669   0.536   1.030
  136DCME    H2  680   0.801   0.476   0.924
  137DCME   Cl1  681   1.273   2.078   3.113
  137DCME    C1  682   1.124   2.107   3.017
  137DCME    Cl  683   1.075   1.965   2.918
  137DCME    H1  684   1.142   2.192   2.950
  137DCME    H2  685   1.043   2.130   3.086
  138DCME   Cl1  686   4.052   0.660   0.861
  138DCME    C1  687   4.172   0.771   0.786
  138DCME    Cl  688   4.285   0.843   0.907
  138DCME    H1  689   4.118   0.852   0.737
  138DCME    H2  690   4.231   0.714   0.714
  139DCME   Cl1  691   2.730   4.944   3.920
  139DCME    C1  692   2.587   0.050   3.895
  139DCME    Cl  693   2.534   0.057   3.723
  139DCME    H1  694   2.613   0.151   3.927
  139DCME    H2  695   2.504   0.011   3.955
  140DCME   Cl1  696   3.465   1.033   1.261
  140DCME    C1  697   3.490   0.934   1.409
  140DCME    Cl  698   3.567   1.025   1.544
  140DCME    H1  699   3.554   0.850   1.384
  140DCME    H2  700   3.393   0.899   1.444
  141DCME   Cl1  701   0.677   1.648   3.337
  141DCME    C1  702   0.618   1.575   3.183
  141DCME    Cl  703   0.439   1.579   3.168
  141DCME    H1  704   0.650   1.471   3.181
  141DCME    H2  705   0.661   1.630   3.099
  142DCME   Cl1  706   0.123   4.995   1.568
  142DCME    C1  707   4.978   0.090   1.518
  142DCME    Cl  708   4.931   0.058   1.347
  142DCME    H1  709   0.002   0.196   1.528
  142DCME    H2  710   4.895   0.061   1.582
  143DCME   Cl1  711   3.817   0.378   4.337
  143DCME    C1  712   3.774   0.338   4.507
  143DCME    Cl  713   3.679   0.186   4.522
  143DCME    H1  714   3.714   0.419   4.547
  143DCME    H2  715   3.866   0.326   4.564
  144DCME   Cl1  716   4.949   3.212   1.161
  144DCME    C1  717   0.003   3.359   1.075
  144DCME    Cl  718   4.963   3.356   0.900
  144DCME    H1  719   0.112   3.367   1.085
  144DCME    H2  720   4.954   3.446   1.121
  145DCME   Cl1  721   2.980   3.601   1.749
  145DCME    C1  722   2.835   3.595   1.856
  145DCME    Cl  723   2.875   3.619   2.030
  145DCME    H1  724   2.788   3.497   1.845
  145DCME    H2  725   2.766   3.674   1.825
  146DCME   Cl1  726   2.070   4.155   2.224
  146DCME    C1  727   1.937   4.064   2.144
  146DCME    Cl  728   1.988   3.903   2.083
  146DCME    H1  729   1.902   4.123   2.059
  146DCME    H2  730   1.857   4.049   2.217
  147DCME   Cl1  731   2.057   0.276   3.919
  147DCME    C1  732   2.001   0.105   3.932
  147DCME    Cl  733   1.853   0.073   3.835
  147DCME    H1  734   1.978   0.084   4.036
  147DCME    H2  735   2.080   0.040   3.896
  148DCME   Cl1  736   2.145   3.951   3.149
  148DCME    C1  737   2.228   3.817   3.062
  148DCME    Cl  738   2.235   3.842   2.884
  148DCME    H1  739   2.172   3.725   3.081
  148DCME    H2  740   2.330   3.810   3.099
  149DCME   Cl1  741   3.628   2.713   3.230
  149DCME    C1  742   3.627   2.545   3.165
  149DCME    Cl  743   3.785   2.461   3.187
  149DCME    H1  744   3.605   2.549   3.059
  149DCME    H2  745   3.552   2.488   3.219
  150DCME   Cl1  746   1.650   0.622   1.197
  150DCME    C1  747   1.478   0.576   1.165
  150DCME    Cl  748   1.381   0.710   1.094
  150DCME    H1  749   1.433   0.547   1.260
  150DCME    H2  750   1.478   0.493   1.095
  151DCME   Cl1  751   4.225   4.348   0.783
  151DCME    C1  752   4.259   4.299   0.613
  151DCME    Cl  753   4.344   4.426   0.518
  151DCME    H1  754   4.163   4.279   0.564
  151DCME    H2  755   4.322   4.210   0.616
  152DCME   Cl1  756   3.793   0.966   0.300
  152DCME    C1  757   3.614   0.960   0.284
  152DCME    Cl  758   3.556   0.997   0.118
  152DCME    H1  759   3.570   1.033   0.352
  152DCME    H2  760   3.581   0.859   0.309
  153DCME   Cl1  761   4.783   0.837   2.506
  153DCME    C1  762   4.682   0.781   2.644
  153DCME    Cl  763   4.575   0.911   2.708
  153DCME    H1  764   4.748   0.748   2.724
  153DCME    H2  765   4.618   0.699   2.609
  154DCME   Cl1  766   3.556   2.650   1.352
  154DCME    C1  767   3.387   2.587   1.348
  154DCME    Cl  768   3.298   2.613   1.502
  154DCME    H1  769   3.392   2.480   1.329
  154DCME    H2  770   3.333   2.639   1.269
  155DCME   Cl1  771   4.287   3.052   0.410
  155DCME    C1  772   4.146   3.030   0.519
  155DCME    Cl  773   4.174   2.906   0.646
  155DCME    H1  774   4.061   2.998   0.459
  155DCME    H2  775   4.125   3.125   0.569
  156DCME   Cl1  776   3.404   4.637   1.018
  156DCME    C1  777   3.495   4.582   0.873
  156DCME    Cl  778   3.401   4.596   0.720
  156DCME    H1  779   3.521   4.477   0.887
  156DCME    H2  780   3.585   4.643   0.864
  157DCME   Cl1  781   2.069   3.790   0.184
  157DCME    C1  782   1.901   3.726   0.180
  157DCME    Cl  783   1.813   3.749   0.336
  157DCME    H1  784   1.906   3.619   0.160
  157DCME    H2  785   1.846   3.779   0.102
  158DCME   Cl1  786   1.505   3.506   2.347
  158DCME    C1  787   1.384   3.376   2.320
  158DCME    Cl  788   1.448   3.239   2.223
  158DCME    H1  789   1.299   3.419   2.266
  158DCME    H2  790   1.353   3.337   2.417
  159DCME   Cl1  791   3.111   2.360   2.876
  159DCME    C1  792   2.981   2.437   2.973
  159DCME    Cl  793   2.956   2.361   3.134
  159DCME    H1  794   2.887   2.429   2.917
  159DCME    H2  795   3.007   2.542   2.988
  160DCME   Cl1  796   2.717   3.433   1.591
  160DCME    C1  797   2.860   3.327   1.563
  160DCME    Cl  798   2.819   3.152   1.570
  160DCME    H1  799   2.934   3.347   1.640
  160DCME    H2  800   2.899   3.348   1.464
  161DCME   Cl1  801   3.391   3.380   1.978
  161DCME    C1  802   3.254   3.390   1.862
  161DCME    Cl  803   3.216   3.231   1.786
  161DCME    H1  804   3.281   3.460   1.783
  161DCME    H2  805   3.166   3.424   1.916
  162DCME   Cl1  806   2.922   3.281   1.920
  162DCME    C1  807   2.931   3.282   2.100
  162DCME    Cl  808   3.092   3.329   2.164
  162DCME    H1  809   2.907   3.181   2.135
  162DCME    H2  810   2.858   3.354   2.136
  163DCME   Cl1  811   0.420   3.878   3.721
  163DCME    C1  812   0.349   3.757   3.608
  163DCME    Cl  813   0.318   3.822   3.444
  163DCME    H1  814   0.255   3.722   3.650
  163DCME    H2  815   0.420   3.674   3.599
  164DCME   Cl1  816   1.267   2.875   0.835
  164DCME    C1  817   1.183   2.851   0.677
  164DCME    Cl  818   1.054   2.973   0.648
  164DCME    H1  819   1.137   2.752   0.679
  164DCME    H2  820   1.257   2.859   0.597
  165DCME   Cl1  821   4.677   3.454   1.057
  165DCME    C1  822   4.635   3.459   0.882
  165DCME    Cl  823   4.480   3.545   0.851
  165DCME    H1  824   4.625   3.357   0.847
  165DCME    H2  825   4.715   3.511   0.829
  166DCME   Cl1  826   4.842   3.294   3.327
  166DCME    C1  827   4.688   3.262   3.240
  166DCME    Cl  828   4.704   3.280   3.061
  166DCME    H1  829   4.614   3.334   3.274
  166DCME    H2  830   4.657   3.160   3.261
  167DCME   Cl1  831   3.687   2.042   3.847
  167DCME    C1  832   3.678   2.105   4.015
  167DCME    Cl  833   3.830   2.079   4.108
  167DCME    H1  834   3.597   2.053   4.066
  167DCME    H2  835   3.658   2.212   4.010
  168DCME   Cl1  836   2.532   1.699   1.674
  168DCME    C1  837   2.492   1.771   1.515
  168DCME    Cl  838   2.603   1.717   1.384
  168DCME    H1  839   2.499   1.879   1.523
  168DCME    H2  840   2.390   1.740   1.488
  169DCME   Cl1  841   1.696   4.149   1.545
  169DCME    C1  842   1.802   4.178   1.687
  169DCME    Cl  843   1.734   4.113   1.841
  169DCME    H1  844   1.815   4.286   1.699
  169DCME    H2  845   1.898   4.129   1.669
  170DCME   Cl1  846   0.546   4.841   0.520
  170DCME    C1  847   0.537   4.774   0.353
  170DCME    Cl  848   0.374   4.792   0.277
  170DCME    H1  849   0.561   4.667   0.358
  170DCME    H2  850   0.609   4.827   0.291
  171DCME   Cl1  851   0.709   3.065   2.940
  171DCME    C1  852   0.616   3.146   3.071
  171DCME    Cl  853   0.701   3.141   3.230
  171DCME    H1  854   0.520   3.096   3.082
  171DCME    H2  855   0.603   3.251   3.043
  172DCME   Cl1  856   1.181   3.190   0.989
  172DCME    C1  857   1.020   3.131   0.933
  172DCME    Cl  858   0.888   3.166   1.050
  172DCME    H1  859   1.026   3.023   0.920
  172DCME    H2  860   0.996   3.181   0.839
  173DCME   Cl1  861   4.113   0.284   0.005
  173DCME    C1  862   4.128   0.225   4.835
  173DCME    Cl  863   3.974   0.161   4.768
  173DCME    H1  864   4.202   0.145   4.834
  173DCME    H2  865   4.161   0.308   4.773
  174DCME   Cl1  866   4.137   0.915   0.119
  174DCME    C1  867   4.250   0.775   0.116
  174DCME    Cl  868   4.169   0.616   0.143
  174DCME    H1  869   4.324   0.789   0.195
  174DCME    H2  870   4.298   0.773   0.018
  175DCME   Cl1  871   0.067   0.065   2.959
  175DCME    C1  872   0.207   0.055   2.845
  175DCME    Cl  873   0.215   0.193   2.731
  175DCME    H1  874   0.196   4.964   2.787
  175DCME    H2  875   0.299   0.053   2.904
  176DCME   Cl1  876   0.966   2.893   3.407
  176DCME    C1  877   1.089   3.005   3.339
  176DCME    Cl  878   1.089   3.010   3.159
  176DCME    H1  879   1.188   2.973   3.373
  176DCME    H2  880   1.067   3.106   3.375
  177DCME   Cl1  881   1.861   0.630   2.964
  177DCME    C1  882   1.832   0.715   3.121
  177DCME    Cl  883   1.974   0.706   3.231
  177DCME    H1  884   1.747   0.668   3.170
  177DCME    H2  885   1.812   0.819   3.099
  178DCME   Cl1  886   0.517   3.994   2.631
  178DCME    C1  887   0.439   4.047   2.478
  178DCME    Cl  888   0.333   3.921   2.406
  178DCME    H1  889   0.517   4.071   2.406
  178DCME    H2  890   0.377   4.134   2.500
  179DCME   Cl1  891   3.748   0.454   2.345
  179DCME    C1  892   3.650   0.385   2.479
  179DCME    Cl  893   3.479   0.354   2.434
  179DCME    H1  894   3.651   0.457   2.562
  179DCME    H2  895   3.695   0.290   2.509
  180DCME   Cl1  896   4.471   4.234   0.215
  180DCME    C1  897   4.608   4.170   0.313
  180DCME    Cl  898   4.567   4.154   0.487
  180DCME    H1  899   4.692   4.238   0.304
  180DCME    H2  900   4.635   4.071   0.275
  181DCME   Cl1  901   1.464   2.838   4.979
  181DCME    C1  902   1.521   2.756   0.129
  181DCME    Cl  903   1.391   2.667   0.216
  181DCME    H1  904   1.561   2.833   0.195
  181DCME    H2  905   1.599   2.685   0.101
  182DCME   Cl1  906   3.833   1.202   3.660
  182DCME    C1  907   3.860   1.026   3.684
  182DCME    Cl  908   3.998   0.962   3.588
  182DCME    H1  909   3.770   0.973   3.653
  182DCME    H2  910   3.881   1.009   3.790
  183DCME   Cl1  911   4.921   4.319   0.663
  183DCME    C1  912   4.950   4.198   0.793
  183DCME    Cl  913   4.997   4.274   0.950
  183DCME    H1  914   0.030   4.132   0.761
  183DCME    H2  915   4.857   4.143   0.809
  184DCME   Cl1  916   0.317   2.257   4.506
  184DCME    C1  917   0.273   2.163   4.359
  184DCME    Cl  918   0.226   1.993   4.396
  184DCME    H1  919   0.361   2.160   4.294
  184DCME    H2  920   0.189   2.212   4.310
  185DCME   Cl1  921   0.070   3.143   3.538
  185DCME    C1  922   0.198   3.047   3.456
  185DCME    Cl  923   0.352   3.137   3.434
  185DCME    H1  924   0.161   3.019   3.357
  185DCME    H2  925   0.218   2.959   3.517
  186DCME   Cl1  926   3.059   3.148   2.641
  186DCME    C1  927   3.055   3.250   2.493
  186DCME    Cl  928   3.136   3.409   2.514
  186DCME    H1  929   2.951   3.267   2.466
  186DCME    H2  930   3.108   3.195   2.414
  187DCME   Cl1  931   1.694   4.683   0.494
  187DCME    C1  932   1.551   4.746   0.405
  187DCME    Cl  933   1.500   4.639   0.270
  187DCME    H1  934   1.577   4.844   0.364
  187DCME    H2  935   1.468   4.755   0.475
  188DCME   Cl1  936   0.229   3.572   4.224
  188DCME    C1  937   0.194   3.732   4.149
  188DCME    Cl  938   0.131   3.719   3.981
  188DCME    H1  939   0.287   3.789   4.146
  188DCME    H2  940   0.119   3.782   4.210
  189DCME   Cl1  941   0.429   3.216   2.522
  189DCME    C1  942   0.351   3.278   2.672
  189DCME    Cl  943   0.395   3.185   2.820
  189DCME    H1  944   0.243   3.274   2.659
  189DCME    H2  945   0.385   3.381   2.686
  190DCME   Cl1  946   4.273   2.645   1.382
  190DCME    C1  947   4.332   2.677   1.215
  190DCME    Cl  948   4.508   2.645   1.195
  190DCME    H1  949   4.313   2.782   1.192
  190DCME    H2  950   4.277   2.612   1.146
  191DCME   Cl1  951   1.929   4.710   2.318
  191DCME    C1  952   1.930   4.851   2.430
  191DCME    Cl  953   2.048   4.833   2.564
  191DCME    H1  954   1.830   4.861   2.473
  191DCME    H2  955   1.957   4.940   2.372
  192DCME   Cl1  956   1.562   1.209   2.311
  192DCME    C1  957   1.659   1.126   2.184
  192DCME    Cl  958   1.576   1.122   2.024
  192DCME    H1  959   1.676   1.024   2.216
  192DCME    H2  960   1.753   1.179   2.171
  193DCME   Cl1  961   3.615   0.177   3.961
  193DCME    C1  962   3.613   0.283   3.816
  193DCME    Cl  963   3.448   0.338   3.769
  193DCME    H1  964   3.654   0.226   3.733
  193DCME    H2  965   3.674   0.371   3.836
  194DCME   Cl1  966   4.919   0.201   2.522
  194DCME    C1  967   4.762   0.156   2.598
  194DCME    Cl  968   4.731   0.243   2.752
  194DCME    H1  969   4.764   0.049   2.619
  194DCME    H2  970   4.682   0.182   2.528
  195DCME   Cl1  971   3.728   0.522   3.614
  195DCME    C1  972   3.854   0.425   3.530
  195DCME    Cl  973   3.815   0.250   3.519
  195DCME    H1  974   3.947   0.436   3.585
  195DCME    H2  975   3.864   0.464   3.428
  196DCME   Cl1  976   3.180   1.183   1.123
  196DCME    C1  977   3.131   1.148   1.292
  196DCME    Cl  978   3.040   1.283   1.368
  196DCME    H1  979   3.221   1.129   1.351
  196DCME    H2  980   3.067   1.060   1.291
  197DCME   Cl1  981   4.839   2.669   1.915
  197DCME    C1  982   4.850   2.687   1.736
  197DCME    Cl  983   0.019   2.688   1.676
  197DCME    H1  984   4.804   2.782   1.710
  197DCME    H2  985   4.797   2.604   1.689
  198DCME   Cl1  986   2.048   2.020   0.880
  198DCME    C1  987   2.197   1.962   0.797
  198DCME    Cl  988   2.225   1.785   0.820
  198DCME    H1  989   2.283   2.016   0.837
  198DCME    H2  990   2.185   1.981   0.691
  199DCME   Cl1  991   4.270   3.742   1.172
  199DCME    C1  992   4.412   3.836   1.231
  199DCME    Cl  993   4.524   3.737   1.332
  199DCME    H1  994   4.375   3.919   1.292
  199DCME    H2  995   4.467   3.872   1.145
  200DCME   Cl1  996   4.291   2.364   1.039
  200DCME    C1  997   4.386   2.335   1.189
  200DCME    Cl  998   4.360   2.171   1.259
  200DCME    H1  999   4.355   2.409   1.264
  200DCME    H2 1000   4.492   2.347   1.166
  201DCME   Cl1 1001   0.816   2.220   2.949
  201DCME    C1 1002   0.749   2.096   2.837
  201DCME    Cl 1003   0.749   2.149   2.665
  201DCME    H1 1004   0.646   2.075   2.867
  201DCME    H2 1005   0.810   2.006   2.845
  202DCME   Cl1 1006   1.273   2.768   1.260
  202DCME    C1 1007   1.394   2.892   1.213
  202DCME    Cl 1008   1.555   2.822   1.171
  202DCME    H1 1009   1.408   2.960   1.297
  202DCME    H2 1010   1.356   2.945   1.126
  203DCME   Cl1 1011   3.347   2.644   3.014
  203DCME    C1 1012   3.282   2.730   3.158
  203DCME    Cl 1013   3.120   2.671   3.209
  203DCME    H1 1014   3.274   2.835   3.134
  203DCME    H2 1015   3.352   2.715   3.242
  204DCME   Cl1 1016   1.390   4.579   3.628
  204DCME    C1 1017   1.537   4.661   3.565
  204DCME    Cl 1018   1.644   4.552   3.470
  204DCME    H1 1019   1.595   4.700   3.650
  204DCME    H2 1020   1.505   4.742   3.500
  205DCME   Cl1 1021   0.630   2.201   0.501
  205DCME    C1 1022   0.779   2.193   0.401
  205DCME    Cl 1023   0.797   2.038   0.312
  205DCME    H1 1024   0.865   2.205   0.466
  205DCME    H2 1025   0.774   2.274   0.327
  206DCME   Cl1 1026   2.925   0.964   1.517
  206DCME    C1 1027   3.033   1.055   1.629
  206DCME    Cl 1028   3.207   1.020   1.603
  206DCME    H1 1029   3.008   1.026   1.731
  206DCME    H2 1030   3.017   1.162   1.614
  207DCME   Cl1 1031   4.416   0.629   3.882
  207DCME    C1 1032   4.558   0.715   3.811
  207DCME    Cl 1033   4.581   0.681   3.636
  207DCME    H1 1034   4.647   0.682   3.864
  207DCME    H2 1035   4.543   0.822   3.824
  208DCME   Cl1 1036   1.041   0.928   1.488
  208DCME    C1 1037   0.873   0.872   1.521
  208DCME    Cl 1038   0.779   0.839   1.371
  208DCME    H1 1039   0.822   0.950   1.577
  208DCME    H2 1040   0.878   0.780   1.579
  209DCME   Cl1 1041   3.325   4.818   3.184
  209DCME    C1 1042   3.468   4.923   3.217
  209DCME    Cl 1043   3.625   4.841   3.189
  209DCME    H1 1044   3.464   4.954   3.322
  209DCME    H2 1045   3.462   0.010   3.151
  210DCME   Cl1 1046   1.228   3.349   3.986
  210DCME    C1 1047   1.224   3.407   4.156
  210DCME    Cl 1048   1.384   3.465   4.216
  210DCME    H1 1049   1.192   3.324   4.219
  210DCME    H2 1050   1.154   3.491   4.162
  211DCME   Cl1 1051   0.333   3.480   3.799
  211DCME    C1 1052   0.306   3.377   3.654
  211DCME    Cl 1053   0.244   3.468   3.512
  211DCME    H1 1054   0.233   3.301   3.679
  211DCME    H2 1055   0.401   3.331   3.627
  212DCME   Cl1 1056   2.192   4.969   3.648
  212DCME    C1 1057   2.273   4.831   3.730
  212DCME    Cl 1058   2.289   4.854   3.908
  212DCME    H1 1059   2.373   4.821   3.688
  212DCME    H2 1060   2.214   4.741   3.713
  213DCME   Cl1 1061   1.716   0.493   2.533
  213DCME    C1 1062   1.669   0.568   2.690
  213DCME    Cl 1063   1.503   0.637   2.689
  213DCME    H1 1064   1.739   0.648   2.713
  213DCME    H2 1065   1.673   0.490   2.767
  214DCME   Cl1 1066   0.919   4.710   2.015
  214DCME    C1 1067   1.078   4.667   2.088
  214DCME    Cl 1068   1.198   4.802   2.079
  214DCME    H1 1069   1.119   4.582   2.034
  214DCME    H2 1070   1.062   4.644   2.193
  215DCME   Cl1 1071   1.798   0.465   1.954
  215DCME    C1 1072   1.954   0.533   2.015
  215DCME    Cl 1073   1.999   0.472   2.178
  215DCME    H1 1074   1.944   0.642   2.020
  215DCME    H2 1075   2.032   0.505   1.945
  216DCME   Cl1 1076   3.528   3.528   0.120
  216DCME    C1 1077   3.658   3.414   0.172
  216DCME    Cl 1078   3.769   3.483   0.296
  216DCME    H1 1079   3.717   3.388   0.084
  216DCME    H2 1080   3.610   3.326   0.215
  217DCME   Cl1 1081   1.398   2.118   4.174
  217DCME    C1 1082   1.494   2.252   4.100
  217DCME    Cl 1083   1.428   2.308   3.942
  217DCME    H1 1084   1.595   2.216   4.083
  217DCME    H2 1085   1.493   2.337   4.169
  218DCME   Cl1 1086   2.572   3.839   3.997
  218DCME    C1 1087   2.751   3.824   4.014
  218DCME    Cl 1088   2.813   3.662   3.963
  218DCME    H1 1089   2.777   3.839   4.119
  218DCME    H2 1090   2.798   3.899   3.951
  219DCME   Cl1 1091   4.891   4.634   0.483
  219DCME    C1 1092   4.906   4.813   0.481
  219DCME    Cl 1093   0.060   4.871   0.410
  219DCME    H1 1094   4.900   4.849   0.584
  219DCME    H2 1095   4.823   4.854   0.422
  220DCME   Cl1 1096   4.115   3.174   3.203
  220DCME    C1 1097   3.957   3.259   3.211
  220DCME    Cl 1098   3.821   3.151   3.259
  220DCME    H1 1099   3.935   3.300   3.112
  220DCME    H2 1100   3.965   3.339   3.285
  221DCME   Cl1 1101   4.694   3.103   2.751
  221DCME    C1 1102   4.862   3.112   2.815
  221DCME    Cl 1103   4.935   3.276   2.794
  221DCME    H1 1104   4.923   3.041   2.759
  221DCME    H2 1105   4.860   3.088   2.921
  222DCME   Cl1 1106   3.132   3.346   0.473
  222DCME    C1 1107   3.059   3.291   0.628
  222DCME    Cl 1108   3.161   3.331   0.771
  222DCME    H1 1109   3.048   3.183   0.624
  222DCME    H2 1110   2.962   3.340   0.640
  223DCME   Cl1 1111   2.267   0.898   2.468
  223DCME    C1 1112   2.286   0.871   2.644
  223DCME    Cl 1113   2.131   0.826   2.726
  223DCME    H1 1114   2.322   0.964   2.689
  223DCME    H2 1115   2.357   0.790   2.659
  224DCME   Cl1 1116   4.703   1.103   2.303
  224DCME    C1 1117   4.632   1.229   2.197
  224DCME    Cl 1118   4.630   1.181   2.023
  224DCME    H1 1119   4.693   1.320   2.206
  224DCME    H2 1120   4.530   1.248   2.229
  225DCME   Cl1 1121   3.125   3.316   1.170
  225DCME    C1 1122   3.083   3.187   1.289
  225DCME    Cl 1123   3.146   3.221   1.453
  225DCME    H1 1124   3.126   3.094   1.254
  225DCME    H2 1125   2.974   3.179   1.294
  226DCME   Cl1 1126   0.024   1.853   0.300
  226DCME    C1 1127   4.961   1.991   0.203
  226DCME    Cl 1128   0.040   2.006   0.042
  226DCME    H1 1129   4.978   2.083   0.259
  226DCME    H2 1130   4.854   1.974   0.187
  227DCME   Cl1 1131   2.121   1.970   0.423
  227DCME    C1 1132   2.270   1.870   0.430
  227DCME    Cl 1133   2.400   1.943   0.532
  227DCME    H1 1134   2.310   1.859   0.329
  227DCME    H2 1135   2.245   1.772   0.472
  228DCME   Cl1 1136   0.212   3.998   0.924
  228DCME    C1 1137   0.219   4.049   1.096
  228DCME    Cl 1138   0.258   3.913   1.208
  228DCME    H1 1139   0.122   4.090   1.124
  228DCME    H2 1140   0.298   4.125   1.106
  229DCME   Cl1 1141   0.890   1.785   0.662
  229DCME    C1 1142   0.789   1.934   0.665
  229DCME    Cl 1143   0.882   2.080   0.713
  229DCME    H1 1144   0.708   1.919   0.736
  229DCME    H2 1145   0.750   1.950   0.564
  230DCME   Cl1 1146   0.443   0.003   4.179
  230DCME    C1 1147   0.422   4.923   4.338
  230DCME    Cl 1148   0.559   4.815   4.381
  230DCME    H1 1149   0.330   4.864   4.334
  230DCME    H2 1150   0.413   0.000   4.415
  231DCME   Cl1 1151   4.374   0.836   3.387
  231DCME    C1 1152   4.352   0.981   3.491
  231DCME    Cl 1153   4.344   0.942   3.667
  231DCME    H1 1154   4.259   1.030   3.463
  231DCME    H2 1155   4.437   1.047   3.476
  232DCME   Cl1 1156   1.714   3.629   4.903
  232DCME    C1 1157   1.558   3.663   4.819
  232DCME    Cl 1158   1.454   3.517   4.801
  232DCME    H1 1159   1.581   3.701   4.719
  232DCME    H2 1160   1.503   3.737   4.877
  233DCME   Cl1 1161   2.416   4.970   0.373
  233DCME    C1 1162   2.401   4.983   0.552
  233DCME    Cl 1163   2.234   0.018   0.607
  233DCME    H1 1164   2.466   0.064   0.586
  233DCME    H2 1165   2.433   4.888   0.595
  234DCME   Cl1 1166   4.995   2.368   0.243
  234DCME    C1 1167   4.905   2.329   0.092
  234DCME    Cl 1168   4.761   2.225   0.120
  234DCME    H1 1169   4.973   2.277   0.024
  234DCME    H2 1170   4.870   2.423   0.048
  235DCME   Cl1 1171   1.201   4.868   3.580
  235DCME    C1 1172   1.033   4.803   3.593
  235DCME    Cl 1173   0.907   4.927   3.559
  235DCME    H1 1174   1.019   4.767   3.695
  235DCME    H2 1175   1.022   4.723   3.521
  236DCME   Cl1 1176   2.752   1.725   3.835
  236DCME    C1 1177   2.928   1.742   3.802
  236DCME    Cl 1178   2.968   1.735   3.627
  236DCME    H1 1179   2.980   1.661   3.853
  236DCME    H2 1180   2.960   1.839   3.842
  237DCME   Cl1 1181   2.271   3.046   1.657
  237DCME    C1 1182   2.293   2.876   1.599
  237DCME    Cl 1183   2.191   2.757   1.689
  237DCME    H1 1184   2.398   2.849   1.615
  237DCME    H2 1185   2.267   2.872   1.494
  238DCME   Cl1 1186   1.276   4.942   0.476
  238DCME    C1 1187   1.357   0.020   0.616
  238DCME    Cl 1188   1.532   4.980   0.629
  238DCME    H1 1189   1.308   4.986   0.707
  238DCME    H2 1190   1.348   0.128   0.604
  239DCME   Cl1 1191   2.348   3.131   0.612
  239DCME    C1 1192   2.210   3.199   0.706
  239DCME    Cl 1193   2.060   3.102   0.689
  239DCME    H1 1194   2.190   3.299   0.667
  239DCME    H2 1195   2.238   3.202   0.811
  240DCME   Cl1 1196   0.893   4.991   4.319
  240DCME    C1 1197   0.792   0.056   4.453
  240DCME    Cl 1198   0.841   0.221   4.504
  240DCME    H1 1199   0.802   4.989   4.539
  240DCME    H2 1200   0.689   0.060   4.419
  241DCME   Cl1 1201   1.786   4.735   4.429
  241DCME    C1 1202   1.777   4.555   4.432
  241DCME    Cl 1203   1.795   4.481   4.269
  241DCME    H1 1204   1.680   4.527   4.472
  241DCME    H2 1205   1.858   4.518   4.495
  242DCME   Cl1 1206   0.758   1.896   3.098
  242DCME    C1 1207   0.578   1.907   3.100
  242DCME    Cl 1208   0.504   1.852   2.945
  242DCME    H1 1209   0.550   2.011   3.116
  242DCME    H2 1210   0.540   1.843   3.180
  243DCME   Cl1 1211   0.237   0.296   4.223
  243DCME    C1 1212   0.385   0.323   4.124
  243DCME    Cl 1213   0.386   0.483   4.041
  243DCME    H1 1214   0.391   0.245   4.048
  243DCME    H2 1215   0.472   0.320   4.191
  244DCME   Cl1 1216   1.221   0.388   1.171
  244DCME    C1 1217   1.127   0.522   1.247
  244DCME    Cl 1218   1.201   0.585   1.399
  244DCME    H1 1219   1.028   0.483   1.272
  244DCME    H2 1220   1.120   0.604   1.176
  245DCME   Cl1 1221   2.172   0.145   4.893
  245DCME    C1 1222   2.290   0.111   0.024
  245DCME    Cl 1223   2.264   0.213   0.171
  245DCME    H1 1224   2.390   0.131   4.986
  245DCME    H2 1225   2.279   0.007   0.053
  246DCME   Cl1 1226   4.845   2.528   1.417
  246DCME    C1 1227   4.797   2.699   1.393
  246DCME    Cl 1228   4.651   2.747   1.488
  246DCME    H1 1229   4.776   2.714   1.287
  246DCME    H2 1230   4.881   2.761   1.426
  247DCME   Cl1 1231   4.141   0.258   3.684
  247DCME    C1 1232   4.303   0.309   3.743
  247DCME    Cl 1233   4.411   0.368   3.612
  247DCME    H1 1234   4.351   0.223   3.790
  247DCME    H2 1235   4.289   0.391   3.814
  248DCME   Cl1 1236   3.039   0.760   1.818
  248DCME    C1 1237   2.999   0.588   1.849
  248DCME    Cl 1238   3.058   0.478   1.719
  248DCME    H1 1239   2.890   0.578   1.856
  248DCME    H2 1240   3.046   0.558   1.943
  249DCME   Cl1 1241   4.228   4.940   3.408
  249DCME    C1 1242   4.350   0.060   3.464
  249DCME    Cl 1243   4.443   0.004   3.607
  249DCME    H1 1244   4.297   0.151   3.492
  249DCME    H2 1245   4.420   0.079   3.383
  250DCME   Cl1 1246   1.361   3.689   0.115
  250DCME    C1 1247   1.509   3.758   0.192
  250DCME    Cl 1248   1.585   3.888   0.094
  250DCME    H1 1249   1.581   3.678   0.206
  250DCME    H2 1250   1.480   3.801   0.288
  251DCME   Cl1 1251   3.918   3.992   3.856
  251DCME    C1 1252   3.858   3.992   3.687
  251DCME    Cl 1253   3.685   4.039   3.673
  251DCME    H1 1254   3.868   3.891   3.647
  251DCME    H2 1255   3.917   4.063   3.630
  252DCME   Cl1 1256   2.767   1.980   1.585
  252DCME    C1 1257   2.822   2.076   1.443
  252DCME    Cl 1258   2.809   1.987   1.287
  252DCME    H1 1259   2.927   2.102   1.458
  252DCME    H2 1260   2.760   2.166   1.437
  253DCME   Cl1 1261   0.288   3.587   1.543
  253DCME    C1 1262   0.365   3.471   1.430
  253DCME    Cl 1263   0.299   3.480   1.263
  253DCME    H1 1264   0.346   3.370   1.468
  253DCME    H2 1265   0.472   3.492   1.426
  254DCME   Cl1 1266   0.092   4.508   0.237
  254DCME    C1 1267   0.098   4.370   0.353
  254DCME    Cl 1268   4.970   4.248   0.322
  254DCME    H1 1269   0.083   4.410   0.454
  254DCME    H2 1270   0.194   4.321   0.344
  255DCME   Cl1 1271   2.516   4.621   1.073
  255DCME    C1 1272   2.446   4.767   0.995
  255DCME    Cl 1273   2.391   4.737   0.826
  255DCME    H1 1274   2.523   4.844   0.992
  255DCME    H2 1275   2.360   4.799   1.054
  256DCME   Cl1 1276   4.123   4.202   0.309
  256DCME    C1 1277   4.205   4.054   0.369
  256DCME    Cl 1278   4.150   4.003   0.532
  256DCME    H1 1279   4.312   4.073   0.373
  256DCME    H2 1280   4.181   3.973   0.299
  257DCME   Cl1 1281   0.340   3.960   1.552
  257DCME    C1 1282   0.165   3.917   1.555
  257DCME    Cl 1283   0.117   3.837   1.709
  257DCME    H1 1284   0.145   3.849   1.473
  257DCME    H2 1285   0.107   4.009   1.545
  258DCME   Cl1 1286   0.346   4.189   0.089
  258DCME    C1 1287   0.517   4.132   0.082
  258DCME    Cl 1288   0.577   4.107   4.914
  258DCME    H1 1289   0.522   4.036   0.133
  258DCME    H2 1290   0.580   4.206   0.131
  259DCME   Cl1 1291   1.607   3.242   3.341
  259DCME    C1 1292   1.454   3.330   3.309
  259DCME    Cl 1293   1.310   3.255   3.387
  259DCME    H1 1294   1.438   3.331   3.201
  259DCME    H2 1295   1.465   3.432   3.347
  260DCME   Cl1 1296   1.854   2.942   3.091
  260DCME    C1 1297   1.704   2.896   3.179
  260DCME    Cl 1298   1.730   2.758   3.292
  260DCME    H1 1299   1.629   2.867   3.106
  260DCME    H2 1300   1.671   2.982   3.237
  261DCME   Cl1 1301   1.610   0.042   2.537
  261DCME    C1 1302   1.528   4.988   2.386
  261DCME    Cl 1303   1.594   4.834   2.321
  261DCME    H1 1304   1.541   0.065   2.311
  261DCME    H2 1305   1.422   4.973   2.408
  262DCME   Cl1 1306   1.929   3.377   1.165
  262DCME    C1 1307   1.922   3.331   1.339
  262DCME    Cl 1308   1.839   3.453   1.441
  262DCME    H1 1309   2.024   3.319   1.375
  262DCME    H2 1310   1.868   3.236   1.346
  263DCME   Cl1 1311   3.393   2.707   3.578
  263DCME    C1 1312   3.501   2.637   3.704
  263DCME    Cl 1313   3.637   2.541   3.635
  263DCME    H1 1314   3.442   2.572   3.769
  263DCME    H2 1315   3.545   2.719   3.761
  264DCME   Cl1 1316   2.080   4.827   1.061
  264DCME    C1 1317   2.125   4.937   0.926
  264DCME    Cl 1318   2.253   0.055   0.972
  264DCME    H1 1319   2.037   4.993   0.896
  264DCME    H2 1320   2.162   4.876   0.843
  265DCME   Cl1 1321   2.200   2.614   2.122
  265DCME    C1 1322   2.068   2.734   2.147
  265DCME    Cl 1323   2.118   2.874   2.248
  265DCME    H1 1324   1.984   2.685   2.197
  265DCME    H2 1325   2.037   2.772   2.049
  266DCME   Cl1 1326   3.605   2.400   2.381
  266DCME    C1 1327   3.465   2.410   2.268
  266DCME    Cl 1328   3.514   2.395   2.095
  266DCME    H1 1329   3.417   2.507   2.282
  266DCME    H2 1330   3.397   2.328   2.291
  267DCME   Cl1 1331   3.070   2.117   3.669
  267DCME    C1 1332   3.051   2.176   3.500
  267DCME    Cl 1333   3.162   2.093   3.385
  267DCME    H1 1334   3.072   2.283   3.498
  267DCME    H2 1335   2.948   2.156   3.468
  268DCME   Cl1 1336   2.565   0.069   0.829
  268DCME    C1 1337   2.722   0.096   0.746
  268DCME    Cl 1338   2.729   0.024   0.581
  268DCME    H1 1339   2.801   0.049   0.806
  268DCME    H2 1340   2.738   0.203   0.737
  269DCME   Cl1 1341   4.266   0.551   4.808
  269DCME    C1 1342   4.404   0.485   4.902
  269DCME    Cl 1343   4.434   0.310   4.874
  269DCME    H1 1344   4.382   0.499   0.008
  269DCME    H2 1345   4.494   0.539   4.873
  270DCME   Cl1 1346   0.567   4.372   4.645
  270DCME    C1 1347   0.684   4.508   4.644
  270DCME    Cl 1348   0.610   4.665   4.693
  270DCME    H1 1349   0.723   4.519   4.542
  270DCME    H2 1350   0.764   4.486   4.714
  271DCME   Cl1 1351   4.553   3.505   4.623
  271DCME    C1 1352   4.458   3.397   4.732
  271DCME    Cl 1353   4.299   3.466   4.781
  271DCME    H1 1354   4.517   3.380   4.823
  271DCME    H2 1355   4.441   3.303   4.680
  272DCME   Cl1 1356   2.047   3.385   4.121
  272DCME    C1 1357   1.980   3.543   4.069
  272DCME    Cl 1358   1.828   3.586   4.155
  272DCME    H1 1359   1.958   3.538   3.962
  272DCME    H2 1360   2.054   3.620   4.091
  273DCME   Cl1 1361   4.588   1.388   2.481
  273DCME    C1 1362   4.675   1.541   2.443
  273DCME    Cl 1363   4.657   1.590   2.271
  273DCME    H1 1364   4.781   1.527   2.464
  273DCME    H2 1365   4.633   1.620   2.506
  274DCME   Cl1 1366   0.509   4.542   1.246
  274DCME    C1 1367   0.463   4.451   1.098
  274DCME    Cl 1368   0.288   4.410   1.091
  274DCME    H1 1369   0.520   4.358   1.096
  274DCME    H2 1370   0.487   4.513   1.011
  275DCME   Cl1 1371   1.417   0.456   1.916
  275DCME    C1 1372   1.309   0.480   1.774
  275DCME    Cl 1373   1.318   0.345   1.655
  275DCME    H1 1374   1.340   0.571   1.723
  275DCME    H2 1375   1.207   0.488   1.810
  276DCME   Cl1 1376   0.313   3.082   4.345
  276DCME    C1 1377   0.255   3.224   4.251
  276DCME    Cl 1378   0.337   3.241   4.092
  276DCME    H1 1379   0.273   3.314   4.310
  276DCME    H2 1380   0.148   3.211   4.233
  277DCME   Cl1 1381   4.020   3.667   3.676
  277DCME    C1 1382   4.144   3.796   3.665
  277DCME    Cl 1383   4.127   3.898   3.518
  277DCME    H1 1384   4.242   3.748   3.662
  277DCME    H2 1385   4.136   3.860   3.753
  278DCME   Cl1 1386   3.016   3.714   1.049
  278DCME    C1 1387   3.037   3.585   0.926
  278DCME    Cl 1388   2.890   3.559   0.825
  278DCME    H1 1389   3.059   3.492   0.978
  278DCME    H2 1390   3.119   3.614   0.860
  279DCME   Cl1 1391   2.001   4.813   4.084
  279DCME    C1 1392   1.821   4.815   4.089
  279DCME    Cl 1393   1.754   4.969   4.154
  279DCME    H1 1394   1.789   4.734   4.154
  279DCME    H2 1395   1.783   4.801   3.988
  280DCME   Cl1 1396   2.029   3.013   1.387
  280DCME    C1 1397   1.947   2.995   1.546
  280DCME    Cl 1398   1.891   3.151   1.615
  280DCME    H1 1399   2.018   2.951   1.617
  280DCME    H2 1400   1.860   2.930   1.533
  281DCME   Cl1 1401   1.040   0.268   1.455
  281DCME    C1 1402   0.949   0.139   1.368
  281DCME    Cl 1403   1.022   0.095   1.210
  281DCME    H1 1404   0.848   0.176   1.350
  281DCME    H2 1405   0.948   0.050   1.431
  282DCME   Cl1 1406   3.203   2.434   3.693
  282DCME    C1 1407   3.351   2.338   3.654
  282DCME    Cl 1408   3.448   2.296   3.799
  282DCME    H1 1409   3.413   2.398   3.587
  282DCME    H2 1410   3.320   2.246   3.605
  283DCME   Cl1 1411   2.448   0.686   2.894
  283DCME    C1 1412   2.560   0.823   2.928
  283DCME    Cl 1413   2.585   0.930   2.785
  283DCME    H1 1414   2.656   0.782   2.957
  283DCME    H2 1415   2.517   0.883   3.008
  284DCME   Cl1 1416   2.457   4.854   2.819
  284DCME    C1 1417   2.348   4.712   2.803
  284DCME    Cl 1418   2.375   4.588   2.931
  284DCME    H1 1419   2.366   4.666   2.705
  284DCME    H2 1420   2.245   4.748   2.810
  285DCME   Cl1 1421   1.412   4.552   4.475
  285DCME    C1 1422   1.452   4.404   4.379
  285DCME    Cl 1423   1.556   4.287   4.469
  285DCME    H1 1424   1.506   4.435   4.289
  285DCME    H2 1425   1.359   4.354   4.354
  286DCME   Cl1 1426   0.677   4.570   4.025
  286DCME    C1 1427   0.540   4.666   4.091
  286DCME    Cl 1428   0.392   4.658   3.988
  286DCME    H1 1429   0.571   4.770   4.097
  286DCME    H2 1430   0.515   4.627   4.189
  287DCME   Cl1 1431   0.122   2.797   3.976
  287DCME    C1 1432   0.097   2.960   4.048
  287DCME    Cl 1433   0.029   2.953   4.214
  287DCME    H1 1434   0.027   3.014   3.985
  287DCME    H2 1435   0.194   3.011   4.051
  288DCME   Cl1 1436   0.789   1.623   2.306
  288DCME    C1 1437   0.703   1.615   2.148
  288DCME    Cl 1438   0.763   1.483   2.041
  288DCME    H1 1439   0.717   1.711   2.097
  288DCME    H2 1440   0.598   1.597   2.168
  289DCME   Cl1 1441   2.669   1.454   2.321
  289DCME    C1 1442   2.557   1.512   2.449
  289DCME    Cl 1443   2.628   1.502   2.614
  289DCME    H1 1444   2.467   1.449   2.446
  289DCME    H2 1445   2.533   1.616   2.428
  290DCME   Cl1 1446   3.244   1.818   3.803
  290DCME    C1 1447   3.287   1.858   3.633
  290DCME    Cl 1448   3.411   1.987   3.622
  290DCME    H1 1449   3.197   1.891   3.582
  290DCME    H2 1450   3.327   1.768   3.586
  291DCME   Cl1 1451   0.336   2.182   4.019
  291DCME    C1 1452   0.360   2.032   3.922
  291DCME    Cl 1453   0.352   2.061   3.745
  291DCME    H1 1454   0.282   1.960   3.949
  291DCME    H2 1455   0.459   1.992   3.945
  292DCME   Cl1 1456   1.162   4.746   0.155
  292DCME    C1 1457   1.144   4.847   0.007
  292DCME    Cl 1458   1.184   4.758   4.855
  292DCME    H1 1459   1.211   4.933   0.016
  292DCME    H2 1460   1.040   4.880   0.000
  293DCME   Cl1 1461   3.308   2.929   1.669
  293DCME    C1 1462   3.413   2.936   1.523
  293DCME    Cl 1463   3.322   2.930   1.368
  293DCME    H1 1464   3.481   2.850   1.526
  293DCME    H2 1465   3.469   3.030   1.526
  294DCME   Cl1 1466   0.023   1.883   1.154
  294DCME    C1 1467   4.874   1.959   1.219
  294DCME    Cl 1468   4.752   1.839   1.276
  294DCME    H1 1469   4.829   2.018   1.140
  294DCME    H2 1470   4.902   2.022   1.304
  295DCME   Cl1 1471   2.949   1.365   2.548
  295DCME    C1 1472   2.960   1.540   2.590
  295DCME    Cl 1473   3.129   1.597   2.612
  295DCME    H1 1474   2.906   1.556   2.683
  295DCME    H2 1475   2.916   1.597   2.508
  296DCME   Cl1 1476   0.870   1.698   1.018
  296DCME    C1 1477   0.869   1.878   1.008
  296DCME    Cl 1478   0.702   1.946   1.002
  296DCME    H1 1479   0.921   1.907   0.918
  296DCME    H2 1480   0.918   1.918   1.097
  297DCME   Cl1 1481   0.235   3.487   2.905
  297DCME    C1 1482   0.124   3.577   2.795
  297DCME    Cl 1483   0.145   3.533   2.622
  297DCME    H1 1484   0.145   3.684   2.806
  297DCME    H2 1485   0.021   3.555   2.824
  298DCME   Cl1 1486   4.796   1.405   1.183
  298DCME    C1 1487   4.630   1.454   1.231
  298DCME    Cl 1488   4.558   1.576   1.120
  298DCME    H1 1489   4.634   1.498   1.331
  298DCME    H2 1490   4.566   1.366   1.230
  299DCME   Cl1 1491   4.987   4.876   2.646
  299DCME    C1 1492   4.965   4.771   2.791
  299DCME    Cl 1493   0.119   4.720   2.868
  299DCME    H1 1494   4.912   4.681   2.759
  299DCME    H2 1495   4.907   4.826   2.865
  300DCME   Cl1 1496   4.710   4.146   1.583
  300DCME    C1 1497   4.670   4.059   1.430
  300DCME    Cl 1498   4.556   4.149   1.323
  300DCME    H1 1499   4.624   3.964   1.457
  300DCME    H2 1500   4.763   4.044   1.375
  301DCME   Cl1 1501   1.882   1.040   2.952
  301DCME    C1 1502   1.702   1.051   2.959
  301DCME    Cl 1503   1.621   0.896   2.917
  301DCME    H1 1504   1.670   1.126   2.887
  301DCME    H2 1505   1.673   1.079   3.060
  302DCME   Cl1 1506   1.326   0.095   1.906
  302DCME    C1 1507   1.490   0.111   1.834
  302DCME    Cl 1508   1.501   0.043   1.667
  302DCME    H1 1509   1.561   0.059   1.898
  302DCME    H2 1510   1.514   0.218   1.829
  303DCME   Cl1 1511   1.158   3.228   4.470
  303DCME    C1 1512   1.331   3.195   4.435
  303DCME    Cl 1513   1.357   3.114   4.276
  303DCME    H1 1514   1.370   3.130   4.513
  303DCME    H2 1515   1.385   3.290   4.434
  304DCME   Cl1 1516   1.277   4.456   4.100
  304DCME    C1 1517   1.299   4.526   3.935
  304DCME    Cl 1518   1.183   4.659   3.899
  304DCME    H1 1519   1.283   4.447   3.863
  304DCME    H2 1520   1.400   4.566   3.928
  305DCME   Cl1 1521   3.880   1.690   0.072
  305DCME    C1 1522   3.851   1.655   4.898
  305DCME    Cl 1523   3.873   1.800   4.793
  305DCME    H1 1524   3.749   1.618   4.885
  305DCME    H2 1525   3.923   1.579   4.866
  306DCME   Cl1 1526   2.488   2.153   1.720
  306DCME    C1 1527   2.552   2.036   1.840
  306DCME    Cl 1528   2.462   2.038   1.996
  306DCME    H1 1529   2.656   2.060   1.860
  306DCME    H2 1530   2.543   1.936   1.798
  307DCME   Cl1 1531   4.154   0.545   3.447
  307DCME    C1 1532   4.195   0.646   3.591
  307DCME    Cl 1533   4.094   0.609   3.735
  307DCME    H1 1534   4.178   0.750   3.564
  307DCME    H2 1535   4.299   0.629   3.616
  308DCME   Cl1 1536   1.272   4.304   2.037
  308DCME    C1 1537   1.420   4.201   2.047
  308DCME    Cl 1538   1.392   4.030   1.999
  308DCME    H1 1539   1.455   4.202   2.150
  308DCME    H2 1540   1.495   4.244   1.980
  309DCME   Cl1 1541   4.262   3.360   0.586
  309DCME    C1 1542   4.390   3.262   0.667
  309DCME    Cl 1543   4.553   3.286   0.595
  309DCME    H1 1544   4.364   3.156   0.658
  309DCME    H2 1545   4.393   3.293   0.772
  310DCME   Cl1 1546   1.738   4.895   3.467
  310DCME    C1 1547   1.892   4.869   3.555
  310DCME    Cl 1548   1.878   4.750   3.690
  310DCME    H1 1549   1.923   4.965   3.597
  310DCME    H2 1550   1.966   4.832   3.484
  311DCME   Cl1 1551   1.799   1.453   0.802
  311DCME    C1 1552   1.778   1.424   0.979
  311DCME    Cl 1553   1.929   1.455   1.073
  311DCME    H1 1554   1.749   1.320   0.993
  311DCME    H2 1555   1.701   1.491   1.015
  312DCME   Cl1 1556   1.385   0.352   2.434
  312DCME    C1 1557   1.295   0.321   2.281
  312DCME    Cl 1558   1.272   0.146   2.247
  312DCME    H1 1559   1.350   0.365   2.198
  312DCME    H2 1560   1.196   0.367   2.290
  313DCME   Cl1 1561   4.350   3.379   1.484
  313DCME    C1 1562   4.284   3.261   1.603
  313DCME    Cl 1563   4.411   3.162   1.684
  313DCME    H1 1564   4.217   3.193   1.549
  313DCME    H2 1565   4.229   3.316   1.680
  314DCME   Cl1 1566   2.383   0.552   2.504
  314DCME    C1 1567   2.551   0.592   2.454
  314DCME    Cl 1568   2.586   0.769   2.462
  314DCME    H1 1569   2.565   0.559   2.351
  314DCME    H2 1570   2.619   0.541   2.522
  315DCME   Cl1 1571   4.638   0.004   1.160
  315DCME    C1 1572   4.776   4.923   1.076
  315DCME    Cl 1573   4.819   4.763   1.147
  315DCME    H1 1574   4.863   4.988   1.085
  315DCME    H2 1575   4.748   4.908   0.972
  316DCME   Cl1 1576   4.705   2.571   0.499
  316DCME    C1 1577   4.867   2.605   0.570
  316DCME    Cl 1578   4.882   2.552   0.741
  316DCME    H1 1579   4.884   2.713   0.565
  316DCME    H2 1580   4.941   2.551   0.511
  317DCME   Cl1 1581   1.218   1.584   0.931
  317DCME    C1 1582   1.083   1.503   0.845
  317DCME    Cl 1583   1.136   1.361   0.748
  317DCME    H1 1584   1.038   1.575   0.777
  317DCME    H2 1585   1.011   1.469   0.919
  318DCME   Cl1 1586   3.378   3.147   2.437
  318DCME    C1 1587   3.426   3.024   2.315
  318DCME    Cl 1588   3.412   3.083   2.146
  318DCME    H1 1589   3.362   2.937   2.327
  318DCME    H2 1590   3.531   2.998   2.334
  319DCME   Cl1 1591   3.057   1.162   4.756
  319DCME    C1 1592   3.072   1.341   4.761
  319DCME    Cl 1593   2.914   1.425   4.742
  319DCME    H1 1594   3.137   1.372   4.678
  319DCME    H2 1595   3.115   1.369   4.857
  320DCME   Cl1 1596   2.945   0.270   3.599
  320DCME    C1 1597   2.815   0.226   3.716
  320DCME    Cl 1598   2.848   0.284   3.883
  320DCME    H1 1599   2.808   0.117   3.719
  320DCME    H2 1600   2.722   0.271   3.682
  321DCME   Cl1 1601   4.599   0.577   2.880
  321DCME    C1 1602   4.664   0.659   3.027
  321DCME    Cl 1603   4.754   0.810   2.991
  321DCME    H1 1604   4.732   0.589   3.076
  321DCME    H2 1605   4.580   0.684   3.091
  322DCME   Cl1 1606   1.109   0.435   0.181
  322DCME    C1 1607   1.021   0.591   0.161
  322DCME    Cl 1608   0.862   0.571   0.080
  322DCME    H1 1609   1.083   0.657   0.100
  322DCME    H2 1610   1.004   0.634   0.260
  323DCME   Cl1 1611   4.571   2.705   2.172
  323DCME    C1 1612   4.552   2.539   2.105
  323DCME    Cl 1613   4.394   2.514   2.023
  323DCME    H1 1614   4.560   2.468   2.187
  323DCME    H2 1615   4.632   2.524   2.031
  324DCME   Cl1 1616   3.957   3.593   3.178
  324DCME    C1 1617   4.059   3.638   3.320
  324DCME    Cl 1618   4.168   3.505   3.374
  324DCME    H1 1619   3.993   3.664   3.403
  324DCME    H2 1620   4.121   3.723   3.291
  325DCME   Cl1 1621   1.448   2.933   3.405
  325DCME    C1 1622   1.430   2.761   3.456
  325DCME    Cl 1623   1.260   2.716   3.494
  325DCME    H1 1624   1.490   2.747   3.546
  325DCME    H2 1625   1.466   2.698   3.375
  326DCME   Cl1 1626   4.481   1.013   0.209
  326DCME    C1 1627   4.381   1.135   0.296
  326DCME    Cl 1628   4.384   1.297   0.218
  326DCME    H1 1629   4.421   1.146   0.397
  326DCME    H2 1630   4.278   1.100   0.298
  327DCME   Cl1 1631   3.220   1.489   3.748
  327DCME    C1 1632   3.213   1.342   3.851
  327DCME    Cl 1633   3.376   1.269   3.880
  327DCME    H1 1634   3.151   1.268   3.801
  327DCME    H2 1635   3.170   1.369   3.948
  328DCME   Cl1 1636   0.800   1.792   4.218
  328DCME    C1 1637   0.744   1.956   4.171
  328DCME    Cl 1638   0.567   1.979   4.195
  328DCME    H1 1639   0.767   1.971   4.065
  328DCME    H2 1640   0.796   2.029   4.233
  329DCME   Cl1 1641   4.961   0.503   1.794
  329DCME    C1 1642   0.043   0.576   1.937
  329DCME    Cl 1643   0.220   0.597   1.914
  329DCME    H1 1644   0.027   0.510   2.022
  329DCME    H2 1645   4.999   0.674   1.955
  330DCME   Cl1 1646   2.066   0.599   3.637
  330DCME    C1 1647   2.155   0.752   3.603
  330DCME    Cl 1648   2.053   0.877   3.524
  330DCME    H1 1649   2.238   0.729   3.535
  330DCME    H2 1650   2.193   0.791   3.697
  331DCME   Cl1 1651   3.399   0.671   0.212
  331DCME    C1 1652   3.480   0.518   0.262
  331DCME    Cl 1653   3.442   0.379   0.154
  331DCME    H1 1654   3.446   0.493   0.363
  331DCME    H2 1655   3.588   0.535   0.260
  332DCME   Cl1 1656   4.113   2.608   4.091
  332DCME    C1 1657   4.042   2.457   4.022
  332DCME    Cl 1658   3.882   2.416   4.093
  332DCME    H1 1659   4.111   2.375   4.044
  332DCME    H2 1660   4.030   2.471   3.915
  333DCME   Cl1 1661   1.709   0.821   3.612
  333DCME    C1 1662   1.763   0.668   3.533
  333DCME    Cl 1663   1.642   0.600   3.419
  333DCME    H1 1664   1.780   0.594   3.612
  333DCME    H2 1665   1.854   0.689   3.478
  334DCME   Cl1 1666   3.710   4.782   0.632
  334DCME    C1 1667   3.587   4.757   0.503
  334DCME    Cl 1668   3.638   4.822   0.343
  334DCME    H1 1669   3.495   4.807   0.533
  334DCME    H2 1670   3.571   4.649   0.492
  335DCME   Cl1 1671   4.374   2.065   0.766
  335DCME    C1 1672   4.432   2.063   0.937
  335DCME    Cl 1673   4.581   2.160   0.962
  335DCME    H1 1674   4.453   1.960   0.964
  335DCME    H2 1675   4.353   2.105   0.999
  336DCME   Cl1 1676   0.423   4.334   3.753
  336DCME    C1 1677   0.500   4.200   3.660
  336DCME    Cl 1678   0.622   4.258   3.541
  336DCME    H1 1679   0.421   4.147   3.605
  336DCME    H2 1680   0.550   4.134   3.731
  337DCME   Cl1 1681   0.058   0.235   2.023
  337DCME    C1 1682   0.057   0.245   2.202
  337DCME    Cl 1683   0.124   0.400   2.265
  337DCME    H1 1684   0.118   0.163   2.241
  337DCME    H2 1685   4.954   0.235   2.236
  338DCME   Cl1 1686   0.176   0.901   3.963
  338DCME    C1 1687   0.286   0.770   3.907
  338DCME    Cl 1688   0.361   0.805   3.747
  338DCME    H1 1689   0.227   0.678   3.898
  338DCME    H2 1690   0.366   0.759   3.980
  339DCME   Cl1 1691   0.690   3.114   4.167
  339DCME    C1 1692   0.642   2.989   4.288
  339DCME    Cl 1693   0.654   3.048   4.458
  339DCME    H1 1694   0.709   2.904   4.277
  339DCME    H2 1695   0.539   2.960   4.269
  340DCME   Cl1 1696   1.202   2.402   4.229
  340DCME    C1 1697   1.135   2.351   4.070
  340DCME    Cl 1698   0.955   2.341   4.068
  340DCME    H1 1699   1.175   2.253   4.046
  340DCME    H2 1700   1.165   2.425   3.996
  341DCME   Cl1 1701   3.121   4.632   1.868
  341DCME    C1 1702   3.094   4.479   1.776
  341DCME    Cl 1703   3.243   4.421   1.693
  341DCME    H1 1704   3.017   4.498   1.700
  341DCME    H2 1705   3.062   4.402   1.845
  342DCME   Cl1 1706   4.737   2.931   3.135
  342DCME    C1 1707   4.708   2.835   2.986
  342DCME    Cl 1708   4.859   2.797   2.897
  342DCME    H1 1709   4.642   2.892   2.920
  342DCME    H2 1710   4.661   2.741   3.015
  343DCME   Cl1 1711   3.048   0.611   0.435
  343DCME    C1 1712   2.982   0.774   0.397
  343DCME    Cl 1713   2.966   0.880   0.542
  343DCME    H1 1714   2.883   0.762   0.353
  343DCME    H2 1715   3.049   0.823   0.326
  344DCME   Cl1 1716   1.814   2.939   0.153
  344DCME    C1 1717   1.789   2.881   0.322
  344DCME    Cl 1718   1.767   2.702   0.332
  344DCME    H1 1719   1.700   2.929   0.362
  344DCME    H2 1720   1.877   2.907   0.381
  345DCME   Cl1 1721   0.458   1.790   1.201
  345DCME    C1 1722   0.339   1.886   1.295
  345DCME    Cl 1723   0.415   1.982   1.427
  345DCME    H1 1724   0.267   1.817   1.339
  345DCME    H2 1725   0.289   1.955   1.226
  346DCME   Cl1 1726   2.546   4.504   3.277
  346DCME    C1 1727   2.533   4.683   3.290
  346DCME    Cl 1728   2.424   4.737   3.424
  346DCME    H1 1729   2.493   4.721   3.196
  346DCME    H2 1730   2.633   4.723   3.310
  347DCME   Cl1 1731   1.769   2.106   3.888
  347DCME    C1 1732   1.866   1.989   3.791
  347DCME    Cl 1733   1.871   2.029   3.616
  347DCME    H1 1734   1.821   1.890   3.803
  347DCME    H2 1735   1.968   1.990   3.829
  348DCME   Cl1 1736   4.766   4.163   0.028
  348DCME    C1 1737   4.627   4.200   4.921
  348DCME    Cl 1738   4.658   4.160   4.749
  348DCME    H1 1739   4.606   4.307   4.927
  348DCME    H2 1740   4.541   4.141   4.954
  349DCME   Cl1 1741   0.021   2.976   1.408
  349DCME    C1 1742   4.860   3.051   1.436
  349DCME    Cl 1743   4.804   3.038   1.607
  349DCME    H1 1744   4.787   3.002   1.372
  349DCME    H2 1745   4.867   3.157   1.412
  350DCME   Cl1 1746   3.878   0.096   2.583
  350DCME    C1 1747   3.991   4.964   2.629
  350DCME    Cl 1748   4.020   4.952   2.806
  350DCME    H1 1749   4.087   4.983   2.580
  350DCME    H2 1750   3.948   4.869   2.595
  351DCME   Cl1 1751   4.590   1.828   2.983
  351DCME    C1 1752   4.551   1.664   2.919
  351DCME    Cl 1753   4.491   1.667   2.749
  351DCME    H1 1754   4.474   1.620   2.982
  351DCME    H2 1755   4.642   1.604   2.921
  352DCME   Cl1 1756   3.220   4.802   2.406
  352DCME    C1 1757   3.067   4.729   2.467
  352DCME    Cl 1758   2.969   4.651   2.338
  352DCME    H1 1759   3.007   4.809   2.512
  352DCME    H2 1760   3.093   4.653   2.541
  353DCME   Cl1 1761   2.452   0.503   0.085
  353DCME    C1 1762   2.364   0.451   4.937
  353DCME    Cl 1763   2.463   0.348   4.829
  353DCME    H1 1764   2.335   0.540   4.882
  353DCME    H2 1765   2.276   0.393   4.968
  354DCME   Cl1 1766   3.319   1.415   4.196
  354DCME    C1 1767   3.305   1.562   4.093
  354DCME    Cl 1768   3.135   1.614   4.068
  354DCME    H1 1769   3.349   1.540   3.995
  354DCME    H2 1770   3.358   1.643   4.143
  355DCME   Cl1 1771   2.107   4.116   2.690
  355DCME    C1 1772   2.093   4.161   2.864
  355DCME    Cl 1773   1.927   4.137   2.929
  355DCME    H1 1774   2.119   4.266   2.874
  355DCME    H2 1775   2.162   4.098   2.921
  356DCME   Cl1 1776   4.652   4.491   1.509
  356DCME    C1 1777   4.759   4.507   1.365
  356DCME    Cl 1778   4.849   4.356   1.327
  356DCME    H1 1779   4.832   4.586   1.385
  356DCME    H2 1780   4.696   4.531   1.279
  357DCME   Cl1 1781   4.544   4.974   4.068
  357DCME    C1 1782   4.663   4.960   4.202
  357DCME    Cl 1783   4.742   0.117   4.244
  357DCME    H1 1784   4.741   4.890   4.171
  357DCME    H2 1785   4.610   4.924   4.290
  358DCME   Cl1 1786   4.245   4.138   1.969
  358DCME    C1 1787   4.216   3.993   2.073
  358DCME    Cl 1788   4.303   3.847   2.015
  358DCME    H1 1789   4.109   3.972   2.072
  358DCME    H2 1790   4.252   4.016   2.173
  359DCME   Cl1 1791   3.813   2.248   1.928
  359DCME    C1 1792   3.764   2.105   2.026
  359DCME    Cl 1793   3.754   2.139   2.202
  359DCME    H1 1794   3.839   2.026   2.012
  359DCME    H2 1795   3.666   2.072   1.992
  360DCME   Cl1 1796   4.763   4.932   3.081
  360DCME    C1 1797   4.687   4.838   3.214
  360DCME    Cl 1798   4.510   4.862   3.223
  360DCME    H1 1799   4.731   4.871   3.308
  360DCME    H2 1800   4.708   4.732   3.198
  361DCME   Cl1 1801   1.039   0.652   3.106
  361DCME    C1 1802   0.990   0.760   3.241
  361DCME    Cl 1803   1.128   0.853   3.310
  361DCME    H1 1804   0.947   0.698   3.320
  361DCME    H2 1805   0.916   0.831   3.203
  362DCME   Cl1 1806   4.426   3.109   4.882
  362DCME    C1 1807   4.594   3.053   4.851
  362DCME    Cl 1808   4.683   3.158   4.734
  362DCME    H1 1809   4.590   2.953   4.809
  362DCME    H2 1810   4.649   3.054   4.945
  363DCME   Cl1 1811   4.164   3.254   1.946
  363DCME    C1 1812   4.169   3.171   2.106
  363DCME    Cl 1813   4.082   3.261   2.235
  363DCME    H1 1814   4.274   3.161   2.136
  363DCME    H2 1815   4.122   3.074   2.095
  364DCME   Cl1 1816   1.613   3.205   1.246
  364DCME    C1 1817   1.587   3.181   1.422
  364DCME    Cl 1818   1.610   3.010   1.474
  364DCME    H1 1819   1.484   3.210   1.445
  364DCME    H2 1820   1.657   3.243   1.477
  365DCME   Cl1 1821   4.443   0.389   4.542
  365DCME    C1 1822   4.288   0.452   4.473
  365DCME    Cl 1823   4.148   0.342   4.502
  365DCME    H1 1824   4.302   0.463   4.365
  365DCME    H2 1825   4.267   0.548   4.520
  366DCME   Cl1 1826   3.694   2.318   1.268
  366DCME    C1 1827   3.663   2.153   1.332
  366DCME    Cl 1828   3.763   2.114   1.477
  366DCME    H1 1829   3.689   2.081   1.254
  366DCME    H2 1830   3.558   2.146   1.360
  367DCME   Cl1 1831   0.551   4.999   4.669
  367DCME    C1 1832   0.406   0.067   4.752
  367DCME    Cl 1833   0.446   0.147   4.908
  367DCME    H1 1834   0.337   4.985   4.772
  367DCME    H2 1835   0.361   0.141   4.686
  368DCME   Cl1 1836   1.705   2.638   1.452
  368DCME    C1 1837   1.525   2.641   1.449
  368DCME    Cl 1838   1.450   2.517   1.556
  368DCME    H1 1839   1.492   2.622   1.347
  368DCME    H2 1840   1.492   2.739   1.483
  369DCME   Cl1 1841   4.900   3.535   0.320
  369DCME    C1 1842   4.977   3.475   0.168
  369DCME    Cl 1843   4.860   3.394   0.057
  369DCME    H1 1844   0.053   3.402   0.196
  369DCME    H2 1845   0.020   3.560   0.116
  370DCME   Cl1 1846   4.595   0.708   1.225
  370DCME    C1 1847   4.440   0.756   1.304
  370DCME    Cl 1848   4.444   0.737   1.483
  370DCME    H1 1849   4.361   0.693   1.264
  370DCME    H2 1850   4.422   0.861   1.281
  371DCME   Cl1 1851   1.773   1.561   3.438
  371DCME    C1 1852   1.749   1.729   3.498
  371DCME    Cl 1853   1.650   1.736   3.648
  371DCME    H1 1854   1.697   1.786   3.421
  371DCME    H2 1855   1.847   1.772   3.519
  372DCME   Cl1 1856   0.687   3.279   1.900
  372DCME    C1 1857   0.560   3.280   2.028
  372DCME    Cl 1858   0.608   3.189   2.175
  372DCME    H1 1859   0.470   3.234   1.987
  372DCME    H2 1860   0.542   3.384   2.057
  373DCME   Cl1 1861   2.204   1.779   1.294
  373DCME    C1 1862   2.100   1.781   1.147
  373DCME    Cl 1863   1.926   1.808   1.185
  373DCME    H1 1864   2.109   1.685   1.096
  373DCME    H2 1865   2.133   1.863   1.083
  374DCME   Cl1 1866   4.069   0.612   0.504
  374DCME    C1 1867   4.052   0.776   0.431
  374DCME    Cl 1868   4.194   0.883   0.464
  374DCME    H1 1869   3.963   0.823   0.473
  374DCME    H2 1870   4.041   0.765   0.324
  375DCME   Cl1 1871   3.287   0.975   0.345
  375DCME    C1 1872   3.287   0.892   0.504
  375DCME    Cl 1873   3.453   0.859   0.566
  375DCME    H1 1874   3.236   0.796   0.494
  375DCME    H2 1875   3.236   0.956   0.576
  376DCME   Cl1 1876   3.348   2.154   4.100
  376DCME    C1 1877   3.235   2.123   3.963
  376DCME    Cl 1878   3.089   2.031   4.014
  376DCME    H1 1879   3.288   2.065   3.888
  376DCME    H2 1880   3.203   2.219   3.923
  377DCME   Cl1 1881   1.457   3.507   0.408
  377DCME    C1 1882   1.322   3.576   0.505
  377DCME    Cl 1883   1.317   3.756   0.502
  377DCME    H1 1884   1.335   3.544   0.609
  377DCME    H2 1885   1.228   3.539   0.464
  378DCME   Cl1 1886   2.550   3.522   4.596
  378DCME    C1 1887   2.399   3.477   4.684
  378DCME    Cl 1888   2.431   3.380   4.833
  378DCME    H1 1889   2.337   3.417   4.617
  378DCME    H2 1890   2.348   3.569   4.713
  379DCME   Cl1 1891   2.909   4.922   2.027
  379DCME    C1 1892   2.999   4.963   2.177
  379DCME    Cl 1893   2.891   0.003   2.316
  379DCME    H1 1894   3.062   0.050   2.157
  379DCME    H2 1895   3.059   4.877   2.204
  380DCME   Cl1 1896   0.986   3.233   3.598
  380DCME    C1 1897   1.125   3.185   3.701
  380DCME    Cl 1898   1.194   3.025   3.656
  380DCME    H1 1899   1.091   3.180   3.804
  380DCME    H2 1900   1.204   3.260   3.689
  381DCME   Cl1 1901   0.579   3.689   1.200
  381DCME    C1 1902   0.518   3.768   1.350
  381DCME    Cl 1903   0.611   3.722   1.497
  381DCME    H1 1904   0.414   3.739   1.364
  381DCME    H2 1905   0.526   3.876   1.337
  382DCME   Cl1 1906   3.425   2.301   3.070
  382DCME    C1 1907   3.280   2.347   3.165
  382DCME    Cl 1908   3.318   2.404   3.332
  382DCME    H1 1909   3.215   2.259   3.173
  382DCME    H2 1910   3.228   2.428   3.113
  383DCME   Cl1 1911   1.302   2.920   1.574
  383DCME    C1 1912   1.218   3.077   1.553
  383DCME    Cl 1913   1.233   3.145   1.387
  383DCME    H1 1914   1.261   3.148   1.624
  383DCME    H2 1915   1.112   3.061   1.573
  384DCME   Cl1 1916   0.278   0.865   1.681
  384DCME    C1 1917   0.100   0.836   1.684
  384DCME    Cl 1918   0.017   0.915   1.823
  384DCME    H1 1919   0.084   0.728   1.692
  384DCME    H2 1920   0.058   0.875   1.592
  385DCME   Cl1 1921   2.803   4.460   1.912
  385DCME    C1 1922   2.866   4.471   2.080
  385DCME    Cl 1923   2.838   4.321   2.175
  385DCME    H1 1924   2.815   4.553   2.129
  385DCME    H2 1925   2.974   4.489   2.076
  386DCME   Cl1 1926   3.835   3.600   4.936
  386DCME    C1 1927   3.977   3.523   0.016
  386DCME    Cl 1928   3.971   3.343   0.012
  386DCME    H1 1929   3.980   3.555   0.120
  386DCME    H2 1930   4.067   3.555   4.962
  387DCME   Cl1 1931   0.555   3.525   2.436
  387DCME    C1 1932   0.475   3.655   2.532
  387DCME    Cl 1933   0.489   3.630   2.710
  387DCME    H1 1934   0.369   3.656   2.506
  387DCME    H2 1935   0.522   3.749   2.507
  388DCME   Cl1 1936   4.811   1.832   2.531
  388DCME    C1 1937   4.818   1.781   2.704
  388DCME    Cl 1938   4.833   1.603   2.723
  388DCME    H1 1939   4.726   1.813   2.752
  388DCME    H2 1940   4.905   1.827   2.750
  389DCME   Cl1 1941   0.504   4.360   4.265
  389DCME    C1 1942   0.413   4.349   4.110
  389DCME    Cl 1943   0.353   4.183   4.075
  389DCME    H1 1944   0.479   4.379   4.028
  389DCME    H2 1945   0.326   4.416   4.115
  390DCME   Cl1 1946   4.802   0.123   0.497
  390DCME    C1 1947   4.960   0.155   0.578
  390DCME    Cl 1948   4.980   0.063   0.732
  390DCME    H1 1949   4.965   0.261   0.601
  390DCME    H2 1950   0.040   0.126   0.510
  391DCME   Cl1 1951   1.906   4.390   1.966
  391DCME    C1 1952   1.846   4.414   2.134
  391DCME    Cl 1953   1.713   4.301   2.179
  391DCME    H1 1954   1.807   4.516   2.142
  391DCME    H2 1955   1.929   4.399   2.203
  392DCME   Cl1 1956   1.443   3.079   3.067
  392DCME    C1 1957   1.467   3.064   2.889
  392DCME    Cl 1958   1.590   2.941   2.843
  392DCME    H1 1959   1.500   3.161   2.851
  392DCME    H2 1960   1.372   3.035   2.844
  393DCME   Cl1 1961   0.937   1.481   3.141
  393DCME    C1 1962   1.093   1.400   3.100
  393DCME    Cl 1963   1.183   1.342   3.244
  393DCME    H1 1964   1.156   1.473   3.048
  393DCME    H2 1965   1.072   1.315   3.036
  394DCME   Cl1 1966   2.967   3.589   1.368
  394DCME    C1 1967   2.810   3.562   1.283
  394DCME    Cl 1968   2.794   3.396   1.215
  394DCME    H1 1969   2.803   3.633   1.201
  394DCME    H2 1970   2.729   3.577   1.355
  395DCME   Cl1 1971   4.506   1.989   4.695
  395DCME    C1 1972   4.597   2.054   4.836
  395DCME    Cl 1973   4.506   2.037   4.990
  395DCME    H1 1974   4.617   2.160   4.818
  395DCME    H2 1975   4.690   1.998   4.844
  396DCME   Cl1 1976   1.913   2.604   1.868
  396DCME    C1 1977   1.914   2.462   1.978
  396DCME    Cl 1978   1.805   2.483   2.120
  396DCME    H1 1979   2.016   2.448   2.015
  396DCME    H2 1980   1.882   2.375   1.922
  397DCME   Cl1 1981   3.855   0.103   0.204
  397DCME    C1 1982   3.983   0.196   0.289
  397DCME    Cl 1983   3.979   0.175   0.468
  397DCME    H1 1984   3.969   0.302   0.267
  397DCME    H2 1985   4.080   0.161   0.253
  398DCME   Cl1 1986   0.659   1.725   1.499
  398DCME    C1 1987   0.817   1.679   1.573
  398DCME    Cl 1988   0.816   1.513   1.641
  398DCME    H1 1989   0.840   1.749   1.653
  398DCME    H2 1990   0.893   1.683   1.495
  399DCME   Cl1 1991   3.438   4.743   4.427
  399DCME    C1 1992   3.451   4.923   4.421
  399DCME    Cl 1993   3.442   4.990   4.255
  399DCME    H1 1994   3.548   4.951   4.464
  399DCME    H2 1995   3.369   4.965   4.479
  400DCME   Cl1 1996   0.626   1.020   0.923
  400DCME    C1 1997   0.561   0.939   1.070
  400DCME    Cl 1998   0.513   0.768   1.042
  400DCME    H1 1999   0.473   0.994   1.104
  400DCME    H2 2000   0.639   0.941   1.147
  401DCME   Cl1 2001   0.242   3.273   1.715
  401DCME    C1 2002   0.083   3.242   1.637
  401DCME    Cl 2003   0.062   3.331   1.482
  401DCME    H1 2004   0.004   3.273   1.705
  401DCME    H2 2005   0.076   3.135   1.616
  402DCME   Cl1 2006   1.711   3.802   2.737
  402DCME    C1 2007   1.884   3.805   2.785
  402DCME    Cl 2008   1.911   3.739   2.950
  402DCME    H1 2009   1.919   3.908   2.783
  402DCME    H2 2010   1.941   3.744   2.714
  403DCME   Cl1 2011   1.625   0.919   3.277
  403DCME    C1 2012   1.448   0.931   3.246
  403DCME    Cl 2013   1.403   1.072   3.144
  403DCME    H1 2014   1.397   0.941   3.342
  403DCME    H2 2015   1.416   0.840   3.194
  404DCME   Cl1 2016   2.939   0.342   1.428
  404DCME    C1 2017   2.969   0.385   1.256
  404DCME    Cl 2018   3.135   0.448   1.226
  404DCME    H1 2019   2.897   0.462   1.227
  404DCME    H2 2020   2.956   0.295   1.196
  405DCME   Cl1 2021   2.402   3.634   4.271
  405DCME    C1 2022   2.562   3.568   4.221
  405DCME    Cl 2023   2.700   3.648   4.304
  405DCME    H1 2024   2.573   3.583   4.113
  405DCME    H2 2025   2.563   3.462   4.246
  406DCME   Cl1 2026   3.148   4.233   4.186
  406DCME    C1 2027   3.153   4.054   4.208
  406DCME    Cl 2028   3.031   3.967   4.109
  406DCME    H1 2029   3.134   4.033   4.313
  406DCME    H2 2030   3.252   4.019   4.178
  407DCME   Cl1 2031   0.765   3.527   2.146
  407DCME    C1 2032   0.898   3.407   2.130
  407DCME    Cl 2033   1.016   3.413   2.265
  407DCME    H1 2034   0.951   3.428   2.037
  407DCME    H2 2035   0.853   3.307   2.127
  408DCME   Cl1 2036   4.371   3.288   1.098
  408DCME    C1 2037   4.251   3.158   1.067
  408DCME    Cl 2038   4.190   3.155   0.897
  408DCME    H1 2039   4.166   3.173   1.133
  408DCME    H2 2040   4.300   3.062   1.086
  409DCME   Cl1 2041   2.848   2.435   2.628
  409DCME    C1 2042   2.823   2.358   2.467
  409DCME    Cl 2043   2.868   2.184   2.464
  409DCME    H1 2044   2.885   2.411   2.394
  409DCME    H2 2045   2.717   2.366   2.442
  410DCME   Cl1 2046   1.146   0.110   4.818
  410DCME    C1 2047   1.234   0.072   4.667
  410DCME    Cl 2048   1.181   0.173   4.528
  410DCME    H1 2049   1.216   4.967   4.642
  410DCME    H2 2050   1.340   0.090   4.684
  411DCME   Cl1 2051   2.763   3.914   0.656
  411DCME    C1 2052   2.891   3.906   0.782
  411DCME    Cl 2053   3.053   3.860   0.718
  411DCME    H1 2054   2.861   3.831   0.856
  411DCME    H2 2055   2.898   4.004   0.828
  412DCME   Cl1 2056   2.007   2.177   0.039
  412DCME    C1 2057   2.000   2.212   0.215
  412DCME    Cl 2058   1.937   2.377   0.251
  412DCME    H1 2059   2.101   2.205   0.256
  412DCME    H2 2060   1.934   2.139   0.262
  413DCME   Cl1 2061   3.464   3.014   3.062
  413DCME    C1 2062   3.509   3.039   3.234
  413DCME    Cl 2063   3.381   2.984   3.349
  413DCME    H1 2064   3.526   3.145   3.250
  413DCME    H2 2065   3.599   2.982   3.254
  414DCME   Cl1 2066   1.611   2.768   1.764
  414DCME    C1 2067   1.554   2.639   1.876
  414DCME    Cl 2068   1.433   2.697   1.996
  414DCME    H1 2069   1.640   2.600   1.930
  414DCME    H2 2070   1.506   2.561   1.817
  415DCME   Cl1 2071   1.341   3.831   1.706
  415DCME    C1 2072   1.498   3.912   1.669
  415DCME    Cl 2073   1.633   3.797   1.643
  415DCME    H1 2074   1.524   3.976   1.754
  415DCME    H2 2075   1.485   3.972   1.578
  416DCME   Cl1 2076   4.648   4.681   3.495
  416DCME    C1 2077   4.470   4.658   3.498
  416DCME    Cl 2078   4.412   4.584   3.652
  416DCME    H1 2079   4.441   4.592   3.416
  416DCME    H2 2080   4.422   4.756   3.488
  417DCME   Cl1 2081   4.450   2.325   4.650
  417DCME    C1 2082   4.409   2.342   4.824
  417DCME    Cl 2083   4.545   2.409   4.921
  417DCME    H1 2084   4.383   2.243   4.863
  417DCME    H2 2085   4.324   2.410   4.832
  418DCME   Cl1 2086   0.961   2.062   3.335
  418DCME    C1 2087   0.930   1.901   3.408
  418DCME    Cl 2088   0.816   1.907   3.548
  418DCME    H1 2089   1.025   1.861   3.444
  418DCME    H2 2090   0.887   1.836   3.332
  419DCME   Cl1 2091   3.859   1.689   3.816
  419DCME    C1 2092   3.764   1.537   3.797
  419DCME    Cl 2093   3.758   1.438   3.948
  419DCME    H1 2094   3.811   1.477   3.719
  419DCME    H2 2095   3.662   1.564   3.771
  420DCME   Cl1 2096   2.100   1.006   3.848
  420DCME    C1 2097   1.931   0.954   3.815
  420DCME    Cl 2098   1.816   1.002   3.945
  420DCME    H1 2099   1.930   0.845   3.807
  420DCME    H2 2100   1.898   0.999   3.722
  421DCME   Cl1 2101   0.370   4.498   0.475
  421DCME    C1 2102   0.255   4.624   0.532
  421DCME    Cl 2103   0.168   4.577   0.683
  421DCME    H1 2104   0.182   4.641   0.454
  421DCME    H2 2105   0.311   4.715   0.552
  422DCME   Cl1 2106   1.253   1.930   4.616
  422DCME    C1 2107   1.112   1.938   4.728
  422DCME    Cl 2108   1.066   2.106   4.771
  422DCME    H1 2109   1.138   1.886   4.820
  422DCME    H2 2110   1.026   1.890   4.679
  423DCME   Cl1 2111   4.316   2.892   2.000
  423DCME    C1 2112   4.183   2.773   2.022
  423DCME    Cl 2113   4.019   2.846   2.007
  423DCME    H1 2114   4.192   2.729   2.121
  423DCME    H2 2115   4.192   2.696   1.945
  424DCME   Cl1 2116   4.288   4.752   2.934
  424DCME    C1 2117   4.208   4.759   3.095
  424DCME    Cl 2118   4.259   4.625   3.204
  424DCME    H1 2119   4.101   4.752   3.081
  424DCME    H2 2120   4.235   4.853   3.143
  425DCME   Cl1 2121   4.693   2.937   1.105
  425DCME    C1 2122   4.678   3.097   1.023
  425DCME    Cl 2123   4.549   3.099   0.898
  425DCME    H1 2124   4.773   3.119   0.974
  425DCME    H2 2125   4.653   3.172   1.098
  426DCME   Cl1 2126   0.167   2.933   2.794
  426DCME    C1 2127   0.200   2.964   2.620
  426DCME    Cl 2128   0.083   3.077   2.543
  426DCME    H1 2129   0.196   2.869   2.567
  426DCME    H2 2130   0.300   3.008   2.612
  427DCME   Cl1 2131   4.721   4.485   0.205
  427DCME    C1 2132   4.604   4.540   0.330
  427DCME    Cl 2133   4.588   4.719   0.337
  427DCME    H1 2134   4.639   4.505   0.428
  427DCME    H2 2135   4.507   4.498   0.307
  428DCME   Cl1 2136   0.790   0.914   3.458
  428DCME    C1 2137   0.635   0.874   3.376
  428DCME    Cl 2138   0.652   0.745   3.252
  428DCME    H1 2139   0.598   0.964   3.326
  428DCME    H2 2140   0.564   0.840   3.452
  429DCME   Cl1 2141   2.783   2.088   3.848
  429DCME    C1 2142   2.733   2.075   4.020
  429DCME    Cl 2143   2.590   1.968   4.043
  429DCME    H1 2144   2.707   2.175   4.055
  429DCME    H2 2145   2.816   2.034   4.077
  430DCME   Cl1 2146   1.797   0.789   2.185
  430DCME    C1 2147   1.696   0.788   2.035
  430DCME    Cl 2148   1.787   0.843   1.890
  430DCME    H1 2149   1.611   0.854   2.050
  430DCME    H2 2150   1.663   0.686   2.017
  431DCME   Cl1 2151   0.063   3.046   3.106
  431DCME    C1 2152   0.089   3.221   3.073
  431DCME    Cl 2153   0.203   3.297   3.188
  431DCME    H1 2154   4.993   3.272   3.081
  431DCME    H2 2155   0.131   3.231   2.973
  432DCME   Cl1 2156   3.014   4.066   1.067
  432DCME    C1 2157   2.887   3.994   1.172
  432DCME    Cl 2158   2.744   3.933   1.081
  432DCME    H1 2159   2.852   4.072   1.241
  432DCME    H2 2160   2.931   3.911   1.227
  433DCME   Cl1 2161   4.779   1.464   1.560
  433DCME    C1 2162   4.743   1.291   1.593
  433DCME    Cl 2163   4.657   1.210   1.457
  433DCME    H1 2164   4.679   1.285   1.682
  433DCME    H2 2165   4.837   1.238   1.610
  434DCME   Cl1 2166   3.180   0.053   1.780
  434DCME    C1 2167   3.072   0.112   1.649
  434DCME    Cl 2168   2.897   0.098   1.691
  434DCME    H1 2169   3.090   0.053   1.559
  434DCME    H2 2170   3.094   0.217   1.631
  435DCME   Cl1 2171   2.710   3.225   2.334
  435DCME    C1 2172   2.563   3.245   2.232
  435DCME    Cl 2173   2.597   3.321   2.072
  435DCME    H1 2174   2.493   3.309   2.285
  435DCME    H2 2175   2.520   3.146   2.214
  436DCME   Cl1 2176   3.338   2.735   2.139
  436DCME    C1 2177   3.518   2.746   2.141
  436DCME    Cl 2178   3.587   2.734   2.307
  436DCME    H1 2179   3.547   2.842   2.099
  436DCME    H2 2180   3.557   2.664   2.082
  437DCME   Cl1 2181   0.602   0.690   2.018
  437DCME    C1 2182   0.522   0.758   1.871
  437DCME    Cl 2183   0.639   0.835   1.758
  437DCME    H1 2184   0.450   0.833   1.903
  437DCME    H2 2185   0.473   0.676   1.819
  438DCME   Cl1 2186   1.943   0.469   0.476
  438DCME    C1 2187   1.933   0.633   0.548
  438DCME    Cl 2188   1.858   0.635   0.712
  438DCME    H1 2189   1.872   0.696   0.482
  438DCME    H2 2190   2.034   0.673   0.556
  439DCME   Cl1 2191   4.851   0.427   1.466
  439DCME    C1 2192   4.757   0.571   1.522
  439DCME    Cl 2193   4.847   0.725   1.505
  439DCME    H1 2194   4.732   0.557   1.627
  439DCME    H2 2195   4.666   0.577   1.461
  440DCME   Cl1 2196   0.456   4.408   1.731
  440DCME    C1 2197   0.464   4.585   1.704
  440DCME    Cl 2198   0.312   4.652   1.635
  440DCME    H1 2199   0.545   4.606   1.633
  440DCME    H2 2200   0.484   4.634   1.799
  441DCME   Cl1 2201   1.273   1.359   4.071
  441DCME    C1 2202   1.290   1.389   4.247
  441DCME    Cl 2203   1.390   1.265   4.331
  441DCME    H1 2204   1.191   1.389   4.291
  441DCME    H2 2205   1.338   1.486   4.261
  442DCME   Cl1 2206   4.749   4.597   2.952
  442DCME    C1 2207   4.605   4.691   2.899
  442DCME    Cl 2208   4.640   4.806   2.764
  442DCME    H1 2209   4.568   4.748   2.984
  442DCME    H2 2210   4.529   4.620   2.865
  443DCME   Cl1 2211   0.751   4.420   0.948
  443DCME    C1 2212   0.722   4.471   0.778
  443DCME    Cl 2213   0.570   4.564   0.757
  443DCME    H1 2214   0.716   4.381   0.716
  443DCME    H2 2215   0.806   4.534   0.747
  444DCME   Cl1 2216   2.110   4.509   4.587
  444DCME    C1 2217   2.104   4.340   4.524
  444DCME    Cl 2218   1.942   4.264   4.543
  444DCME    H1 2219   2.176   4.281   4.581
  444DCME    H2 2220   2.129   4.342   4.418
  445DCME   Cl1 2221   1.083   3.946   1.483
  445DCME    C1 2222   1.155   4.073   1.377
  445DCME    Cl 2223   1.334   4.081   1.388
  445DCME    H1 2224   1.114   4.170   1.407
  445DCME    H2 2225   1.128   4.050   1.274
  446DCME   Cl1 2226   4.335   4.543   2.009
  446DCME    C1 2227   4.351   4.470   1.846
  446DCME    Cl 2228   4.509   4.388   1.820
  446DCME    H1 2229   4.340   4.549   1.771
  446DCME    H2 2230   4.272   4.395   1.834
  447DCME   Cl1 2231   1.520   4.820   3.892
  447DCME    C1 2232   1.458   4.814   4.061
  447DCME    Cl 2233   1.527   4.679   4.157
  447DCME    H1 2234   1.350   4.801   4.057
  447DCME    H2 2235   1.484   4.908   4.110
  448DCME   Cl1 2236   2.431   1.200   2.571
  448DCME    C1 2237   2.585   1.150   2.491
  448DCME    Cl 2238   2.562   1.099   2.320
  448DCME    H1 2239   2.626   1.065   2.545
  448DCME    H2 2240   2.654   1.235   2.493
  449DCME   Cl1 2241   3.196   4.849   1.410
  449DCME    C1 2242   3.141   4.757   1.555
  449DCME    Cl 2243   2.963   4.729   1.555
  449DCME    H1 2244   3.167   4.814   1.644
  449DCME    H2 2245   3.192   4.660   1.555
  450DCME   Cl1 2246   2.334   2.084   0.168
  450DCME    C1 2247   2.255   1.966   0.057
  450DCME    Cl 2248   2.359   1.824   0.021
  450DCME    H1 2249   2.235   2.017   4.963
  450DCME    H2 2250   2.163   1.931   0.103
  451DCME   Cl1 2251   3.977   0.323   0.798
  451DCME    C1 2252   3.833   0.367   0.700
  451DCME    Cl 2253   3.709   0.457   0.794
  451DCME    H1 2254   3.787   0.274   0.664
  451DCME    H2 2255   3.866   0.429   0.617
  452DCME   Cl1 2256   0.889   0.513   4.131
  452DCME    C1 2257   0.941   0.514   4.303
  452DCME    Cl 2258   0.805   0.552   4.415
  452DCME    H1 2259   1.017   0.591   4.315
  452DCME    H2 2260   0.980   0.415   4.327
  453DCME   Cl1 2261   4.812   2.921   0.743
  453DCME    C1 2262   4.657   2.830   0.744
  453DCME    Cl 2263   4.542   2.885   0.617
  453DCME    H1 2264   4.610   2.844   0.842
  453DCME    H2 2265   4.679   2.725   0.727
  454DCME   Cl1 2266   4.360   0.268   4.176
  454DCME    C1 2267   4.295   0.124   4.262
  454DCME    Cl 2268   4.398   0.072   4.401
  454DCME    H1 2269   4.290   0.042   4.191
  454DCME    H2 2270   4.196   0.149   4.301
  455DCME   Cl1 2271   0.972   0.897   0.019
  455DCME    C1 2272   1.038   0.811   4.875
  455DCME    Cl 2273   1.216   0.785   4.885
  455DCME    H1 2274   1.017   0.871   4.787
  455DCME    H2 2275   0.989   0.713   4.868
  456DCME   Cl1 2276   4.831   4.788   1.589
  456DCME    C1 2277   4.688   4.840   1.493
  456DCME    Cl 2278   4.624   0.001   1.542
  456DCME    H1 2279   4.611   4.767   1.505
  456DCME    H2 2280   4.720   4.849   1.387
  457DCME   Cl1 2281   1.013   0.016   1.703
  457DCME    C1 2282   1.173   4.991   1.625
  457DCME    Cl 2283   1.165   4.886   1.479
  457DCME    H1 2284   1.239   4.943   1.697
  457DCME    H2 2285   1.212   0.089   1.595
  458DCME   Cl1 2286   3.570   3.172   4.977
  458DCME    C1 2287   3.485   3.198   4.820
  458DCME    Cl 2288   3.530   3.076   4.695
  458DCME    H1 2289   3.513   3.297   4.782
  458DCME    H2 2290   3.378   3.191   4.837
  459DCME   Cl1 2291   1.463   0.856   2.288
  459DCME    C1 2292   1.521   0.697   2.351
  459DCME    Cl 2293   1.534   0.572   2.223
  459DCME    H1 2294   1.451   0.662   2.426
  459DCME    H2 2295   1.620   0.712   2.394
  460DCME   Cl1 2296   1.490   4.263   3.856
  460DCME    C1 2297   1.615   4.359   3.768
  460DCME    Cl 2298   1.666   4.507   3.857
  460DCME    H1 2299   1.573   4.389   3.672
  460DCME    H2 2300   1.702   4.296   3.754
  461DCME   Cl1 2301   1.590   1.581   4.205
  461DCME    C1 2302   1.584   1.454   4.078
  461DCME    Cl 2303   1.743   1.425   3.998
  461DCME    H1 2304   1.513   1.486   4.001
  461DCME    H2 2305   1.552   1.361   4.124
  462DCME   Cl1 2306   2.095   0.681   3.973
  462DCME    C1 2307   1.935   0.614   4.022
  462DCME    Cl 2308   1.817   0.608   3.886
  462DCME    H1 2309   1.894   0.677   4.100
  462DCME    H2 2310   1.950   0.511   4.057
  463DCME   Cl1 2311   2.558   1.968   0.864
  463DCME    C1 2312   2.604   1.802   0.813
  463DCME    Cl 2313   2.700   1.799   0.661
  463DCME    H1 2314   2.513   1.745   0.797
  463DCME    H2 2315   2.665   1.758   0.892
  464DCME   Cl1 2316   0.270   4.602   4.334
  464DCME    C1 2317   0.304   4.603   4.511
  464DCME    Cl 2318   0.276   4.763   4.588
  464DCME    H1 2319   0.409   4.575   4.527
  464DCME    H2 2320   0.238   4.530   4.559
  465DCME   Cl1 2321   2.206   1.568   1.594
  465DCME    C1 2322   2.327   1.449   1.532
  465DCME    Cl 2323   2.361   1.467   1.356
  465DCME    H1 2324   2.288   1.349   1.549
  465DCME    H2 2325   2.421   1.465   1.586
  466DCME   Cl1 2326   0.968   2.022   4.439
  466DCME    C1 2327   1.063   2.110   4.315
  466DCME    Cl 2328   1.066   2.026   4.155
  466DCME    H1 2329   1.166   2.120   4.350
  466DCME    H2 2330   1.018   2.209   4.301
  467DCME   Cl1 2331   3.814   0.467   0.117
  467DCME    C1 2332   3.763   0.344   4.995
  467DCME    Cl 2333   3.725   0.416   4.835
  467DCME    H1 2334   3.673   0.294   0.032
  467DCME    H2 2335   3.845   0.274   4.982
  468DCME   Cl1 2336   1.714   1.640   2.853
  468DCME    C1 2337   1.787   1.632   3.018
  468DCME    Cl 2338   1.692   1.725   3.140
  468DCME    H1 2339   1.887   1.674   3.013
  468DCME    H2 2340   1.789   1.527   3.049
  469DCME   Cl1 2341   4.697   1.326   0.477
  469DCME    C1 2342   4.839   1.437   0.487
  469DCME    Cl 2343   4.981   1.379   0.393
  469DCME    H1 2344   4.869   1.445   0.592
  469DCME    H2 2345   4.809   1.534   0.447
  470DCME   Cl1 2346   2.102   1.710   3.453
  470DCME    C1 2347   2.082   1.599   3.593
  470DCME    Cl 2348   1.997   1.675   3.732
  470DCME    H1 2349   2.182   1.568   3.627
  470DCME    H2 2350   2.024   1.512   3.560
  471DCME   Cl1 2351   1.592   0.235   2.117
  471DCME    C1 2352   1.697   0.289   2.252
  471DCME    Cl 2353   1.824   0.168   2.295
  471DCME    H1 2354   1.635   0.307   2.340
  471DCME    H2 2355   1.748   0.381   2.220
  472DCME   Cl1 2356   2.723   2.964   3.141
  472DCME    C1 2357   2.645   2.807   3.178
  472DCME    Cl 2358   2.762   2.681   3.232
  472DCME    H1 2359   2.595   2.771   3.088
  472DCME    H2 2360   2.573   2.823   3.259
  473DCME   Cl1 2361   2.421   3.206   4.211
  473DCME    C1 2362   2.541   3.072   4.217
  473DCME    Cl 2363   2.488   2.926   4.127
  473DCME    H1 2364   2.557   3.044   4.322
  473DCME    H2 2365   2.634   3.107   4.172
  474DCME   Cl1 2366   1.492   3.236   0.125
  474DCME    C1 2367   1.580   3.384   0.076
  474DCME    Cl 2368   1.714   3.427   0.189
  474DCME    H1 2369   1.510   3.467   0.073
  474DCME    H2 2370   1.624   3.367   4.977
  475DCME   Cl1 2371   1.456   3.349   1.680
  475DCME    C1 2372   1.511   3.497   1.594
  475DCME    Cl 2373   1.482   3.492   1.417
  475DCME    H1 2374   1.618   3.510   1.612
  475DCME    H2 2375   1.455   3.582   1.635
  476DCME   Cl1 2376   2.244   3.080   0.054
  476DCME    C1 2377   2.143   2.990   4.935
  476DCME    Cl 2378   2.174   3.040   4.765
  476DCME    H1 2379   2.038   3.010   4.958
  476DCME    H2 2380   2.166   2.884   4.945
  477DCME   Cl1 2381   1.939   1.249   3.611
  477DCME    C1 2382   1.975   1.316   3.774
  477DCME    Cl 2383   2.150   1.351   3.798
  477DCME    H1 2384   1.945   1.243   3.849
  477DCME    H2 2385   1.920   1.409   3.786
  478DCME   Cl1 2386   2.558   4.974   1.589
  478DCME    C1 2387   2.589   0.142   1.532
  478DCME    Cl 2388   2.439   0.241   1.518
  478DCME    H1 2389   2.637   0.137   1.435
  478DCME    H2 2390   2.654   0.191   1.605
  479DCME   Cl1 2391   3.311   3.264   4.276
  479DCME    C1 2392   3.368   3.212   4.439
  479DCME    Cl 2393   3.308   3.318   4.571
  479DCME    H1 2394   3.477   3.215   4.439
  479DCME    H2 2395   3.331   3.111   4.457
  480DCME   Cl1 2396   1.976   3.868   1.654
  480DCME    C1 2397   1.934   3.902   1.482
  480DCME    Cl 2398   2.011   4.053   1.419
  480DCME    H1 2399   1.826   3.914   1.474
  480DCME    H2 2400   1.969   3.819   1.421
  481DCME   Cl1 2401   2.639   0.346   1.245
  481DCME    C1 2402   2.628   0.301   1.071
  481DCME    Cl 2403   2.782   0.324   0.982
  481DCME    H1 2404   2.551   0.364   1.025
  481DCME    H2 2405   2.600   0.196   1.065
  482DCME   Cl1 2406   3.917   3.833   0.205
  482DCME    C1 2407   3.738   3.817   0.191
  482DCME    Cl 2408   3.668   3.914   0.056
  482DCME    H1 2409   3.693   3.851   0.284
  482DCME    H2 2410   3.714   3.712   0.172
  483DCME   Cl1 2411   2.444   3.052   0.944
  483DCME    C1 2412   2.295   2.953   0.922
  483DCME    Cl 2413   2.155   3.015   1.016
  483DCME    H1 2414   2.317   2.851   0.956
  483DCME    H2 2415   2.269   2.954   0.816
  484DCME   Cl1 2416   1.893   1.065   2.392
  484DCME    C1 2417   1.791   1.049   2.539
  484DCME    Cl 2418   1.747   0.879   2.574
  484DCME    H1 2419   1.699   1.105   2.523
  484DCME    H2 2420   1.848   1.088   2.624
  485DCME   Cl1 2421   2.527   0.326   0.576
  485DCME    C1 2422   2.412   0.322   0.437
  485DCME    Cl 2423   2.303   0.466   0.434
  485DCME    H1 2424   2.349   0.233   0.446
  485DCME    H2 2425   2.469   0.320   0.345
  486DCME   Cl1 2426   2.700   0.432   1.722
  486DCME    C1 2427   2.567   0.365   1.824
  486DCME    Cl 2428   2.598   0.197   1.880
  486DCME    H1 2429   2.476   0.364   1.764
  486DCME    H2 2430   2.555   0.429   1.912
  487DCME   Cl1 2431   4.352   2.825   0.932
  487DCME    C1 2432   4.354   2.675   0.832
  487DCME    Cl 2433   4.499   2.573   0.861
  487DCME    H1 2434   4.353   2.705   0.727
  487DCME    H2 2435   4.265   2.617   0.856
  488DCME   Cl1 2436   0.472   2.835   3.567
  488DCME    C1 2437   0.603   2.928   3.485
  488DCME    Cl 2438   0.653   3.075   3.576
  488DCME    H1 2439   0.566   2.960   3.388
  488DCME    H2 2440   0.690   2.863   3.475
  489DCME   Cl1 2441   2.804   0.422   2.069
  489DCME    C1 2442   2.891   0.287   1.988
  489DCME    Cl 2443   3.068   0.287   2.020
  489DCME    H1 2444   2.876   0.295   1.880
  489DCME    H2 2445   2.849   0.193   2.025
  490DCME   Cl1 2446   4.837   4.953   0.162
  490DCME    C1 2447   4.853   4.777   0.129
  490DCME    Cl 2448   4.951   4.742   4.982
  490DCME    H1 2449   4.753   4.737   0.113
  490DCME    H2 2450   4.902   4.730   0.214
  491DCME   Cl1 2451   4.501   0.816   4.833
  491DCME    C1 2452   4.623   0.803   4.964
  491DCME    Cl 2453   4.574   0.690   0.095
  491DCME    H1 2454   4.637   0.902   0.007
  491DCME    H2 2455   4.717   0.766   4.920
  492DCME   Cl1 2456   4.408   3.865   3.859
  492DCME    C1 2457   4.345   3.795   4.012
  492DCME    Cl 2458   4.171   3.750   4.002
  492DCME    H1 2459   4.355   3.870   4.091
  492DCME    H2 2460   4.402   3.706   4.036
  493DCME   Cl1 2461   1.654   3.249   4.480
  493DCME    C1 2462   1.699   3.402   4.397
  493DCME    Cl 2463   1.653   3.548   4.491
  493DCME    H1 2464   1.648   3.405   4.301
  493DCME    H2 2465   1.807   3.403   4.384
  494DCME   Cl1 2466   4.791   1.230   3.953
  494DCME    C1 2467   4.891   1.114   4.047
  494DCME    Cl 2468   4.816   0.950   4.059
  494DCME    H1 2469   4.903   1.153   4.148
  494DCME    H2 2470   4.987   1.104   3.997
  495DCME   Cl1 2471   1.479   4.935   4.867
  495DCME    C1 2472   1.481   4.861   0.032
  495DCME    Cl 2473   1.441   4.978   0.162
  495DCME    H1 2474   1.582   4.823   0.050
  495DCME    H2 2475   1.408   4.780   0.034
  496DCME   Cl1 2476   1.471   3.325   0.769
  496DCME    C1 2477   1.511   3.264   0.934
  496DCME    Cl 2478   1.517   3.085   0.944
  496DCME    H1 2479   1.435   3.299   1.003
  496DCME    H2 2480   1.610   3.302   0.962
  497DCME   Cl1 2481   0.906   1.940   1.366
  497DCME    C1 2482   0.736   1.999   1.348
  497DCME    Cl 2483   0.726   2.162   1.274
  497DCME    H1 2484   0.691   2.003   1.447
  497DCME    H2 2485   0.682   1.929   1.284
  498DCME   Cl1 2486   3.726   2.156   4.611
  498DCME    C1 2487   3.716   2.095   4.442
  498DCME    Cl 2488   3.599   2.186   4.340
  498DCME    H1 2489   3.684   1.991   4.446
  498DCME    H2 2490   3.815   2.104   4.397
  499DCME   Cl1 2491   3.168   0.797   1.325
  499DCME    C1 2492   3.163   0.697   1.475
  499DCME    Cl 2493   3.326   0.652   1.536
  499DCME    H1 2494   3.109   0.604   1.452
  499DCME    H2 2495   3.112   0.753   1.553
  500DCME   Cl1 2496   4.661   0.473   2.454
  500DCME    C1 2497   4.809   0.503   2.357
  500DCME    Cl 2498   4.789   0.461   2.183
  500DCME    H1 2499   4.890   0.442   2.399
  500DCME    H2 2500   4.835   0.608   2.364
  501DCME   Cl1 2501   1.249   3.485   1.985
  501DCME    C1 2502   1.203   3.657   1.958
  501DCME    Cl 2503   1.066   3.709   2.062
  501DCME    H1 2504   1.172   3.668   1.854
  501DCME    H2 2505   1.289   3.720   1.981
  502DCME   Cl1 2506   4.943   1.142   2.949
  502DCME    C1 2507   4.794   1.114   2.853
  502DCME    Cl 2508   4.748   1.254   2.751
  502DCME    H1 2509   4.712   1.094   2.922
  502DCME    H2 2510   4.812   1.028   2.787
  503DCME   Cl1 2511   4.023   2.501   2.185
  503DCME    C1 2512   3.845   2.508   2.163
  503DCME    Cl 2513   3.797   2.586   2.008
  503DCME    H1 2514   3.802   2.565   2.245
  503DCME    H2 2515   3.806   2.405   2.163
  504DCME   Cl1 2516   3.395   1.388   4.832
  504DCME    C1 2517   3.411   1.320   4.997
  504DCME    Cl 2518   3.257   1.252   0.062
  504DCME    H1 2519   3.443   1.400   0.064
  504DCME    H2 2520   3.485   1.239   4.995
  505DCME   Cl1 2521   2.141   1.342   2.280
  505DCME    C1 2522   2.203   1.176   2.309
  505DCME    Cl 2523   2.173   1.065   2.170
  505DCME    H1 2524   2.153   1.135   2.397
  505DCME    H2 2525   2.311   1.182   2.325
  506DCME   Cl1 2526   2.434   4.108   3.007
  506DCME    C1 2527   2.412   4.257   3.107
  506DCME    Cl 2528   2.241   4.310   3.120
  506DCME    H1 2529   2.470   4.337   3.061
  506DCME    H2 2530   2.449   4.235   3.208
  507DCME   Cl1 2531   2.752   3.850   1.440
  507DCME    C1 2532   2.869   3.929   1.552
  507DCME    Cl 2533   3.013   3.997   1.470
  507DCME    H1 2534   2.903   3.854   1.624
  507DCME    H2 2535   2.816   4.010   1.603
  508DCME   Cl1 2536   2.235   2.782   2.862
  508DCME    C1 2537   2.177   2.835   3.024
  508DCME    Cl 2538   2.309   2.842   3.146
  508DCME    H1 2539   2.102   2.763   3.058
  508DCME    H2 2540   2.134   2.935   3.014
  509DCME   Cl1 2541   1.466   1.351   1.080
  509DCME    C1 2542   1.420   1.298   0.914
  509DCME    Cl 2543   1.547   1.198   0.834
  509DCME    H1 2544   1.404   1.387   0.853
  509DCME    H2 2545   1.329   1.239   0.921
  510DCME   Cl1 2546   3.355   3.713   0.970
  510DCME    C1 2547   3.307   3.887   0.973
  510DCME    Cl 2548   3.389   3.984   0.845
  510DCME    H1 2549   3.334   3.928   1.070
  510DCME    H2 2550   3.199   3.893   0.956
  511DCME   Cl1 2551   3.607   1.826   4.228
  511DCME    C1 2552   3.667   1.765   4.069
  511DCME    Cl 2553   3.535   1.742   3.949
  511DCME    H1 2554   3.716   1.669   4.085
  511DCME    H2 2555   3.738   1.838   4.028
  512DCME   Cl1 2556   3.209   2.244   1.410
  512DCME    C1 2557   3.175   2.281   1.583
  512DCME    Cl 2558   3.001   2.314   1.615
  512DCME    H1 2559   3.232   2.370   1.611
  512DCME    H2 2560   3.206   2.196   1.643
   5.00000   5.00000   5.00000
