;
;	File 'topol.top' was generated
;	By user: unknown (93529)
;	On host: chas009
;	At date: Thu Feb 26 10:20:55 2026
;
;	This is a standalone topology file
;
;	Created by:
;	              :-) GROMACS - gmx pdb2gmx, 2021.4-plumed-2.8.0 (-:
;	
;	Executable:   /home/apps/centos7/gromacs/2021.4/gcc9.1_ompi4.1.2/bin/gmx_mpi
;	Data prefix:  /home/apps/centos7/gromacs/2021.4/gcc9.1_ompi4.1.2
;	Working dir:  /scratch/mse/phd/msz208502/dev_gromacs/20_methane_in_water
;	Command line:
;	  gmx_mpi pdb2gmx -f methane.pdb
;	Force field was read from current directory or a relative path - path added.
;

; Include forcefield parameters
#include "./oplsaa.ff/forcefield.itp"
#include "oplsaa.ff/tip4pew.itp"

[ moleculetype ]
; Name            nrexcl
Other               3

[ atoms ]
;   nr       type  resnr residue  atom   cgnr     charge       mass  typeB    chargeB      massB
; residue   1 CH4 rtp CH4  q  0.0
     1   opls_138      1    CH4      C      1      -0.24     12.011
     2   opls_140      1    CH4     H1      1       0.06      1.008
     3   opls_140      1    CH4     H2      1       0.06      1.008
     4   opls_140      1    CH4     H3      1       0.06      1.008
     5   opls_140      1    CH4     H4      1       0.06      1.008   ; qtot 0

[ bonds ]
;  ai    aj funct            c0            c1            c2            c3
    1     2     1 
    1     3     1 
    1     4     1 
    1     5     1 

[ angles ]
;  ai    aj    ak funct            c0            c1            c2            c3
    2     1     3     1 
    2     1     4     1 
    2     1     5     1 
    3     1     4     1 
    3     1     5     1 
    4     1     5     1 

; Include Position restraint file
#ifdef POSRES
#include "posre.itp"
#endif

[ system ]
; Name
METHANE in water

[ molecules ]
; Compound        #mols
Other               1
SOL               391
