UNNAMED in water
 2645
    1PRO      N    1   1.405   1.399   1.499
    1PRO     H1    2   1.373   1.333   1.431
    1PRO     H2    3   1.376   1.367   1.591
    1PRO     CD    4   1.351   1.539   1.477
    1PRO    HD1    5   1.284   1.567   1.560
    1PRO    HD2    6   1.296   1.545   1.381
    1PRO     CA    7   1.555   1.405   1.504
    1PRO     HA    8   1.594   1.312   1.463
    1PRO     CB    9   1.586   1.533   1.427
    1PRO    HB1   10   1.688   1.570   1.451
    1PRO    HB2   11   1.579   1.516   1.317
    1PRO     CG   12   1.475   1.629   1.473
    1PRO    HG1   13   1.499   1.664   1.576
    1PRO    HG2   14   1.464   1.717   1.407
    1PRO      C   15   1.598   1.416   1.649
    1PRO    OT1   16   1.514   1.451   1.738
    1PRO    OT2   17   1.717   1.394   1.676
    2SOL     OW   18   0.237   0.661   0.106
    2SOL    HW1   19   0.170   0.614   0.155
    2SOL    HW2   20   0.251   0.608   0.027
    3SOL     OW   21   0.204   0.271   1.001
    3SOL    HW1   22   0.242   0.247   1.085
    3SOL    HW2   23   0.111   0.254   1.011
    4SOL     OW   24   0.008   0.387   0.658
    4SOL    HW1   25   2.925   0.427   0.685
    4SOL    HW2   26   2.983   0.314   0.601
    5SOL     OW   27   0.569   1.283   1.172
    5SOL    HW1   28   0.479   1.280   1.139
    5SOL    HW2   29   0.578   1.372   1.208
    6SOL     OW   30   1.558   1.510   0.704
    6SOL    HW1   31   1.513   1.496   0.788
    6SOL    HW2   32   1.487   1.517   0.640
    7SOL     OW   33   1.131   0.700   0.702
    7SOL    HW1   34   1.180   0.780   0.691
    7SOL    HW2   35   1.082   0.712   0.783
    8SOL     OW   36   1.766   0.593   0.232
    8SOL    HW1   37   1.744   0.580   0.140
    8SOL    HW2   38   1.727   0.518   0.277
    9SOL     OW   39   0.764   1.146   1.040
    9SOL    HW1   40   0.691   1.177   1.094
    9SOL    HW2   41   0.792   1.224   0.992
   10SOL     OW   42   0.859   0.782   1.821
   10SOL    HW1   43   0.853   0.853   1.884
   10SOL    HW2   44   0.886   0.824   1.739
   11SOL     OW   45   0.686   1.006   0.650
   11SOL    HW1   46   0.749   0.993   0.721
   11SOL    HW2   47   0.615   1.056   0.691
   12SOL     OW   48   0.708   1.152   1.808
   12SOL    HW1   49   0.754   1.232   1.833
   12SOL    HW2   50   0.623   1.182   1.776
   13SOL     OW   51   0.332   1.429   1.071
   13SOL    HW1   52   0.266   1.382   1.022
   13SOL    HW2   53   0.383   1.476   1.005
   14SOL     OW   54   0.451   0.402   1.493
   14SOL    HW1   55   0.525   0.341   1.496
   14SOL    HW2   56   0.374   0.347   1.506
   15SOL     OW   57   1.611   0.456   0.735
   15SOL    HW1   58   1.536   0.481   0.682
   15SOL    HW2   59   1.628   0.533   0.790
   16SOL     OW   60   0.218   1.715   0.480
   16SOL    HW1   61   0.240   1.797   0.524
   16SOL    HW2   62   0.288   1.704   0.415
   17SOL     OW   63   1.147   1.329   1.676
   17SOL    HW1   64   1.185   1.339   1.763
   17SOL    HW2   65   1.085   1.256   1.686
   18SOL     OW   66   0.249   1.450   0.530
   18SOL    HW1   67   0.211   1.538   0.525
   18SOL    HW2   68   0.188   1.401   0.585
   19SOL     OW   69   0.259   1.082   0.893
   19SOL    HW1   70   0.253   0.995   0.933
   19SOL    HW2   71   0.197   1.136   0.943
   20SOL     OW   72   0.622   1.788   1.437
   20SOL    HW1   73   0.536   1.769   1.476
   20SOL    HW2   74   0.638   1.880   1.457
   21SOL     OW   75   0.590   0.975   0.149
   21SOL    HW1   76   0.605   1.048   0.088
   21SOL    HW2   77   0.631   1.004   0.231
   22SOL     OW   78   1.551   0.144   1.460
   22SOL    HW1   79   1.590   0.217   1.412
   22SOL    HW2   80   1.620   0.115   1.520
   23SOL     OW   81   0.123   0.628   0.571
   23SOL    HW1   82   0.084   0.551   0.611
   23SOL    HW2   83   0.119   0.695   0.638
   24SOL     OW   84   1.844   1.759   0.336
   24SOL    HW1   85   1.902   1.726   0.405
   24SOL    HW2   86   1.870   1.851   0.326
   25SOL     OW   87   0.022   1.599   0.117
   25SOL    HW1   88   0.021   1.505   0.130
   25SOL    HW2   89   2.988   1.636   0.199
   26SOL     OW   90   1.690   0.919   0.639
   26SOL    HW1   91   1.774   0.879   0.619
   26SOL    HW2   92   1.668   0.969   0.560
   27SOL     OW   93   1.646   1.108   0.432
   27SOL    HW1   94   1.732   1.114   0.389
   27SOL    HW2   95   1.652   1.168   0.506
   28SOL     OW   96   0.129   0.747   1.590
   28SOL    HW1   97   0.224   0.758   1.595
   28SOL    HW2   98   0.094   0.836   1.591
   29SOL     OW   99   0.612   1.382   0.736
   29SOL    HW1  100   0.565   1.299   0.744
   29SOL    HW2  101   0.595   1.410   0.646
   30SOL     OW  102   0.819   0.012   0.513
   30SOL    HW1  103   0.849   0.101   0.498
   30SOL    HW2  104   0.725   0.015   0.499
   31SOL     OW  105   0.188   0.957   1.274
   31SOL    HW1  106   0.272   0.918   1.251
   31SOL    HW2  107   0.124   0.912   1.219
   32SOL     OW  108   1.506   1.007   0.210
   32SOL    HW1  109   1.442   0.947   0.247
   32SOL    HW2  110   1.560   1.034   0.284
   33SOL     OW  111   1.193   1.813   1.621
   33SOL    HW1  112   1.196   1.876   1.548
   33SOL    HW2  113   1.149   1.736   1.585
   34SOL     OW  114   0.331   0.253   1.795
   34SOL    HW1  115   0.382   0.329   1.822
   34SOL    HW2  116   0.248   0.262   1.841
   35SOL     OW  117   1.473   1.410   0.959
   35SOL    HW1  118   1.396   1.429   1.014
   35SOL    HW2  119   1.455   1.323   0.923
   36SOL     OW  120   1.661   1.734   0.578
   36SOL    HW1  121   1.638   1.706   0.489
   36SOL    HW2  122   1.636   1.660   0.633
   37SOL     OW  123   0.591   0.720   0.266
   37SOL    HW1  124   0.601   0.802   0.218
   37SOL    HW2  125   0.529   0.739   0.336
   38SOL     OW  126   1.286   0.343   0.930
   38SOL    HW1  127   1.194   0.317   0.938
   38SOL    HW2  128   1.331   0.292   0.998
   39SOL     OW  129   1.583   1.667   0.310
   39SOL    HW1  130   1.672   1.702   0.303
   39SOL    HW2  131   1.557   1.647   0.220
   40SOL     OW  132   0.793   0.618   1.455
   40SOL    HW1  133   0.765   0.595   1.543
   40SOL    HW2  134   0.751   0.553   1.398
   41SOL     OW  135   1.397   0.478   1.677
   41SOL    HW1  136   1.398   0.521   1.763
   41SOL    HW2  137   1.454   0.402   1.688
   42SOL     OW  138   0.960   0.889   1.581
   42SOL    HW1  139   1.012   0.816   1.547
   42SOL    HW2  140   0.910   0.919   1.505
   43SOL     OW  141   0.995   0.424   1.229
   43SOL    HW1  142   0.917   0.436   1.284
   43SOL    HW2  143   0.964   0.372   1.155
   44SOL     OW  144   1.048   0.705   0.425
   44SOL    HW1  145   1.065   0.695   0.519
   44SOL    HW2  146   0.968   0.655   0.409
   45SOL     OW  147   0.103   0.817   0.762
   45SOL    HW1  148   0.180   0.813   0.818
   45SOL    HW2  149   0.040   0.869   0.811
   46SOL     OW  150   0.139   1.834   1.571
   46SOL    HW1  151   0.125   1.814   1.664
   46SOL    HW2  152   0.053   1.863   1.540
   47SOL     OW  153   0.929   0.338   0.220
   47SOL    HW1  154   0.936   0.399   0.147
   47SOL    HW2  155   0.881   0.264   0.184
   48SOL     OW  156   1.712   0.578   1.829
   48SOL    HW1  157   1.674   0.655   1.785
   48SOL    HW2  158   1.734   0.519   1.757
   49SOL     OW  159   1.375   1.141   0.541
   49SOL    HW1  160   1.454   1.129   0.488
   49SOL    HW2  161   1.323   1.204   0.492
   50SOL     OW  162   0.513   0.195   0.914
   50SOL    HW1  163   0.536   0.211   1.006
   50SOL    HW2  164   0.547   0.272   0.868
   51SOL     OW  165   1.010   1.449   0.475
   51SOL    HW1  166   0.967   1.517   0.424
   51SOL    HW2  167   0.988   1.470   0.566
   52SOL     OW  168   0.354   1.806   0.855
   52SOL    HW1  169   0.400   1.723   0.867
   52SOL    HW2  170   0.419   1.873   0.873
   53SOL     OW  171   1.799   1.060   0.867
   53SOL    HW1  172   1.745   1.044   0.790
   53SOL    HW2  173   1.737   1.061   0.940
   54SOL     OW  174   0.320   0.949   0.234
   54SOL    HW1  175   0.411   0.957   0.205
   54SOL    HW2  176   0.293   0.862   0.204
   55SOL     OW  177   1.475   0.740   0.729
   55SOL    HW1  178   1.465   0.694   0.812
   55SOL    HW2  179   1.553   0.794   0.741
   56SOL     OW  180   0.466   1.260   1.734
   56SOL    HW1  181   0.437   1.267   1.643
   56SOL    HW2  182   0.385   1.266   1.786
   57SOL     OW  183   1.111   1.776   0.224
   57SOL    HW1  184   1.051   1.728   0.282
   57SOL    HW2  185   1.141   1.711   0.161
   58SOL     OW  186   0.201   0.297   1.495
   58SOL    HW1  187   0.117   0.343   1.492
   58SOL    HW2  188   0.186   0.223   1.554
   59SOL     OW  189   1.627   1.362   0.085
   59SOL    HW1  190   1.600   1.454   0.076
   59SOL    HW2  191   1.545   1.313   0.078
   60SOL     OW  192   0.467   1.724   0.334
   60SOL    HW1  193   0.499   1.793   0.392
   60SOL    HW2  194   0.532   1.718   0.265
   61SOL     OW  195   1.409   0.108   0.436
   61SOL    HW1  196   1.391   0.082   0.346
   61SOL    HW2  197   1.503   0.126   0.437
   62SOL     OW  198   0.267   1.797   1.233
   62SOL    HW1  199   0.302   1.723   1.282
   62SOL    HW2  200   0.227   1.758   1.155
   63SOL     OW  201   0.939   1.697   0.900
   63SOL    HW1  202   1.016   1.643   0.915
   63SOL    HW2  203   0.890   1.650   0.831
   64SOL     OW  204   0.392   0.692   0.474
   64SOL    HW1  205   0.423   0.603   0.491
   64SOL    HW2  206   0.300   0.691   0.499
   65SOL     OW  207   1.538   0.249   1.735
   65SOL    HW1  208   1.541   0.257   1.830
   65SOL    HW2  209   1.484   0.172   1.718
   66SOL     OW  210   0.609   0.110   0.107
   66SOL    HW1  211   0.704   0.109   0.118
   66SOL    HW2  212   0.597   0.144   0.018
   67SOL     OW  213   0.765   0.270   1.748
   67SOL    HW1  214   0.841   0.214   1.765
   67SOL    HW2  215   0.722   0.278   1.834
   68SOL     OW  216   0.879   1.521   1.192
   68SOL    HW1  217   0.859   1.488   1.105
   68SOL    HW2  218   0.948   1.463   1.225
   69SOL     OW  219   1.343   0.589   1.433
   69SOL    HW1  220   1.372   0.556   1.517
   69SOL    HW2  221   1.377   0.678   1.429
   70SOL     OW  222   0.814   1.398   0.935
   70SOL    HW1  223   0.896   1.389   0.888
   70SOL    HW2  224   0.747   1.396   0.867
   71SOL     OW  225   0.927   0.511   0.903
   71SOL    HW1  226   0.905   0.503   0.810
   71SOL    HW2  227   0.959   0.424   0.927
   72SOL     OW  228   0.541   0.048   0.498
   72SOL    HW1  229   0.455   0.040   0.538
   72SOL    HW2  230   0.534   0.125   0.442
   73SOL     OW  231   1.411   1.208   0.049
   73SOL    HW1  232   1.432   1.133   0.104
   73SOL    HW2  233   1.322   1.233   0.074
   74SOL     OW  234   0.299   0.082   0.197
   74SOL    HW1  235   0.382   0.130   0.191
   74SOL    HW2  236   0.326   2.990   0.199
   75SOL     OW  237   0.945   0.252   0.474
   75SOL    HW1  238   0.922   0.289   0.389
   75SOL    HW2  239   1.040   0.261   0.479
   76SOL     OW  240   1.080   0.679   1.458
   76SOL    HW1  241   1.010   0.614   1.466
   76SOL    HW2  242   1.160   0.627   1.453
   77SOL     OW  243   1.227   1.572   0.796
   77SOL    HW1  244   1.238   1.636   0.726
   77SOL    HW2  245   1.298   1.590   0.858
   78SOL     OW  246   0.467   1.147   0.738
   78SOL    HW1  247   0.396   1.128   0.799
   78SOL    HW2  248   0.430   1.134   0.651
   79SOL     OW  249   1.270   1.795   0.605
   79SOL    HW1  250   1.316   1.856   0.548
   79SOL    HW2  251   1.205   1.849   0.651
   80SOL     OW  252   1.044   0.500   0.030
   80SOL    HW1  253   1.001   0.585   0.020
   80SOL    HW2  254   1.112   0.514   0.096
   81SOL     OW  255   0.081   0.565   1.390
   81SOL    HW1  256   0.170   0.560   1.356
   81SOL    HW2  257   0.085   0.630   1.461
   82SOL     OW  258   0.579   0.213   1.178
   82SOL    HW1  259   0.614   0.166   1.254
   82SOL    HW2  260   0.486   0.224   1.196
   83SOL     OW  261   0.877   0.471   0.638
   83SOL    HW1  262   0.821   0.516   0.576
   83SOL    HW2  263   0.885   0.382   0.603
   84SOL     OW  264   0.999   0.055   0.766
   84SOL    HW1  265   0.963   0.063   0.677
   84SOL    HW2  266   0.975   2.966   0.793
   85SOL     OW  267   1.434   1.162   0.857
   85SOL    HW1  268   1.367   1.094   0.852
   85SOL    HW2  269   1.462   1.176   0.767
   86SOL     OW  270   1.469   0.603   0.980
   86SOL    HW1  271   1.418   0.521   0.986
   86SOL    HW2  272   1.529   0.599   1.054
   87SOL     OW  273   1.845   0.818   0.384
   87SOL    HW1  274   1.901   0.761   0.436
   87SOL    HW2  275   1.820   0.765   0.308
   88SOL     OW  276   0.490   1.406   0.153
   88SOL    HW1  277   0.424   1.375   0.216
   88SOL    HW2  278   0.442   1.413   0.070
   89SOL     OW  279   1.668   1.264   0.652
   89SOL    HW1  280   1.763   1.269   0.662
   89SOL    HW2  281   1.637   1.353   0.669
   90SOL     OW  282   1.414   0.576   0.098
   90SOL    HW1  283   1.342   0.568   0.161
   90SOL    HW2  284   1.460   0.492   0.104
   91SOL     OW  285   0.528   0.263   0.326
   91SOL    HW1  286   0.569   0.213   0.255
   91SOL    HW2  287   0.502   0.345   0.285
   92SOL     OW  288   1.069   1.343   1.354
   92SOL    HW1  289   0.978   1.329   1.378
   92SOL    HW2  290   1.119   1.303   1.425
   93SOL     OW  291   1.129   1.212   1.106
   93SOL    HW1  292   1.058   1.229   1.168
   93SOL    HW2  293   1.090   1.229   1.020
   94SOL     OW  294   1.630   1.096   1.074
   94SOL    HW1  295   1.629   1.163   1.142
   94SOL    HW2  296   1.548   1.110   1.025
   95SOL     OW  297   0.901   0.109   1.388
   95SOL    HW1  298   0.940   0.091   1.303
   95SOL    HW2  299   0.965   0.163   1.434
   96SOL     OW  300   0.981   1.118   1.717
   96SOL    HW1  301   0.890   1.129   1.742
   96SOL    HW2  302   0.982   1.037   1.666
   97SOL     OW  303   0.704   1.063   0.378
   97SOL    HW1  304   0.689   1.049   0.472
   97SOL    HW2  305   0.784   1.014   0.359
   98SOL     OW  306   0.420   0.812   1.248
   98SOL    HW1  307   0.487   0.823   1.316
   98SOL    HW2  308   0.383   0.726   1.265
   99SOL     OW  309   1.272   0.389   1.259
   99SOL    HW1  310   1.300   0.460   1.316
   99SOL    HW2  311   1.178   0.401   1.248
  100SOL     OW  312   0.068   1.572   1.309
  100SOL    HW1  313   0.025   1.653   1.338
  100SOL    HW2  314   0.155   1.575   1.349
  101SOL     OW  315   0.361   1.110   0.490
  101SOL    HW1  316   0.349   1.183   0.430
  101SOL    HW2  317   0.354   1.032   0.434
  102SOL     OW  318   0.553   0.541   0.863
  102SOL    HW1  319   0.572   0.596   0.786
  102SOL    HW2  320   0.618   0.568   0.928
  103SOL     OW  321   1.248   1.346   0.397
  103SOL    HW1  322   1.303   1.419   0.423
  103SOL    HW2  323   1.160   1.369   0.427
  104SOL     OW  324   1.270   1.448   1.135
  104SOL    HW1  325   1.295   1.441   1.227
  104SOL    HW2  326   1.213   1.373   1.120
  105SOL     OW  327   1.584   0.627   0.478
  105SOL    HW1  328   1.539   0.684   0.540
  105SOL    HW2  329   1.630   0.686   0.419
  106SOL     OW  330   0.350   1.528   1.321
  106SOL    HW1  331   0.331   1.486   1.237
  106SOL    HW2  332   0.445   1.538   1.322
  107SOL     OW  333   0.411   0.741   1.602
  107SOL    HW1  334   0.468   0.791   1.543
  107SOL    HW2  335   0.459   0.659   1.618
  108SOL     OW  336   1.596   0.774   1.678
  108SOL    HW1  337   1.508   0.811   1.673
  108SOL    HW2  338   1.646   0.823   1.612
  109SOL     OW  339   1.004   0.110   1.762
  109SOL    HW1  340   1.047   0.192   1.737
  109SOL    HW2  341   1.026   0.049   1.692
  110SOL     OW  342   0.503   0.051   1.750
  110SOL    HW1  343   0.471   2.990   1.683
  110SOL    HW2  344   0.435   0.117   1.757
  111SOL     OW  345   0.585   0.871   1.032
  111SOL    HW1  346   0.608   0.964   1.027
  111SOL    HW2  347   0.526   0.865   1.107
  112SOL     OW  348   1.359   0.862   1.039
  112SOL    HW1  349   1.279   0.854   0.987
  112SOL    HW2  350   1.398   0.775   1.037
  113SOL     OW  351   1.205   0.531   0.271
  113SOL    HW1  352   1.214   0.450   0.322
  113SOL    HW2  353   1.163   0.593   0.331
  114SOL     OW  354   0.325   0.207   1.248
  114SOL    HW1  355   0.290   0.251   1.326
  114SOL    HW2  356   0.274   0.125   1.243
  115SOL     OW  357   0.033   1.305   1.279
  115SOL    HW1  358   0.067   1.259   1.356
  115SOL    HW2  359   0.044   1.398   1.299
  116SOL     OW  360   0.727   0.632   1.060
  116SOL    HW1  361   0.799   0.614   1.000
  116SOL    HW2  362   0.698   0.721   1.038
  117SOL     OW  363   1.735   0.955   1.854
  117SOL    HW1  364   1.684   0.906   1.790
  117SOL    HW2  365   1.675   0.971   1.926
  118SOL     OW  366   0.308   0.070   0.642
  118SOL    HW1  367   0.304   0.156   0.683
  118SOL    HW2  368   0.284   0.009   0.711
  119SOL     OW  369   1.615   0.374   0.368
  119SOL    HW1  370   1.646   0.310   0.432
  119SOL    HW2  371   1.590   0.450   0.420
  120SOL     OW  372   1.027   0.760   0.963
  120SOL    HW1  373   1.027   0.777   1.057
  120SOL    HW2  374   1.000   0.668   0.955
  121SOL     OW  375   1.000   1.567   1.707
  121SOL    HW1  376   0.967   1.605   1.625
  121SOL    HW2  377   1.026   1.478   1.682
  122SOL     OW  378   0.355   0.915   1.809
  122SOL    HW1  379   0.437   0.934   1.855
  122SOL    HW2  380   0.380   0.852   1.741
  123SOL     OW  381   1.502   0.301   0.125
  123SOL    HW1  382   1.463   0.216   0.141
  123SOL    HW2  383   1.559   0.316   0.201
  124SOL     OW  384   1.293   0.824   0.034
  124SOL    HW1  385   1.335   0.739   0.048
  124SOL    HW2  386   1.323   0.851   2.948
  125SOL     OW  387   1.067   1.335   0.853
  125SOL    HW1  388   1.068   1.262   0.790
  125SOL    HW2  389   1.128   1.399   0.815
  126SOL     OW  390   0.311   0.808   0.948
  126SOL    HW1  391   0.404   0.827   0.943
  126SOL    HW2  392   0.307   0.720   0.987
  127SOL     OW  393   0.336   0.514   1.017
  127SOL    HW1  394   0.295   0.431   0.991
  127SOL    HW2  395   0.409   0.524   0.956
  128SOL     OW  396   1.141   0.382   1.699
  128SOL    HW1  397   1.096   0.436   1.764
  128SOL    HW2  398   1.228   0.421   1.691
  129SOL     OW  399   1.100   0.256   1.471
  129SOL    HW1  400   1.122   0.306   1.549
  129SOL    HW2  401   1.185   0.234   1.432
  130SOL     OW  402   0.008   1.315   0.172
  130SOL    HW1  403   2.916   1.330   0.150
  130SOL    HW2  404   0.007   1.240   0.231
  131SOL     OW  405   0.098   1.806   0.968
  131SOL    HW1  406   0.056   1.741   0.912
  131SOL    HW2  407   0.184   1.821   0.927
  132SOL     OW  408   0.497   1.573   0.903
  132SOL    HW1  409   0.565   1.634   0.929
  132SOL    HW2  410   0.542   1.508   0.849
  133SOL     OW  411   0.987   0.798   1.229
  133SOL    HW1  412   1.040   0.769   1.304
  133SOL    HW2  413   0.902   0.757   1.243
  134SOL     OW  414   0.044   0.560   1.106
  134SOL    HW1  415   0.133   0.533   1.082
  134SOL    HW2  416   0.039   0.543   1.200
  135SOL     OW  417   0.193   0.518   1.719
  135SOL    HW1  418   0.265   0.493   1.662
  135SOL    HW2  419   0.158   0.598   1.681
  136SOL     OW  420   1.376   0.941   1.667
  136SOL    HW1  421   1.400   1.031   1.687
  136SOL    HW2  422   1.383   0.935   1.572
  137SOL     OW  423   0.819   0.577   0.347
  137SOL    HW1  424   0.821   0.498   0.294
  137SOL    HW2  425   0.737   0.620   0.323
  138SOL     OW  426   1.644   0.603   1.189
  138SOL    HW1  427   1.630   0.544   1.263
  138SOL    HW2  428   1.730   0.579   1.155
  139SOL     OW  429   0.282   1.560   1.747
  139SOL    HW1  430   0.221   1.618   1.793
  139SOL    HW2  431   0.252   1.472   1.768
  140SOL     OW  432   0.694   0.457   1.264
  140SOL    HW1  433   0.648   0.380   1.231
  140SOL    HW2  434   0.695   0.518   1.190
  141SOL     OW  435   0.947   1.683   1.462
  141SOL    HW1  436   0.909   1.647   1.383
  141SOL    HW2  437   0.929   1.777   1.457
  142SOL     OW  438   0.449   0.495   0.200
  142SOL    HW1  439   0.512   0.564   0.219
  142SOL    HW2  440   0.365   0.541   0.189
  143SOL     OW  441   0.161   1.144   1.465
  143SOL    HW1  442   0.145   1.095   1.546
  143SOL    HW2  443   0.168   1.076   1.397
  144SOL     OW  444   1.338   1.064   1.224
  144SOL    HW1  445   1.357   0.995   1.160
  144SOL    HW2  446   1.260   1.107   1.190
  145SOL     OW  447   1.306   0.851   0.312
  145SOL    HW1  448   1.229   0.820   0.359
  145SOL    HW2  449   1.284   0.840   0.219
  146SOL     OW  450   1.737   1.754   1.116
  146SOL    HW1  451   1.816   1.775   1.066
  146SOL    HW2  452   1.733   1.658   1.114
  147SOL     OW  453   1.247   1.730   1.125
  147SOL    HW1  454   1.326   1.754   1.076
  147SOL    HW2  455   1.245   1.634   1.121
  148SOL     OW  456   0.093   1.245   1.026
  148SOL    HW1  457   0.076   1.259   1.119
  148SOL    HW2  458   0.008   1.262   0.984
  149SOL     OW  459   0.681   1.666   1.725
  149SOL    HW1  460   0.622   1.741   1.728
  149SOL    HW2  461   0.732   1.679   1.645
  150SOL     OW  462   0.880   0.081   0.143
  150SOL    HW1  463   0.940   0.065   0.071
  150SOL    HW2  464   0.914   0.027   0.215
  151SOL     OW  465   1.715   0.141   0.507
  151SOL    HW1  466   1.785   0.139   0.442
  151SOL    HW2  467   1.728   0.061   0.558
  152SOL     OW  468   1.390   1.569   0.483
  152SOL    HW1  469   1.451   1.599   0.417
  152SOL    HW2  470   1.343   1.648   0.511
  153SOL     OW  471   0.124   1.798   1.843
  153SOL    HW1  472   0.082   1.729   1.894
  153SOL    HW2  473   0.181   1.842   1.906
  154SOL     OW  474   1.278   0.926   0.672
  154SOL    HW1  475   1.350   0.864   0.676
  154SOL    HW2  476   1.311   0.998   0.619
  155SOL     OW  477   0.817   1.278   1.425
  155SOL    HW1  478   0.792   1.312   1.511
  155SOL    HW2  479   0.741   1.294   1.369
  156SOL     OW  480   0.673   1.608   0.159
  156SOL    HW1  481   0.671   1.628   0.066
  156SOL    HW2  482   0.617   1.531   0.168
  157SOL     OW  483   1.757   1.807   1.385
  157SOL    HW1  484   1.730   1.783   1.296
  157SOL    HW2  485   1.683   1.856   1.420
  158SOL     OW  486   1.849   0.156   0.967
  158SOL    HW1  487   1.854   0.075   0.918
  158SOL    HW2  488   1.767   0.197   0.939
  159SOL     OW  489   0.268   0.334   0.742
  159SOL    HW1  490   0.178   0.364   0.728
  159SOL    HW2  491   0.268   0.303   0.833
  160SOL     OW  492   1.205   1.604   0.034
  160SOL    HW1  493   1.199   1.514   0.066
  160SOL    HW2  494   1.152   1.604   2.953
  161SOL     OW  495   0.823   1.007   1.374
  161SOL    HW1  496   0.862   1.001   1.287
  161SOL    HW2  497   0.824   1.101   1.394
  162SOL     OW  498   0.920   0.927   0.304
  162SOL    HW1  499   0.985   0.963   0.244
  162SOL    HW2  500   0.968   0.860   0.354
  163SOL     OW  501   1.488   1.601   0.050
  163SOL    HW1  502   1.393   1.613   0.053
  163SOL    HW2  503   1.514   1.637   2.966
  164SOL     OW  504   0.376   1.303   1.489
  164SOL    HW1  505   0.356   1.383   1.440
  164SOL    HW2  506   0.299   1.248   1.476
  165SOL     OW  507   1.049   1.106   0.707
  165SOL    HW1  508   0.978   1.054   0.745
  165SOL    HW2  509   1.109   1.041   0.671
  166SOL     OW  510   1.018   0.243   0.965
  166SOL    HW1  511   1.011   0.192   0.885
  166SOL    HW2  512   1.020   0.178   1.035
  167SOL     OW  513   0.602   1.492   0.485
  167SOL    HW1  514   0.640   1.440   0.414
  167SOL    HW2  515   0.537   1.547   0.442
  168SOL     OW  516   1.719   0.392   1.379
  168SOL    HW1  517   1.792   0.454   1.376
  168SOL    HW2  518   1.747   0.321   1.320
  169SOL     OW  519   0.265   1.334   0.293
  169SOL    HW1  520   0.176   1.340   0.259
  169SOL    HW2  521   0.261   1.380   0.377
  170SOL     OW  522   0.125   1.011   1.706
  170SOL    HW1  523   0.050   0.974   1.753
  170SOL    HW2  524   0.201   0.978   1.753
  171SOL     OW  525   0.664   0.210   1.493
  171SOL    HW1  526   0.746   0.180   1.453
  171SOL    HW2  527   0.686   0.226   1.584
  172SOL     OW  528   0.070   0.315   0.051
  172SOL    HW1  529   2.977   0.326   0.032
  172SOL    HW2  530   0.110   0.398   0.024
  173SOL     OW  531   1.432   0.864   1.404
  173SOL    HW1  532   1.386   0.923   1.343
  173SOL    HW2  533   1.522   0.864   1.372
  174SOL     OW  534   0.038   0.185   0.291
  174SOL    HW1  535   0.043   0.242   0.214
  174SOL    HW2  536   0.126   0.150   0.301
  175SOL     OW  537   1.184   1.348   0.124
  175SOL    HW1  538   1.090   1.334   0.114
  175SOL    HW2  539   1.199   1.337   0.218
  176SOL     OW  540   0.617   0.831   1.433
  176SOL    HW1  541   0.673   0.908   1.419
  176SOL    HW2  542   0.678   0.758   1.441
  177SOL     OW  543   1.487   1.770   0.977
  177SOL    HW1  544   1.508   1.830   0.905
  177SOL    HW2  545   1.569   1.761   1.025
  178SOL     OW  546   0.716   0.566   1.708
  178SOL    HW1  547   0.754   0.631   1.767
  178SOL    HW2  548   0.756   0.483   1.734
  179SOL     OW  549   0.388   1.737   1.563
  179SOL    HW1  550   0.302   1.776   1.549
  179SOL    HW2  551   0.371   1.657   1.612
  180SOL     OW  552   1.672   0.881   1.254
  180SOL    HW1  553   1.664   0.793   1.217
  180SOL    HW2  554   1.665   0.940   1.179
  181SOL     OW  555   1.226   0.317   0.454
  181SOL    HW1  556   1.287   0.244   0.453
  181SOL    HW2  557   1.249   0.367   0.532
  182SOL     OW  558   0.593   0.741   0.665
  182SOL    HW1  559   0.631   0.828   0.651
  182SOL    HW2  560   0.521   0.736   0.603
  183SOL     OW  561   1.766   0.353   1.645
  183SOL    HW1  562   1.744   0.376   1.555
  183SOL    HW2  563   1.684   0.318   1.681
  184SOL     OW  564   1.729   0.942   1.515
  184SOL    HW1  565   1.783   1.020   1.528
  184SOL    HW2  566   1.728   0.930   1.420
  185SOL     OW  567   0.906   1.387   0.061
  185SOL    HW1  568   0.833   1.387   0.123
  185SOL    HW2  569   0.868   1.415   2.978
  186SOL     OW  570   0.659   1.793   0.948
  186SOL    HW1  571   0.635   1.883   0.924
  186SOL    HW2  572   0.754   1.790   0.939
  187SOL     OW  573   0.866   0.965   0.857
  187SOL    HW1  574   0.915   0.893   0.897
  187SOL    HW2  575   0.832   1.016   0.931
  188SOL     OW  576   1.099   1.019   0.100
  188SOL    HW1  577   1.064   1.055   0.018
  188SOL    HW2  578   1.165   0.956   0.072
  189SOL     OW  579   1.859   1.556   0.842
  189SOL    HW1  580   1.779   1.545   0.791
  189SOL    HW2  581   1.854   1.489   0.910
  190SOL     OW  582   0.226   1.303   1.855
  190SOL    HW1  583   0.175   1.227   1.830
  190SOL    HW2  584   0.210   1.313   1.949
  191SOL     OW  585   0.128   1.251   0.665
  191SOL    HW1  586   0.078   1.185   0.714
  191SOL    HW2  587   0.174   1.201   0.598
  192SOL     OW  588   0.681   1.402   1.625
  192SOL    HW1  589   0.602   1.355   1.652
  192SOL    HW2  590   0.673   1.488   1.665
  193SOL     OW  591   1.797   0.177   1.235
  193SOL    HW1  592   1.842   0.101   1.271
  193SOL    HW2  593   1.823   0.179   1.143
  194SOL     OW  594   0.462   0.433   0.545
  194SOL    HW1  595   0.453   0.371   0.473
  194SOL    HW2  596   0.403   0.399   0.613
  195SOL     OW  597   1.703   1.489   1.100
  195SOL    HW1  598   1.629   1.446   1.057
  195SOL    HW2  599   1.741   1.421   1.155
  196SOL     OW  600   0.332   0.554   1.290
  196SOL    HW1  601   0.388   0.499   1.345
  196SOL    HW2  602   0.351   0.526   1.201
  197SOL     OW  603   0.826   1.577   0.678
  197SOL    HW1  604   0.818   1.627   0.597
  197SOL    HW2  605   0.747   1.523   0.681
  198SOL     OW  606   1.428   0.215   1.127
  198SOL    HW1  607   1.450   0.144   1.188
  198SOL    HW2  608   1.379   0.278   1.180
  199SOL     OW  609   1.013   0.027   1.149
  199SOL    HW1  610   0.934   2.992   1.108
  199SOL    HW2  611   1.080   2.960   1.136
  200SOL     OW  612   0.765   1.329   0.313
  200SOL    HW1  613   0.733   1.240   0.329
  200SOL    HW2  614   0.852   1.330   0.352
  201SOL     OW  615   0.622   1.558   1.284
  201SOL    HW1  616   0.623   1.639   1.335
  201SOL    HW2  617   0.709   1.554   1.244
  202SOL     OW  618   1.357   0.056   0.170
  202SOL    HW1  619   1.413   2.983   0.142
  202SOL    HW2  620   1.268   0.025   0.155
  203SOL     OW  621   1.298   0.460   0.682
  203SOL    HW1  622   1.242   0.537   0.690
  203SOL    HW2  623   1.295   0.419   0.768
  204SOL     OW  624   1.605   0.230   0.887
  204SOL    HW1  625   1.525   0.228   0.939
  204SOL    HW2  626   1.595   0.306   0.830
  205SOL     OW  627   0.071   1.090   0.342
  205SOL    HW1  628   0.148   1.050   0.303
  205SOL    HW2  629   0.004   1.021   0.337
  206SOL     OW  630   0.882   1.651   0.345
  206SOL    HW1  631   0.811   1.630   0.284
  206SOL    HW2  632   0.848   1.726   0.395
  207SOL     OW  633   0.240   0.646   1.973
  207SOL    HW1  634   0.172   0.609   2.028
  207SOL    HW2  635   0.226   0.606   1.887
  208SOL     OW  636   0.236   0.248   2.850
  208SOL    HW1  637   0.251   0.235   2.944
  208SOL    HW2  638   0.141   0.239   2.840
  209SOL     OW  639   0.007   0.386   2.522
  209SOL    HW1  640   2.923   0.424   2.546
  209SOL    HW2  641   2.985   0.313   2.464
  210SOL     OW  642   1.557   1.510   2.567
  210SOL    HW1  643   1.510   1.493   2.648
  210SOL    HW2  644   1.489   1.516   2.500
  211SOL     OW  645   1.133   0.698   2.565
  211SOL    HW1  646   1.183   0.779   2.551
  211SOL    HW2  647   1.083   0.715   2.645
  212SOL     OW  648   1.765   0.606   2.093
  212SOL    HW1  649   1.746   0.599   2.000
  212SOL    HW2  650   1.731   0.525   2.131
  213SOL     OW  651   0.750   1.145   2.896
  213SOL    HW1  652   0.683   1.191   2.946
  213SOL    HW2  653   0.802   1.215   2.855
  214SOL     OW  654   0.684   1.008   2.510
  214SOL    HW1  655   0.749   0.993   2.578
  214SOL    HW2  656   0.614   1.057   2.553
  215SOL     OW  657   0.330   1.451   2.933
  215SOL    HW1  658   0.278   1.387   2.886
  215SOL    HW2  659   0.386   1.491   2.866
  216SOL     OW  660   1.615   0.456   2.593
  216SOL    HW1  661   1.540   0.480   2.539
  216SOL    HW2  662   1.616   0.522   2.663
  217SOL     OW  663   0.221   1.712   2.347
  217SOL    HW1  664   0.241   1.795   2.388
  217SOL    HW2  665   0.279   1.707   2.272
  218SOL     OW  666   0.250   1.446   2.388
  218SOL    HW1  667   0.218   1.536   2.387
  218SOL    HW2  668   0.189   1.399   2.444
  219SOL     OW  669   0.239   1.084   2.749
  219SOL    HW1  670   0.257   1.003   2.796
  219SOL    HW2  671   0.193   1.139   2.812
  220SOL     OW  672   0.588   0.981   1.994
  220SOL    HW1  673   0.631   1.032   1.926
  220SOL    HW2  674   0.630   1.009   2.076
  221SOL     OW  675   0.130   0.624   2.436
  221SOL    HW1  676   0.085   0.549   2.474
  221SOL    HW2  677   0.123   0.693   2.501
  222SOL     OW  678   1.841   1.762   2.202
  222SOL    HW1  679   1.903   1.733   2.268
  222SOL    HW2  680   1.868   1.851   2.181
  223SOL     OW  681   0.031   1.598   1.999
  223SOL    HW1  682   0.021   1.503   2.006
  223SOL    HW2  683   2.976   1.633   2.069
  224SOL     OW  684   1.689   0.917   2.498
  224SOL    HW1  685   1.775   0.880   2.479
  224SOL    HW2  686   1.667   0.969   2.421
  225SOL     OW  687   1.645   1.107   2.293
  225SOL    HW1  688   1.728   1.117   2.247
  225SOL    HW2  689   1.650   1.168   2.366
  226SOL     OW  690   0.609   1.380   2.593
  226SOL    HW1  691   0.562   1.297   2.602
  226SOL    HW2  692   0.593   1.407   2.503
  227SOL     OW  693   0.820   0.011   2.374
  227SOL    HW1  694   0.851   0.099   2.353
  227SOL    HW2  695   0.726   0.014   2.359
  228SOL     OW  696   1.534   0.990   2.061
  228SOL    HW1  697   1.463   0.934   2.091
  228SOL    HW2  698   1.572   1.026   2.141
  229SOL     OW  699   1.434   1.422   2.801
  229SOL    HW1  700   1.415   1.420   2.895
  229SOL    HW2  701   1.442   1.329   2.777
  230SOL     OW  702   1.658   1.735   2.441
  230SOL    HW1  703   1.639   1.707   2.352
  230SOL    HW2  704   1.635   1.660   2.496
  231SOL     OW  705   0.596   0.723   2.125
  231SOL    HW1  706   0.604   0.803   2.074
  231SOL    HW2  707   0.532   0.744   2.192
  232SOL     OW  708   1.294   0.336   2.808
  232SOL    HW1  709   1.200   0.324   2.801
  232SOL    HW2  710   1.317   0.298   2.894
  233SOL     OW  711   1.581   1.670   2.172
  233SOL    HW1  712   1.671   1.703   2.167
  233SOL    HW2  713   1.556   1.654   2.081
  234SOL     OW  714   1.049   0.699   2.290
  234SOL    HW1  715   1.064   0.691   2.384
  234SOL    HW2  716   0.967   0.651   2.275
  235SOL     OW  717   0.104   0.816   2.624
  235SOL    HW1  718   0.182   0.813   2.679
  235SOL    HW2  719   0.047   0.879   2.667
  236SOL     OW  720   0.871   0.353   2.046
  236SOL    HW1  721   0.931   0.413   2.001
  236SOL    HW2  722   0.909   0.266   2.032
  237SOL     OW  723   1.376   1.143   2.403
  237SOL    HW1  724   1.454   1.129   2.351
  237SOL    HW2  725   1.323   1.205   2.352
  238SOL     OW  726   0.558   0.198   2.836
  238SOL    HW1  727   0.505   0.270   2.870
  238SOL    HW2  728   0.577   0.223   2.746
  239SOL     OW  729   1.008   1.445   2.336
  239SOL    HW1  730   0.968   1.517   2.288
  239SOL    HW2  731   0.994   1.467   2.428
  240SOL     OW  732   0.353   1.801   2.713
  240SOL    HW1  733   0.400   1.719   2.728
  240SOL    HW2  734   0.416   1.869   2.738
  241SOL     OW  735   1.806   1.058   2.720
  241SOL    HW1  736   1.745   1.043   2.647
  241SOL    HW2  737   1.749   1.061   2.797
  242SOL     OW  738   0.315   0.949   2.107
  242SOL    HW1  739   0.397   0.976   2.066
  242SOL    HW2  740   0.295   0.864   2.068
  243SOL     OW  741   1.474   0.744   2.589
  243SOL    HW1  742   1.471   0.691   2.668
  243SOL    HW2  743   1.555   0.794   2.596
  244SOL     OW  744   1.120   1.778   2.092
  244SOL    HW1  745   1.050   1.733   2.140
  244SOL    HW2  746   1.144   1.717   2.022
  245SOL     OW  747   1.615   1.369   1.979
  245SOL    HW1  748   1.622   1.443   1.918
  245SOL    HW2  749   1.567   1.303   1.930
  246SOL     OW  750   0.467   1.740   2.182
  246SOL    HW1  751   0.506   1.795   2.249
  246SOL    HW2  752   0.540   1.711   2.127
  247SOL     OW  753   1.408   0.110   2.296
  247SOL    HW1  754   1.392   0.078   2.207
  247SOL    HW2  755   1.502   0.128   2.298
  248SOL     OW  756   0.264   1.799   0.099
  248SOL    HW1  757   0.301   1.727   0.152
  248SOL    HW2  758   0.204   1.755   0.039
  249SOL     OW  759   0.942   1.691   2.757
  249SOL    HW1  760   1.022   1.639   2.760
  249SOL    HW2  761   0.887   1.648   2.691
  250SOL     OW  762   0.393   0.693   2.337
  250SOL    HW1  763   0.425   0.603   2.352
  250SOL    HW2  764   0.300   0.689   2.361
  251SOL     OW  765   0.625   0.120   1.975
  251SOL    HW1  766   0.715   0.088   1.969
  251SOL    HW2  767   0.587   0.102   1.889
  252SOL     OW  768   0.805   1.399   2.791
  252SOL    HW1  769   0.892   1.391   2.752
  252SOL    HW2  770   0.744   1.393   2.717
  253SOL     OW  771   0.920   0.519   2.759
  253SOL    HW1  772   0.903   0.499   2.667
  253SOL    HW2  773   0.951   0.436   2.795
  254SOL     OW  774   0.545   0.061   2.368
  254SOL    HW1  775   0.457   0.043   2.401
  254SOL    HW2  776   0.533   0.130   2.303
  255SOL     OW  777   1.413   1.166   1.880
  255SOL    HW1  778   1.456   1.110   1.944
  255SOL    HW2  779   1.353   1.219   1.932
  256SOL     OW  780   0.290   0.034   2.051
  256SOL    HW1  781   0.342   0.109   2.022
  256SOL    HW2  782   0.355   2.972   2.085
  257SOL     OW  783   0.938   0.254   2.324
  257SOL    HW1  784   0.910   0.299   2.244
  257SOL    HW2  785   1.033   0.265   2.326
  258SOL     OW  786   1.219   1.585   2.670
  258SOL    HW1  787   1.243   1.642   2.597
  258SOL    HW2  788   1.301   1.568   2.716
  259SOL     OW  789   0.462   1.146   2.602
  259SOL    HW1  790   0.389   1.129   2.661
  259SOL    HW2  791   0.426   1.130   2.514
  260SOL     OW  792   1.271   1.795   2.467
  260SOL    HW1  793   1.316   1.856   2.408
  260SOL    HW2  794   1.207   1.849   2.512
  261SOL     OW  795   1.023   0.549   1.884
  261SOL    HW1  796   0.983   0.634   1.866
  261SOL    HW2  797   1.089   0.567   1.952
  262SOL     OW  798   0.873   0.467   2.497
  262SOL    HW1  799   0.823   0.515   2.432
  262SOL    HW2  800   0.887   0.381   2.459
  263SOL     OW  801   0.999   0.049   2.624
  263SOL    HW1  802   0.965   0.056   2.534
  263SOL    HW2  803   0.975   2.960   2.651
  264SOL     OW  804   1.439   1.160   2.713
  264SOL    HW1  805   1.364   1.100   2.705
  264SOL    HW2  806   1.466   1.176   2.623
  265SOL     OW  807   1.488   0.585   2.820
  265SOL    HW1  808   1.424   0.514   2.825
  265SOL    HW2  809   1.508   0.606   2.911
  266SOL     OW  810   1.849   0.818   2.245
  266SOL    HW1  811   1.906   0.764   2.300
  266SOL    HW2  812   1.818   0.757   2.177
  267SOL     OW  813   0.492   1.412   2.024
  267SOL    HW1  814   0.416   1.384   2.075
  267SOL    HW2  815   0.467   1.398   1.933
  268SOL     OW  816   1.668   1.264   2.512
  268SOL    HW1  817   1.763   1.270   2.522
  268SOL    HW2  818   1.636   1.353   2.531
  269SOL     OW  819   1.394   0.571   1.933
  269SOL    HW1  820   1.333   0.553   2.005
  269SOL    HW2  821   1.478   0.538   1.964
  270SOL     OW  822   0.526   0.263   2.183
  270SOL    HW1  823   0.565   0.212   2.113
  270SOL    HW2  824   0.507   0.348   2.143
  271SOL     OW  825   1.648   1.104   2.931
  271SOL    HW1  826   1.648   1.171   3.000
  271SOL    HW2  827   1.562   1.112   2.889
  272SOL     OW  828   0.708   1.060   2.234
  272SOL    HW1  829   0.695   1.046   2.328
  272SOL    HW2  830   0.784   1.007   2.212
  273SOL     OW  831   0.351   1.108   2.354
  273SOL    HW1  832   0.356   1.180   2.292
  273SOL    HW2  833   0.356   1.029   2.299
  274SOL     OW  834   0.546   0.546   2.731
  274SOL    HW1  835   0.567   0.594   2.651
  274SOL    HW2  836   0.617   0.567   2.791
  275SOL     OW  837   1.247   1.347   2.251
  275SOL    HW1  838   1.303   1.419   2.281
  275SOL    HW2  839   1.161   1.369   2.285
  276SOL     OW  840   1.584   0.626   2.339
  276SOL    HW1  841   1.539   0.684   2.400
  276SOL    HW2  842   1.627   0.686   2.277
  277SOL     OW  843   0.577   0.872   2.880
  277SOL    HW1  844   0.617   0.955   2.855
  277SOL    HW2  845   0.552   0.884   2.972
  278SOL     OW  846   1.210   0.534   2.133
  278SOL    HW1  847   1.215   0.453   2.183
  278SOL    HW2  848   1.165   0.596   2.191
  279SOL     OW  849   0.731   0.641   2.918
  279SOL    HW1  850   0.798   0.615   2.855
  279SOL    HW2  851   0.699   0.725   2.885
  280SOL     OW  852   0.308   0.069   2.504
  280SOL    HW1  853   0.301   0.155   2.546
  280SOL    HW2  854   0.282   0.007   2.573
  281SOL     OW  855   1.607   0.373   2.232
  281SOL    HW1  856   1.647   0.313   2.295
  281SOL    HW2  857   1.589   0.452   2.284
  282SOL     OW  858   1.021   0.763   2.819
  282SOL    HW1  859   1.024   0.770   2.914
  282SOL    HW2  860   0.995   0.673   2.803
  283SOL     OW  861   1.530   0.273   1.995
  283SOL    HW1  862   1.467   0.207   2.024
  283SOL    HW2  863   1.564   0.311   2.076
  284SOL     OW  864   1.292   0.825   1.898
  284SOL    HW1  865   1.335   0.740   1.900
  284SOL    HW2  866   1.323   0.866   1.817
  285SOL     OW  867   1.051   1.348   2.697
  285SOL    HW1  868   1.063   1.266   2.649
  285SOL    HW2  869   1.128   1.400   2.675
  286SOL     OW  870   0.311   0.811   2.811
  286SOL    HW1  871   0.404   0.830   2.809
  286SOL    HW2  872   0.305   0.722   2.846
  287SOL     OW  873   0.320   0.519   2.873
  287SOL    HW1  874   0.290   0.431   2.850
  287SOL    HW2  875   0.399   0.532   2.821
  288SOL     OW  876   2.995   1.319   2.040
  288SOL    HW1  877   2.902   1.323   2.017
  288SOL    HW2  878   0.003   1.238   2.091
  289SOL     OW  879   0.094   1.820   2.810
  289SOL    HW1  880   0.057   1.741   2.771
  289SOL    HW2  881   0.184   1.822   2.780
  290SOL     OW  882   0.504   1.574   2.761
  290SOL    HW1  883   0.573   1.635   2.785
  290SOL    HW2  884   0.547   1.507   2.709
  291SOL     OW  885   0.977   0.752   0.087
  291SOL    HW1  886   1.027   0.752   0.169
  291SOL    HW2  887   0.887   0.773   0.114
  292SOL     OW  888   0.815   0.569   2.216
  292SOL    HW1  889   0.817   0.495   2.155
  292SOL    HW2  890   0.740   0.622   2.187
  293SOL     OW  891   0.698   0.437   0.091
  293SOL    HW1  892   0.603   0.430   0.099
  293SOL    HW2  893   0.712   0.514   0.035
  294SOL     OW  894   0.466   0.494   2.049
  294SOL    HW1  895   0.528   0.565   2.068
  294SOL    HW2  896   0.381   0.537   2.041
  295SOL     OW  897   1.309   0.857   2.170
  295SOL    HW1  898   1.232   0.826   2.218
  295SOL    HW2  899   1.287   0.842   2.078
  296SOL     OW  900   1.736   1.768   2.971
  296SOL    HW1  901   1.813   1.789   2.918
  296SOL    HW2  902   1.763   1.691   0.022
  297SOL     OW  903   0.073   1.247   2.903
  297SOL    HW1  904   0.046   1.276   2.990
  297SOL    HW2  905   0.003   1.278   2.845
  298SOL     OW  906   1.721   0.144   2.368
  298SOL    HW1  907   1.783   0.138   2.295
  298SOL    HW2  908   1.732   0.061   2.415
  299SOL     OW  909   1.390   1.567   2.346
  299SOL    HW1  910   1.451   1.596   2.278
  299SOL    HW2  911   1.344   1.647   2.372
  300SOL     OW  912   1.277   0.927   2.532
  300SOL    HW1  913   1.349   0.865   2.539
  300SOL    HW2  914   1.311   0.998   2.479
  301SOL     OW  915   0.672   1.616   2.017
  301SOL    HW1  916   0.679   1.627   1.923
  301SOL    HW2  917   0.619   1.537   2.028
  302SOL     OW  918   1.853   0.162   2.815
  302SOL    HW1  919   1.852   0.076   2.773
  302SOL    HW2  920   1.767   0.199   2.794
  303SOL     OW  921   0.270   0.335   2.599
  303SOL    HW1  922   0.181   0.367   2.590
  303SOL    HW2  923   0.274   0.302   2.689
  304SOL     OW  924   1.202   1.607   1.895
  304SOL    HW1  925   1.201   1.516   1.923
  304SOL    HW2  926   1.135   1.612   1.827
  305SOL     OW  927   0.915   0.910   2.152
  305SOL    HW1  928   0.976   0.941   2.085
  305SOL    HW2  929   0.962   0.839   2.196
  306SOL     OW  930   1.487   1.655   1.902
  306SOL    HW1  931   1.394   1.633   1.904
  306SOL    HW2  932   1.525   1.596   1.837
  307SOL     OW  933   1.050   1.104   2.570
  307SOL    HW1  934   0.978   1.053   2.605
  307SOL    HW2  935   1.111   1.040   2.534
  308SOL     OW  936   1.017   0.247   2.810
  308SOL    HW1  937   1.011   0.182   2.740
  308SOL    HW2  938   1.043   0.197   2.887
  309SOL     OW  939   0.603   1.490   2.343
  309SOL    HW1  940   0.640   1.439   2.271
  309SOL    HW2  941   0.532   1.540   2.302
  310SOL     OW  942   0.254   1.345   2.144
  310SOL    HW1  943   0.160   1.343   2.128
  310SOL    HW2  944   0.263   1.384   2.231
  311SOL     OW  945   0.098   0.326   1.911
  311SOL    HW1  946   0.013   0.297   1.876
  311SOL    HW2  947   0.111   0.412   1.872
  312SOL     OW  948   0.019   0.216   2.146
  312SOL    HW1  949   0.064   0.262   2.075
  312SOL    HW2  950   0.077   0.142   2.167
  313SOL     OW  951   1.179   1.345   1.978
  313SOL    HW1  952   1.089   1.310   1.984
  313SOL    HW2  953   1.211   1.342   2.068
  314SOL     OW  954   1.504   1.780   2.830
  314SOL    HW1  955   1.517   1.832   2.752
  314SOL    HW2  956   1.586   1.788   2.879
  315SOL     OW  957   1.718   0.851   0.065
  315SOL    HW1  958   1.637   0.813   0.100
  315SOL    HW2  959   1.695   0.942   0.045
  316SOL     OW  960   1.223   0.317   2.317
  316SOL    HW1  961   1.285   0.244   2.316
  316SOL    HW2  962   1.246   0.368   2.395
  317SOL     OW  963   0.592   0.741   2.528
  317SOL    HW1  964   0.632   0.827   2.512
  317SOL    HW2  965   0.521   0.735   2.464
  318SOL     OW  966   0.862   1.370   1.891
  318SOL    HW1  967   0.823   1.388   1.977
  318SOL    HW2  968   0.881   1.457   1.855
  319SOL     OW  969   0.662   1.796   2.822
  319SOL    HW1  970   0.639   1.883   2.791
  319SOL    HW2  971   0.756   1.789   2.805
  320SOL     OW  972   0.862   0.965   2.716
  320SOL    HW1  973   0.913   0.894   2.754
  320SOL    HW2  974   0.832   1.017   2.791
  321SOL     OW  975   1.076   0.985   1.948
  321SOL    HW1  976   1.061   1.040   1.870
  321SOL    HW2  977   1.154   0.935   1.927
  322SOL     OW  978   1.855   1.558   2.711
  322SOL    HW1  979   1.779   1.544   2.655
  322SOL    HW2  980   1.862   1.477   2.762
  323SOL     OW  981   0.127   1.249   2.523
  323SOL    HW1  982   0.089   1.184   2.582
  323SOL    HW2  983   0.184   1.199   2.465
  324SOL     OW  984   1.812   0.189   0.083
  324SOL    HW1  985   1.833   0.103   0.121
  324SOL    HW2  986   1.829   0.179   2.989
  325SOL     OW  987   0.462   0.434   2.403
  325SOL    HW1  988   0.454   0.370   2.332
  325SOL    HW2  989   0.408   0.399   2.473
  326SOL     OW  990   0.819   1.583   2.539
  326SOL    HW1  991   0.817   1.625   2.452
  326SOL    HW2  992   0.743   1.525   2.540
  327SOL     OW  993   0.774   1.331   2.169
  327SOL    HW1  994   0.739   1.242   2.178
  327SOL    HW2  995   0.854   1.331   2.221
  328SOL     OW  996   1.346   0.048   2.029
  328SOL    HW1  997   1.411   2.987   1.994
  328SOL    HW2  998   1.266   2.996   2.035
  329SOL     OW  999   1.298   0.456   2.548
  329SOL    HW1 1000   1.243   0.535   2.555
  329SOL    HW2 1001   1.295   0.417   2.635
  330SOL     OW 1002   1.600   0.235   2.750
  330SOL    HW1 1003   1.509   0.230   2.780
  330SOL    HW2 1004   1.601   0.309   2.689
  331SOL     OW 1005   0.064   1.081   2.160
  331SOL    HW1 1006   0.152   1.044   2.163
  331SOL    HW2 1007   0.009   1.014   2.201
  332SOL     OW 1008   0.881   1.649   2.207
  332SOL    HW1 1009   0.810   1.631   2.146
  332SOL    HW2 1010   0.852   1.726   2.256
  333SOL     OW 1011   0.236   2.517   0.099
  333SOL    HW1 1012   0.169   2.472   0.151
  333SOL    HW2 1013   0.248   2.462   0.022
  334SOL     OW 1014   0.212   2.137   0.990
  334SOL    HW1 1015   0.245   2.107   1.075
  334SOL    HW2 1016   0.125   2.097   0.983
  335SOL     OW 1017   0.015   2.248   0.646
  335SOL    HW1 1018   2.929   2.283   0.669
  335SOL    HW2 1019   2.996   2.165   0.601
  336SOL     OW 1020   1.134   2.568   0.703
  336SOL    HW1 1021   1.180   2.652   0.694
  336SOL    HW2 1022   1.081   2.578   0.782
  337SOL     OW 1023   1.762   2.455   0.228
  337SOL    HW1 1024   1.745   2.436   0.136
  337SOL    HW2 1025   1.726   2.379   0.275
  338SOL     OW 1026   0.759   0.011   1.033
  338SOL    HW1 1027   0.677   0.044   1.069
  338SOL    HW2 1028   0.783   0.076   0.966
  339SOL     OW 1029   0.867   2.639   1.822
  339SOL    HW1 1030   0.844   2.703   1.890
  339SOL    HW2 1031   0.889   2.691   1.745
  340SOL     OW 1032   0.651   2.851   0.711
  340SOL    HW1 1033   0.746   2.855   0.724
  340SOL    HW2 1034   0.629   2.932   0.664
  341SOL     OW 1035   0.473   2.272   1.489
  341SOL    HW1 1036   0.542   2.206   1.492
  341SOL    HW2 1037   0.392   2.223   1.504
  342SOL     OW 1038   1.613   2.310   0.739
  342SOL    HW1 1039   1.537   2.336   0.687
  342SOL    HW2 1040   1.634   2.388   0.791
  343SOL     OW 1041   0.215   0.316   0.463
  343SOL    HW1 1042   0.214   0.387   0.527
  343SOL    HW2 1043   0.198   0.237   0.515
  344SOL     OW 1044   0.231   2.944   0.877
  344SOL    HW1 1045   0.259   2.863   0.921
  344SOL    HW2 1046   0.203   0.001   0.948
  345SOL     OW 1047   0.615   2.833   0.148
  345SOL    HW1 1048   0.600   2.925   0.127
  345SOL    HW2 1049   0.679   2.835   0.220
  346SOL     OW 1050   1.569   1.991   1.465
  346SOL    HW1 1051   1.587   2.071   1.416
  346SOL    HW2 1052   1.569   2.018   1.556
  347SOL     OW 1053   0.119   2.496   0.565
  347SOL    HW1 1054   0.095   2.411   0.602
  347SOL    HW2 1055   0.115   2.557   0.639
  348SOL     OW 1056   1.700   2.806   0.622
  348SOL    HW1 1057   1.777   2.750   0.634
  348SOL    HW2 1058   1.693   2.818   0.528
  349SOL     OW 1059   0.128   2.608   1.588
  349SOL    HW1 1060   0.223   2.621   1.596
  349SOL    HW2 1061   0.091   2.694   1.607
  350SOL     OW 1062   0.660   0.242   0.686
  350SOL    HW1 1063   0.596   0.176   0.713
  350SOL    HW2 1064   0.612   0.298   0.625
  351SOL     OW 1065   1.304   0.053   1.446
  351SOL    HW1 1066   1.325   2.995   1.373
  351SOL    HW2 1067   1.386   0.098   1.465
  352SOL     OW 1068   0.813   1.861   0.508
  352SOL    HW1 1069   0.852   1.947   0.492
  352SOL    HW2 1070   0.719   1.879   0.516
  353SOL     OW 1071   0.190   2.835   1.256
  353SOL    HW1 1072   0.274   2.789   1.249
  353SOL    HW2 1073   0.125   2.770   1.231
  354SOL     OW 1074   1.523   2.841   0.205
  354SOL    HW1 1075   1.453   2.797   0.252
  354SOL    HW2 1076   1.588   2.861   0.272
  355SOL     OW 1077   0.336   2.112   1.806
  355SOL    HW1 1078   0.383   2.193   1.826
  355SOL    HW2 1079   0.250   2.123   1.846
  356SOL     OW 1080   0.593   2.582   0.269
  356SOL    HW1 1081   0.597   2.662   0.217
  356SOL    HW2 1082   0.527   2.600   0.336
  357SOL     OW 1083   1.279   2.211   0.932
  357SOL    HW1 1084   1.190   2.178   0.940
  357SOL    HW2 1085   1.330   2.158   0.995
  358SOL     OW 1086   0.793   2.478   1.454
  358SOL    HW1 1087   0.765   2.456   1.542
  358SOL    HW2 1088   0.751   2.412   1.398
  359SOL     OW 1089   1.394   2.335   1.678
  359SOL    HW1 1090   1.395   2.380   1.763
  359SOL    HW2 1091   1.457   2.264   1.688
  360SOL     OW 1092   0.962   2.758   1.591
  360SOL    HW1 1093   1.013   2.687   1.553
  360SOL    HW2 1094   0.908   2.790   1.518
  361SOL     OW 1095   0.992   2.276   1.239
  361SOL    HW1 1096   0.908   2.298   1.280
  361SOL    HW2 1097   0.967   2.228   1.160
  362SOL     OW 1098   1.049   2.567   0.423
  362SOL    HW1 1099   1.063   2.560   0.518
  362SOL    HW2 1100   0.968   2.519   0.407
  363SOL     OW 1101   0.102   2.670   0.768
  363SOL    HW1 1102   0.179   2.675   0.825
  363SOL    HW2 1103   0.048   2.743   0.795
  364SOL     OW 1104   0.929   2.194   0.221
  364SOL    HW1 1105   0.935   2.256   0.150
  364SOL    HW2 1106   0.894   2.114   0.181
  365SOL     OW 1107   1.711   2.439   1.828
  365SOL    HW1 1108   1.673   2.514   1.782
  365SOL    HW2 1109   1.735   2.378   1.759
  366SOL     OW 1110   0.548   2.045   0.892
  366SOL    HW1 1111   0.552   2.073   0.984
  366SOL    HW2 1112   0.550   2.126   0.842
  367SOL     OW 1113   1.796   2.907   0.867
  367SOL    HW1 1114   1.740   2.892   0.791
  367SOL    HW2 1115   1.735   2.916   0.940
  368SOL     OW 1116   1.482   2.600   0.727
  368SOL    HW1 1117   1.461   2.549   0.806
  368SOL    HW2 1118   1.553   2.657   0.753
  369SOL     OW 1119   0.234   2.163   1.506
  369SOL    HW1 1120   0.154   2.209   1.482
  369SOL    HW2 1121   0.204   2.087   1.557
  370SOL     OW 1122   1.402   1.968   0.431
  370SOL    HW1 1123   1.392   1.948   0.338
  370SOL    HW2 1124   1.497   1.979   0.443
  371SOL     OW 1125   0.389   2.556   0.474
  371SOL    HW1 1126   0.412   2.464   0.484
  371SOL    HW2 1127   0.295   2.559   0.496
  372SOL     OW 1128   1.538   2.089   1.727
  372SOL    HW1 1129   1.547   2.112   1.820
  372SOL    HW2 1130   1.473   2.019   1.726
  373SOL     OW 1131   0.627   1.982   0.118
  373SOL    HW1 1132   0.720   1.962   0.118
  373SOL    HW2 1133   0.592   1.938   0.041
  374SOL     OW 1134   0.767   2.138   1.752
  374SOL    HW1 1135   0.840   2.077   1.759
  374SOL    HW2 1136   0.717   2.125   1.832
  375SOL     OW 1137   1.340   2.450   1.433
  375SOL    HW1 1138   1.372   2.417   1.517
  375SOL    HW2 1139   1.378   2.538   1.427
  376SOL     OW 1140   0.928   2.371   0.902
  376SOL    HW1 1141   0.904   2.362   0.810
  376SOL    HW2 1142   0.960   2.285   0.927
  377SOL     OW 1143   0.548   1.924   0.505
  377SOL    HW1 1144   0.467   1.926   0.555
  377SOL    HW2 1145   0.544   2.001   0.449
  378SOL     OW 1146   0.942   2.104   0.473
  378SOL    HW1 1147   0.917   2.141   0.388
  378SOL    HW2 1148   1.037   2.116   0.478
  379SOL     OW 1149   1.078   2.545   1.458
  379SOL    HW1 1150   1.008   2.482   1.468
  379SOL    HW2 1151   1.158   2.493   1.454
  380SOL     OW 1152   1.051   2.359   0.026
  380SOL    HW1 1153   1.001   2.441   0.017
  380SOL    HW2 1154   1.111   2.376   0.099
  381SOL     OW 1155   0.088   2.414   1.400
  381SOL    HW1 1156   0.172   2.421   1.357
  381SOL    HW2 1157   0.087   2.487   1.463
  382SOL     OW 1158   0.561   2.089   1.163
  382SOL    HW1 1159   0.598   2.008   1.200
  382SOL    HW2 1160   0.469   2.088   1.191
  383SOL     OW 1161   0.870   2.322   0.639
  383SOL    HW1 1162   0.820   2.376   0.578
  383SOL    HW2 1163   0.890   2.242   0.591
  384SOL     OW 1164   1.015   1.914   0.753
  384SOL    HW1 1165   0.956   1.910   0.678
  384SOL    HW2 1166   0.992   1.838   0.806
  385SOL     OW 1167   1.426   2.993   0.873
  385SOL    HW1 1168   1.360   2.937   0.832
  385SOL    HW2 1169   1.447   0.057   0.805
  386SOL     OW 1170   1.467   2.465   0.981
  386SOL    HW1 1171   1.420   2.381   0.985
  386SOL    HW2 1172   1.529   2.461   1.054
  387SOL     OW 1173   1.831   2.666   0.390
  387SOL    HW1 1174   1.894   2.618   0.443
  387SOL    HW2 1175   1.816   2.610   0.314
  388SOL     OW 1176   1.413   2.437   0.099
  388SOL    HW1 1177   1.341   2.428   0.161
  388SOL    HW2 1178   1.461   2.354   0.105
  389SOL     OW 1179   0.521   2.124   0.325
  389SOL    HW1 1180   0.557   2.073   0.253
  389SOL    HW2 1181   0.501   2.210   0.287
  390SOL     OW 1182   1.780   0.077   1.591
  390SOL    HW1 1183   1.868   0.043   1.577
  390SOL    HW2 1184   1.793   0.161   1.634
  391SOL     OW 1185   1.625   2.956   1.074
  391SOL    HW1 1186   1.639   0.039   1.119
  391SOL    HW2 1187   1.549   2.971   1.018
  392SOL     OW 1188   0.918   1.957   1.400
  392SOL    HW1 1189   0.939   1.941   1.308
  392SOL    HW2 1190   0.996   2.001   1.435
  393SOL     OW 1191   0.415   2.679   1.253
  393SOL    HW1 1192   0.485   2.685   1.318
  393SOL    HW2 1193   0.380   2.590   1.263
  394SOL     OW 1194   1.267   2.240   1.273
  394SOL    HW1 1195   1.299   2.317   1.320
  394SOL    HW2 1196   1.177   2.263   1.248
  395SOL     OW 1197   0.556   2.398   0.861
  395SOL    HW1 1198   0.572   2.453   0.784
  395SOL    HW2 1199   0.619   2.429   0.926
  396SOL     OW 1200   1.580   2.487   0.475
  396SOL    HW1 1201   1.540   2.543   0.542
  396SOL    HW2 1202   1.636   2.546   0.424
  397SOL     OW 1203   0.412   2.599   1.603
  397SOL    HW1 1204   0.469   2.648   1.544
  397SOL    HW2 1205   0.459   2.517   1.619
  398SOL     OW 1206   1.595   2.635   1.679
  398SOL    HW1 1207   1.509   2.676   1.671
  398SOL    HW2 1208   1.648   2.679   1.613
  399SOL     OW 1209   0.995   1.982   1.756
  399SOL    HW1 1210   1.047   2.057   1.727
  399SOL    HW2 1211   1.051   1.906   1.736
  400SOL     OW 1212   0.501   1.903   1.745
  400SOL    HW1 1213   0.458   1.848   1.679
  400SOL    HW2 1214   0.440   1.976   1.758
  401SOL     OW 1215   0.592   2.729   1.038
  401SOL    HW1 1216   0.597   2.821   1.012
  401SOL    HW2 1217   0.526   2.727   1.107
  402SOL     OW 1218   1.349   2.714   1.035
  402SOL    HW1 1219   1.281   2.707   0.968
  402SOL    HW2 1220   1.394   2.629   1.032
  403SOL     OW 1221   1.205   2.395   0.271
  403SOL    HW1 1222   1.211   2.311   0.317
  403SOL    HW2 1223   1.159   2.452   0.333
  404SOL     OW 1224   0.300   2.065   1.243
  404SOL    HW1 1225   0.280   2.095   1.332
  404SOL    HW2 1226   0.284   1.971   1.245
  405SOL     OW 1227   0.055   0.171   1.268
  405SOL    HW1 1228   0.083   0.137   1.353
  405SOL    HW2 1229   0.013   0.254   1.289
  406SOL     OW 1230   0.729   2.493   1.061
  406SOL    HW1 1231   0.798   2.477   0.997
  406SOL    HW2 1232   0.698   2.581   1.041
  407SOL     OW 1233   1.735   2.819   1.845
  407SOL    HW1 1234   1.686   2.762   1.786
  407SOL    HW2 1235   1.679   2.829   1.922
  408SOL     OW 1236   0.302   1.931   0.622
  408SOL    HW1 1237   0.285   2.022   0.649
  408SOL    HW2 1238   0.309   1.883   0.704
  409SOL     OW 1239   1.618   2.234   0.369
  409SOL    HW1 1240   1.643   2.169   0.435
  409SOL    HW2 1241   1.591   2.311   0.420
  410SOL     OW 1242   1.027   2.618   0.966
  410SOL    HW1 1243   1.027   2.633   1.061
  410SOL    HW2 1244   1.001   2.526   0.956
  411SOL     OW 1245   0.357   2.787   1.797
  411SOL    HW1 1246   0.420   2.784   1.869
  411SOL    HW2 1247   0.381   2.713   1.741
  412SOL     OW 1248   1.505   2.166   0.126
  412SOL    HW1 1249   1.468   2.079   0.138
  412SOL    HW2 1250   1.559   2.180   0.204
  413SOL     OW 1251   1.295   2.685   0.037
  413SOL    HW1 1252   1.336   2.599   0.049
  413SOL    HW2 1253   1.325   2.714   2.951
  414SOL     OW 1254   0.313   2.678   0.952
  414SOL    HW1 1255   0.407   2.686   0.935
  414SOL    HW2 1256   0.303   2.589   0.986
  415SOL     OW 1257   0.336   2.378   1.014
  415SOL    HW1 1258   0.295   2.295   0.992
  415SOL    HW2 1259   0.411   2.385   0.954
  416SOL     OW 1260   1.135   2.239   1.680
  416SOL    HW1 1261   1.089   2.295   1.743
  416SOL    HW2 1262   1.223   2.275   1.676
  417SOL     OW 1263   1.159   2.065   1.469
  417SOL    HW1 1264   1.151   2.127   1.542
  417SOL    HW2 1265   1.199   2.115   1.399
  418SOL     OW 1266   0.983   2.668   1.232
  418SOL    HW1 1267   1.037   2.638   1.305
  418SOL    HW2 1268   0.901   2.619   1.242
  419SOL     OW 1269   0.048   2.442   1.117
  419SOL    HW1 1270   0.120   2.393   1.077
  419SOL    HW2 1271   0.033   2.398   1.201
  420SOL     OW 1272   0.196   2.381   1.721
  420SOL    HW1 1273   0.265   2.352   1.661
  420SOL    HW2 1274   0.161   2.461   1.682
  421SOL     OW 1275   1.378   2.807   1.661
  421SOL    HW1 1276   1.402   2.900   1.658
  421SOL    HW2 1277   1.371   2.781   1.569
  422SOL     OW 1278   0.819   2.438   0.349
  422SOL    HW1 1279   0.818   2.360   0.292
  422SOL    HW2 1280   0.739   2.485   0.326
  423SOL     OW 1281   1.643   2.464   1.190
  423SOL    HW1 1282   1.632   2.404   1.263
  423SOL    HW2 1283   1.730   2.444   1.155
  424SOL     OW 1284   0.700   2.313   1.261
  424SOL    HW1 1285   0.646   2.240   1.231
  424SOL    HW2 1286   0.697   2.376   1.189
  425SOL     OW 1287   0.441   2.358   0.208
  425SOL    HW1 1288   0.512   2.421   0.221
  425SOL    HW2 1289   0.364   2.413   0.188
  426SOL     OW 1290   0.160   0.008   1.469
  426SOL    HW1 1291   0.149   2.956   1.548
  426SOL    HW2 1292   0.173   2.944   1.399
  427SOL     OW 1293   1.350   2.908   1.221
  427SOL    HW1 1294   1.365   2.845   1.150
  427SOL    HW2 1295   1.277   2.962   1.189
  428SOL     OW 1296   1.299   2.723   0.314
  428SOL    HW1 1297   1.228   2.677   0.358
  428SOL    HW2 1298   1.289   2.700   0.221
  429SOL     OW 1299   0.898   1.937   0.124
  429SOL    HW1 1300   0.956   1.923   0.049
  429SOL    HW2 1301   0.945   1.897   0.197
  430SOL     OW 1302   1.713   2.004   0.512
  430SOL    HW1 1303   1.793   1.995   0.460
  430SOL    HW2 1304   1.701   1.918   0.552
  431SOL     OW 1305   1.293   2.795   0.683
  431SOL    HW1 1306   1.361   2.727   0.680
  431SOL    HW2 1307   1.305   2.845   0.602
  432SOL     OW 1308   1.840   2.035   0.968
  432SOL    HW1 1309   1.870   1.948   0.939
  432SOL    HW2 1310   1.753   2.044   0.928
  433SOL     OW 1311   0.268   2.180   0.722
  433SOL    HW1 1312   0.184   2.217   0.694
  433SOL    HW2 1313   0.258   2.168   0.817
  434SOL     OW 1314   0.813   2.858   1.374
  434SOL    HW1 1315   0.868   2.836   1.299
  434SOL    HW2 1316   0.833   2.950   1.392
  435SOL     OW 1317   0.900   2.790   0.285
  435SOL    HW1 1318   0.980   2.819   0.241
  435SOL    HW2 1319   0.931   2.739   0.360
  436SOL     OW 1320   1.020   2.103   0.965
  436SOL    HW1 1321   1.014   2.055   0.883
  436SOL    HW2 1322   1.014   2.035   1.033
  437SOL     OW 1323   1.718   2.254   1.381
  437SOL    HW1 1324   1.790   2.318   1.380
  437SOL    HW2 1325   1.748   2.183   1.324
  438SOL     OW 1326   0.117   2.865   1.695
  438SOL    HW1 1327   0.048   2.844   1.757
  438SOL    HW2 1328   0.198   2.851   1.744
  439SOL     OW 1329   0.673   2.058   1.498
  439SOL    HW1 1330   0.758   2.040   1.457
  439SOL    HW2 1331   0.696   2.085   1.587
  440SOL     OW 1332   0.054   2.169   0.053
  440SOL    HW1 1333   2.967   2.200   0.027
  440SOL    HW2 1334   0.114   2.236   0.019
  441SOL     OW 1335   1.434   2.718   1.404
  441SOL    HW1 1336   1.391   2.777   1.342
  441SOL    HW2 1337   1.527   2.719   1.378
  442SOL     OW 1338   0.062   2.060   0.321
  442SOL    HW1 1339   0.050   2.099   0.235
  442SOL    HW2 1340   0.125   1.990   0.307
  443SOL     OW 1341   1.141   0.211   0.094
  443SOL    HW1 1342   1.070   0.254   0.142
  443SOL    HW2 1343   1.217   0.220   0.151
  444SOL     OW 1344   0.613   2.689   1.436
  444SOL    HW1 1345   0.670   2.764   1.419
  444SOL    HW2 1346   0.673   2.615   1.444
  445SOL     OW 1347   0.717   2.427   1.706
  445SOL    HW1 1348   0.755   2.491   1.767
  445SOL    HW2 1349   0.751   2.343   1.735
  446SOL     OW 1350   1.676   2.745   1.254
  446SOL    HW1 1351   1.666   2.658   1.215
  446SOL    HW2 1352   1.659   2.806   1.182
  447SOL     OW 1353   1.220   2.181   0.460
  447SOL    HW1 1354   1.285   2.111   0.449
  447SOL    HW2 1355   1.251   2.230   0.536
  448SOL     OW 1356   0.592   2.588   0.664
  448SOL    HW1 1357   0.617   2.680   0.673
  448SOL    HW2 1358   0.522   2.588   0.598
  449SOL     OW 1359   1.764   2.224   1.649
  449SOL    HW1 1360   1.746   2.236   1.556
  449SOL    HW2 1361   1.695   2.166   1.680
  450SOL     OW 1362   1.733   2.796   1.515
  450SOL    HW1 1363   1.751   2.888   1.534
  450SOL    HW2 1364   1.727   2.791   1.420
  451SOL     OW 1365   0.888   2.831   0.862
  451SOL    HW1 1366   0.924   2.750   0.899
  451SOL    HW2 1367   0.827   2.862   0.929
  452SOL     OW 1368   1.110   2.887   0.085
  452SOL    HW1 1369   1.062   2.888   0.002
  452SOL    HW2 1370   1.172   2.814   0.077
  453SOL     OW 1371   1.811   2.052   1.239
  453SOL    HW1 1372   1.827   1.962   1.268
  453SOL    HW2 1373   1.823   2.048   1.144
  454SOL     OW 1374   0.430   2.295   0.527
  454SOL    HW1 1375   0.460   2.225   0.470
  454SOL    HW2 1376   0.384   2.251   0.599
  455SOL     OW 1377   0.335   2.418   1.290
  455SOL    HW1 1378   0.393   2.363   1.342
  455SOL    HW2 1379   0.349   2.389   1.199
  456SOL     OW 1380   1.430   2.084   1.118
  456SOL    HW1 1381   1.471   2.014   1.168
  456SOL    HW2 1382   1.379   2.133   1.182
  457SOL     OW 1383   1.008   1.883   1.145
  457SOL    HW1 1384   0.955   1.814   1.106
  457SOL    HW2 1385   1.096   1.846   1.149
  458SOL     OW 1386   1.354   1.914   0.163
  458SOL    HW1 1387   1.380   1.864   0.086
  458SOL    HW2 1388   1.269   1.879   0.187
  459SOL     OW 1389   1.300   2.324   0.684
  459SOL    HW1 1390   1.243   2.401   0.692
  459SOL    HW2 1391   1.295   2.282   0.770
  460SOL     OW 1392   1.586   2.066   0.877
  460SOL    HW1 1393   1.523   2.085   0.946
  460SOL    HW2 1394   1.587   2.145   0.823
  461SOL     OW 1395   3.000   2.884   0.286
  461SOL    HW1 1396   0.083   2.918   0.254
  461SOL    HW2 1397   0.019   2.850   0.373
  462SOL     OW 1398   0.231   2.504   1.971
  462SOL    HW1 1399   0.165   2.459   2.024
  462SOL    HW2 1400   0.223   2.465   1.884
  463SOL     OW 1401   0.235   2.125   2.837
  463SOL    HW1 1402   0.271   2.101   2.923
  463SOL    HW2 1403   0.147   2.086   2.837
  464SOL     OW 1404   0.015   2.247   2.506
  464SOL    HW1 1405   2.929   2.282   2.531
  464SOL    HW2 1406   2.996   2.162   2.468
  465SOL     OW 1407   1.136   2.568   2.565
  465SOL    HW1 1408   1.183   2.651   2.556
  465SOL    HW2 1409   1.083   2.579   2.644
  466SOL     OW 1410   1.761   2.467   2.092
  466SOL    HW1 1411   1.744   2.458   1.998
  466SOL    HW2 1412   1.730   2.385   2.130
  467SOL     OW 1413   0.776   0.012   2.876
  467SOL    HW1 1414   0.685   0.029   2.900
  467SOL    HW2 1415   0.802   0.088   2.824
  468SOL     OW 1416   0.650   2.848   2.568
  468SOL    HW1 1417   0.743   2.849   2.590
  468SOL    HW2 1418   0.633   2.933   2.529
  469SOL     OW 1419   1.617   2.311   2.595
  469SOL    HW1 1420   1.540   2.335   2.543
  469SOL    HW2 1421   1.622   2.377   2.663
  470SOL     OW 1422   0.213   0.313   2.325
  470SOL    HW1 1423   0.219   0.386   2.387
  470SOL    HW2 1424   0.202   0.236   2.380
  471SOL     OW 1425   0.232   2.946   2.743
  471SOL    HW1 1426   0.257   2.861   2.780
  471SOL    HW2 1427   0.210   2.999   2.819
  472SOL     OW 1428   0.606   2.823   1.992
  472SOL    HW1 1429   0.596   2.907   1.948
  472SOL    HW2 1430   0.667   2.841   2.064
  473SOL     OW 1431   0.121   2.494   2.425
  473SOL    HW1 1432   0.096   2.411   2.465
  473SOL    HW2 1433   0.120   2.557   2.498
  474SOL     OW 1434   1.700   2.805   2.484
  474SOL    HW1 1435   1.778   2.751   2.497
  474SOL    HW2 1436   1.694   2.816   2.389
  475SOL     OW 1437   0.626   0.242   2.573
  475SOL    HW1 1438   0.593   0.158   2.540
  475SOL    HW2 1439   0.615   0.302   2.499
  476SOL     OW 1440   0.812   1.861   2.367
  476SOL    HW1 1441   0.853   1.946   2.351
  476SOL    HW2 1442   0.719   1.880   2.378
  477SOL     OW 1443   0.214   2.806   0.103
  477SOL    HW1 1444   0.276   2.733   0.100
  477SOL    HW2 1445   0.128   2.765   0.093
  478SOL     OW 1446   1.537   2.841   2.046
  478SOL    HW1 1447   1.469   2.787   2.086
  478SOL    HW2 1448   1.593   2.868   2.119
  479SOL     OW 1449   0.596   2.579   2.127
  479SOL    HW1 1450   0.602   2.658   2.074
  479SOL    HW2 1451   0.532   2.601   2.195
  480SOL     OW 1452   1.298   2.199   2.809
  480SOL    HW1 1453   1.204   2.181   2.801
  480SOL    HW2 1454   1.321   2.165   2.895
  481SOL     OW 1455   1.052   2.562   2.289
  481SOL    HW1 1456   1.063   2.557   2.384
  481SOL    HW2 1457   0.969   2.517   2.272
  482SOL     OW 1458   0.106   2.671   2.625
  482SOL    HW1 1459   0.182   2.673   2.684
  482SOL    HW2 1460   0.046   2.736   2.662
  483SOL     OW 1461   0.886   2.207   2.055
  483SOL    HW1 1462   0.930   2.269   1.997
  483SOL    HW2 1463   0.907   2.121   2.020
  484SOL     OW 1464   0.552   2.047   2.767
  484SOL    HW1 1465   0.517   2.082   2.849
  484SOL    HW2 1466   0.560   2.124   2.710
  485SOL     OW 1467   1.797   2.910   2.728
  485SOL    HW1 1468   1.739   2.891   2.655
  485SOL    HW2 1469   1.740   2.913   2.805
  486SOL     OW 1470   1.481   2.603   2.586
  486SOL    HW1 1471   1.466   2.548   2.662
  486SOL    HW2 1472   1.557   2.656   2.609
  487SOL     OW 1473   1.401   1.970   2.292
  487SOL    HW1 1474   1.389   1.945   2.200
  487SOL    HW2 1475   1.496   1.976   2.303
  488SOL     OW 1476   0.395   2.555   2.335
  488SOL    HW1 1477   0.412   2.462   2.350
  488SOL    HW2 1478   0.302   2.566   2.355
  489SOL     OW 1479   0.630   1.988   1.968
  489SOL    HW1 1480   0.704   1.929   1.980
  489SOL    HW2 1481   0.584   1.954   1.891
  490SOL     OW 1482   0.922   2.381   2.757
  490SOL    HW1 1483   0.902   2.358   2.666
  490SOL    HW2 1484   0.958   2.300   2.795
  491SOL     OW 1485   0.549   1.925   2.367
  491SOL    HW1 1486   0.467   1.926   2.417
  491SOL    HW2 1487   0.544   2.003   2.312
  492SOL     OW 1488   0.291   1.905   2.042
  492SOL    HW1 1489   0.350   1.975   2.013
  492SOL    HW2 1490   0.347   1.842   2.085
  493SOL     OW 1491   0.936   2.105   2.324
  493SOL    HW1 1492   0.908   2.149   2.244
  493SOL    HW2 1493   1.031   2.118   2.326
  494SOL     OW 1494   1.026   2.407   1.881
  494SOL    HW1 1495   0.982   2.489   1.861
  494SOL    HW2 1496   1.089   2.428   1.950
  495SOL     OW 1497   0.869   2.318   2.499
  495SOL    HW1 1498   0.822   2.375   2.438
  495SOL    HW2 1499   0.888   2.239   2.449
  496SOL     OW 1500   1.012   1.911   2.613
  496SOL    HW1 1501   0.955   1.904   2.536
  496SOL    HW2 1502   0.992   1.833   2.665
  497SOL     OW 1503   1.421   2.998   2.736
  497SOL    HW1 1504   1.355   2.941   2.698
  497SOL    HW2 1505   1.448   0.056   2.665
  498SOL     OW 1506   1.486   2.448   2.819
  498SOL    HW1 1507   1.422   2.377   2.827
  498SOL    HW2 1508   1.510   2.470   2.909
  499SOL     OW 1509   1.837   2.667   2.253
  499SOL    HW1 1510   1.898   2.618   2.308
  499SOL    HW2 1511   1.815   2.607   2.182
  500SOL     OW 1512   1.394   2.435   1.934
  500SOL    HW1 1513   1.335   2.413   2.006
  500SOL    HW2 1514   1.479   2.400   1.962
  501SOL     OW 1515   0.527   2.124   2.182
  501SOL    HW1 1516   0.567   2.075   2.111
  501SOL    HW2 1517   0.508   2.210   2.145
  502SOL     OW 1518   1.625   2.966   2.935
  502SOL    HW1 1519   1.631   0.044   2.991
  502SOL    HW2 1520   1.550   2.982   2.878
  503SOL     OW 1521   0.553   2.395   2.726
  503SOL    HW1 1522   0.568   2.451   2.649
  503SOL    HW2 1523   0.615   2.428   2.792
  504SOL     OW 1524   1.578   2.486   2.335
  504SOL    HW1 1525   1.540   2.543   2.402
  504SOL    HW2 1526   1.634   2.544   2.283
  505SOL     OW 1527   0.575   2.726   2.884
  505SOL    HW1 1528   0.614   2.807   2.851
  505SOL    HW2 1529   0.561   2.743   2.977
  506SOL     OW 1530   1.207   2.392   2.132
  506SOL    HW1 1531   1.215   2.313   2.185
  506SOL    HW2 1532   1.162   2.454   2.188
  507SOL     OW 1533   0.327   2.062   0.079
  507SOL    HW1 1534   0.315   2.104   0.164
  507SOL    HW2 1535   0.305   1.970   0.094
  508SOL     OW 1536   0.729   2.500   2.915
  508SOL    HW1 1537   0.797   2.479   2.850
  508SOL    HW2 1538   0.695   2.585   2.886
  509SOL     OW 1539   0.303   1.931   2.482
  509SOL    HW1 1540   0.285   2.021   2.509
  509SOL    HW2 1541   0.307   1.882   2.565
  510SOL     OW 1542   1.613   2.233   2.231
  510SOL    HW1 1543   1.642   2.170   2.298
  510SOL    HW2 1544   1.591   2.312   2.281
  511SOL     OW 1545   1.024   2.621   2.822
  511SOL    HW1 1546   1.027   2.626   2.918
  511SOL    HW2 1547   0.996   2.531   2.804
  512SOL     OW 1548   1.529   2.139   1.990
  512SOL    HW1 1549   1.467   2.070   2.015
  512SOL    HW2 1550   1.562   2.172   2.073
  513SOL     OW 1551   1.293   2.687   1.895
  513SOL    HW1 1552   1.335   2.601   1.900
  513SOL    HW2 1553   1.325   2.725   1.813
  514SOL     OW 1554   0.311   2.675   2.809
  514SOL    HW1 1555   0.406   2.691   2.810
  514SOL    HW2 1556   0.302   2.586   2.844
  515SOL     OW 1557   0.321   2.385   2.867
  515SOL    HW1 1558   0.290   2.296   2.852
  515SOL    HW2 1559   0.401   2.392   2.815
  516SOL     OW 1560   0.983   2.614   0.088
  516SOL    HW1 1561   1.026   2.606   0.173
  516SOL    HW2 1562   0.892   2.638   0.110
  517SOL     OW 1563   0.817   2.431   2.217
  517SOL    HW1 1564   0.817   2.356   2.157
  517SOL    HW2 1565   0.742   2.484   2.189
  518SOL     OW 1566   0.704   2.310   0.102
  518SOL    HW1 1567   0.618   2.269   0.091
  518SOL    HW2 1568   0.705   2.381   0.039
  519SOL     OW 1569   0.464   2.355   2.048
  519SOL    HW1 1570   0.527   2.425   2.069
  519SOL    HW2 1571   0.380   2.400   2.044
  520SOL     OW 1572   1.303   2.725   2.171
  520SOL    HW1 1573   1.230   2.685   2.218
  520SOL    HW2 1574   1.287   2.703   2.079
  521SOL     OW 1575   1.718   2.005   2.374
  521SOL    HW1 1576   1.792   1.991   2.314
  521SOL    HW2 1577   1.703   1.919   2.414
  522SOL     OW 1578   1.294   2.799   2.545
  522SOL    HW1 1579   1.360   2.729   2.545
  522SOL    HW2 1580   1.306   2.843   2.461
  523SOL     OW 1581   1.840   2.041   2.822
  523SOL    HW1 1582   1.870   1.953   2.798
  523SOL    HW2 1583   1.751   2.046   2.789
  524SOL     OW 1584   0.270   2.181   2.577
  524SOL    HW1 1585   0.185   2.219   2.554
  524SOL    HW2 1586   0.265   2.167   2.671
  525SOL     OW 1587   0.904   2.760   2.114
  525SOL    HW1 1588   0.979   2.809   2.082
  525SOL    HW2 1589   0.937   2.711   2.189
  526SOL     OW 1590   1.035   2.106   2.806
  526SOL    HW1 1591   1.023   2.051   2.729
  526SOL    HW2 1592   1.005   2.052   2.879
  527SOL     OW 1593   0.093   2.181   1.918
  527SOL    HW1 1594   0.010   2.151   1.880
  527SOL    HW2 1595   0.105   2.269   1.882
  528SOL     OW 1596   0.065   2.059   2.176
  528SOL    HW1 1597   0.071   2.107   2.094
  528SOL    HW2 1598   0.131   1.991   2.170
  529SOL     OW 1599   1.127   0.241   2.005
  529SOL    HW1 1600   1.105   0.159   1.959
  529SOL    HW2 1601   1.211   0.223   2.047
  530SOL     OW 1602   1.729   2.710   0.053
  530SOL    HW1 1603   1.656   2.667   0.097
  530SOL    HW2 1604   1.700   2.801   0.041
  531SOL     OW 1605   1.218   2.182   2.319
  531SOL    HW1 1606   1.282   2.111   2.309
  531SOL    HW2 1607   1.247   2.229   2.397
  532SOL     OW 1608   0.595   2.584   2.526
  532SOL    HW1 1609   0.619   2.677   2.536
  532SOL    HW2 1610   0.525   2.585   2.460
  533SOL     OW 1611   0.882   2.824   2.716
  533SOL    HW1 1612   0.926   2.749   2.757
  533SOL    HW2 1613   0.845   2.873   2.789
  534SOL     OW 1614   1.104   2.875   1.953
  534SOL    HW1 1615   1.061   2.899   1.871
  534SOL    HW2 1616   1.160   2.801   1.930
  535SOL     OW 1617   1.824   2.051   0.096
  535SOL    HW1 1618   1.795   1.960   0.102
  535SOL    HW2 1619   1.831   2.067   0.002
  536SOL     OW 1620   0.426   2.294   2.382
  536SOL    HW1 1621   0.459   2.220   2.330
  536SOL    HW2 1622   0.382   2.253   2.456
  537SOL     OW 1623   1.354   1.915   2.025
  537SOL    HW1 1624   1.390   1.849   1.966
  537SOL    HW2 1625   1.267   1.883   2.048
  538SOL     OW 1626   1.298   2.320   2.548
  538SOL    HW1 1627   1.244   2.398   2.557
  538SOL    HW2 1628   1.297   2.280   2.636
  539SOL     OW 1629   1.583   2.074   2.739
  539SOL    HW1 1630   1.500   2.095   2.781
  539SOL    HW2 1631   1.597   2.147   2.678
  540SOL     OW 1632   0.018   2.932   2.154
  540SOL    HW1 1633   0.113   2.925   2.141
  540SOL    HW2 1634   0.001   2.874   2.229
  541SOL     OW 1635   2.093   0.636   0.121
  541SOL    HW1 1636   1.998   0.628   0.137
  541SOL    HW2 1637   2.105   0.604   0.032
  542SOL     OW 1638   2.079   0.286   1.008
  542SOL    HW1 1639   2.111   0.249   1.090
  542SOL    HW2 1640   1.994   0.242   0.994
  543SOL     OW 1641   1.865   0.380   0.643
  543SOL    HW1 1642   1.784   0.407   0.685
  543SOL    HW2 1643   1.841   0.305   0.588
  544SOL     OW 1644   2.427   1.282   1.171
  544SOL    HW1 1645   2.339   1.289   1.134
  544SOL    HW2 1646   2.444   1.368   1.208
  545SOL     OW 1647   2.618   1.143   1.035
  545SOL    HW1 1648   2.550   1.177   1.093
  545SOL    HW2 1649   2.656   1.222   0.995
  546SOL     OW 1650   2.719   0.778   1.817
  546SOL    HW1 1651   2.712   0.848   1.882
  546SOL    HW2 1652   2.744   0.823   1.737
  547SOL     OW 1653   2.547   1.007   0.650
  547SOL    HW1 1654   2.608   0.991   0.721
  547SOL    HW2 1655   2.476   1.058   0.690
  548SOL     OW 1656   2.569   1.153   1.810
  548SOL    HW1 1657   2.616   1.233   1.834
  548SOL    HW2 1658   2.485   1.184   1.776
  549SOL     OW 1659   2.195   1.427   1.068
  549SOL    HW1 1660   2.121   1.395   1.016
  549SOL    HW2 1661   2.246   1.479   1.007
  550SOL     OW 1662   2.313   0.401   1.488
  550SOL    HW1 1663   2.387   0.341   1.493
  550SOL    HW2 1664   2.236   0.346   1.503
  551SOL     OW 1665   2.083   1.714   0.473
  551SOL    HW1 1666   2.104   1.790   0.527
  551SOL    HW2 1667   2.158   1.704   0.415
  552SOL     OW 1668   2.982   1.346   1.687
  552SOL    HW1 1669   0.028   1.348   1.771
  552SOL    HW2 1670   2.936   1.262   1.687
  553SOL     OW 1671   2.084   1.441   0.534
  553SOL    HW1 1672   2.074   1.536   0.542
  553SOL    HW2 1673   2.026   1.405   0.600
  554SOL     OW 1674   2.113   1.089   0.887
  554SOL    HW1 1675   2.115   1.005   0.933
  554SOL    HW2 1676   2.061   1.146   0.944
  555SOL     OW 1677   2.479   1.788   1.435
  555SOL    HW1 1678   2.394   1.771   1.476
  555SOL    HW2 1679   2.497   1.880   1.456
  556SOL     OW 1680   2.454   0.978   0.146
  556SOL    HW1 1681   2.479   1.050   0.087
  556SOL    HW2 1682   2.490   1.003   0.231
  557SOL     OW 1683   1.980   0.644   0.563
  557SOL    HW1 1684   1.936   0.563   0.588
  557SOL    HW2 1685   1.973   0.700   0.640
  558SOL     OW 1686   1.876   1.590   0.121
  558SOL    HW1 1687   1.889   1.499   0.148
  558SOL    HW2 1688   1.878   1.640   0.202
  559SOL     OW 1689   1.986   0.743   1.584
  559SOL    HW1 1690   2.080   0.758   1.598
  559SOL    HW2 1691   1.945   0.827   1.606
  560SOL     OW 1692   2.474   1.382   0.735
  560SOL    HW1 1693   2.428   1.299   0.743
  560SOL    HW2 1694   2.457   1.410   0.645
  561SOL     OW 1695   2.682   0.014   0.517
  561SOL    HW1 1696   2.708   0.105   0.500
  561SOL    HW2 1697   2.588   0.013   0.501
  562SOL     OW 1698   2.053   0.966   1.262
  562SOL    HW1 1699   2.139   0.926   1.251
  562SOL    HW2 1700   1.991   0.902   1.227
  563SOL     OW 1701   2.187   0.253   1.800
  563SOL    HW1 1702   2.237   0.332   1.823
  563SOL    HW2 1703   2.101   0.267   1.841
  564SOL     OW 1704   2.453   0.721   0.265
  564SOL    HW1 1705   2.460   0.804   0.217
  564SOL    HW2 1706   2.390   0.740   0.335
  565SOL     OW 1707   2.655   0.627   1.453
  565SOL    HW1 1708   2.629   0.600   1.542
  565SOL    HW2 1709   2.617   0.560   1.396
  566SOL     OW 1710   2.830   0.882   1.574
  566SOL    HW1 1711   2.856   0.796   1.541
  566SOL    HW2 1712   2.782   0.922   1.501
  567SOL     OW 1713   2.845   0.375   1.260
  567SOL    HW1 1714   2.771   0.428   1.289
  567SOL    HW2 1715   2.839   0.375   1.164
  568SOL     OW 1716   2.892   0.715   0.409
  568SOL    HW1 1717   2.929   0.700   0.496
  568SOL    HW2 1718   2.817   0.656   0.404
  569SOL     OW 1719   1.952   0.819   0.774
  569SOL    HW1 1720   2.033   0.811   0.824
  569SOL    HW2 1721   1.911   0.899   0.809
  570SOL     OW 1722   1.991   1.847   1.572
  570SOL    HW1 1723   1.982   1.824   1.664
  570SOL    HW2 1724   1.905   1.827   1.534
  571SOL     OW 1725   2.782   0.343   0.219
  571SOL    HW1 1726   2.764   0.396   0.141
  571SOL    HW2 1727   2.773   0.253   0.189
  572SOL     OW 1728   2.380   0.197   0.910
  572SOL    HW1 1729   2.397   0.212   1.003
  572SOL    HW2 1730   2.403   0.279   0.868
  573SOL     OW 1731   2.862   1.442   0.470
  573SOL    HW1 1732   2.828   1.518   0.423
  573SOL    HW2 1733   2.860   1.467   0.562
  574SOL     OW 1734   2.217   1.806   0.856
  574SOL    HW1 1735   2.261   1.722   0.867
  574SOL    HW2 1736   2.284   1.871   0.876
  575SOL     OW 1737   2.180   0.952   0.243
  575SOL    HW1 1738   2.264   0.969   0.199
  575SOL    HW2 1739   2.152   0.867   0.210
  576SOL     OW 1740   2.326   1.259   1.736
  576SOL    HW1 1741   2.298   1.265   1.644
  576SOL    HW2 1742   2.245   1.262   1.786
  577SOL     OW 1743   2.063   0.294   1.498
  577SOL    HW1 1744   1.979   0.341   1.499
  577SOL    HW2 1745   2.052   0.225   1.563
  578SOL     OW 1746   2.328   1.724   0.333
  578SOL    HW1 1747   2.362   1.793   0.391
  578SOL    HW2 1748   2.395   1.715   0.265
  579SOL     OW 1749   2.126   1.796   1.231
  579SOL    HW1 1750   2.166   1.728   1.285
  579SOL    HW2 1751   2.097   1.751   1.152
  580SOL     OW 1752   2.801   1.695   0.900
  580SOL    HW1 1753   2.863   1.628   0.928
  580SOL    HW2 1754   2.752   1.654   0.828
  581SOL     OW 1755   2.256   0.691   0.476
  581SOL    HW1 1756   2.286   0.602   0.493
  581SOL    HW2 1757   2.162   0.689   0.497
  582SOL     OW 1758   2.476   0.108   0.107
  582SOL    HW1 1759   2.571   0.113   0.119
  582SOL    HW2 1760   2.462   0.146   0.020
  583SOL     OW 1761   2.633   0.277   1.752
  583SOL    HW1 1762   2.702   0.212   1.768
  583SOL    HW2 1763   2.579   0.274   1.831
  584SOL     OW 1764   2.741   1.517   1.193
  584SOL    HW1 1765   2.720   1.483   1.107
  584SOL    HW2 1766   2.803   1.454   1.230
  585SOL     OW 1767   2.669   1.403   0.938
  585SOL    HW1 1768   2.753   1.390   0.894
  585SOL    HW2 1769   2.604   1.397   0.869
  586SOL     OW 1770   2.784   0.505   0.905
  586SOL    HW1 1771   2.757   0.494   0.814
  586SOL    HW2 1772   2.824   0.421   0.928
  587SOL     OW 1773   2.402   0.047   0.496
  587SOL    HW1 1774   2.316   0.038   0.538
  587SOL    HW2 1775   2.394   0.127   0.444
  588SOL     OW 1776   0.320   1.153   0.044
  588SOL    HW1 1777   0.310   1.098   0.122
  588SOL    HW2 1778   0.253   1.221   0.053
  589SOL     OW 1779   2.160   0.088   0.185
  589SOL    HW1 1780   2.245   0.132   0.195
  589SOL    HW2 1781   2.180   2.996   0.199
  590SOL     OW 1782   2.826   0.247   0.467
  590SOL    HW1 1783   2.784   0.296   0.396
  590SOL    HW2 1784   2.902   0.206   0.427
  591SOL     OW 1785   0.084   1.582   0.797
  591SOL    HW1 1786   0.110   1.620   0.713
  591SOL    HW2 1787   0.166   1.552   0.836
  592SOL     OW 1788   2.328   1.147   0.735
  592SOL    HW1 1789   2.257   1.129   0.797
  592SOL    HW2 1790   2.289   1.132   0.649
  593SOL     OW 1791   2.896   0.512   0.021
  593SOL    HW1 1792   2.844   0.591   0.008
  593SOL    HW2 1793   2.943   0.527   0.103
  594SOL     OW 1794   1.937   0.557   1.391
  594SOL    HW1 1795   2.029   0.553   1.364
  594SOL    HW2 1796   1.934   0.627   1.456
  595SOL     OW 1797   2.428   0.215   1.180
  595SOL    HW1 1798   2.463   0.166   1.254
  595SOL    HW2 1799   2.335   0.226   1.200
  596SOL     OW 1800   2.744   0.469   0.635
  596SOL    HW1 1801   2.678   0.519   0.588
  596SOL    HW2 1802   2.737   0.380   0.600
  597SOL     OW 1803   2.862   0.057   0.760
  597SOL    HW1 1804   2.823   0.060   0.673
  597SOL    HW2 1805   2.836   2.971   0.795
  598SOL     OW 1806   2.353   1.401   0.151
  598SOL    HW1 1807   2.287   1.373   0.214
  598SOL    HW2 1808   2.305   1.409   0.069
  599SOL     OW 1809   2.392   0.262   0.324
  599SOL    HW1 1810   2.434   0.213   0.253
  599SOL    HW2 1811   2.365   0.344   0.284
  600SOL     OW 1812   2.779   0.113   1.401
  600SOL    HW1 1813   2.806   0.099   1.310
  600SOL    HW2 1814   2.841   0.177   1.434
  601SOL     OW 1815   2.840   1.109   1.730
  601SOL    HW1 1816   2.748   1.131   1.740
  601SOL    HW2 1817   2.842   1.042   1.661
  602SOL     OW 1818   2.563   1.062   0.379
  602SOL    HW1 1819   2.549   1.049   0.472
  602SOL    HW2 1820   2.646   1.019   0.360
  603SOL     OW 1821   2.278   0.813   1.252
  603SOL    HW1 1822   2.347   0.824   1.317
  603SOL    HW2 1823   2.244   0.725   1.268
  604SOL     OW 1824   1.929   1.571   1.314
  604SOL    HW1 1825   1.891   1.655   1.340
  604SOL    HW2 1826   2.019   1.574   1.347
  605SOL     OW 1827   2.215   1.108   0.490
  605SOL    HW1 1828   2.215   1.183   0.430
  605SOL    HW2 1829   2.213   1.031   0.433
  606SOL     OW 1830   2.418   0.542   0.863
  606SOL    HW1 1831   2.435   0.596   0.787
  606SOL    HW2 1832   2.483   0.570   0.928
  607SOL     OW 1833   2.212   1.524   1.320
  607SOL    HW1 1834   2.196   1.483   1.235
  607SOL    HW2 1835   2.306   1.537   1.324
  608SOL     OW 1836   2.274   0.744   1.601
  608SOL    HW1 1837   2.334   0.791   1.544
  608SOL    HW2 1838   2.318   0.660   1.617
  609SOL     OW 1839   2.867   0.117   1.762
  609SOL    HW1 1840   2.900   0.192   1.712
  609SOL    HW2 1841   2.902   0.040   1.716
  610SOL     OW 1842   2.366   0.055   1.748
  610SOL    HW1 1843   2.331   2.988   1.690
  610SOL    HW2 1844   2.295   0.119   1.757
  611SOL     OW 1845   2.442   0.874   1.030
  611SOL    HW1 1846   2.476   0.963   1.029
  611SOL    HW2 1847   2.388   0.870   1.109
  612SOL     OW 1848   0.063   0.532   0.269
  612SOL    HW1 1849   0.084   0.450   0.313
  612SOL    HW2 1850   0.035   0.590   0.340
  613SOL     OW 1851   2.161   0.198   1.252
  613SOL    HW1 1852   2.130   0.240   1.332
  613SOL    HW2 1853   2.138   0.106   1.262
  614SOL     OW 1854   1.878   1.307   1.276
  614SOL    HW1 1855   1.921   1.256   1.345
  614SOL    HW2 1856   1.901   1.398   1.296
  615SOL     OW 1857   2.590   0.634   1.060
  615SOL    HW1 1858   2.665   0.617   1.004
  615SOL    HW2 1859   2.563   0.723   1.038
  616SOL     OW 1860   2.168   0.061   0.641
  616SOL    HW1 1861   2.170   0.152   0.670
  616SOL    HW2 1862   2.152   0.011   0.720
  617SOL     OW 1863   2.867   0.769   0.972
  617SOL    HW1 1864   2.896   0.774   1.063
  617SOL    HW2 1865   2.873   0.676   0.950
  618SOL     OW 1866   2.833   1.569   1.704
  618SOL    HW1 1867   2.827   1.609   1.617
  618SOL    HW2 1868   2.889   1.492   1.691
  619SOL     OW 1869   2.215   0.913   1.811
  619SOL    HW1 1870   2.299   0.937   1.851
  619SOL    HW2 1871   2.238   0.853   1.740
  620SOL     OW 1872   2.906   1.344   0.834
  620SOL    HW1 1873   2.910   1.266   0.779
  620SOL    HW2 1874   2.980   1.398   0.804
  621SOL     OW 1875   2.173   0.809   0.947
  621SOL    HW1 1876   2.265   0.833   0.944
  621SOL    HW2 1877   2.172   0.720   0.982
  622SOL     OW 1878   2.197   0.526   1.014
  622SOL    HW1 1879   2.159   0.439   0.998
  622SOL    HW2 1880   2.271   0.531   0.954
  623SOL     OW 1881   2.966   0.366   1.665
  623SOL    HW1 1882   2.908   0.430   1.707
  623SOL    HW2 1883   0.053   0.407   1.669
  624SOL     OW 1884   1.872   1.320   0.186
  624SOL    HW1 1885   1.782   1.333   0.160
  624SOL    HW2 1886   1.872   1.234   0.229
  625SOL     OW 1887   1.953   1.791   0.935
  625SOL    HW1 1888   1.923   1.710   0.893
  625SOL    HW2 1889   2.044   1.801   0.906
  626SOL     OW 1890   2.361   1.573   0.906
  626SOL    HW1 1891   2.429   1.635   0.930
  626SOL    HW2 1892   2.405   1.508   0.852
  627SOL     OW 1893   2.864   0.793   1.252
  627SOL    HW1 1894   2.908   0.728   1.307
  627SOL    HW2 1895   2.774   0.762   1.246
  628SOL     OW 1896   1.898   0.540   1.117
  628SOL    HW1 1897   1.979   0.526   1.068
  628SOL    HW2 1898   1.926   0.550   1.208
  629SOL     OW 1899   2.049   0.519   1.725
  629SOL    HW1 1900   2.109   0.484   1.658
  629SOL    HW2 1901   2.006   0.592   1.681
  630SOL     OW 1902   2.673   0.573   0.349
  630SOL    HW1 1903   2.678   0.493   0.296
  630SOL    HW2 1904   2.592   0.615   0.322
  631SOL     OW 1905   2.141   1.559   1.744
  631SOL    HW1 1906   2.082   1.618   1.791
  631SOL    HW2 1907   2.111   1.471   1.768
  632SOL     OW 1908   2.556   0.460   1.264
  632SOL    HW1 1909   2.511   0.382   1.233
  632SOL    HW2 1910   2.557   0.519   1.190
  633SOL     OW 1911   2.804   1.689   1.459
  633SOL    HW1 1912   2.771   1.640   1.383
  633SOL    HW2 1913   2.774   1.779   1.444
  634SOL     OW 1914   2.315   0.494   0.200
  634SOL    HW1 1915   2.372   0.568   0.222
  634SOL    HW2 1916   2.229   0.532   0.184
  635SOL     OW 1917   2.010   1.141   1.463
  635SOL    HW1 1918   2.009   1.093   1.545
  635SOL    HW2 1919   2.031   1.075   1.397
  636SOL     OW 1920   1.944   1.268   1.013
  636SOL    HW1 1921   1.930   1.274   1.108
  636SOL    HW2 1922   1.877   1.207   0.983
  637SOL     OW 1923   2.538   1.665   1.730
  637SOL    HW1 1924   2.484   1.743   1.719
  637SOL    HW2 1925   2.603   1.671   1.659
  638SOL     OW 1926   2.765   0.086   0.142
  638SOL    HW1 1927   2.804   0.041   0.067
  638SOL    HW2 1928   2.808   0.048   0.218
  639SOL     OW 1929   1.995   1.797   1.841
  639SOL    HW1 1930   1.946   1.730   1.889
  639SOL    HW2 1931   2.045   1.843   1.908
  640SOL     OW 1932   2.678   1.269   1.426
  640SOL    HW1 1933   2.667   1.314   1.510
  640SOL    HW2 1934   2.604   1.299   1.373
  641SOL     OW 1935   2.530   1.610   0.160
  641SOL    HW1 1936   2.535   1.628   0.066
  641SOL    HW2 1937   2.478   1.530   0.166
  642SOL     OW 1938   2.137   0.348   0.754
  642SOL    HW1 1939   2.047   0.367   0.727
  642SOL    HW2 1940   2.129   0.314   0.843
  643SOL     OW 1941   2.688   1.006   1.375
  643SOL    HW1 1942   2.733   1.001   1.290
  643SOL    HW2 1943   2.688   1.100   1.396
  644SOL     OW 1944   2.789   0.944   0.309
  644SOL    HW1 1945   2.839   0.955   0.228
  644SOL    HW2 1946   2.824   0.863   0.347
  645SOL     OW 1947   2.232   1.299   1.490
  645SOL    HW1 1948   2.219   1.380   1.441
  645SOL    HW2 1949   2.152   1.248   1.475
  646SOL     OW 1950   2.915   1.083   0.721
  646SOL    HW1 1951   2.839   1.043   0.762
  646SOL    HW2 1952   2.931   1.031   0.643
  647SOL     OW 1953   2.879   0.239   0.969
  647SOL    HW1 1954   2.876   0.188   0.888
  647SOL    HW2 1955   2.870   0.174   1.039
  648SOL     OW 1956   2.460   1.488   0.483
  648SOL    HW1 1957   2.503   1.439   0.413
  648SOL    HW2 1958   2.401   1.548   0.437
  649SOL     OW 1959   2.131   1.334   0.296
  649SOL    HW1 1960   2.046   1.339   0.254
  649SOL    HW2 1961   2.119   1.378   0.380
  650SOL     OW 1962   1.971   1.000   1.709
  650SOL    HW1 1963   1.897   0.993   1.769
  650SOL    HW2 1964   2.048   0.980   1.762
  651SOL     OW 1965   2.528   0.209   1.491
  651SOL    HW1 1966   2.611   0.182   1.452
  651SOL    HW2 1967   2.548   0.223   1.584
  652SOL     OW 1968   1.914   0.199   0.332
  652SOL    HW1 1969   1.884   0.233   0.247
  652SOL    HW2 1970   1.999   0.160   0.313
  653SOL     OW 1971   2.478   0.834   1.432
  653SOL    HW1 1972   2.534   0.911   1.418
  653SOL    HW2 1973   2.540   0.761   1.439
  654SOL     OW 1974   2.579   0.564   1.704
  654SOL    HW1 1975   2.612   0.628   1.766
  654SOL    HW2 1976   2.614   0.480   1.735
  655SOL     OW 1977   2.244   1.741   1.564
  655SOL    HW1 1978   2.158   1.781   1.552
  655SOL    HW2 1979   2.227   1.660   1.613
  656SOL     OW 1980   2.458   0.740   0.664
  656SOL    HW1 1981   2.493   0.828   0.652
  656SOL    HW2 1982   2.385   0.735   0.602
  657SOL     OW 1983   2.765   1.379   0.063
  657SOL    HW1 1984   2.693   1.386   0.126
  657SOL    HW2 1985   2.733   1.423   2.984
  658SOL     OW 1986   2.521   1.795   0.948
  658SOL    HW1 1987   2.499   1.885   0.923
  658SOL    HW2 1988   2.616   1.790   0.938
  659SOL     OW 1989   2.718   0.962   0.857
  659SOL    HW1 1990   2.765   0.890   0.898
  659SOL    HW2 1991   2.687   1.016   0.930
  660SOL     OW 1992   2.957   1.014   0.078
  660SOL    HW1 1993   2.929   1.055   2.996
  660SOL    HW2 1994   0.014   0.943   0.051
  661SOL     OW 1995   2.085   1.300   1.853
  661SOL    HW1 1996   2.006   1.261   1.818
  661SOL    HW2 1997   2.065   1.318   1.945
  662SOL     OW 1998   1.943   1.234   0.664
  662SOL    HW1 1999   1.952   1.184   0.745
  662SOL    HW2 2000   2.013   1.201   0.608
  663SOL     OW 2001   2.542   1.402   1.627
  663SOL    HW1 2002   2.461   1.357   1.653
  663SOL    HW2 2003   2.534   1.489   1.666
  664SOL     OW 2004   2.339   0.433   0.550
  664SOL    HW1 2005   2.325   0.376   0.475
  664SOL    HW2 2006   2.270   0.409   0.612
  665SOL     OW 2007   2.188   0.552   1.291
  665SOL    HW1 2008   2.246   0.499   1.346
  665SOL    HW2 2009   2.211   0.528   1.201
  666SOL     OW 2010   2.684   1.582   0.679
  666SOL    HW1 2011   2.681   1.620   0.591
  666SOL    HW2 2012   2.608   1.525   0.684
  667SOL     OW 2013   2.853   0.018   1.148
  667SOL    HW1 2014   2.820   2.944   1.096
  667SOL    HW2 2015   2.945   2.996   1.165
  668SOL     OW 2016   2.629   1.330   0.314
  668SOL    HW1 2017   2.600   1.240   0.332
  668SOL    HW2 2018   2.712   1.338   0.359
  669SOL     OW 2019   2.483   1.558   1.283
  669SOL    HW1 2020   2.486   1.639   1.335
  669SOL    HW2 2021   2.571   1.551   1.245
  670SOL     OW 2022   1.902   1.074   0.305
  670SOL    HW1 2023   1.996   1.068   0.287
  670SOL    HW2 2024   1.875   0.985   0.327
  671SOL     OW 2025   2.738   1.649   0.347
  671SOL    HW1 2026   2.668   1.633   0.284
  671SOL    HW2 2027   2.709   1.727   0.395
  672SOL     OW 2028   2.093   0.622   1.984
  672SOL    HW1 2029   2.003   0.623   2.017
  672SOL    HW2 2030   2.084   0.597   1.892
  673SOL     OW 2031   2.088   0.277   2.880
  673SOL    HW1 2032   2.104   0.238   2.966
  673SOL    HW2 2033   2.003   0.242   2.854
  674SOL     OW 2034   1.866   0.380   2.504
  674SOL    HW1 2035   1.785   0.410   2.545
  674SOL    HW2 2036   1.838   0.304   2.451
  675SOL     OW 2037   2.612   1.147   2.896
  675SOL    HW1 2038   2.550   1.193   2.952
  675SOL    HW2 2039   2.662   1.217   2.853
  676SOL     OW 2040   2.548   1.008   2.508
  676SOL    HW1 2041   2.607   0.991   2.581
  676SOL    HW2 2042   2.476   1.058   2.547
  677SOL     OW 2043   2.202   1.432   2.931
  677SOL    HW1 2044   2.125   1.399   2.885
  677SOL    HW2 2045   2.248   1.484   2.865
  678SOL     OW 2046   2.081   1.713   2.337
  678SOL    HW1 2047   2.105   1.790   2.388
  678SOL    HW2 2048   2.150   1.706   2.270
  679SOL     OW 2049   2.093   1.441   2.398
  679SOL    HW1 2050   2.076   1.535   2.401
  679SOL    HW2 2051   2.029   1.402   2.458
  680SOL     OW 2052   2.116   1.092   2.754
  680SOL    HW1 2053   2.110   1.005   2.793
  680SOL    HW2 2054   2.057   1.146   2.806
  681SOL     OW 2055   2.455   0.978   1.993
  681SOL    HW1 2056   2.494   1.033   1.926
  681SOL    HW2 2057   2.492   1.010   2.075
  682SOL     OW 2058   1.981   0.644   2.425
  682SOL    HW1 2059   1.934   0.564   2.449
  682SOL    HW2 2060   1.973   0.700   2.502
  683SOL     OW 2061   1.893   1.598   1.988
  683SOL    HW1 2062   1.876   1.505   2.003
  683SOL    HW2 2063   1.867   1.641   2.069
  684SOL     OW 2064   2.471   1.381   2.593
  684SOL    HW1 2065   2.423   1.298   2.601
  684SOL    HW2 2066   2.455   1.409   2.502
  685SOL     OW 2067   2.683   0.014   2.378
  685SOL    HW1 2068   2.709   0.104   2.357
  685SOL    HW2 2069   2.589   0.012   2.362
  686SOL     OW 2070   2.458   0.725   2.126
  686SOL    HW1 2071   2.463   0.804   2.073
  686SOL    HW2 2072   2.391   0.745   2.192
  687SOL     OW 2073   2.891   0.707   2.282
  687SOL    HW1 2074   2.918   0.693   2.372
  687SOL    HW2 2075   2.815   0.651   2.270
  688SOL     OW 2076   1.952   0.819   2.635
  688SOL    HW1 2077   2.032   0.812   2.688
  688SOL    HW2 2078   1.907   0.896   2.671
  689SOL     OW 2079   2.738   0.344   2.050
  689SOL    HW1 2080   2.790   0.406   2.000
  689SOL    HW2 2081   2.780   0.259   2.037
  690SOL     OW 2082   2.418   0.201   2.832
  690SOL    HW1 2083   2.361   0.266   2.872
  690SOL    HW2 2084   2.433   0.234   2.743
  691SOL     OW 2085   2.864   1.440   2.332
  691SOL    HW1 2086   2.828   1.515   2.285
  691SOL    HW2 2087   2.863   1.467   2.424
  692SOL     OW 2088   2.217   1.804   2.717
  692SOL    HW1 2089   2.260   1.720   2.729
  692SOL    HW2 2090   2.284   1.869   2.737
  693SOL     OW 2091   2.185   0.952   2.112
  693SOL    HW1 2092   2.264   0.977   2.063
  693SOL    HW2 2093   2.152   0.874   2.068
  694SOL     OW 2094   2.329   1.739   2.183
  694SOL    HW1 2095   2.370   1.794   2.249
  694SOL    HW2 2096   2.401   1.709   2.128
  695SOL     OW 2097   2.126   1.800   0.103
  695SOL    HW1 2098   2.167   1.731   0.155
  695SOL    HW2 2099   2.080   1.753   0.033
  696SOL     OW 2100   2.794   1.699   2.758
  696SOL    HW1 2101   2.858   1.639   2.795
  696SOL    HW2 2102   2.754   1.650   2.686
  697SOL     OW 2103   2.256   0.691   2.341
  697SOL    HW1 2104   2.285   0.600   2.355
  697SOL    HW2 2105   2.163   0.689   2.360
  698SOL     OW 2106   2.488   0.122   1.973
  698SOL    HW1 2107   2.577   0.086   1.969
  698SOL    HW2 2108   2.449   0.101   1.888
  699SOL     OW 2109   2.662   1.402   2.791
  699SOL    HW1 2110   2.748   1.394   2.750
  699SOL    HW2 2111   2.600   1.396   2.718
  700SOL     OW 2112   2.782   0.520   2.756
  700SOL    HW1 2113   2.757   0.496   2.667
  700SOL    HW2 2114   2.813   0.438   2.795
  701SOL     OW 2115   2.406   0.060   2.365
  701SOL    HW1 2116   2.318   0.043   2.401
  701SOL    HW2 2117   2.394   0.131   2.303
  702SOL     OW 2118   2.150   0.035   2.059
  702SOL    HW1 2119   2.194   0.110   2.019
  702SOL    HW2 2120   2.222   2.975   2.083
  703SOL     OW 2121   2.813   0.251   2.321
  703SOL    HW1 2122   2.762   0.294   2.253
  703SOL    HW2 2123   2.892   0.221   2.277
  704SOL     OW 2124   0.084   1.577   2.660
  704SOL    HW1 2125   0.112   1.622   2.581
  704SOL    HW2 2126   0.165   1.555   2.706
  705SOL     OW 2127   2.329   1.145   2.598
  705SOL    HW1 2128   2.258   1.129   2.660
  705SOL    HW2 2129   2.289   1.129   2.512
  706SOL     OW 2130   2.887   0.551   1.878
  706SOL    HW1 2131   2.841   0.632   1.858
  706SOL    HW2 2132   2.938   0.571   1.956
  707SOL     OW 2133   2.743   0.467   2.494
  707SOL    HW1 2134   2.678   0.518   2.445
  707SOL    HW2 2135   2.740   0.380   2.454
  708SOL     OW 2136   2.859   0.054   2.617
  708SOL    HW1 2137   2.821   0.052   2.529
  708SOL    HW2 2138   2.837   2.969   2.654
  709SOL     OW 2139   2.354   1.413   2.023
  709SOL    HW1 2140   2.279   1.383   2.075
  709SOL    HW2 2141   2.329   1.395   1.932
  710SOL     OW 2142   2.394   0.265   2.183
  710SOL    HW1 2143   2.429   0.212   2.111
  710SOL    HW2 2144   2.370   0.349   2.142
  711SOL     OW 2145   2.569   1.061   2.233
  711SOL    HW1 2146   2.554   1.046   2.327
  711SOL    HW2 2147   2.648   1.010   2.213
  712SOL     OW 2148   2.217   1.106   2.353
  712SOL    HW1 2149   2.217   1.181   2.293
  712SOL    HW2 2150   2.214   1.029   2.296
  713SOL     OW 2151   2.413   0.542   2.729
  713SOL    HW1 2152   2.432   0.593   2.650
  713SOL    HW2 2153   2.480   0.570   2.792
  714SOL     OW 2154   2.438   0.871   2.880
  714SOL    HW1 2155   2.480   0.953   2.854
  714SOL    HW2 2156   2.417   0.882   2.972
  715SOL     OW 2157   0.055   0.532   2.133
  715SOL    HW1 2158   0.083   0.455   2.181
  715SOL    HW2 2159   0.024   0.593   2.200
  716SOL     OW 2160   2.597   0.646   2.918
  716SOL    HW1 2161   2.661   0.621   2.852
  716SOL    HW2 2162   2.560   0.728   2.886
  717SOL     OW 2163   2.173   0.062   2.506
  717SOL    HW1 2164   2.164   0.153   2.535
  717SOL    HW2 2165   2.152   0.010   2.584
  718SOL     OW 2166   2.874   0.777   2.830
  718SOL    HW1 2167   2.883   0.769   2.925
  718SOL    HW2 2168   2.867   0.687   2.799
  719SOL     OW 2169   2.908   1.343   2.698
  719SOL    HW1 2170   2.914   1.268   2.639
  719SOL    HW2 2171   2.976   1.403   2.667
  720SOL     OW 2172   2.171   0.811   2.811
  720SOL    HW1 2173   2.264   0.831   2.809
  720SOL    HW2 2174   2.167   0.719   2.840
  721SOL     OW 2175   2.184   0.535   2.869
  721SOL    HW1 2176   2.149   0.445   2.866
  721SOL    HW2 2177   2.262   0.532   2.814
  722SOL     OW 2178   1.867   1.323   2.058
  722SOL    HW1 2179   1.777   1.337   2.029
  722SOL    HW2 2180   1.869   1.232   2.088
  723SOL     OW 2181   1.952   1.795   2.795
  723SOL    HW1 2182   1.921   1.712   2.759
  723SOL    HW2 2183   2.043   1.801   2.767
  724SOL     OW 2184   2.366   1.577   2.765
  724SOL    HW1 2185   2.436   1.637   2.786
  724SOL    HW2 2186   2.408   1.509   2.711
  725SOL     OW 2187   2.846   0.757   0.104
  725SOL    HW1 2188   2.886   0.740   0.190
  725SOL    HW2 2189   2.753   0.771   0.123
  726SOL     OW 2190   2.671   0.565   2.214
  726SOL    HW1 2191   2.670   0.489   2.156
  726SOL    HW2 2192   2.596   0.618   2.186
  727SOL     OW 2193   2.560   0.437   0.083
  727SOL    HW1 2194   2.467   0.434   0.104
  727SOL    HW2 2195   2.570   0.516   0.030
  728SOL     OW 2196   2.330   0.494   2.050
  728SOL    HW1 2197   2.385   0.570   2.070
  728SOL    HW2 2198   2.242   0.531   2.038
  729SOL     OW 2199   1.943   1.268   2.885
  729SOL    HW1 2200   1.930   1.277   2.980
  729SOL    HW2 2201   1.869   1.214   2.856
  730SOL     OW 2202   2.532   1.618   2.016
  730SOL    HW1 2203   2.541   1.629   1.922
  730SOL    HW2 2204   2.479   1.539   2.027
  731SOL     OW 2205   2.133   0.332   2.615
  731SOL    HW1 2206   2.047   0.365   2.591
  731SOL    HW2 2207   2.126   0.311   2.708
  732SOL     OW 2208   2.786   0.921   2.156
  732SOL    HW1 2209   2.835   0.929   2.074
  732SOL    HW2 2210   2.819   0.841   2.196
  733SOL     OW 2211   2.913   1.079   2.584
  733SOL    HW1 2212   2.834   1.039   2.621
  733SOL    HW2 2213   2.930   1.030   2.504
  734SOL     OW 2214   2.881   0.236   2.819
  734SOL    HW1 2215   2.875   0.189   2.736
  734SOL    HW2 2216   2.876   0.168   2.886
  735SOL     OW 2217   2.462   1.488   2.342
  735SOL    HW1 2218   2.504   1.439   2.272
  735SOL    HW2 2219   2.395   1.541   2.298
  736SOL     OW 2220   2.121   1.345   2.152
  736SOL    HW1 2221   2.029   1.345   2.127
  736SOL    HW2 2222   2.123   1.383   2.239
  737SOL     OW 2223   1.940   0.337   1.899
  737SOL    HW1 2224   1.850   0.317   1.872
  737SOL    HW2 2225   1.966   0.411   1.844
  738SOL     OW 2226   1.900   0.207   2.161
  738SOL    HW1 2227   1.920   0.266   2.088
  738SOL    HW2 2228   1.970   0.141   2.159
  739SOL     OW 2229   2.458   0.740   2.527
  739SOL    HW1 2230   2.493   0.828   2.512
  739SOL    HW2 2231   2.385   0.732   2.465
  740SOL     OW 2232   2.733   1.370   1.898
  740SOL    HW1 2233   2.681   1.401   1.972
  740SOL    HW2 2234   2.747   1.447   1.844
  741SOL     OW 2235   2.526   1.798   2.823
  741SOL    HW1 2236   2.504   1.885   2.790
  741SOL    HW2 2237   2.619   1.787   2.804
  742SOL     OW 2238   2.712   0.961   2.720
  742SOL    HW1 2239   2.766   0.892   2.759
  742SOL    HW2 2240   2.687   1.017   2.793
  743SOL     OW 2241   2.937   0.950   1.930
  743SOL    HW1 2242   2.907   1.026   1.879
  743SOL    HW2 2243   0.026   0.973   1.957
  744SOL     OW 2244   1.945   1.238   2.527
  744SOL    HW1 2245   1.944   1.183   2.605
  744SOL    HW2 2246   2.012   1.200   2.471
  745SOL     OW 2247   2.333   0.430   2.409
  745SOL    HW1 2248   2.321   0.373   2.333
  745SOL    HW2 2249   2.266   0.401   2.471
  746SOL     OW 2250   2.684   1.581   2.537
  746SOL    HW1 2251   2.683   1.619   2.450
  746SOL    HW2 2252   2.605   1.525   2.540
  747SOL     OW 2253   2.634   1.333   2.174
  747SOL    HW1 2254   2.603   1.243   2.182
  747SOL    HW2 2255   2.714   1.336   2.225
  748SOL     OW 2256   1.905   1.073   2.168
  748SOL    HW1 2257   1.999   1.064   2.149
  748SOL    HW2 2258   1.877   0.985   2.191
  749SOL     OW 2259   2.738   1.646   2.210
  749SOL    HW1 2260   2.669   1.632   2.145
  749SOL    HW2 2261   2.713   1.727   2.254
  750SOL     OW 2262   2.089   2.501   0.112
  750SOL    HW1 2263   1.999   2.476   0.134
  750SOL    HW2 2264   2.105   2.460   0.027
  751SOL     OW 2265   2.086   2.142   0.991
  751SOL    HW1 2266   2.115   2.110   1.076
  751SOL    HW2 2267   1.997   2.109   0.982
  752SOL     OW 2268   1.869   2.246   0.639
  752SOL    HW1 2269   1.784   2.266   0.680
  752SOL    HW2 2270   1.852   2.167   0.587
  753SOL     OW 2271   2.596   0.001   1.022
  753SOL    HW1 2272   2.526   0.049   1.067
  753SOL    HW2 2273   2.644   0.068   0.974
  754SOL     OW 2274   2.722   2.638   1.819
  754SOL    HW1 2275   2.720   2.699   1.893
  754SOL    HW2 2276   2.752   2.691   1.745
  755SOL     OW 2277   2.514   2.848   0.708
  755SOL    HW1 2278   2.608   2.855   0.724
  755SOL    HW2 2279   2.490   2.932   0.669
  756SOL     OW 2280   2.308   2.261   1.491
  756SOL    HW1 2281   2.383   2.201   1.494
  756SOL    HW2 2282   2.232   2.205   1.503
  757SOL     OW 2283   2.110   0.308   0.481
  757SOL    HW1 2284   2.059   0.387   0.502
  757SOL    HW2 2285   2.050   0.235   0.499
  758SOL     OW 2286   2.107   2.948   0.883
  758SOL    HW1 2287   2.125   2.861   0.919
  758SOL    HW2 2288   2.059   2.993   0.952
  759SOL     OW 2289   2.478   2.832   0.147
  759SOL    HW1 2290   2.463   2.925   0.129
  759SOL    HW2 2291   2.545   2.831   0.216
  760SOL     OW 2292   1.977   2.510   0.561
  760SOL    HW1 2293   1.949   2.421   0.583
  760SOL    HW2 2294   1.969   2.558   0.643
  761SOL     OW 2295   1.985   2.604   1.584
  761SOL    HW1 2296   2.077   2.621   1.601
  761SOL    HW2 2297   1.942   2.687   1.605
  762SOL     OW 2298   2.525   0.246   0.677
  762SOL    HW1 2299   2.467   0.182   0.719
  762SOL    HW2 2300   2.467   0.303   0.627
  763SOL     OW 2301   2.674   1.863   0.505
  763SOL    HW1 2302   2.712   1.951   0.493
  763SOL    HW2 2303   2.580   1.879   0.516
  764SOL     OW 2304   2.056   2.841   1.256
  764SOL    HW1 2305   2.138   2.792   1.249
  764SOL    HW2 2306   1.988   2.778   1.232
  765SOL     OW 2307   2.194   2.114   1.810
  765SOL    HW1 2308   2.238   2.198   1.825
  765SOL    HW2 2309   2.104   2.128   1.840
  766SOL     OW 2310   2.454   2.580   0.269
  766SOL    HW1 2311   2.462   2.661   0.217
  766SOL    HW2 2312   2.389   2.602   0.336
  767SOL     OW 2313   2.653   2.488   1.452
  767SOL    HW1 2314   2.630   2.462   1.541
  767SOL    HW2 2315   2.616   2.420   1.396
  768SOL     OW 2316   2.828   2.747   1.580
  768SOL    HW1 2317   2.856   2.662   1.546
  768SOL    HW2 2318   2.775   2.785   1.510
  769SOL     OW 2319   2.848   2.239   1.257
  769SOL    HW1 2320   2.770   2.286   1.287
  769SOL    HW2 2321   2.835   2.230   1.162
  770SOL     OW 2322   2.888   2.580   0.411
  770SOL    HW1 2323   2.928   2.563   0.496
  770SOL    HW2 2324   2.815   2.519   0.405
  771SOL     OW 2325   1.946   2.682   0.777
  771SOL    HW1 2326   2.030   2.671   0.821
  771SOL    HW2 2327   1.911   2.764   0.810
  772SOL     OW 2328   2.789   2.193   0.217
  772SOL    HW1 2329   2.782   2.261   0.150
  772SOL    HW2 2330   2.758   2.114   0.174
  773SOL     OW 2331   2.411   2.046   0.892
  773SOL    HW1 2332   2.413   2.072   0.984
  773SOL    HW2 2333   2.413   2.129   0.844
  774SOL     OW 2334   2.062   2.145   1.502
  774SOL    HW1 2335   1.978   2.191   1.497
  774SOL    HW2 2336   2.045   2.072   1.562
  775SOL     OW 2337   2.250   2.556   0.475
  775SOL    HW1 2338   2.274   2.464   0.485
  775SOL    HW2 2339   2.156   2.558   0.495
  776SOL     OW 2340   2.486   1.981   0.115
  776SOL    HW1 2341   2.580   1.965   0.117
  776SOL    HW2 2342   2.456   1.936   0.035
  777SOL     OW 2343   2.631   2.143   1.756
  777SOL    HW1 2344   2.702   2.079   1.766
  777SOL    HW2 2345   2.570   2.123   1.828
  778SOL     OW 2346   2.787   2.366   0.903
  778SOL    HW1 2347   2.760   2.355   0.812
  778SOL    HW2 2348   2.825   2.281   0.927
  779SOL     OW 2349   2.409   1.924   0.505
  779SOL    HW1 2350   2.329   1.926   0.557
  779SOL    HW2 2351   2.403   2.001   0.449
  780SOL     OW 2352   2.810   2.101   0.466
  780SOL    HW1 2353   2.776   2.149   0.390
  780SOL    HW2 2354   2.898   2.072   0.439
  781SOL     OW 2355   2.886   2.379   0.032
  781SOL    HW1 2356   2.844   2.462   0.012
  781SOL    HW2 2357   2.943   2.398   0.107
  782SOL     OW 2358   1.938   2.418   1.390
  782SOL    HW1 2359   2.030   2.414   1.363
  782SOL    HW2 2360   1.935   2.488   1.455
  783SOL     OW 2361   2.423   2.089   1.164
  783SOL    HW1 2362   2.461   2.009   1.200
  783SOL    HW2 2363   2.332   2.087   1.194
  784SOL     OW 2364   2.742   2.320   0.635
  784SOL    HW1 2365   2.685   2.379   0.586
  784SOL    HW2 2366   2.744   2.239   0.583
  785SOL     OW 2367   2.858   1.923   0.757
  785SOL    HW1 2368   2.811   1.903   0.675
  785SOL    HW2 2369   2.850   1.843   0.809
  786SOL     OW 2370   2.379   2.122   0.323
  786SOL    HW1 2371   2.421   2.073   0.252
  786SOL    HW2 2372   2.364   2.209   0.287
  787SOL     OW 2373   2.754   1.950   1.390
  787SOL    HW1 2374   2.780   1.934   1.299
  787SOL    HW2 2375   2.830   1.992   1.429
  788SOL     OW 2376   2.275   2.678   1.254
  788SOL    HW1 2377   2.346   2.685   1.317
  788SOL    HW2 2378   2.241   2.589   1.265
  789SOL     OW 2379   2.418   2.398   0.861
  789SOL    HW1 2380   2.434   2.455   0.786
  789SOL    HW2 2381   2.482   2.428   0.926
  790SOL     OW 2382   2.275   2.603   1.603
  790SOL    HW1 2383   2.336   2.648   1.545
  790SOL    HW2 2384   2.314   2.517   1.619
  791SOL     OW 2385   2.857   1.989   1.772
  791SOL    HW1 2386   2.899   2.042   1.705
  791SOL    HW2 2387   2.899   1.903   1.764
  792SOL     OW 2388   2.361   1.907   1.745
  792SOL    HW1 2389   2.319   1.851   1.681
  792SOL    HW2 2390   2.299   1.979   1.758
  793SOL     OW 2391   2.450   2.730   1.035
  793SOL    HW1 2392   2.467   2.822   1.017
  793SOL    HW2 2393   2.388   2.731   1.108
  794SOL     OW 2394   0.062   2.399   0.271
  794SOL    HW1 2395   0.078   2.318   0.320
  794SOL    HW2 2396   0.034   2.462   0.337
  795SOL     OW 2397   2.163   2.065   1.245
  795SOL    HW1 2398   2.126   2.095   1.329
  795SOL    HW2 2399   2.147   1.970   1.245
  796SOL     OW 2400   2.589   2.492   1.060
  796SOL    HW1 2401   2.666   2.480   1.005
  796SOL    HW2 2402   2.560   2.582   1.041
  797SOL     OW 2403   2.162   1.928   0.622
  797SOL    HW1 2404   2.146   2.019   0.648
  797SOL    HW2 2405   2.170   1.880   0.705
  798SOL     OW 2406   2.858   2.624   0.982
  798SOL    HW1 2407   2.910   2.620   1.062
  798SOL    HW2 2408   2.864   2.536   0.945
  799SOL     OW 2409   2.224   2.787   1.801
  799SOL    HW1 2410   2.290   2.779   1.870
  799SOL    HW2 2411   2.244   2.716   1.740
  800SOL     OW 2412   2.174   2.674   0.948
  800SOL    HW1 2413   2.267   2.691   0.936
  800SOL    HW2 2414   2.170   2.585   0.983
  801SOL     OW 2415   2.195   2.386   1.010
  801SOL    HW1 2416   2.159   2.299   0.995
  801SOL    HW2 2417   2.272   2.391   0.953
  802SOL     OW 2418   2.968   2.242   1.667
  802SOL    HW1 2419   2.911   2.301   1.716
  802SOL    HW2 2420   0.055   2.282   1.674
  803SOL     OW 2421   2.977   2.065   1.470
  803SOL    HW1 2422   2.964   2.135   1.533
  803SOL    HW2 2423   2.979   2.109   1.385
  804SOL     OW 2424   2.859   2.667   1.265
  804SOL    HW1 2425   2.909   2.598   1.307
  804SOL    HW2 2426   2.777   2.625   1.238
  805SOL     OW 2427   1.897   2.408   1.116
  805SOL    HW1 2428   1.978   2.387   1.068
  805SOL    HW2 2429   1.924   2.411   1.208
  806SOL     OW 2430   2.051   2.380   1.724
  806SOL    HW1 2431   2.107   2.341   1.656
  806SOL    HW2 2432   2.005   2.451   1.679
  807SOL     OW 2433   2.670   2.427   0.356
  807SOL    HW1 2434   2.672   2.357   0.290
  807SOL    HW2 2435   2.596   2.482   0.330
  808SOL     OW 2436   2.557   2.317   1.264
  808SOL    HW1 2437   2.508   2.241   1.233
  808SOL    HW2 2438   2.557   2.378   1.190
  809SOL     OW 2439   2.306   2.356   0.207
  809SOL    HW1 2440   2.372   2.423   0.222
  809SOL    HW2 2441   2.226   2.405   0.186
  810SOL     OW 2442   2.020   2.996   1.474
  810SOL    HW1 2443   2.023   2.939   1.551
  810SOL    HW2 2444   2.035   2.938   1.400
  811SOL     OW 2445   2.761   1.934   0.125
  811SOL    HW1 2446   2.819   1.908   0.053
  811SOL    HW2 2447   2.802   1.897   0.203
  812SOL     OW 2448   2.126   2.178   0.719
  812SOL    HW1 2449   2.041   2.215   0.694
  812SOL    HW2 2450   2.121   2.169   0.814
  813SOL     OW 2451   2.673   2.866   1.376
  813SOL    HW1 2452   2.729   2.841   1.302
  813SOL    HW2 2453   2.699   2.956   1.396
  814SOL     OW 2454   2.744   2.785   0.286
  814SOL    HW1 2455   2.824   2.835   0.271
  814SOL    HW2 2456   2.769   2.721   0.353
  815SOL     OW 2457   2.880   2.103   0.967
  815SOL    HW1 2458   2.875   2.054   0.885
  815SOL    HW2 2459   2.869   2.037   1.035
  816SOL     OW 2460   1.974   2.864   1.709
  816SOL    HW1 2461   1.899   2.856   1.767
  816SOL    HW2 2462   2.050   2.846   1.764
  817SOL     OW 2463   2.527   2.062   1.500
  817SOL    HW1 2464   2.608   2.040   1.454
  817SOL    HW2 2465   2.556   2.091   1.587
  818SOL     OW 2466   1.936   2.019   0.341
  818SOL    HW1 2467   1.901   2.064   0.264
  818SOL    HW2 2468   2.027   1.999   0.318
  819SOL     OW 2469   2.475   2.693   1.434
  819SOL    HW1 2470   2.532   2.768   1.418
  819SOL    HW2 2471   2.535   2.618   1.441
  820SOL     OW 2472   2.579   2.425   1.702
  820SOL    HW1 2473   2.613   2.490   1.764
  820SOL    HW2 2474   2.610   2.342   1.736
  821SOL     OW 2475   2.456   2.586   0.662
  821SOL    HW1 2476   2.481   2.678   0.673
  821SOL    HW2 2477   2.385   2.588   0.597
  822SOL     OW 2478   2.751   2.837   0.863
  822SOL    HW1 2479   2.781   2.753   0.898
  822SOL    HW2 2480   2.682   2.865   0.922
  823SOL     OW 2481   2.292   2.295   0.528
  823SOL    HW1 2482   2.320   2.224   0.470
  823SOL    HW2 2483   2.245   2.251   0.599
  824SOL     OW 2484   2.190   2.415   1.290
  824SOL    HW1 2485   2.244   2.360   1.346
  824SOL    HW2 2486   2.211   2.387   1.201
  825SOL     OW 2487   2.867   1.880   1.144
  825SOL    HW1 2488   2.813   1.811   1.105
  825SOL    HW2 2489   2.957   1.857   1.120
  826SOL     OW 2490   1.871   2.917   0.303
  826SOL    HW1 2491   1.956   2.920   0.259
  826SOL    HW2 2492   1.864   2.828   0.336
  827SOL     OW 2493   2.094   2.473   1.982
  827SOL    HW1 2494   2.006   2.489   2.015
  827SOL    HW2 2495   2.082   2.452   1.890
  828SOL     OW 2496   2.090   2.142   2.846
  828SOL    HW1 2497   2.117   2.115   2.933
  828SOL    HW2 2498   2.000   2.110   2.837
  829SOL     OW 2499   1.869   2.245   2.498
  829SOL    HW1 2500   1.786   2.270   2.539
  829SOL    HW2 2501   1.850   2.164   2.451
  830SOL     OW 2502   2.639   0.017   2.879
  830SOL    HW1 2503   2.549   0.024   2.910
  830SOL    HW2 2504   2.651   0.092   2.821
  831SOL     OW 2505   2.512   2.844   2.564
  831SOL    HW1 2506   2.604   2.848   2.592
  831SOL    HW2 2507   2.493   2.933   2.533
  832SOL     OW 2508   2.100   0.303   2.336
  832SOL    HW1 2509   2.055   0.383   2.360
  832SOL    HW2 2510   2.047   0.233   2.373
  833SOL     OW 2511   2.112   2.952   2.750
  833SOL    HW1 2512   2.126   2.862   2.781
  833SOL    HW2 2513   2.055   2.991   2.816
  834SOL     OW 2514   2.464   2.824   1.996
  834SOL    HW1 2515   2.460   2.907   1.947
  834SOL    HW2 2516   2.531   2.839   2.063
  835SOL     OW 2517   1.978   2.509   2.424
  835SOL    HW1 2518   1.949   2.421   2.445
  835SOL    HW2 2519   1.969   2.558   2.506
  836SOL     OW 2520   2.502   0.247   2.565
  836SOL    HW1 2521   2.460   0.162   2.546
  836SOL    HW2 2522   2.466   0.306   2.499
  837SOL     OW 2523   2.674   1.863   2.366
  837SOL    HW1 2524   2.713   1.949   2.353
  837SOL    HW2 2525   2.581   1.880   2.378
  838SOL     OW 2526   2.061   2.806   0.116
  838SOL    HW1 2527   2.129   2.740   0.107
  838SOL    HW2 2528   1.980   2.762   0.092
  839SOL     OW 2529   2.458   2.580   2.128
  839SOL    HW1 2530   2.464   2.658   2.073
  839SOL    HW2 2531   2.392   2.602   2.194
  840SOL     OW 2532   2.895   2.578   2.274
  840SOL    HW1 2533   2.924   2.567   2.365
  840SOL    HW2 2534   2.817   2.524   2.267
  841SOL     OW 2535   1.946   2.683   2.638
  841SOL    HW1 2536   2.029   2.670   2.685
  841SOL    HW2 2537   1.910   2.763   2.675
  842SOL     OW 2538   2.749   2.205   2.060
  842SOL    HW1 2539   2.788   2.267   1.999
  842SOL    HW2 2540   2.753   2.121   2.014
  843SOL     OW 2541   2.412   2.048   2.765
  843SOL    HW1 2542   2.381   2.084   2.848
  843SOL    HW2 2543   2.420   2.125   2.708
  844SOL     OW 2544   2.250   2.556   2.336
  844SOL    HW1 2545   2.274   2.464   2.347
  844SOL    HW2 2546   2.157   2.558   2.358
  845SOL     OW 2547   2.496   1.988   1.965
  845SOL    HW1 2548   2.562   1.921   1.981
  845SOL    HW2 2549   2.445   1.956   1.891
  846SOL     OW 2550   2.785   2.377   2.756
  846SOL    HW1 2551   2.761   2.354   2.666
  846SOL    HW2 2552   2.814   2.294   2.795
  847SOL     OW 2553   2.410   1.926   2.367
  847SOL    HW1 2554   2.329   1.926   2.418
  847SOL    HW2 2555   2.404   2.004   2.312
  848SOL     OW 2556   2.153   1.909   2.047
  848SOL    HW1 2557   2.211   1.974   2.006
  848SOL    HW2 2558   2.212   1.845   2.086
  849SOL     OW 2559   2.805   2.103   2.317
  849SOL    HW1 2560   2.767   2.149   2.242
  849SOL    HW2 2561   2.892   2.077   2.288
  850SOL     OW 2562   2.887   2.414   1.878
  850SOL    HW1 2563   2.840   2.494   1.856
  850SOL    HW2 2564   2.935   2.435   1.958
  851SOL     OW 2565   2.742   2.318   2.494
  851SOL    HW1 2566   2.683   2.378   2.448
  851SOL    HW2 2567   2.742   2.238   2.441
  852SOL     OW 2568   2.855   1.924   2.611
  852SOL    HW1 2569   2.807   1.897   2.533
  852SOL    HW2 2570   2.853   1.848   2.669
  853SOL     OW 2571   2.390   2.124   2.182
  853SOL    HW1 2572   2.430   2.076   2.110
  853SOL    HW2 2573   2.369   2.210   2.146
  854SOL     OW 2574   2.417   2.394   2.724
  854SOL    HW1 2575   2.431   2.451   2.648
  854SOL    HW2 2576   2.477   2.427   2.791
  855SOL     OW 2577   2.433   2.729   2.885
  855SOL    HW1 2578   2.479   2.806   2.853
  855SOL    HW2 2579   2.424   2.744   2.979
  856SOL     OW 2580   0.055   2.391   2.138
  856SOL    HW1 2581   0.087   2.318   2.190
  856SOL    HW2 2582   0.017   2.452   2.201
  857SOL     OW 2583   2.158   2.070   0.093
  857SOL    HW1 2584   2.191   2.101   0.177
  857SOL    HW2 2585   2.153   1.975   0.103
  858SOL     OW 2586   2.591   2.499   2.913
  858SOL    HW1 2587   2.662   2.481   2.853
  858SOL    HW2 2588   2.560   2.586   2.888
  859SOL     OW 2589   2.163   1.928   2.483
  859SOL    HW1 2590   2.145   2.019   2.509
  859SOL    HW2 2591   2.168   1.880   2.566
  860SOL     OW 2592   2.872   2.633   2.825
  860SOL    HW1 2593   2.894   2.633   2.918
  860SOL    HW2 2594   2.868   2.540   2.802
  861SOL     OW 2595   2.170   2.673   2.809
  861SOL    HW1 2596   2.264   2.694   2.812
  861SOL    HW2 2597   2.166   2.582   2.838
  862SOL     OW 2598   2.184   2.396   2.866
  862SOL    HW1 2599   2.149   2.308   2.858
  862SOL    HW2 2600   2.264   2.394   2.814
  863SOL     OW 2601   2.876   2.641   0.096
  863SOL    HW1 2602   2.917   2.634   0.182
  863SOL    HW2 2603   2.787   2.671   0.113
  864SOL     OW 2604   2.674   2.429   2.218
  864SOL    HW1 2605   2.673   2.353   2.159
  864SOL    HW2 2606   2.600   2.482   2.189
  865SOL     OW 2607   2.567   2.308   0.101
  865SOL    HW1 2608   2.478   2.273   0.092
  865SOL    HW2 2609   2.571   2.380   0.038
  866SOL     OW 2610   2.331   2.353   2.050
  866SOL    HW1 2611   2.385   2.428   2.073
  866SOL    HW2 2612   2.243   2.390   2.037
  867SOL     OW 2613   0.164   2.702   2.162
  867SOL    HW1 2614   0.107   2.646   2.214
  867SOL    HW2 2615   0.197   2.645   2.092
  868SOL     OW 2616   2.127   2.179   2.578
  868SOL    HW1 2617   2.042   2.216   2.553
  868SOL    HW2 2618   2.123   2.171   2.673
  869SOL     OW 2619   2.758   2.764   2.113
  869SOL    HW1 2620   2.835   2.815   2.088
  869SOL    HW2 2621   2.789   2.705   2.182
  870SOL     OW 2622   2.876   2.101   2.818
  870SOL    HW1 2623   2.871   2.056   2.734
  870SOL    HW2 2624   2.896   2.032   2.881
  871SOL     OW 2625   1.939   2.197   1.898
  871SOL    HW1 2626   1.853   2.176   1.862
  871SOL    HW2 2627   1.968   2.273   1.847
  872SOL     OW 2628   1.932   2.021   2.175
  872SOL    HW1 2629   1.918   2.100   2.123
  872SOL    HW2 2630   2.016   1.987   2.145
  873SOL     OW 2631   2.457   2.583   2.523
  873SOL    HW1 2632   2.482   2.675   2.533
  873SOL    HW2 2633   2.384   2.585   2.460
  874SOL     OW 2634   2.741   2.832   2.713
  874SOL    HW1 2635   2.784   2.755   2.750
  874SOL    HW2 2636   2.707   2.879   2.789
  875SOL     OW 2637   2.950   2.834   1.900
  875SOL    HW1 2638   2.916   2.923   1.910
  875SOL    HW2 2639   0.011   2.823   1.974
  876SOL     OW 2640   2.293   2.295   2.387
  876SOL    HW1 2641   2.319   2.222   2.330
  876SOL    HW2 2642   2.245   2.253   2.458
  877SOL     OW 2643   1.886   2.920   2.175
  877SOL    HW1 2644   1.971   2.930   2.132
  877SOL    HW2 2645   1.880   2.827   2.196
   3.00000   3.00000   3.00000
