[ defaults ]
; nbfunc  comb-rule gen-pairs fudgeLJ fudgeQQ
  1   2   yes    0.5 0.5

[ atomtypes ]
;name  at.num      mass        charge   ptype          sigma        epsilon
   CT1      6      14.0270       0.00      A           0.400         1.0000
   CT2      6      14.0270       0.00      A           0.400         1.0000
   OW       8      15.9994      -0.8476    A           0.316557    0.650194
   HW       1       1.0080       0.4238    A           0.000000    0.000000

[nonbond_params]
; atom   atom       func       sigma           epsilon
    CT1   OW          1       0.3582785           1.5
    CT2   OW          1       0.3582785           1.5
 
[ moleculetype ]
; molname	nrexcl
SOL		2

[ atoms ]
;   nr   type  resnr residue  atom   cgnr     charge       mass
     1	   OW	   1	SOL     OW      1    -0.8476
     2	   HW	   1	SOL    HW1      1     0.4238
     3	   HW	   1	SOL    HW2	1     0.4238
[ settles ]
; OW	funct	doh	dhh
1	1	0.1	0.16330

[ exclusions ]
1	2	3
2	1	3
3	1	2

[ moleculetype ]
; Name nrexcl
PNI      2

[ atoms ]
;   nr      type  resnr resid  atom  cgnr   charge     mass
    1       CT1       1   PNI    CH1    1   0.000     14.0270
    2       CT2       1   PNI    CH2    2   0.000     14.0270
    3       CT1       1   PNI    CH1    3   0.000     14.0270
    4       CT2       1   PNI    CH2    4   0.000     14.0270
    5       CT1       1   PNI    CH1    5   0.000     14.0270
    6       CT2       1   PNI    CH2    6   0.000     14.0270
    7       CT1       1   PNI    CH1    7   0.000     14.0270
    8       CT2       1   PNI    CH2    8   0.000     14.0270
    9       CT1       1   PNI    CH1    9   0.000     14.0270
    10      CT2       1   PNI    CH2   10   0.000     14.0270
    11      CT1       1   PNI    CH1   11   0.000     14.0270
    12      CT2       1   PNI    CH2   12   0.000     14.0270
    13      CT1       1   PNI    CH1   13   0.000     14.0270
    14      CT2       1   PNI    CH2   14   0.000     14.0270
    15      CT1       1   PNI    CH1   15   0.000     14.0270
    16      CT2       1   PNI    CH2   16   0.000     14.0270
    17      CT1       1   PNI    CH1   17   0.000     14.0270
    18      CT2       1   PNI    CH2   18   0.000     14.0270
    19      CT1       1   PNI    CH1   19   0.000     14.0270
    20      CT2       1   PNI    CH2   20   0.000     14.0270
    21      CT1       1   PNI    CH1   21   0.000     14.0270
    22      CT2       1   PNI    CH2   22   0.000     14.0270
    23      CT1       1   PNI    CH1   23   0.000     14.0270
    24      CT2       1   PNI    CH2   24   0.000     14.0270
    25      CT1       1   PNI    CH1   25   0.000     14.0270
    26      CT2       1   PNI    CH2   26   0.000     14.0270
    27      CT1       1   PNI    CH1   27   0.000     14.0270
    28      CT2       1   PNI    CH2   28   0.000     14.0270
    29      CT1       1   PNI    CH1   29   0.000     14.0270
    30      CT2       1   PNI    CH2   30   0.000     14.0270
    31      CT1       1   PNI    CH1   31   0.000     14.0270
    32      CT2       1   PNI    CH2   32   0.000     14.0270

[ bonds ]                       
; ai  aj  fu    c0, c1, ...     
    1     2    1   0.1530   330000.0   0.1530   330000.0
    2     3    1   0.1530   330000.0   0.1530   330000.0
    3     4    1   0.1530   330000.0   0.1530   330000.0
    4     5    1   0.1530   330000.0   0.1530   330000.0
    5     6    1   0.1530   330000.0   0.1530   330000.0
    6     7    1   0.1530   330000.0   0.1530   330000.0
    7     8    1   0.1530   330000.0   0.1530   330000.0
    8     9    1   0.1530   330000.0   0.1530   330000.0
    9     10   1   0.1530   330000.0   0.1530   330000.0
    10    11   1   0.1530   330000.0   0.1530   330000.0
    11    12   1   0.1530   330000.0   0.1530   330000.0
    12    13   1   0.1530   330000.0   0.1530   330000.0
    13    14   1   0.1530   330000.0   0.1530   330000.0
    14    15   1   0.1530   330000.0   0.1530   330000.0
    15    16   1   0.1530   330000.0   0.1530   330000.0
    16    17   1   0.1530   330000.0   0.1530   330000.0
    17    18   1   0.1530   330000.0   0.1530   330000.0
    18    19   1   0.1530   330000.0   0.1530   330000.0
    19    20   1   0.1530   330000.0   0.1530   330000.0
    20    21   1   0.1530   330000.0   0.1530   330000.0
    21    22   1   0.1530   330000.0   0.1530   330000.0
    22    23   1   0.1530   330000.0   0.1530   330000.0
    23    24   1   0.1530   330000.0   0.1530   330000.0
    24    25   1   0.1530   330000.0   0.1530   330000.0
    25    26   1   0.1530   330000.0   0.1530   330000.0
    26    27   1   0.1530   330000.0   0.1530   330000.0
    27    28   1   0.1530   330000.0   0.1530   330000.0
    28    29   1   0.1530   330000.0   0.1530   330000.0
    29    30   1   0.1530   330000.0   0.1530   330000.0
    30    31   1   0.1530   330000.0   0.1530   330000.0
    31    32   1   0.1530   330000.0   0.1530   330000.0
    
[ angles ]
; ai  aj ak  fu    c0, c1, ...
     1      2      3     2      111.000  100.000  111.000  100.000
     2      3      4     2      111.000  100.000  111.000  100.000
     3      4      5     2      111.000  100.000  111.000  100.000
     4      5      6     2      111.000  100.000  111.000  100.000
     5      6      7     2      111.000  100.000  111.000  100.000
     6      7      8     2      111.000  100.000  111.000  100.000
     7      8      9     2      111.000  100.000  111.000  100.000
     8      9      10    2      111.000  100.000  111.000  100.000
     9      10     11    2      111.000  100.000  111.000  100.000
     10     11     12    2      111.000  100.000  111.000  100.000
     11     12     13    2      111.000  100.000  111.000  100.000    
     12     13     14    2      111.000  100.000  111.000  100.000
     13     14     15    2      111.000  100.000  111.000  100.000
     14     15     16    2      111.000  100.000  111.000  100.000
     15     16     17    2      111.000  100.000  111.000  100.000
     16     17     18    2      111.000  100.000  111.000  100.000
     17     18     19    2      111.000  100.000  111.000  100.000
     18     19     20    2      111.000  100.000  111.000  100.000
     19     20     21    2      111.000  100.000  111.000  100.000
     20     21     22    2      111.000  100.000  111.000  100.000
     21     22     23    2      111.000  100.000  111.000  100.000  
     22     23     24    2      111.000  100.000  111.000  100.000
     23     24     25    2      111.000  100.000  111.000  100.000
     24     25     26    2      111.000  100.000  111.000  100.000
     25     26     27    2      111.000  100.000  111.000  100.000
     26     27     28    2      111.000  100.000  111.000  100.000
     27     28     29    2      111.000  100.000  111.000  100.000
     28     29     30    2      111.000  100.000  111.000  100.000
     29     30     31    2      111.000  100.000  111.000  100.000
     30     31     32    2      111.000  100.000  111.000  100.000

[ system ]
PNi mol in water

[ molecules ]
PNI   		1
SOL             4240
