128 POPC in water
17312
    1POPC    C1    1   5.191   4.200   1.984
    1POPC    C2    2   4.979   4.270   1.903
    1POPC    C3    3   5.151   4.431   1.943
    1POPC    N4    4   5.124   4.295   1.895
    1POPC    C5    5   5.167   4.281   1.753
    1POPC    C6    6   5.318   4.278   1.721
    1POPC   OS7    7   5.394   4.394   1.756
    1POPC    P8    8   5.548   4.371   1.744
    1POPC   OM9    9   5.572   4.263   1.647
    1POPC  OM10   10   5.618   4.499   1.727
    1POPC  OS11   11   5.573   4.317   1.890
    1POPC   C12   12   5.567   4.422   1.987
    1POPC   C13   13   5.546   4.372   2.131
    1POPC  OS14   14   5.533   4.482   2.224
    1POPC   C15   15   5.405   4.512   2.261
    1POPC   O16   16   5.307   4.452   2.216
    1POPC   C17   17   5.399   4.629   2.358
    1POPC   C18   18   5.253   4.669   2.380
    1POPC   C19   19   5.241   4.791   2.472
    1POPC   C20   20   5.289   4.759   2.613
    1POPC   C21   21   5.258   4.876   2.707
    1POPC   C22   22   5.312   4.850   2.848
    1POPC   C23   23   5.270   4.964   2.941
    1POPC   C24   24   5.326   4.948   3.080
    1POPC   C25   25   5.383   5.042   3.156
    1POPC   C26   26   5.402   5.187   3.122
    1POPC   C27   27   5.402   5.278   3.245
    1POPC   C28   28   5.268   5.275   3.319
    1POPC   C29   29   5.266   5.378   3.431
    1POPC   C30   30   5.272   5.519   3.372
    1POPC   C31   31   5.270   5.626   3.482
    1POPC   C32   32   5.275   5.766   3.420
    1POPC   C33   33   5.148   5.793   3.338
    1POPC   C34   34   5.663   4.276   2.162
    1POPC  OS35   35   5.639   4.180   2.267
    1POPC   C36   36   5.744   4.100   2.299
    1POPC   O37   37   5.847   4.091   2.232
    1POPC   C38   38   5.705   4.003   2.409
    1POPC   C39   39   5.799   4.008   2.529
    1POPC   C40   40   5.764   4.123   2.624
    1POPC   C41   41   5.856   4.122   2.747
    1POPC   C42   42   5.807   4.222   2.851
    1POPC   C43   43   5.895   4.223   2.976
    1POPC   C44   44   6.030   4.292   2.950
    1POPC   C45   45   6.111   4.303   3.079
    1POPC   C46   46   6.239   4.384   3.056
    1POPC   C47   47   6.316   4.405   3.187
    1POPC   C48   48   0.040   4.273   3.237
    1POPC   C49   49   0.120   4.293   3.366
    1POPC   C50   50   0.171   4.159   3.419
    1POPC   C51   51   0.250   4.177   3.549
    1POPC   C52   52   0.384   4.246   3.524
    2POPC    C1   53   4.908   4.996   1.529
    2POPC    C2   54   4.727   4.985   1.680
    2POPC    C3   55   4.803   5.197   1.599
    2POPC    N4   56   4.779   5.057   1.563
    2POPC    C5   57   4.691   5.048   1.444
    2POPC    C6   58   4.544   5.097   1.452
    2POPC   OS7   59   4.455   5.005   1.515
    2POPC    P8   60   4.335   5.078   1.588
    2POPC   OM9   61   4.292   5.189   1.502
    2POPC  OM10   62   4.241   4.972   1.628
    2POPC  OS11   63   4.422   5.130   1.708
    2POPC   C12   64   4.358   5.116   1.834
    2POPC   C13   65   4.452   5.142   1.953
    2POPC  OS14   66   4.384   5.127   2.080
    2POPC   C15   67   4.417   5.022   2.160
    2POPC   O16   68   4.485   4.925   2.123
    2POPC   C17   69   4.345   5.037   2.294
    2POPC   C18   70   4.336   4.906   2.372
    2POPC   C19   71   4.249   4.925   2.496
    2POPC   C20   72   4.106   4.961   2.456
    2POPC   C21   73   4.012   4.965   2.576
    2POPC   C22   74   4.039   5.085   2.668
    2POPC   C23   75   3.943   5.080   2.787
    2POPC   C24   76   3.966   4.957   2.870
    2POPC   C25   77   3.954   4.941   3.003
    2POPC   C26   78   3.912   5.040   3.107
    2POPC   C27   79   4.029   5.123   3.160
    2POPC   C28   80   3.984   5.213   3.275
    2POPC   C29   81   3.975   5.136   3.407
    2POPC   C30   82   3.929   5.229   3.520
    2POPC   C31   83   3.941   5.161   3.656
    2POPC   C32   84   4.088   5.142   3.695
    2POPC   C33   85   4.100   5.081   3.835
    2POPC   C34   86   4.514   5.282   1.933
    2POPC  OS35   87   4.615   5.320   2.030
    2POPC   C36   88   4.741   5.271   2.012
    2POPC   O37   89   4.781   5.223   1.906
    2POPC   C38   90   4.827   5.301   2.133
    2POPC   C39   91   4.778   5.220   2.252
    2POPC   C40   92   4.857   5.245   2.381
    2POPC   C41   93   4.797   5.161   2.493
    2POPC   C42   94   4.865   5.182   2.629
    2POPC   C43   95   4.794   5.097   2.734
    2POPC   C44   96   4.651   5.147   2.754
    2POPC   C45   97   4.569   5.051   2.841
    2POPC   C46   98   4.425   5.102   2.857
    2POPC   C47   99   4.416   5.214   2.961
    2POPC   C48  100   4.437   5.158   3.102
    2POPC   C49  101   4.427   5.267   3.208
    2POPC   C50  102   4.451   5.210   3.348
    2POPC   C51  103   4.451   5.320   3.453
    2POPC   C52  104   4.477   5.264   3.593
    3POPC    C1  105   1.140   5.333   1.562
    3POPC    C2  106   0.974   5.304   1.393
    3POPC    C3  107   0.990   5.511   1.512
    3POPC    N4  108   1.067   5.400   1.453
    3POPC    C5  109   1.166   5.450   1.354
    3POPC    C6  110   1.118   5.513   1.221
    3POPC   OS7  111   1.039   5.629   1.237
    3POPC    P8  112   1.005   5.701   1.103
    3POPC   OM9  113   1.098   5.814   1.099
    3POPC  OM10  114   0.995   5.601   0.995
    3POPC  OS11  115   0.859   5.741   1.144
    3POPC   C12  116   0.855   5.860   1.222
    3POPC   C13  117   0.715   5.881   1.282
    3POPC  OS14  118   0.681   6.020   1.311
    3POPC   C15  119   0.549   6.050   1.295
    3POPC   O16  120   0.469   5.965   1.255
    3POPC   C17  121   0.517   6.193   1.335
    3POPC   C18  122   0.388   6.197   1.418
    3POPC   C19  123   0.409   6.127   1.553
    3POPC   C20  124   0.281   6.129   1.637
    3POPC   C21  125   0.297   6.039   1.760
    3POPC   C22  126   0.172   6.045   1.849
    3POPC   C23  127   0.167   6.176   1.928
    3POPC   C24  128   0.278   6.185   2.028
    3POPC   C25  129   0.268   6.183   2.162
    3POPC   C26  130   0.143   6.173   2.245
    3POPC   C27  131   0.144   6.274   2.360
    3POPC   C28  132   0.018   6.260   2.445
    3POPC   C29  133   0.024   6.351   2.568
    3POPC   C30  134   6.236   6.329   2.657
    3POPC   C31  135   6.246   0.003   2.787
    3POPC   C32  136   6.124   6.380   2.875
    3POPC   C33  137   6.132   0.053   3.007
    3POPC   C34  138   0.703   5.781   1.399
    3POPC  OS35  139   0.778   5.819   1.517
    3POPC   C36  140   0.703   5.844   1.628
    3POPC   O37  141   0.588   5.803   1.646
    3POPC   C38  142   0.788   5.912   1.733
    3POPC   C39  143   0.915   5.833   1.765
    3POPC   C40  144   0.885   5.719   1.862
    3POPC   C41  145   1.013   5.642   1.892
    3POPC   C42  146   0.994   5.542   2.006
    3POPC   C43  147   1.124   5.466   2.030
    3POPC   C44  148   1.118   5.389   2.162
    3POPC   C45  149   1.106   5.488   2.278
    3POPC   C46  150   1.116   5.418   2.413
    3POPC   C47  151   1.095   5.518   2.527
    3POPC   C48  152   1.112   5.450   2.662
    3POPC   C49  153   1.072   5.543   2.777
    3POPC   C50  154   1.083   5.471   2.911
    3POPC   C51  155   1.036   5.561   3.025
    3POPC   C52  156   1.045   5.489   3.159
    4POPC    C1  157   0.366   5.073   0.990
    4POPC    C2  158   0.314   5.106   0.762
    4POPC    C3  159   0.540   5.115   0.831
    4POPC    N4  160   0.412   5.047   0.853
    4POPC    C5  161   0.422   4.901   0.824
    4POPC    C6  162   0.537   4.817   0.884
    4POPC   OS7  163   0.536   4.804   1.027
    4POPC    P8  164   0.684   4.804   1.083
    4POPC   OM9  165   0.741   4.677   1.035
    4POPC  OM10  166   0.738   4.934   1.042
    4POPC  OS11  167   0.649   4.807   1.236
    4POPC   C12  168   0.583   4.929   1.270
    4POPC   C13  169   0.546   4.948   1.417
    4POPC  OS14  170   0.449   5.056   1.436
    4POPC   C15  171   0.331   5.021   1.494
    4POPC   O16  172   0.279   4.910   1.474
    4POPC   C17  173   0.256   5.145   1.536
    4POPC   C18  174   0.180   5.122   1.666
    4POPC   C19  175   0.277   5.108   1.783
    4POPC   C20  176   0.204   5.101   1.917
    4POPC   C21  177   0.304   5.093   2.032
    4POPC   C22  178   0.233   5.104   2.166
    4POPC   C23  179   0.332   5.102   2.282
    4POPC   C24  180   0.263   5.123   2.413
    4POPC   C25  181   0.278   5.226   2.499
    4POPC   C26  182   0.369   5.344   2.486
    4POPC   C27  183   0.470   5.346   2.601
    4POPC   C28  184   0.397   5.360   2.734
    4POPC   C29  185   0.492   5.339   2.852
    4POPC   C30  186   0.541   5.195   2.857
    4POPC   C31  187   0.621   5.168   2.985
    4POPC   C32  188   0.529   5.162   3.107
    4POPC   C33  189   0.441   5.037   3.101
    4POPC   C34  190   0.681   4.964   1.492
    4POPC  OS35  191   0.675   5.009   1.628
    4POPC   C36  192   0.689   5.144   1.645
    4POPC   O37  193   0.710   5.224   1.554
    4POPC   C38  194   0.680   5.184   1.791
    4POPC   C39  195   0.612   5.320   1.804
    4POPC   C40  196   0.620   5.374   1.947
    4POPC   C41  197   0.546   5.507   1.959
    4POPC   C42  198   0.584   5.576   2.091
    4POPC   C43  199   0.514   5.711   2.107
    4POPC   C44  200   0.582   5.790   2.219
    4POPC   C45  201   0.571   5.716   2.353
    4POPC   C46  202   0.654   5.785   2.461
    4POPC   C47  203   0.646   5.710   2.593
    4POPC   C48  204   0.733   5.775   2.700
    4POPC   C49  205   0.683   5.915   2.736
    4POPC   C50  206   0.768   5.976   2.847
    4POPC   C51  207   0.722   6.118   2.880
    4POPC   C52  208   0.812   6.182   2.987
    5POPC    C1  209   6.093   5.555   0.916
    5POPC    C2  210   6.230   5.566   1.111
    5POPC    C3  211   6.233   5.741   0.949
    5POPC    N4  212   6.147   5.645   1.019
    5POPC    C5  213   6.039   5.721   1.086
    5POPC    C6  214   5.939   5.650   1.181
    5POPC   OS7  215   5.991   5.620   1.310
    5POPC    P8  216   5.898   5.518   1.384
    5POPC   OM9  217   5.759   5.566   1.384
    5POPC  OM10  218   5.929   5.389   1.322
    5POPC  OS11  219   5.961   5.524   1.527
    5POPC   C12  220   5.940   5.404   1.601
    5POPC   C13  221   6.061   5.309   1.601
    5POPC  OS14  222   6.025   5.170   1.629
    5POPC   C15  223   6.115   5.075   1.589
    5POPC   O16  224   6.208   5.099   1.511
    5POPC   C17  225   6.075   4.936   1.635
    5POPC   C18  226   6.019   4.937   1.777
    5POPC   C19  227   6.126   4.962   1.884
    5POPC   C20  228   6.060   4.963   2.022
    5POPC   C21  229   6.160   4.986   2.135
    5POPC   C22  230   6.090   4.976   2.271
    5POPC   C23  231   6.189   4.997   2.386
    5POPC   C24  232   6.299   4.895   2.383
    5POPC   C25  233   0.004   4.812   2.480
    5POPC   C26  234   6.286   4.795   2.619
    5POPC   C27  235   6.250   4.649   2.647
    5POPC   C28  236   0.039   4.560   2.634
    5POPC   C29  237   0.003   4.413   2.651
    5POPC   C30  238   0.128   4.325   2.634
    5POPC   C31  239   0.094   4.177   2.650
    5POPC   C32  240   0.219   4.091   2.632
    5POPC   C33  241   0.272   4.100   2.489
    5POPC   C34  242   6.167   5.375   1.691
    5POPC  OS35  243   6.135   5.379   1.832
    5POPC   C36  244   6.236   5.412   1.916
    5POPC   O37  245   0.009   5.460   1.880
    5POPC   C38  246   6.192   5.391   2.060
    5POPC   C39  247   6.302   5.415   2.163
    5POPC   C40  248   6.317   5.563   2.200
    5POPC   C41  249   0.080   5.580   2.315
    5POPC   C42  250   0.080   5.723   2.369
    5POPC   C43  251   0.172   5.735   2.490
    5POPC   C44  252   0.169   5.875   2.552
    5POPC   C45  253   0.271   5.883   2.666
    5POPC   C46  254   0.227   5.799   2.786
    5POPC   C47  255   0.346   5.777   2.881
    5POPC   C48  256   0.306   5.700   3.007
    5POPC   C49  257   0.430   5.646   3.078
    5POPC   C50  258   0.526   5.757   3.121
    5POPC   C51  259   0.652   5.698   3.184
    5POPC   C52  260   0.752   5.806   3.223
    6POPC    C1  261   1.939   3.787   1.268
    6POPC    C2  262   1.907   3.983   1.397
    6POPC    C3  263   2.123   3.881   1.383
    6POPC    N4  264   2.001   3.914   1.308
    6POPC    C5  265   2.031   3.992   1.185
    6POPC    C6  266   2.097   4.131   1.196
    6POPC   OS7  267   2.015   4.231   1.255
    6POPC    P8  268   2.091   4.368   1.263
    6POPC   OM9  269   2.209   4.347   1.346
    6POPC  OM10  270   2.101   4.408   1.122
    6POPC  OS11  271   1.968   4.435   1.332
    6POPC   C12  272   1.991   4.471   1.468
    6POPC   C13  273   1.859   4.507   1.539
    6POPC  OS14  274   1.874   4.587   1.659
    6POPC   C15  275   1.815   4.709   1.656
    6POPC   O16  276   1.766   4.756   1.552
    6POPC   C17  277   1.833   4.784   1.787
    6POPC   C18  278   1.792   4.698   1.907
    6POPC   C19  279   1.818   4.772   2.038
    6POPC   C20  280   1.724   4.892   2.054
    6POPC   C21  281   1.756   4.972   2.180
    6POPC   C22  282   1.724   4.893   2.307
    6POPC   C23  283   1.749   4.978   2.432
    6POPC   C24  284   1.716   4.906   2.559
    6POPC   C25  285   1.620   4.935   2.648
    6POPC   C26  286   1.521   5.048   2.645
    6POPC   C27  287   1.442   5.058   2.775
    6POPC   C28  288   1.531   5.097   2.894
    6POPC   C29  289   1.451   5.097   3.024
    6POPC   C30  290   1.537   5.143   3.142
    6POPC   C31  291   1.458   5.132   3.273
    6POPC   C32  292   1.540   5.183   3.392
    6POPC   C33  293   1.660   5.092   3.422
    6POPC   C34  294   1.781   4.376   1.557
    6POPC  OS35  295   1.851   4.276   1.634
    6POPC   C36  296   1.776   4.197   1.714
    6POPC   O37  297   1.660   4.166   1.687
    6POPC   C38  298   1.868   4.120   1.807
    6POPC   C39  299   1.798   4.009   1.885
    6POPC   C40  300   1.724   4.058   2.010
    6POPC   C41  301   1.668   3.936   2.085
    6POPC   C42  302   1.603   3.972   2.218
    6POPC   C43  303   1.562   3.843   2.290
    6POPC   C44  304   1.517   3.870   2.434
    6POPC   C45  305   1.494   3.737   2.507
    6POPC   C46  306   1.460   3.758   2.654
    6POPC   C47  307   1.444   3.624   2.726
    6POPC   C48  308   1.324   3.547   2.670
    6POPC   C49  309   1.306   3.413   2.742
    6POPC   C50  310   1.260   3.435   2.886
    6POPC   C51  311   1.237   3.302   2.958
    6POPC   C52  312   1.190   3.325   3.102
    7POPC    C1  313   1.408   4.182   1.303
    7POPC    C2  314   1.220   4.068   1.403
    7POPC    C3  315   1.387   4.167   1.539
    7POPC    N4  316   1.312   4.182   1.414
    7POPC    C5  317   1.241   4.312   1.424
    7POPC    C6  318   1.147   4.360   1.312
    7POPC   OS7  319   1.095   4.489   1.341
    7POPC    P8  320   0.998   4.548   1.234
    7POPC   OM9  321   1.017   4.693   1.242
    7POPC  OM10  322   1.017   4.474   1.108
    7POPC  OS11  323   0.868   4.503   1.308
    7POPC   C12  324   0.832   4.591   1.413
    7POPC   C13  325   0.761   4.519   1.529
    7POPC  OS14  326   0.709   4.611   1.629
    7POPC   C15  327   0.577   4.592   1.662
    7POPC   O16  328   0.498   4.540   1.582
    7POPC   C17  329   0.536   4.678   1.780
    7POPC   C18  330   0.656   4.713   1.867
    7POPC   C19  331   0.617   4.812   1.976
    7POPC   C20  332   0.741   4.869   2.045
    7POPC   C21  333   0.700   4.970   2.152
    7POPC   C22  334   0.822   5.044   2.208
    7POPC   C23  335   0.777   5.138   2.320
    7POPC   C24  336   0.725   5.061   2.438
    7POPC   C25  337   0.772   5.064   2.563
    7POPC   C26  338   0.889   5.146   2.612
    7POPC   C27  339   0.993   5.064   2.687
    7POPC   C28  340   0.936   5.011   2.819
    7POPC   C29  341   1.045   4.944   2.902
    7POPC   C30  342   0.988   4.895   3.036
    7POPC   C31  343   0.888   4.781   3.014
    7POPC   C32  344   0.837   4.728   3.148
    7POPC   C33  345   0.753   4.833   3.220
    7POPC   C34  346   0.867   4.420   1.581
    7POPC  OS35  347   0.818   4.304   1.648
    7POPC   C36  348   0.914   4.213   1.683
    7POPC   O37  349   1.034   4.229   1.664
    7POPC   C38  350   0.850   4.093   1.750
    7POPC   C39  351   0.726   4.134   1.829
    7POPC   C40  352   0.762   4.199   1.963
    7POPC   C41  353   0.637   4.259   2.026
    7POPC   C42  354   0.662   4.302   2.171
    7POPC   C43  355   0.681   4.179   2.259
    7POPC   C44  356   0.679   4.216   2.407
    7POPC   C45  357   0.685   4.090   2.494
    7POPC   C46  358   0.659   4.125   2.640
    7POPC   C47  359   0.652   4.000   2.727
    7POPC   C48  360   0.606   4.037   2.868
    7POPC   C49  361   0.590   3.913   2.956
    7POPC   C50  362   0.533   3.952   3.092
    7POPC   C51  363   0.512   3.830   3.181
    7POPC   C52  364   0.450   3.870   3.314
    8POPC    C1  365   5.344   3.611   1.549
    8POPC    C2  366   5.224   3.572   1.752
    8POPC    C3  367   5.112   3.563   1.544
    8POPC    N4  368   5.238   3.531   1.612
    8POPC    C5  369   5.259   3.385   1.601
    8POPC    C6  370   5.386   3.319   1.661
    8POPC   OS7  371   5.508   3.349   1.591
    8POPC    P8  372   5.634   3.309   1.677
    8POPC   OM9  373   5.607   3.176   1.732
    8POPC  OM10  374   5.748   3.330   1.586
    8POPC  OS11  375   5.623   3.420   1.786
    8POPC   C12  376   5.673   3.379   1.913
    8POPC   C13  377   5.643   3.483   2.022
    8POPC  OS14  378   5.721   3.469   2.144
    8POPC   C15  379   5.838   3.537   2.150
    8POPC   O16  380   5.884   3.601   2.055
    8POPC   C17  381   5.902   3.524   2.288
    8POPC   C18  382   5.865   3.393   2.358
    8POPC   C19  383   5.928   3.388   2.497
    8POPC   C20  384   5.888   3.262   2.573
    8POPC   C21  385   5.738   3.263   2.604
    8POPC   C22  386   5.697   3.149   2.697
    8POPC   C23  387   5.547   3.157   2.725
    8POPC   C24  388   5.509   3.284   2.794
    8POPC   C25  389   5.426   3.301   2.898
    8POPC   C26  390   5.349   3.195   2.972
    8POPC   C27  391   5.201   3.228   2.989
    8POPC   C28  392   5.131   3.246   2.854
    8POPC   C29  393   4.979   3.252   2.870
    8POPC   C30  394   4.924   3.113   2.904
    8POPC   C31  395   4.771   3.114   2.910
    8POPC   C32  396   4.717   2.974   2.940
    8POPC   C33  397   4.749   2.878   2.826
    8POPC   C34  398   5.490   3.485   2.041
    8POPC  OS35  399   5.424   3.363   2.079
    8POPC   C36  400   5.292   3.374   2.109
    8POPC   O37  401   5.217   3.459   2.060
    8POPC   C38  402   5.242   3.246   2.177
    8POPC   C39  403   5.347   3.191   2.273
    8POPC   C40  404   5.296   3.068   2.349
    8POPC   C41  405   5.203   3.107   2.464
    8POPC   C42  406   5.153   2.983   2.540
    8POPC   C43  407   5.269   2.904   2.599
    8POPC   C44  408   5.221   2.791   2.690
    8POPC   C45  409   5.337   2.700   2.729
    8POPC   C46  410   5.442   2.771   2.816
    8POPC   C47  411   5.399   2.782   2.962
    8POPC   C48  412   5.507   2.852   3.045
    8POPC   C49  413   5.636   2.770   3.047
    8POPC   C50  414   5.748   2.843   3.123
    8POPC   C51  415   5.877   2.762   3.121
    8POPC   C52  416   5.990   2.834   3.194
    9POPC    C1  417   2.043   0.235   1.171
    9POPC    C2  418   2.022   0.458   1.248
    9POPC    C3  419   2.064   0.412   1.016
    9POPC    N4  420   1.992   0.368   1.136
    9POPC    C5  421   1.846   0.357   1.113
    9POPC    C6  422   1.768   0.478   1.056
    9POPC   OS7  423   1.770   0.597   1.135
    9POPC    P8  424   1.664   0.703   1.089
    9POPC   OM9  425   1.703   0.838   1.132
    9POPC  OM10  426   1.623   0.678   0.949
    9POPC  OS11  427   1.552   0.642   1.181
    9POPC   C12  428   1.543   0.705   1.309
    9POPC   C13  429   1.492   0.607   1.416
    9POPC  OS14  430   1.435   0.672   1.532
    9POPC   C15  431   1.300   0.656   1.549
    9POPC   O16  432   1.226   0.611   1.461
    9POPC   C17  433   1.258   0.708   1.685
    9POPC   C18  434   1.340   0.638   1.794
    9POPC   C19  435   1.292   0.673   1.935
    9POPC   C20  436   1.374   0.594   2.037
    9POPC   C21  437   1.326   0.618   2.180
    9POPC   C22  438   1.417   0.545   2.279
    9POPC   C23  439   1.381   0.578   2.424
    9POPC   C24  440   1.246   0.526   2.465
    9POPC   C25  441   1.221   0.421   2.545
    9POPC   C26  442   1.320   0.331   2.614
    9POPC   C27  443   1.304   0.329   2.766
    9POPC   C28  444   1.337   0.465   2.829
    9POPC   C29  445   1.333   0.457   2.982
    9POPC   C30  446   1.447   0.370   3.034
    9POPC   C31  447   1.452   0.372   3.187
    9POPC   C32  448   1.564   0.283   3.239
    9POPC   C33  449   1.702   0.338   3.202
    9POPC   C34  450   1.612   0.515   1.446
    9POPC  OS35  451   1.585   0.400   1.529
    9POPC   C36  452   1.646   0.402   1.651
    9POPC   O37  453   1.746   0.470   1.675
    9POPC   C38  454   1.602   0.283   1.736
    9POPC   C39  455   1.624   0.310   1.885
    9POPC   C40  456   1.599   0.184   1.968
    9POPC   C41  457   1.604   0.214   2.118
    9POPC   C42  458   1.741   0.263   2.163
    9POPC   C43  459   1.743   0.296   2.313
    9POPC   C44  460   1.754   0.172   2.402
    9POPC   C45  461   1.765   0.214   2.549
    9POPC   C46  462   1.808   0.098   2.638
    9POPC   C47  463   1.696   6.401   2.662
    9POPC   C48  464   1.593   0.049   2.762
    9POPC   C49  465   1.480   6.352   2.784
    9POPC   C50  466   1.530   6.229   2.861
    9POPC   C51  467   1.559   6.263   3.008
    9POPC   C52  468   1.604   6.138   3.084
   10POPC    C1  469   5.775   0.248   1.238
   10POPC    C2  470   5.691   0.030   1.206
   10POPC    C3  471   5.837   0.127   1.042
   10POPC    N4  472   5.809   0.115   1.186
   10POPC    C5  473   5.927   0.066   1.261
   10POPC    C6  474   5.986   6.332   1.229
   10POPC   OS7  475   5.900   6.222   1.262
   10POPC    P8  476   5.955   6.082   1.216
   10POPC   OM9  477   5.849   5.982   1.232
   10POPC  OM10  478   6.019   6.103   1.085
   10POPC  OS11  479   6.067   6.060   1.321
   10POPC   C12  480   6.016   6.027   1.450
   10POPC   C13  481   6.127   5.995   1.551
   10POPC  OS14  482   6.077   5.943   1.677
   10POPC   C15  483   6.142   5.837   1.731
   10POPC   O16  484   6.234   5.779   1.672
   10POPC   C17  485   6.080   5.793   1.862
   10POPC   C18  486   6.108   5.893   1.975
   10POPC   C19  487   6.047   5.843   2.106
   10POPC   C20  488   6.083   5.934   2.223
   10POPC   C21  489   6.028   5.877   2.354
   10POPC   C22  490   6.070   5.963   2.473
   10POPC   C23  491   6.017   5.907   2.605
   10POPC   C24  492   6.058   5.995   2.720
   10POPC   C25  493   6.120   5.961   2.834
   10POPC   C26  494   6.162   5.824   2.880
   10POPC   C27  495   6.153   5.814   3.033
   10POPC   C28  496   6.184   5.673   3.083
   10POPC   C29  497   6.172   5.669   3.235
   10POPC   C30  498   6.178   5.526   3.289
   10POPC   C31  499   6.151   5.527   3.439
   10POPC   C32  500   6.141   5.385   3.496
   10POPC   C33  501   6.111   5.390   3.646
   10POPC   C34  502   6.218   6.120   1.558
   10POPC  OS35  503   6.153   6.242   1.601
   10POPC   C36  504   6.231   6.353   1.606
   10POPC   O37  505   6.331   6.368   1.535
   10POPC   C38  506   6.156   0.062   1.672
   10POPC   C39  507   6.175   0.065   1.825
   10POPC   C40  508   6.098   6.357   1.894
   10POPC   C41  509   6.101   6.369   2.046
   10POPC   C42  510   6.022   0.087   2.092
   10POPC   C43  511   6.003   0.087   2.244
   10POPC   C44  512   5.910   6.378   2.287
   10POPC   C45  513   5.885   6.379   2.437
   10POPC   C46  514   5.789   6.266   2.475
   10POPC   C47  515   5.758   6.265   2.624
   10POPC   C48  516   5.659   6.152   2.656
   10POPC   C49  517   5.619   6.152   2.803
   10POPC   C50  518   5.511   6.047   2.830
   10POPC   C51  519   5.471   6.046   2.977
   10POPC   C52  520   5.587   5.997   3.064
   11POPC    C1  521   4.441   5.965   1.496
   11POPC    C2  522   4.570   6.105   1.354
   11POPC    C3  523   4.617   6.098   1.586
   11POPC    N4  524   4.576   6.017   1.471
   11POPC    C5  525   4.674   5.911   1.444
   11POPC    C6  526   4.702   5.804   1.551
   11POPC   OS7  527   4.802   5.711   1.511
   11POPC    P8  528   4.818   5.593   1.614
   11POPC   OM9  529   4.687   5.564   1.675
   11POPC  OM10  530   4.897   5.490   1.546
   11POPC  OS11  531   4.913   5.663   1.717
   11POPC   C12  532   4.945   5.575   1.825
   11POPC   C13  533   5.093   5.530   1.838
   11POPC  OS14  534   5.113   5.436   1.947
   11POPC   C15  535   5.226   5.360   1.947
   11POPC   O16  536   5.286   5.332   1.842
   11POPC   C17  537   5.235   5.277   2.074
   11POPC   C18  538   5.250   5.363   2.200
   11POPC   C19  539   5.249   5.271   2.323
   11POPC   C20  540   5.267   5.347   2.454
   11POPC   C21  541   5.261   5.249   2.571
   11POPC   C22  542   5.293   5.314   2.706
   11POPC   C23  543   5.184   5.412   2.750
   11POPC   C24  544   5.210   5.462   2.889
   11POPC   C25  545   5.121   5.497   2.983
   11POPC   C26  546   4.971   5.497   2.973
   11POPC   C27  547   4.903   5.431   3.094
   11POPC   C28  548   4.916   5.279   3.093
   11POPC   C29  549   4.838   5.219   3.210
   11POPC   C30  550   4.827   5.067   3.199
   11POPC   C31  551   4.961   4.998   3.225
   11POPC   C32  552   4.948   4.847   3.203
   11POPC   C33  553   4.854   4.785   3.306
   11POPC   C34  554   5.178   5.658   1.847
   11POPC  OS35  555   5.139   5.751   1.951
   11POPC   C36  556   5.205   5.870   1.955
   11POPC   O37  557   5.295   5.904   1.879
   11POPC   C38  558   5.148   5.953   2.068
   11POPC   C39  559   5.158   6.103   2.041
   11POPC   C40  560   5.066   6.178   2.136
   11POPC   C41  561   5.112   6.166   2.282
   11POPC   C42  562   5.226   6.262   2.314
   11POPC   C43  563   5.264   6.251   2.462
   11POPC   C44  564   5.367   6.357   2.501
   11POPC   C45  565   5.307   0.093   2.494
   11POPC   C46  566   5.410   0.196   2.539
   11POPC   C47  567   5.431   0.195   2.690
   11POPC   C48  568   5.319   0.271   2.762
   11POPC   C49  569   5.332   0.423   2.743
   11POPC   C50  570   5.455   0.477   2.817
   11POPC   C51  571   5.467   0.628   2.801
   11POPC   C52  572   5.495   0.668   2.656
   12POPC    C1  573   3.491   3.567   1.135
   12POPC    C2  574   3.618   3.509   1.329
   12POPC    C3  575   3.643   3.723   1.224
   12POPC    N4  576   3.547   3.618   1.261
   12POPC    C5  577   3.437   3.672   1.344
   12POPC    C6  578   3.468   3.732   1.483
   12POPC   OS7  579   3.355   3.785   1.552
   12POPC    P8  580   3.387   3.814   1.704
   12POPC   OM9  581   3.527   3.855   1.718
   12POPC  OM10  582   3.277   3.903   1.745
   12POPC  OS11  583   3.374   3.668   1.762
   12POPC   C12  584   3.262   3.658   1.851
   12POPC   C13  585   3.234   3.522   1.918
   12POPC  OS14  586   3.151   3.539   2.036
   12POPC   C15  587   3.017   3.521   2.027
   12POPC   O16  588   2.956   3.533   1.920
   12POPC   C17  589   2.952   3.526   2.165
   12POPC   C18  590   2.868   3.402   2.194
   12POPC   C19  591   2.957   3.282   2.224
   12POPC   C20  592   3.042   3.309   2.348
   12POPC   C21  593   3.139   3.195   2.378
   12POPC   C22  594   3.245   3.246   2.477
   12POPC   C23  595   3.329   3.354   2.408
   12POPC   C24  596   3.422   3.426   2.501
   12POPC   C25  597   3.405   3.550   2.549
   12POPC   C26  598   3.291   3.643   2.520
   12POPC   C27  599   3.215   3.683   2.648
   12POPC   C28  600   3.298   3.778   2.734
   12POPC   C29  601   3.311   3.914   2.665
   12POPC   C30  602   3.391   4.013   2.749
   12POPC   C31  603   3.408   4.145   2.674
   12POPC   C32  604   3.495   4.124   2.551
   12POPC   C33  605   3.506   4.253   2.468
   12POPC   C34  606   3.370   3.458   1.952
   12POPC  OS35  607   3.369   3.329   2.017
   12POPC   C36  608   3.384   3.218   1.941
   12POPC   O37  609   3.414   3.218   1.821
   12POPC   C38  610   3.374   3.092   2.027
   12POPC   C39  611   3.465   3.100   2.149
   12POPC   C40  612   3.613   3.094   2.110
   12POPC   C41  613   3.702   3.091   2.234
   12POPC   C42  614   3.675   2.963   2.314
   12POPC   C43  615   3.779   2.940   2.424
   12POPC   C44  616   3.765   3.040   2.539
   12POPC   C45  617   3.872   3.009   2.645
   12POPC   C46  618   3.869   3.108   2.761
   12POPC   C47  619   3.747   3.088   2.850
   12POPC   C48  620   3.753   3.184   2.970
   12POPC   C49  621   3.635   3.161   3.065
   12POPC   C50  622   3.642   3.258   3.183
   12POPC   C51  623   3.762   3.227   3.273
   12POPC   C52  624   3.769   3.326   3.390
   13POPC    C1  625   1.158   4.798   0.764
   13POPC    C2  626   1.276   4.939   0.914
   13POPC    C3  627   1.067   4.843   0.978
   13POPC    N4  628   1.192   4.818   0.905
   13POPC    C5  629   1.262   4.697   0.956
   13POPC    C6  630   1.328   4.697   1.096
   13POPC   OS7  631   1.400   4.577   1.129
   13POPC    P8  632   1.499   4.598   1.250
   13POPC   OM9  633   1.565   4.470   1.281
   13POPC  OM10  634   1.576   4.717   1.215
   13POPC  OS11  635   1.393   4.631   1.359
   13POPC   C12  636   1.447   4.692   1.476
   13POPC   C13  637   1.337   4.766   1.554
   13POPC  OS14  638   1.386   4.830   1.674
   13POPC   C15  639   1.336   4.954   1.703
   13POPC   O16  640   1.280   5.025   1.618
   13POPC   C17  641   1.368   4.992   1.846
   13POPC   C18  642   1.238   5.006   1.926
   13POPC   C19  643   1.265   4.998   2.077
   13POPC   C20  644   1.302   4.855   2.117
   13POPC   C21  645   1.335   4.843   2.266
   13POPC   C22  646   1.212   4.858   2.355
   13POPC   C23  647   1.117   4.739   2.339
   13POPC   C24  648   1.000   4.748   2.432
   13POPC   C25  649   0.935   4.648   2.494
   13POPC   C26  650   0.963   4.500   2.483
   13POPC   C27  651   1.011   4.439   2.615
   13POPC   C28  652   0.902   4.443   2.723
   13POPC   C29  653   0.951   4.372   2.850
   13POPC   C30  654   0.842   4.368   2.957
   13POPC   C31  655   0.890   4.292   3.081
   13POPC   C32  656   1.004   4.366   3.152
   13POPC   C33  657   1.046   4.293   3.279
   13POPC   C34  658   1.226   4.662   1.580
   13POPC  OS35  659   1.260   4.555   1.672
   13POPC   C36  660   1.205   4.567   1.796
   13POPC   O37  661   1.104   4.634   1.820
   13POPC   C38  662   1.268   4.468   1.893
   13POPC   C39  663   1.419   4.462   1.871
   13POPC   C40  664   1.490   4.380   1.979
   13POPC   C41  665   1.498   4.454   2.112
   13POPC   C42  666   1.584   4.376   2.211
   13POPC   C43  667   1.608   4.451   2.342
   13POPC   C44  668   1.483   4.455   2.431
   13POPC   C45  669   1.515   4.524   2.564
   13POPC   C46  670   1.393   4.526   2.655
   13POPC   C47  671   1.422   4.595   2.788
   13POPC   C48  672   1.296   4.601   2.874
   13POPC   C49  673   1.318   4.678   3.004
   13POPC   C50  674   1.400   4.599   3.106
   13POPC   C51  675   1.411   4.678   3.237
   13POPC   C52  676   1.487   4.599   3.344
   14POPC    C1  677   1.186   6.083   1.617
   14POPC    C2  678   1.225   6.229   1.435
   14POPC    C3  679   1.402   6.091   1.513
   14POPC    N4  680   1.257   6.096   1.489
   14POPC    C5  681   1.211   5.994   1.393
   14POPC    C6  682   1.253   5.846   1.412
   14POPC   OS7  683   1.211   5.783   1.532
   14POPC    P8  684   1.325   5.699   1.601
   14POPC   OM9  685   1.258   5.596   1.682
   14POPC  OM10  686   1.422   5.661   1.497
   14POPC  OS11  687   1.383   5.817   1.686
   14POPC   C12  688   1.384   5.788   1.825
   14POPC   C13  689   1.443   5.899   1.914
   14POPC  OS14  690   1.582   5.931   1.887
   14POPC   C15  691   1.616   6.063   1.887
   14POPC   O16  692   1.532   6.154   1.882
   14POPC   C17  693   1.766   6.083   1.875
   14POPC   C18  694   1.809   6.210   1.947
   14POPC   C19  695   1.960   6.233   1.935
   14POPC   C20  696   2.003   6.357   2.014
   14POPC   C21  697   1.993   6.333   2.165
   14POPC   C22  698   2.102   6.238   2.214
   14POPC   C23  699   2.086   6.206   2.363
   14POPC   C24  700   2.105   6.326   2.451
   14POPC   C25  701   2.203   6.347   2.541
   14POPC   C26  702   2.317   6.255   2.572
   14POPC   C27  703   2.451   6.329   2.580
   14POPC   C28  704   2.459   0.011   2.705
   14POPC   C29  705   2.593   0.085   2.710
   14POPC   C30  706   2.617   0.150   2.846
   14POPC   C31  707   2.519   0.263   2.874
   14POPC   C32  708   2.548   0.326   3.011
   14POPC   C33  709   2.525   0.225   3.123
   14POPC   C34  710   1.426   5.851   2.059
   14POPC  OS35  711   1.295   5.832   2.117
   14POPC   C36  712   1.219   5.941   2.149
   14POPC   O37  713   1.212   6.043   2.079
   14POPC   C38  714   1.124   5.911   2.263
   14POPC   C39  715   1.206   5.916   2.393
   14POPC   C40  716   1.120   5.931   2.518
   14POPC   C41  717   1.213   5.936   2.640
   14POPC   C42  718   1.134   5.955   2.770
   14POPC   C43  719   1.227   5.944   2.891
   14POPC   C44  720   1.149   5.953   3.023
   14POPC   C45  721   1.240   5.918   3.141
   14POPC   C46  722   1.163   5.927   3.273
   14POPC   C47  723   1.249   5.877   3.389
   14POPC   C48  724   1.271   5.726   3.377
   14POPC   C49  725   1.356   5.671   3.492
   14POPC   C50  726   1.373   5.520   3.478
   14POPC   C51  727   1.243   5.445   3.509
   14POPC   C52  728   1.211   5.449   3.658
   15POPC    C1  729   0.577   4.415   0.956
   15POPC    C2  730   0.614   4.365   1.185
   15POPC    C3  731   0.479   4.221   1.050
   15POPC    N4  732   0.599   4.306   1.052
   15POPC    C5  733   0.722   4.235   1.010
   15POPC    C6  734   0.766   4.103   1.080
   15POPC   OS7  735   0.801   4.113   1.218
   15POPC    P8  736   0.828   3.973   1.284
   15POPC   OM9  737   0.868   3.879   1.179
   15POPC  OM10  738   0.911   3.991   1.404
   15POPC  OS11  739   0.679   3.939   1.321
   15POPC   C12  740   0.637   4.012   1.437
   15POPC   C13  741   0.509   3.959   1.504
   15POPC  OS14  742   0.459   4.050   1.607
   15POPC   C15  743   0.340   4.021   1.668
   15POPC   O16  744   0.247   3.965   1.608
   15POPC   C17  745   0.320   4.109   1.790
   15POPC   C18  746   0.201   4.056   1.871
   15POPC   C19  747   0.172   4.138   1.996
   15POPC   C20  748   0.049   4.081   2.065
   15POPC   C21  749   0.012   4.156   2.193
   15POPC   C22  750   6.225   4.089   2.256
   15POPC   C23  751   6.260   3.945   2.295
   15POPC   C24  752   6.140   3.867   2.341
   15POPC   C25  753   6.115   3.820   2.464
   15POPC   C26  754   6.199   3.832   2.587
   15POPC   C27  755   6.229   3.695   2.649
   15POPC   C28  756   6.305   3.712   2.781
   15POPC   C29  757   6.217   3.784   2.883
   15POPC   C30  758   6.287   3.797   3.019
   15POPC   C31  759   6.194   3.867   3.118
   15POPC   C32  760   6.257   3.875   3.257
   15POPC   C33  761   6.162   3.945   3.354
   15POPC   C34  762   0.544   3.815   1.549
   15POPC  OS35  763   0.656   3.806   1.640
   15POPC   C36  764   0.686   3.682   1.688
   15POPC   O37  765   0.613   3.583   1.675
   15POPC   C38  766   0.805   3.688   1.783
   15POPC   C39  767   0.759   3.648   1.923
   15POPC   C40  768   0.674   3.760   1.984
   15POPC   C41  769   0.598   3.713   2.108
   15POPC   C42  770   0.511   3.827   2.161
   15POPC   C43  771   0.412   3.778   2.267
   15POPC   C44  772   0.485   3.722   2.390
   15POPC   C45  773   0.383   3.688   2.499
   15POPC   C46  774   0.450   3.624   2.621
   15POPC   C47  775   0.347   3.607   2.733
   15POPC   C48  776   0.406   3.536   2.855
   15POPC   C49  777   0.305   3.538   2.969
   15POPC   C50  778   0.356   3.462   3.092
   15POPC   C51  779   0.262   3.482   3.210
   15POPC   C52  780   0.123   3.425   3.181
   16POPC    C1  781   6.322   4.097   1.126
   16POPC    C2  782   6.237   4.267   1.268
   16POPC    C3  783   6.112   4.193   1.077
   16POPC    N4  784   6.200   4.150   1.187
   16POPC    C5  785   6.138   4.044   1.269
   16POPC    C6  786   6.001   4.071   1.337
   16POPC   OS7  787   6.004   4.168   1.442
   16POPC    P8  788   5.858   4.212   1.481
   16POPC   OM9  789   5.819   4.298   1.368
   16POPC  OM10  790   5.794   4.084   1.514
   16POPC  OS11  791   5.904   4.293   1.607
   16POPC   C12  792   5.942   4.426   1.572
   16POPC   C13  793   6.026   4.500   1.678
   16POPC  OS14  794   6.162   4.449   1.691
   16POPC   C15  795   6.259   4.520   1.625
   16POPC   O16  796   6.237   4.575   1.517
   16POPC   C17  797   0.062   4.475   1.672
   16POPC   C18  798   0.074   4.489   1.824
   16POPC   C19  799   0.085   4.635   1.867
   16POPC   C20  800   0.083   4.645   2.019
   16POPC   C21  801   0.207   4.582   2.081
   16POPC   C22  802   0.193   4.576   2.234
   16POPC   C23  803   0.321   4.522   2.299
   16POPC   C24  804   0.436   4.617   2.280
   16POPC   C25  805   0.491   4.700   2.370
   16POPC   C26  806   0.452   4.720   2.513
   16POPC   C27  807   0.572   4.703   2.607
   16POPC   C28  808   0.532   4.721   2.753
   16POPC   C29  809   0.442   4.606   2.799
   16POPC   C30  810   0.401   4.624   2.945
   16POPC   C31  811   0.308   4.510   2.989
   16POPC   C32  812   0.383   4.377   3.000
   16POPC   C33  813   0.475   4.377   3.122
   16POPC   C34  814   5.940   4.501   1.806
   16POPC  OS35  815   5.994   4.569   1.920
   16POPC   C36  816   5.991   4.496   2.034
   16POPC   O37  817   5.947   4.381   2.038
   16POPC   C38  818   6.047   4.574   2.152
   16POPC   C39  819   6.083   4.486   2.272
   16POPC   C40  820   5.961   4.446   2.355
   16POPC   C41  821   5.908   4.561   2.440
   16POPC   C42  822   5.785   4.517   2.519
   16POPC   C43  823   5.748   4.619   2.628
   16POPC   C44  824   5.858   4.621   2.734
   16POPC   C45  825   5.823   4.712   2.852
   16POPC   C46  826   5.708   4.653   2.935
   16POPC   C47  827   5.682   4.737   3.060
   16POPC   C48  828   5.797   4.726   3.160
   16POPC   C49  829   5.800   4.588   3.227
   16POPC   C50  830   5.923   4.575   3.317
   16POPC   C51  831   5.917   4.672   3.435
   16POPC   C52  832   6.043   4.662   3.521
   17POPC    C1  833   4.515   5.038   5.138
   17POPC    C2  834   4.697   4.889   5.175
   17POPC    C3  835   4.683   5.095   5.294
   17POPC    N4  836   4.605   4.983   5.240
   17POPC    C5  837   4.531   4.922   5.353
   17POPC    C6  838   4.444   4.796   5.334
   17POPC   OS7  839   4.516   4.675   5.308
   17POPC    P8  840   4.425   4.547   5.308
   17POPC   OM9  841   4.513   4.430   5.298
   17POPC  OM10  842   4.331   4.557   5.421
   17POPC  OS11  843   4.346   4.571   5.175
   17POPC   C12  844   4.387   4.486   5.069
   17POPC   C13  845   4.334   4.530   4.931
   17POPC  OS14  846   4.360   4.429   4.830
   17POPC   C15  847   4.254   4.400   4.748
   17POPC   O16  848   4.141   4.447   4.766
   17POPC   C17  849   4.292   4.293   4.647
   17POPC   C18  850   4.262   4.338   4.504
   17POPC   C19  851   4.351   4.457   4.466
   17POPC   C20  852   4.354   4.476   4.314
   17POPC   C21  853   4.435   4.364   4.250
   17POPC   C22  854   4.455   4.387   4.101
   17POPC   C23  855   4.554   4.284   4.045
   17POPC   C24  856   4.591   4.313   3.902
   17POPC   C25  857   4.691   4.391   3.859
   17POPC   C26  858   4.792   4.468   3.940
   17POPC   C27  859   4.935   4.424   3.910
   17POPC   C28  860   4.974   4.458   3.767
   17POPC   C29  861   5.110   4.396   3.733
   17POPC   C30  862   5.098   4.243   3.738
   17POPC   C31  863   5.223   4.174   3.684
   17POPC   C32  864   5.204   4.023   3.685
   17POPC   C33  865   5.322   3.951   3.620
   17POPC   C34  866   4.400   4.667   4.906
   17POPC  OS35  867   4.343   4.751   4.805
   17POPC   C36  868   4.409   4.870   4.794
   17POPC   O37  869   4.518   4.893   4.848
   17POPC   C38  870   4.336   4.966   4.701
   17POPC   C39  871   4.322   4.911   4.559
   17POPC   C40  872   4.457   4.916   4.487
   17POPC   C41  873   4.441   4.879   4.340
   17POPC   C42  874   4.578   4.883   4.271
   17POPC   C43  875   4.566   4.861   4.120
   17POPC   C44  876   4.705   4.867   4.058
   17POPC   C45  877   4.701   4.864   3.905
   17POPC   C46  878   4.845   4.873   3.853
   17POPC   C47  879   4.851   4.886   3.701
   17POPC   C48  880   4.998   4.901   3.660
   17POPC   C49  881   5.055   5.027   3.726
   17POPC   C50  882   5.206   5.039   3.705
   17POPC   C51  883   5.260   5.157   3.784
   17POPC   C52  884   5.242   5.135   3.934
   18POPC    C1  885   4.328   0.853   5.508
   18POPC    C2  886   4.405   0.984   5.323
   18POPC    C3  887   4.198   1.033   5.422
   18POPC    N4  888   4.334   0.988   5.451
   18POPC    C5  889   4.397   1.086   5.543
   18POPC    C6  890   4.546   1.074   5.580
   18POPC   OS7  891   4.603   1.198   5.622
   18POPC    P8  892   4.760   1.198   5.612
   18POPC   OM9  893   4.811   1.326   5.662
   18POPC  OM10  894   4.812   1.071   5.663
   18POPC  OS11  895   4.781   1.199   5.456
   18POPC   C12  896   4.741   1.321   5.392
   18POPC   C13  897   4.769   1.316   5.241
   18POPC  OS14  898   4.749   1.444   5.176
   18POPC   C15  899   4.852   1.488   5.099
   18POPC   O16  900   4.970   1.461   5.126
   18POPC   C17  901   4.809   1.603   5.010
   18POPC   C18  902   4.833   1.568   4.863
   18POPC   C19  903   4.732   1.464   4.815
   18POPC   C20  904   4.752   1.430   4.667
   18POPC   C21  905   4.874   1.341   4.645
   18POPC   C22  906   4.889   1.308   4.497
   18POPC   C23  907   4.770   1.225   4.447
   18POPC   C24  908   4.780   1.194   4.301
   18POPC   C25  909   4.773   1.074   4.241
   18POPC   C26  910   4.752   0.940   4.305
   18POPC   C27  911   4.869   0.844   4.282
   18POPC   C28  912   4.887   0.812   4.134
   18POPC   C29  913   4.997   0.709   4.113
   18POPC   C30  914   5.016   0.677   3.964
   18POPC   C31  915   5.127   0.573   3.944
   18POPC   C32  916   5.143   0.540   3.795
   18POPC   C33  917   5.251   0.434   3.775
   18POPC   C34  918   4.684   1.200   5.186
   18POPC  OS35  919   4.705   1.158   5.049
   18POPC   C36  920   4.591   1.113   4.989
   18POPC   O37  921   4.477   1.127   5.035
   18POPC   C38  922   4.619   1.060   4.849
   18POPC   C39  923   4.487   1.014   4.787
   18POPC   C40  924   4.506   0.961   4.645
   18POPC   C41  925   4.372   0.917   4.585
   18POPC   C42  926   4.389   0.865   4.443
   18POPC   C43  927   4.256   0.818   4.384
   18POPC   C44  928   4.275   0.764   4.242
   18POPC   C45  929   4.307   0.877   4.145
   18POPC   C46  930   4.339   0.823   4.005
   18POPC   C47  931   4.357   0.940   3.907
   18POPC   C48  932   4.479   1.024   3.944
   18POPC   C49  933   4.609   0.968   3.886
   18POPC   C50  934   4.616   0.992   3.735
   18POPC   C51  935   4.753   0.950   3.680
   18POPC   C52  936   4.773   0.799   3.692
   19POPC    C1  937   4.888   4.615   5.878
   19POPC    C2  938   4.695   4.474   5.853
   19POPC    C3  939   4.682   4.680   5.969
   19POPC    N4  940   4.743   4.612   5.854
   19POPC    C5  941   4.706   4.688   5.732
   19POPC    C6  942   4.745   4.635   5.592
   19POPC   OS7  943   4.885   4.620   5.569
   19POPC    P8  944   4.939   4.714   5.454
   19POPC   OM9  945   4.855   4.833   5.440
   19POPC  OM10  946   5.084   4.721   5.467
   19POPC  OS11  947   4.905   4.612   5.339
   19POPC   C12  948   5.000   4.623   5.233
   19POPC   C13  949   4.993   4.508   5.132
   19POPC  OS14  950   5.110   4.498   5.047
   19POPC   C15  951   5.204   4.405   5.078
   19POPC   O16  952   5.210   4.347   5.187
   19POPC   C17  953   5.313   4.401   4.972
   19POPC   C18  954   5.255   4.431   4.834
   19POPC   C19  955   5.363   4.420   4.726
   19POPC   C20  956   5.306   4.456   4.589
   19POPC   C21  957   5.414   4.444   4.482
   19POPC   C22  958   5.526   4.545   4.508
   19POPC   C23  959   5.635   4.534   4.402
   19POPC   C24  960   5.749   4.627   4.432
   19POPC   C25  961   5.778   4.742   4.370
   19POPC   C26  962   5.704   4.808   4.257
   19POPC   C27  963   5.708   4.960   4.264
   19POPC   C28  964   5.649   5.017   4.135
   19POPC   C29  965   5.663   5.169   4.126
   19POPC   C30  966   5.620   5.216   3.988
   19POPC   C31  967   5.634   5.367   3.971
   19POPC   C32  968   5.594   5.408   3.829
   19POPC   C33  969   5.610   5.558   3.809
   19POPC   C34  970   4.859   4.524   5.059
   19POPC  OS35  971   4.845   4.643   4.978
   19POPC   C36  972   4.817   4.619   4.847
   19POPC   O37  973   4.760   4.516   4.809
   19POPC   C38  974   4.826   4.747   4.767
   19POPC   C39  975   4.793   4.723   4.619
   19POPC   C40  976   4.909   4.659   4.543
   19POPC   C41  977   4.864   4.614   4.404
   19POPC   C42  978   4.978   4.551   4.325
   19POPC   C43  979   5.070   4.656   4.263
   19POPC   C44  980   5.184   4.588   4.186
   19POPC   C45  981   5.262   4.688   4.101
   19POPC   C46  982   5.375   4.617   4.026
   19POPC   C47  983   5.435   4.710   3.919
   19POPC   C48  984   5.548   4.642   3.843
   19POPC   C49  985   5.677   4.639   3.925
   19POPC   C50  986   5.793   4.582   3.844
   19POPC   C51  987   5.922   4.586   3.926
   19POPC   C52  988   5.910   4.497   4.049
   20POPC    C1  989   5.703   5.911   5.556
   20POPC    C2  990   5.760   6.095   5.413
   20POPC    C3  991   5.750   6.124   5.649
   20POPC    N4  992   5.788   6.030   5.542
   20POPC    C5  993   5.932   6.000   5.559
   20POPC    C6  994   6.008   5.917   5.451
   20POPC   OS7  995   5.969   5.780   5.439
   20POPC    P8  996   6.036   5.714   5.312
   20POPC   OM9  997   6.162   5.779   5.276
   20POPC  OM10  998   6.026   5.569   5.333
   20POPC  OS11  999   5.924   5.764   5.213
   20POPC   C12 1000   5.815   5.673   5.205
   20POPC   C13 1001   5.698   5.723   5.119
   20POPC  OS14 1002   5.596   5.620   5.110
   20POPC   C15 1003   5.485   5.628   5.188
   20POPC   O16 1004   5.475   5.705   5.285
   20POPC   C17 1005   5.392   5.513   5.156
   20POPC   C18 1006   5.286   5.550   5.052
   20POPC   C19 1007   5.345   5.569   4.912
   20POPC   C20 1008   5.237   5.611   4.812
   20POPC   C21 1009   5.299   5.642   4.676
   20POPC   C22 1010   5.193   5.688   4.577
   20POPC   C23 1011   5.258   5.732   4.445
   20POPC   C24 1012   5.327   5.619   4.375
   20POPC   C25 1013   5.360   5.613   4.245
   20POPC   C26 1014   5.336   5.719   4.141
   20POPC   C27 1015   5.290   5.663   4.006
   20POPC   C28 1016   5.154   5.594   4.015
   20POPC   C29 1017   5.109   5.547   3.876
   20POPC   C30 1018   4.972   5.480   3.882
   20POPC   C31 1019   4.925   5.437   3.743
   20POPC   C32 1020   4.895   5.558   3.655
   20POPC   C33 1021   4.848   5.516   3.516
   20POPC   C34 1022   5.758   5.761   4.983
   20POPC  OS35 1023   5.670   5.822   4.886
   20POPC   C36 1024   5.721   5.824   4.761
   20POPC   O37 1025   5.828   5.772   4.729
   20POPC   C38 1026   5.626   5.890   4.662
   20POPC   C39 1027   5.701   5.916   4.531
   20POPC   C40 1028   5.606   5.955   4.419
   20POPC   C41 1029   5.684   5.981   4.290
   20POPC   C42 1030   5.764   6.112   4.301
   20POPC   C43 1031   5.848   6.134   4.176
   20POPC   C44 1032   5.911   6.274   4.175
   20POPC   C45 1033   6.002   6.290   4.054
   20POPC   C46 1034   5.923   6.274   3.924
   20POPC   C47 1035   6.016   6.279   3.802
   20POPC   C48 1036   5.939   6.248   3.675
   20POPC   C49 1037   6.031   6.242   3.552
   20POPC   C50 1038   5.950   6.202   3.428
   20POPC   C51 1039   6.040   6.189   3.305
   20POPC   C52 1040   5.958   6.146   3.183
   21POPC    C1 1041   0.464   5.381   5.860
   21POPC    C2 1042   0.377   5.367   5.639
   21POPC    C3 1043   0.233   5.342   5.831
   21POPC    N4 1044   0.348   5.414   5.776
   21POPC    C5 1045   0.330   5.561   5.776
   21POPC    C6 1046   0.204   5.625   5.712
   21POPC   OS7 1047   0.187   5.597   5.573
   21POPC    P8 1048   0.061   5.665   5.510
   21POPC   OM9 1049   6.290   5.666   5.613
   21POPC  OM10 1050   0.111   5.789   5.449
   21POPC  OS11 1051   0.039   5.549   5.406
   21POPC   C12 1052   0.113   5.572   5.287
   21POPC   C13 1053   0.091   5.467   5.177
   21POPC  OS14 1054   0.174   5.493   5.060
   21POPC   C15 1055   0.294   5.428   5.053
   21POPC   O16 1056   0.340   5.361   5.146
   21POPC   C17 1057   0.369   5.464   4.926
   21POPC   C18 1058   0.507   5.400   4.926
   21POPC   C19 1059   0.593   5.451   4.810
   21POPC   C20 1060   0.537   5.408   4.675
   21POPC   C21 1061   0.627   5.458   4.561
   21POPC   C22 1062   0.569   5.419   4.425
   21POPC   C23 1063   0.660   5.466   4.311
   21POPC   C24 1064   0.793   5.396   4.313
   21POPC   C25 1065   0.831   5.290   4.239
   21POPC   C26 1066   0.748   5.216   4.138
   21POPC   C27 1067   0.810   5.217   3.999
   21POPC   C28 1068   0.714   5.153   3.898
   21POPC   C29 1069   0.776   5.147   3.759
   21POPC   C30 1070   0.675   5.093   3.657
   21POPC   C31 1071   0.740   5.083   3.519
   21POPC   C32 1072   0.778   5.221   3.465
   21POPC   C33 1073   0.850   5.210   3.331
   21POPC   C34 1074   6.274   5.468   5.149
   21POPC  OS35 1075   6.228   5.374   5.049
   21POPC   C36 1076   6.158   5.430   4.946
   21POPC   O37 1077   6.130   5.549   4.935
   21POPC   C38 1078   6.131   5.325   4.839
   21POPC   C39 1079   6.262   5.288   4.770
   21POPC   C40 1080   6.302   5.391   4.664
   21POPC   C41 1081   0.113   5.369   4.622
   21POPC   C42 1082   0.151   5.446   4.496
   21POPC   C43 1083   0.095   5.376   4.372
   21POPC   C44 1084   0.152   5.432   4.242
   21POPC   C45 1085   0.117   5.338   4.126
   21POPC   C46 1086   0.184   5.381   3.995
   21POPC   C47 1087   0.167   5.271   3.890
   21POPC   C48 1088   0.236   5.308   3.758
   21POPC   C49 1089   0.229   5.192   3.659
   21POPC   C50 1090   0.291   5.230   3.524
   21POPC   C51 1091   0.205   5.334   3.453
   21POPC   C52 1092   0.264   5.372   3.317
   22POPC    C1 1093   1.319   5.958   5.441
   22POPC    C2 1094   1.217   6.029   5.238
   22POPC    C3 1095   1.094   5.898   5.396
   22POPC    N4 1096   1.193   6.005   5.382
   22POPC    C5 1097   1.153   6.129   5.453
   22POPC    C6 1098   1.029   6.209   5.405
   22POPC   OS7 1099   0.906   6.138   5.411
   22POPC    P8 1100   0.791   6.215   5.337
   22POPC   OM9 1101   0.743   6.305   5.442
   22POPC  OM10 1102   0.850   6.264   5.211
   22POPC  OS11 1103   0.701   6.089   5.323
   22POPC   C12 1104   0.737   6.012   5.208
   22POPC   C13 1105   0.690   5.866   5.211
   22POPC  OS14 1106   0.800   5.775   5.185
   22POPC   C15 1107   0.786   5.641   5.204
   22POPC   O16 1108   0.702   5.591   5.280
   22POPC   C17 1109   0.914   5.574   5.158
   22POPC   C18 1110   0.982   5.661   5.052
   22POPC   C19 1111   1.131   5.630   5.038
   22POPC   C20 1112   1.195   5.729   4.940
   22POPC   C21 1113   1.348   5.716   4.936
   22POPC   C22 1114   1.407   5.815   4.835
   22POPC   C23 1115   1.370   5.775   4.692
   22POPC   C24 1116   1.415   5.877   4.591
   22POPC   C25 1117   1.514   5.869   4.501
   22POPC   C26 1118   1.607   5.754   4.476
   22POPC   C27 1119   1.661   5.755   4.333
   22POPC   C28 1120   1.738   5.885   4.306
   22POPC   C29 1121   1.800   5.887   4.166
   22POPC   C30 1122   1.916   5.788   4.154
   22POPC   C31 1123   1.983   5.800   4.017
   22POPC   C32 1124   2.100   5.703   4.003
   22POPC   C33 1125   2.165   5.716   3.865
   22POPC   C34 1126   0.566   5.858   5.119
   22POPC  OS35 1127   0.590   5.885   4.979
   22POPC   C36 1128   0.483   5.864   4.898
   22POPC   O37 1129   0.379   5.810   4.934
   22POPC   C38 1130   0.520   5.889   4.752
   22POPC   C39 1131   0.400   5.864   4.661
   22POPC   C40 1132   0.443   5.842   4.516
   22POPC   C41 1133   0.321   5.823   4.426
   22POPC   C42 1134   0.359   5.770   4.287
   22POPC   C43 1135   0.437   5.872   4.204
   22POPC   C44 1136   0.469   5.813   4.066
   22POPC   C45 1137   0.544   5.913   3.978
   22POPC   C46 1138   0.457   6.034   3.945
   22POPC   C47 1139   0.525   6.127   3.844
   22POPC   C48 1140   0.528   6.063   3.705
   22POPC   C49 1141   0.595   6.155   3.603
   22POPC   C50 1142   0.593   6.093   3.464
   22POPC   C51 1143   0.661   6.184   3.362
   22POPC   C52 1144   0.812   6.193   3.389
   23POPC    C1 1145   2.341   4.379   5.551
   23POPC    C2 1146   2.403   4.386   5.781
   23POPC    C3 1147   2.222   4.520   5.705
   23POPC    N4 1148   2.289   4.390   5.689
   23POPC    C5 1149   2.201   4.275   5.722
   23POPC    C6 1150   2.068   4.255   5.646
   23POPC   OS7 1151   1.962   4.343   5.684
   23POPC    P8 1152   1.864   4.371   5.564
   23POPC   OM9 1153   1.857   4.252   5.478
   23POPC  OM10 1154   1.743   4.432   5.622
   23POPC  OS11 1155   1.949   4.482   5.495
   23POPC   C12 1156   1.904   4.508   5.363
   23POPC   C13 1157   1.981   4.624   5.296
   23POPC  OS14 1158   1.927   4.671   5.170
   23POPC   C15 1159   1.841   4.776   5.173
   23POPC   O16 1160   1.789   4.818   5.277
   23POPC   C17 1161   1.804   4.824   5.033
   23POPC   C18 1162   1.873   4.957   5.003
   23POPC   C19 1163   1.849   5.000   4.858
   23POPC   C20 1164   1.707   5.053   4.838
   23POPC   C21 1165   1.684   5.089   4.692
   23POPC   C22 1166   1.675   4.963   4.606
   23POPC   C23 1167   1.668   4.995   4.457
   23POPC   C24 1168   1.793   5.065   4.411
   23POPC   C25 1169   1.806   5.151   4.310
   23POPC   C26 1170   1.700   5.202   4.216
   23POPC   C27 1171   1.658   5.345   4.248
   23POPC   C28 1172   1.567   5.398   4.137
   23POPC   C29 1173   1.646   5.401   4.006
   23POPC   C30 1174   1.565   5.460   3.891
   23POPC   C31 1175   1.648   5.451   3.762
   23POPC   C32 1176   1.777   5.532   3.776
   23POPC   C33 1177   1.864   5.519   3.651
   23POPC   C34 1178   2.129   4.582   5.293
   23POPC  OS35 1179   2.160   4.455   5.234
   23POPC   C36 1180   2.243   4.457   5.126
   23POPC   O37 1181   2.313   4.554   5.094
   23POPC   C38 1182   2.255   4.318   5.068
   23POPC   C39 1183   2.282   4.321   4.918
   23POPC   C40 1184   2.262   4.182   4.856
   23POPC   C41 1185   2.283   4.187   4.705
   23POPC   C42 1186   2.185   4.286   4.643
   23POPC   C43 1187   2.205   4.299   4.492
   23POPC   C44 1188   2.141   4.184   4.415
   23POPC   C45 1189   2.156   4.209   4.265
   23POPC   C46 1190   2.081   4.335   4.223
   23POPC   C47 1191   2.112   4.372   4.078
   23POPC   C48 1192   2.040   4.501   4.036
   23POPC   C49 1193   2.081   4.542   3.894
   23POPC   C50 1194   2.227   4.587   3.890
   23POPC   C51 1195   2.269   4.626   3.748
   23POPC   C52 1196   2.272   4.503   3.657
   24POPC    C1 1197   5.301   1.179   5.041
   24POPC    C2 1198   5.172   1.326   4.907
   24POPC    C3 1199   5.201   1.097   4.843
   24POPC    N4 1200   5.182   1.188   4.957
   24POPC    C5 1201   5.056   1.159   5.030
   24POPC    C6 1202   5.037   1.027   5.109
   24POPC   OS7 1203   5.120   1.014   5.224
   24POPC    P8 1204   5.117   0.865   5.277
   24POPC   OM9 1205   5.204   0.862   5.396
   24POPC  OM10 1206   4.977   0.824   5.284
   24POPC  OS11 1207   5.189   0.801   5.154
   24POPC   C12 1208   5.329   0.779   5.175
   24POPC   C13 1209   5.409   0.748   5.048
   24POPC  OS14 1210   5.441   0.867   4.972
   24POPC   C15 1211   5.574   0.893   4.959
   24POPC   O16 1212   5.656   0.857   5.044
   24POPC   C17 1213   5.593   1.005   4.858
   24POPC   C18 1214   5.673   0.959   4.736
   24POPC   C19 1215   5.635   1.044   4.615
   24POPC   C20 1216   5.733   1.029   4.500
   24POPC   C21 1217   5.688   1.116   4.382
   24POPC   C22 1218   5.801   1.142   4.283
   24POPC   C23 1219   5.750   1.223   4.164
   24POPC   C24 1220   5.679   1.348   4.207
   24POPC   C25 1221   5.723   1.474   4.218
   24POPC   C26 1222   5.859   1.531   4.189
   24POPC   C27 1223   5.862   1.605   4.055
   24POPC   C28 1224   5.994   1.681   4.039
   24POPC   C29 1225   5.999   1.755   3.905
   24POPC   C30 1226   6.118   1.851   3.901
   24POPC   C31 1227   6.250   1.776   3.914
   24POPC   C32 1228   0.033   1.873   3.914
   24POPC   C33 1229   0.046   1.944   3.780
   24POPC   C34 1230   5.329   0.640   4.972
   24POPC  OS35 1231   5.394   0.582   4.858
   24POPC   C36 1232   5.468   0.471   4.883
   24POPC   O37 1233   5.468   0.410   4.991
   24POPC   C38 1234   5.538   0.425   4.756
   24POPC   C39 1235   5.634   0.533   4.708
   24POPC   C40 1236   5.683   0.502   4.567
   24POPC   C41 1237   5.772   0.614   4.514
   24POPC   C42 1238   5.799   0.594   4.365
   24POPC   C43 1239   5.878   0.711   4.306
   24POPC   C44 1240   5.877   0.703   4.154
   24POPC   C45 1241   5.942   0.827   4.092
   24POPC   C46 1242   5.915   0.830   3.941
   24POPC   C47 1243   5.980   0.710   3.871
   24POPC   C48 1244   5.949   0.713   3.722
   24POPC   C49 1245   5.799   0.695   3.699
   24POPC   C50 1246   5.767   0.693   3.549
   24POPC   C51 1247   5.616   0.682   3.526
   24POPC   C52 1248   5.564   0.548   3.576
   25POPC    C1 1249   4.310   2.520   4.988
   25POPC    C2 1250   4.111   2.396   5.016
   25POPC    C3 1251   4.309   2.289   4.936
   25POPC    N4 1252   4.257   2.390   5.029
   25POPC    C5 1253   4.299   2.363   5.168
   25POPC    C6 1254   4.266   2.226   5.232
   25POPC   OS7 1255   4.126   2.206   5.253
   25POPC    P8 1256   4.078   2.062   5.218
   25POPC   OM9 1257   4.180   1.965   5.260
   25POPC  OM10 1258   3.941   2.058   5.270
   25POPC  OS11 1259   4.071   2.076   5.062
   25POPC   C12 1260   4.010   1.960   5.005
   25POPC   C13 1261   3.970   1.975   4.858
   25POPC  OS14 1262   3.888   1.862   4.814
   25POPC   C15 1263   3.779   1.894   4.739
   25POPC   O16 1264   3.719   2.001   4.755
   25POPC   C17 1265   3.714   1.765   4.690
   25POPC   C18 1266   3.778   1.713   4.561
   25POPC   C19 1267   3.709   1.767   4.436
   25POPC   C20 1268   3.780   1.716   4.311
   25POPC   C21 1269   3.694   1.731   4.185
   25POPC   C22 1270   3.663   1.877   4.155
   25POPC   C23 1271   3.597   1.891   4.017
   25POPC   C24 1272   3.564   2.034   3.984
   25POPC   C25 1273   3.644   2.127   3.930
   25POPC   C26 1274   3.789   2.115   3.891
   25POPC   C27 1275   3.877   2.216   3.966
   25POPC   C28 1276   4.024   2.193   3.934
   25POPC   C29 1277   4.053   2.219   3.786
   25POPC   C30 1278   4.199   2.185   3.753
   25POPC   C31 1279   4.227   2.206   3.604
   25POPC   C32 1280   4.370   2.165   3.569
   25POPC   C33 1281   4.399   2.187   3.421
   25POPC   C34 1282   4.100   1.999   4.778
   25POPC  OS35 1283   4.087   2.029   4.637
   25POPC   C36 1284   4.098   2.158   4.597
   25POPC   O37 1285   4.143   2.250   4.666
   25POPC   C38 1286   4.084   2.166   4.445
   25POPC   C39 1287   3.944   2.126   4.397
   25POPC   C40 1288   3.844   2.240   4.418
   25POPC   C41 1289   3.708   2.207   4.356
   25POPC   C42 1290   3.615   2.327   4.365
   25POPC   C43 1291   3.483   2.304   4.292
   25POPC   C44 1292   3.399   2.432   4.299
   25POPC   C45 1293   3.264   2.418   4.228
   25POPC   C46 1294   3.184   2.547   4.246
   25POPC   C47 1295   3.044   2.540   4.186
   25POPC   C48 1296   3.047   2.543   4.033
   25POPC   C49 1297   2.905   2.560   3.979
   25POPC   C50 1298   2.850   2.697   4.019
   25POPC   C51 1299   2.709   2.720   3.966
   25POPC   C52 1300   2.657   2.858   4.006
   26POPC    C1 1301   3.106   2.411   5.068
   26POPC    C2 1302   3.170   2.564   5.240
   26POPC    C3 1303   2.942   2.539   5.186
   26POPC    N4 1304   3.069   2.466   5.200
   26POPC    C5 1305   3.067   2.361   5.304
   26POPC    C6 1306   2.972   2.239   5.291
   26POPC   OS7 1307   2.834   2.276   5.286
   26POPC    P8 1308   2.739   2.153   5.262
   26POPC   OM9 1309   2.765   2.069   5.379
   26POPC  OM10 1310   2.608   2.218   5.245
   26POPC  OS11 1311   2.796   2.098   5.127
   26POPC   C12 1312   2.741   2.159   5.011
   26POPC   C13 1313   2.811   2.113   4.881
   26POPC  OS14 1314   2.776   2.196   4.767
   26POPC   C15 1315   2.878   2.265   4.708
   26POPC   O16 1316   2.991   2.278   4.757
   26POPC   C17 1317   2.825   2.336   4.584
   26POPC   C18 1318   2.843   2.249   4.459
   26POPC   C19 1319   2.745   2.291   4.349
   26POPC   C20 1320   2.770   2.214   4.220
   26POPC   C21 1321   2.659   2.241   4.118
   26POPC   C22 1322   2.695   2.185   3.981
   26POPC   C23 1323   2.577   2.197   3.884
   26POPC   C24 1324   2.528   2.338   3.868
   26POPC   C25 1325   2.541   2.421   3.764
   26POPC   C26 1326   2.610   2.397   3.633
   26POPC   C27 1327   2.738   2.481   3.622
   26POPC   C28 1328   2.815   2.452   3.494
   26POPC   C29 1329   2.741   2.501   3.370
   26POPC   C30 1330   2.829   2.483   3.246
   26POPC   C31 1331   2.759   2.533   3.120
   26POPC   C32 1332   2.851   2.520   2.999
   26POPC   C33 1333   2.881   2.373   2.969
   26POPC   C34 1334   2.778   1.963   4.866
   26POPC  OS35 1335   2.848   1.896   4.760
   26POPC   C36 1336   2.772   1.831   4.667
   26POPC   O37 1337   2.652   1.806   4.679
   26POPC   C38 1338   2.862   1.774   4.559
   26POPC   C39 1339   2.785   1.734   4.433
   26POPC   C40 1340   2.880   1.671   4.330
   26POPC   C41 1341   2.808   1.632   4.201
   26POPC   C42 1342   2.765   1.755   4.122
   26POPC   C43 1343   2.697   1.715   3.990
   26POPC   C44 1344   2.795   1.650   3.893
   26POPC   C45 1345   2.726   1.620   3.760
   26POPC   C46 1346   2.822   1.564   3.655
   26POPC   C47 1347   2.859   1.418   3.683
   26POPC   C48 1348   2.951   1.363   3.574
   26POPC   C49 1349   2.972   1.212   3.592
   26POPC   C50 1350   3.067   1.152   3.488
   26POPC   C51 1351   3.211   1.197   3.512
   26POPC   C52 1352   3.305   1.130   3.412
   27POPC    C1 1353   5.024   0.608   5.813
   27POPC    C2 1354   5.003   0.758   5.631
   27POPC    C3 1355   5.216   0.662   5.687
   27POPC    N4 1356   5.071   0.637   5.677
   27POPC    C5 1357   5.043   0.520   5.591
   27POPC    C6 1358   5.094   0.524   5.445
   27POPC   OS7 1359   5.093   0.400   5.375
   27POPC    P8 1360   5.177   0.407   5.242
   27POPC   OM9 1361   5.300   0.479   5.278
   27POPC  OM10 1362   5.182   0.270   5.191
   27POPC  OS11 1363   5.081   0.500   5.161
   27POPC   C12 1364   4.988   0.426   5.081
   27POPC   C13 1365   4.859   0.503   5.049
   27POPC  OS14 1366   4.770   0.422   4.967
   27POPC   C15 1367   4.638   0.453   4.960
   27POPC   O16 1368   4.581   0.526   5.043
   27POPC   C17 1369   4.568   0.367   4.858
   27POPC   C18 1370   4.634   0.378   4.721
   27POPC   C19 1371   4.600   0.511   4.653
   27POPC   C20 1372   4.665   0.519   4.515
   27POPC   C21 1373   4.620   0.400   4.430
   27POPC   C22 1374   4.668   0.409   4.285
   27POPC   C23 1375   4.587   0.515   4.209
   27POPC   C24 1376   4.618   0.516   4.062
   27POPC   C25 1377   4.552   0.451   3.965
   27POPC   C26 1378   4.432   0.362   3.979
   27POPC   C27 1379   4.322   0.394   3.879
   27POPC   C28 1380   4.204   0.298   3.896
   27POPC   C29 1381   4.100   0.317   3.786
   27POPC   C30 1382   3.988   0.213   3.799
   27POPC   C31 1383   3.890   0.222   3.682
   27POPC   C32 1384   3.808   0.351   3.687
   27POPC   C33 1385   3.709   0.349   3.804
   27POPC   C34 1386   4.902   0.638   4.985
   27POPC  OS35 1387   4.966   0.626   4.857
   27POPC   C36 1388   4.996   0.740   4.789
   27POPC   O37 1389   4.994   0.854   4.836
   27POPC   C38 1390   5.046   0.705   4.650
   27POPC   C39 1391   5.169   0.786   4.609
   27POPC   C40 1392   5.204   0.752   4.464
   27POPC   C41 1393   5.331   0.820   4.413
   27POPC   C42 1394   5.351   0.781   4.267
   27POPC   C43 1395   5.485   0.829   4.210
   27POPC   C44 1396   5.503   0.779   4.067
   27POPC   C45 1397   5.422   0.860   3.967
   27POPC   C46 1398   5.488   0.997   3.944
   27POPC   C47 1399   5.411   1.079   3.841
   27POPC   C48 1400   5.484   1.211   3.814
   27POPC   C49 1401   5.617   1.186   3.743
   27POPC   C50 1402   5.691   1.318   3.719
   27POPC   C51 1403   5.820   1.296   3.641
   27POPC   C52 1404   5.896   1.428   3.623
   28POPC    C1 1405   6.120   1.223   5.261
   28POPC    C2 1406   6.119   1.343   5.058
   28POPC    C3 1407   5.917   1.237   5.138
   28POPC    N4 1408   6.039   1.311   5.177
   28POPC    C5 1409   6.008   1.432   5.256
   28POPC    C6 1410   5.919   1.546   5.201
   28POPC   OS7 1411   5.974   1.622   5.094
   28POPC    P8 1412   5.869   1.723   5.034
   28POPC   OM9 1413   5.806   1.785   5.152
   28POPC  OM10 1414   5.949   1.805   4.941
   28POPC  OS11 1415   5.783   1.614   4.962
   28POPC   C12 1416   5.831   1.582   4.831
   28POPC   C13 1417   5.820   1.432   4.801
   28POPC  OS14 1418   5.910   1.387   4.696
   28POPC   C15 1419   5.968   1.265   4.716
   28POPC   O16 1420   5.956   1.203   4.822
   28POPC   C17 1421   6.053   1.222   4.599
   28POPC   C18 1422   6.184   1.301   4.588
   28POPC   C19 1423   6.263   1.249   4.468
   28POPC   C20 1424   6.185   1.276   4.340
   28POPC   C21 1425   6.243   1.197   4.222
   28POPC   C22 1426   6.161   1.221   4.096
   28POPC   C23 1427   6.208   1.129   3.982
   28POPC   C24 1428   6.124   1.147   3.859
   28POPC   C25 1429   6.160   1.125   3.732
   28POPC   C26 1430   6.292   1.077   3.680
   28POPC   C27 1431   6.319   1.129   3.538
   28POPC   C28 1432   6.214   1.076   3.441
   28POPC   C29 1433   6.236   1.132   3.300
   28POPC   C30 1434   0.032   1.082   3.239
   28POPC   C31 1435   0.054   1.145   3.102
   28POPC   C32 1436   0.186   1.098   3.040
   28POPC   C33 1437   0.211   1.168   2.906
   28POPC   C34 1438   5.670   1.399   4.787
   28POPC  OS35 1439   5.600   1.466   4.681
   28POPC   C36 1440   5.476   1.420   4.653
   28POPC   O37 1441   5.414   1.337   4.721
   28POPC   C38 1442   5.418   1.493   4.532
   28POPC   C39 1443   5.300   1.418   4.468
   28POPC   C40 1444   5.346   1.289   4.400
   28POPC   C41 1445   5.237   1.228   4.312
   28POPC   C42 1446   5.219   1.312   4.186
   28POPC   C43 1447   5.112   1.255   4.093
   28POPC   C44 1448   5.101   1.341   3.967
   28POPC   C45 1449   4.992   1.291   3.872
   28POPC   C46 1450   4.989   1.378   3.746
   28POPC   C47 1451   5.114   1.354   3.662
   28POPC   C48 1452   5.122   1.452   3.545
   28POPC   C49 1453   5.243   1.423   3.457
   28POPC   C50 1454   5.221   1.295   3.375
   28POPC   C51 1455   5.343   1.262   3.289
   28POPC   C52 1456   5.459   1.214   3.376
   29POPC    C1 1457   5.456   0.108   5.231
   29POPC    C2 1458   5.396   0.106   5.000
   29POPC    C3 1459   5.565   6.364   5.082
   29POPC    N4 1460   5.436   0.022   5.114
   29POPC    C5 1461   5.335   6.320   5.136
   29POPC    C6 1462   5.194   6.361   5.182
   29POPC   OS7 1463   5.100   6.254   5.188
   29POPC    P8 1464   4.987   6.277   5.295
   29POPC   OM9 1465   4.917   6.150   5.319
   29POPC  OM10 1466   5.048   6.351   5.406
   29POPC  OS11 1467   4.895   6.373   5.209
   29POPC   C12 1468   4.817   6.300   5.114
   29POPC   C13 1469   4.771   6.379   4.991
   29POPC  OS14 1470   4.685   6.299   4.905
   29POPC   C15 1471   4.562   6.349   4.874
   29POPC   O16 1472   4.508   0.037   4.935
   29POPC   C17 1473   4.491   6.254   4.779
   29POPC   C18 1474   4.428   6.325   4.659
   29POPC   C19 1475   4.536   6.377   4.564
   29POPC   C20 1476   4.477   0.029   4.435
   29POPC   C21 1477   4.422   6.323   4.345
   29POPC   C22 1478   4.374   6.379   4.211
   29POPC   C23 1479   4.326   6.268   4.118
   29POPC   C24 1480   4.285   6.320   3.983
   29POPC   C25 1481   4.353   6.316   3.868
   29POPC   C26 1482   4.489   6.256   3.843
   29POPC   C27 1483   4.599   6.362   3.833
   29POPC   C28 1484   4.581   0.046   3.711
   29POPC   C29 1485   4.694   0.150   3.703
   29POPC   C30 1486   4.680   0.239   3.579
   29POPC   C31 1487   4.794   0.340   3.572
   29POPC   C32 1488   4.783   0.427   3.446
   29POPC   C33 1489   4.898   0.528   3.440
   29POPC   C34 1490   4.903   0.022   4.926
   29POPC  OS35 1491   4.897   0.102   4.806
   29POPC   C36 1492   5.019   0.147   4.766
   29POPC   O37 1493   5.125   0.121   4.822
   29POPC   C38 1494   5.008   0.224   4.635
   29POPC   C39 1495   5.143   0.286   4.600
   29POPC   C40 1496   5.155   0.311   4.450
   29POPC   C41 1497   5.294   0.366   4.415
   29POPC   C42 1498   5.323   0.348   4.266
   29POPC   C43 1499   5.464   0.395   4.231
   29POPC   C44 1500   5.510   0.329   4.101
   29POPC   C45 1501   5.648   0.377   4.057
   29POPC   C46 1502   5.706   0.277   3.956
   29POPC   C47 1503   5.610   0.257   3.839
   29POPC   C48 1504   5.658   0.145   3.747
   29POPC   C49 1505   5.553   0.113   3.641
   29POPC   C50 1506   5.599   6.403   3.551
   29POPC   C51 1507   5.490   6.366   3.451
   29POPC   C52 1508   5.536   6.255   3.357
   30POPC    C1 1509   5.148   1.319   5.395
   30POPC    C2 1510   5.221   1.326   5.624
   30POPC    C3 1511   5.108   1.136   5.541
   30POPC    N4 1512   5.205   1.240   5.505
   30POPC    C5 1513   5.331   1.173   5.468
   30POPC    C6 1514   5.454   1.253   5.417
   30POPC   OS7 1515   5.439   1.313   5.288
   30POPC    P8 1516   5.572   1.378   5.233
   30POPC   OM9 1517   5.673   1.384   5.341
   30POPC  OM10 1518   5.603   1.314   5.105
   30POPC  OS11 1519   5.518   1.523   5.210
   30POPC   C12 1520   5.458   1.540   5.082
   30POPC   C13 1521   5.379   1.671   5.065
   30POPC  OS14 1522   5.293   1.670   4.948
   30POPC   C15 1523   5.201   1.770   4.932
   30POPC   O16 1524   5.148   1.827   5.029
   30POPC   C17 1525   5.150   1.772   4.789
   30POPC   C18 1526   5.080   1.904   4.756
   30POPC   C19 1527   5.050   1.916   4.606
   30POPC   C20 1528   4.972   2.044   4.576
   30POPC   C21 1529   4.946   2.064   4.427
   30POPC   C22 1530   5.073   2.107   4.352
   30POPC   C23 1531   5.040   2.142   4.207
   30POPC   C24 1532   5.160   2.193   4.132
   30POPC   C25 1533   5.205   2.153   4.012
   30POPC   C26 1534   5.149   2.049   3.920
   30POPC   C27 1535   5.206   2.061   3.779
   30POPC   C28 1536   5.154   1.950   3.686
   30POPC   C29 1537   5.214   1.964   3.546
   30POPC   C30 1538   5.165   1.853   3.454
   30POPC   C31 1539   5.218   1.871   3.312
   30POPC   C32 1540   5.168   1.759   3.220
   30POPC   C33 1541   5.016   1.768   3.200
   30POPC   C34 1542   5.483   1.785   5.074
   30POPC  OS35 1543   5.558   1.812   4.954
   30POPC   C36 1544   5.542   1.937   4.902
   30POPC   O37 1545   5.467   2.023   4.949
   30POPC   C38 1546   5.618   1.951   4.771
   30POPC   C39 1547   5.527   1.903   4.657
   30POPC   C40 1548   5.590   1.928   4.520
   30POPC   C41 1549   5.492   1.885   4.410
   30POPC   C42 1550   5.547   1.914   4.271
   30POPC   C43 1551   5.445   1.871   4.165
   30POPC   C44 1552   5.432   1.718   4.161
   30POPC   C45 1553   5.328   1.674   4.058
   30POPC   C46 1554   5.370   1.712   3.916
   30POPC   C47 1555   5.488   1.629   3.866
   30POPC   C48 1556   5.538   1.686   3.733
   30POPC   C49 1557   5.599   1.825   3.755
   30POPC   C50 1558   5.647   1.887   3.624
   30POPC   C51 1559   5.707   2.025   3.648
   30POPC   C52 1560   5.600   2.124   3.696
   31POPC    C1 1561   0.331   1.040   5.022
   31POPC    C2 1562   0.215   1.098   5.220
   31POPC    C3 1563   0.409   0.962   5.234
   31POPC    N4 1564   0.349   1.076   5.163
   31POPC    C5 1565   0.429   1.201   5.180
   31POPC    C6 1566   0.580   1.201   5.147
   31POPC   OS7 1567   0.612   1.176   5.010
   31POPC    P8 1568   0.753   1.107   4.995
   31POPC   OM9 1569   0.856   1.208   4.966
   31POPC  OM10 1570   0.766   1.013   5.107
   31POPC  OS11 1571   0.725   1.026   4.865
   31POPC   C12 1572   0.842   0.957   4.823
   31POPC   C13 1573   0.824   0.873   4.695
   31POPC  OS14 1574   0.949   0.812   4.652
   31POPC   C15 1575   0.947   0.677   4.632
   31POPC   O16 1576   0.866   0.602   4.688
   31POPC   C17 1577   1.076   0.629   4.567
   31POPC   C18 1578   1.106   0.710   4.441
   31POPC   C19 1579   1.238   0.665   4.378
   31POPC   C20 1580   1.279   0.758   4.264
   31POPC   C21 1581   1.306   0.898   4.319
   31POPC   C22 1582   1.374   0.986   4.214
   31POPC   C23 1583   1.405   1.125   4.271
   31POPC   C24 1584   1.501   1.202   4.185
   31POPC   C25 1585   1.476   1.286   4.083
   31POPC   C26 1586   1.344   1.326   4.024
   31POPC   C27 1587   1.360   1.368   3.878
   31POPC   C28 1588   1.412   1.252   3.792
   31POPC   C29 1589   1.439   1.298   3.649
   31POPC   C30 1590   1.491   1.183   3.563
   31POPC   C31 1591   1.628   1.136   3.613
   31POPC   C32 1592   1.684   1.025   3.524
   31POPC   C33 1593   1.816   0.971   3.579
   31POPC   C34 1594   0.764   0.971   4.591
   31POPC  OS35 1595   0.713   0.914   4.469
   31POPC   C36 1596   0.581   0.884   4.466
   31POPC   O37 1597   0.506   0.888   4.565
   31POPC   C38 1598   0.539   0.836   4.329
   31POPC   C39 1599   0.386   0.837   4.315
   31POPC   C40 1600   0.331   0.979   4.298
   31POPC   C41 1601   0.347   1.031   4.156
   31POPC   C42 1602   0.294   1.174   4.148
   31POPC   C43 1603   0.277   1.224   4.005
   31POPC   C44 1604   0.219   1.366   4.006
   31POPC   C45 1605   0.169   1.408   3.868
   31POPC   C46 1606   0.283   1.431   3.770
   31POPC   C47 1607   0.225   1.465   3.632
   31POPC   C48 1608   0.147   1.596   3.636
   31POPC   C49 1609   0.073   1.620   3.504
   31POPC   C50 1610   6.303   1.510   3.483
   31POPC   C51 1611   6.219   1.537   3.358
   31POPC   C52 1612   6.122   1.653   3.382
   32POPC    C1 1613   0.302   2.502   5.283
   32POPC    C2 1614   0.495   2.427   5.162
   32POPC    C3 1615   0.484   2.406   5.398
   32POPC    N4 1616   0.406   2.399   5.275
   32POPC    C5 1617   0.347   2.263   5.266
   32POPC    C6 1618   0.263   2.224   5.141
   32POPC   OS7 1619   0.219   2.089   5.137
   32POPC    P8 1620   0.321   1.987   5.074
   32POPC   OM9 1621   0.447   2.056   5.043
   32POPC  OM10 1622   0.316   1.867   5.157
   32POPC  OS11 1623   0.240   1.960   4.941
   32POPC   C12 1624   0.317   1.965   4.820
   32POPC   C13 1625   0.394   1.838   4.782
   32POPC  OS14 1626   0.477   1.858   4.665
   32POPC   C15 1627   0.612   1.864   4.685
   32POPC   O16 1628   0.663   1.833   4.792
   32POPC   C17 1629   0.683   1.880   4.552
   32POPC   C18 1630   0.816   1.954   4.563
   32POPC   C19 1631   0.878   1.962   4.424
   32POPC   C20 1632   0.784   2.038   4.330
   32POPC   C21 1633   0.833   2.037   4.186
   32POPC   C22 1634   0.959   2.123   4.168
   32POPC   C23 1635   1.000   2.125   4.021
   32POPC   C24 1636   1.119   2.213   3.996
   32POPC   C25 1637   1.235   2.180   3.939
   32POPC   C26 1638   1.279   2.046   3.885
   32POPC   C27 1639   1.254   2.033   3.735
   32POPC   C28 1640   1.333   2.135   3.653
   32POPC   C29 1641   1.307   2.113   3.504
   32POPC   C30 1642   1.161   2.142   3.471
   32POPC   C31 1643   1.130   2.109   3.324
   32POPC   C32 1644   0.985   2.141   3.291
   32POPC   C33 1645   0.889   2.052   3.370
   32POPC   C34 1646   0.291   1.723   4.769
   32POPC  OS35 1647   0.192   1.740   4.666
   32POPC   C36 1648   0.124   1.628   4.630
   32POPC   O37 1649   0.135   1.519   4.687
   32POPC   C38 1650   0.031   1.657   4.513
   32POPC   C39 1651   6.272   1.774   4.543
   32POPC   C40 1652   6.192   1.811   4.418
   32POPC   C41 1653   6.103   1.933   4.443
   32POPC   C42 1654   6.034   1.976   4.313
   32POPC   C43 1655   5.945   2.098   4.335
   32POPC   C44 1656   5.877   2.142   4.205
   32POPC   C45 1657   5.979   2.197   4.105
   32POPC   C46 1658   5.911   2.237   3.975
   32POPC   C47 1659   6.013   2.297   3.877
   32POPC   C48 1660   5.945   2.339   3.746
   32POPC   C49 1661   6.047   2.403   3.651
   32POPC   C50 1662   5.982   2.447   3.520
   32POPC   C51 1663   6.082   2.520   3.431
   32POPC   C52 1664   6.194   2.426   3.386
   33POPC    C1 1665   1.936   5.515   1.191
   33POPC    C2 1666   2.171   5.542   1.177
   33POPC    C3 1667   2.027   5.733   1.185
   33POPC    N4 1668   2.048   5.597   1.236
   33POPC    C5 1669   2.049   5.595   1.384
   33POPC    C6 1670   2.160   5.671   1.461
   33POPC   OS7 1671   2.288   5.607   1.459
   33POPC    P8 1672   2.407   5.710   1.453
   33POPC   OM9 1673   2.442   5.704   1.310
   33POPC  OM10 1674   2.362   5.835   1.515
   33POPC  OS11 1675   2.516   5.633   1.536
   33POPC   C12 1676   2.480   5.617   1.674
   33POPC   C13 1677   2.569   5.515   1.745
   33POPC  OS14 1678   2.506   5.455   1.861
   33POPC   C15 1679   2.561   5.342   1.914
   33POPC   O16 1680   2.660   5.286   1.866
   33POPC   C17 1681   2.477   5.291   2.030
   33POPC   C18 1682   2.559   5.276   2.159
   33POPC   C19 1683   2.594   5.413   2.218
   33POPC   C20 1684   2.658   5.396   2.356
   33POPC   C21 1685   2.787   5.315   2.347
   33POPC   C22 1686   2.848   5.293   2.485
   33POPC   C23 1687   2.967   5.198   2.475
   33POPC   C24 1688   2.924   5.061   2.430
   33POPC   C25 1689   2.924   4.947   2.502
   33POPC   C26 1690   2.966   4.930   2.644
   33POPC   C27 1691   3.066   4.815   2.661
   33POPC   C28 1692   3.112   4.805   2.806
   33POPC   C29 1693   3.202   4.923   2.845
   33POPC   C30 1694   3.246   4.909   2.991
   33POPC   C31 1695   3.346   5.017   3.032
   33POPC   C32 1696   3.389   4.996   3.178
   33POPC   C33 1697   3.497   5.096   3.219
   33POPC   C34 1698   2.706   5.584   1.765
   33POPC  OS35 1699   2.711   5.691   1.861
   33POPC   C36 1700   2.792   5.668   1.968
   33POPC   O37 1701   2.863   5.568   1.982
   33POPC   C38 1702   2.787   5.784   2.065
   33POPC   C39 1703   2.879   5.757   2.184
   33POPC   C40 1704   2.864   5.865   2.291
   33POPC   C41 1705   2.956   5.836   2.409
   33POPC   C42 1706   2.914   5.707   2.479
   33POPC   C43 1707   3.009   5.674   2.595
   33POPC   C44 1708   3.148   5.640   2.541
   33POPC   C45 1709   3.242   5.598   2.654
   33POPC   C46 1710   3.267   5.713   2.752
   33POPC   C47 1711   3.374   5.673   2.854
   33POPC   C48 1712   3.325   5.558   2.943
   33POPC   C49 1713   3.442   5.501   3.024
   33POPC   C50 1714   3.541   5.432   2.931
   33POPC   C51 1715   3.662   5.379   3.008
   33POPC   C52 1716   3.745   5.494   3.065
   34POPC    C1 1717   2.936   5.527   1.215
   34POPC    C2 1718   2.906   5.506   1.448
   34POPC    C3 1719   3.078   5.649   1.360
   34POPC    N4 1720   2.940   5.600   1.341
   34POPC    C5 1721   2.844   5.712   1.331
   34POPC    C6 1722   2.830   5.814   1.446
   34POPC   OS7 1723   2.740   5.920   1.415
   34POPC    P8 1724   2.739   6.028   1.529
   34POPC   OM9 1725   2.876   6.054   1.574
   34POPC  OM10 1726   2.656   6.139   1.477
   34POPC  OS11 1727   2.660   5.949   1.639
   34POPC   C12 1728   2.646   6.020   1.762
   34POPC   C13 1729   2.517   6.102   1.771
   34POPC  OS14 1730   2.518   6.205   1.874
   34POPC   C15 1731   2.422   6.302   1.866
   34POPC   O16 1732   2.362   6.325   1.761
   34POPC   C17 1733   2.422   6.390   1.990
   34POPC   C18 1734   2.538   0.085   1.989
   34POPC   C19 1735   2.555   0.150   2.126
   34POPC   C20 1736   2.673   0.248   2.126
   34POPC   C21 1737   2.704   0.296   2.269
   34POPC   C22 1738   2.591   0.383   2.325
   34POPC   C23 1739   2.614   0.421   2.472
   34POPC   C24 1740   2.728   0.516   2.494
   34POPC   C25 1741   2.846   0.493   2.555
   34POPC   C26 1742   2.893   0.363   2.614
   34POPC   C27 1743   2.992   0.382   2.730
   34POPC   C28 1744   2.924   0.440   2.854
   34POPC   C29 1745   3.026   0.456   2.968
   34POPC   C30 1746   3.080   0.321   3.015
   34POPC   C31 1747   2.973   0.238   3.087
   34POPC   C32 1748   3.030   0.103   3.132
   34POPC   C33 1749   3.067   0.016   3.012
   34POPC   C34 1750   2.401   6.001   1.774
   34POPC  OS35 1751   2.382   5.921   1.892
   34POPC   C36 1752   2.254   5.880   1.911
   34POPC   O37 1753   2.159   5.911   1.839
   34POPC   C38 1754   2.244   5.794   2.036
   34POPC   C39 1755   2.315   5.861   2.154
   34POPC   C40 1756   2.325   5.765   2.272
   34POPC   C41 1757   2.403   5.829   2.388
   34POPC   C42 1758   2.432   5.724   2.495
   34POPC   C43 1759   2.519   5.781   2.608
   34POPC   C44 1760   2.568   5.666   2.696
   34POPC   C45 1761   2.661   5.715   2.808
   34POPC   C46 1762   2.721   5.594   2.881
   34POPC   C47 1763   2.817   5.637   2.992
   34POPC   C48 1764   2.742   5.699   3.110
   34POPC   C49 1765   2.839   5.732   3.224
   34POPC   C50 1766   2.938   5.841   3.181
   34POPC   C51 1767   3.031   5.880   3.296
   34POPC   C52 1768   3.125   5.992   3.253
   35POPC    C1 1769   3.051   5.345   1.798
   35POPC    C2 1770   3.148   5.395   2.012
   35POPC    C3 1771   2.977   5.234   1.994
   35POPC    N4 1772   3.095   5.288   1.927
   35POPC    C5 1773   3.195   5.180   1.910
   35POPC    C6 1774   3.325   5.202   1.829
   35POPC   OS7 1775   3.413   5.304   1.875
   35POPC    P8 1776   3.547   5.297   1.794
   35POPC   OM9 1777   3.607   5.166   1.824
   35POPC  OM10 1778   3.511   5.333   1.655
   35POPC  OS11 1779   3.630   5.415   1.855
   35POPC   C12 1780   3.701   5.376   1.973
   35POPC   C13 1781   3.802   5.482   2.021
   35POPC  OS14 1782   3.889   5.440   2.128
   35POPC   C15 1783   4.021   5.473   2.118
   35POPC   O16 1784   4.069   5.529   2.019
   35POPC   C17 1785   4.095   5.435   2.245
   35POPC   C18 1786   4.244   5.469   2.236
   35POPC   C19 1787   4.311   5.449   2.372
   35POPC   C20 1788   4.463   5.464   2.358
   35POPC   C21 1789   4.535   5.442   2.491
   35POPC   C22 1790   4.533   5.566   2.580
   35POPC   C23 1791   4.624   5.545   2.702
   35POPC   C24 1792   4.643   5.670   2.782
   35POPC   C25 1793   4.601   5.696   2.907
   35POPC   C26 1794   4.526   5.604   2.998
   35POPC   C27 1795   4.553   5.632   3.146
   35POPC   C28 1796   4.505   5.771   3.188
   35POPC   C29 1797   4.499   5.782   3.340
   35POPC   C30 1798   4.453   5.920   3.385
   35POPC   C31 1799   4.417   5.918   3.534
   35POPC   C32 1800   4.537   5.881   3.620
   35POPC   C33 1801   4.497   5.868   3.767
   35POPC   C34 1802   3.723   5.611   2.050
   35POPC  OS35 1803   3.601   5.600   2.126
   35POPC   C36 1804   3.510   5.697   2.104
   35POPC   O37 1805   3.525   5.786   2.019
   35POPC   C38 1806   3.386   5.677   2.189
   35POPC   C39 1807   3.306   5.807   2.202
   35POPC   C40 1808   3.375   5.906   2.297
   35POPC   C41 1809   3.295   6.036   2.306
   35POPC   C42 1810   3.360   6.132   2.407
   35POPC   C43 1811   3.350   6.075   2.548
   35POPC   C44 1812   3.412   6.170   2.650
   35POPC   C45 1813   3.401   6.112   2.792
   35POPC   C46 1814   3.462   6.208   2.894
   35POPC   C47 1815   3.450   6.153   3.036
   35POPC   C48 1816   3.538   6.030   3.056
   35POPC   C49 1817   3.531   5.980   3.200
   35POPC   C50 1818   3.624   5.860   3.222
   35POPC   C51 1819   3.619   5.816   3.368
   35POPC   C52 1820   3.714   5.698   3.394
   36POPC    C1 1821   3.816   0.080   1.411
   36POPC    C2 1822   3.846   6.250   1.436
   36POPC    C3 1823   3.774   6.341   1.229
   36POPC    N4 1824   3.862   6.363   1.344
   36POPC    C5 1825   4.001   6.378   1.295
   36POPC    C6 1826   4.118   6.397   1.395
   36POPC   OS7 1827   4.150   6.281   1.472
   36POPC    P8 1828   4.258   6.315   1.581
   36POPC   OM9 1829   4.387   6.317   1.512
   36POPC  OM10 1830   4.212   0.030   1.653
   36POPC  OS11 1831   4.243   6.186   1.669
   36POPC   C12 1832   4.131   6.194   1.758
   36POPC   C13 1833   4.116   6.073   1.852
   36POPC  OS14 1834   4.003   6.091   1.942
   36POPC   C15 1835   3.920   5.986   1.965
   36POPC   O16 1836   3.903   5.897   1.881
   36POPC   C17 1837   3.826   6.014   2.081
   36POPC   C18 1838   3.903   6.072   2.199
   36POPC   C19 1839   3.998   5.968   2.259
   36POPC   C20 1840   4.105   6.038   2.342
   36POPC   C21 1841   4.214   5.942   2.390
   36POPC   C22 1842   4.331   6.023   2.444
   36POPC   C23 1843   4.443   5.933   2.498
   36POPC   C24 1844   4.562   6.013   2.543
   36POPC   C25 1845   4.588   6.059   2.666
   36POPC   C26 1846   4.506   6.045   2.791
   36POPC   C27 1847   4.477   6.180   2.856
   36POPC   C28 1848   4.401   6.163   2.987
   36POPC   C29 1849   4.384   6.298   3.057
   36POPC   C30 1850   4.321   6.281   3.196
   36POPC   C31 1851   4.314   0.012   3.267
   36POPC   C32 1852   4.257   6.401   3.408
   36POPC   C33 1853   4.251   0.132   3.479
   36POPC   C34 1854   4.251   6.064   1.926
   36POPC  OS35 1855   4.287   5.935   1.979
   36POPC   C36 1856   4.396   5.877   1.921
   36POPC   O37 1857   4.453   5.920   1.820
   36POPC   C38 1858   4.431   5.747   1.992
   36POPC   C39 1859   4.574   5.704   1.958
   36POPC   C40 1860   4.680   5.785   2.032
   36POPC   C41 1861   4.698   5.735   2.176
   36POPC   C42 1862   4.807   5.813   2.248
   36POPC   C43 1863   4.841   5.747   2.382
   36POPC   C44 1864   4.951   5.824   2.456
   36POPC   C45 1865   4.996   5.746   2.580
   36POPC   C46 1866   5.110   5.818   2.653
   36POPC   C47 1867   5.061   5.935   2.738
   36POPC   C48 1868   4.983   5.883   2.860
   36POPC   C49 1869   4.952   5.996   2.958
   36POPC   C50 1870   4.875   5.943   3.080
   36POPC   C51 1871   4.859   6.052   3.186
   36POPC   C52 1872   4.771   6.166   3.135
   37POPC    C1 1873   1.159   3.780   1.123
   37POPC    C2 1874   1.019   3.591   1.152
   37POPC    C3 1875   1.219   3.568   1.030
   37POPC    N4 1876   1.158   3.635   1.145
   37POPC    C5 1877   1.226   3.597   1.272
   37POPC    C6 1878   1.377   3.627   1.290
   37POPC   OS7 1879   1.411   3.765   1.300
   37POPC    P8 1880   1.565   3.787   1.312
   37POPC   OM9 1881   1.632   3.702   1.211
   37POPC  OM10 1882   1.592   3.931   1.313
   37POPC  OS11 1883   1.591   3.730   1.455
   37POPC   C12 1884   1.551   3.821   1.557
   37POPC   C13 1885   1.529   3.760   1.696
   37POPC  OS14 1886   1.478   3.857   1.792
   37POPC   C15 1887   1.345   3.889   1.792
   37POPC   O16 1888   1.272   3.877   1.693
   37POPC   C17 1889   1.318   3.981   1.909
   37POPC   C18 1890   1.168   4.000   1.934
   37POPC   C19 1891   1.106   3.878   2.003
   37POPC   C20 1892   1.140   3.873   2.152
   37POPC   C21 1893   1.079   3.748   2.215
   37POPC   C22 1894   1.103   3.741   2.366
   37POPC   C23 1895   1.017   3.844   2.439
   37POPC   C24 1896   1.028   3.830   2.588
   37POPC   C25 1897   1.074   3.920   2.677
   37POPC   C26 1898   1.127   4.058   2.649
   37POPC   C27 1899   1.257   4.085   2.725
   37POPC   C28 1900   1.234   4.076   2.876
   37POPC   C29 1901   1.364   4.094   2.954
   37POPC   C30 1902   1.339   4.082   3.104
   37POPC   C31 1903   1.469   4.088   3.184
   37POPC   C32 1904   1.532   4.227   3.175
   37POPC   C33 1905   1.662   4.233   3.256
   37POPC   C34 1906   1.664   3.695   1.731
   37POPC  OS35 1907   1.678   3.620   1.854
   37POPC   C36 1908   1.802   3.570   1.876
   37POPC   O37 1909   1.899   3.588   1.800
   37POPC   C38 1910   1.809   3.495   2.008
   37POPC   C39 1911   1.849   3.586   2.123
   37POPC   C40 1912   1.857   3.510   2.256
   37POPC   C41 1913   1.876   3.606   2.373
   37POPC   C42 1914   1.875   3.536   2.509
   37POPC   C43 1915   1.878   3.640   2.621
   37POPC   C44 1916   1.883   3.577   2.760
   37POPC   C45 1917   1.887   3.686   2.867
   37POPC   C46 1918   1.918   3.626   3.005
   37POPC   C47 1919   1.936   3.735   3.111
   37POPC   C48 1920   1.986   3.674   3.242
   37POPC   C49 1921   2.007   3.780   3.350
   37POPC   C50 1922   1.874   3.835   3.401
   37POPC   C51 1923   1.897   3.937   3.513
   37POPC   C52 1924   1.764   3.990   3.567
   38POPC    C1 1925   2.878   5.166   0.787
   38POPC    C2 1926   2.720   5.223   0.954
   38POPC    C3 1927   2.720   5.004   0.856
   38POPC    N4 1928   2.805   5.115   0.903
   38POPC    C5 1929   2.907   5.074   1.001
   38POPC    C6 1930   2.867   4.991   1.126
   38POPC   OS7 1931   2.841   4.854   1.098
   38POPC    P8 1932   2.763   4.783   1.214
   38POPC   OM9 1933   2.677   4.879   1.285
   38POPC  OM10 1934   2.708   4.661   1.155
   38POPC  OS11 1935   2.884   4.748   1.306
   38POPC   C12 1936   2.836   4.680   1.422
   38POPC   C13 1937   2.939   4.659   1.535
   38POPC  OS14 1938   2.888   4.578   1.644
   38POPC   C15 1939   2.897   4.442   1.642
   38POPC   O16 1940   2.948   4.376   1.551
   38POPC   C17 1941   2.837   4.386   1.770
   38POPC   C18 1942   2.839   4.233   1.776
   38POPC   C19 1943   2.782   4.187   1.911
   38POPC   C20 1944   2.634   4.221   1.921
   38POPC   C21 1945   2.580   4.199   2.062
   38POPC   C22 1946   2.588   4.052   2.103
   38POPC   C23 1947   2.519   4.026   2.238
   38POPC   C24 1948   2.584   4.094   2.354
   38POPC   C25 1949   2.534   4.188   2.435
   38POPC   C26 1950   2.398   4.252   2.430
   38POPC   C27 1951   2.302   4.197   2.535
   38POPC   C28 1952   2.358   4.216   2.676
   38POPC   C29 1953   2.259   4.166   2.782
   38POPC   C30 1954   2.326   4.161   2.919
   38POPC   C31 1955   2.231   4.107   3.026
   38POPC   C32 1956   2.123   4.209   3.061
   38POPC   C33 1957   2.033   4.157   3.172
   38POPC   C34 1958   2.983   4.800   1.579
   38POPC  OS35 1959   2.876   4.882   1.632
   38POPC   C36 1960   2.875   4.899   1.767
   38POPC   O37 1961   2.977   4.915   1.835
   38POPC   C38 1962   2.737   4.949   1.807
   38POPC   C39 1963   2.685   4.880   1.933
   38POPC   C40 1964   2.656   4.732   1.905
   38POPC   C41 1965   2.578   4.670   2.021
   38POPC   C42 1966   2.656   4.676   2.152
   38POPC   C43 1967   2.567   4.627   2.267
   38POPC   C44 1968   2.634   4.643   2.403
   38POPC   C45 1969   2.536   4.604   2.513
   38POPC   C46 1970   2.597   4.617   2.653
   38POPC   C47 1971   2.495   4.575   2.758
   38POPC   C48 1972   2.551   4.588   2.900
   38POPC   C49 1973   2.453   4.528   3.001
   38POPC   C50 1974   2.511   4.531   3.143
   38POPC   C51 1975   2.420   4.458   3.241
   38POPC   C52 1976   2.286   4.530   3.257
   39POPC    C1 1977   2.843   2.593   0.985
   39POPC    C2 1978   3.001   2.705   1.124
   39POPC    C3 1979   3.027   2.711   0.890
   39POPC    N4 1980   2.927   2.713   0.997
   39POPC    C5 1981   2.848   2.838   0.986
   39POPC    C6 1982   2.726   2.859   1.078
   39POPC   OS7 1983   2.758   2.871   1.217
   39POPC    P8 1984   2.647   2.801   1.302
   39POPC   OM9 1985   2.524   2.877   1.275
   39POPC  OM10 1986   2.664   2.658   1.272
   39POPC  OS11 1987   2.703   2.838   1.444
   39POPC   C12 1988   2.772   2.728   1.505
   39POPC   C13 1989   2.830   2.754   1.645
   39POPC  OS14 1990   2.894   2.636   1.699
   39POPC   C15 1991   3.019   2.657   1.749
   39POPC   O16 1992   3.096   2.735   1.694
   39POPC   C17 1993   3.061   2.541   1.838
   39POPC   C18 1994   3.153   2.591   1.950
   39POPC   C19 1995   3.076   2.676   2.052
   39POPC   C20 1996   3.171   2.737   2.155
   39POPC   C21 1997   3.228   2.631   2.250
   39POPC   C22 1998   3.335   2.692   2.342
   39POPC   C23 1999   3.277   2.793   2.441
   39POPC   C24 2000   3.189   2.730   2.545
   39POPC   C25 2001   3.209   2.726   2.677
   39POPC   C26 2002   3.324   2.782   2.756
   39POPC   C27 2003   3.340   2.713   2.891
   39POPC   C28 2004   3.215   2.735   2.977
   39POPC   C29 2005   3.226   2.670   3.115
   39POPC   C30 2006   3.331   2.740   3.201
   39POPC   C31 2007   3.329   2.686   3.344
   39POPC   C32 2008   3.437   2.753   3.429
   39POPC   C33 2009   3.412   2.904   3.442
   39POPC   C34 2010   2.714   2.807   1.731
   39POPC  OS35 2011   2.748   2.848   1.865
   39POPC   C36 2012   2.653   2.920   1.930
   39POPC   O37 2013   2.539   2.938   1.886
   39POPC   C38 2014   2.699   2.961   2.069
   39POPC   C39 2015   2.583   3.022   2.148
   39POPC   C40 2016   2.622   3.047   2.294
   39POPC   C41 2017   2.505   3.108   2.371
   39POPC   C42 2018   2.539   3.120   2.520
   39POPC   C43 2019   2.424   3.184   2.599
   39POPC   C44 2020   2.451   3.179   2.749
   39POPC   C45 2021   2.343   3.254   2.827
   39POPC   C46 2022   2.204   3.198   2.796
   39POPC   C47 2023   2.099   3.256   2.891
   39POPC   C48 2024   2.106   3.188   3.028
   39POPC   C49 2025   2.000   3.243   3.124
   39POPC   C50 2026   1.997   3.162   3.254
   39POPC   C51 2027   2.124   3.183   3.337
   39POPC   C52 2028   2.129   3.324   3.395
   40POPC    C1 2029   5.582   4.441   1.185
   40POPC    C2 2030   5.560   4.511   1.409
   40POPC    C3 2031   5.520   4.666   1.230
   40POPC    N4 2032   5.503   4.527   1.275
   40POPC    C5 2033   5.362   4.483   1.271
   40POPC    C6 2034   5.253   4.564   1.346
   40POPC   OS7 2035   5.266   4.565   1.488
   40POPC    P8 2036   5.171   4.667   1.560
   40POPC   OM9 2037   5.092   4.740   1.460
   40POPC  OM10 2038   5.104   4.605   1.675
   40POPC  OS11 2039   5.282   4.768   1.610
   40POPC   C12 2040   5.351   4.718   1.724
   40POPC   C13 2041   5.414   4.828   1.810
   40POPC  OS14 2042   5.509   4.781   1.910
   40POPC   C15 2043   5.626   4.850   1.920
   40POPC   O16 2044   5.671   4.914   1.825
   40POPC   C17 2045   5.706   4.802   2.041
   40POPC   C18 2046   5.648   4.859   2.171
   40POPC   C19 2047   5.672   5.009   2.179
   40POPC   C20 2048   5.611   5.069   2.307
   40POPC   C21 2049   5.688   5.026   2.432
   40POPC   C22 2050   5.632   5.100   2.554
   40POPC   C23 2051   5.705   5.061   2.683
   40POPC   C24 2052   5.650   5.136   2.801
   40POPC   C25 2053   5.717   5.196   2.900
   40POPC   C26 2054   5.866   5.203   2.921
   40POPC   C27 2055   5.913   5.100   3.023
   40POPC   C28 2056   6.065   5.104   3.042
   40POPC   C29 2057   6.110   4.992   3.135
   40POPC   C30 2058   6.262   4.992   3.154
   40POPC   C31 2059   6.305   4.874   3.241
   40POPC   C32 2060   0.122   4.874   3.263
   40POPC   C33 2061   0.165   4.756   3.351
   40POPC   C34 2062   5.295   4.909   1.867
   40POPC  OS35 2063   5.202   4.831   1.945
   40POPC   C36 2064   5.078   4.883   1.965
   40POPC   O37 2065   5.032   4.980   1.904
   40POPC   C38 2066   5.000   4.787   2.053
   40POPC   C39 2067   4.905   4.856   2.151
   40POPC   C40 2068   4.857   4.754   2.255
   40POPC   C41 2069   4.757   4.813   2.353
   40POPC   C42 2070   4.722   4.713   2.463
   40POPC   C43 2071   4.844   4.683   2.549
   40POPC   C44 2072   4.810   4.588   2.664
   40POPC   C45 2073   4.934   4.556   2.747
   40POPC   C46 2074   4.897   4.465   2.865
   40POPC   C47 2075   4.813   4.541   2.967
   40POPC   C48 2076   4.755   4.448   3.073
   40POPC   C49 2077   4.863   4.387   3.163
   40POPC   C50 2078   4.798   4.298   3.269
   40POPC   C51 2079   4.902   4.237   3.363
   40POPC   C52 2080   4.833   4.151   3.469
   41POPC    C1 2081   4.231   0.794   1.095
   41POPC    C2 2082   4.033   0.747   1.221
   41POPC    C3 2083   4.130   0.580   1.083
   41POPC    N4 2084   4.160   0.691   1.174
   41POPC    C5 2085   4.244   0.640   1.285
   41POPC    C6 2086   4.278   0.733   1.403
   41POPC   OS7 2087   4.357   0.674   1.506
   41POPC    P8 2088   4.366   0.765   1.635
   41POPC   OM9 2089   4.494   0.738   1.699
   41POPC  OM10 2090   4.329   0.903   1.601
   41POPC  OS11 2091   4.245   0.705   1.713
   41POPC   C12 2092   4.254   0.749   1.848
   41POPC   C13 2093   4.122   0.749   1.927
   41POPC  OS14 2094   4.128   0.826   2.050
   41POPC   C15 2095   4.077   0.952   2.045
   41POPC   O16 2096   4.048   1.005   1.937
   41POPC   C17 2097   4.096   1.026   2.176
   41POPC   C18 2098   3.974   1.020   2.268
   41POPC   C19 2099   3.967   0.892   2.350
   41POPC   C20 2100   3.858   0.904   2.456
   41POPC   C21 2101   3.854   0.784   2.551
   41POPC   C22 2102   3.750   0.807   2.661
   41POPC   C23 2103   3.743   0.690   2.759
   41POPC   C24 2104   3.872   0.669   2.834
   41POPC   C25 2105   3.904   0.709   2.958
   41POPC   C26 2106   3.820   0.787   3.054
   41POPC   C27 2107   3.894   0.912   3.103
   41POPC   C28 2108   3.805   1.000   3.191
   41POPC   C29 2109   3.881   1.126   3.233
   41POPC   C30 2110   3.792   1.223   3.310
   41POPC   C31 2111   3.753   1.168   3.447
   41POPC   C32 2112   3.663   1.267   3.521
   41POPC   C33 2113   3.738   1.397   3.550
   41POPC   C34 2114   4.072   0.604   1.940
   41POPC  OS35 2115   4.170   0.504   1.974
   41POPC   C36 2116   4.125   0.376   1.974
   41POPC   O37 2117   4.011   0.344   1.938
   41POPC   C38 2118   4.239   0.279   2.003
   41POPC   C39 2119   4.196   0.133   1.986
   41POPC   C40 2120   4.123   0.082   2.110
   41POPC   C41 2121   4.220   0.065   2.227
   41POPC   C42 2122   4.143   0.031   2.354
   41POPC   C43 2123   4.236   0.004   2.472
   41POPC   C44 2124   4.319   0.128   2.509
   41POPC   C45 2125   4.389   0.105   2.642
   41POPC   C46 2126   4.481   0.222   2.679
   41POPC   C47 2127   4.539   0.199   2.819
   41POPC   C48 2128   4.649   0.300   2.851
   41POPC   C49 2129   4.706   0.274   2.991
   41POPC   C50 2130   4.833   0.356   3.014
   41POPC   C51 2131   4.805   0.506   3.014
   41POPC   C52 2132   4.934   0.584   3.034
   42POPC    C1 2133   1.043   1.051   1.078
   42POPC    C2 2134   0.831   1.104   1.177
   42POPC    C3 2135   0.919   1.240   1.005
   42POPC    N4 2136   0.908   1.101   1.051
   42POPC    C5 2137   0.839   1.021   0.947
   42POPC    C6 2138   0.821   0.869   0.965
   42POPC   OS7 2139   0.740   0.832   1.076
   42POPC    P8 2140   0.737   0.677   1.093
   42POPC   OM9 2141   0.659   0.630   0.978
   42POPC  OM10 2142   0.877   0.636   1.113
   42POPC  OS11 2143   0.654   0.676   1.226
   42POPC   C12 2144   0.739   0.660   1.339
   42POPC   C13 2145   0.674   0.695   1.474
   42POPC  OS14 2146   0.771   0.695   1.582
   42POPC   C15 2147   0.804   0.817   1.632
   42POPC   O16 2148   0.799   0.920   1.563
   42POPC   C17 2149   0.886   0.802   1.759
   42POPC   C18 2150   0.874   0.926   1.848
   42POPC   C19 2151   0.957   0.907   1.975
   42POPC   C20 2152   0.942   1.026   2.069
   42POPC   C21 2153   1.024   1.003   2.195
   42POPC   C22 2154   0.972   0.882   2.273
   42POPC   C23 2155   1.050   0.863   2.403
   42POPC   C24 2156   1.025   0.975   2.500
   42POPC   C25 2157   1.027   0.969   2.634
   42POPC   C26 2158   1.054   0.849   2.720
   42POPC   C27 2159   0.925   0.789   2.778
   42POPC   C28 2160   0.958   0.668   2.865
   42POPC   C29 2161   0.831   0.607   2.925
   42POPC   C30 2162   0.866   0.489   3.016
   42POPC   C31 2163   0.740   0.428   3.079
   42POPC   C32 2164   0.655   0.357   2.975
   42POPC   C33 2165   0.533   0.292   3.040
   42POPC   C34 2166   0.555   0.600   1.494
   42POPC  OS35 2167   0.469   0.639   1.603
   42POPC   C36 2168   0.369   0.726   1.571
   42POPC   O37 2169   0.326   0.739   1.457
   42POPC   C38 2170   0.308   0.790   1.695
   42POPC   C39 2171   0.306   0.696   1.816
   42POPC   C40 2172   0.192   0.594   1.806
   42POPC   C41 2173   0.182   0.511   1.933
   42POPC   C42 2174   0.067   0.410   1.923
   42POPC   C43 2175   0.051   0.330   2.052
   42POPC   C44 2176   0.007   0.421   2.167
   42POPC   C45 2177   6.309   0.338   2.291
   42POPC   C46 2178   6.265   0.428   2.407
   42POPC   C47 2179   6.211   0.345   2.523
   42POPC   C48 2180   6.161   0.436   2.636
   42POPC   C49 2181   6.073   0.360   2.735
   42POPC   C50 2182   5.945   0.314   2.665
   42POPC   C51 2183   5.857   0.433   2.627
   42POPC   C52 2184   5.743   0.389   2.534
   43POPC    C1 2185   3.657   5.706   1.484
   43POPC    C2 2186   3.617   5.709   1.716
   43POPC    C3 2187   3.509   5.869   1.576
   43POPC    N4 2188   3.554   5.729   1.586
   43POPC    C5 2189   3.441   5.636   1.564
   43POPC    C6 2190   3.322   5.632   1.663
   43POPC   OS7 2191   3.240   5.749   1.666
   43POPC    P8 2192   3.122   5.730   1.769
   43POPC   OM9 2193   3.026   5.655   1.688
   43POPC  OM10 2194   3.184   5.677   1.891
   43POPC  OS11 2195   3.092   5.884   1.776
   43POPC   C12 2196   3.176   5.950   1.870
   43POPC   C13 2197   3.202   6.100   1.842
   43POPC  OS14 2198   3.310   6.151   1.926
   43POPC   C15 2199   3.350   6.282   1.921
   43POPC   O16 2200   3.340   6.351   1.819
   43POPC   C17 2201   3.446   6.306   2.037
   43POPC   C18 2202   3.493   0.046   2.052
   43POPC   C19 2203   3.614   0.080   1.965
   43POPC   C20 2204   3.647   0.228   1.982
   43POPC   C21 2205   3.691   0.260   2.125
   43POPC   C22 2206   3.692   0.411   2.147
   43POPC   C23 2207   3.741   0.449   2.287
   43POPC   C24 2208   3.888   0.421   2.305
   43POPC   C25 2209   3.952   0.382   2.415
   43POPC   C26 2210   3.897   0.355   2.552
   43POPC   C27 2211   4.009   0.313   2.647
   43POPC   C28 2212   3.960   0.284   2.789
   43POPC   C29 2213   4.076   0.238   2.877
   43POPC   C30 2214   4.030   0.208   3.020
   43POPC   C31 2215   3.987   0.337   3.090
   43POPC   C32 2216   3.944   0.310   3.234
   43POPC   C33 2217   3.899   0.439   3.303
   43POPC   C34 2218   3.064   6.169   1.848
   43POPC  OS35 2219   2.998   6.164   1.976
   43POPC   C36 2220   2.902   6.258   1.996
   43POPC   O37 2221   2.871   6.343   1.913
   43POPC   C38 2222   2.842   6.245   2.135
   43POPC   C39 2223   2.938   6.299   2.240
   43POPC   C40 2224   2.884   6.278   2.382
   43POPC   C41 2225   2.983   6.331   2.486
   43POPC   C42 2226   2.938   6.299   2.628
   43POPC   C43 2227   2.939   6.148   2.652
   43POPC   C44 2228   2.910   6.113   2.798
   43POPC   C45 2229   2.766   6.146   2.837
   43POPC   C46 2230   2.742   6.110   2.983
   43POPC   C47 2231   2.600   6.139   3.031
   43POPC   C48 2232   2.585   6.092   3.176
   43POPC   C49 2233   2.447   6.120   3.233
   43POPC   C50 2234   2.438   6.067   3.377
   43POPC   C51 2235   2.300   6.094   3.438
   43POPC   C52 2236   2.289   6.033   3.577
   44POPC    C1 2237   0.192   3.081   1.338
   44POPC    C2 2238   6.301   3.055   1.271
   44POPC    C3 2239   0.013   3.141   1.486
   44POPC    N4 2240   0.058   3.141   1.346
   44POPC    C5 2241   0.055   3.277   1.286
   44POPC    C6 2242   0.137   3.392   1.352
   44POPC   OS7 2243   0.279   3.378   1.350
   44POPC    P8 2244   0.351   3.488   1.437
   44POPC   OM9 2245   0.493   3.476   1.403
   44POPC  OM10 2246   0.281   3.615   1.417
   44POPC  OS11 2247   0.328   3.431   1.581
   44POPC   C12 2248   0.274   3.530   1.669
   44POPC   C13 2249   0.252   3.481   1.812
   44POPC  OS14 2250   0.166   3.571   1.887
   44POPC   C15 2251   0.044   3.523   1.920
   44POPC   O16 2252   6.330   3.422   1.867
   44POPC   C17 2253   6.304   3.620   2.010
   44POPC   C18 2254   6.260   3.547   2.137
   44POPC   C19 2255   0.045   3.517   2.227
   44POPC   C20 2256   0.004   3.422   2.339
   44POPC   C21 2257   6.301   3.286   2.280
   44POPC   C22 2258   6.251   3.190   2.387
   44POPC   C23 2259   6.209   3.057   2.325
   44POPC   C24 2260   6.145   2.966   2.426
   44POPC   C25 2261   6.197   2.859   2.488
   44POPC   C26 2262   6.334   2.800   2.474
   44POPC   C27 2263   0.051   2.750   2.609
   44POPC   C28 2264   6.289   2.646   2.666
   44POPC   C29 2265   0.003   2.587   2.798
   44POPC   C30 2266   6.233   2.491   2.855
   44POPC   C31 2267   6.283   2.421   2.981
   44POPC   C32 2268   0.057   2.319   2.949
   44POPC   C33 2269   6.334   2.201   2.869
   44POPC   C34 2270   0.392   3.458   1.873
   44POPC  OS35 2271   0.396   3.407   2.007
   44POPC   C36 2272   0.386   3.272   2.023
   44POPC   O37 2273   0.396   3.192   1.930
   44POPC   C38 2274   0.379   3.235   2.170
   44POPC   C39 2275   0.325   3.093   2.187
   44POPC   C40 2276   0.312   3.058   2.335
   44POPC   C41 2277   0.448   3.042   2.401
   44POPC   C42 2278   0.431   3.016   2.551
   44POPC   C43 2279   0.566   2.990   2.619
   44POPC   C44 2280   0.547   2.975   2.770
   44POPC   C45 2281   0.463   2.853   2.805
   44POPC   C46 2282   0.437   2.849   2.956
   44POPC   C47 2283   0.340   2.737   2.993
   44POPC   C48 2284   0.301   2.748   3.141
   44POPC   C49 2285   0.232   2.883   3.165
   44POPC   C50 2286   0.182   2.898   3.308
   44POPC   C51 2287   0.060   2.809   3.333
   44POPC   C52 2288   0.004   2.832   3.474
   45POPC    C1 2289   3.819   5.099   1.587
   45POPC    C2 2290   3.937   4.915   1.492
   45POPC    C3 2291   3.901   4.921   1.725
   45POPC    N4 2292   3.841   4.954   1.595
   45POPC    C5 2293   3.716   4.878   1.574
   45POPC    C6 2294   3.590   4.902   1.661
   45POPC   OS7 2295   3.510   4.785   1.679
   45POPC    P8 2296   3.356   4.815   1.686
   45POPC   OM9 2297   3.326   4.949   1.632
   45POPC  OM10 2298   3.293   4.697   1.625
   45POPC  OS11 2299   3.339   4.818   1.841
   45POPC   C12 2300   3.254   4.715   1.888
   45POPC   C13 2301   3.255   4.693   2.040
   45POPC  OS14 2302   3.157   4.593   2.079
   45POPC   C15 2303   3.193   4.461   2.076
   45POPC   O16 2304   3.294   4.420   2.016
   45POPC   C17 2305   3.077   4.375   2.121
   45POPC   C18 2306   3.035   4.407   2.265
   45POPC   C19 2307   3.135   4.350   2.364
   45POPC   C20 2308   3.088   4.367   2.509
   45POPC   C21 2309   2.954   4.295   2.529
   45POPC   C22 2310   2.925   4.272   2.677
   45POPC   C23 2311   2.916   4.404   2.754
   45POPC   C24 2312   2.884   4.380   2.899
   45POPC   C25 2313   2.969   4.372   3.002
   45POPC   C26 2314   3.119   4.385   3.000
   45POPC   C27 2315   3.179   4.379   3.140
   45POPC   C28 2316   3.162   4.240   3.204
   45POPC   C29 2317   3.249   4.136   3.134
   45POPC   C30 2318   3.240   4.001   3.207
   45POPC   C31 2319   3.337   3.900   3.145
   45POPC   C32 2320   3.337   3.769   3.224
   45POPC   C33 2321   3.440   3.671   3.166
   45POPC   C34 2322   3.226   4.832   2.101
   45POPC  OS35 2323   3.282   4.856   2.232
   45POPC   C36 2324   3.282   4.985   2.272
   45POPC   O37 2325   3.220   5.076   2.215
   45POPC   C38 2326   3.353   4.998   2.406
   45POPC   C39 2327   3.421   5.134   2.420
   45POPC   C40 2328   3.542   5.145   2.328
   45POPC   C41 2329   3.608   5.282   2.341
   45POPC   C42 2330   3.687   5.295   2.471
   45POPC   C43 2331   3.736   5.439   2.489
   45POPC   C44 2332   3.616   5.531   2.516
   45POPC   C45 2333   3.655   5.678   2.526
   45POPC   C46 2334   3.750   5.704   2.644
   45POPC   C47 2335   3.759   5.854   2.670
   45POPC   C48 2336   3.868   5.888   2.773
   45POPC   C49 2337   3.859   6.035   2.811
   45POPC   C50 2338   3.871   6.123   2.686
   45POPC   C51 2339   3.850   6.271   2.721
   45POPC   C52 2340   3.842   6.355   2.594
   46POPC    C1 2341   1.002   0.448   0.874
   46POPC    C2 2342   0.939   0.225   0.814
   46POPC    C3 2343   1.164   0.274   0.869
   46POPC    N4 2344   1.025   0.306   0.902
   46POPC    C5 2345   1.004   0.275   1.046
   46POPC    C6 2346   0.870   0.306   1.117
   46POPC   OS7 2347   0.755   0.230   1.078
   46POPC    P8 2348   0.648   0.221   1.195
   46POPC   OM9 2349   0.639   0.353   1.258
   46POPC  OM10 2350   0.532   0.152   1.137
   46POPC  OS11 2351   0.732   0.123   1.283
   46POPC   C12 2352   0.704   0.130   1.422
   46POPC   C13 2353   0.808   0.051   1.502
   46POPC  OS14 2354   0.769   0.021   1.639
   46POPC   C15 2355   0.831   6.318   1.696
   46POPC   O16 2356   0.898   6.239   1.629
   46POPC   C17 2357   0.793   6.300   1.842
   46POPC   C18 2358   0.904   6.227   1.917
   46POPC   C19 2359   0.862   6.188   2.059
   46POPC   C20 2360   0.841   6.312   2.146
   46POPC   C21 2361   0.807   6.276   2.291
   46POPC   C22 2362   0.671   6.208   2.302
   46POPC   C23 2363   0.631   6.195   2.449
   46POPC   C24 2364   0.615   6.330   2.512
   46POPC   C25 2365   0.528   6.369   2.607
   46POPC   C26 2366   0.424   6.288   2.678
   46POPC   C27 2367   0.393   6.348   2.815
   46POPC   C28 2368   0.295   6.261   2.894
   46POPC   C29 2369   0.259   6.329   3.026
   46POPC   C30 2370   0.166   6.242   3.110
   46POPC   C31 2371   0.242   6.122   3.168
   46POPC   C32 2372   0.150   6.038   3.257
   46POPC   C33 2373   0.227   5.922   3.320
   46POPC   C34 2374   0.942   0.126   1.483
   46POPC  OS35 2375   0.947   0.261   1.534
   46POPC   C36 2376   0.988   0.270   1.665
   46POPC   O37 2377   1.067   0.190   1.714
   46POPC   C38 2378   0.962   0.409   1.721
   46POPC   C39 2379   1.008   0.415   1.867
   46POPC   C40 2380   0.911   0.346   1.962
   46POPC   C41 2381   0.978   0.317   2.096
   46POPC   C42 2382   1.087   0.212   2.076
   46POPC   C43 2383   1.148   0.164   2.208
   46POPC   C44 2384   1.248   0.052   2.178
   46POPC   C45 2385   1.309   6.396   2.304
   46POPC   C46 2386   1.412   6.290   2.264
   46POPC   C47 2387   1.476   6.223   2.385
   46POPC   C48 2388   1.584   6.124   2.341
   46POPC   C49 2389   1.651   6.057   2.461
   46POPC   C50 2390   1.764   5.965   2.417
   46POPC   C51 2391   1.837   5.905   2.537
   46POPC   C52 2392   1.955   5.819   2.492
   47POPC    C1 2393   2.890   6.395   1.493
   47POPC    C2 2394   2.715   0.003   1.652
   47POPC    C3 2395   2.885   0.167   1.654
   47POPC    N4 2396   2.803   0.082   1.566
   47POPC    C5 2397   2.715   0.162   1.478
   47POPC    C6 2398   2.776   0.264   1.379
   47POPC   OS7 2399   2.842   0.205   1.267
   47POPC    P8 2400   2.947   0.305   1.207
   47POPC   OM9 2401   3.014   0.231   1.099
   47POPC  OM10 2402   2.877   0.431   1.179
   47POPC  OS11 2403   3.044   0.318   1.328
   47POPC   C12 2404   3.162   0.390   1.292
   47POPC   C13 2405   3.236   0.442   1.416
   47POPC  OS14 2406   3.336   0.541   1.385
   47POPC   C15 2407   3.308   0.667   1.429
   47POPC   O16 2408   3.194   0.702   1.463
   47POPC   C17 2409   3.427   0.759   1.412
   47POPC   C18 2410   3.456   0.829   1.544
   47POPC   C19 2411   3.522   0.734   1.644
   47POPC   C20 2412   3.548   0.806   1.777
   47POPC   C21 2413   3.621   0.713   1.874
   47POPC   C22 2414   3.640   0.780   2.010
   47POPC   C23 2415   3.505   0.801   2.079
   47POPC   C24 2416   3.522   0.854   2.218
   47POPC   C25 2417   3.474   0.800   2.332
   47POPC   C26 2418   3.391   0.676   2.348
   47POPC   C27 2419   3.277   0.697   2.447
   47POPC   C28 2420   3.333   0.727   2.587
   47POPC   C29 2421   3.221   0.757   2.687
   47POPC   C30 2422   3.280   0.793   2.823
   47POPC   C31 2423   3.364   0.921   2.812
   47POPC   C32 2424   3.419   0.964   2.949
   47POPC   C33 2425   3.306   1.015   3.038
   47POPC   C34 2426   3.284   0.320   1.497
   47POPC  OS35 2427   3.332   0.347   1.630
   47POPC   C36 2428   3.236   0.360   1.726
   47POPC   O37 2429   3.117   0.384   1.702
   47POPC   C38 2430   3.296   0.372   1.865
   47POPC   C39 2431   3.198   0.311   1.966
   47POPC   C40 2432   3.240   0.337   2.110
   47POPC   C41 2433   3.145   0.264   2.205
   47POPC   C42 2434   3.174   0.299   2.351
   47POPC   C43 2435   3.306   0.240   2.402
   47POPC   C44 2436   3.324   0.279   2.549
   47POPC   C45 2437   3.450   0.219   2.611
   47POPC   C46 2438   3.458   0.259   2.759
   47POPC   C47 2439   3.578   0.196   2.829
   47POPC   C48 2440   3.581   0.232   2.977
   47POPC   C49 2441   3.460   0.173   3.050
   47POPC   C50 2442   3.466   0.200   3.200
   47POPC   C51 2443   3.579   0.121   3.266
   47POPC   C52 2444   3.586   0.148   3.416
   48POPC    C1 2445   3.384   4.194   1.530
   48POPC    C2 2446   3.311   4.224   1.754
   48POPC    C3 2447   3.538   4.174   1.709
   48POPC    N4 2448   3.421   4.248   1.661
   48POPC    C5 2449   3.449   4.394   1.655
   48POPC    C6 2450   3.548   4.453   1.552
   48POPC   OS7 2451   3.679   4.395   1.554
   48POPC    P8 2452   3.794   4.500   1.534
   48POPC   OM9 2453   3.917   4.431   1.494
   48POPC  OM10 2454   3.744   4.604   1.444
   48POPC  OS11 2455   3.812   4.554   1.680
   48POPC   C12 2456   3.849   4.448   1.770
   48POPC   C13 2457   3.985   4.464   1.838
   48POPC  OS14 2458   4.036   4.337   1.890
   48POPC   C15 2459   4.166   4.331   1.927
   48POPC   O16 2460   4.253   4.402   1.874
   48POPC   C17 2461   4.196   4.203   2.002
   48POPC   C18 2462   4.306   4.226   2.105
   48POPC   C19 2463   4.249   4.307   2.222
   48POPC   C20 2464   4.353   4.327   2.332
   48POPC   C21 2465   4.285   4.384   2.456
   48POPC   C22 2466   4.381   4.390   2.574
   48POPC   C23 2467   4.304   4.421   2.703
   48POPC   C24 2468   4.396   4.431   2.821
   48POPC   C25 2469   4.429   4.543   2.887
   48POPC   C26 2470   4.383   4.683   2.860
   48POPC   C27 2471   4.299   4.738   2.975
   48POPC   C28 2472   4.384   4.747   3.102
   48POPC   C29 2473   4.302   4.797   3.220
   48POPC   C30 2474   4.387   4.800   3.347
   48POPC   C31 2475   4.434   4.658   3.381
   48POPC   C32 2476   4.523   4.658   3.506
   48POPC   C33 2477   4.575   4.517   3.532
   48POPC   C34 2478   3.970   4.579   1.939
   48POPC  OS35 2479   3.879   4.556   2.048
   48POPC   C36 2480   3.883   4.648   2.148
   48POPC   O37 2481   3.972   4.733   2.159
   48POPC   C38 2482   3.780   4.617   2.255
   48POPC   C39 2483   3.825   4.669   2.391
   48POPC   C40 2484   3.733   4.618   2.502
   48POPC   C41 2485   3.593   4.677   2.491
   48POPC   C42 2486   3.500   4.610   2.593
   48POPC   C43 2487   3.536   4.647   2.736
   48POPC   C44 2488   3.466   4.552   2.834
   48POPC   C45 2489   3.480   4.600   2.979
   48POPC   C46 2490   3.625   4.608   3.025
   48POPC   C47 2491   3.630   4.650   3.172
   48POPC   C48 2492   3.774   4.670   3.220
   48POPC   C49 2493   3.853   4.539   3.212
   48POPC   C50 2494   3.994   4.556   3.267
   48POPC   C51 2495   4.073   4.426   3.252
   48POPC   C52 2496   4.096   4.393   3.104
   49POPC    C1 2497   1.512   5.493   5.600
   49POPC    C2 2498   1.499   5.560   5.828
   49POPC    C3 2499   1.560   5.337   5.777
   49POPC    N4 2500   1.573   5.476   5.733
   49POPC    C5 2501   1.715   5.521   5.733
   49POPC    C6 2502   1.821   5.441   5.653
   49POPC   OS7 2503   1.805   5.444   5.511
   49POPC    P8 2504   1.927   5.373   5.442
   49POPC   OM9 2505   2.045   5.439   5.498
   49POPC  OM10 2506   1.900   5.228   5.453
   49POPC  OS11 2507   1.897   5.426   5.297
   49POPC   C12 2508   1.808   5.339   5.226
   49POPC   C13 2509   1.667   5.395   5.204
   49POPC  OS14 2510   1.573   5.291   5.161
   49POPC   C15 2511   1.444   5.324   5.132
   49POPC   O16 2512   1.380   5.406   5.199
   49POPC   C17 2513   1.380   5.211   5.053
   49POPC   C18 2514   1.308   5.266   4.930
   49POPC   C19 2515   1.408   5.325   4.830
   49POPC   C20 2516   1.339   5.371   4.702
   49POPC   C21 2517   1.290   5.251   4.620
   49POPC   C22 2518   1.220   5.298   4.492
   49POPC   C23 2519   1.172   5.177   4.411
   49POPC   C24 2520   1.286   5.096   4.358
   49POPC   C25 2521   1.299   5.045   4.234
   49POPC   C26 2522   1.202   5.059   4.119
   49POPC   C27 2523   1.170   4.924   4.054
   49POPC   C28 2524   1.103   4.828   4.153
   49POPC   C29 2525   1.067   4.696   4.086
   49POPC   C30 2526   1.003   4.601   4.187
   49POPC   C31 2527   0.954   4.472   4.121
   49POPC   C32 2528   0.882   4.383   4.223
   49POPC   C33 2529   0.833   4.253   4.159
   49POPC   C34 2530   1.684   5.517   5.112
   49POPC  OS35 2531   1.739   5.490   4.981
   49POPC   C36 2532   1.771   5.599   4.906
   49POPC   O37 2533   1.761   5.715   4.945
   49POPC   C38 2534   1.825   5.556   4.770
   49POPC   C39 2535   1.939   5.648   4.728
   49POPC   C40 2536   1.995   5.607   4.592
   49POPC   C41 2537   2.112   5.697   4.552
   49POPC   C42 2538   2.064   5.841   4.536
   49POPC   C43 2539   2.175   5.932   4.484
   49POPC   C44 2540   2.124   6.075   4.474
   49POPC   C45 2541   2.230   6.168   4.416
   49POPC   C46 2542   2.172   6.309   4.405
   49POPC   C47 2543   2.268   6.403   4.331
   49POPC   C48 2544   2.200   0.133   4.310
   49POPC   C49 2545   2.283   0.224   4.219
   49POPC   C50 2546   2.203   0.351   4.190
   49POPC   C51 2547   2.074   0.315   4.116
   49POPC   C52 2548   1.983   0.437   4.100
   50POPC    C1 2549   0.080   5.921   5.079
   50POPC    C2 2550   0.074   5.977   4.847
   50POPC    C3 2551   0.069   5.752   4.911
   50POPC    N4 2552   0.022   5.885   4.949
   50POPC    C5 2553   6.208   5.883   4.951
   50POPC    C6 2554   6.131   6.008   4.999
   50POPC   OS7 2555   5.989   6.001   4.987
   50POPC    P8 2556   5.919   6.119   5.063
   50POPC   OM9 2557   5.776   6.094   5.082
   50POPC  OM10 2558   6.001   6.160   5.177
   50POPC  OS11 2559   5.933   6.232   4.955
   50POPC   C12 2560   5.839   6.221   4.849
   50POPC   C13 2561   5.858   6.331   4.743
   50POPC  OS14 2562   5.746   6.348   4.652
   50POPC   C15 2563   5.654   0.039   4.683
   50POPC   O16 2564   5.649   0.093   4.793
   50POPC   C17 2565   5.552   0.054   4.572
   50POPC   C18 2566   5.477   6.327   4.549
   50POPC   C19 2567   5.376   6.338   4.435
   50POPC   C20 2568   5.445   6.352   4.299
   50POPC   C21 2569   5.342   6.351   4.187
   50POPC   C22 2570   5.407   6.363   4.049
   50POPC   C23 2571   5.484   6.236   4.012
   50POPC   C24 2572   5.393   6.118   3.993
   50POPC   C25 2573   5.379   6.044   3.882
   50POPC   C26 2574   5.451   6.059   3.752
   50POPC   C27 2575   5.537   5.937   3.718
   50POPC   C28 2576   5.606   5.954   3.583
   50POPC   C29 2577   5.678   5.827   3.540
   50POPC   C30 2578   5.736   5.843   3.400
   50POPC   C31 2579   5.800   5.712   3.351
   50POPC   C32 2580   5.694   5.604   3.328
   50POPC   C33 2581   5.758   5.476   3.275
   50POPC   C34 2582   5.994   6.303   4.677
   50POPC  OS35 2583   6.002   6.180   4.603
   50POPC   C36 2584   6.125   6.125   4.592
   50POPC   O37 2585   6.219   6.152   4.667
   50POPC   C38 2586   6.124   6.012   4.490
   50POPC   C39 2587   6.245   6.027   4.398
   50POPC   C40 2588   6.227   5.949   4.268
   50POPC   C41 2589   0.005   5.984   4.172
   50POPC   C42 2590   0.010   6.136   4.157
   50POPC   C43 2591   0.112   6.183   4.054
   50POPC   C44 2592   0.125   6.335   4.058
   50POPC   C45 2593   0.210   6.387   3.943
   50POPC   C46 2594   0.134   6.374   3.811
   50POPC   C47 2595   0.208   0.041   3.698
   50POPC   C48 2596   0.120   0.051   3.574
   50POPC   C49 2597   0.184   0.143   3.469
   50POPC   C50 2598   0.088   0.169   3.354
   50POPC   C51 2599   0.149   0.267   3.253
   50POPC   C52 2600   0.051   0.297   3.141
   51POPC    C1 2601   2.818   4.630   5.282
   51POPC    C2 2602   2.735   4.843   5.213
   51POPC    C3 2603   2.704   4.651   5.076
   51POPC    N4 2604   2.707   4.699   5.215
   51POPC    C5 2605   2.576   4.670   5.277
   51POPC    C6 2606   2.548   4.710   5.424
   51POPC   OS7 2607   2.412   4.694   5.463
   51POPC    P8 2608   2.338   4.831   5.482
   51POPC   OM9 2609   2.197   4.803   5.510
   51POPC  OM10 2610   2.417   4.921   5.566
   51POPC  OS11 2611   2.345   4.883   5.335
   51POPC   C12 2612   2.257   4.992   5.308
   51POPC   C13 2613   2.268   5.034   5.161
   51POPC  OS14 2614   2.186   5.148   5.126
   51POPC   C15 2615   2.254   5.259   5.086
   51POPC   O16 2616   2.374   5.276   5.113
   51POPC   C17 2617   2.162   5.363   5.026
   51POPC   C18 2618   2.107   5.312   4.893
   51POPC   C19 2619   2.219   5.296   4.791
   51POPC   C20 2620   2.167   5.251   4.655
   51POPC   C21 2621   2.284   5.228   4.560
   51POPC   C22 2622   2.238   5.199   4.417
   51POPC   C23 2623   2.190   5.327   4.346
   51POPC   C24 2624   2.300   5.429   4.336
   51POPC   C25 2625   2.378   5.458   4.231
   51POPC   C26 2626   2.378   5.396   4.094
   51POPC   C27 2627   2.470   5.472   3.999
   51POPC   C28 2628   2.472   5.407   3.860
   51POPC   C29 2629   2.563   5.485   3.765
   51POPC   C30 2630   2.567   5.417   3.628
   51POPC   C31 2631   2.431   5.425   3.558
   51POPC   C32 2632   2.432   5.348   3.426
   51POPC   C33 2633   2.531   5.409   3.327
   51POPC   C34 2634   2.239   4.906   5.080
   51POPC  OS35 2635   2.265   4.908   4.938
   51POPC   C36 2636   2.393   4.887   4.897
   51POPC   O37 2637   2.493   4.914   4.965
   51POPC   C38 2638   2.394   4.866   4.747
   51POPC   C39 2639   2.362   4.720   4.713
   51POPC   C40 2640   2.485   4.631   4.733
   51POPC   C41 2641   2.585   4.651   4.620
   51POPC   C42 2642   2.529   4.594   4.489
   51POPC   C43 2643   2.624   4.619   4.372
   51POPC   C44 2644   2.567   4.558   4.244
   51POPC   C45 2645   2.660   4.582   4.125
   51POPC   C46 2646   2.608   4.507   4.002
   51POPC   C47 2647   2.704   4.519   3.884
   51POPC   C48 2648   2.663   4.419   3.775
   51POPC   C49 2649   2.764   4.417   3.660
   51POPC   C50 2650   2.733   4.301   3.566
   51POPC   C51 2651   2.836   4.291   3.453
   51POPC   C52 2652   2.825   4.412   3.360
   52POPC    C1 2653   2.714   6.282   5.365
   52POPC    C2 2654   2.770   0.100   5.299
   52POPC    C3 2655   2.644   6.368   5.153
   52POPC    N4 2656   2.666   6.401   5.294
   52POPC    C5 2657   2.543   0.050   5.357
   52POPC    C6 2658   2.418   6.363   5.366
   52POPC   OS7 2659   2.299   0.027   5.405
   52POPC    P8 2660   2.168   6.346   5.398
   52POPC   OM9 2661   2.191   6.231   5.488
   52POPC  OM10 2662   2.065   0.042   5.424
   52POPC  OS11 2663   2.172   6.303   5.247
   52POPC   C12 2664   2.107   6.395   5.159
   52POPC   C13 2665   2.181   0.005   5.025
   52POPC  OS14 2666   2.137   0.118   4.945
   52POPC   C15 2667   2.234   0.176   4.870
   52POPC   O16 2668   2.353   0.170   4.904
   52POPC   C17 2669   2.175   0.275   4.771
   52POPC   C18 2670   2.028   0.243   4.746
   52POPC   C19 2671   1.968   0.329   4.634
   52POPC   C20 2672   1.820   0.297   4.618
   52POPC   C21 2673   1.759   0.368   4.497
   52POPC   C22 2674   1.611   0.334   4.485
   52POPC   C23 2675   1.549   0.397   4.360
   52POPC   C24 2676   1.608   0.341   4.234
   52POPC   C25 2677   1.545   0.273   4.137
   52POPC   C26 2678   1.400   0.237   4.130
   52POPC   C27 2679   1.348   0.238   3.986
   52POPC   C28 2680   1.422   0.132   3.903
   52POPC   C29 2681   1.371   0.129   3.759
   52POPC   C30 2682   1.447   0.024   3.679
   52POPC   C31 2683   1.398   0.018   3.534
   52POPC   C32 2684   1.476   6.318   3.454
   52POPC   C33 2685   1.622   6.361   3.438
   52POPC   C34 2686   2.177   6.271   4.957
   52POPC  OS35 2687   2.047   6.216   4.932
   52POPC   C36 2688   2.041   6.087   4.888
   52POPC   O37 2689   2.136   6.008   4.891
   52POPC   C38 2690   1.898   6.049   4.853
   52POPC   C39 2691   1.818   6.170   4.807
   52POPC   C40 2692   1.687   6.126   4.742
   52POPC   C41 2693   1.601   6.247   4.702
   52POPC   C42 2694   1.670   6.332   4.595
   52POPC   C43 2695   1.671   6.265   4.458
   52POPC   C44 2696   1.747   6.352   4.358
   52POPC   C45 2697   1.750   6.288   4.219
   52POPC   C46 2698   1.833   6.373   4.123
   52POPC   C47 2699   1.837   6.312   3.983
   52POPC   C48 2700   1.925   6.396   3.891
   52POPC   C49 2701   1.930   6.338   3.749
   52POPC   C50 2702   2.020   0.018   3.659
   52POPC   C51 2703   2.021   6.369   3.516
   52POPC   C52 2704   2.112   0.049   3.427
   53POPC    C1 2705   3.706   3.917   5.081
   53POPC    C2 2706   3.517   3.938   5.220
   53POPC    C3 2707   3.732   4.014   5.298
   53POPC    N4 2708   3.643   4.003   5.182
   53POPC    C5 2709   3.621   4.137   5.122
   53POPC    C6 2710   3.541   4.240   5.204
   53POPC   OS7 2711   3.538   4.370   5.146
   53POPC    P8 2712   3.424   4.461   5.205
   53POPC   OM9 2713   3.386   4.410   5.338
   53POPC  OM10 2714   3.460   4.601   5.181
   53POPC  OS11 2715   3.311   4.414   5.108
   53POPC   C12 2716   3.326   4.462   4.975
   53POPC   C13 2717   3.227   4.393   4.881
   53POPC  OS14 2718   3.269   4.394   4.742
   53POPC   C15 2719   3.317   4.277   4.693
   53POPC   O16 2720   3.312   4.171   4.757
   53POPC   C17 2721   3.358   4.290   4.547
   53POPC   C18 2722   3.399   4.155   4.488
   53POPC   C19 2723   3.410   4.167   4.337
   53POPC   C20 2724   3.447   4.034   4.271
   53POPC   C21 2725   3.438   4.050   4.119
   53POPC   C22 2726   3.476   3.921   4.045
   53POPC   C23 2727   3.455   3.941   3.895
   53POPC   C24 2728   3.541   4.051   3.842
   53POPC   C25 2729   3.589   4.066   3.717
   53POPC   C26 2730   3.568   3.977   3.598
   53POPC   C27 2731   3.543   4.059   3.472
   53POPC   C28 2732   3.664   4.148   3.442
   53POPC   C29 2733   3.635   4.245   3.328
   53POPC   C30 2734   3.632   4.177   3.191
   53POPC   C31 2735   3.772   4.132   3.148
   53POPC   C32 2736   3.769   4.081   3.004
   53POPC   C33 2737   3.742   4.196   2.906
   53POPC   C34 2738   3.087   4.451   4.911
   53POPC  OS35 2739   3.066   4.587   4.867
   53POPC   C36 2740   3.003   4.598   4.746
   53POPC   O37 2741   2.916   4.519   4.709
   53POPC   C38 2742   3.017   4.740   4.695
   53POPC   C39 2743   2.990   4.748   4.544
   53POPC   C40 2744   3.107   4.687   4.467
   53POPC   C41 2745   3.079   4.685   4.317
   53POPC   C42 2746   3.076   4.825   4.255
   53POPC   C43 2747   3.057   4.815   4.104
   53POPC   C44 2748   3.067   4.954   4.040
   53POPC   C45 2749   3.057   4.946   3.887
   53POPC   C46 2750   3.175   4.868   3.828
   53POPC   C47 2751   3.181   4.885   3.676
   53POPC   C48 2752   3.060   4.822   3.607
   53POPC   C49 2753   3.071   4.841   3.455
   53POPC   C50 2754   2.952   4.781   3.381
   53POPC   C51 2755   2.967   4.802   3.230
   53POPC   C52 2756   2.848   4.745   3.153
   54POPC    C1 2757   2.744   5.679   5.014
   54POPC    C2 2758   2.537   5.579   5.066
   54POPC    C3 2759   2.713   5.444   4.981
   54POPC    N4 2760   2.682   5.558   5.069
   54POPC    C5 2761   2.725   5.536   5.209
   54POPC    C6 2762   2.875   5.523   5.244
   54POPC   OS7 2763   2.941   5.413   5.182
   54POPC    P8 2764   3.097   5.421   5.203
   54POPC   OM9 2765   3.144   5.537   5.125
   54POPC  OM10 2766   3.120   5.412   5.347
   54POPC  OS11 2767   3.128   5.285   5.134
   54POPC   C12 2768   3.141   5.296   4.992
   54POPC   C13 2769   3.175   5.164   4.923
   54POPC  OS14 2770   3.219   5.183   4.786
   54POPC   C15 2771   3.340   5.130   4.752
   54POPC   O16 2772   3.408   5.063   4.831
   54POPC   C17 2773   3.377   5.163   4.609
   54POPC   C18 2774   3.513   5.101   4.571
   54POPC   C19 2775   3.501   4.952   4.538
   54POPC   C20 2776   3.447   4.933   4.396
   54POPC   C21 2777   3.553   4.970   4.293
   54POPC   C22 2778   3.498   4.957   4.151
   54POPC   C23 2779   3.607   4.983   4.047
   54POPC   C24 2780   3.551   4.978   3.907
   54POPC   C25 2781   3.542   5.077   3.818
   54POPC   C26 2782   3.586   5.220   3.833
   54POPC   C27 2783   3.475   5.313   3.883
   54POPC   C28 2784   3.524   5.457   3.882
   54POPC   C29 2785   3.419   5.554   3.937
   54POPC   C30 2786   3.465   5.699   3.921
   54POPC   C31 2787   3.457   5.743   3.774
   54POPC   C32 2788   3.312   5.750   3.728
   54POPC   C33 2789   3.301   5.796   3.583
   54POPC   C34 2790   3.053   5.073   4.943
   54POPC  OS35 2791   2.931   5.119   4.880
   54POPC   C36 2792   2.835   5.025   4.860
   54POPC   O37 2793   2.828   4.918   4.921
   54POPC   C38 2794   2.729   5.077   4.765
   54POPC   C39 2795   2.790   5.179   4.669
   54POPC   C40 2796   2.700   5.211   4.550
   54POPC   C41 2797   2.688   5.089   4.458
   54POPC   C42 2798   2.639   5.132   4.320
   54POPC   C43 2799   2.614   5.010   4.230
   54POPC   C44 2800   2.590   5.055   4.086
   54POPC   C45 2801   2.545   4.937   3.999
   54POPC   C46 2802   2.538   4.978   3.852
   54POPC   C47 2803   2.679   4.993   3.794
   54POPC   C48 2804   2.674   5.039   3.649
   54POPC   C49 2805   2.602   4.937   3.561
   54POPC   C50 2806   2.594   4.985   3.416
   54POPC   C51 2807   2.510   4.889   3.332
   54POPC   C52 2808   2.364   4.891   3.379
   55POPC    C1 2809   4.411   4.122   5.358
   55POPC    C2 2810   4.291   3.924   5.298
   55POPC    C3 2811   4.328   3.974   5.526
   55POPC    N4 2812   4.299   4.034   5.395
   55POPC    C5 2813   4.171   4.109   5.406
   55POPC    C6 2814   4.117   4.190   5.285
   55POPC   OS7 2815   4.064   4.114   5.176
   55POPC    P8 2816   4.071   4.200   5.044
   55POPC   OM9 2817   4.025   4.334   5.080
   55POPC  OM10 2818   4.209   4.169   5.004
   55POPC  OS11 2819   3.961   4.124   4.962
   55POPC   C12 2820   4.009   4.087   4.832
   55POPC   C13 2821   3.898   4.033   4.741
   55POPC  OS14 2822   3.946   3.943   4.637
   55POPC   C15 2823   3.882   3.824   4.622
   55POPC   O16 2824   3.804   3.780   4.708
   55POPC   C17 2825   3.941   3.743   4.508
   55POPC   C18 2826   3.836   3.649   4.448
   55POPC   C19 2827   3.898   3.555   4.345
   55POPC   C20 2828   3.959   3.633   4.229
   55POPC   C21 2829   4.018   3.539   4.124
   55POPC   C22 2830   4.130   3.452   4.184
   55POPC   C23 2831   4.197   3.368   4.075
   55POPC   C24 2832   4.296   3.271   4.130
   55POPC   C25 2833   4.347   3.162   4.071
   55POPC   C26 2834   4.317   3.111   3.933
   55POPC   C27 2835   4.433   3.136   3.836
   55POPC   C28 2836   4.559   3.062   3.880
   55POPC   C29 2837   4.675   3.089   3.785
   55POPC   C30 2838   4.649   3.027   3.648
   55POPC   C31 2839   4.766   3.052   3.553
   55POPC   C32 2840   4.743   2.985   3.417
   55POPC   C33 2841   4.624   3.049   3.345
   55POPC   C34 2842   3.811   4.153   4.698
   55POPC  OS35 2843   3.878   4.259   4.627
   55POPC   C36 2844   3.805   4.372   4.603
   55POPC   O37 2845   3.697   4.397   4.658
   55POPC   C38 2846   3.883   4.473   4.519
   55POPC   C39 2847   3.787   4.561   4.440
   55POPC   C40 2848   3.855   4.687   4.384
   55POPC   C41 2849   3.959   4.656   4.277
   55POPC   C42 2850   4.013   4.787   4.216
   55POPC   C43 2851   4.121   4.759   4.112
   55POPC   C44 2852   4.065   4.682   3.993
   55POPC   C45 2853   4.175   4.642   3.894
   55POPC   C46 2854   4.120   4.546   3.790
   55POPC   C47 2855   4.063   4.423   3.862
   55POPC   C48 2856   4.012   4.315   3.767
   55POPC   C49 2857   3.936   4.210   3.848
   55POPC   C50 2858   4.028   4.145   3.952
   55POPC   C51 2859   3.948   4.053   4.045
   55POPC   C52 2860   3.855   4.135   4.136
   56POPC    C1 2861   3.727   4.729   5.041
   56POPC    C2 2862   3.794   4.566   5.203
   56POPC    C3 2863   3.768   4.506   4.975
   56POPC    N4 2864   3.813   4.612   5.065
   56POPC    C5 2865   3.955   4.638   5.035
   56POPC    C6 2866   4.041   4.735   5.120
   56POPC   OS7 2867   4.006   4.873   5.112
   56POPC    P8 2868   4.130   4.960   5.153
   56POPC   OM9 2869   4.132   4.961   5.299
   56POPC  OM10 2870   4.246   4.912   5.077
   56POPC  OS11 2871   4.073   5.095   5.099
   56POPC   C12 2872   4.100   5.108   4.959
   56POPC   C13 2873   3.993   5.180   4.877
   56POPC  OS14 2874   4.014   5.162   4.735
   56POPC   C15 2875   3.908   5.108   4.669
   56POPC   O16 2876   3.820   5.045   4.728
   56POPC   C17 2877   3.931   5.108   4.519
   56POPC   C18 2878   3.897   5.244   4.459
   56POPC   C19 2879   3.928   5.248   4.310
   56POPC   C20 2880   3.893   5.385   4.250
   56POPC   C21 2881   3.930   5.390   4.102
   56POPC   C22 2882   3.894   5.525   4.040
   56POPC   C23 2883   3.936   5.529   3.893
   56POPC   C24 2884   4.085   5.522   3.878
   56POPC   C25 2885   4.162   5.573   3.781
   56POPC   C26 2886   4.117   5.650   3.659
   56POPC   C27 2887   4.147   5.571   3.531
   56POPC   C28 2888   4.107   5.648   3.405
   56POPC   C29 2889   4.141   5.563   3.282
   56POPC   C30 2890   4.107   5.632   3.150
   56POPC   C31 2891   4.140   5.539   3.034
   56POPC   C32 2892   4.114   5.605   2.898
   56POPC   C33 2893   4.147   5.510   2.783
   56POPC   C34 2894   3.986   5.326   4.928
   56POPC  OS35 2895   3.895   5.411   4.855
   56POPC   C36 2896   3.862   5.530   4.912
   56POPC   O37 2897   3.876   5.557   5.032
   56POPC   C38 2898   3.788   5.616   4.811
   56POPC   C39 2899   3.674   5.540   4.742
   56POPC   C40 2900   3.624   5.620   4.621
   56POPC   C41 2901   3.504   5.552   4.555
   56POPC   C42 2902   3.463   5.626   4.427
   56POPC   C43 2903   3.426   5.771   4.457
   56POPC   C44 2904   3.381   5.846   4.332
   56POPC   C45 2905   3.237   5.810   4.293
   56POPC   C46 2906   3.201   5.871   4.158
   56POPC   C47 2907   3.058   5.838   4.115
   56POPC   C48 2908   3.038   5.874   3.968
   56POPC   C49 2909   2.897   5.842   3.919
   56POPC   C50 2910   2.889   5.853   3.766
   56POPC   C51 2911   2.914   5.996   3.717
   56POPC   C52 2912   2.797   6.089   3.752
   57POPC    C1 2913   5.855   0.602   5.439
   57POPC    C2 2914   6.032   0.524   5.296
   57POPC    C3 2915   6.082   0.632   5.502
   57POPC    N4 2916   5.988   0.540   5.435
   57POPC    C5 2917   5.992   0.411   5.508
   57POPC    C6 2918   5.907   0.292   5.456
   57POPC   OS7 2919   5.956   0.166   5.502
   57POPC    P8 2920   5.922   0.044   5.408
   57POPC   OM9 2921   5.966   6.333   5.486
   57POPC  OM10 2922   5.784   0.059   5.360
   57POPC  OS11 2923   6.030   0.074   5.298
   57POPC   C12 2924   5.976   0.096   5.168
   57POPC   C13 2925   6.083   0.150   5.072
   57POPC  OS14 2926   6.029   0.223   4.958
   57POPC   C15 2927   6.107   0.329   4.920
   57POPC   O16 2928   6.188   0.382   4.996
   57POPC   C17 2929   6.061   0.383   4.786
   57POPC   C18 2930   6.133   0.310   4.672
   57POPC   C19 2931   6.071   0.341   4.536
   57POPC   C20 2932   6.149   0.274   4.423
   57POPC   C21 2933   6.083   0.301   4.287
   57POPC   C22 2934   6.172   0.250   4.173
   57POPC   C23 2935   6.109   0.279   4.037
   57POPC   C24 2936   6.203   0.244   3.925
   57POPC   C25 2937   6.188   0.262   3.793
   57POPC   C26 2938   6.071   0.322   3.720
   57POPC   C27 2939   6.052   0.256   3.583
   57POPC   C28 2940   5.931   0.317   3.510
   57POPC   C29 2941   5.913   0.256   3.371
   57POPC   C30 2942   5.791   0.316   3.302
   57POPC   C31 2943   5.776   0.266   3.158
   57POPC   C32 2944   5.741   0.117   3.154
   57POPC   C33 2945   5.721   0.070   3.010
   57POPC   C34 2946   6.175   0.030   5.043
   57POPC  OS35 2947   6.285   0.052   4.954
   57POPC   C36 2948   0.026   6.346   4.936
   57POPC   O37 2949   0.008   6.243   5.000
   57POPC   C38 2950   0.139   6.369   4.836
   57POPC   C39 2951   0.094   0.046   4.715
   57POPC   C40 2952   0.196   0.032   4.602
   57POPC   C41 2953   0.190   6.295   4.544
   57POPC   C42 2954   0.291   6.273   4.431
   57POPC   C43 2955   0.434   6.265   4.485
   57POPC   C44 2956   0.530   6.222   4.374
   57POPC   C45 2957   0.672   6.205   4.428
   57POPC   C46 2958   0.762   6.134   4.326
   57POPC   C47 2959   0.789   6.221   4.203
   57POPC   C48 2960   0.877   6.144   4.104
   57POPC   C49 2961   0.909   6.228   3.980
   57POPC   C50 2962   0.995   6.147   3.882
   57POPC   C51 2963   1.030   6.230   3.758
   57POPC   C52 2964   1.117   6.149   3.662
   58POPC    C1 2965   0.506   0.195   5.182
   58POPC    C2 2966   0.508   0.375   5.027
   58POPC    C3 2967   0.303   0.265   5.080
   58POPC    N4 2968   0.431   0.312   5.135
   58POPC    C5 2969   0.417   0.405   5.249
   58POPC    C6 2970   0.336   0.537   5.240
   58POPC   OS7 2971   0.194   0.521   5.237
   58POPC    P8 2972   0.119   0.659   5.249
   58POPC   OM9 2973   6.317   0.620   5.280
   58POPC  OM10 2974   0.197   0.746   5.339
   58POPC  OS11 2975   0.138   0.699   5.099
   58POPC   C12 2976   0.020   0.683   5.019
   58POPC   C13 2977   0.052   0.687   4.869
   58POPC  OS14 2978   6.274   0.716   4.782
   58POPC   C15 2979   6.307   0.801   4.680
   58POPC   O16 2980   0.060   0.886   4.695
   58POPC   C17 2981   6.197   0.807   4.575
   58POPC   C18 2982   6.259   0.801   4.435
   58POPC   C19 2983   6.317   0.662   4.410
   58POPC   C20 2984   0.050   0.649   4.273
   58POPC   C21 2985   6.285   0.649   4.158
   58POPC   C22 2986   0.017   0.604   4.029
   58POPC   C23 2987   0.110   0.709   3.970
   58POPC   C24 2988   0.192   0.653   3.857
   58POPC   C25 2989   0.166   0.651   3.725
   58POPC   C26 2990   0.047   0.704   3.651
   58POPC   C27 2991   0.009   0.616   3.532
   58POPC   C28 2992   6.231   0.681   3.451
   58POPC   C29 2993   6.198   0.599   3.325
   58POPC   C30 2994   6.091   0.669   3.242
   58POPC   C31 2995   6.062   0.591   3.113
   58POPC   C32 2996   5.957   0.662   3.027
   58POPC   C33 2997   5.820   0.662   3.095
   58POPC   C34 2998   0.129   0.556   4.840
   58POPC  OS35 2999   0.192   0.554   4.711
   58POPC   C36 3000   0.283   0.456   4.686
   58POPC   O37 3001   0.310   0.364   4.764
   58POPC   C38 3002   0.352   0.485   4.554
   58POPC   C39 3003   0.326   0.382   4.444
   58POPC   C40 3004   0.389   0.435   4.315
   58POPC   C41 3005   0.382   0.338   4.197
   58POPC   C42 3006   0.443   0.405   4.074
   58POPC   C43 3007   0.455   0.311   3.954
   58POPC   C44 3008   0.510   0.387   3.833
   58POPC   C45 3009   0.532   0.293   3.713
   58POPC   C46 3010   0.573   0.372   3.588
   58POPC   C47 3011   0.458   0.459   3.539
   58POPC   C48 3012   0.493   0.532   3.409
   58POPC   C49 3013   0.373   0.615   3.360
   58POPC   C50 3014   0.400   0.680   3.225
   58POPC   C51 3015   0.506   0.790   3.236
   58POPC   C52 3016   0.531   0.856   3.100
   59POPC    C1 3017   2.150   5.757   5.516
   59POPC    C2 3018   2.143   5.671   5.293
   59POPC    C3 3019   1.948   5.762   5.393
   59POPC    N4 3020   2.094   5.778   5.382
   59POPC    C5 3021   2.124   5.914   5.330
   59POPC    C6 3022   2.271   5.958   5.309
   59POPC   OS7 3023   2.336   5.905   5.194
   59POPC    P8 3024   2.490   5.940   5.196
   59POPC   OM9 3025   2.501   6.083   5.229
   59POPC  OM10 3026   2.546   5.830   5.275
   59POPC  OS11 3027   2.515   5.914   5.043
   59POPC   C12 3028   2.486   6.029   4.965
   59POPC   C13 3029   2.525   6.017   4.817
   59POPC  OS14 3030   2.495   6.139   4.744
   59POPC   C15 3031   2.591   6.236   4.734
   59POPC   O16 3032   2.693   6.239   4.804
   59POPC   C17 3033   2.542   6.350   4.646
   59POPC   C18 3034   2.628   0.069   4.672
   59POPC   C19 3035   2.582   0.190   4.591
   59POPC   C20 3036   2.672   0.309   4.627
   59POPC   C21 3037   2.636   0.435   4.548
   59POPC   C22 3038   2.733   0.547   4.586
   59POPC   C23 3039   2.707   0.674   4.506
   59POPC   C24 3040   2.808   0.780   4.540
   59POPC   C25 3041   2.919   0.814   4.472
   59POPC   C26 3042   2.970   0.755   4.344
   59POPC   C27 3043   3.085   0.657   4.368
   59POPC   C28 3044   3.128   0.594   4.235
   59POPC   C29 3045   3.237   0.489   4.256
   59POPC   C30 3046   3.269   0.421   4.123
   59POPC   C31 3047   3.372   0.310   4.139
   59POPC   C32 3048   3.394   0.240   4.005
   59POPC   C33 3049   3.267   0.167   3.959
   59POPC   C34 3050   2.452   5.892   4.765
   59POPC  OS35 3051   2.492   5.842   4.636
   59POPC   C36 3052   2.587   5.744   4.630
   59POPC   O37 3053   2.633   5.685   4.728
   59POPC   C38 3054   2.615   5.709   4.485
   59POPC   C39 3055   2.597   5.835   4.400
   59POPC   C40 3056   2.581   5.801   4.252
   59POPC   C41 3057   2.545   5.927   4.173
   59POPC   C42 3058   2.508   5.893   4.029
   59POPC   C43 3059   2.474   6.020   3.951
   59POPC   C44 3060   2.344   6.084   4.002
   59POPC   C45 3061   2.318   6.214   3.925
   59POPC   C46 3062   2.421   6.320   3.963
   59POPC   C47 3063   2.417   0.034   3.866
   59POPC   C48 3064   2.472   6.397   3.730
   59POPC   C49 3065   2.483   0.110   3.634
   59POPC   C50 3066   2.545   0.064   3.502
   59POPC   C51 3067   2.688   0.015   3.524
   59POPC   C52 3068   2.753   6.375   3.393
   60POPC    C1 3069   1.896   0.557   5.030
   60POPC    C2 3070   1.796   0.340   5.062
   60POPC    C3 3071   2.004   0.394   5.163
   60POPC    N4 3072   1.873   0.448   5.126
   60POPC    C5 3073   1.808   0.497   5.250
   60POPC    C6 3074   1.669   0.568   5.250
   60POPC   OS7 3075   1.556   0.488   5.214
   60POPC    P8 3076   1.422   0.567   5.238
   60POPC   OM9 3077   1.378   0.536   5.374
   60POPC  OM10 3078   1.444   0.705   5.195
   60POPC  OS11 3079   1.334   0.485   5.137
   60POPC   C12 3080   1.315   0.550   5.010
   60POPC   C13 3081   1.434   0.535   4.912
   60POPC  OS14 3082   1.439   0.634   4.805
   60POPC   C15 3083   1.566   0.669   4.770
   60POPC   O16 3084   1.661   0.650   4.846
   60POPC   C17 3085   1.569   0.751   4.642
   60POPC   C18 3086   1.711   0.796   4.609
   60POPC   C19 3087   1.719   0.862   4.471
   60POPC   C20 3088   1.708   0.757   4.359
   60POPC   C21 3089   1.719   0.820   4.220
   60POPC   C22 3090   1.713   0.712   4.113
   60POPC   C23 3091   1.720   0.769   3.971
   60POPC   C24 3092   1.597   0.844   3.930
   60POPC   C25 3093   1.493   0.799   3.858
   60POPC   C26 3094   1.472   0.661   3.802
   60POPC   C27 3095   1.500   0.653   3.652
   60POPC   C28 3096   1.397   0.732   3.570
   60POPC   C29 3097   1.431   0.725   3.421
   60POPC   C30 3098   1.328   0.800   3.337
   60POPC   C31 3099   1.366   0.797   3.188
   60POPC   C32 3100   1.257   0.862   3.102
   60POPC   C33 3101   1.246   1.012   3.130
   60POPC   C34 3102   1.436   0.387   4.870
   60POPC  OS35 3103   1.322   0.341   4.794
   60POPC   C36 3104   1.331   0.213   4.750
   60POPC   O37 3105   1.423   0.137   4.782
   60POPC   C38 3106   1.213   0.176   4.662
   60POPC   C39 3107   1.243   0.047   4.584
   60POPC   C40 3108   1.123   0.006   4.498
   60POPC   C41 3109   1.150   6.280   4.424
   60POPC   C42 3110   1.252   6.297   4.311
   60POPC   C43 3111   1.274   6.164   4.240
   60POPC   C44 3112   1.366   6.178   4.118
   60POPC   C45 3113   1.381   6.042   4.049
   60POPC   C46 3114   1.468   6.051   3.923
   60POPC   C47 3115   1.479   5.913   3.858
   60POPC   C48 3116   1.564   5.915   3.730
   60POPC   C49 3117   1.710   5.950   3.761
   60POPC   C50 3118   1.800   5.925   3.640
   60POPC   C51 3119   1.762   6.017   3.523
   60POPC   C52 3120   1.854   5.994   3.403
   61POPC    C1 3121   3.959   5.307   5.609
   61POPC    C2 3122   4.121   5.141   5.558
   61POPC    C3 3123   3.937   5.186   5.407
   61POPC    N4 3124   4.035   5.246   5.500
   61POPC    C5 3125   4.112   5.354   5.436
   61POPC    C6 3126   4.202   5.325   5.313
   61POPC   OS7 3127   4.253   5.444   5.256
   61POPC    P8 3128   4.359   5.409   5.145
   61POPC   OM9 3129   4.462   5.330   5.213
   61POPC  OM10 3130   4.280   5.356   5.034
   61POPC  OS11 3131   4.400   5.560   5.128
   61POPC   C12 3132   4.336   5.617   5.013
   61POPC   C13 3133   4.317   5.769   5.019
   61POPC  OS14 3134   4.233   5.817   4.910
   61POPC   C15 3135   4.144   5.916   4.937
   61POPC   O16 3136   4.098   5.933   5.050
   61POPC   C17 3137   4.083   5.968   4.807
   61POPC   C18 3138   3.936   6.007   4.824
   61POPC   C19 3139   3.880   6.058   4.690
   61POPC   C20 3140   3.879   5.945   4.586
   61POPC   C21 3141   3.832   5.995   4.449
   61POPC   C22 3142   3.838   5.883   4.345
   61POPC   C23 3143   3.801   5.935   4.206
   61POPC   C24 3144   3.897   6.041   4.159
   61POPC   C25 3145   3.968   6.045   4.045
   61POPC   C26 3146   3.969   5.945   3.933
   61POPC   C27 3147   4.005   6.008   3.799
   61POPC   C28 3148   3.900   6.110   3.753
   61POPC   C29 3149   3.936   6.166   3.615
   61POPC   C30 3150   3.928   6.056   3.509
   61POPC   C31 3151   3.964   6.110   3.370
   61POPC   C32 3152   3.860   6.211   3.321
   61POPC   C33 3153   3.894   6.261   3.181
   61POPC   C34 3154   4.458   5.831   5.024
   61POPC  OS35 3155   4.535   5.815   4.903
   61POPC   C36 3156   4.643   5.896   4.891
   61POPC   O37 3157   4.696   5.955   4.985
   61POPC   C38 3158   4.699   5.889   4.749
   61POPC   C39 3159   4.766   5.754   4.721
   61POPC   C40 3160   4.803   5.740   4.573
   61POPC   C41 3161   4.679   5.722   4.487
   61POPC   C42 3162   4.715   5.698   4.340
   61POPC   C43 3163   4.761   5.827   4.271
   61POPC   C44 3164   4.800   5.800   4.125
   61POPC   C45 3165   4.831   5.930   4.052
   61POPC   C46 3166   4.879   5.905   3.909
   61POPC   C47 3167   4.897   6.036   3.833
   61POPC   C48 3168   4.951   6.012   3.692
   61POPC   C49 3169   4.958   6.143   3.614
   61POPC   C50 3170   5.056   6.241   3.678
   61POPC   C51 3171   5.060   6.373   3.601
   61POPC   C52 3172   5.153   0.068   3.670
   62POPC    C1 3173   3.372   5.953   5.493
   62POPC    C2 3174   3.384   5.726   5.573
   62POPC    C3 3175   3.176   5.837   5.560
   62POPC    N4 3176   3.306   5.821   5.493
   62POPC    C5 3177   3.281   5.767   5.357
   62POPC    C6 3178   3.395   5.756   5.253
   62POPC   OS7 3179   3.439   5.882   5.204
   62POPC    P8 3180   3.529   5.875   5.076
   62POPC   OM9 3181   3.636   5.973   5.097
   62POPC  OM10 3182   3.548   5.737   5.031
   62POPC  OS11 3183   3.422   5.942   4.985
   62POPC   C12 3184   3.477   5.983   4.860
   62POPC   C13 3185   3.373   6.047   4.766
   62POPC  OS14 3186   3.276   5.952   4.716
   62POPC   C15 3187   3.145   5.967   4.749
   62POPC   O16 3188   3.103   6.057   4.824
   62POPC   C17 3189   3.062   5.853   4.693
   62POPC   C18 3190   3.084   5.727   4.776
   62POPC   C19 3191   3.016   5.605   4.715
   62POPC   C20 3192   3.090   5.557   4.589
   62POPC   C21 3193   3.023   5.433   4.531
   62POPC   C22 3194   3.100   5.373   4.413
   62POPC   C23 3195   3.090   5.459   4.288
   62POPC   C24 3196   2.950   5.468   4.234
   62POPC   C25 3197   2.903   5.419   4.118
   62POPC   C26 3198   2.980   5.343   4.013
   62POPC   C27 3199   2.985   5.416   3.879
   62POPC   C28 3200   3.055   5.330   3.774
   62POPC   C29 3201   3.051   5.394   3.635
   62POPC   C30 3202   3.104   5.299   3.529
   62POPC   C31 3203   3.257   5.285   3.533
   62POPC   C32 3204   3.325   5.409   3.476
   62POPC   C33 3205   3.477   5.394   3.476
   62POPC   C34 3206   3.450   6.115   4.651
   62POPC  OS35 3207   3.539   6.222   4.688
   62POPC   C36 3208   3.486   6.346   4.708
   62POPC   O37 3209   3.365   6.367   4.725
   62POPC   C38 3210   3.595   0.046   4.723
   62POPC   C39 3211   3.543   0.168   4.798
   62POPC   C40 3212   3.632   0.290   4.770
   62POPC   C41 3213   3.614   0.335   4.625
   62POPC   C42 3214   3.695   0.460   4.594
   62POPC   C43 3215   3.678   0.499   4.447
   62POPC   C44 3216   3.762   0.621   4.411
   62POPC   C45 3217   3.755   0.651   4.261
   62POPC   C46 3218   3.842   0.771   4.224
   62POPC   C47 3219   3.839   0.796   4.074
   62POPC   C48 3220   3.908   0.683   3.998
   62POPC   C49 3221   3.901   0.706   3.847
   62POPC   C50 3222   3.986   0.826   3.805
   62POPC   C51 3223   3.977   0.851   3.655
   62POPC   C52 3224   4.037   0.734   3.576
   63POPC    C1 3225   3.645   1.016   5.218
   63POPC    C2 3226   3.638   1.008   4.979
   63POPC    C3 3227   3.656   1.216   5.091
   63POPC    N4 3228   3.698   1.076   5.095
   63POPC    C5 3229   3.846   1.072   5.088
   63POPC    C6 3230   3.922   0.938   5.100
   63POPC   OS7 3231   4.063   0.944   5.080
   63POPC    P8 3232   4.133   0.807   5.110
   63POPC   OM9 3233   4.277   0.822   5.089
   63POPC  OM10 3234   4.081   0.762   5.240
   63POPC  OS11 3235   4.069   0.715   5.001
   63POPC   C12 3236   4.139   0.719   4.876
   63POPC   C13 3237   4.052   0.669   4.759
   63POPC  OS14 3238   4.129   0.614   4.650
   63POPC   C15 3239   4.124   0.479   4.637
   63POPC   O16 3240   4.069   0.406   4.720
   63POPC   C17 3241   4.214   0.432   4.523
   63POPC   C18 3242   4.167   0.297   4.466
   63POPC   C19 3243   4.048   0.315   4.373
   63POPC   C20 3244   4.003   0.180   4.318
   63POPC   C21 3245   3.890   0.195   4.216
   63POPC   C22 3246   3.849   0.057   4.164
   63POPC   C23 3247   3.772   6.384   4.271
   63POPC   C24 3248   3.631   0.028   4.287
   63POPC   C25 3249   3.519   6.361   4.272
   63POPC   C26 3250   3.507   6.216   4.237
   63POPC   C27 3251   3.428   6.187   4.109
   63POPC   C28 3252   3.498   6.235   3.982
   63POPC   C29 3253   3.422   6.189   3.858
   63POPC   C30 3254   3.484   6.245   3.730
   63POPC   C31 3255   3.413   6.190   3.605
   63POPC   C32 3256   3.268   6.238   3.596
   63POPC   C33 3257   3.259   6.387   3.563
   63POPC   C34 3258   3.953   0.783   4.727
   63POPC  OS35 3259   4.015   0.912   4.705
   63POPC   C36 3260   3.931   1.018   4.687
   63POPC   O37 3261   3.812   1.017   4.718
   63POPC   C38 3262   4.012   1.144   4.663
   63POPC   C39 3263   3.927   1.250   4.591
   63POPC   C40 3264   3.921   1.225   4.441
   63POPC   C41 3265   3.829   1.327   4.374
   63POPC   C42 3266   3.845   1.329   4.222
   63POPC   C43 3267   3.802   1.197   4.157
   63POPC   C44 3268   3.815   1.207   4.005
   63POPC   C45 3269   3.962   1.224   3.964
   63POPC   C46 3270   3.975   1.235   3.812
   63POPC   C47 3271   4.120   1.257   3.769
   63POPC   C48 3272   4.132   1.264   3.617
   63POPC   C49 3273   4.277   1.289   3.574
   63POPC   C50 3274   4.289   1.296   3.422
   63POPC   C51 3275   4.271   1.158   3.358
   63POPC   C52 3276   4.389   1.067   3.391
   64POPC    C1 3277   5.026   3.901   5.771
   64POPC    C2 3278   4.957   4.122   5.722
   64POPC    C3 3279   5.187   4.077   5.765
   64POPC    N4 3280   5.065   4.025   5.702
   64POPC    C5 3281   5.087   4.007   5.557
   64POPC    C6 3282   5.177   3.893   5.504
   64POPC   OS7 3283   5.109   3.767   5.502
   64POPC    P8 3284   5.198   3.649   5.447
   64POPC   OM9 3285   5.331   3.659   5.507
   64POPC  OM10 3286   5.115   3.529   5.456
   64POPC  OS11 3287   5.208   3.691   5.296
   64POPC   C12 3288   5.086   3.681   5.223
   64POPC   C13 3289   5.098   3.752   5.087
   64POPC  OS14 3290   4.971   3.797   5.031
   64POPC   C15 3291   4.964   3.933   5.016
   64POPC   O16 3292   5.021   4.008   5.095
   64POPC   C17 3293   4.841   3.970   4.935
   64POPC   C18 3294   4.874   4.017   4.793
   64POPC   C19 3295   4.932   4.158   4.792
   64POPC   C20 3296   4.949   4.207   4.648
   64POPC   C21 3297   5.053   4.123   4.574
   64POPC   C22 3298   5.065   4.164   4.427
   64POPC   C23 3299   4.936   4.135   4.351
   64POPC   C24 3300   4.949   4.163   4.204
   64POPC   C25 3301   4.947   4.075   4.103
   64POPC   C26 3302   4.929   3.926   4.115
   64POPC   C27 3303   4.819   3.872   4.023
   64POPC   C28 3304   4.863   3.875   3.876
   64POPC   C29 3305   4.752   3.815   3.788
   64POPC   C30 3306   4.798   3.799   3.643
   64POPC   C31 3307   4.907   3.693   3.632
   64POPC   C32 3308   4.943   3.666   3.486
   64POPC   C33 3309   5.009   3.788   3.422
   64POPC   C34 3310   5.187   3.661   4.999
   64POPC  OS35 3311   5.225   3.717   4.871
   64POPC   C36 3312   5.336   3.795   4.867
   64POPC   O37 3313   5.412   3.814   4.961
   64POPC   C38 3314   5.356   3.850   4.726
   64POPC   C39 3315   5.500   3.830   4.678
   64POPC   C40 3316   5.528   3.682   4.649
   64POPC   C41 3317   5.668   3.661   4.590
   64POPC   C42 3318   5.676   3.723   4.451
   64POPC   C43 3319   5.808   3.689   4.381
   64POPC   C44 3320   5.811   3.755   4.243
   64POPC   C45 3321   5.936   3.716   4.163
   64POPC   C46 3322   5.939   3.793   4.031
   64POPC   C47 3323   6.054   3.746   3.941
   64POPC   C48 3324   6.057   3.828   3.812
   64POPC   C49 3325   6.160   3.774   3.713
   64POPC   C50 3326   6.114   3.641   3.653
   64POPC   C51 3327   6.215   3.588   3.551
   64POPC   C52 3328   6.164   3.459   3.487
   65POPC    C1 3329   5.595   5.805   1.283
   65POPC    C2 3330   5.504   5.786   1.066
   65POPC    C3 3331   5.363   5.841   1.254
   65POPC    N4 3332   5.495   5.861   1.192
   65POPC    C5 3333   5.526   6.005   1.174
   65POPC    C6 3334   5.431   6.092   1.088
   65POPC   OS7 3335   5.453   6.232   1.104
   65POPC    P8 3336   5.325   6.308   1.155
   65POPC   OM9 3337   5.363   0.045   1.167
   65POPC  OM10 3338   5.211   6.268   1.071
   65POPC  OS11 3339   5.304   6.241   1.295
   65POPC   C12 3340   5.336   6.326   1.406
   65POPC   C13 3341   5.266   6.286   1.537
   65POPC  OS14 3342   5.276   6.387   1.640
   65POPC   C15 3343   5.174   6.391   1.730
   65POPC   O16 3344   5.072   6.322   1.719
   65POPC   C17 3345   5.200   0.089   1.839
   65POPC   C18 3346   5.077   0.110   1.927
   65POPC   C19 3347   5.111   0.203   2.043
   65POPC   C20 3348   4.990   0.230   2.132
   65POPC   C21 3349   5.028   0.325   2.246
   65POPC   C22 3350   4.907   0.355   2.335
   65POPC   C23 3351   4.947   0.448   2.450
   65POPC   C24 3352   4.831   0.479   2.540
   65POPC   C25 3353   4.772   0.597   2.562
   65POPC   C26 3354   4.806   0.732   2.504
   65POPC   C27 3355   4.875   0.821   2.608
   65POPC   C28 3356   4.783   0.846   2.727
   65POPC   C29 3357   4.855   0.925   2.837
   65POPC   C30 3358   4.766   0.938   2.961
   65POPC   C31 3359   4.840   1.011   3.073
   65POPC   C32 3360   4.755   1.015   3.201
   65POPC   C33 3361   4.737   0.874   3.258
   65POPC   C34 3362   5.316   6.145   1.574
   65POPC  OS35 3363   5.458   6.128   1.590
   65POPC   C36 3364   5.500   6.000   1.608
   65POPC   O37 3365   5.440   5.904   1.558
   65POPC   C38 3366   5.648   5.997   1.641
   65POPC   C39 3367   5.696   5.853   1.663
   65POPC   C40 3368   5.655   5.802   1.801
   65POPC   C41 3369   5.692   5.654   1.817
   65POPC   C42 3370   5.671   5.607   1.961
   65POPC   C43 3371   5.705   5.459   1.976
   65POPC   C44 3372   5.705   5.416   2.123
   65POPC   C45 3373   5.822   5.480   2.197
   65POPC   C46 3374   5.840   5.421   2.337
   65POPC   C47 3375   5.964   5.480   2.404
   65POPC   C48 3376   5.998   5.409   2.535
   65POPC   C49 3377   6.130   5.463   2.591
   65POPC   C50 3378   6.173   5.387   2.716
   65POPC   C51 3379   6.309   5.436   2.766
   65POPC   C52 3380   0.019   5.359   2.890
   66POPC    C1 3381   4.806   1.946   1.588
   66POPC    C2 3382   4.788   2.166   1.496
   66POPC    C3 3383   4.915   2.004   1.386
   66POPC    N4 3384   4.793   2.023   1.464
   66POPC    C5 3385   4.677   1.982   1.382
   66POPC    C6 3386   4.537   1.971   1.448
   66POPC   OS7 3387   4.490   2.090   1.512
   66POPC    P8 3388   4.351   2.066   1.579
   66POPC   OM9 3389   4.251   2.087   1.473
   66POPC  OM10 3390   4.353   1.942   1.657
   66POPC  OS11 3391   4.354   2.190   1.674
   66POPC   C12 3392   4.435   2.165   1.790
   66POPC   C13 3393   4.437   2.278   1.894
   66POPC  OS14 3394   4.523   2.250   2.008
   66POPC   C15 3395   4.565   2.360   2.077
   66POPC   O16 3396   4.536   2.475   2.043
   66POPC   C17 3397   4.643   2.323   2.202
   66POPC   C18 3398   4.682   2.448   2.281
   66POPC   C19 3399   4.729   2.412   2.421
   66POPC   C20 3400   4.776   2.536   2.497
   66POPC   C21 3401   4.808   2.502   2.643
   66POPC   C22 3402   4.679   2.464   2.716
   66POPC   C23 3403   4.706   2.425   2.862
   66POPC   C24 3404   4.578   2.392   2.933
   66POPC   C25 3405   4.532   2.271   2.970
   66POPC   C26 3406   4.597   2.138   2.952
   66POPC   C27 3407   4.547   2.036   3.055
   66POPC   C28 3408   4.615   1.901   3.036
   66POPC   C29 3409   4.554   1.797   3.131
   66POPC   C30 3410   4.623   1.661   3.118
   66POPC   C31 3411   4.557   1.559   3.210
   66POPC   C32 3412   4.630   1.424   3.205
   66POPC   C33 3413   4.770   1.436   3.266
   66POPC   C34 3414   4.289   2.305   1.928
   66POPC  OS35 3415   4.217   2.192   1.981
   66POPC   C36 3416   4.083   2.208   1.996
   66POPC   O37 3417   4.018   2.296   1.938
   66POPC   C38 3418   4.024   2.089   2.068
   66POPC   C39 3419   3.874   2.107   2.090
   66POPC   C40 3420   3.820   1.997   2.181
   66POPC   C41 3421   3.874   2.013   2.324
   66POPC   C42 3422   3.815   1.907   2.417
   66POPC   C43 3423   3.859   1.933   2.561
   66POPC   C44 3424   3.789   1.837   2.658
   66POPC   C45 3425   3.825   1.874   2.802
   66POPC   C46 3426   3.747   1.792   2.905
   66POPC   C47 3427   3.779   1.842   3.046
   66POPC   C48 3428   3.700   1.768   3.153
   66POPC   C49 3429   3.733   1.824   3.291
   66POPC   C50 3430   3.651   1.755   3.401
   66POPC   C51 3431   3.681   1.816   3.538
   66POPC   C52 3432   3.630   1.960   3.547
   67POPC    C1 3433   5.313   2.598   1.189
   67POPC    C2 3434   5.127   2.476   1.109
   67POPC    C3 3435   5.339   2.445   1.005
   67POPC    N4 3436   5.271   2.468   1.134
   67POPC    C5 3437   5.295   2.358   1.229
   67POPC    C6 3438   5.440   2.325   1.271
   67POPC   OS7 3439   5.452   2.212   1.357
   67POPC    P8 3440   5.604   2.178   1.380
   67POPC   OM9 3441   5.641   2.113   1.254
   67POPC  OM10 3442   5.669   2.301   1.427
   67POPC  OS11 3443   5.588   2.073   1.495
   67POPC   C12 3444   5.544   2.131   1.618
   67POPC   C13 3445   5.470   2.032   1.709
   67POPC  OS14 3446   5.418   2.094   1.831
   67POPC   C15 3447   5.323   2.025   1.901
   67POPC   O16 3448   5.291   1.909   1.872
   67POPC   C17 3449   5.282   2.099   2.027
   67POPC   C18 3450   5.135   2.141   2.021
   67POPC   C19 3451   5.090   2.205   2.152
   67POPC   C20 3452   5.078   2.101   2.262
   67POPC   C21 3453   5.032   2.165   2.393
   67POPC   C22 3454   5.004   2.060   2.500
   67POPC   C23 3455   4.952   2.123   2.629
   67POPC   C24 3456   4.919   2.021   2.734
   67POPC   C25 3457   4.985   1.994   2.847
   67POPC   C26 3458   5.110   2.059   2.898
   67POPC   C27 3459   5.082   2.174   2.995
   67POPC   C28 3460   5.212   2.241   3.038
   67POPC   C29 3461   5.186   2.362   3.128
   67POPC   C30 3462   5.112   2.472   3.050
   67POPC   C31 3463   5.101   2.600   3.134
   67POPC   C32 3464   5.014   2.579   3.257
   67POPC   C33 3465   5.007   2.706   3.341
   67POPC   C34 3466   5.568   1.915   1.730
   67POPC  OS35 3467   5.673   1.939   1.826
   67POPC   C36 3468   5.687   1.840   1.919
   67POPC   O37 3469   5.646   1.725   1.902
   67POPC   C38 3470   5.775   1.886   2.034
   67POPC   C39 3471   5.689   1.915   2.158
   67POPC   C40 3472   5.650   1.786   2.230
   67POPC   C41 3473   5.552   1.816   2.344
   67POPC   C42 3474   5.532   1.696   2.436
   67POPC   C43 3475   5.662   1.668   2.512
   67POPC   C44 3476   5.641   1.568   2.627
   67POPC   C45 3477   5.775   1.545   2.698
   67POPC   C46 3478   5.759   1.469   2.829
   67POPC   C47 3479   5.896   1.456   2.896
   67POPC   C48 3480   5.886   1.400   3.038
   67POPC   C49 3481   5.844   1.254   3.039
   67POPC   C50 3482   5.841   1.202   3.183
   67POPC   C51 3483   5.803   1.054   3.188
   67POPC   C52 3484   5.804   1.004   3.333
   68POPC    C1 3485   4.666   3.855   1.800
   68POPC    C2 3486   4.782   3.650   1.790
   68POPC    C3 3487   4.649   3.700   1.982
   68POPC    N4 3488   4.658   3.712   1.836
   68POPC    C5 3489   4.539   3.657   1.766
   68POPC    C6 3490   4.510   3.505   1.762
   68POPC   OS7 3491   4.386   3.474   1.699
   68POPC    P8 3492   4.366   3.318   1.684
   68POPC   OM9 3493   4.417   3.289   1.549
   68POPC  OM10 3494   4.425   3.253   1.801
   68POPC  OS11 3495   4.210   3.312   1.689
   68POPC   C12 3496   4.159   3.338   1.820
   68POPC   C13 3497   4.008   3.314   1.836
   68POPC  OS14 3498   3.951   3.389   1.947
   68POPC   C15 3499   3.863   3.488   1.917
   68POPC   O16 3500   3.837   3.523   1.801
   68POPC   C17 3501   3.808   3.553   2.044
   68POPC   C18 3502   3.694   3.648   2.011
   68POPC   C19 3503   3.647   3.725   2.134
   68POPC   C20 3504   3.529   3.815   2.098
   68POPC   C21 3505   3.483   3.902   2.215
   68POPC   C22 3506   3.358   3.980   2.177
   68POPC   C23 3507   3.239   3.885   2.163
   68POPC   C24 3508   3.113   3.953   2.118
   68POPC   C25 3509   3.005   3.985   2.191
   68POPC   C26 3510   2.983   3.961   2.338
   68POPC   C27 3511   2.890   3.843   2.365
   68POPC   C28 3512   2.868   3.825   2.515
   68POPC   C29 3513   2.789   3.697   2.543
   68POPC   C30 3514   2.771   3.675   2.693
   68POPC   C31 3515   2.706   3.540   2.722
   68POPC   C32 3516   2.802   3.425   2.690
   68POPC   C33 3517   2.919   3.423   2.788
   68POPC   C34 3518   3.987   3.161   1.842
   68POPC  OS35 3519   4.054   3.098   1.954
   68POPC   C36 3520   4.024   2.967   1.979
   68POPC   O37 3521   3.957   2.895   1.905
   68POPC   C38 3522   4.092   2.922   2.107
   68POPC   C39 3523   4.115   2.771   2.106
   68POPC   C40 3524   4.174   2.724   2.239
   68POPC   C41 3525   4.198   2.573   2.237
   68POPC   C42 3526   4.237   2.520   2.375
   68POPC   C43 3527   4.249   2.367   2.371
   68POPC   C44 3528   4.271   2.309   2.511
   68POPC   C45 3529   4.277   2.156   2.503
   68POPC   C46 3530   4.283   2.092   2.641
   68POPC   C47 3531   4.287   1.940   2.628
   68POPC   C48 3532   4.285   1.871   2.765
   68POPC   C49 3533   4.291   1.719   2.747
   68POPC   C50 3534   4.286   1.646   2.881
   68POPC   C51 3535   4.149   1.662   2.947
   68POPC   C52 3536   4.143   1.586   3.081
   69POPC    C1 3537   5.245   1.008   1.530
   69POPC    C2 3538   5.380   0.831   1.608
   69POPC    C3 3539   5.179   0.783   1.488
   69POPC    N4 3540   5.294   0.873   1.498
   69POPC    C5 3541   5.369   0.881   1.370
   69POPC    C6 3542   5.428   0.754   1.305
   69POPC   OS7 3543   5.531   0.690   1.381
   69POPC    P8 3544   5.563   0.548   1.321
   69POPC   OM9 3545   5.437   0.477   1.296
   69POPC  OM10 3546   5.655   0.574   1.210
   69POPC  OS11 3547   5.637   0.476   1.439
   69POPC   C12 3548   5.583   0.492   1.571
   69POPC   C13 3549   5.448   0.424   1.602
   69POPC  OS14 3550   5.377   0.485   1.712
   69POPC   C15 3551   5.242   0.472   1.712
   69POPC   O16 3552   5.180   0.436   1.611
   69POPC   C17 3553   5.180   0.545   1.830
   69POPC   C18 3554   5.027   0.544   1.818
   69POPC   C19 3555   4.965   0.653   1.905
   69POPC   C20 3556   4.996   0.790   1.846
   69POPC   C21 3557   4.934   0.904   1.926
   69POPC   C22 3558   4.781   0.903   1.915
   69POPC   C23 3559   4.721   1.021   1.990
   69POPC   C24 3560   4.570   1.019   1.988
   69POPC   C25 3561   4.490   1.011   2.095
   69POPC   C26 3562   4.530   1.002   2.240
   69POPC   C27 3563   4.463   1.109   2.327
   69POPC   C28 3564   4.509   1.250   2.290
   69POPC   C29 3565   4.655   1.274   2.329
   69POPC   C30 3566   4.699   1.415   2.291
   69POPC   C31 3567   4.624   1.521   2.372
   69POPC   C32 3568   4.665   1.662   2.329
   69POPC   C33 3569   4.591   1.768   2.410
   69POPC   C34 3570   5.472   0.271   1.600
   69POPC  OS35 3571   5.583   0.222   1.678
   69POPC   C36 3572   5.639   0.108   1.630
   69POPC   O37 3573   5.636   0.077   1.511
   69POPC   C38 3574   5.742   0.055   1.729
   69POPC   C39 3575   5.689   6.340   1.807
   69POPC   C40 3576   5.587   6.383   1.913
   69POPC   C41 3577   5.524   6.261   1.981
   69POPC   C42 3578   5.627   6.184   2.064
   69POPC   C43 3579   5.561   6.061   2.128
   69POPC   C44 3580   5.663   5.980   2.209
   69POPC   C45 3581   5.599   5.852   2.263
   69POPC   C46 3582   5.497   5.881   2.373
   69POPC   C47 3583   5.425   5.753   2.415
   69POPC   C48 3584   5.520   5.653   2.482
   69POPC   C49 3585   5.557   5.695   2.624
   69POPC   C50 3586   5.652   5.593   2.687
   69POPC   C51 3587   5.689   5.632   2.830
   69POPC   C52 3588   5.569   5.620   2.924
   70POPC    C1 3589   0.455   0.988   1.201
   70POPC    C2 3590   0.349   0.796   1.120
   70POPC    C3 3591   0.225   0.946   1.257
   70POPC    N4 3592   0.327   0.938   1.151
   70POPC    C5 3593   0.283   1.008   1.028
   70POPC    C6 3594   0.230   1.154   1.040
   70POPC   OS7 3595   0.326   1.248   1.088
   70POPC    P8 3596   0.252   1.351   1.182
   70POPC   OM9 3597   0.165   1.430   1.094
   70POPC  OM10 3598   0.202   1.269   1.292
   70POPC  OS11 3599   0.378   1.438   1.221
   70POPC   C12 3600   0.438   1.391   1.342
   70POPC   C13 3601   0.562   1.469   1.391
   70POPC  OS14 3602   0.625   1.405   1.505
   70POPC   C15 3603   0.744   1.344   1.480
   70POPC   O16 3604   0.799   1.350   1.370
   70POPC   C17 3605   0.797   1.271   1.603
   70POPC   C18 3606   0.949   1.280   1.617
   70POPC   C19 3607   0.990   1.419   1.666
   70POPC   C20 3608   1.139   1.422   1.701
   70POPC   C21 3609   1.178   1.558   1.760
   70POPC   C22 3610   1.319   1.556   1.817
   70POPC   C23 3611   1.352   1.690   1.884
   70POPC   C24 3612   1.488   1.690   1.948
   70POPC   C25 3613   1.517   1.680   2.078
   70POPC   C26 3614   1.422   1.667   2.193
   70POPC   C27 3615   1.492   1.617   2.320
   70POPC   C28 3616   1.594   1.719   2.368
   70POPC   C29 3617   1.661   1.678   2.499
   70POPC   C30 3618   1.559   1.670   2.613
   70POPC   C31 3619   1.629   1.658   2.748
   70POPC   C32 3620   1.711   1.529   2.758
   70POPC   C33 3621   1.777   1.517   2.895
   70POPC   C34 3622   0.520   1.615   1.413
   70POPC  OS35 3623   0.408   1.635   1.503
   70POPC   C36 3624   0.434   1.707   1.616
   70POPC   O37 3625   0.520   1.795   1.622
   70POPC   C38 3626   0.314   1.700   1.708
   70POPC   C39 3627   0.317   1.808   1.816
   70POPC   C40 3628   0.405   1.768   1.934
   70POPC   C41 3629   0.421   1.884   2.033
   70POPC   C42 3630   0.498   1.998   1.967
   70POPC   C43 3631   0.543   2.104   2.068
   70POPC   C44 3632   0.641   2.202   2.003
   70POPC   C45 3633   0.703   2.293   2.108
   70POPC   C46 3634   0.821   2.371   2.050
   70POPC   C47 3635   0.893   2.447   2.161
   70POPC   C48 3636   1.021   2.515   2.112
   70POPC   C49 3637   1.093   2.580   2.230
   70POPC   C50 3638   1.136   2.474   2.332
   70POPC   C51 3639   1.202   2.537   2.454
   70POPC   C52 3640   1.240   2.429   2.556
   71POPC    C1 3641   6.222   0.358   0.615
   71POPC    C2 3642   6.255   0.557   0.486
   71POPC    C3 3643   6.039   0.461   0.507
   71POPC    N4 3644   6.164   0.488   0.579
   71POPC    C5 3645   6.132   0.570   0.698
   71POPC    C6 3646   6.247   0.612   0.792
   71POPC   OS7 3647   6.212   0.713   0.886
   71POPC    P8 3648   0.002   0.770   0.963
   71POPC   OM9 3649   0.125   0.748   0.885
   71POPC  OM10 3650   6.308   0.900   1.023
   71POPC  OS11 3651   0.013   0.666   1.079
   71POPC   C12 3652   6.246   0.683   1.177
   71POPC   C13 3653   6.245   0.576   1.287
   71POPC  OS14 3654   6.135   0.597   1.379
   71POPC   C15 3655   6.062   0.488   1.414
   71POPC   O16 3656   6.037   0.398   1.333
   71POPC   C17 3657   5.987   0.515   1.543
   71POPC   C18 3658   6.085   0.504   1.660
   71POPC   C19 3659   6.019   0.535   1.794
   71POPC   C20 3660   5.907   0.434   1.821
   71POPC   C21 3661   5.852   0.452   1.963
   71POPC   C22 3662   5.722   0.374   1.980
   71POPC   C23 3663   5.671   0.383   2.123
   71POPC   C24 3664   5.534   0.323   2.136
   71POPC   C25 3665   5.429   0.376   2.200
   71POPC   C26 3666   5.421   0.506   2.275
   71POPC   C27 3667   5.344   0.613   2.198
   71POPC   C28 3668   5.331   0.740   2.283
   71POPC   C29 3669   5.254   0.848   2.208
   71POPC   C30 3670   5.233   0.971   2.297
   71POPC   C31 3671   5.159   1.081   2.221
   71POPC   C32 3672   5.131   1.201   2.311
   71POPC   C33 3673   5.029   1.165   2.420
   71POPC   C34 3674   0.049   0.583   1.353
   71POPC  OS35 3675   0.078   0.484   1.454
   71POPC   C36 3676   0.156   0.380   1.416
   71POPC   O37 3677   0.216   0.373   1.308
   71POPC   C38 3678   0.183   0.291   1.536
   71POPC   C39 3679   0.297   0.192   1.506
   71POPC   C40 3680   0.366   0.150   1.636
   71POPC   C41 3681   0.445   0.269   1.692
   71POPC   C42 3682   0.531   0.227   1.812
   71POPC   C43 3683   0.446   0.197   1.935
   71POPC   C44 3684   0.535   0.144   2.047
   71POPC   C45 3685   0.457   0.122   2.177
   71POPC   C46 3686   0.427   0.254   2.246
   71POPC   C47 3687   0.361   0.228   2.382
   71POPC   C48 3688   0.349   0.357   2.463
   71POPC   C49 3689   0.293   0.328   2.602
   71POPC   C50 3690   0.285   0.457   2.684
   71POPC   C51 3691   0.224   0.432   2.822
   71POPC   C52 3692   0.214   0.563   2.900
   72POPC    C1 3693   5.839   3.026   1.346
   72POPC    C2 3694   5.713   2.824   1.361
   72POPC    C3 3695   5.765   2.949   1.557
   72POPC    N4 3696   5.728   2.960   1.415
   72POPC    C5 3697   5.606   3.043   1.395
   72POPC    C6 3698   5.466   2.994   1.440
   72POPC   OS7 3699   5.362   3.088   1.419
   72POPC    P8 3700   5.220   3.030   1.453
   72POPC   OM9 3701   5.126   3.139   1.424
   72POPC  OM10 3702   5.203   2.903   1.381
   72POPC  OS11 3703   5.229   3.002   1.606
   72POPC   C12 3704   5.105   2.954   1.656
   72POPC   C13 3705   5.113   2.862   1.779
   72POPC  OS14 3706   4.981   2.812   1.816
   72POPC   C15 3707   4.977   2.687   1.872
   72POPC   O16 3708   5.044   2.594   1.825
   72POPC   C17 3709   4.845   2.666   1.944
   72POPC   C18 3710   4.812   2.781   2.039
   72POPC   C19 3711   4.897   2.776   2.166
   72POPC   C20 3712   4.860   2.891   2.259
   72POPC   C21 3713   4.714   2.877   2.304
   72POPC   C22 3714   4.675   2.987   2.403
   72POPC   C23 3715   4.527   2.977   2.439
   72POPC   C24 3716   4.492   2.851   2.513
   72POPC   C25 3717   4.396   2.838   2.606
   72POPC   C26 3718   4.303   2.946   2.653
   72POPC   C27 3719   4.263   2.931   2.800
   72POPC   C28 3720   4.180   2.805   2.822
   72POPC   C29 3721   4.116   2.806   2.961
   72POPC   C30 3722   4.033   2.680   2.982
   72POPC   C31 3723   3.961   2.683   3.117
   72POPC   C32 3724   3.852   2.791   3.117
   72POPC   C33 3725   3.781   2.798   3.252
   72POPC   C34 3726   5.184   2.942   1.891
   72POPC  OS35 3727   5.201   2.872   2.016
   72POPC   C36 3728   5.318   2.806   2.038
   72POPC   O37 3729   5.425   2.839   1.988
   72POPC   C38 3730   5.305   2.711   2.156
   72POPC   C39 3731   5.424   2.615   2.159
   72POPC   C40 3732   5.402   2.498   2.255
   72POPC   C41 3733   5.521   2.402   2.248
   72POPC   C42 3734   5.493   2.270   2.320
   72POPC   C43 3735   5.491   2.282   2.472
   72POPC   C44 3736   5.471   2.144   2.534
   72POPC   C45 3737   5.490   2.143   2.685
   72POPC   C46 3738   5.486   1.999   2.738
   72POPC   C47 3739   5.523   1.994   2.887
   72POPC   C48 3740   5.529   1.850   2.937
   72POPC   C49 3741   5.577   1.846   3.083
   72POPC   C50 3742   5.587   1.702   3.134
   72POPC   C51 3743   5.639   1.700   3.277
   72POPC   C52 3744   5.649   1.557   3.330
   73POPC    C1 3745   5.723   1.793   1.395
   73POPC    C2 3746   5.913   1.677   1.317
   73POPC    C3 3747   5.840   1.877   1.206
   73POPC    N4 3748   5.856   1.811   1.336
   73POPC    C5 3749   5.938   1.890   1.431
   73POPC    C6 3750   6.082   1.935   1.394
   73POPC   OS7 3751   6.091   2.045   1.302
   73POPC    P8 3752   6.141   2.177   1.373
   73POPC   OM9 3753   6.258   2.138   1.452
   73POPC  OM10 3754   6.152   2.275   1.264
   73POPC  OS11 3755   6.018   2.205   1.465
   73POPC   C12 3756   6.049   2.298   1.570
   73POPC   C13 3757   5.943   2.301   1.681
   73POPC  OS14 3758   5.960   2.409   1.777
   73POPC   C15 3759   5.852   2.446   1.851
   73POPC   O16 3760   5.736   2.415   1.822
   73POPC   C17 3761   5.892   2.548   1.957
   73POPC   C18 3762   5.982   2.481   2.061
   73POPC   C19 3763   6.041   2.583   2.159
   73POPC   C20 3764   6.125   2.509   2.264
   73POPC   C21 3765   6.035   2.431   2.359
   73POPC   C22 3766   6.117   2.342   2.452
   73POPC   C23 3767   6.028   2.276   2.558
   73POPC   C24 3768   5.918   2.192   2.498
   73POPC   C25 3769   5.897   2.061   2.513
   73POPC   C26 3770   5.977   1.962   2.593
   73POPC   C27 3771   5.933   1.954   2.739
   73POPC   C28 3772   6.013   1.846   2.812
   73POPC   C29 3773   5.979   1.841   2.961
   73POPC   C30 3774   6.041   1.959   3.036
   73POPC   C31 3775   6.009   1.950   3.185
   73POPC   C32 3776   6.080   2.060   3.265
   73POPC   C33 3777   6.049   2.048   3.414
   73POPC   C34 3778   5.940   2.159   1.741
   73POPC  OS35 3779   6.065   2.107   1.793
   73POPC   C36 3780   6.072   1.971   1.801
   73POPC   O37 3781   5.992   1.897   1.743
   73POPC   C38 3782   6.197   1.923   1.872
   73POPC   C39 3783   6.177   1.777   1.914
   73POPC   C40 3784   6.302   1.717   1.978
   73POPC   C41 3785   6.280   1.569   2.008
   73POPC   C42 3786   0.074   1.500   2.052
   73POPC   C43 3787   0.112   1.537   2.195
   73POPC   C44 3788   0.243   1.468   2.233
   73POPC   C45 3789   0.276   1.487   2.381
   73POPC   C46 3790   0.409   1.420   2.417
   73POPC   C47 3791   0.529   1.498   2.363
   73POPC   C48 3792   0.550   1.627   2.443
   73POPC   C49 3793   0.590   1.594   2.587
   73POPC   C50 3794   0.597   1.721   2.672
   73POPC   C51 3795   0.630   1.686   2.817
   73POPC   C52 3796   0.634   1.812   2.904
   74POPC    C1 3797   4.258   4.261   1.336
   74POPC    C2 3798   4.211   4.042   1.413
   74POPC    C3 3799   4.149   4.232   1.544
   74POPC    N4 3800   4.160   4.179   1.407
   74POPC    C5 3801   4.032   4.186   1.332
   74POPC    C6 3802   3.904   4.125   1.393
   74POPC   OS7 3803   3.909   3.983   1.410
   74POPC    P8 3804   3.791   3.932   1.501
   74POPC   OM9 3805   3.671   4.003   1.453
   74POPC  OM10 3806   3.806   3.787   1.487
   74POPC  OS11 3807   3.848   3.988   1.637
   74POPC   C12 3808   3.901   3.885   1.720
   74POPC   C13 3809   3.956   3.933   1.855
   74POPC  OS14 3810   4.011   3.823   1.932
   74POPC   C15 3811   4.146   3.814   1.944
   74POPC   O16 3812   4.225   3.877   1.873
   74POPC   C17 3813   4.184   3.698   2.034
   74POPC   C18 3814   4.210   3.742   2.178
   74POPC   C19 3815   4.346   3.811   2.189
   74POPC   C20 3816   4.373   3.859   2.332
   74POPC   C21 3817   4.509   3.928   2.340
   74POPC   C22 3818   4.531   3.989   2.479
   74POPC   C23 3819   4.663   4.066   2.485
   74POPC   C24 3820   4.681   4.136   2.616
   74POPC   C25 3821   4.784   4.127   2.702
   74POPC   C26 3822   4.908   4.043   2.691
   74POPC   C27 3823   4.937   3.972   2.824
   74POPC   C28 3824   5.068   3.893   2.819
   74POPC   C29 3825   5.091   3.825   2.954
   74POPC   C30 3826   5.226   3.753   2.960
   74POPC   C31 3827   5.245   3.689   3.097
   74POPC   C32 3828   5.383   3.623   3.109
   74POPC   C33 3829   5.400   3.558   3.247
   74POPC   C34 3830   3.839   4.008   1.921
   74POPC  OS35 3831   3.864   4.076   2.045
   74POPC   C36 3832   3.776   4.173   2.078
   74POPC   O37 3833   3.684   4.212   2.006
   74POPC   C38 3834   3.810   4.236   2.213
   74POPC   C39 3835   3.888   4.142   2.306
   74POPC   C40 3836   3.905   4.212   2.441
   74POPC   C41 3837   3.993   4.133   2.539
   74POPC   C42 3838   3.932   3.998   2.575
   74POPC   C43 3839   3.999   3.942   2.701
   74POPC   C44 3840   4.148   3.916   2.681
   74POPC   C45 3841   4.211   3.863   2.810
   74POPC   C46 3842   4.362   3.849   2.796
   74POPC   C47 3843   4.427   3.799   2.926
   74POPC   C48 3844   4.579   3.798   2.912
   74POPC   C49 3845   4.647   3.748   3.039
   74POPC   C50 3846   4.622   3.599   3.060
   74POPC   C51 3847   4.694   3.548   3.185
   74POPC   C52 3848   4.672   3.397   3.203
   75POPC    C1 3849   5.045   1.355   1.170
   75POPC    C2 3850   5.253   1.453   1.228
   75POPC    C3 3851   5.061   1.589   1.221
   75POPC    N4 3852   5.109   1.455   1.257
   75POPC    C5 3853   5.092   1.424   1.401
   75POPC    C6 3854   4.951   1.421   1.465
   75POPC   OS7 3855   4.885   1.548   1.479
   75POPC    P8 3856   4.729   1.532   1.500
   75POPC   OM9 3857   4.664   1.664   1.492
   75POPC  OM10 3858   4.687   1.420   1.415
   75POPC  OS11 3859   4.727   1.482   1.649
   75POPC   C12 3860   4.731   1.592   1.742
   75POPC   C13 3861   4.733   1.555   1.891
   75POPC  OS14 3862   4.858   1.497   1.938
   75POPC   C15 3863   4.946   1.588   1.991
   75POPC   O16 3864   4.932   1.709   1.972
   75POPC   C17 3865   5.072   1.520   2.042
   75POPC   C18 3866   5.142   1.604   2.149
   75POPC   C19 3867   5.066   1.599   2.281
   75POPC   C20 3868   5.138   1.683   2.388
   75POPC   C21 3869   5.061   1.683   2.520
   75POPC   C22 3870   5.067   1.548   2.592
   75POPC   C23 3871   4.995   1.557   2.726
   75POPC   C24 3872   5.003   1.429   2.805
   75POPC   C25 3873   4.902   1.352   2.848
   75POPC   C26 3874   4.754   1.373   2.829
   75POPC   C27 3875   4.697   1.278   2.724
   75POPC   C28 3876   4.546   1.295   2.708
   75POPC   C29 3877   4.469   1.240   2.829
   75POPC   C30 3878   4.319   1.248   2.802
   75POPC   C31 3879   4.238   1.193   2.920
   75POPC   C32 3880   4.088   1.200   2.888
   75POPC   C33 3881   4.051   1.104   2.775
   75POPC   C34 3882   4.607   1.471   1.919
   75POPC  OS35 3883   4.483   1.547   1.920
   75POPC   C36 3884   4.374   1.475   1.960
   75POPC   O37 3885   4.371   1.352   1.964
   75POPC   C38 3886   4.252   1.565   1.974
   75POPC   C39 3887   4.240   1.626   2.113
   75POPC   C40 3888   4.210   1.518   2.217
   75POPC   C41 3889   4.190   1.577   2.357
   75POPC   C42 3890   4.190   1.465   2.462
   75POPC   C43 3891   4.070   1.372   2.447
   75POPC   C44 3892   3.942   1.432   2.507
   75POPC   C45 3893   3.824   1.337   2.485
   75POPC   C46 3894   3.699   1.384   2.558
   75POPC   C47 3895   3.713   1.365   2.709
   75POPC   C48 3896   3.585   1.408   2.782
   75POPC   C49 3897   3.597   1.388   2.933
   75POPC   C50 3898   3.470   1.437   3.002
   75POPC   C51 3899   3.480   1.421   3.154
   75POPC   C52 3900   3.357   1.478   3.224
   76POPC    C1 3901   4.893   0.208   0.918
   76POPC    C2 3902   5.062   0.169   1.078
   76POPC    C3 3903   4.849   0.249   1.147
   76POPC    N4 3904   4.918   0.159   1.054
   76POPC    C5 3905   4.869   0.019   1.062
   76POPC    C6 3906   4.884   6.346   1.195
   76POPC   OS7 3907   4.802   6.390   1.303
   76POPC    P8 3908   4.880   6.370   1.438
   76POPC   OM9 3909   4.910   6.226   1.437
   76POPC  OM10 3910   4.978   0.074   1.428
   76POPC  OS11 3911   4.755   0.000   1.525
   76POPC   C12 3912   4.791   0.081   1.637
   76POPC   C13 3913   4.668   0.133   1.714
   76POPC  OS14 3914   4.700   0.223   1.822
   76POPC   C15 3915   4.611   0.323   1.845
   76POPC   O16 3916   4.520   0.349   1.764
   76POPC   C17 3917   4.643   0.399   1.973
   76POPC   C18 3918   4.575   0.535   1.979
   76POPC   C19 3919   4.612   0.607   2.109
   76POPC   C20 3920   4.533   0.553   2.229
   76POPC   C21 3921   4.391   0.609   2.229
   76POPC   C22 3922   4.312   0.560   2.350
   76POPC   C23 3923   4.371   0.613   2.481
   76POPC   C24 3924   4.290   0.567   2.599
   76POPC   C25 3925   4.277   0.624   2.720
   76POPC   C26 3926   4.341   0.750   2.772
   76POPC   C27 3927   4.415   0.723   2.903
   76POPC   C28 3928   4.317   0.673   3.009
   76POPC   C29 3929   4.388   0.639   3.140
   76POPC   C30 3930   4.287   0.582   3.241
   76POPC   C31 3931   4.353   0.543   3.373
   76POPC   C32 3932   4.402   0.667   3.449
   76POPC   C33 3933   4.455   0.628   3.587
   76POPC   C34 3934   4.587   0.009   1.757
   76POPC  OS35 3935   4.655   6.316   1.840
   76POPC   C36 3936   4.585   6.284   1.952
   76POPC   O37 3937   4.463   6.301   1.961
   76POPC   C38 3938   4.668   6.196   2.044
   76POPC   C39 3939   4.643   6.233   2.190
   76POPC   C40 3940   4.689   6.376   2.216
   76POPC   C41 3941   4.685   0.007   2.365
   76POPC   C42 3942   4.800   6.344   2.439
   76POPC   C43 3943   4.806   6.391   2.585
   76POPC   C44 3944   4.930   6.337   2.655
   76POPC   C45 3945   4.939   6.394   2.796
   76POPC   C46 3946   5.072   6.360   2.863
   76POPC   C47 3947   5.080   0.023   2.999
   76POPC   C48 3948   5.217   0.006   3.065
   76POPC   C49 3949   5.224   0.088   3.194
   76POPC   C50 3950   5.211   0.237   3.162
   76POPC   C51 3951   5.217   0.322   3.289
   76POPC   C52 3952   5.357   0.320   3.350
   77POPC    C1 3953   4.510   2.824   1.546
   77POPC    C2 3954   4.634   2.891   1.735
   77POPC    C3 3955   4.747   2.818   1.536
   77POPC    N4 3956   4.633   2.894   1.588
   77POPC    C5 3957   4.628   3.034   1.539
   77POPC    C6 3958   4.748   3.129   1.557
   77POPC   OS7 3959   4.792   3.147   1.691
   77POPC    P8 3960   4.871   3.281   1.716
   77POPC   OM9 3961   5.008   3.252   1.757
   77POPC  OM10 3962   4.843   3.377   1.608
   77POPC  OS11 3963   4.787   3.332   1.839
   77POPC   C12 3964   4.828   3.270   1.961
   77POPC   C13 3965   4.753   3.327   2.082
   77POPC  OS14 3966   4.824   3.303   2.206
   77POPC   C15 3967   4.845   3.413   2.283
   77POPC   O16 3968   4.844   3.527   2.236
   77POPC   C17 3969   4.907   3.376   2.417
   77POPC   C18 3970   4.828   3.437   2.532
   77POPC   C19 3971   4.696   3.362   2.551
   77POPC   C20 3972   4.610   3.428   2.659
   77POPC   C21 3973   4.484   3.345   2.686
   77POPC   C22 3974   4.394   3.416   2.787
   77POPC   C23 3975   4.274   3.329   2.825
   77POPC   C24 3976   4.181   3.401   2.919
   77POPC   C25 3977   4.172   3.389   3.052
   77POPC   C26 3978   4.252   3.301   3.144
   77POPC   C27 3979   4.164   3.196   3.212
   77POPC   C28 3980   4.245   3.115   3.313
   77POPC   C29 3981   4.157   3.015   3.388
   77POPC   C30 3982   4.238   2.944   3.497
   77POPC   C31 3983   4.150   2.846   3.576
   77POPC   C32 3984   4.113   2.726   3.489
   77POPC   C33 3985   4.024   2.628   3.567
   77POPC   C34 3986   4.609   3.273   2.074
   77POPC  OS35 3987   4.512   3.341   2.156
   77POPC   C36 3988   4.405   3.265   2.192
   77POPC   O37 3989   4.390   3.147   2.158
   77POPC   C38 3990   4.310   3.339   2.285
   77POPC   C39 3991   4.194   3.247   2.320
   77POPC   C40 3992   4.121   3.288   2.448
   77POPC   C41 3993   4.029   3.409   2.431
   77POPC   C42 3994   3.955   3.433   2.564
   77POPC   C43 3995   3.849   3.543   2.556
   77POPC   C44 3996   3.774   3.554   2.689
   77POPC   C45 3997   3.868   3.602   2.800
   77POPC   C46 3998   3.799   3.615   2.936
   77POPC   C47 3999   3.897   3.676   3.037
   77POPC   C48 4000   3.837   3.686   3.177
   77POPC   C49 4001   3.937   3.754   3.272
   77POPC   C50 4002   3.883   3.762   3.415
   77POPC   C51 4003   3.982   3.837   3.505
   77POPC   C52 4004   3.934   3.839   3.650
   78POPC    C1 4005   5.957   3.933   1.747
   78POPC    C2 4006   5.907   3.904   1.980
   78POPC    C3 4007   6.016   4.101   1.905
   78POPC    N4 4008   5.915   4.001   1.870
   78POPC    C5 4009   5.787   4.072   1.849
   78POPC    C6 4010   5.657   3.995   1.815
   78POPC   OS7 4011   5.607   3.916   1.923
   78POPC    P8 4012   5.466   3.858   1.885
   78POPC   OM9 4013   5.375   3.969   1.856
   78POPC  OM10 4014   5.490   3.751   1.788
   78POPC  OS11 4015   5.417   3.789   2.017
   78POPC   C12 4016   5.438   3.867   2.135
   78POPC   C13 4017   5.312   3.909   2.212
   78POPC  OS14 4018   5.350   3.988   2.328
   78POPC   C15 4019   5.267   4.086   2.372
   78POPC   O16 4020   5.157   4.109   2.321
   78POPC   C17 4021   5.329   4.160   2.489
   78POPC   C18 4022   5.226   4.248   2.560
   78POPC   C19 4023   5.292   4.328   2.671
   78POPC   C20 4024   5.349   4.236   2.780
   78POPC   C21 4025   5.407   4.319   2.894
   78POPC   C22 4026   5.295   4.394   2.966
   78POPC   C23 4027   5.350   4.485   3.076
   78POPC   C24 4028   5.240   4.558   3.146
   78POPC   C25 4029   5.222   4.571   3.279
   78POPC   C26 4030   5.308   4.515   3.388
   78POPC   C27 4031   5.354   4.622   3.487
   78POPC   C28 4032   5.446   4.725   3.421
   78POPC   C29 4033   5.491   4.830   3.523
   78POPC   C30 4034   5.585   4.933   3.461
   78POPC   C31 4035   5.632   5.034   3.566
   78POPC   C32 4036   5.719   5.142   3.503
   78POPC   C33 4037   5.847   5.083   3.446
   78POPC   C34 4038   5.233   3.780   2.242
   78POPC  OS35 4039   5.300   3.688   2.331
   78POPC   C36 4040   5.253   3.683   2.459
   78POPC   O37 4041   5.134   3.698   2.488
   78POPC   C38 4042   5.357   3.620   2.549
   78POPC   C39 4043   5.494   3.674   2.508
   78POPC   C40 4044   5.608   3.624   2.597
   78POPC   C41 4045   5.608   3.691   2.734
   78POPC   C42 4046   5.730   3.642   2.812
   78POPC   C43 4047   5.742   3.707   2.950
   78POPC   C44 4048   5.865   3.650   3.021
   78POPC   C45 4049   5.845   3.501   3.052
   78POPC   C46 4050   5.977   3.435   3.090
   78POPC   C47 4051   5.955   3.287   3.125
   78POPC   C48 4052   6.088   3.212   3.134
   78POPC   C49 4053   6.150   3.196   2.995
   78POPC   C50 4054   6.279   3.115   3.001
   78POPC   C51 4055   0.005   3.097   2.861
   78POPC   C52 4056   0.053   3.230   2.804
   79POPC    C1 4057   5.682   0.844   1.021
   79POPC    C2 4058   5.870   0.797   1.161
   79POPC    C3 4059   5.903   0.874   0.940
   79POPC    N4 4060   5.817   0.887   1.058
   79POPC    C5 4061   5.819   1.029   1.103
   79POPC    C6 4062   5.751   1.075   1.234
   79POPC   OS7 4063   5.608   1.086   1.238
   79POPC    P8 4064   5.567   1.201   1.339
   79POPC   OM9 4065   5.654   1.317   1.315
   79POPC  OM10 4066   5.421   1.211   1.329
   79POPC  OS11 4067   5.599   1.138   1.478
   79POPC   C12 4068   5.606   1.242   1.576
   79POPC   C13 4069   5.610   1.191   1.721
   79POPC  OS14 4070   5.602   1.299   1.818
   79POPC   C15 4071   5.505   1.283   1.913
   79POPC   O16 4072   5.407   1.211   1.893
   79POPC   C17 4073   5.517   1.385   2.025
   79POPC   C18 4074   5.513   1.314   2.160
   79POPC   C19 4075   5.646   1.244   2.189
   79POPC   C20 4076   5.633   1.141   2.301
   79POPC   C21 4077   5.596   1.204   2.435
   79POPC   C22 4078   5.584   1.094   2.541
   79POPC   C23 4079   5.540   1.151   2.676
   79POPC   C24 4080   5.401   1.209   2.671
   79POPC   C25 4081   5.286   1.154   2.714
   79POPC   C26 4082   5.266   1.020   2.779
   79POPC   C27 4083   5.265   1.030   2.932
   79POPC   C28 4084   5.245   0.892   2.996
   79POPC   C29 4085   5.255   0.902   3.148
   79POPC   C30 4086   5.234   0.767   3.216
   79POPC   C31 4087   5.250   0.779   3.367
   79POPC   C32 4088   5.141   0.869   3.427
   79POPC   C33 4089   5.161   0.885   3.578
   79POPC   C34 4090   5.735   1.102   1.734
   79POPC  OS35 4091   5.740   1.022   1.854
   79POPC   C36 4092   5.690   0.896   1.848
   79POPC   O37 4093   5.669   0.835   1.743
   79POPC   C38 4094   5.682   0.835   1.987
   79POPC   C39 4095   5.819   0.837   2.056
   79POPC   C40 4096   5.804   0.805   2.205
   79POPC   C41 4097   5.940   0.805   2.275
   79POPC   C42 4098   5.920   0.805   2.427
   79POPC   C43 4099   6.055   0.793   2.499
   79POPC   C44 4100   6.038   0.812   2.650
   79POPC   C45 4101   6.022   0.960   2.684
   79POPC   C46 4102   6.154   1.034   2.665
   79POPC   C47 4103   6.141   1.183   2.694
   79POPC   C48 4104   6.063   1.256   2.584
   79POPC   C49 4105   6.145   1.266   2.455
   79POPC   C50 4106   6.071   1.349   2.350
   79POPC   C51 4107   6.063   1.495   2.394
   79POPC   C52 4108   5.990   1.580   2.289
   80POPC    C1 4109   2.174   6.104   1.279
   80POPC    C2 4110   2.330   6.204   1.425
   80POPC    C3 4111   2.108   6.290   1.415
   80POPC    N4 4112   2.189   6.167   1.410
   80POPC    C5 4113   2.153   6.076   1.521
   80POPC    C6 4114   2.007   6.027   1.539
   80POPC   OS7 4115   1.956   5.948   1.431
   80POPC    P8 4116   1.809   5.902   1.458
   80POPC   OM9 4117   1.738   6.009   1.530
   80POPC  OM10 4118   1.755   5.843   1.335
   80POPC  OS11 4119   1.844   5.786   1.556
   80POPC   C12 4120   1.730   5.744   1.630
   80POPC   C13 4121   1.760   5.627   1.725
   80POPC  OS14 4122   1.638   5.579   1.789
   80POPC   C15 4123   1.626   5.445   1.802
   80POPC   O16 4124   1.712   5.365   1.764
   80POPC   C17 4125   1.491   5.407   1.860
   80POPC   C18 4126   1.506   5.323   1.987
   80POPC   C19 4127   1.552   5.408   2.105
   80POPC   C20 4128   1.551   5.325   2.233
   80POPC   C21 4129   1.602   5.406   2.352
   80POPC   C22 4130   1.507   5.521   2.388
   80POPC   C23 4131   1.560   5.596   2.510
   80POPC   C24 4132   1.571   5.504   2.629
   80POPC   C25 4133   1.534   5.529   2.756
   80POPC   C26 4134   1.471   5.654   2.810
   80POPC   C27 4135   1.566   5.729   2.904
   80POPC   C28 4136   1.600   5.642   3.025
   80POPC   C29 4137   1.695   5.714   3.121
   80POPC   C30 4138   1.738   5.619   3.233
   80POPC   C31 4139   1.821   5.505   3.174
   80POPC   C32 4140   1.866   5.408   3.283
   80POPC   C33 4141   1.951   5.295   3.224
   80POPC   C34 4142   1.872   5.678   1.819
   80POPC  OS35 4143   1.938   5.582   1.905
   80POPC   C36 4144   2.030   5.498   1.850
   80POPC   O37 4145   2.070   5.502   1.733
   80POPC   C38 4146   2.089   5.406   1.956
   80POPC   C39 4147   2.009   5.409   2.087
   80POPC   C40 4148   2.061   5.298   2.179
   80POPC   C41 4149   1.982   5.287   2.309
   80POPC   C42 4150   2.027   5.389   2.414
   80POPC   C43 4151   1.945   5.371   2.542
   80POPC   C44 4152   1.991   5.464   2.654
   80POPC   C45 4153   2.119   5.413   2.720
   80POPC   C46 4154   2.165   5.511   2.828
   80POPC   C47 4155   2.283   5.455   2.908
   80POPC   C48 4156   2.333   5.561   3.006
   80POPC   C49 4157   2.225   5.598   3.108
   80POPC   C50 4158   2.272   5.715   3.195
   80POPC   C51 4159   2.163   5.757   3.294
   80POPC   C52 4160   2.146   5.653   3.405
   81POPC    C1 4161   3.738   2.674   5.249
   81POPC    C2 4162   3.726   2.628   5.485
   81POPC    C3 4163   3.625   2.483   5.326
   81POPC    N4 4164   3.741   2.568   5.351
   81POPC    C5 4165   3.862   2.484   5.345
   81POPC    C6 4166   4.002   2.549   5.357
   81POPC   OS7 4167   4.040   2.615   5.237
   81POPC    P8 4168   4.143   2.730   5.264
   81POPC   OM9 4169   4.064   2.823   5.346
   81POPC  OM10 4170   4.262   2.660   5.317
   81POPC  OS11 4171   4.157   2.784   5.117
   81POPC   C12 4172   4.035   2.844   5.071
   81POPC   C13 4173   4.043   2.931   4.945
   81POPC  OS14 4174   3.910   2.973   4.899
   81POPC   C15 4175   3.880   3.106   4.911
   81POPC   O16 4176   3.920   3.176   5.004
   81POPC   C17 4177   3.757   3.143   4.829
   81POPC   C18 4178   3.774   3.113   4.680
   81POPC   C19 4179   3.664   3.183   4.599
   81POPC   C20 4180   3.651   3.126   4.458
   81POPC   C21 4181   3.772   3.154   4.369
   81POPC   C22 4182   3.747   3.095   4.230
   81POPC   C23 4183   3.864   3.119   4.134
   81POPC   C24 4184   3.834   3.058   4.000
   81POPC   C25 4185   3.839   3.115   3.878
   81POPC   C26 4186   3.877   3.255   3.842
   81POPC   C27 4187   3.987   3.257   3.736
   81POPC   C28 4188   4.038   3.398   3.709
   81POPC   C29 4189   4.154   3.394   3.609
   81POPC   C30 4190   4.220   3.531   3.594
   81POPC   C31 4191   4.337   3.526   3.495
   81POPC   C32 4192   4.451   3.440   3.548
   81POPC   C33 4193   4.519   3.504   3.669
   81POPC   C34 4194   4.124   2.851   4.841
   81POPC  OS35 4195   4.145   2.918   4.715
   81POPC   C36 4196   4.212   2.849   4.619
   81POPC   O37 4197   4.221   2.726   4.615
   81POPC   C38 4198   4.235   2.941   4.501
   81POPC   C39 4199   4.375   2.924   4.442
   81POPC   C40 4200   4.482   2.976   4.538
   81POPC   C41 4201   4.618   2.981   4.469
   81POPC   C42 4202   4.664   2.841   4.427
   81POPC   C43 4203   4.793   2.848   4.346
   81POPC   C44 4204   4.769   2.923   4.214
   81POPC   C45 4205   4.896   2.925   4.129
   81POPC   C46 4206   4.928   2.786   4.074
   81POPC   C47 4207   5.053   2.790   3.985
   81POPC   C48 4208   5.084   2.653   3.925
   81POPC   C49 4209   4.975   2.611   3.826
   81POPC   C50 4210   5.014   2.482   3.754
   81POPC   C51 4211   5.135   2.506   3.663
   81POPC   C52 4212   5.169   2.382   3.580
   82POPC    C1 4213   2.754   2.994   4.673
   82POPC    C2 4214   2.775   3.214   4.766
   82POPC    C3 4215   2.644   3.052   4.875
   82POPC    N4 4216   2.767   3.070   4.798
   82POPC    C5 4217   2.883   3.026   4.879
   82POPC    C6 4218   3.023   3.033   4.813
   82POPC   OS7 4219   3.132   3.027   4.905
   82POPC    P8 4220   3.269   3.049   4.832
   82POPC   OM9 4221   3.248   3.139   4.718
   82POPC  OM10 4222   3.369   3.083   4.933
   82POPC  OS11 4223   3.293   2.903   4.780
   82POPC   C12 4224   3.418   2.902   4.710
   82POPC   C13 4225   3.444   2.776   4.625
   82POPC  OS14 4226   3.575   2.779   4.561
   82POPC   C15 4227   3.677   2.709   4.618
   82POPC   O16 4228   3.667   2.651   4.727
   82POPC   C17 4229   3.807   2.727   4.541
   82POPC   C18 4230   3.797   2.668   4.401
   82POPC   C19 4231   3.934   2.671   4.332
   82POPC   C20 4232   3.928   2.599   4.197
   82POPC   C21 4233   4.066   2.596   4.132
   82POPC   C22 4234   4.109   2.736   4.086
   82POPC   C23 4235   4.248   2.730   4.022
   82POPC   C24 4236   4.250   2.635   3.906
   82POPC   C25 4237   4.357   2.596   3.834
   82POPC   C26 4238   4.499   2.639   3.852
   82POPC   C27 4239   4.572   2.648   3.718
   82POPC   C28 4240   4.581   2.509   3.653
   82POPC   C29 4241   4.644   2.519   3.514
   82POPC   C30 4242   4.553   2.600   3.422
   82POPC   C31 4243   4.609   2.607   3.280
   82POPC   C32 4244   4.517   2.691   3.191
   82POPC   C33 4245   4.380   2.625   3.178
   82POPC   C34 4246   3.324   2.762   4.529
   82POPC  OS35 4247   3.290   2.877   4.449
   82POPC   C36 4248   3.157   2.902   4.435
   82POPC   O37 4249   3.071   2.851   4.508
   82POPC   C38 4250   3.129   3.015   4.337
   82POPC   C39 4251   2.998   2.982   4.264
   82POPC   C40 4252   2.938   3.099   4.187
   82POPC   C41 4253   3.018   3.142   4.065
   82POPC   C42 4254   2.930   3.231   3.977
   82POPC   C43 4255   3.002   3.280   3.851
   82POPC   C44 4256   2.901   3.341   3.754
   82POPC   C45 4257   2.839   3.468   3.813
   82POPC   C46 4258   2.719   3.515   3.732
   82POPC   C47 4259   2.659   3.641   3.793
   82POPC   C48 4260   2.526   3.678   3.726
   82POPC   C49 4261   2.417   3.579   3.767
   82POPC   C50 4262   2.282   3.618   3.705
   82POPC   C51 4263   2.171   3.524   3.751
   82POPC   C52 4264   2.037   3.566   3.691
   83POPC    C1 4265   5.725   3.773   5.347
   83POPC    C2 4266   5.503   3.788   5.267
   83POPC    C3 4267   5.674   3.722   5.117
   83POPC    N4 4268   5.627   3.711   5.256
   83POPC    C5 4269   5.601   3.570   5.292
   83POPC    C6 4270   5.722   3.473   5.287
   83POPC   OS7 4271   5.700   3.339   5.331
   83POPC    P8 4272   5.835   3.258   5.330
   83POPC   OM9 4273   5.935   3.345   5.393
   83POPC  OM10 4274   5.800   3.128   5.390
   83POPC  OS11 4275   5.854   3.252   5.175
   83POPC   C12 4276   5.832   3.123   5.117
   83POPC   C13 4277   5.710   3.111   5.025
   83POPC  OS14 4278   5.717   2.987   4.949
   83POPC   C15 4279   5.601   2.924   4.916
   83POPC   O16 4280   5.498   2.933   4.984
   83POPC   C17 4281   5.629   2.815   4.814
   83POPC   C18 4282   5.557   2.840   4.682
   83POPC   C19 4283   5.610   2.965   4.612
   83POPC   C20 4284   5.755   2.950   4.565
   83POPC   C21 4285   5.808   3.084   4.515
   83POPC   C22 4286   5.741   3.125   4.384
   83POPC   C23 4287   5.784   3.266   4.342
   83POPC   C24 4288   5.932   3.275   4.319
   83POPC   C25 4289   5.998   3.281   4.203
   83POPC   C26 4290   5.943   3.282   4.064
   83POPC   C27 4291   6.041   3.343   3.964
   83POPC   C28 4292   6.172   3.265   3.965
   83POPC   C29 4293   6.271   3.316   3.860
   83POPC   C30 4294   0.070   3.243   3.874
   83POPC   C31 4295   0.167   3.278   3.762
   83POPC   C32 4296   0.119   3.217   3.629
   83POPC   C33 4297   0.221   3.242   3.518
   83POPC   C34 4298   5.712   3.235   4.933
   83POPC  OS35 4299   5.594   3.259   4.854
   83POPC   C36 4300   5.508   3.354   4.901
   83POPC   O37 4301   5.540   3.441   4.982
   83POPC   C38 4302   5.380   3.356   4.818
   83POPC   C39 4303   5.395   3.286   4.683
   83POPC   C40 4304   5.261   3.286   4.609
   83POPC   C41 4305   5.268   3.215   4.474
   83POPC   C42 4306   5.358   3.290   4.375
   83POPC   C43 4307   5.335   3.241   4.231
   83POPC   C44 4308   5.389   3.100   4.209
   83POPC   C45 4309   5.348   3.048   4.070
   83POPC   C46 4310   5.417   3.124   3.956
   83POPC   C47 4311   5.561   3.077   3.935
   83POPC   C48 4312   5.621   3.142   3.811
   83POPC   C49 4313   5.758   3.083   3.776
   83POPC   C50 4314   5.814   3.147   3.649
   83POPC   C51 4315   5.950   3.086   3.612
   83POPC   C52 4316   5.934   2.941   3.567
   84POPC    C1 4317   6.140   2.715   5.638
   84POPC    C2 4318   5.922   2.775   5.563
   84POPC    C3 4319   5.984   2.811   5.789
   84POPC    N4 4320   6.032   2.815   5.651
   84POPC    C5 4321   6.083   2.952   5.625
   84POPC    C6 4322   6.111   2.999   5.480
   84POPC   OS7 4323   6.216   2.932   5.411
   84POPC    P8 4324   6.184   2.928   5.257
   84POPC   OM9 4325   6.094   2.814   5.247
   84POPC  OM10 4326   6.140   3.064   5.223
   84POPC  OS11 4327   6.329   2.899   5.206
   84POPC   C12 4328   0.050   3.013   5.142
   84POPC   C13 4329   0.203   3.013   5.130
   84POPC  OS14 4330   0.253   3.142   5.088
   84POPC   C15 4331   0.378   3.180   5.127
   84POPC   O16 4332   0.452   3.109   5.195
   84POPC   C17 4333   0.405   3.323   5.082
   84POPC   C18 4334   0.550   3.346   5.041
   84POPC   C19 4335   0.581   3.282   4.905
   84POPC   C20 4336   0.499   3.343   4.792
   84POPC   C21 4337   0.547   3.294   4.656
   84POPC   C22 4338   0.456   3.343   4.543
   84POPC   C23 4339   0.509   3.299   4.406
   84POPC   C24 4340   0.407   3.320   4.299
   84POPC   C25 4341   0.419   3.377   4.178
   84POPC   C26 4342   0.539   3.439   4.113
   84POPC   C27 4343   0.559   3.391   3.969
   84POPC   C28 4344   0.622   3.252   3.963
   84POPC   C29 4345   0.628   3.202   3.818
   84POPC   C30 4346   0.732   3.091   3.801
   84POPC   C31 4347   0.701   2.970   3.888
   84POPC   C32 4348   0.806   2.860   3.865
   84POPC   C33 4349   0.945   2.907   3.909
   84POPC   C34 4350   0.241   2.892   5.042
   84POPC  OS35 4351   0.183   2.886   4.910
   84POPC   C36 4352   0.241   2.800   4.822
   84POPC   O37 4353   0.330   2.719   4.852
   84POPC   C38 4354   0.167   2.800   4.690
   84POPC   C39 4355   0.212   2.685   4.601
   84POPC   C40 4356   0.115   2.669   4.483
   84POPC   C41 4357   0.167   2.561   4.388
   84POPC   C42 4358   0.067   2.531   4.277
   84POPC   C43 4359   0.125   2.426   4.182
   84POPC   C44 4360   0.020   2.379   4.081
   84POPC   C45 4361   0.079   2.275   3.987
   84POPC   C46 4362   0.170   2.340   3.883
   84POPC   C47 4363   0.087   2.418   3.781
   84POPC   C48 4364   0.175   2.483   3.675
   84POPC   C49 4365   0.258   2.597   3.734
   84POPC   C50 4366   0.346   2.661   3.626
   84POPC   C51 4367   0.426   2.779   3.682
   84POPC   C52 4368   0.332   2.894   3.720
   85POPC    C1 4369   4.481   1.879   5.383
   85POPC    C2 4370   4.656   1.718   5.365
   85POPC    C3 4371   4.661   1.877   5.539
   85POPC    N4 4372   4.571   1.793   5.460
   85POPC    C5 4373   4.498   1.704   5.554
   85POPC    C6 4374   4.394   1.602   5.499
   85POPC   OS7 4375   4.453   1.500   5.420
   85POPC    P8 4376   4.349   1.412   5.343
   85POPC   OM9 4377   4.419   1.293   5.298
   85POPC  OM10 4378   4.225   1.398   5.422
   85POPC  OS11 4379   4.320   1.513   5.227
   85POPC   C12 4380   4.398   1.490   5.111
   85POPC   C13 4381   4.336   1.560   4.990
   85POPC  OS14 4382   4.388   1.514   4.862
   85POPC   C15 4383   4.303   1.519   4.757
   85POPC   O16 4384   4.190   1.568   4.766
   85POPC   C17 4385   4.365   1.462   4.630
   85POPC   C18 4386   4.274   1.486   4.510
   85POPC   C19 4387   4.334   1.425   4.383
   85POPC   C20 4388   4.241   1.451   4.264
   85POPC   C21 4389   4.295   1.388   4.135
   85POPC   C22 4390   4.423   1.457   4.087
   85POPC   C23 4391   4.463   1.399   3.951
   85POPC   C24 4392   4.592   1.455   3.897
   85POPC   C25 4393   4.607   1.539   3.794
   85POPC   C26 4394   4.499   1.599   3.708
   85POPC   C27 4395   4.538   1.737   3.654
   85POPC   C28 4396   4.656   1.726   3.557
   85POPC   C29 4397   4.685   1.860   3.491
   85POPC   C30 4398   4.761   1.955   3.583
   85POPC   C31 4399   4.770   2.094   3.521
   85POPC   C32 4400   4.846   2.090   3.388
   85POPC   C33 4401   4.848   2.228   3.322
   85POPC   C34 4402   4.340   1.711   5.020
   85POPC  OS35 4403   4.469   1.775   5.013
   85POPC   C36 4404   4.465   1.900   4.959
   85POPC   O37 4405   4.363   1.969   4.953
   85POPC   C38 4406   4.602   1.950   4.918
   85POPC   C39 4407   4.603   1.977   4.768
   85POPC   C40 4408   4.606   1.845   4.691
   85POPC   C41 4409   4.591   1.862   4.540
   85POPC   C42 4410   4.445   1.883   4.498
   85POPC   C43 4411   4.434   1.877   4.346
   85POPC   C44 4412   4.290   1.872   4.297
   85POPC   C45 4413   4.287   1.844   4.147
   85POPC   C46 4414   4.145   1.825   4.094
   85POPC   C47 4415   4.150   1.772   3.950
   85POPC   C48 4416   4.010   1.749   3.893
   85POPC   C49 4417   4.019   1.683   3.755
   85POPC   C50 4418   4.090   1.774   3.655
   85POPC   C51 4419   4.103   1.706   3.518
   85POPC   C52 4420   4.179   1.795   3.420
   86POPC    C1 4421   1.515   4.349   5.341
   86POPC    C2 4422   1.409   4.418   5.541
   86POPC    C3 4423   1.307   4.464   5.331
   86POPC    N4 4424   1.384   4.364   5.406
   86POPC    C5 4425   1.316   4.233   5.409
   86POPC    C6 4426   1.177   4.219   5.474
   86POPC   OS7 4427   1.112   4.093   5.453
   86POPC    P8 4428   0.964   4.092   5.505
   86POPC   OM9 4429   0.909   3.957   5.490
   86POPC  OM10 4430   0.959   4.158   5.636
   86POPC  OS11 4431   0.899   4.189   5.401
   86POPC   C12 4432   0.862   4.123   5.281
   86POPC   C13 4433   0.822   4.219   5.168
   86POPC  OS14 4434   0.746   4.154   5.063
   86POPC   C15 4435   0.612   4.181   5.059
   86POPC   O16 4436   0.551   4.228   5.156
   86POPC   C17 4437   0.549   4.113   4.939
   86POPC   C18 4438   0.556   4.199   4.813
   86POPC   C19 4439   0.449   4.309   4.816
   86POPC   C20 4440   0.309   4.247   4.810
   86POPC   C21 4441   0.201   4.355   4.813
   86POPC   C22 4442   0.201   4.435   4.683
   86POPC   C23 4443   0.096   4.545   4.686
   86POPC   C24 4444   6.291   4.491   4.696
   86POPC   C25 4445   6.191   4.507   4.609
   86POPC   C26 4446   6.195   4.584   4.480
   86POPC   C27 4447   6.216   4.492   4.359
   86POPC   C28 4448   6.224   4.572   4.229
   86POPC   C29 4449   0.015   4.659   4.224
   86POPC   C30 4450   0.030   4.722   4.085
   86POPC   C31 4451   0.056   4.615   3.980
   86POPC   C32 4452   0.072   4.676   3.841
   86POPC   C33 4453   0.100   4.568   3.736
   86POPC   C34 4454   0.950   4.293   5.125
   86POPC  OS35 4455   1.055   4.207   5.079
   86POPC   C36 4456   1.163   4.265   5.021
   86POPC   O37 4457   1.200   4.380   5.048
   86POPC   C38 4458   1.252   4.158   4.960
   86POPC   C39 4459   1.338   4.213   4.846
   86POPC   C40 4460   1.416   4.098   4.781
   86POPC   C41 4461   1.500   4.147   4.663
   86POPC   C42 4462   1.583   4.031   4.606
   86POPC   C43 4463   1.677   4.078   4.494
   86POPC   C44 4464   1.600   4.113   4.367
   86POPC   C45 4465   1.698   4.155   4.257
   86POPC   C46 4466   1.626   4.185   4.125
   86POPC   C47 4467   1.727   4.234   4.021
   86POPC   C48 4468   1.659   4.271   3.889
   86POPC   C49 4469   1.758   4.338   3.794
   86POPC   C50 4470   1.691   4.383   3.664
   86POPC   C51 4471   1.790   4.463   3.578
   86POPC   C52 4472   1.905   4.374   3.530
   87POPC    C1 4473   5.490   2.639   5.184
   87POPC    C2 4474   5.302   2.664   5.041
   87POPC    C3 4475   5.279   2.553   5.252
   87POPC    N4 4476   5.345   2.664   5.181
   87POPC    C5 4477   5.319   2.795   5.246
   87POPC    C6 4478   5.176   2.856   5.246
   87POPC   OS7 4479   5.076   2.784   5.319
   87POPC    P8 4480   4.931   2.820   5.267
   87POPC   OM9 4481   4.837   2.764   5.364
   87POPC  OM10 4482   4.929   2.963   5.234
   87POPC  OS11 4483   4.939   2.730   5.138
   87POPC   C12 4484   4.905   2.593   5.163
   87POPC   C13 4485   4.905   2.502   5.039
   87POPC  OS14 4486   5.038   2.462   4.994
   87POPC   C15 4487   5.058   2.329   4.974
   87POPC   O16 4488   5.005   2.243   5.046
   87POPC   C17 4489   5.186   2.305   4.897
   87POPC   C18 4490   5.171   2.353   4.752
   87POPC   C19 4491   5.291   2.311   4.668
   87POPC   C20 4492   5.418   2.383   4.713
   87POPC   C21 4493   5.536   2.342   4.624
   87POPC   C22 4494   5.665   2.409   4.671
   87POPC   C23 4495   5.783   2.362   4.585
   87POPC   C24 4496   5.913   2.418   4.634
   87POPC   C25 4497   6.008   2.483   4.565
   87POPC   C26 4498   6.010   2.515   4.419
   87POPC   C27 4499   6.009   2.666   4.393
   87POPC   C28 4500   6.025   2.694   4.244
   87POPC   C29 4501   6.030   2.844   4.215
   87POPC   C30 4502   6.062   2.868   4.068
   87POPC   C31 4503   6.205   2.822   4.037
   87POPC   C32 4504   6.238   2.838   3.889
   87POPC   C33 4505   6.156   2.740   3.805
   87POPC   C34 4506   4.818   2.577   4.937
   87POPC  OS35 4507   4.793   2.518   4.808
   87POPC   C36 4508   4.678   2.449   4.792
   87POPC   O37 4509   4.612   2.398   4.883
   87POPC   C38 4510   4.656   2.417   4.645
   87POPC   C39 4511   4.516   2.360   4.621
   87POPC   C40 4512   4.492   2.345   4.471
   87POPC   C41 4513   4.472   2.481   4.405
   87POPC   C42 4514   4.505   2.472   4.256
   87POPC   C43 4515   4.657   2.461   4.238
   87POPC   C44 4516   4.693   2.417   4.097
   87POPC   C45 4517   4.647   2.273   4.076
   87POPC   C46 4518   4.685   2.220   3.938
   87POPC   C47 4519   4.642   2.073   3.928
   87POPC   C48 4520   4.719   1.989   4.029
   87POPC   C49 4521   4.678   1.842   4.021
   87POPC   C50 4522   4.748   1.759   4.129
   87POPC   C51 4523   4.898   1.747   4.102
   87POPC   C52 4524   4.966   1.665   4.211
   88POPC    C1 4525   6.302   3.424   5.613
   88POPC    C2 4526   0.139   3.461   5.771
   88POPC    C3 4527   0.118   3.610   5.588
   88POPC    N4 4528   0.042   3.529   5.684
   88POPC    C5 4529   6.287   3.611   5.768
   88POPC    C6 4530   6.171   3.691   5.704
   88POPC   OS7 4531   6.212   3.811   5.638
   88POPC    P8 4532   6.101   3.878   5.549
   88POPC   OM9 4533   5.969   3.841   5.603
   88POPC  OM10 4534   6.147   4.017   5.543
   88POPC  OS11 4535   6.136   3.794   5.421
   88POPC   C12 4536   6.240   3.856   5.346
   88POPC   C13 4537   6.295   3.766   5.235
   88POPC  OS14 4538   0.078   3.826   5.173
   88POPC   C15 4539   0.179   3.739   5.140
   88POPC   O16 4540   0.201   3.638   5.208
   88POPC   C17 4541   0.283   3.813   5.059
   88POPC   C18 4542   0.234   3.841   4.916
   88POPC   C19 4543   0.261   3.723   4.823
   88POPC   C20 4544   0.409   3.719   4.784
   88POPC   C21 4545   0.442   3.830   4.684
   88POPC   C22 4546   0.392   3.795   4.544
   88POPC   C23 4547   0.407   3.912   4.447
   88POPC   C24 4548   0.549   3.960   4.428
   88POPC   C25 4549   0.643   3.912   4.345
   88POPC   C26 4550   0.634   3.795   4.251
   88POPC   C27 4551   0.771   3.749   4.201
   88POPC   C28 4552   0.819   3.833   4.083
   88POPC   C29 4553   0.738   3.798   3.957
   88POPC   C30 4554   0.789   3.870   3.833
   88POPC   C31 4555   0.758   4.020   3.838
   88POPC   C32 4556   0.801   4.091   3.710
   88POPC   C33 4557   0.772   4.241   3.718
   88POPC   C34 4558   6.175   3.740   5.142
   88POPC  OS35 4559   6.187   3.626   5.055
   88POPC   C36 4560   6.070   3.563   5.027
   88POPC   O37 4561   5.960   3.601   5.068
   88POPC   C38 4562   6.092   3.439   4.942
   88POPC   C39 4563   6.061   3.462   4.794
   88POPC   C40 4564   6.177   3.528   4.720
   88POPC   C41 4565   6.150   3.529   4.569
   88POPC   C42 4566   6.274   3.565   4.488
   88POPC   C43 4567   6.247   3.543   4.339
   88POPC   C44 4568   0.037   3.561   4.252
   88POPC   C45 4569   0.078   3.708   4.246
   88POPC   C46 4570   0.196   3.730   4.152
   88POPC   C47 4571   0.156   3.704   4.007
   88POPC   C48 4572   0.271   3.740   3.912
   88POPC   C49 4573   0.231   3.718   3.766
   88POPC   C50 4574   0.339   3.769   3.671
   88POPC   C51 4575   0.465   3.681   3.676
   88POPC   C52 4576   0.441   3.546   3.608
   89POPC    C1 4577   3.372   3.607   4.924
   89POPC    C2 4578   3.348   3.434   4.763
   89POPC    C3 4579   3.445   3.386   4.972
   89POPC    N4 4580   3.340   3.464   4.906
   89POPC    C5 4581   3.210   3.426   4.967
   89POPC    C6 4582   3.079   3.498   4.927
   89POPC   OS7 4583   3.027   3.472   4.797
   89POPC    P8 4584   2.899   3.561   4.769
   89POPC   OM9 4585   2.835   3.500   4.652
   89POPC  OM10 4586   2.826   3.581   4.895
   89POPC  OS11 4587   2.977   3.692   4.732
   89POPC   C12 4588   2.945   3.740   4.602
   89POPC   C13 4589   3.031   3.862   4.565
   89POPC  OS14 4590   2.982   3.937   4.451
   89POPC   C15 4591   2.962   4.070   4.470
   89POPC   O16 4592   2.956   4.120   4.583
   89POPC   C17 4593   2.933   4.139   4.338
   89POPC   C18 4594   2.975   4.285   4.342
   89POPC   C19 4595   2.965   4.348   4.203
   89POPC   C20 4596   3.075   4.298   4.109
   89POPC   C21 4597   3.067   4.370   3.974
   89POPC   C22 4598   3.171   4.318   3.874
   89POPC   C23 4599   3.151   4.386   3.738
   89POPC   C24 4600   3.241   4.331   3.632
   89POPC   C25 4601   3.333   4.398   3.561
   89POPC   C26 4602   3.369   4.543   3.573
   89POPC   C27 4603   3.520   4.570   3.561
   89POPC   C28 4604   3.599   4.501   3.672
   89POPC   C29 4605   3.569   4.562   3.809
   89POPC   C30 4606   3.648   4.489   3.918
   89POPC   C31 4607   3.613   4.544   4.057
   89POPC   C32 4608   3.469   4.510   4.094
   89POPC   C33 4609   3.436   4.559   4.235
   89POPC   C34 4610   3.176   3.811   4.554
   89POPC  OS35 4611   3.196   3.710   4.454
   89POPC   C36 4612   3.319   3.653   4.444
   89POPC   O37 4613   3.407   3.665   4.530
   89POPC   C38 4614   3.325   3.560   4.324
   89POPC   C39 4615   3.456   3.482   4.318
   89POPC   C40 4616   3.463   3.404   4.186
   89POPC   C41 4617   3.480   3.500   4.069
   89POPC   C42 4618   3.478   3.427   3.934
   89POPC   C43 4619   3.501   3.525   3.819
   89POPC   C44 4620   3.492   3.455   3.683
   89POPC   C45 4621   3.348   3.413   3.653
   89POPC   C46 4622   3.340   3.344   3.516
   89POPC   C47 4623   3.196   3.304   3.483
   89POPC   C48 4624   3.189   3.235   3.347
   89POPC   C49 4625   3.223   3.334   3.235
   89POPC   C50 4626   3.232   3.263   3.100
   89POPC   C51 4627   3.272   3.360   2.990
   89POPC   C52 4628   3.293   3.287   2.857
   90POPC    C1 4629   5.952   4.301   5.499
   90POPC    C2 4630   6.070   4.295   5.705
   90POPC    C3 4631   5.857   4.402   5.691
   90POPC    N4 4632   5.936   4.288   5.644
   90POPC    C5 4633   5.875   4.159   5.684
   90POPC    C6 4634   5.755   4.097   5.608
   90POPC   OS7 4635   5.635   4.174   5.599
   90POPC    P8 4636   5.521   4.093   5.526
   90POPC   OM9 4637   5.521   3.958   5.583
   90POPC  OM10 4638   5.401   4.178   5.534
   90POPC  OS11 4639   5.578   4.093   5.380
   90POPC   C12 4640   5.557   4.219   5.316
   90POPC   C13 4641   5.633   4.239   5.184
   90POPC  OS14 4642   5.629   4.379   5.146
   90POPC   C15 4643   5.742   4.428   5.087
   90POPC   O16 4644   5.849   4.368   5.087
   90POPC   C17 4645   5.722   4.574   5.047
   90POPC   C18 4646   5.715   4.591   4.895
   90POPC   C19 4647   5.855   4.594   4.832
   90POPC   C20 4648   5.923   4.729   4.856
   90POPC   C21 4649   5.852   4.840   4.778
   90POPC   C22 4650   5.928   4.972   4.782
   90POPC   C23 4651   6.059   4.962   4.703
   90POPC   C24 4652   6.035   4.920   4.562
   90POPC   C25 4653   6.070   4.975   4.445
   90POPC   C26 4654   6.147   5.100   4.413
   90POPC   C27 4655   6.106   5.153   4.276
   90POPC   C28 4656   6.114   5.038   4.175
   90POPC   C29 4657   6.085   5.080   4.031
   90POPC   C30 4658   6.060   4.955   3.947
   90POPC   C31 4659   6.058   4.983   3.797
   90POPC   C32 4660   6.201   5.007   3.747
   90POPC   C33 4661   6.205   5.016   3.594
   90POPC   C34 4662   5.573   4.136   5.085
   90POPC  OS35 4663   5.631   4.126   4.953
   90POPC   C36 4664   5.751   4.063   4.940
   90POPC   O37 4665   5.809   4.004   5.031
   90POPC   C38 4666   5.794   4.062   4.794
   90POPC   C39 4667   5.799   4.203   4.737
   90POPC   C40 4668   5.850   4.205   4.592
   90POPC   C41 4669   5.746   4.152   4.492
   90POPC   C42 4670   5.802   4.165   4.350
   90POPC   C43 4671   5.697   4.135   4.242
   90POPC   C44 4672   5.761   4.156   4.105
   90POPC   C45 4673   5.662   4.143   3.989
   90POPC   C46 4674   5.732   4.184   3.859
   90POPC   C47 4675   5.638   4.184   3.738
   90POPC   C48 4676   5.709   4.249   3.618
   90POPC   C49 4677   5.623   4.251   3.492
   90POPC   C50 4678   5.616   4.112   3.428
   90POPC   C51 4679   5.752   4.072   3.369
   90POPC   C52 4680   5.745   3.932   3.307
   91POPC    C1 4681   5.336   4.573   5.618
   91POPC    C2 4682   5.370   4.575   5.386
   91POPC    C3 4683   5.387   4.778   5.514
   91POPC    N4 4684   5.417   4.634   5.512
   91POPC    C5 4685   5.561   4.604   5.535
   91POPC    C6 4686   5.670   4.672   5.449
   91POPC   OS7 4687   5.802   4.628   5.480
   91POPC    P8 4688   5.914   4.728   5.433
   91POPC   OM9 4689   5.858   4.827   5.339
   91POPC  OM10 4690   5.986   4.774   5.553
   91POPC  OS11 4691   6.012   4.633   5.355
   91POPC   C12 4692   6.066   4.696   5.239
   91POPC   C13 4693   6.189   4.634   5.170
   91POPC  OS14 4694   6.234   4.712   5.057
   91POPC   C15 4695   0.028   4.756   5.058
   91POPC   O16 4696   0.110   4.719   5.143
   91POPC   C17 4697   0.059   4.834   4.932
   91POPC   C18 4698   0.164   4.944   4.955
   91POPC   C19 4699   0.198   5.014   4.824
   91POPC   C20 4700   0.295   4.933   4.738
   91POPC   C21 4701   0.312   4.997   4.600
   91POPC   C22 4702   0.229   4.925   4.494
   91POPC   C23 4703   0.226   5.004   4.363
   91POPC   C24 4704   0.363   5.044   4.317
   91POPC   C25 4705   0.428   5.013   4.204
   91POPC   C26 4706   0.386   4.928   4.088
   91POPC   C27 4707   0.499   4.834   4.046
   91POPC   C28 4708   0.466   4.755   3.919
   91POPC   C29 4709   0.582   4.663   3.882
   91POPC   C30 4710   0.556   4.590   3.750
   91POPC   C31 4711   0.556   4.689   3.633
   91POPC   C32 4712   0.535   4.617   3.500
   91POPC   C33 4713   0.656   4.529   3.466
   91POPC   C34 4714   6.152   4.491   5.127
   91POPC  OS35 4715   6.159   4.389   5.229
   91POPC   C36 4716   6.152   4.263   5.179
   91POPC   O37 4717   6.140   4.164   5.251
   91POPC   C38 4718   6.164   4.260   5.027
   91POPC   C39 4719   6.188   4.116   4.981
   91POPC   C40 4720   6.193   4.109   4.828
   91POPC   C41 4721   6.217   3.965   4.781
   91POPC   C42 4722   6.217   3.959   4.629
   91POPC   C43 4723   6.331   4.043   4.572
   91POPC   C44 4724   6.332   4.036   4.419
   91POPC   C45 4725   6.205   4.099   4.360
   91POPC   C46 4726   6.203   4.083   4.208
   91POPC   C47 4727   6.321   4.156   4.144
   91POPC   C48 4728   6.320   4.140   3.992
   91POPC   C49 4729   6.208   4.221   3.928
   91POPC   C50 4730   6.213   4.207   3.776
   91POPC   C51 4731   6.103   4.290   3.710
   91POPC   C52 4732   6.106   4.274   3.558
   92POPC    C1 4733   6.106   5.232   5.428
   92POPC    C2 4734   6.021   5.339   5.620
   92POPC    C3 4735   5.884   5.305   5.426
   92POPC    N4 4736   5.987   5.245   5.512
   92POPC    C5 4737   5.952   5.111   5.565
   92POPC    C6 4738   5.813   5.086   5.629
   92POPC   OS7 4739   5.710   5.065   5.533
   92POPC    P8 4740   5.569   5.107   5.584
   92POPC   OM9 4741   5.538   5.016   5.696
   92POPC  OM10 4742   5.584   5.251   5.604
   92POPC  OS11 4743   5.486   5.070   5.456
   92POPC   C12 4744   5.494   5.164   5.347
   92POPC   C13 4745   5.606   5.139   5.245
   92POPC  OS14 4746   5.611   5.240   5.141
   92POPC   C15 4747   5.724   5.249   5.066
   92POPC   O16 4748   5.832   5.205   5.105
   92POPC   C17 4749   5.704   5.336   4.943
   92POPC   C18 4750   5.621   5.261   4.838
   92POPC   C19 4751   5.611   5.344   4.709
   92POPC   C20 4752   5.749   5.361   4.648
   92POPC   C21 4753   5.745   5.452   4.525
   92POPC   C22 4754   5.887   5.476   4.474
   92POPC   C23 4755   5.889   5.575   4.358
   92POPC   C24 4756   6.029   5.605   4.313
   92POPC   C25 4757   6.087   5.577   4.195
   92POPC   C26 4758   6.026   5.510   4.075
   92POPC   C27 4759   5.969   5.611   3.976
   92POPC   C28 4760   6.079   5.703   3.921
   92POPC   C29 4761   6.020   5.807   3.826
   92POPC   C30 4762   6.129   5.900   3.774
   92POPC   C31 4763   6.226   5.826   3.682
   92POPC   C32 4764   6.331   5.921   3.625
   92POPC   C33 4765   0.091   5.970   3.734
   92POPC   C34 4766   5.588   4.994   5.194
   92POPC  OS35 4767   5.476   4.972   5.105
   92POPC   C36 4768   5.439   4.842   5.089
   92POPC   O37 4769   5.470   4.753   5.169
   92POPC   C38 4770   5.337   4.828   4.978
   92POPC   C39 4771   5.388   4.894   4.850
   92POPC   C40 4772   5.286   4.884   4.737
   92POPC   C41 4773   5.332   4.963   4.614
   92POPC   C42 4774   5.228   4.956   4.503
   92POPC   C43 4775   5.267   5.045   4.384
   92POPC   C44 4776   5.256   5.194   4.418
   92POPC   C45 4777   5.110   5.237   4.434
   92POPC   C46 4778   5.035   5.234   4.301
   92POPC   C47 4779   4.889   5.275   4.319
   92POPC   C48 4780   4.814   5.268   4.185
   92POPC   C49 4781   4.668   5.312   4.201
   92POPC   C50 4782   4.595   5.308   4.066
   92POPC   C51 4783   4.450   5.356   4.080
   92POPC   C52 4784   4.367   5.258   4.163
   93POPC    C1 4785   0.609   4.198   5.661
   93POPC    C2 4786   0.525   4.306   5.855
   93POPC    C3 4787   0.751   4.235   5.853
   93POPC    N4 4788   0.643   4.291   5.770
   93POPC    C5 4789   0.679   4.424   5.717
   93POPC    C6 4790   0.798   4.439   5.619
   93POPC   OS7 4791   0.818   4.572   5.569
   93POPC    P8 4792   0.923   4.567   5.453
   93POPC   OM9 4793   1.044   4.502   5.506
   93POPC  OM10 4794   0.851   4.520   5.335
   93POPC  OS11 4795   0.953   4.721   5.449
   93POPC   C12 4796   0.883   4.792   5.346
   93POPC   C13 4797   0.939   4.934   5.325
   93POPC  OS14 4798   0.858   5.015   5.233
   93POPC   C15 4799   0.900   5.140   5.197
   93POPC   O16 4800   0.965   5.210   5.275
   93POPC   C17 4801   0.813   5.194   5.085
   93POPC   C18 4802   0.822   5.104   4.962
   93POPC   C19 4803   0.954   5.128   4.888
   93POPC   C20 4804   0.968   5.028   4.773
   93POPC   C21 4805   0.852   5.044   4.675
   93POPC   C22 4806   0.861   4.938   4.565
   93POPC   C23 4807   0.735   4.940   4.479
   93POPC   C24 4808   0.740   4.833   4.373
   93POPC   C25 4809   0.686   4.711   4.376
   93POPC   C26 4810   0.605   4.645   4.485
   93POPC   C27 4811   0.468   4.602   4.432
   93POPC   C28 4812   0.484   4.504   4.317
   93POPC   C29 4813   0.349   4.465   4.256
   93POPC   C30 4814   0.371   4.382   4.129
   93POPC   C31 4815   0.426   4.244   4.164
   93POPC   C32 4816   0.472   4.171   4.037
   93POPC   C33 4817   0.356   4.141   3.943
   93POPC   C34 4818   1.089   4.916   5.292
   93POPC  OS35 4819   1.116   4.843   5.171
   93POPC   C36 4820   1.245   4.804   5.150
   93POPC   O37 4821   1.331   4.800   5.238
   93POPC   C38 4822   1.259   4.741   5.013
   93POPC   C39 4823   1.393   4.782   4.950
   93POPC   C40 4824   1.410   4.721   4.811
   93POPC   C41 4825   1.303   4.773   4.715
   93POPC   C42 4826   1.338   4.732   4.571
   93POPC   C43 4827   1.336   4.580   4.553
   93POPC   C44 4828   1.392   4.544   4.416
   93POPC   C45 4829   1.541   4.576   4.411
   93POPC   C46 4830   1.597   4.564   4.269
   93POPC   C47 4831   1.536   4.673   4.180
   93POPC   C48 4832   1.595   4.670   4.039
   93POPC   C49 4833   1.529   4.779   3.954
   93POPC   C50 4834   1.589   4.786   3.814
   93POPC   C51 4835   1.520   4.896   3.734
   93POPC   C52 4836   1.546   5.034   3.796
   94POPC    C1 4837   5.528   5.207   5.961
   94POPC    C2 4838   5.513   4.991   6.065
   94POPC    C3 4839   5.469   5.189   6.190
   94POPC    N4 4840   5.454   5.125   6.058
   94POPC    C5 4841   5.310   5.121   6.025
   94POPC    C6 4842   5.267   5.045   5.898
   94POPC   OS7 4843   5.126   5.036   5.877
   94POPC    P8 4844   5.093   4.926   5.768
   94POPC   OM9 4845   5.177   4.810   5.802
   94POPC  OM10 4846   4.947   4.918   5.767
   94POPC  OS11 4847   5.147   5.002   5.642
   94POPC   C12 4848   5.058   5.105   5.600
   94POPC   C13 4849   5.108   5.182   5.478
   94POPC  OS14 4850   5.027   5.300   5.450
   94POPC   C15 4851   5.093   5.420   5.447
   94POPC   O16 4852   5.202   5.438   5.503
   94POPC   C17 4853   5.001   5.530   5.398
   94POPC   C18 4854   5.080   5.655   5.361
   94POPC   C19 4855   5.000   5.746   5.269
   94POPC   C20 4856   5.094   5.844   5.199
   94POPC   C21 4857   5.025   5.914   5.083
   94POPC   C22 4858   5.127   5.980   4.991
   94POPC   C23 4859   5.057   6.057   4.879
   94POPC   C24 4860   5.156   6.116   4.783
   94POPC   C25 4861   5.138   6.138   4.652
   94POPC   C26 4862   5.015   6.111   4.569
   94POPC   C27 4863   4.988   6.225   4.471
   94POPC   C28 4864   4.862   6.198   4.388
   94POPC   C29 4865   4.842   6.306   4.282
   94POPC   C30 4866   4.951   6.298   4.175
   94POPC   C31 4867   4.931   6.403   4.066
   94POPC   C32 4868   4.953   0.139   4.121
   94POPC   C33 4869   4.932   0.244   4.011
   94POPC   C34 4870   5.116   5.076   5.366
   94POPC  OS35 4871   5.163   5.123   5.238
   94POPC   C36 4872   5.073   5.113   5.137
   94POPC   O37 4873   4.968   5.048   5.145
   94POPC   C38 4874   5.126   5.175   5.009
   94POPC   C39 4875   5.009   5.223   4.922
   94POPC   C40 4876   4.947   5.349   4.981
   94POPC   C41 4877   4.826   5.395   4.900
   94POPC   C42 4878   4.706   5.303   4.921
   94POPC   C43 4879   4.587   5.350   4.837
   94POPC   C44 4880   4.609   5.318   4.689
   94POPC   C45 4881   4.506   5.391   4.602
   94POPC   C46 4882   4.363   5.347   4.630
   94POPC   C47 4883   4.267   5.425   4.540
   94POPC   C48 4884   4.261   5.572   4.582
   94POPC   C49 4885   4.190   5.656   4.476
   94POPC   C50 4886   4.277   5.665   4.350
   94POPC   C51 4887   4.213   5.754   4.243
   94POPC   C52 4888   4.303   5.766   4.121
   95POPC    C1 4889   0.798   3.583   5.510
   95POPC    C2 4890   0.826   3.466   5.305
   95POPC    C3 4891   0.742   3.693   5.307
   95POPC    N4 4892   0.836   3.598   5.369
   95POPC    C5 4893   0.975   3.650   5.365
   95POPC    C6 4894   1.036   3.691   5.229
   95POPC   OS7 4895   1.173   3.735   5.237
   95POPC    P8 4896   1.222   3.794   5.099
   95POPC   OM9 4897   1.108   3.853   5.027
   95POPC  OM10 4898   1.350   3.861   5.122
   95POPC  OS11 4899   1.253   3.657   5.034
   95POPC   C12 4900   1.286   3.675   4.896
   95POPC   C13 4901   1.310   3.541   4.824
   95POPC  OS14 4902   1.369   3.562   4.692
   95POPC   C15 4903   1.429   3.457   4.631
   95POPC   O16 4904   1.444   3.347   4.687
   95POPC   C17 4905   1.493   3.495   4.498
   95POPC   C18 4906   1.395   3.543   4.391
   95POPC   C19 4907   1.379   3.695   4.388
   95POPC   C20 4908   1.295   3.735   4.267
   95POPC   C21 4909   1.293   3.887   4.246
   95POPC   C22 4910   1.214   3.921   4.119
   95POPC   C23 4911   1.212   4.072   4.092
   95POPC   C24 4912   1.128   4.104   3.973
   95POPC   C25 4913   1.156   4.181   3.866
   95POPC   C26 4914   1.282   4.257   3.837
   95POPC   C27 4915   1.258   4.408   3.829
   95POPC   C28 4916   1.164   4.444   3.713
   95POPC   C29 4917   1.144   4.595   3.704
   95POPC   C30 4918   1.047   4.632   3.592
   95POPC   C31 4919   1.028   4.784   3.585
   95POPC   C32 4920   1.157   4.853   3.541
   95POPC   C33 4921   1.141   5.005   3.537
   95POPC   C34 4922   1.180   3.459   4.836
   95POPC  OS35 4923   1.061   3.514   4.776
   95POPC   C36 4924   0.949   3.521   4.852
   95POPC   O37 4925   0.940   3.478   4.968
   95POPC   C38 4926   0.832   3.577   4.772
   95POPC   C39 4927   0.876   3.663   4.654
   95POPC   C40 4928   0.922   3.802   4.700
   95POPC   C41 4929   0.964   3.888   4.581
   95POPC   C42 4930   1.004   4.028   4.627
   95POPC   C43 4931   1.030   4.120   4.509
   95POPC   C44 4932   1.063   4.261   4.559
   95POPC   C45 4933   0.945   4.318   4.637
   95POPC   C46 4934   0.978   4.454   4.697
   95POPC   C47 4935   0.866   4.501   4.790
   95POPC   C48 4936   0.904   4.632   4.860
   95POPC   C49 4937   0.798   4.670   4.963
   95POPC   C50 4938   0.665   4.706   4.895
   95POPC   C51 4939   0.559   4.741   5.000
   95POPC   C52 4940   0.521   4.618   5.082
   96POPC    C1 4941   0.187   0.153   5.495
   96POPC    C2 4942   0.098   6.341   5.551
   96POPC    C3 4943   6.296   0.106   5.457
   96POPC    N4 4944   0.095   0.046   5.454
   96POPC    C5 4945   0.125   0.001   5.316
   96POPC    C6 4946   0.253   6.325   5.287
   96POPC   OS7 4947   0.295   6.327   5.150
   96POPC    P8 4948   0.378   6.198   5.110
   96POPC   OM9 4949   0.404   6.115   5.228
   96POPC  OM10 4950   0.316   6.137   4.992
   96POPC  OS11 4951   0.510   6.273   5.068
   96POPC   C12 4952   0.515   6.299   4.928
   96POPC   C13 4953   0.630   6.391   4.883
   96POPC  OS14 4954   0.612   0.036   4.747
   96POPC   C15 4955   0.661   0.159   4.715
   96POPC   O16 4956   0.693   0.246   4.798
   96POPC   C17 4957   0.650   0.185   4.566
   96POPC   C18 4958   0.774   0.256   4.514
   96POPC   C19 4959   0.760   0.283   4.364
   96POPC   C20 4960   0.883   0.353   4.307
   96POPC   C21 4961   0.857   0.389   4.161
   96POPC   C22 4962   0.977   0.457   4.095
   96POPC   C23 4963   0.939   0.498   3.953
   96POPC   C24 4964   1.052   0.563   3.877
   96POPC   C25 4965   1.078   0.547   3.746
   96POPC   C26 4966   1.001   0.461   3.650
   96POPC   C27 4967   1.089   0.401   3.540
   96POPC   C28 4968   1.005   0.310   3.450
   96POPC   C29 4969   1.086   0.261   3.330
   96POPC   C30 4970   1.003   0.166   3.244
   96POPC   C31 4971   1.076   0.127   3.116
   96POPC   C32 4972   1.199   0.040   3.145
   96POPC   C33 4973   1.156   6.308   3.198
   96POPC   C34 4974   0.762   6.314   4.909
   96POPC  OS35 4975   0.776   6.186   4.846
   96POPC   C36 4976   0.897   6.125   4.857
   96POPC   O37 4977   0.995   6.171   4.917
   96POPC   C38 4978   0.894   5.991   4.786
   96POPC   C39 4979   0.986   5.990   4.664
   96POPC   C40 4980   0.958   5.869   4.574
   96POPC   C41 4981   1.053   5.869   4.454
   96POPC   C42 4982   1.021   5.758   4.355
   96POPC   C43 4983   1.127   5.754   4.245
   96POPC   C44 4984   1.094   5.653   4.135
   96POPC   C45 4985   0.979   5.703   4.048
   96POPC   C46 4986   0.953   5.605   3.933
   96POPC   C47 4987   0.845   5.658   3.837
   96POPC   C48 4988   0.825   5.562   3.720
   96POPC   C49 4989   0.723   5.615   3.620
   96POPC   C50 4990   0.582   5.616   3.680
   96POPC   C51 4991   0.480   5.669   3.579
   96POPC   C52 4992   0.340   5.676   3.641
   97POPC    C1 4993   6.310   1.804   1.076
   97POPC    C2 4994   0.190   1.863   1.002
   97POPC    C3 4995   0.101   1.973   1.193
   97POPC    N4 4996   0.108   1.844   1.122
   97POPC    C5 4997   0.170   1.737   1.204
   97POPC    C6 4998   0.119   1.708   1.347
   97POPC   OS7 4999   6.317   1.668   1.360
   97POPC    P8 5000   6.284   1.641   1.513
   97POPC   OM9 5001   0.014   1.746   1.592
   97POPC  OM10 5002   6.140   1.618   1.519
   97POPC  OS11 5003   0.023   1.504   1.521
   97POPC   C12 5004   0.010   1.447   1.651
   97POPC   C13 5005   0.039   1.296   1.654
   97POPC  OS14 5006   0.000   1.235   1.781
   97POPC   C15 5007   6.263   1.120   1.773
   97POPC   O16 5008   6.214   1.082   1.667
   97POPC   C17 5009   6.239   1.060   1.910
   97POPC   C18 5010   0.001   0.944   1.934
   97POPC   C19 5011   6.326   0.890   2.077
   97POPC   C20 5012   0.040   0.994   2.178
   97POPC   C21 5013   0.044   0.936   2.319
   97POPC   C22 5014   0.157   0.833   2.332
   97POPC   C23 5015   0.158   0.769   2.471
   97POPC   C24 5016   0.180   0.869   2.582
   97POPC   C25 5017   0.291   0.894   2.652
   97POPC   C26 5018   0.426   0.829   2.638
   97POPC   C27 5019   0.540   0.921   2.683
   97POPC   C28 5020   0.543   1.050   2.600
   97POPC   C29 5021   0.662   1.138   2.641
   97POPC   C30 5022   0.648   1.184   2.787
   97POPC   C31 5023   0.768   1.268   2.829
   97POPC   C32 5024   0.758   1.309   2.976
   97POPC   C33 5025   0.770   1.188   3.068
   97POPC   C34 5026   0.187   1.276   1.615
   97POPC  OS35 5027   0.284   1.333   1.705
   97POPC   C36 5028   0.389   1.253   1.737
   97POPC   O37 5029   0.419   1.149   1.677
   97POPC   C38 5030   0.475   1.319   1.843
   97POPC   C39 5031   0.525   1.217   1.945
   97POPC   C40 5032   0.408   1.166   2.030
   97POPC   C41 5033   0.455   1.082   2.149
   97POPC   C42 5034   0.512   0.946   2.109
   97POPC   C43 5035   0.549   0.870   2.237
   97POPC   C44 5036   0.608   0.731   2.210
   97POPC   C45 5037   0.643   0.666   2.345
   97POPC   C46 5038   0.713   0.531   2.329
   97POPC   C47 5039   0.745   0.473   2.467
   97POPC   C48 5040   0.816   0.338   2.455
   97POPC   C49 5041   0.848   0.279   2.593
   97POPC   C50 5042   0.927   0.149   2.578
   97POPC   C51 5043   0.960   0.089   2.715
   97POPC   C52 5044   1.043   6.366   2.699
   98POPC    C1 5045   0.534   3.145   1.536
   98POPC    C2 5046   0.717   3.295   1.536
   98POPC    C3 5047   0.759   3.065   1.495
   98POPC    N4 5048   0.663   3.174   1.472
   98POPC    C5 5049   0.645   3.204   1.328
   98POPC    C6 5050   0.613   3.089   1.229
   98POPC   OS7 5051   0.495   3.013   1.255
   98POPC    P8 5052   0.483   2.886   1.165
   98POPC   OM9 5053   0.342   2.846   1.148
   98POPC  OM10 5054   0.570   2.895   1.046
   98POPC  OS11 5055   0.550   2.780   1.259
   98POPC   C12 5056   0.477   2.759   1.379
   98POPC   C13 5057   0.501   2.621   1.443
   98POPC  OS14 5058   0.416   2.597   1.557
   98POPC   C15 5059   0.328   2.494   1.541
   98POPC   O16 5060   0.311   2.441   1.431
   98POPC   C17 5061   0.245   2.468   1.665
   98POPC   C18 5062   0.144   2.354   1.641
   98POPC   C19 5063   0.062   2.328   1.767
   98POPC   C20 5064   0.154   2.283   1.881
   98POPC   C21 5065   0.078   2.262   2.012
   98POPC   C22 5066   0.178   2.234   2.124
   98POPC   C23 5067   0.111   2.213   2.260
   98POPC   C24 5068   0.030   2.086   2.266
   98POPC   C25 5069   0.070   1.964   2.306
   98POPC   C26 5070   0.206   1.921   2.352
   98POPC   C27 5071   0.225   1.930   2.504
   98POPC   C28 5072   0.130   1.835   2.577
   98POPC   C29 5073   0.155   1.839   2.728
   98POPC   C30 5074   0.054   1.750   2.800
   98POPC   C31 5075   0.075   1.603   2.763
   98POPC   C32 5076   6.298   1.517   2.823
   98POPC   C33 5077   6.300   1.521   2.976
   98POPC   C34 5078   0.653   2.606   1.467
   98POPC  OS35 5079   0.714   2.687   1.569
   98POPC   C36 5080   0.738   2.620   1.686
   98POPC   O37 5081   0.720   2.499   1.700
   98POPC   C38 5082   0.810   2.707   1.787
   98POPC   C39 5083   0.734   2.835   1.824
   98POPC   C40 5084   0.814   2.914   1.928
   98POPC   C41 5085   0.747   3.047   1.962
   98POPC   C42 5086   0.832   3.124   2.063
   98POPC   C43 5087   0.774   3.263   2.089
   98POPC   C44 5088   0.863   3.345   2.183
   98POPC   C45 5089   0.855   3.297   2.329
   98POPC   C46 5090   0.945   3.385   2.416
   98POPC   C47 5091   0.931   3.355   2.565
   98POPC   C48 5092   0.790   3.390   2.614
   98POPC   C49 5093   0.784   3.394   2.767
   98POPC   C50 5094   0.859   3.517   2.819
   98POPC   C51 5095   0.850   3.528   2.971
   98POPC   C52 5096   0.925   3.652   3.020
   99POPC    C1 5097   1.641   2.542   1.326
   99POPC    C2 5098   1.798   2.394   1.429
   99POPC    C3 5099   1.580   2.417   1.519
   99POPC    N4 5100   1.657   2.412   1.394
   99POPC    C5 5101   1.613   2.299   1.310
   99POPC    C6 5102   1.476   2.302   1.237
   99POPC   OS7 5103   1.359   2.311   1.319
   99POPC    P8 5104   1.226   2.305   1.234
   99POPC   OM9 5105   1.112   2.366   1.304
   99POPC  OM10 5106   1.256   2.345   1.096
   99POPC  OS11 5107   1.205   2.149   1.232
   99POPC   C12 5108   1.143   2.104   1.353
   99POPC   C13 5109   1.116   1.953   1.360
   99POPC  OS14 5110   1.023   1.924   1.469
   99POPC   C15 5111   0.954   1.807   1.469
   99POPC   O16 5112   0.942   1.738   1.367
   99POPC   C17 5113   0.866   1.797   1.592
   99POPC   C18 5114   0.931   1.867   1.712
   99POPC   C19 5115   0.831   1.880   1.826
   99POPC   C20 5116   0.800   1.746   1.893
   99POPC   C21 5117   0.908   1.708   1.994
   99POPC   C22 5118   0.871   1.579   2.067
   99POPC   C23 5119   0.974   1.547   2.176
   99POPC   C24 5120   0.937   1.425   2.254
   99POPC   C25 5121   1.016   1.354   2.336
   99POPC   C26 5122   1.160   1.379   2.370
   99POPC   C27 5123   1.185   1.383   2.521
   99POPC   C28 5124   1.105   1.496   2.587
   99POPC   C29 5125   1.133   1.504   2.737
   99POPC   C30 5126   1.044   1.610   2.803
   99POPC   C31 5127   1.080   1.751   2.757
   99POPC   C32 5128   1.213   1.799   2.817
   99POPC   C33 5129   1.200   1.820   2.968
   99POPC   C34 5130   1.253   1.883   1.366
   99POPC  OS35 5131   1.332   1.918   1.481
   99POPC   C36 5132   1.467   1.931   1.469
   99POPC   O37 5133   1.524   1.960   1.364
   99POPC   C38 5134   1.521   1.963   1.608
   99POPC   C39 5135   1.668   2.004   1.608
   99POPC   C40 5136   1.693   2.099   1.725
   99POPC   C41 5137   1.658   2.036   1.860
   99POPC   C42 5138   1.672   2.139   1.972
   99POPC   C43 5139   1.640   2.080   2.110
   99POPC   C44 5140   1.671   2.183   2.218
   99POPC   C45 5141   1.665   2.124   2.359
   99POPC   C46 5142   1.527   2.135   2.423
   99POPC   C47 5143   1.530   2.071   2.562
   99POPC   C48 5144   1.641   2.134   2.645
   99POPC   C49 5145   1.661   2.064   2.780
   99POPC   C50 5146   1.548   2.095   2.879
   99POPC   C51 5147   1.576   2.028   3.013
   99POPC   C52 5148   1.470   2.067   3.117
  100POPC    C1 5149   0.939   2.498   1.014
  100POPC    C2 5150   0.808   2.677   1.100
  100POPC    C3 5151   1.026   2.635   1.187
  100POPC    N4 5152   0.945   2.636   1.064
  100POPC    C5 5153   1.003   2.724   0.960
  100POPC    C6 5154   1.012   2.877   0.985
  100POPC   OS7 5155   1.097   2.915   1.093
  100POPC    P8 5156   1.042   3.043   1.166
  100POPC   OM9 5157   1.059   3.151   1.068
  100POPC  OM10 5158   0.911   2.999   1.214
  100POPC  OS11 5159   1.154   3.041   1.276
  100POPC   C12 5160   1.113   2.960   1.387
  100POPC   C13 5161   1.221   2.866   1.443
  100POPC  OS14 5162   1.161   2.752   1.511
  100POPC   C15 5163   1.237   2.643   1.542
  100POPC   O16 5164   1.360   2.641   1.527
  100POPC   C17 5165   1.155   2.539   1.615
  100POPC   C18 5166   1.243   2.421   1.657
  100POPC   C19 5167   1.171   2.319   1.745
  100POPC   C20 5168   1.266   2.204   1.775
  100POPC   C21 5169   1.207   2.098   1.869
  100POPC   C22 5170   1.200   2.149   2.013
  100POPC   C23 5171   1.160   2.036   2.108
  100POPC   C24 5172   1.154   2.082   2.251
  100POPC   C25 5173   1.075   2.036   2.350
  100POPC   C26 5174   0.973   1.926   2.342
  100POPC   C27 5175   0.829   1.979   2.348
  100POPC   C28 5176   0.799   2.043   2.484
  100POPC   C29 5177   0.655   2.097   2.487
  100POPC   C30 5178   0.621   2.155   2.625
  100POPC   C31 5179   0.479   2.210   2.627
  100POPC   C32 5180   0.442   2.264   2.765
  100POPC   C33 5181   0.431   2.151   2.867
  100POPC   C34 5182   1.317   2.956   1.524
  100POPC  OS35 5183   1.263   3.006   1.648
  100POPC   C36 5184   1.328   2.968   1.762
  100POPC   O37 5185   1.444   2.927   1.765
  100POPC   C38 5186   1.245   3.007   1.883
  100POPC   C39 5187   1.309   2.965   2.016
  100POPC   C40 5188   1.207   2.988   2.128
  100POPC   C41 5189   1.259   2.957   2.268
  100POPC   C42 5190   1.143   2.974   2.367
  100POPC   C43 5191   1.183   2.957   2.513
  100POPC   C44 5192   1.057   2.968   2.599
  100POPC   C45 5193   1.085   2.970   2.749
  100POPC   C46 5194   0.952   2.985   2.824
  100POPC   C47 5195   0.969   3.007   2.974
  100POPC   C48 5196   0.831   3.030   3.038
  100POPC   C49 5197   0.841   3.071   3.185
  100POPC   C50 5198   0.701   3.094   3.242
  100POPC   C51 5199   0.706   3.145   3.386
  100POPC   C52 5200   0.762   3.288   3.392
  101POPC    C1 5201   1.691   1.176   0.726
  101POPC    C2 5202   1.614   0.985   0.842
  101POPC    C3 5203   1.733   0.963   0.633
  101POPC    N4 5204   1.724   1.037   0.760
  101POPC    C5 5205   1.852   1.040   0.833
  101POPC    C6 5206   1.924   0.909   0.873
  101POPC   OS7 5207   2.047   0.932   0.940
  101POPC    P8 5208   2.143   0.806   0.944
  101POPC   OM9 5209   2.105   0.716   0.833
  101POPC  OM10 5210   2.274   0.870   0.953
  101POPC  OS11 5211   2.095   0.746   1.081
  101POPC   C12 5212   2.170   0.789   1.195
  101POPC   C13 5213   2.128   0.925   1.254
  101POPC  OS14 5214   2.222   0.974   1.353
  101POPC   C15 5215   2.232   1.109   1.365
  101POPC   O16 5216   2.187   1.187   1.280
  101POPC   C17 5217   2.327   1.147   1.478
  101POPC   C18 5218   2.278   1.274   1.547
  101POPC   C19 5219   2.149   1.245   1.624
  101POPC   C20 5220   2.093   1.372   1.688
  101POPC   C21 5221   1.961   1.343   1.758
  101POPC   C22 5222   1.982   1.252   1.879
  101POPC   C23 5223   1.850   1.229   1.953
  101POPC   C24 5224   1.792   1.358   2.003
  101POPC   C25 5225   1.802   1.410   2.126
  101POPC   C26 5226   1.872   1.355   2.247
  101POPC   C27 5227   1.772   1.304   2.350
  101POPC   C28 5228   1.841   1.255   2.478
  101POPC   C29 5229   1.931   1.135   2.451
  101POPC   C30 5230   1.976   1.072   2.583
  101POPC   C31 5231   2.060   1.169   2.666
  101POPC   C32 5232   2.097   1.106   2.801
  101POPC   C33 5233   2.181   1.202   2.885
  101POPC   C34 5234   1.980   0.912   1.296
  101POPC  OS35 5235   1.950   0.825   1.407
  101POPC   C36 5236   1.908   0.889   1.520
  101POPC   O37 5237   1.889   1.011   1.529
  101POPC   C38 5238   1.876   0.788   1.629
  101POPC   C39 5239   1.851   0.856   1.763
  101POPC   C40 5240   1.834   0.751   1.873
  101POPC   C41 5241   1.821   0.817   2.010
  101POPC   C42 5242   1.812   0.711   2.120
  101POPC   C43 5243   1.806   0.777   2.257
  101POPC   C44 5244   1.796   0.672   2.368
  101POPC   C45 5245   1.786   0.739   2.505
  101POPC   C46 5246   1.773   0.636   2.617
  101POPC   C47 5247   1.762   0.707   2.752
  101POPC   C48 5248   1.749   0.607   2.867
  101POPC   C49 5249   1.734   0.681   3.000
  101POPC   C50 5250   1.861   0.760   3.033
  101POPC   C51 5251   1.846   0.835   3.165
  101POPC   C52 5252   1.972   0.915   3.198
  102POPC    C1 5253   1.745   1.816   0.838
  102POPC    C2 5254   1.884   1.932   0.683
  102POPC    C3 5255   1.656   1.884   0.629
  102POPC    N4 5256   1.747   1.923   0.737
  102POPC    C5 5257   1.701   2.053   0.792
  102POPC    C6 5258   1.783   2.124   0.902
  102POPC   OS7 5259   1.787   2.057   1.029
  102POPC    P8 5260   1.926   2.076   1.103
  102POPC   OM9 5261   2.026   2.108   1.000
  102POPC  OM10 5262   1.899   2.172   1.211
  102POPC  OS11 5263   1.941   1.928   1.153
  102POPC   C12 5264   1.856   1.894   1.262
  102POPC   C13 5265   1.874   1.749   1.310
  102POPC  OS14 5266   1.759   1.700   1.385
  102POPC   C15 5267   1.750   1.569   1.425
  102POPC   O16 5268   1.833   1.482   1.400
  102POPC   C17 5269   1.625   1.553   1.511
  102POPC   C18 5270   1.616   1.417   1.580
  102POPC   C19 5271   1.554   1.309   1.490
  102POPC   C20 5272   1.544   1.177   1.567
  102POPC   C21 5273   1.451   1.195   1.687
  102POPC   C22 5274   1.437   1.067   1.768
  102POPC   C23 5275   1.341   1.088   1.886
  102POPC   C24 5276   1.393   1.185   1.988
  102POPC   C25 5277   1.458   1.155   2.103
  102POPC   C26 5278   1.491   1.017   2.151
  102POPC   C27 5279   1.420   0.977   2.281
  102POPC   C28 5280   1.488   1.035   2.405
  102POPC   C29 5281   1.422   0.977   2.531
  102POPC   C30 5282   1.509   0.999   2.655
  102POPC   C31 5283   1.513   1.145   2.699
  102POPC   C32 5284   1.614   1.161   2.814
  102POPC   C33 5285   1.570   1.083   2.938
  102POPC   C34 5286   2.012   1.743   1.380
  102POPC  OS35 5287   2.021   1.818   1.502
  102POPC   C36 5288   2.107   1.766   1.595
  102POPC   O37 5289   2.194   1.683   1.570
  102POPC   C38 5290   2.099   1.847   1.723
  102POPC   C39 5291   2.217   1.817   1.816
  102POPC   C40 5292   2.182   1.714   1.923
  102POPC   C41 5293   2.099   1.779   2.034
  102POPC   C42 5294   2.087   1.684   2.154
  102POPC   C43 5295   2.016   1.750   2.272
  102POPC   C44 5296   2.099   1.867   2.326
  102POPC   C45 5297   2.045   1.918   2.460
  102POPC   C46 5298   2.074   1.817   2.571
  102POPC   C47 5299   2.038   1.873   2.709
  102POPC   C48 5300   2.078   1.774   2.819
  102POPC   C49 5301   2.055   1.833   2.958
  102POPC   C50 5302   2.100   1.735   3.067
  102POPC   C51 5303   2.086   1.797   3.206
  102POPC   C52 5304   1.939   1.822   3.241
  103POPC    C1 5305   3.734   1.539   1.300
  103POPC    C2 5306   3.929   1.411   1.243
  103POPC    C3 5307   3.951   1.627   1.340
  103POPC    N4 5308   3.871   1.504   1.341
  103POPC    C5 5309   3.875   1.448   1.478
  103POPC    C6 5310   3.811   1.310   1.509
  103POPC   OS7 5311   3.669   1.306   1.509
  103POPC    P8 5312   3.622   1.157   1.529
  103POPC   OM9 5313   3.663   1.082   1.409
  103POPC  OM10 5314   3.675   1.119   1.660
  103POPC  OS11 5315   3.466   1.178   1.530
  103POPC   C12 5316   3.421   1.223   1.658
  103POPC   C13 5317   3.276   1.276   1.660
  103POPC  OS14 5318   3.243   1.349   1.781
  103POPC   C15 5319   3.143   1.441   1.775
  103POPC   O16 5320   3.109   1.496   1.669
  103POPC   C17 5321   3.106   1.492   1.913
  103POPC   C18 5322   2.956   1.475   1.937
  103POPC   C19 5323   2.922   1.327   1.954
  103POPC   C20 5324   2.773   1.304   1.976
  103POPC   C21 5325   2.691   1.327   1.849
  103POPC   C22 5326   2.545   1.292   1.876
  103POPC   C23 5327   2.484   1.389   1.978
  103POPC   C24 5328   2.347   1.348   2.022
  103POPC   C25 5329   2.305   1.328   2.148
  103POPC   C26 5330   2.387   1.342   2.274
  103POPC   C27 5331   2.308   1.410   2.386
  103POPC   C28 5332   2.396   1.433   2.508
  103POPC   C29 5333   2.316   1.495   2.623
  103POPC   C30 5334   2.406   1.531   2.741
  103POPC   C31 5335   2.495   1.652   2.707
  103POPC   C32 5336   2.582   1.692   2.827
  103POPC   C33 5337   2.686   1.585   2.857
  103POPC   C34 5338   3.185   1.156   1.630
  103POPC  OS35 5339   3.195   1.043   1.719
  103POPC   C36 5340   3.078   0.986   1.760
  103POPC   O37 5341   2.965   1.029   1.730
  103POPC   C38 5342   3.104   0.862   1.843
  103POPC   C39 5343   2.975   0.811   1.909
  103POPC   C40 5344   2.944   0.884   2.040
  103POPC   C41 5345   2.802   0.852   2.086
  103POPC   C42 5346   2.778   0.894   2.231
  103POPC   C43 5347   2.800   1.044   2.253
  103POPC   C44 5348   2.760   1.083   2.395
  103POPC   C45 5349   2.840   1.002   2.497
  103POPC   C46 5350   2.793   1.031   2.640
  103POPC   C47 5351   2.857   0.930   2.736
  103POPC   C48 5352   2.811   0.952   2.880
  103POPC   C49 5353   2.867   0.842   2.970
  103POPC   C50 5354   2.829   0.863   3.116
  103POPC   C51 5355   2.879   0.746   3.200
  103POPC   C52 5356   2.853   0.769   3.349
  104POPC    C1 5357   3.450   1.841   1.370
  104POPC    C2 5358   3.224   1.788   1.329
  104POPC    C3 5359   3.280   2.004   1.410
  104POPC    N4 5360   3.323   1.896   1.320
  104POPC    C5 5361   3.332   1.937   1.178
  104POPC    C6 5362   3.404   2.069   1.141
  104POPC   OS7 5363   3.541   2.076   1.181
  104POPC    P8 5364   3.587   2.225   1.200
  104POPC   OM9 5365   3.729   2.226   1.239
  104POPC  OM10 5366   3.537   2.304   1.087
  104POPC  OS11 5367   3.500   2.264   1.324
  104POPC   C12 5368   3.558   2.378   1.386
  104POPC   C13 5369   3.499   2.418   1.522
  104POPC  OS14 5370   3.577   2.526   1.580
  104POPC   C15 5371   3.540   2.655   1.553
  104POPC   O16 5372   3.459   2.684   1.465
  104POPC   C17 5373   3.627   2.755   1.627
  104POPC   C18 5374   3.544   2.837   1.725
  104POPC   C19 5375   3.510   2.752   1.848
  104POPC   C20 5376   3.636   2.726   1.931
  104POPC   C21 5377   3.607   2.632   2.047
  104POPC   C22 5378   3.732   2.613   2.134
  104POPC   C23 5379   3.706   2.516   2.248
  104POPC   C24 5380   3.821   2.513   2.344
  104POPC   C25 5381   3.816   2.533   2.477
  104POPC   C26 5382   3.695   2.560   2.561
  104POPC   C27 5383   3.725   2.536   2.709
  104POPC   C28 5384   3.780   2.395   2.729
  104POPC   C29 5385   3.821   2.373   2.875
  104POPC   C30 5386   3.912   2.251   2.888
  104POPC   C31 5387   3.962   2.235   3.032
  104POPC   C32 5388   4.061   2.120   3.043
  104POPC   C33 5389   4.106   2.101   3.188
  104POPC   C34 5390   3.495   2.289   1.607
  104POPC  OS35 5391   3.424   2.294   1.732
  104POPC   C36 5392   3.501   2.292   1.844
  104POPC   O37 5393   3.623   2.305   1.845
  104POPC   C38 5394   3.413   2.290   1.968
  104POPC   C39 5395   3.480   2.213   2.082
  104POPC   C40 5396   3.398   2.228   2.211
  104POPC   C41 5397   3.460   2.148   2.326
  104POPC   C42 5398   3.380   2.170   2.455
  104POPC   C43 5399   3.398   2.313   2.505
  104POPC   C44 5400   3.311   2.343   2.628
  104POPC   C45 5401   3.356   2.265   2.751
  104POPC   C46 5402   3.266   2.301   2.870
  104POPC   C47 5403   3.303   2.222   2.996
  104POPC   C48 5404   3.440   2.262   3.050
  104POPC   C49 5405   3.472   2.183   3.177
  104POPC   C50 5406   3.609   2.222   3.234
  104POPC   C51 5407   3.608   2.367   3.285
  104POPC   C52 5408   3.742   2.403   3.349
  105POPC    C1 5409   2.367   1.469   1.211
  105POPC    C2 5410   2.422   1.286   1.071
  105POPC    C3 5411   2.357   1.492   0.974
  105POPC    N4 5412   2.431   1.431   1.085
  105POPC    C5 5413   2.575   1.468   1.084
  105POPC    C6 5414   2.616   1.617   1.091
  105POPC   OS7 5415   2.758   1.636   1.097
  105POPC    P8 5416   2.799   1.782   1.053
  105POPC   OM9 5417   2.945   1.768   1.042
  105POPC  OM10 5418   2.716   1.813   0.935
  105POPC  OS11 5419   2.761   1.866   1.180
  105POPC   C12 5420   2.840   1.834   1.295
  105POPC   C13 5421   2.824   1.925   1.417
  105POPC  OS14 5422   2.893   1.868   1.533
  105POPC   C15 5423   2.960   1.957   1.612
  105POPC   O16 5424   3.005   2.062   1.567
  105POPC   C17 5425   3.011   1.886   1.737
  105POPC   C18 5426   3.078   1.981   1.837
  105POPC   C19 5427   2.974   2.062   1.915
  105POPC   C20 5428   3.039   2.133   2.033
  105POPC   C21 5429   2.935   2.206   2.118
  105POPC   C22 5430   2.997   2.263   2.245
  105POPC   C23 5431   2.889   2.331   2.330
  105POPC   C24 5432   2.939   2.379   2.463
  105POPC   C25 5433   2.922   2.318   2.581
  105POPC   C26 5434   2.851   2.187   2.604
  105POPC   C27 5435   2.940   2.085   2.676
  105POPC   C28 5436   2.885   1.944   2.661
  105POPC   C29 5437   2.907   1.894   2.518
  105POPC   C30 5438   2.876   1.745   2.505
  105POPC   C31 5439   2.918   1.693   2.367
  105POPC   C32 5440   2.900   1.542   2.357
  105POPC   C33 5441   2.752   1.504   2.360
  105POPC   C34 5442   2.673   1.949   1.435
  105POPC  OS35 5443   2.626   2.026   1.548
  105POPC   C36 5444   2.633   2.162   1.548
  105POPC   O37 5445   2.678   2.233   1.458
  105POPC   C38 5446   2.563   2.214   1.673
  105POPC   C39 5447   2.642   2.324   1.744
  105POPC   C40 5448   2.562   2.372   1.865
  105POPC   C41 5449   2.642   2.468   1.952
  105POPC   C42 5450   2.560   2.509   2.075
  105POPC   C43 5451   2.646   2.584   2.176
  105POPC   C44 5452   2.568   2.610   2.305
  105POPC   C45 5453   2.662   2.655   2.417
  105POPC   C46 5454   2.588   2.660   2.551
  105POPC   C47 5455   2.683   2.689   2.667
  105POPC   C48 5456   2.744   2.828   2.653
  105POPC   C49 5457   2.832   2.863   2.773
  105POPC   C50 5458   2.891   3.003   2.758
  105POPC   C51 5459   2.978   3.038   2.878
  105POPC   C52 5460   2.894   3.051   3.006
  106POPC    C1 5461   0.072   2.601   1.010
  106POPC    C2 5462   0.076   2.390   1.128
  106POPC    C3 5463   0.269   2.527   1.117
  106POPC    N4 5464   0.123   2.529   1.128
  106POPC    C5 5465   0.086   2.598   1.253
  106POPC    C6 5466   6.272   2.610   1.293
  106POPC   OS7 5467   6.252   2.694   1.407
  106POPC    P8 5468   6.100   2.729   1.423
  106POPC   OM9 5469   6.071   2.811   1.304
  106POPC  OM10 5470   6.026   2.605   1.445
  106POPC  OS11 5471   6.107   2.821   1.549
  106POPC   C12 5472   6.131   2.749   1.669
  106POPC   C13 5473   6.206   2.834   1.773
  106POPC  OS14 5474   6.268   2.758   1.880
  106POPC   C15 5475   0.069   2.757   1.880
  106POPC   O16 5476   0.134   2.791   1.780
  106POPC   C17 5477   0.128   2.685   2.000
  106POPC   C18 5478   0.273   2.728   2.019
  106POPC   C19 5479   0.353   2.634   2.110
  106POPC   C20 5480   0.299   2.632   2.253
  106POPC   C21 5481   0.394   2.554   2.344
  106POPC   C22 5482   0.523   2.632   2.368
  106POPC   C23 5483   0.623   2.552   2.451
  106POPC   C24 5484   0.743   2.633   2.489
  106POPC   C25 5485   0.805   2.634   2.609
  106POPC   C26 5486   0.767   2.553   2.729
  106POPC   C27 5487   0.888   2.498   2.804
  106POPC   C28 5488   0.844   2.397   2.910
  106POPC   C29 5489   0.752   2.462   3.014
  106POPC   C30 5490   0.699   2.355   3.110
  106POPC   C31 5491   0.599   2.414   3.210
  106POPC   C32 5492   0.545   2.304   3.301
  106POPC   C33 5493   0.444   2.360   3.401
  106POPC   C34 5494   6.114   2.950   1.813
  106POPC  OS35 5495   5.986   2.914   1.870
  106POPC   C36 5496   5.924   3.011   1.942
  106POPC   O37 5497   5.951   3.132   1.934
  106POPC   C38 5498   5.807   2.953   2.017
  106POPC   C39 5499   5.750   3.051   2.119
  106POPC   C40 5500   5.671   2.975   2.225
  106POPC   C41 5501   5.768   2.900   2.317
  106POPC   C42 5502   5.694   2.803   2.410
  106POPC   C43 5503   5.791   2.741   2.510
  106POPC   C44 5504   5.722   2.628   2.587
  106POPC   C45 5505   5.807   2.581   2.705
  106POPC   C46 5506   5.738   2.463   2.774
  106POPC   C47 5507   5.808   2.425   2.904
  106POPC   C48 5508   5.740   2.304   2.967
  106POPC   C49 5509   5.791   2.277   3.109
  106POPC   C50 5510   5.733   2.377   3.209
  106POPC   C51 5511   5.584   2.353   3.232
  106POPC   C52 5512   5.560   2.221   3.306
  107POPC    C1 5513   2.412   3.307   1.550
  107POPC    C2 5514   2.294   3.115   1.469
  107POPC    C3 5515   2.386   3.114   1.687
  107POPC    N4 5516   2.320   3.199   1.587
  107POPC    C5 5517   2.196   3.251   1.649
  107POPC    C6 5518   2.106   3.349   1.570
  107POPC   OS7 5519   2.035   3.290   1.461
  107POPC    P8 5520   1.968   3.399   1.368
  107POPC   OM9 5521   1.975   3.532   1.429
  107POPC  OM10 5522   2.030   3.366   1.239
  107POPC  OS11 5523   1.823   3.339   1.379
  107POPC   C12 5524   1.740   3.407   1.473
  107POPC   C13 5525   1.608   3.334   1.504
  107POPC  OS14 5526   1.513   3.417   1.577
  107POPC   C15 5527   1.385   3.375   1.592
  107POPC   O16 5528   1.328   3.309   1.505
  107POPC   C17 5529   1.312   3.457   1.696
  107POPC   C18 5530   1.324   3.395   1.835
  107POPC   C19 5531   1.251   3.481   1.938
  107POPC   C20 5532   1.245   3.414   2.076
  107POPC   C21 5533   1.381   3.408   2.145
  107POPC   C22 5534   1.364   3.355   2.287
  107POPC   C23 5535   1.497   3.344   2.361
  107POPC   C24 5536   1.587   3.240   2.301
  107POPC   C25 5537   1.647   3.137   2.363
  107POPC   C26 5538   1.641   3.099   2.509
  107POPC   C27 5539   1.775   3.119   2.580
  107POPC   C28 5540   1.772   3.058   2.720
  107POPC   C29 5541   1.678   3.133   2.814
  107POPC   C30 5542   1.670   3.061   2.949
  107POPC   C31 5543   1.583   3.139   3.048
  107POPC   C32 5544   1.571   3.065   3.182
  107POPC   C33 5545   1.488   2.937   3.166
  107POPC   C34 5546   1.650   3.203   1.575
  107POPC  OS35 5547   1.686   3.217   1.714
  107POPC   C36 5548   1.733   3.106   1.776
  107POPC   O37 5549   1.798   3.019   1.718
  107POPC   C38 5550   1.729   3.125   1.927
  107POPC   C39 5551   1.831   3.039   2.002
  107POPC   C40 5552   1.971   3.100   1.997
  107POPC   C41 5553   2.071   3.011   2.071
  107POPC   C42 5554   2.044   3.006   2.221
  107POPC   C43 5555   2.138   2.907   2.290
  107POPC   C44 5556   2.122   2.907   2.442
  107POPC   C45 5557   2.216   2.805   2.505
  107POPC   C46 5558   2.217   2.815   2.658
  107POPC   C47 5559   2.085   2.769   2.720
  107POPC   C48 5560   2.090   2.784   2.872
  107POPC   C49 5561   1.959   2.740   2.937
  107POPC   C50 5562   1.964   2.760   3.089
  107POPC   C51 5563   1.833   2.716   3.154
  107POPC   C52 5564   1.837   2.738   3.306
  108POPC    C1 5565   2.649   0.873   1.357
  108POPC    C2 5566   2.812   0.934   1.197
  108POPC    C3 5567   2.847   0.740   1.332
  108POPC    N4 5568   2.746   0.819   1.261
  108POPC    C5 5569   2.681   0.739   1.154
  108POPC    C6 5570   2.606   0.609   1.189
  108POPC   OS7 5571   2.492   0.626   1.271
  108POPC    P8 5572   2.408   0.495   1.280
  108POPC   OM9 5573   2.341   0.480   1.150
  108POPC  OM10 5574   2.496   0.387   1.324
  108POPC  OS11 5575   2.313   0.539   1.397
  108POPC   C12 5576   2.386   0.536   1.521
  108POPC   C13 5577   2.318   0.590   1.648
  108POPC  OS14 5578   2.216   0.502   1.706
  108POPC   C15 5579   2.258   0.403   1.791
  108POPC   O16 5580   2.365   0.345   1.771
  108POPC   C17 5581   2.137   0.339   1.857
  108POPC   C18 5582   2.093   0.411   1.984
  108POPC   C19 5583   2.181   0.375   2.104
  108POPC   C20 5584   2.122   0.436   2.232
  108POPC   C21 5585   2.198   0.389   2.357
  108POPC   C22 5586   2.129   0.443   2.482
  108POPC   C23 5587   2.202   0.400   2.610
  108POPC   C24 5588   2.130   0.447   2.733
  108POPC   C25 5589   2.091   0.374   2.839
  108POPC   C26 5590   2.112   0.227   2.860
  108POPC   C27 5591   2.119   0.190   3.008
  108POPC   C28 5592   2.155   0.042   3.024
  108POPC   C29 5593   2.047   6.357   2.965
  108POPC   C30 5594   2.086   6.209   2.979
  108POPC   C31 5595   1.983   6.118   2.914
  108POPC   C32 5596   2.024   5.971   2.927
  108POPC   C33 5597   2.151   5.943   2.846
  108POPC   C34 5598   2.275   0.735   1.618
  108POPC  OS35 5599   2.218   0.806   1.729
  108POPC   C36 5600   2.301   0.861   1.822
  108POPC   O37 5601   2.423   0.876   1.806
  108POPC   C38 5602   2.222   0.914   1.940
  108POPC   C39 5603   2.304   0.913   2.069
  108POPC   C40 5604   2.214   0.934   2.190
  108POPC   C41 5605   2.295   0.940   2.320
  108POPC   C42 5606   2.369   0.808   2.345
  108POPC   C43 5607   2.444   0.812   2.478
  108POPC   C44 5608   2.348   0.800   2.597
  108POPC   C45 5609   2.425   0.802   2.730
  108POPC   C46 5610   2.332   0.769   2.846
  108POPC   C47 5611   2.408   0.769   2.979
  108POPC   C48 5612   2.319   0.716   3.092
  108POPC   C49 5613   2.392   0.719   3.226
  108POPC   C50 5614   2.309   0.651   3.335
  108POPC   C51 5615   2.300   0.500   3.308
  108POPC   C52 5616   2.223   0.428   3.419
  109POPC    C1 5617   2.696   4.350   1.245
  109POPC    C2 5618   2.485   4.438   1.168
  109POPC    C3 5619   2.638   4.341   1.015
  109POPC    N4 5620   2.584   4.330   1.152
  109POPC    C5 5621   2.521   4.198   1.168
  109POPC    C6 5622   2.461   4.158   1.305
  109POPC   OS7 5623   2.399   4.029   1.304
  109POPC    P8 5624   2.493   3.916   1.359
  109POPC   OM9 5625   2.435   3.790   1.307
  109POPC  OM10 5626   2.632   3.952   1.334
  109POPC  OS11 5627   2.464   3.926   1.511
  109POPC   C12 5628   2.518   3.813   1.579
  109POPC   C13 5629   2.515   3.824   1.732
  109POPC  OS14 5630   2.577   3.709   1.798
  109POPC   C15 5631   2.512   3.589   1.811
  109POPC   O16 5632   2.406   3.560   1.753
  109POPC   C17 5633   2.594   3.494   1.897
  109POPC   C18 5634   2.509   3.379   1.951
  109POPC   C19 5635   2.409   3.429   2.056
  109POPC   C20 5636   2.475   3.467   2.189
  109POPC   C21 5637   2.371   3.527   2.282
  109POPC   C22 5638   2.419   3.523   2.427
  109POPC   C23 5639   2.313   3.579   2.522
  109POPC   C24 5640   2.318   3.729   2.531
  109POPC   C25 5641   2.296   3.802   2.642
  109POPC   C26 5642   2.260   3.749   2.778
  109POPC   C27 5643   2.381   3.722   2.867
  109POPC   C28 5644   2.338   3.649   2.994
  109POPC   C29 5645   2.459   3.610   3.079
  109POPC   C30 5646   2.416   3.530   3.202
  109POPC   C31 5647   2.538   3.495   3.288
  109POPC   C32 5648   2.633   3.401   3.213
  109POPC   C33 5649   2.758   3.373   3.295
  109POPC   C34 5650   2.372   3.865   1.772
  109POPC  OS35 5651   2.345   3.870   1.913
  109POPC   C36 5652   2.214   3.869   1.947
  109POPC   O37 5653   2.122   3.880   1.866
  109POPC   C38 5654   2.196   3.857   2.098
  109POPC   C39 5655   2.105   3.967   2.151
  109POPC   C40 5656   2.069   3.940   2.297
  109POPC   C41 5657   1.980   4.051   2.353
  109POPC   C42 5658   1.930   4.013   2.492
  109POPC   C43 5659   1.847   4.125   2.554
  109POPC   C44 5660   1.786   4.078   2.686
  109POPC   C45 5661   1.719   4.195   2.759
  109POPC   C46 5662   1.825   4.295   2.804
  109POPC   C47 5663   1.765   4.403   2.894
  109POPC   C48 5664   1.877   4.489   2.953
  109POPC   C49 5665   1.823   4.583   3.060
  109POPC   C50 5666   1.938   4.656   3.130
  109POPC   C51 5667   1.884   4.751   3.237
  109POPC   C52 5668   1.802   4.861   3.171
  110POPC    C1 5669   1.868   4.635   1.117
  110POPC    C2 5670   1.755   4.738   0.937
  110POPC    C3 5671   1.900   4.865   1.076
  110POPC    N4 5672   1.881   4.735   1.011
  110POPC    C5 5673   1.990   4.700   0.917
  110POPC    C6 5674   2.138   4.689   0.963
  110POPC   OS7 5675   2.208   4.811   0.986
  110POPC    P8 5676   2.360   4.785   1.023
  110POPC   OM9 5677   2.405   4.672   0.941
  110POPC  OM10 5678   2.426   4.917   1.018
  110POPC  OS11 5679   2.339   4.738   1.172
  110POPC   C12 5680   2.349   4.846   1.266
  110POPC   C13 5681   2.321   4.809   1.412
  110POPC  OS14 5682   2.350   4.920   1.502
  110POPC   C15 5683   2.248   4.952   1.588
  110POPC   O16 5684   2.130   4.933   1.558
  110POPC   C17 5685   2.298   5.053   1.689
  110POPC   C18 5686   2.217   5.053   1.818
  110POPC   C19 5687   2.251   4.935   1.909
  110POPC   C20 5688   2.200   4.964   2.050
  110POPC   C21 5689   2.237   4.855   2.151
  110POPC   C22 5690   2.213   4.906   2.293
  110POPC   C23 5691   2.314   5.016   2.327
  110POPC   C24 5692   2.290   5.081   2.460
  110POPC   C25 5693   2.377   5.092   2.563
  110POPC   C26 5694   2.517   5.038   2.568
  110POPC   C27 5695   2.556   4.991   2.708
  110POPC   C28 5696   2.594   5.107   2.800
  110POPC   C29 5697   2.630   5.054   2.938
  110POPC   C30 5698   2.708   5.156   3.020
  110POPC   C31 5699   2.849   5.173   2.962
  110POPC   C32 5700   2.935   5.265   3.049
  110POPC   C33 5701   2.962   5.202   3.185
  110POPC   C34 5702   2.409   4.685   1.442
  110POPC  OS35 5703   2.362   4.600   1.547
  110POPC   C36 5704   2.428   4.483   1.562
  110POPC   O37 5705   2.528   4.452   1.495
  110POPC   C38 5706   2.363   4.393   1.666
  110POPC   C39 5707   2.294   4.474   1.776
  110POPC   C40 5708   2.217   4.379   1.869
  110POPC   C41 5709   2.146   4.455   1.981
  110POPC   C42 5710   2.062   4.358   2.065
  110POPC   C43 5711   1.989   4.430   2.179
  110POPC   C44 5712   2.085   4.474   2.289
  110POPC   C45 5713   2.011   4.549   2.399
  110POPC   C46 5714   2.109   4.594   2.508
  110POPC   C47 5715   2.041   4.689   2.607
  110POPC   C48 5716   2.143   4.745   2.706
  110POPC   C49 5717   2.081   4.854   2.794
  110POPC   C50 5718   2.187   4.912   2.888
  110POPC   C51 5719   2.130   5.027   2.971
  110POPC   C52 5720   2.237   5.085   3.064
  111POPC    C1 5721   2.524   2.067   0.745
  111POPC    C2 5722   2.616   2.130   0.958
  111POPC    C3 5723   2.520   2.293   0.814
  111POPC    N4 5724   2.508   2.155   0.861
  111POPC    C5 5725   2.374   2.138   0.923
  111POPC    C6 5726   2.330   2.002   0.982
  111POPC   OS7 5727   2.404   1.964   1.097
  111POPC    P8 5728   2.325   1.869   1.194
  111POPC   OM9 5729   2.247   1.776   1.110
  111POPC  OM10 5730   2.423   1.815   1.290
  111POPC  OS11 5731   2.234   1.977   1.262
  111POPC   C12 5732   2.308   2.068   1.343
  111POPC   C13 5733   2.234   2.202   1.363
  111POPC  OS14 5734   2.326   2.312   1.391
  111POPC   C15 5735   2.275   2.436   1.415
  111POPC   O16 5736   2.164   2.471   1.375
  111POPC   C17 5737   2.382   2.528   1.472
  111POPC   C18 5738   2.342   2.675   1.475
  111POPC   C19 5739   2.237   2.707   1.581
  111POPC   C20 5740   2.285   2.686   1.724
  111POPC   C21 5741   2.171   2.721   1.820
  111POPC   C22 5742   2.051   2.630   1.790
  111POPC   C23 5743   1.928   2.666   1.873
  111POPC   C24 5744   1.813   2.573   1.842
  111POPC   C25 5745   1.692   2.568   1.899
  111POPC   C26 5746   1.636   2.654   2.009
  111POPC   C27 5747   1.666   2.597   2.148
  111POPC   C28 5748   1.603   2.682   2.258
  111POPC   C29 5749   1.648   2.634   2.396
  111POPC   C30 5750   1.580   2.714   2.506
  111POPC   C31 5751   1.637   2.679   2.644
  111POPC   C32 5752   1.608   2.534   2.680
  111POPC   C33 5753   1.665   2.500   2.818
  111POPC   C34 5754   2.122   2.172   1.464
  111POPC  OS35 5755   2.166   2.159   1.601
  111POPC   C36 5756   2.091   2.228   1.692
  111POPC   O37 5757   1.983   2.282   1.667
  111POPC   C38 5758   2.153   2.219   1.831
  111POPC   C39 5759   2.058   2.274   1.936
  111POPC   C40 5760   2.119   2.270   2.076
  111POPC   C41 5761   2.021   2.332   2.177
  111POPC   C42 5762   2.070   2.315   2.321
  111POPC   C43 5763   2.187   2.408   2.353
  111POPC   C44 5764   2.239   2.377   2.493
  111POPC   C45 5765   2.316   2.244   2.493
  111POPC   C46 5766   2.456   2.265   2.435
  111POPC   C47 5767   2.527   2.132   2.407
  111POPC   C48 5768   2.471   2.066   2.281
  111POPC   C49 5769   2.550   1.941   2.246
  111POPC   C50 5770   2.497   1.879   2.116
  111POPC   C51 5771   2.576   1.754   2.078
  111POPC   C52 5772   2.719   1.790   2.035
  112POPC    C1 5773   4.100   2.353   1.365
  112POPC    C2 5774   4.152   2.466   1.567
  112POPC    C3 5775   3.931   2.481   1.479
  112POPC    N4 5776   4.047   2.391   1.497
  112POPC    C5 5777   4.014   2.272   1.580
  112POPC    C6 5778   3.907   2.172   1.531
  112POPC   OS7 5779   3.904   2.047   1.599
  112POPC    P8 5780   3.795   1.957   1.532
  112POPC   OM9 5781   3.667   2.027   1.535
  112POPC  OM10 5782   3.856   1.915   1.404
  112POPC  OS11 5783   3.795   1.836   1.631
  112POPC   C12 5784   3.723   1.867   1.750
  112POPC   C13 5785   3.704   1.747   1.843
  112POPC  OS14 5786   3.603   1.771   1.945
  112POPC   C15 5787   3.487   1.703   1.927
  112POPC   O16 5788   3.460   1.649   1.819
  112POPC   C17 5789   3.393   1.720   2.046
  112POPC   C18 5790   3.470   1.740   2.177
  112POPC   C19 5791   3.382   1.713   2.300
  112POPC   C20 5792   3.463   1.732   2.429
  112POPC   C21 5793   3.397   1.663   2.549
  112POPC   C22 5794   3.268   1.730   2.596
  112POPC   C23 5795   3.292   1.854   2.683
  112POPC   C24 5796   3.353   1.824   2.817
  112POPC   C25 5797   3.291   1.794   2.933
  112POPC   C26 5798   3.144   1.781   2.961
  112POPC   C27 5799   3.084   1.900   3.036
  112POPC   C28 5800   2.933   1.880   3.052
  112POPC   C29 5801   2.865   2.005   3.110
  112POPC   C30 5802   2.886   2.019   3.261
  112POPC   C31 5803   2.810   1.909   3.336
  112POPC   C32 5804   2.818   1.929   3.487
  112POPC   C33 5805   2.734   2.050   3.530
  112POPC   C34 5806   3.843   1.705   1.895
  112POPC  OS35 5807   3.847   1.593   1.986
  112POPC   C36 5808   3.828   1.469   1.934
  112POPC   O37 5809   3.856   1.440   1.818
  112POPC   C38 5810   3.819   1.366   2.047
  112POPC   C39 5811   3.740   1.242   2.003
  112POPC   C40 5812   3.589   1.268   2.007
  112POPC   C41 5813   3.539   1.276   2.151
  112POPC   C42 5814   3.388   1.305   2.156
  112POPC   C43 5815   3.341   1.317   2.301
  112POPC   C44 5816   3.333   1.181   2.371
  112POPC   C45 5817   3.314   1.198   2.522
  112POPC   C46 5818   3.184   1.271   2.555
  112POPC   C47 5819   3.173   1.295   2.705
  112POPC   C48 5820   3.051   1.381   2.739
  112POPC   C49 5821   3.046   1.411   2.889
  112POPC   C50 5822   3.009   1.287   2.971
  112POPC   C51 5823   3.012   1.317   3.120
  112POPC   C52 5824   2.907   1.421   3.158
  113POPC    C1 5825   0.859   1.980   4.982
  113POPC    C2 5826   0.702   1.858   5.112
  113POPC    C3 5827   0.916   1.908   5.202
  113POPC    N4 5828   0.808   1.960   5.118
  113POPC    C5 5829   0.747   2.083   5.173
  113POPC    C6 5830   0.839   2.202   5.208
  113POPC   OS7 5831   0.771   2.318   5.255
  113POPC    P8 5832   0.869   2.422   5.318
  113POPC   OM9 5833   0.785   2.523   5.384
  113POPC  OM10 5834   0.974   2.351   5.392
  113POPC  OS11 5835   0.933   2.483   5.188
  113POPC   C12 5836   0.852   2.584   5.128
  113POPC   C13 5837   0.893   2.620   4.985
  113POPC  OS14 5838   0.817   2.733   4.932
  113POPC   C15 5839   0.888   2.841   4.887
  113POPC   O16 5840   1.007   2.860   4.914
  113POPC   C17 5841   0.792   2.944   4.830
  113POPC   C18 5842   0.862   3.065   4.768
  113POPC   C19 5843   0.917   3.038   4.628
  113POPC   C20 5844   0.961   3.170   4.565
  113POPC   C21 5845   1.007   3.152   4.420
  113POPC   C22 5846   1.034   3.289   4.357
  113POPC   C23 5847   1.080   3.274   4.211
  113POPC   C24 5848   1.103   3.408   4.147
  113POPC   C25 5849   1.071   3.446   4.023
  113POPC   C26 5850   1.005   3.362   3.917
  113POPC   C27 5851   1.056   3.394   3.776
  113POPC   C28 5852   1.016   3.535   3.734
  113POPC   C29 5853   1.057   3.563   3.589
  113POPC   C30 5854   1.016   3.704   3.548
  113POPC   C31 5855   1.053   3.732   3.402
  113POPC   C32 5856   1.015   3.875   3.362
  113POPC   C33 5857   0.864   3.894   3.361
  113POPC   C34 5858   0.880   2.490   4.903
  113POPC  OS35 5859   0.746   2.440   4.890
  113POPC   C36 5860   0.734   2.325   4.819
  113POPC   O37 5861   0.825   2.243   4.807
  113POPC   C38 5862   0.588   2.294   4.791
  113POPC   C39 5863   0.559   2.306   4.641
  113POPC   C40 5864   0.560   2.452   4.597
  113POPC   C41 5865   0.544   2.468   4.446
  113POPC   C42 5866   0.665   2.413   4.372
  113POPC   C43 5867   0.664   2.453   4.224
  113POPC   C44 5868   0.548   2.390   4.147
  113POPC   C45 5869   0.554   2.432   4.000
  113POPC   C46 5870   0.677   2.371   3.932
  113POPC   C47 5871   0.692   2.419   3.788
  113POPC   C48 5872   0.815   2.356   3.723
  113POPC   C49 5873   0.838   2.409   3.581
  113POPC   C50 5874   0.881   2.555   3.583
  113POPC   C51 5875   0.906   2.607   3.442
  113POPC   C52 5876   0.952   2.753   3.444
  114POPC    C1 5877   1.287   2.407   5.477
  114POPC    C2 5878   1.185   2.599   5.375
  114POPC    C3 5879   1.414   2.600   5.425
  114POPC    N4 5880   1.305   2.514   5.378
  114POPC    C5 5881   1.339   2.464   5.243
  114POPC    C6 5882   1.251   2.353   5.179
  114POPC   OS7 5883   1.284   2.320   5.044
  114POPC    P8 5884   1.243   2.169   5.021
  114POPC   OM9 5885   1.339   2.089   5.098
  114POPC  OM10 5886   1.100   2.162   5.050
  114POPC  OS11 5887   1.272   2.155   4.868
  114POPC   C12 5888   1.160   2.197   4.790
  114POPC   C13 5889   1.196   2.221   4.643
  114POPC  OS14 5890   1.099   2.307   4.577
  114POPC   C15 5891   1.134   2.437   4.561
  114POPC   O16 5892   1.231   2.487   4.621
  114POPC   C17 5893   1.022   2.516   4.495
  114POPC   C18 5894   1.070   2.649   4.438
  114POPC   C19 5895   1.140   2.629   4.304
  114POPC   C20 5896   1.192   2.762   4.249
  114POPC   C21 5897   1.244   2.745   4.106
  114POPC   C22 5898   1.367   2.654   4.100
  114POPC   C23 5899   1.405   2.625   3.955
  114POPC   C24 5900   1.294   2.553   3.883
  114POPC   C25 5901   1.269   2.549   3.751
  114POPC   C26 5902   1.346   2.613   3.640
  114POPC   C27 5903   1.339   2.530   3.512
  114POPC   C28 5904   1.418   2.596   3.399
  114POPC   C29 5905   1.403   2.517   3.269
  114POPC   C30 5906   1.258   2.524   3.219
  114POPC   C31 5907   1.239   2.446   3.089
  114POPC   C32 5908   1.311   2.515   2.972
  114POPC   C33 5909   1.245   2.648   2.936
  114POPC   C34 5910   1.221   2.082   4.581
  114POPC  OS35 5911   1.287   2.084   4.453
  114POPC   C36 5912   1.422   2.102   4.450
  114POPC   O37 5913   1.496   2.097   4.549
  114POPC   C38 5914   1.468   2.117   4.306
  114POPC   C39 5915   1.552   2.244   4.289
  114POPC   C40 5916   1.562   2.283   4.142
  114POPC   C41 5917   1.640   2.180   4.060
  114POPC   C42 5918   1.640   2.218   3.912
  114POPC   C43 5919   1.713   2.350   3.889
  114POPC   C44 5920   1.697   2.396   3.744
  114POPC   C45 5921   1.765   2.299   3.648
  114POPC   C46 5922   1.755   2.350   3.504
  114POPC   C47 5923   1.831   2.259   3.407
  114POPC   C48 5924   1.830   2.319   3.267
  114POPC   C49 5925   1.917   2.237   3.171
  114POPC   C50 5926   1.923   2.305   3.034
  114POPC   C51 5927   2.013   2.228   2.937
  114POPC   C52 5928   2.017   2.297   2.801
  115POPC    C1 5929   4.096   0.457   5.316
  115POPC    C2 5930   4.136   0.399   5.086
  115POPC    C3 5931   4.103   0.231   5.248
  115POPC    N4 5932   4.059   0.365   5.207
  115POPC    C5 5933   3.913   0.362   5.182
  115POPC    C6 5934   3.844   0.493   5.135
  115POPC   OS7 5935   3.701   0.490   5.127
  115POPC    P8 5936   3.653   0.639   5.112
  115POPC   OM9 5937   3.673   0.696   5.245
  115POPC  OM10 5938   3.719   0.700   4.996
  115POPC  OS11 5939   3.499   0.626   5.090
  115POPC   C12 5940   3.469   0.582   4.957
  115POPC   C13 5941   3.322   0.604   4.916
  115POPC  OS14 5942   3.284   0.525   4.800
  115POPC   C15 5943   3.168   0.454   4.800
  115POPC   O16 5944   3.102   0.431   4.902
  115POPC   C17 5945   3.148   0.391   4.663
  115POPC   C18 5946   3.092   0.249   4.670
  115POPC   C19 5947   3.114   0.178   4.536
  115POPC   C20 5948   3.061   0.035   4.537
  115POPC   C21 5949   3.116   6.360   4.418
  115POPC   C22 5950   3.070   6.214   4.424
  115POPC   C23 5951   2.925   6.197   4.379
  115POPC   C24 5952   2.909   6.217   4.231
  115POPC   C25 5953   2.825   6.300   4.166
  115POPC   C26 5954   2.725   6.395   4.225
  115POPC   C27 5955   2.767   0.136   4.210
  115POPC   C28 5956   2.781   0.175   4.063
  115POPC   C29 5957   2.812   0.324   4.048
  115POPC   C30 5958   2.690   0.409   4.089
  115POPC   C31 5959   2.718   0.558   4.072
  115POPC   C32 5960   2.595   0.641   4.110
  115POPC   C33 5961   2.623   0.791   4.095
  115POPC   C34 5962   3.306   0.756   4.901
  115POPC  OS35 5963   3.392   0.816   4.803
  115POPC   C36 5964   3.330   0.874   4.696
  115POPC   O37 5965   3.210   0.902   4.693
  115POPC   C38 5966   3.430   0.911   4.588
  115POPC   C39 5967   3.357   0.951   4.459
  115POPC   C40 5968   3.451   0.959   4.338
  115POPC   C41 5969   3.371   0.999   4.214
  115POPC   C42 5970   3.456   0.995   4.086
  115POPC   C43 5971   3.373   1.043   3.966
  115POPC   C44 5972   3.450   1.030   3.834
  115POPC   C45 5973   3.471   0.883   3.797
  115POPC   C46 5974   3.536   0.870   3.659
  115POPC   C47 5975   3.566   0.723   3.627
  115POPC   C48 5976   3.636   0.710   3.491
  115POPC   C49 5977   3.538   0.722   3.375
  115POPC   C50 5978   3.453   0.596   3.362
  115POPC   C51 5979   3.353   0.608   3.247
  115POPC   C52 5980   3.249   0.716   3.278
  116POPC    C1 5981   1.583   1.893   5.071
  116POPC    C2 5982   1.574   2.028   4.873
  116POPC    C3 5983   1.728   1.848   4.890
  116POPC    N4 5984   1.592   1.891   4.924
  116POPC    C5 5985   1.498   1.794   4.863
  116POPC    C6 5986   1.346   1.812   4.883
  116POPC   OS7 5987   1.270   1.702   4.836
  116POPC    P8 5988   1.117   1.733   4.854
  116POPC   OM9 5989   1.105   1.753   4.999
  116POPC  OM10 5990   1.090   1.839   4.758
  116POPC  OS11 5991   1.068   1.590   4.811
  116POPC   C12 5992   1.053   1.575   4.669
  116POPC   C13 5993   1.025   1.429   4.628
  116POPC  OS14 5994   1.018   1.408   4.484
  116POPC   C15 5995   1.040   1.280   4.441
  116POPC   O16 5996   1.078   1.192   4.518
  116POPC   C17 5997   1.011   1.262   4.293
  116POPC   C18 5998   0.969   1.118   4.266
  116POPC   C19 5999   0.905   1.103   4.127
  116POPC   C20 6000   0.854   0.960   4.104
  116POPC   C21 6001   0.760   0.953   3.984
  116POPC   C22 6002   0.705   0.811   3.967
  116POPC   C23 6003   0.591   0.802   3.866
  116POPC   C24 6004   0.632   0.835   3.725
  116POPC   C25 6005   0.563   0.906   3.635
  116POPC   C26 6006   0.428   0.969   3.653
  116POPC   C27 6007   0.377   1.039   3.527
  116POPC   C28 6008   0.476   1.148   3.484
  116POPC   C29 6009   0.416   1.245   3.382
  116POPC   C30 6010   0.517   1.355   3.350
  116POPC   C31 6011   0.450   1.477   3.285
  116POPC   C32 6012   0.394   1.445   3.147
  116POPC   C33 6013   0.329   1.569   3.085
  116POPC   C34 6014   0.898   1.387   4.705
  116POPC  OS35 6015   0.778   1.463   4.674
  116POPC   C36 6016   0.689   1.401   4.592
  116POPC   O37 6017   0.662   1.281   4.600
  116POPC   C38 6018   0.589   1.503   4.541
  116POPC   C39 6019   0.536   1.463   4.404
  116POPC   C40 6020   0.646   1.476   4.299
  116POPC   C41 6021   0.598   1.427   4.163
  116POPC   C42 6022   0.712   1.432   4.061
  116POPC   C43 6023   0.666   1.378   3.925
  116POPC   C44 6024   0.786   1.364   3.831
  116POPC   C45 6025   0.741   1.306   3.697
  116POPC   C46 6026   0.860   1.279   3.605
  116POPC   C47 6027   0.948   1.167   3.662
  116POPC   C48 6028   1.062   1.133   3.565
  116POPC   C49 6029   1.008   1.065   3.439
  116POPC   C50 6030   0.960   0.923   3.470
  116POPC   C51 6031   0.907   0.855   3.343
  116POPC   C52 6032   0.864   0.711   3.373
  117POPC    C1 6033   2.490   1.682   5.537
  117POPC    C2 6034   2.442   1.694   5.305
  117POPC    C3 6035   2.502   1.892   5.426
  117POPC    N4 6036   2.528   1.748   5.411
  117POPC    C5 6037   2.672   1.722   5.386
  117POPC    C6 6038   2.737   1.770   5.253
  117POPC   OS7 6039   2.877   1.743   5.243
  117POPC    P8 6040   2.913   1.646   5.124
  117POPC   OM9 6041   2.961   1.522   5.186
  117POPC  OM10 6042   2.805   1.644   5.025
  117POPC  OS11 6043   3.038   1.724   5.070
  117POPC   C12 6044   3.058   1.701   4.931
  117POPC   C13 6045   3.186   1.765   4.875
  117POPC  OS14 6046   3.199   1.752   4.731
  117POPC   C15 6047   3.256   1.855   4.663
  117POPC   O16 6048   3.299   1.957   4.718
  117POPC   C17 6049   3.263   1.824   4.514
  117POPC   C18 6050   3.231   1.948   4.430
  117POPC   C19 6051   3.214   1.909   4.283
  117POPC   C20 6052   3.173   2.031   4.200
  117POPC   C21 6053   3.144   1.992   4.055
  117POPC   C22 6054   3.107   2.116   3.974
  117POPC   C23 6055   3.069   2.080   3.830
  117POPC   C24 6056   3.037   2.201   3.748
  117POPC   C25 6057   3.110   2.253   3.648
  117POPC   C26 6058   3.241   2.204   3.594
  117POPC   C27 6059   3.349   2.311   3.591
  117POPC   C28 6060   3.386   2.359   3.731
  117POPC   C29 6061   3.506   2.455   3.727
  117POPC   C30 6062   3.544   2.500   3.868
  117POPC   C31 6063   3.673   2.583   3.866
  117POPC   C32 6064   3.651   2.719   3.800
  117POPC   C33 6065   3.562   2.807   3.888
  117POPC   C34 6066   3.302   1.703   4.955
  117POPC  OS35 6067   3.314   1.559   4.943
  117POPC   C36 6068   3.428   1.517   4.882
  117POPC   O37 6069   3.537   1.573   4.899
  117POPC   C38 6070   3.413   1.372   4.839
  117POPC   C39 6071   3.471   1.351   4.699
  117POPC   C40 6072   3.381   1.418   4.595
  117POPC   C41 6073   3.431   1.397   4.452
  117POPC   C42 6074   3.332   1.459   4.353
  117POPC   C43 6075   3.370   1.434   4.207
  117POPC   C44 6076   3.260   1.486   4.115
  117POPC   C45 6077   3.290   1.459   3.968
  117POPC   C46 6078   3.403   1.549   3.917
  117POPC   C47 6079   3.429   1.526   3.768
  117POPC   C48 6080   3.310   1.572   3.683
  117POPC   C49 6081   3.295   1.724   3.684
  117POPC   C50 6082   3.169   1.767   3.609
  117POPC   C51 6083   3.181   1.744   3.458
  117POPC   C52 6084   3.273   1.847   3.393
  118POPC    C1 6085   2.251   1.163   5.753
  118POPC    C2 6086   2.382   1.168   5.556
  118POPC    C3 6087   2.163   1.070   5.553
  118POPC    N4 6088   2.245   1.180   5.608
  118POPC    C5 6089   2.187   1.314   5.581
  118POPC    C6 6090   2.154   1.359   5.437
  118POPC   OS7 6091   2.268   1.367   5.352
  118POPC    P8 6092   2.234   1.412   5.206
  118POPC   OM9 6093   2.145   1.529   5.215
  118POPC  OM10 6094   2.364   1.426   5.139
  118POPC  OS11 6095   2.162   1.282   5.156
  118POPC   C12 6096   2.253   1.179   5.118
  118POPC   C13 6097   2.187   1.043   5.086
  118POPC  OS14 6098   2.286   0.938   5.063
  118POPC   C15 6099   2.242   0.811   5.040
  118POPC   O16 6100   2.129   0.772   5.073
  118POPC   C17 6101   2.355   0.720   4.997
  118POPC   C18 6102   2.314   0.637   4.875
  118POPC   C19 6103   2.291   0.730   4.756
  118POPC   C20 6104   2.251   0.652   4.630
  118POPC   C21 6105   2.213   0.750   4.519
  118POPC   C22 6106   2.172   0.675   4.392
  118POPC   C23 6107   2.117   0.772   4.287
  118POPC   C24 6108   2.219   0.872   4.241
  118POPC   C25 6109   2.234   0.920   4.116
  118POPC   C26 6110   2.153   0.885   3.995
  118POPC   C27 6111   2.241   0.830   3.883
  118POPC   C28 6112   2.157   0.787   3.762
  118POPC   C29 6113   2.076   0.661   3.795
  118POPC   C30 6114   1.994   0.615   3.676
  118POPC   C31 6115   1.914   0.489   3.711
  118POPC   C32 6116   1.834   0.439   3.591
  118POPC   C33 6117   1.751   0.316   3.628
  118POPC   C34 6118   2.083   1.071   4.975
  118POPC  OS35 6119   2.134   1.121   4.849
  118POPC   C36 6120   2.044   1.128   4.748
  118POPC   O37 6121   1.922   1.113   4.762
  118POPC   C38 6122   2.111   1.175   4.620
  118POPC   C39 6123   2.048   1.118   4.493
  118POPC   C40 6124   1.918   1.188   4.452
  118POPC   C41 6125   1.943   1.332   4.406
  118POPC   C42 6126   2.012   1.339   4.270
  118POPC   C43 6127   1.917   1.294   4.158
  118POPC   C44 6128   1.979   1.325   4.022
  118POPC   C45 6129   1.887   1.283   3.907
  118POPC   C46 6130   1.941   1.334   3.774
  118POPC   C47 6131   2.076   1.270   3.740
  118POPC   C48 6132   2.132   1.328   3.611
  118POPC   C49 6133   2.046   1.290   3.490
  118POPC   C50 6134   2.098   1.355   3.362
  118POPC   C51 6135   2.014   1.314   3.242
  118POPC   C52 6136   1.871   1.366   3.255
  119POPC    C1 6137   3.179   1.577   5.485
  119POPC    C2 6138   3.294   1.506   5.293
  119POPC    C3 6139   3.373   1.445   5.513
  119POPC    N4 6140   3.255   1.465   5.428
  119POPC    C5 6141   3.169   1.345   5.426
  119POPC    C6 6142   3.225   1.209   5.377
  119POPC   OS7 6143   3.273   1.211   5.243
  119POPC    P8 6144   3.260   1.074   5.166
  119POPC   OM9 6145   3.345   1.087   5.048
  119POPC  OM10 6146   3.284   0.966   5.263
  119POPC  OS11 6147   3.107   1.085   5.131
  119POPC   C12 6148   3.084   1.175   5.022
  119POPC   C13 6149   2.935   1.205   4.993
  119POPC  OS14 6150   2.864   1.095   4.929
  119POPC   C15 6151   2.727   1.101   4.924
  119POPC   O16 6152   2.661   1.193   4.974
  119POPC   C17 6153   2.669   0.982   4.851
  119POPC   C18 6154   2.553   1.020   4.759
  119POPC   C19 6155   2.602   1.102   4.639
  119POPC   C20 6156   2.490   1.115   4.535
  119POPC   C21 6157   2.526   1.214   4.425
  119POPC   C22 6158   2.417   1.215   4.318
  119POPC   C23 6159   2.437   1.328   4.217
  119POPC   C24 6160   2.567   1.318   4.143
  119POPC   C25 6161   2.589   1.277   4.017
  119POPC   C26 6162   2.490   1.228   3.915
  119POPC   C27 6163   2.563   1.169   3.794
  119POPC   C28 6164   2.466   1.113   3.690
  119POPC   C29 6165   2.542   1.061   3.568
  119POPC   C30 6166   2.628   0.940   3.604
  119POPC   C31 6167   2.543   0.815   3.628
  119POPC   C32 6168   2.629   0.695   3.665
  119POPC   C33 6169   2.544   0.570   3.687
  119POPC   C34 6170   2.936   1.337   4.915
  119POPC  OS35 6171   2.999   1.333   4.785
  119POPC   C36 6172   2.920   1.369   4.681
  119POPC   O37 6173   2.805   1.414   4.691
  119POPC   C38 6174   2.990   1.346   4.549
  119POPC   C39 6175   3.003   1.196   4.521
  119POPC   C40 6176   3.040   1.173   4.375
  119POPC   C41 6177   2.929   1.226   4.285
  119POPC   C42 6178   2.961   1.210   4.137
  119POPC   C43 6179   2.945   1.066   4.089
  119POPC   C44 6180   2.963   1.064   3.937
  119POPC   C45 6181   2.934   0.930   3.871
  119POPC   C46 6182   3.044   0.826   3.896
  119POPC   C47 6183   3.040   0.723   3.783
  119POPC   C48 6184   3.144   0.612   3.802
  119POPC   C49 6185   3.153   0.528   3.674
  119POPC   C50 6186   3.016   0.469   3.639
  119POPC   C51 6187   3.021   0.396   3.505
  119POPC   C52 6188   2.881   0.350   3.464
  120POPC    C1 6189   1.246   1.095   5.074
  120POPC    C2 6190   1.366   1.015   5.265
  120POPC    C3 6191   1.439   0.967   5.043
  120POPC    N4 6192   1.379   1.069   5.129
  120POPC    C5 6193   1.456   1.196   5.126
  120POPC    C6 6194   1.605   1.196   5.166
  120POPC   OS7 6195   1.667   1.325   5.162
  120POPC    P8 6196   1.823   1.318   5.192
  120POPC   OM9 6197   1.851   1.446   5.260
  120POPC  OM10 6198   1.858   1.185   5.245
  120POPC  OS11 6199   1.861   1.325   5.040
  120POPC   C12 6200   1.893   1.457   4.996
  120POPC   C13 6201   1.888   1.476   4.844
  120POPC  OS14 6202   1.937   1.607   4.800
  120POPC   C15 6203   2.019   1.602   4.691
  120POPC   O16 6204   2.107   1.516   4.682
  120POPC   C17 6205   2.032   1.741   4.630
  120POPC   C18 6206   1.909   1.781   4.548
  120POPC   C19 6207   1.907   1.715   4.410
  120POPC   C20 6208   1.790   1.767   4.327
  120POPC   C21 6209   1.781   1.697   4.191
  120POPC   C22 6210   1.661   1.749   4.112
  120POPC   C23 6211   1.638   1.669   3.983
  120POPC   C24 6212   1.747   1.686   3.881
  120POPC   C25 6213   1.741   1.757   3.767
  120POPC   C26 6214   1.625   1.835   3.714
  120POPC   C27 6215   1.619   1.841   3.561
  120POPC   C28 6216   1.589   1.706   3.496
  120POPC   C29 6217   1.579   1.722   3.344
  120POPC   C30 6218   1.552   1.590   3.272
  120POPC   C31 6219   1.410   1.539   3.298
  120POPC   C32 6220   1.384   1.409   3.221
  120POPC   C33 6221   1.382   1.435   3.070
  120POPC   C34 6222   1.742   1.440   4.806
  120POPC  OS35 6223   1.699   1.472   4.672
  120POPC   C36 6224   1.583   1.413   4.631
  120POPC   O37 6225   1.525   1.324   4.694
  120POPC   C38 6226   1.543   1.460   4.492
  120POPC   C39 6227   1.445   1.577   4.501
  120POPC   C40 6228   1.383   1.607   4.365
  120POPC   C41 6229   1.290   1.728   4.375
  120POPC   C42 6230   1.214   1.755   4.244
  120POPC   C43 6231   1.118   1.640   4.215
  120POPC   C44 6232   1.011   1.677   4.112
  120POPC   C45 6233   1.067   1.698   3.971
  120POPC   C46 6234   0.952   1.727   3.875
  120POPC   C47 6235   0.999   1.750   3.731
  120POPC   C48 6236   1.066   1.625   3.674
  120POPC   C49 6237   1.099   1.644   3.526
  120POPC   C50 6238   0.971   1.648   3.442
  120POPC   C51 6239   1.002   1.661   3.293
  120POPC   C52 6240   0.874   1.664   3.210
  121POPC    C1 6241   6.111   1.977   5.181
  121POPC    C2 6242   6.138   1.880   5.399
  121POPC    C3 6243   6.296   1.834   5.227
  121POPC    N4 6244   6.209   1.938   5.284
  121POPC    C5 6245   6.295   2.052   5.324
  121POPC    C6 6246   6.231   2.182   5.380
  121POPC   OS7 6247   6.319   2.296   5.377
  121POPC    P8 6248   6.238   2.432   5.377
  121POPC   OM9 6249   6.140   2.423   5.486
  121POPC  OM10 6250   0.009   2.533   5.377
  121POPC  OS11 6251   6.170   2.421   5.236
  121POPC   C12 6252   6.261   2.460   5.132
  121POPC   C13 6253   6.218   2.409   4.993
  121POPC  OS14 6254   6.327   2.398   4.897
  121POPC   C15 6255   6.310   2.301   4.803
  121POPC   O16 6256   6.231   2.208   4.820
  121POPC   C17 6257   0.088   2.303   4.702
  121POPC   C18 6258   0.070   2.192   4.598
  121POPC   C19 6259   0.195   2.180   4.512
  121POPC   C20 6260   0.181   2.064   4.413
  121POPC   C21 6261   0.311   2.040   4.336
  121POPC   C22 6262   0.297   1.918   4.246
  121POPC   C23 6263   0.428   1.888   4.174
  121POPC   C24 6264   0.417   1.766   4.087
  121POPC   C25 6265   0.458   1.750   3.961
  121POPC   C26 6266   0.526   1.851   3.873
  121POPC   C27 6267   0.480   1.839   3.728
  121POPC   C28 6268   0.549   1.941   3.638
  121POPC   C29 6269   0.507   1.922   3.492
  121POPC   C30 6270   0.359   1.955   3.473
  121POPC   C31 6271   0.318   1.934   3.327
  121POPC   C32 6272   0.170   1.968   3.306
  121POPC   C33 6273   0.129   1.943   3.161
  121POPC   C34 6274   6.097   2.495   4.953
  121POPC  OS35 6275   6.123   2.636   4.939
  121POPC   C36 6276   6.011   2.711   4.921
  121POPC   O37 6277   5.899   2.662   4.910
  121POPC   C38 6278   6.046   2.858   4.904
  121POPC   C39 6279   6.107   2.881   4.766
  121POPC   C40 6280   6.159   3.024   4.750
  121POPC   C41 6281   6.231   3.034   4.616
  121POPC   C42 6282   6.311   3.164   4.603
  121POPC   C43 6283   0.072   3.153   4.485
  121POPC   C44 6284   6.331   3.131   4.354
  121POPC   C45 6285   0.093   3.118   4.237
  121POPC   C46 6286   0.170   2.986   4.241
  121POPC   C47 6287   0.272   2.980   4.127
  121POPC   C48 6288   0.342   2.844   4.119
  121POPC   C49 6289   0.428   2.816   4.242
  121POPC   C50 6290   0.550   2.908   4.249
  121POPC   C51 6291   0.634   2.875   4.372
  121POPC   C52 6292   0.555   2.901   4.500
  122POPC    C1 6293   2.400   3.526   5.726
  122POPC    C2 6294   2.223   3.673   5.781
  122POPC    C3 6295   2.450   3.754   5.772
  122POPC    N4 6296   2.351   3.664   5.710
  122POPC    C5 6297   2.337   3.690   5.565
  122POPC    C6 6298   2.282   3.828   5.518
  122POPC   OS7 6299   2.292   3.849   5.377
  122POPC    P8 6300   2.257   3.998   5.337
  122POPC   OM9 6301   2.257   4.083   5.456
  122POPC  OM10 6302   2.339   4.029   5.219
  122POPC  OS11 6303   2.105   3.975   5.298
  122POPC   C12 6304   2.085   3.966   5.157
  122POPC   C13 6305   1.936   3.958   5.119
  122POPC  OS14 6306   1.914   3.915   4.983
  122POPC   C15 6307   1.824   3.813   4.966
  122POPC   O16 6308   1.770   3.755   5.060
  122POPC   C17 6309   1.807   3.780   4.818
  122POPC   C18 6310   1.943   3.775   4.748
  122POPC   C19 6311   1.925   3.756   4.597
  122POPC   C20 6312   2.061   3.744   4.527
  122POPC   C21 6313   2.042   3.730   4.376
  122POPC   C22 6314   2.175   3.709   4.304
  122POPC   C23 6315   2.158   3.705   4.152
  122POPC   C24 6316   2.119   3.839   4.094
  122POPC   C25 6317   2.010   3.871   4.024
  122POPC   C26 6318   1.896   3.783   3.983
  122POPC   C27 6319   1.773   3.799   4.073
  122POPC   C28 6320   1.656   3.714   4.024
  122POPC   C29 6321   1.608   3.764   3.888
  122POPC   C30 6322   1.487   3.684   3.838
  122POPC   C31 6323   1.445   3.734   3.700
  122POPC   C32 6324   1.397   3.879   3.707
  122POPC   C33 6325   1.364   3.932   3.567
  122POPC   C34 6326   1.873   4.093   5.159
  122POPC  OS35 6327   1.905   4.209   5.079
  122POPC   C36 6328   1.806   4.251   4.997
  122POPC   O37 6329   1.689   4.212   5.004
  122POPC   C38 6330   1.851   4.372   4.916
  122POPC   C39 6331   1.737   4.423   4.827
  122POPC   C40 6332   1.775   4.554   4.757
  122POPC   C41 6333   1.887   4.534   4.655
  122POPC   C42 6334   1.921   4.666   4.585
  122POPC   C43 6335   2.033   4.647   4.483
  122POPC   C44 6336   2.063   4.775   4.406
  122POPC   C45 6337   2.177   4.751   4.307
  122POPC   C46 6338   2.202   4.873   4.218
  122POPC   C47 6339   2.083   4.899   4.126
  122POPC   C48 6340   2.113   5.014   4.029
  122POPC   C49 6341   1.994   5.039   3.936
  122POPC   C50 6342   2.024   5.150   3.835
  122POPC   C51 6343   2.126   5.103   3.730
  122POPC   C52 6344   2.066   4.997   3.638
  123POPC    C1 6345   2.098   2.309   5.195
  123POPC    C2 6346   2.264   2.455   5.111
  123POPC    C3 6347   2.108   2.354   4.962
  123POPC    N4 6348   2.124   2.414   5.095
  123POPC    C5 6349   2.035   2.531   5.111
  123POPC    C6 6350   1.881   2.512   5.120
  123POPC   OS7 6351   1.820   2.453   5.006
  123POPC    P8 6352   1.667   2.430   5.030
  123POPC   OM9 6353   1.661   2.333   5.140
  123POPC  OM10 6354   1.612   2.566   5.043
  123POPC  OS11 6355   1.631   2.360   4.894
  123POPC   C12 6356   1.599   2.453   4.791
  123POPC   C13 6357   1.707   2.467   4.682
  123POPC  OS14 6358   1.667   2.564   4.580
  123POPC   C15 6359   1.757   2.665   4.560
  123POPC   O16 6360   1.828   2.705   4.653
  123POPC   C17 6361   1.716   2.751   4.442
  123POPC   C18 6362   1.833   2.838   4.395
  123POPC   C19 6363   1.927   2.757   4.306
  123POPC   C20 6364   1.874   2.751   4.162
  123POPC   C21 6365   1.888   2.888   4.096
  123POPC   C22 6366   1.846   2.887   3.949
  123POPC   C23 6367   1.878   3.023   3.887
  123POPC   C24 6368   1.849   3.031   3.740
  123POPC   C25 6369   1.808   3.139   3.672
  123POPC   C26 6370   1.780   3.276   3.728
  123POPC   C27 6371   1.669   3.347   3.652
  123POPC   C28 6372   1.712   3.377   3.508
  123POPC   C29 6373   1.598   3.439   3.427
  123POPC   C30 6374   1.645   3.470   3.285
  123POPC   C31 6375   1.530   3.520   3.198
  123POPC   C32 6376   1.478   3.656   3.247
  123POPC   C33 6377   1.361   3.702   3.160
  123POPC   C34 6378   1.731   2.323   4.632
  123POPC  OS35 6379   1.844   2.297   4.547
  123POPC   C36 6380   1.903   2.176   4.565
  123POPC   O37 6381   1.888   2.108   4.667
  123POPC   C38 6382   2.010   2.149   4.461
  123POPC   C39 6383   1.962   2.173   4.317
  123POPC   C40 6384   2.075   2.144   4.218
  123POPC   C41 6385   2.031   2.168   4.074
  123POPC   C42 6386   2.146   2.142   3.976
  123POPC   C43 6387   2.102   2.165   3.831
  123POPC   C44 6388   2.219   2.141   3.736
  123POPC   C45 6389   2.184   2.172   3.590
  123POPC   C46 6390   2.308   2.154   3.501
  123POPC   C47 6391   2.278   2.191   3.356
  123POPC   C48 6392   2.404   2.177   3.270
  123POPC   C49 6393   2.376   2.217   3.125
  123POPC   C50 6394   2.501   2.203   3.038
  123POPC   C51 6395   2.473   2.244   2.893
  123POPC   C52 6396   2.441   2.393   2.883
  124POPC    C1 6397   1.933   3.046   5.628
  124POPC    C2 6398   1.730   3.041   5.748
  124POPC    C3 6399   1.902   3.181   5.826
  124POPC    N4 6400   1.839   3.129   5.704
  124POPC    C5 6401   1.783   3.236   5.618
  124POPC    C6 6402   1.868   3.359   5.579
  124POPC   OS7 6403   1.993   3.329   5.517
  124POPC    P8 6404   2.057   3.453   5.445
  124POPC   OM9 6405   2.034   3.573   5.525
  124POPC  OM10 6406   2.193   3.408   5.411
  124POPC  OS11 6407   1.974   3.457   5.313
  124POPC   C12 6408   2.023   3.560   5.227
  124POPC   C13 6409   2.097   3.512   5.101
  124POPC  OS14 6410   2.168   3.621   5.037
  124POPC   C15 6411   2.294   3.597   4.990
  124POPC   O16 6412   2.375   3.529   5.054
  124POPC   C17 6413   2.334   3.712   4.899
  124POPC   C18 6414   2.486   3.730   4.895
  124POPC   C19 6415   2.527   3.846   4.804
  124POPC   C20 6416   2.496   3.813   4.658
  124POPC   C21 6417   2.540   3.926   4.563
  124POPC   C22 6418   2.516   3.883   4.419
  124POPC   C23 6419   2.565   3.987   4.317
  124POPC   C24 6420   2.566   3.929   4.179
  124POPC   C25 6421   2.537   3.987   4.061
  124POPC   C26 6422   2.497   4.129   4.035
  124POPC   C27 6423   2.375   4.136   3.943
  124POPC   C28 6424   2.406   4.071   3.808
  124POPC   C29 6425   2.285   4.074   3.714
  124POPC   C30 6426   2.319   3.997   3.586
  124POPC   C31 6427   2.425   4.071   3.505
  124POPC   C32 6428   2.489   3.977   3.402
  124POPC   C33 6429   2.384   3.923   3.305
  124POPC   C34 6430   1.991   3.439   5.015
  124POPC  OS35 6431   2.029   3.414   4.879
  124POPC   C36 6432   1.941   3.352   4.796
  124POPC   O37 6433   1.833   3.302   4.830
  124POPC   C38 6434   1.996   3.349   4.654
  124POPC   C39 6435   1.893   3.302   4.551
  124POPC   C40 6436   1.961   3.282   4.416
  124POPC   C41 6437   1.863   3.237   4.307
  124POPC   C42 6438   1.775   3.353   4.261
  124POPC   C43 6439   1.673   3.309   4.155
  124POPC   C44 6440   1.568   3.215   4.215
  124POPC   C45 6441   1.454   3.191   4.116
  124POPC   C46 6442   1.499   3.105   3.998
  124POPC   C47 6443   1.390   3.094   3.892
  124POPC   C48 6444   1.435   3.003   3.777
  124POPC   C49 6445   1.334   3.001   3.663
  124POPC   C50 6446   1.332   3.135   3.588
  124POPC   C51 6447   1.238   3.128   3.468
  124POPC   C52 6448   1.093   3.108   3.512
  125POPC    C1 6449   2.572   1.490   4.893
  125POPC    C2 6450   2.487   1.541   4.675
  125POPC    C3 6451   2.378   1.381   4.811
  125POPC    N4 6452   2.451   1.508   4.813
  125POPC    C5 6453   2.361   1.610   4.872
  125POPC    C6 6454   2.416   1.751   4.904
  125POPC   OS7 6455   2.317   1.842   4.952
  125POPC    P8 6456   2.384   1.972   5.013
  125POPC   OM9 6457   2.273   2.051   5.069
  125POPC  OM10 6458   2.495   1.924   5.096
  125POPC  OS11 6459   2.439   2.038   4.882
  125POPC   C12 6460   2.335   2.097   4.803
  125POPC   C13 6461   2.388   2.179   4.684
  125POPC  OS14 6462   2.285   2.260   4.622
  125POPC   C15 6463   2.299   2.395   4.633
  125POPC   O16 6464   2.355   2.446   4.730
  125POPC   C17 6465   2.196   2.466   4.547
  125POPC   C18 6466   2.261   2.542   4.431
  125POPC   C19 6467   2.324   2.445   4.331
  125POPC   C20 6468   2.375   2.520   4.207
  125POPC   C21 6469   2.259   2.568   4.121
  125POPC   C22 6470   2.311   2.644   3.998
  125POPC   C23 6471   2.197   2.691   3.909
  125POPC   C24 6472   2.122   2.578   3.845
  125POPC   C25 6473   2.093   2.564   3.714
  125POPC   C26 6474   2.130   2.659   3.604
  125POPC   C27 6475   2.211   2.592   3.493
  125POPC   C28 6476   2.256   2.695   3.390
  125POPC   C29 6477   2.330   2.628   3.274
  125POPC   C30 6478   2.384   2.734   3.178
  125POPC   C31 6479   2.497   2.813   3.244
  125POPC   C32 6480   2.550   2.923   3.152
  125POPC   C33 6481   2.449   3.037   3.138
  125POPC   C34 6482   2.460   2.081   4.589
  125POPC  OS35 6483   2.380   1.973   4.538
  125POPC   C36 6484   2.418   1.928   4.415
  125POPC   O37 6485   2.513   1.972   4.351
  125POPC   C38 6486   2.329   1.812   4.371
  125POPC   C39 6487   2.332   1.794   4.220
  125POPC   C40 6488   2.252   1.669   4.181
  125POPC   C41 6489   2.254   1.643   4.030
  125POPC   C42 6490   2.162   1.740   3.956
  125POPC   C43 6491   2.163   1.711   3.806
  125POPC   C44 6492   2.298   1.749   3.743
  125POPC   C45 6493   2.302   1.712   3.595
  125POPC   C46 6494   2.432   1.760   3.531
  125POPC   C47 6495   2.445   1.710   3.387
  125POPC   C48 6496   2.467   1.559   3.385
  125POPC   C49 6497   2.481   1.506   3.242
  125POPC   C50 6498   2.501   1.355   3.243
  125POPC   C51 6499   2.514   1.300   3.101
  125POPC   C52 6500   2.532   1.148   3.102
  126POPC    C1 6501   1.493   2.837   4.849
  126POPC    C2 6502   1.608   3.023   4.754
  126POPC    C3 6503   1.532   3.028   4.983
  126POPC    N4 6504   1.590   2.944   4.877
  126POPC    C5 6505   1.717   2.881   4.918
  126POPC    C6 6506   1.835   2.973   4.957
  126POPC   OS7 6507   1.957   2.903   4.986
  126POPC    P8 6508   2.070   3.002   5.033
  126POPC   OM9 6509   2.007   3.103   5.120
  126POPC  OM10 6510   2.178   2.917   5.083
  126POPC  OS11 6511   2.103   3.056   4.888
  126POPC   C12 6512   2.239   3.036   4.851
  126POPC   C13 6513   2.281   3.074   4.707
  126POPC  OS14 6514   2.297   3.217   4.689
  126POPC   C15 6515   2.406   3.257   4.619
  126POPC   O16 6516   2.497   3.179   4.590
  126POPC   C17 6517   2.414   3.408   4.605
  126POPC   C18 6518   2.526   3.448   4.509
  126POPC   C19 6519   2.482   3.440   4.363
  126POPC   C20 6520   2.603   3.441   4.268
  126POPC   C21 6521   2.686   3.569   4.282
  126POPC   C22 6522   2.808   3.564   4.191
  126POPC   C23 6523   2.892   3.692   4.201
  126POPC   C24 6524   3.012   3.687   4.111
  126POPC   C25 6525   3.036   3.762   4.002
  126POPC   C26 6526   2.950   3.870   3.943
  126POPC   C27 6527   3.030   3.962   3.851
  126POPC   C28 6528   3.070   3.892   3.721
  126POPC   C29 6529   2.951   3.883   3.624
  126POPC   C30 6530   2.992   3.815   3.494
  126POPC   C31 6531   2.878   3.820   3.391
  126POPC   C32 6532   2.920   3.756   3.259
  126POPC   C33 6533   2.812   3.774   3.152
  126POPC   C34 6534   2.186   2.998   4.611
  126POPC  OS35 6535   2.209   3.010   4.469
  126POPC   C36 6536   2.316   2.945   4.413
  126POPC   O37 6537   2.387   2.863   4.471
  126POPC   C38 6538   2.328   2.977   4.264
  126POPC   C39 6539   2.289   3.122   4.233
  126POPC   C40 6540   2.327   3.160   4.090
  126POPC   C41 6541   2.255   3.072   3.988
  126POPC   C42 6542   2.272   3.121   3.845
  126POPC   C43 6543   2.417   3.112   3.796
  126POPC   C44 6544   2.424   3.157   3.650
  126POPC   C45 6545   2.567   3.164   3.596
  126POPC   C46 6546   2.631   3.025   3.581
  126POPC   C47 6547   2.764   3.038   3.505
  126POPC   C48 6548   2.830   2.902   3.480
  126POPC   C49 6549   2.900   2.849   3.605
  126POPC   C50 6550   3.028   2.929   3.633
  126POPC   C51 6551   3.103   2.872   3.753
  126POPC   C52 6552   3.229   2.954   3.782
  127POPC    C1 6553   4.511   3.128   5.580
  127POPC    C2 6554   4.552   3.165   5.349
  127POPC    C3 6555   4.705   3.035   5.480
  127POPC    N4 6556   4.563   3.066   5.457
  127POPC    C5 6557   4.484   2.943   5.430
  127POPC    C6 6558   4.519   2.854   5.308
  127POPC   OS7 6559   4.479   2.902   5.180
  127POPC    P8 6560   4.526   2.805   5.065
  127POPC   OM9 6561   4.562   2.673   5.118
  127POPC  OM10 6562   4.437   2.819   4.950
  127POPC  OS11 6563   4.662   2.879   5.038
  127POPC   C12 6564   4.653   2.974   4.932
  127POPC   C13 6565   4.772   3.072   4.929
  127POPC  OS14 6566   4.754   3.180   4.833
  127POPC   C15 6567   4.847   3.280   4.834
  127POPC   O16 6568   4.916   3.304   4.933
  127POPC   C17 6569   4.831   3.372   4.715
  127POPC   C18 6570   4.834   3.518   4.762
  127POPC   C19 6571   4.833   3.615   4.644
  127POPC   C20 6572   4.971   3.622   4.578
  127POPC   C21 6573   4.970   3.727   4.467
  127POPC   C22 6574   5.112   3.755   4.417
  127POPC   C23 6575   5.168   3.639   4.334
  127POPC   C24 6576   5.311   3.665   4.296
  127POPC   C25 6577   5.362   3.706   4.179
  127POPC   C26 6578   5.290   3.736   4.051
  127POPC   C27 6579   5.373   3.690   3.930
  127POPC   C28 6580   5.506   3.765   3.927
  127POPC   C29 6581   5.591   3.724   3.807
  127POPC   C30 6582   5.635   3.578   3.818
  127POPC   C31 6583   5.728   3.541   3.702
  127POPC   C32 6584   5.654   3.547   3.568
  127POPC   C33 6585   5.748   3.512   3.453
  127POPC   C34 6586   4.898   2.984   4.914
  127POPC  OS35 6587   4.912   2.912   4.790
  127POPC   C36 6588   5.036   2.859   4.770
  127POPC   O37 6589   5.129   2.869   4.851
  127POPC   C38 6590   5.048   2.794   4.634
  127POPC   C39 6591   5.190   2.815   4.583
  127POPC   C40 6592   5.211   2.768   4.439
  127POPC   C41 6593   5.199   2.616   4.428
  127POPC   C42 6594   5.252   2.569   4.293
  127POPC   C43 6595   5.405   2.584   4.288
  127POPC   C44 6596   5.459   2.557   4.148
  127POPC   C45 6597   5.612   2.563   4.145
  127POPC   C46 6598   5.662   2.557   4.001
  127POPC   C47 6599   5.632   2.689   3.930
  127POPC   C48 6600   5.668   2.683   3.781
  127POPC   C49 6601   5.571   2.594   3.704
  127POPC   C50 6602   5.601   2.596   3.554
  127POPC   C51 6603   5.567   2.731   3.492
  127POPC   C52 6604   5.416   2.754   3.486
  128POPC    C1 6605   3.884   3.368   5.397
  128POPC    C2 6606   3.732   3.397   5.577
  128POPC    C3 6607   3.908   3.238   5.596
  128POPC    N4 6608   3.872   3.371   5.544
  128POPC    C5 6609   3.956   3.475   5.607
  128POPC    C6 6610   4.108   3.482   5.578
  128POPC   OS7 6611   4.139   3.533   5.448
  128POPC    P8 6612   4.295   3.536   5.426
  128POPC   OM9 6613   4.334   3.642   5.520
  128POPC  OM10 6614   4.331   3.394   5.437
  128POPC  OS11 6615   4.285   3.590   5.279
  128POPC   C12 6616   4.284   3.487   5.180
  128POPC   C13 6617   4.263   3.541   5.038
  128POPC  OS14 6618   4.261   3.437   4.936
  128POPC   C15 6619   4.152   3.445   4.854
  128POPC   O16 6620   4.055   3.514   4.885
  128POPC   C17 6621   4.153   3.341   4.743
  128POPC   C18 6622   4.290   3.316   4.681
  128POPC   C19 6623   4.338   3.431   4.591
  128POPC   C20 6624   4.456   3.383   4.506
  128POPC   C21 6625   4.511   3.493   4.415
  128POPC   C22 6626   4.594   3.431   4.303
  128POPC   C23 6627   4.652   3.537   4.209
  128POPC   C24 6628   4.675   3.481   4.071
  128POPC   C25 6629   4.784   3.425   4.017
  128POPC   C26 6630   4.919   3.399   4.077
  128POPC   C27 6631   5.031   3.422   3.975
  128POPC   C28 6632   5.011   3.332   3.853
  128POPC   C29 6633   5.121   3.350   3.749
  128POPC   C30 6634   5.087   3.272   3.622
  128POPC   C31 6635   5.195   3.283   3.515
  128POPC   C32 6636   5.320   3.204   3.553
  128POPC   C33 6637   5.426   3.210   3.443
  128POPC   C34 6638   4.373   3.646   5.016
  128POPC  OS35 6639   4.350   3.739   4.908
  128POPC   C36 6640   4.459   3.772   4.834
  128POPC   O37 6641   4.573   3.732   4.859
  128POPC   C38 6642   4.425   3.879   4.731
  128POPC   C39 6643   4.491   3.854   4.596
  128POPC   C40 6644   4.492   3.983   4.513
  128POPC   C41 6645   4.528   3.958   4.367
  128POPC   C42 6646   4.410   3.893   4.294
  128POPC   C43 6647   4.438   3.879   4.144
  128POPC   C44 6648   4.320   3.814   4.073
  128POPC   C45 6649   4.346   3.798   3.923
  128POPC   C46 6650   4.350   3.934   3.853
  128POPC   C47 6651   4.370   3.917   3.703
  128POPC   C48 6652   4.372   4.052   3.631
  128POPC   C49 6653   4.394   4.032   3.481
  128POPC   C50 6654   4.391   4.166   3.406
  128POPC   C51 6655   4.412   4.143   3.256
  128POPC   C52 6656   4.295   4.066   3.195
  129SOL     OW 6657   3.389   2.667   5.526
  129SOL    HW1 6658   3.294   2.697   5.525
  129SOL    HW2 6659   3.449   2.745   5.510
  130SOL     OW 6660   3.536   1.991   0.467
  130SOL    HW1 6661   3.461   2.057   0.457
  130SOL    HW2 6662   3.623   2.035   0.444
  131SOL     OW 6663   3.239   6.010   6.445
  131SOL    HW1 6664   3.336   6.031   6.452
  131SOL    HW2 6665   3.218   5.980   6.352
  132SOL     OW 6666   0.366   0.447   0.002
  132SOL    HW1 6667   0.424   0.514   6.525
  132SOL    HW2 6668   0.279   0.490   0.028
  133SOL     OW 6669   1.945   1.262   0.103
  133SOL    HW1 6670   1.878   1.188   0.096
  133SOL    HW2 6671   1.934   1.309   0.190
  134SOL     OW 6672   1.146   3.614   0.599
  134SOL    HW1 6673   1.092   3.564   0.666
  134SOL    HW2 6674   1.231   3.565   0.580
  135SOL     OW 6675   2.593   2.705   5.999
  135SOL    HW1 6676   2.687   2.696   6.033
  135SOL    HW2 6677   2.584   2.793   5.952
  136SOL     OW 6678   2.551   5.387   6.208
  136SOL    HW1 6679   2.476   5.335   6.166
  136SOL    HW2 6680   2.602   5.435   6.137
  137SOL     OW 6681   0.259   6.075   0.386
  137SOL    HW1 6682   0.273   5.980   0.361
  137SOL    HW2 6683   0.186   6.114   0.329
  138SOL     OW 6684   4.621   3.523   5.311
  138SOL    HW1 6685   4.633   3.619   5.285
  138SOL    HW2 6686   4.690   3.467   5.267
  139SOL     OW 6687   1.661   3.116   0.555
  139SOL    HW1 6688   1.573   3.144   0.516
  139SOL    HW2 6689   1.676   3.166   0.640
  140SOL     OW 6690   5.868   0.901   5.582
  140SOL    HW1 6691   5.957   0.946   5.567
  140SOL    HW2 6692   5.872   0.849   5.667
  141SOL     OW 6693   4.964   2.762   0.792
  141SOL    HW1 6694   4.932   2.780   0.885
  141SOL    HW2 6695   5.056   2.724   0.795
  142SOL     OW 6696   5.089   1.966   6.146
  142SOL    HW1 6697   5.098   1.941   6.243
  142SOL    HW2 6698   5.172   2.015   6.117
  143SOL     OW 6699   4.028   4.527   0.914
  143SOL    HW1 6700   4.061   4.538   0.820
  143SOL    HW2 6701   4.106   4.534   0.977
  144SOL     OW 6702   1.356   1.561   5.731
  144SOL    HW1 6703   1.259   1.539   5.718
  144SOL    HW2 6704   1.368   1.604   5.820
  145SOL     OW 6705   6.214   1.728   4.902
  145SOL    HW1 6706   6.257   1.819   4.900
  145SOL    HW2 6707   6.115   1.738   4.911
  146SOL     OW 6708   3.450   3.435   6.216
  146SOL    HW1 6709   3.364   3.485   6.228
  146SOL    HW2 6710   3.500   3.433   6.303
  147SOL     OW 6711   3.112   4.900   0.771
  147SOL    HW1 6712   3.210   4.887   0.789
  147SOL    HW2 6713   3.098   4.910   0.673
  148SOL     OW 6714   0.658   5.622   5.693
  148SOL    HW1 6715   0.737   5.575   5.655
  148SOL    HW2 6716   0.598   5.652   5.620
  149SOL     OW 6717   4.552   0.777   5.107
  149SOL    HW1 6718   4.457   0.802   5.092
  149SOL    HW2 6719   4.566   0.681   5.082
  150SOL     OW 6720   5.168   0.424   1.256
  150SOL    HW1 6721   5.263   0.432   1.286
  150SOL    HW2 6722   5.111   0.395   1.333
  151SOL     OW 6723   0.422   1.690   0.603
  151SOL    HW1 6724   0.519   1.680   0.624
  151SOL    HW2 6725   0.367   1.670   0.684
  152SOL     OW 6726   5.953   5.645   0.628
  152SOL    HW1 6727   6.050   5.639   0.606
  152SOL    HW2 6728   5.905   5.689   0.551
  153SOL     OW 6729   3.103   3.321   4.576
  153SOL    HW1 6730   3.162   3.251   4.616
  153SOL    HW2 6731   3.070   3.382   4.648
  154SOL     OW 6732   0.027   0.701   5.766
  154SOL    HW1 6733   0.001   0.607   5.744
  154SOL    HW2 6734   0.101   0.700   5.834
  155SOL     OW 6735   4.528   1.194   6.546
  155SOL    HW1 6736   4.434   1.226   6.547
  155SOL    HW2 6737   4.568   1.210   6.456
  156SOL     OW 6738   4.244   4.737   5.618
  156SOL    HW1 6739   4.275   4.668   5.552
  156SOL    HW2 6740   4.152   4.767   5.594
  157SOL     OW 6741   0.327   0.788   5.577
  157SOL    HW1 6742   0.419   0.823   5.561
  157SOL    HW2 6743   0.284   0.766   5.490
  158SOL     OW 6744   4.079   6.311   0.283
  158SOL    HW1 6745   4.041   6.344   0.370
  158SOL    HW2 6746   4.167   6.267   0.300
  159SOL     OW 6747   4.731   0.142   5.348
  159SOL    HW1 6748   4.648   0.148   5.293
  159SOL    HW2 6749   4.803   0.097   5.296
  160SOL     OW 6750   2.684   5.491   5.995
  160SOL    HW1 6751   2.613   5.510   5.928
  160SOL    HW2 6752   2.742   5.417   5.962
  161SOL     OW 6753   4.056   1.492   5.608
  161SOL    HW1 6754   4.117   1.460   5.536
  161SOL    HW2 6755   4.083   1.453   5.696
  162SOL     OW 6756   5.297   0.977   1.874
  162SOL    HW1 6757   5.217   0.975   1.935
  162SOL    HW2 6758   5.344   1.064   1.884
  163SOL     OW 6759   0.627   0.480   0.401
  163SOL    HW1 6760   0.570   0.433   0.333
  163SOL    HW2 6761   0.640   0.421   0.480
  164SOL     OW 6762   0.138   0.268   0.997
  164SOL    HW1 6763   0.180   0.225   1.078
  164SOL    HW2 6764   0.186   0.353   0.976
  165SOL     OW 6765   1.264   1.265   5.455
  165SOL    HW1 6766   1.183   1.265   5.396
  165SOL    HW2 6767   1.244   1.214   5.539
  166SOL     OW 6768   4.583   4.523   6.240
  166SOL    HW1 6769   4.519   4.482   6.176
  166SOL    HW2 6770   4.557   4.618   6.256
  167SOL     OW 6771   1.803   5.366   0.452
  167SOL    HW1 6772   1.761   5.364   0.543
  167SOL    HW2 6773   1.763   5.439   0.398
  168SOL     OW 6774   2.517   3.369   1.207
  168SOL    HW1 6775   2.438   3.330   1.160
  168SOL    HW2 6776   2.564   3.433   1.146
  169SOL     OW 6777   3.852   3.435   5.036
  169SOL    HW1 6778   3.929   3.476   4.988
  169SOL    HW2 6779   3.863   3.335   5.038
  170SOL     OW 6780   0.458   0.335   0.236
  170SOL    HW1 6781   0.467   0.235   0.228
  170SOL    HW2 6782   0.428   0.372   0.148
  171SOL     OW 6783   3.853   0.434   6.073
  171SOL    HW1 6784   3.820   0.359   6.016
  171SOL    HW2 6785   3.948   0.417   6.098
  172SOL     OW 6786   5.137   0.179   5.515
  172SOL    HW1 6787   5.110   0.254   5.454
  172SOL    HW2 6788   5.104   0.092   5.478
  173SOL     OW 6789   1.533   6.314   0.497
  173SOL    HW1 6790   1.623   6.273   0.479
  173SOL    HW2 6791   1.540   6.378   0.573
  174SOL     OW 6792   1.423   4.001   6.463
  174SOL    HW1 6793   1.416   4.101   6.465
  174SOL    HW2 6794   1.332   3.962   6.475
  175SOL     OW 6795   1.485   3.679   0.884
  175SOL    HW1 6796   1.484   3.579   0.890
  175SOL    HW2 6797   1.541   3.707   0.807
  176SOL     OW 6798   1.085   0.960   0.400
  176SOL    HW1 6799   1.114   0.864   0.404
  176SOL    HW2 6800   1.165   1.018   0.389
  177SOL     OW 6801   3.417   5.570   0.099
  177SOL    HW1 6802   3.456   5.657   0.129
  177SOL    HW2 6803   3.333   5.552   0.150
  178SOL     OW 6804   1.831   2.120   5.164
  178SOL    HW1 6805   1.878   2.105   5.077
  178SOL    HW2 6806   1.770   2.198   5.156
  179SOL     OW 6807   3.886   0.356   1.705
  179SOL    HW1 6808   3.960   0.405   1.658
  179SOL    HW2 6809   3.908   0.348   1.802
  180SOL     OW 6810   3.437   0.764   0.472
  180SOL    HW1 6811   3.383   0.721   0.544
  180SOL    HW2 6812   3.424   0.715   0.386
  181SOL     OW 6813   2.693   1.242   5.679
  181SOL    HW1 6814   2.719   1.222   5.585
  181SOL    HW2 6815   2.775   1.260   5.733
  182SOL     OW 6816   3.659   4.552   0.419
  182SOL    HW1 6817   3.732   4.518   0.477
  182SOL    HW2 6818   3.577   4.496   0.431
  183SOL     OW 6819   1.352   6.293   6.404
  183SOL    HW1 6820   1.345   6.391   6.388
  183SOL    HW2 6821   1.384   6.247   6.321
  184SOL     OW 6822   0.433   1.467   6.553
  184SOL    HW1 6823   0.352   1.462   6.495
  184SOL    HW2 6824   0.499   1.531   6.513
  185SOL     OW 6825   3.232   1.439   6.509
  185SOL    HW1 6826   3.218   1.427   6.410
  185SOL    HW2 6827   3.213   1.534   6.534
  186SOL     OW 6828   6.030   2.810   1.035
  186SOL    HW1 6829   6.046   2.813   1.134
  186SOL    HW2 6830   6.051   2.718   1.001
  187SOL     OW 6831   3.446   5.397   5.976
  187SOL    HW1 6832   3.537   5.402   6.016
  187SOL    HW2 6833   3.440   5.318   5.915
  188SOL     OW 6834   1.998   2.445   1.100
  188SOL    HW1 6835   1.981   2.354   1.137
  188SOL    HW2 6836   1.985   2.513   1.172
  189SOL     OW 6837   3.259   5.073   1.401
  189SOL    HW1 6838   3.278   5.031   1.490
  189SOL    HW2 6839   3.211   5.007   1.344
  190SOL     OW 6840   3.224   2.467   0.827
  190SOL    HW1 6841   3.285   2.475   0.748
  190SOL    HW2 6842   3.277   2.480   0.911
  191SOL     OW 6843   4.860   6.024   5.564
  191SOL    HW1 6844   4.881   6.052   5.470
  191SOL    HW2 6845   4.892   6.093   5.628
  192SOL     OW 6846   4.776   1.729   5.825
  192SOL    HW1 6847   4.857   1.740   5.884
  192SOL    HW2 6848   4.803   1.684   5.740
  193SOL     OW 6849   2.093   2.267   0.789
  193SOL    HW1 6850   2.127   2.204   0.719
  193SOL    HW2 6851   2.073   2.216   0.873
  194SOL     OW 6852   0.252   0.150   6.098
  194SOL    HW1 6853   0.246   0.115   6.191
  194SOL    HW2 6854   0.324   0.220   6.093
  195SOL     OW 6855   6.022   5.309   0.206
  195SOL    HW1 6856   5.946   5.244   0.216
  195SOL    HW2 6857   5.987   5.402   0.208
  196SOL     OW 6858   2.873   6.117   4.945
  196SOL    HW1 6859   2.804   6.161   4.888
  196SOL    HW2 6860   2.952   6.093   4.889
  197SOL     OW 6861   3.817   4.780   4.732
  197SOL    HW1 6862   3.812   4.880   4.729
  197SOL    HW2 6863   3.912   4.751   4.723
  198SOL     OW 6864   4.619   1.537   5.946
  198SOL    HW1 6865   4.673   1.605   5.897
  198SOL    HW2 6866   4.573   1.581   6.024
  199SOL     OW 6867   3.736   2.090   6.348
  199SOL    HW1 6868   3.808   2.105   6.416
  199SOL    HW2 6869   3.752   2.005   6.299
  200SOL     OW 6870   3.473   1.215   0.937
  200SOL    HW1 6871   3.566   1.246   0.957
  200SOL    HW2 6872   3.412   1.243   1.012
  201SOL     OW 6873   5.648   2.991   6.058
  201SOL    HW1 6874   5.586   3.029   5.989
  201SOL    HW2 6875   5.656   3.056   6.134
  202SOL     OW 6876   0.666   0.663   5.111
  202SOL    HW1 6877   0.598   0.695   5.045
  202SOL    HW2 6878   0.678   0.732   5.182
  203SOL     OW 6879   2.252   3.743   0.029
  203SOL    HW1 6880   2.223   3.784   0.115
  203SOL    HW2 6881   2.337   3.785   6.568
  204SOL     OW 6882   4.455   5.119   5.656
  204SOL    HW1 6883   4.541   5.079   5.689
  204SOL    HW2 6884   4.473   5.208   5.615
  205SOL     OW 6885   5.974   5.505   5.997
  205SOL    HW1 6886   5.877   5.520   5.979
  205SOL    HW2 6887   6.029   5.555   5.930
  206SOL     OW 6888   5.269   3.347   5.298
  206SOL    HW1 6889   5.225   3.324   5.211
  206SOL    HW2 6890   5.203   3.388   5.360
  207SOL     OW 6891   1.990   0.445   1.568
  207SOL    HW1 6892   2.067   0.482   1.620
  207SOL    HW2 6893   1.904   0.467   1.615
  208SOL     OW 6894   4.411   6.227   6.023
  208SOL    HW1 6895   4.342   6.202   6.091
  208SOL    HW2 6896   4.484   6.158   6.023
  209SOL     OW 6897   2.798   3.815   0.347
  209SOL    HW1 6898   2.710   3.809   0.300
  209SOL    HW2 6899   2.786   3.861   0.435
  210SOL     OW 6900   3.070   4.075   4.819
  210SOL    HW1 6901   3.163   4.112   4.806
  210SOL    HW2 6902   3.017   4.091   4.736
  211SOL     OW 6903   4.710   4.244   5.092
  211SOL    HW1 6904   4.652   4.171   5.128
  211SOL    HW2 6905   4.679   4.270   5.001
  212SOL     OW 6906   6.276   1.543   5.401
  212SOL    HW1 6907   0.005   1.591   5.460
  212SOL    HW2 6908   6.327   1.497   5.327
  213SOL     OW 6909   5.042   0.638   0.123
  213SOL    HW1 6910   5.073   0.579   0.197
  213SOL    HW2 6911   4.949   0.671   0.143
  214SOL     OW 6912   2.986   0.594   1.595
  214SOL    HW1 6913   3.024   0.515   1.644
  214SOL    HW2 6914   3.060   0.643   1.548
  215SOL     OW 6915   1.337   4.935   0.274
  215SOL    HW1 6916   1.387   4.853   0.302
  215SOL    HW2 6917   1.272   4.911   0.201
  216SOL     OW 6918   4.898   6.017   0.674
  216SOL    HW1 6919   4.918   6.020   0.576
  216SOL    HW2 6920   4.820   6.076   0.694
  217SOL     OW 6921   5.561   4.307   6.479
  217SOL    HW1 6922   5.519   4.246   6.411
  217SOL    HW2 6923   5.491   4.336   6.545
  218SOL     OW 6924   4.907   0.730   0.431
  218SOL    HW1 6925   5.006   0.737   0.422
  218SOL    HW2 6926   4.864   0.753   0.344
  219SOL     OW 6927   0.511   2.237   6.495
  219SOL    HW1 6928   0.497   2.249   6.397
  219SOL    HW2 6929   0.497   2.140   6.519
  220SOL     OW 6930   4.120   0.413   6.130
  220SOL    HW1 6931   4.165   0.392   6.217
  220SOL    HW2 6932   4.122   0.512   6.114
  221SOL     OW 6933   5.295   5.375   6.398
  221SOL    HW1 6934   5.257   5.413   6.483
  221SOL    HW2 6935   5.348   5.445   6.351
  222SOL     OW 6936   1.609   4.908   5.688
  222SOL    HW1 6937   1.644   4.820   5.719
  222SOL    HW2 6938   1.654   4.933   5.602
  223SOL     OW 6939   4.321   3.107   5.117
  223SOL    HW1 6940   4.379   3.165   5.059
  223SOL    HW2 6941   4.369   3.021   5.135
  224SOL     OW 6942   3.314   6.373   0.401
  224SOL    HW1 6943   3.344   6.299   0.460
  224SOL    HW2 6944   3.255   0.031   0.453
  225SOL     OW 6945   4.292   5.001   0.873
  225SOL    HW1 6946   4.255   5.088   0.841
  225SOL    HW2 6947   4.312   5.008   0.971
  226SOL     OW 6948   4.252   0.414   6.366
  226SOL    HW1 6949   4.326   0.354   6.397
  226SOL    HW2 6950   4.237   0.485   6.434
  227SOL     OW 6951   4.238   1.583   6.076
  227SOL    HW1 6952   4.211   1.563   5.982
  227SOL    HW2 6953   4.304   1.515   6.107
  228SOL     OW 6954   3.710   2.209   0.119
  228SOL    HW1 6955   3.641   2.143   0.089
  228SOL    HW2 6956   3.686   2.300   0.085
  229SOL     OW 6957   3.016   5.004   5.361
  229SOL    HW1 6958   3.092   5.060   5.395
  229SOL    HW2 6959   2.951   5.062   5.312
  230SOL     OW 6960   3.599   2.000   4.998
  230SOL    HW1 6961   3.638   2.064   5.064
  230SOL    HW2 6962   3.642   2.014   4.909
  231SOL     OW 6963   2.446   6.142   0.605
  231SOL    HW1 6964   2.496   6.059   0.579
  231SOL    HW2 6965   2.508   6.220   0.601
  232SOL     OW 6966   1.534   2.367   6.168
  232SOL    HW1 6967   1.445   2.346   6.128
  232SOL    HW2 6968   1.524   2.383   6.267
  233SOL     OW 6969   5.850   5.225   6.285
  233SOL    HW1 6970   5.950   5.219   6.294
  233SOL    HW2 6971   5.811   5.133   6.280
  234SOL     OW 6972   0.052   5.825   1.245
  234SOL    HW1 6973   6.320   5.788   1.310
  234SOL    HW2 6974   0.144   5.810   1.280
  235SOL     OW 6975   1.789   0.619   6.011
  235SOL    HW1 6976   1.863   0.662   5.960
  235SOL    HW2 6977   1.822   0.590   6.101
  236SOL     OW 6978   4.750   5.499   0.087
  236SOL    HW1 6979   4.810   5.451   0.022
  236SOL    HW2 6980   4.664   5.449   0.097
  237SOL     OW 6981   5.730   4.730   1.634
  237SOL    HW1 6982   5.716   4.806   1.697
  237SOL    HW2 6983   5.686   4.648   1.670
  238SOL     OW 6984   0.385   2.963   0.569
  238SOL    HW1 6985   0.375   2.998   0.476
  238SOL    HW2 6986   0.470   2.911   0.577
  239SOL     OW 6987   2.363   0.378   6.183
  239SOL    HW1 6988   2.443   0.421   6.224
  239SOL    HW2 6989   2.368   0.386   6.084
  240SOL     OW 6990   3.482   0.087   1.354
  240SOL    HW1 6991   3.523   0.174   1.328
  240SOL    HW2 6992   3.459   0.035   1.271
  241SOL     OW 6993   5.670   3.188   6.249
  241SOL    HW1 6994   5.601   3.212   6.317
  241SOL    HW2 6995   5.689   3.267   6.191
  242SOL     OW 6996   4.179   0.807   0.772
  242SOL    HW1 6997   4.264   0.780   0.726
  242SOL    HW2 6998   4.112   0.733   0.766
  243SOL     OW 6999   1.297   0.155   6.067
  243SOL    HW1 7000   1.370   0.202   6.017
  243SOL    HW2 7001   1.229   0.121   6.002
  244SOL     OW 7002   4.061   4.960   6.290
  244SOL    HW1 7003   4.036   4.923   6.201
  244SOL    HW2 7004   3.980   4.961   6.350
  245SOL     OW 7005   3.155   3.728   5.213
  245SOL    HW1 7006   3.245   3.685   5.227
  245SOL    HW2 7007   3.160   3.789   5.133
  246SOL     OW 7008   6.129   0.615   6.029
  246SOL    HW1 7009   6.061   0.638   6.098
  246SOL    HW2 7010   6.155   0.698   5.980
  247SOL     OW 7011   2.902   4.470   6.339
  247SOL    HW1 7012   2.857   4.556   6.363
  247SOL    HW2 7013   2.839   4.412   6.288
  248SOL     OW 7014   1.310   4.962   6.010
  248SOL    HW1 7015   1.344   4.874   6.041
  248SOL    HW2 7016   1.338   4.977   5.915
  249SOL     OW 7017   1.590   3.022   0.877
  249SOL    HW1 7018   1.567   3.035   0.973
  249SOL    HW2 7019   1.642   3.101   0.843
  250SOL     OW 7020   4.118   1.051   1.511
  250SOL    HW1 7021   4.041   1.039   1.574
  250SOL    HW2 7022   4.197   0.999   1.545
  251SOL     OW 7023   3.939   0.077   1.698
  251SOL    HW1 7024   3.912   0.172   1.712
  251SOL    HW2 7025   4.039   0.071   1.701
  252SOL     OW 7026   0.223   0.689   0.391
  252SOL    HW1 7027   0.221   0.740   0.477
  252SOL    HW2 7028   0.219   0.753   0.315
  253SOL     OW 7029   5.800   4.754   1.375
  253SOL    HW1 7030   5.893   4.720   1.362
  253SOL    HW2 7031   5.776   4.750   1.472
  254SOL     OW 7032   5.608   3.371   1.045
  254SOL    HW1 7033   5.552   3.438   0.996
  254SOL    HW2 7034   5.582   3.370   1.141
  255SOL     OW 7035   1.113   4.127   5.859
  255SOL    HW1 7036   1.206   4.142   5.826
  255SOL    HW2 7037   1.048   4.147   5.785
  256SOL     OW 7038   5.980   0.367   6.444
  256SOL    HW1 7039   5.970   0.326   6.535
  256SOL    HW2 7040   5.910   0.330   6.383
  257SOL     OW 7041   2.215   1.338   0.706
  257SOL    HW1 7042   2.251   1.247   0.728
  257SOL    HW2 7043   2.142   1.361   0.769
  258SOL     OW 7044   1.243   4.196   6.092
  258SOL    HW1 7045   1.190   4.185   6.008
  258SOL    HW2 7046   1.205   4.137   6.163
  259SOL     OW 7047   4.748   4.700   1.443
  259SOL    HW1 7048   4.823   4.643   1.408
  259SOL    HW2 7049   4.725   4.671   1.536
  260SOL     OW 7050   3.363   0.878   6.521
  260SOL    HW1 7051   3.387   0.958   0.006
  260SOL    HW2 7052   3.316   0.906   6.438
  261SOL     OW 7053   5.193   4.593   0.173
  261SOL    HW1 7054   5.133   4.545   0.238
  261SOL    HW2 7055   5.220   4.681   0.212
  262SOL     OW 7056   2.574   1.001   0.003
  262SOL    HW1 7057   2.586   0.999   6.473
  262SOL    HW2 7058   2.479   0.981   0.025
  263SOL     OW 7059   5.418   3.867   5.833
  263SOL    HW1 7060   5.399   3.768   5.832
  263SOL    HW2 7061   5.463   3.893   5.748
  264SOL     OW 7062   2.841   3.774   5.101
  264SOL    HW1 7063   2.832   3.706   5.028
  264SOL    HW2 7064   2.858   3.864   5.061
  265SOL     OW 7065   4.847   3.728   5.552
  265SOL    HW1 7066   4.801   3.778   5.479
  265SOL    HW2 7067   4.946   3.725   5.533
  266SOL     OW 7068   3.153   0.212   0.135
  266SOL    HW1 7069   3.146   0.242   0.040
  266SOL    HW2 7070   3.247   0.187   0.156
  267SOL     OW 7071   2.877   0.404   0.742
  267SOL    HW1 7072   2.841   0.357   0.662
  267SOL    HW2 7073   2.812   0.397   0.817
  268SOL     OW 7074   1.871   2.424   0.743
  268SOL    HW1 7075   1.953   2.380   0.780
  268SOL    HW2 7076   1.898   2.499   0.682
  269SOL     OW 7077   5.419   0.103   0.461
  269SOL    HW1 7078   5.492   0.066   0.404
  269SOL    HW2 7079   5.444   0.095   0.557
  270SOL     OW 7080   1.423   6.393   0.260
  270SOL    HW1 7081   1.459   6.367   0.350
  270SOL    HW2 7082   1.328   6.364   0.252
  271SOL     OW 7083   1.874   2.230   0.544
  271SOL    HW1 7084   1.884   2.302   0.612
  271SOL    HW2 7085   1.779   2.225   0.515
  272SOL     OW 7086   1.110   1.827   0.324
  272SOL    HW1 7087   1.176   1.902   0.327
  272SOL    HW2 7088   1.154   1.742   0.352
  273SOL     OW 7089   2.918   3.400   1.703
  273SOL    HW1 7090   2.929   3.450   1.788
  273SOL    HW2 7091   2.856   3.450   1.643
  274SOL     OW 7092   4.751   2.623   0.667
  274SOL    HW1 7093   4.775   2.601   0.573
  274SOL    HW2 7094   4.829   2.664   0.713
  275SOL     OW 7095   1.575   4.328   5.817
  275SOL    HW1 7096   1.507   4.398   5.839
  275SOL    HW2 7097   1.642   4.365   5.753
  276SOL     OW 7098   5.058   2.552   0.533
  276SOL    HW1 7099   5.108   2.628   0.492
  276SOL    HW2 7100   4.968   2.545   0.491
  277SOL     OW 7101   5.748   2.474   5.018
  277SOL    HW1 7102   5.787   2.552   4.969
  277SOL    HW2 7103   5.792   2.465   5.108
  278SOL     OW 7104   5.014   2.400   5.455
  278SOL    HW1 7105   4.973   2.341   5.524
  278SOL    HW2 7106   5.036   2.489   5.497
  279SOL     OW 7107   0.420   6.210   6.314
  279SOL    HW1 7108   0.403   6.163   6.227
  279SOL    HW2 7109   0.517   6.237   6.319
  280SOL     OW 7110   1.362   4.344   1.017
  280SOL    HW1 7111   1.368   4.430   1.068
  280SOL    HW2 7112   1.419   4.350   0.935
  281SOL     OW 7113   1.377   2.519   0.100
  281SOL    HW1 7114   1.305   2.459   0.135
  281SOL    HW2 7115   1.438   2.545   0.175
  282SOL     OW 7116   3.528   5.177   0.391
  282SOL    HW1 7117   3.571   5.267   0.384
  282SOL    HW2 7118   3.568   5.127   0.467
  283SOL     OW 7119   0.857   1.903   5.916
  283SOL    HW1 7120   0.798   1.876   5.992
  283SOL    HW2 7121   0.952   1.879   5.937
  284SOL     OW 7122   2.602   4.167   0.029
  284SOL    HW1 7123   2.643   4.136   6.513
  284SOL    HW2 7124   2.504   4.147   0.028
  285SOL     OW 7125   3.403   3.379   5.728
  285SOL    HW1 7126   3.480   3.335   5.775
  285SOL    HW2 7127   3.331   3.311   5.712
  286SOL     OW 7128   2.649   6.265   0.987
  286SOL    HW1 7129   2.550   6.267   0.973
  286SOL    HW2 7130   2.691   6.208   0.917
  287SOL     OW 7131   1.884   3.771   5.647
  287SOL    HW1 7132   1.882   3.848   5.583
  287SOL    HW2 7133   1.937   3.696   5.607
  288SOL     OW 7134   2.497   1.711   0.523
  288SOL    HW1 7135   2.464   1.762   0.444
  288SOL    HW2 7136   2.455   1.620   0.524
  289SOL     OW 7137   5.992   2.097   4.885
  289SOL    HW1 7138   6.079   2.131   4.850
  289SOL    HW2 7139   5.991   1.997   4.881
  290SOL     OW 7140   4.640   4.271   5.599
  290SOL    HW1 7141   4.698   4.297   5.521
  290SOL    HW2 7142   4.648   4.172   5.613
  291SOL     OW 7143   0.908   3.515   6.283
  291SOL    HW1 7144   0.863   3.440   6.234
  291SOL    HW2 7145   0.986   3.547   6.229
  292SOL     OW 7146   4.159   5.900   1.095
  292SOL    HW1 7147   4.094   5.825   1.107
  292SOL    HW2 7148   4.125   5.964   1.026
  293SOL     OW 7149   0.717   2.269   1.552
  293SOL    HW1 7150   0.657   2.194   1.578
  293SOL    HW2 7151   0.715   2.340   1.623
  294SOL     OW 7152   1.208   6.388   1.099
  294SOL    HW1 7153   1.117   6.356   1.126
  294SOL    HW2 7154   1.243   0.046   1.168
  295SOL     OW 7155   1.183   5.454   5.899
  295SOL    HW1 7156   1.141   5.476   5.987
  295SOL    HW2 7157   1.173   5.531   5.837
  296SOL     OW 7158   5.248   3.803   0.815
  296SOL    HW1 7159   5.164   3.751   0.827
  296SOL    HW2 7160   5.327   3.744   0.832
  297SOL     OW 7161   4.376   0.260   1.358
  297SOL    HW1 7162   4.440   0.184   1.351
  297SOL    HW2 7163   4.362   0.284   1.454
  298SOL     OW 7164   2.106   0.459   5.892
  298SOL    HW1 7165   2.200   0.431   5.908
  298SOL    HW2 7166   2.044   0.385   5.918
  299SOL     OW 7167   2.915   0.081   0.168
  299SOL    HW1 7168   2.906   0.006   0.101
  299SOL    HW2 7169   3.003   0.126   0.155
  300SOL     OW 7170   4.679   5.613   0.727
  300SOL    HW1 7171   4.705   5.550   0.653
  300SOL    HW2 7172   4.757   5.670   0.751
  301SOL     OW 7173   2.019   0.722   5.897
  301SOL    HW1 7174   2.100   0.781   5.890
  301SOL    HW2 7175   2.047   0.626   5.893
  302SOL     OW 7176   3.361   3.952   6.554
  302SOL    HW1 7177   3.399   4.003   6.477
  302SOL    HW2 7178   3.283   4.002   0.022
  303SOL     OW 7179   5.570   2.477   5.832
  303SOL    HW1 7180   5.664   2.462   5.800
  303SOL    HW2 7181   5.510   2.410   5.790
  304SOL     OW 7182   4.659   5.282   6.273
  304SOL    HW1 7183   4.677   5.289   6.175
  304SOL    HW2 7184   4.597   5.355   6.301
  305SOL     OW 7185   1.154   2.838   5.637
  305SOL    HW1 7186   1.088   2.849   5.563
  305SOL    HW2 7187   1.122   2.767   5.700
  306SOL     OW 7188   2.371   0.731   6.415
  306SOL    HW1 7189   2.308   0.662   6.449
  306SOL    HW2 7190   2.464   0.710   6.446
  307SOL     OW 7191   5.758   5.993   6.270
  307SOL    HW1 7192   5.741   5.981   6.172
  307SOL    HW2 7193   5.814   5.918   6.304
  308SOL     OW 7194   4.339   6.374   5.319
  308SOL    HW1 7195   4.298   0.005   5.403
  308SOL    HW2 7196   4.412   6.309   5.343
  309SOL     OW 7197   5.255   4.855   0.273
  309SOL    HW1 7198   5.295   4.927   0.330
  309SOL    HW2 7199   5.234   4.892   0.182
  310SOL     OW 7200   2.040   1.557   5.908
  310SOL    HW1 7201   2.081   1.581   5.819
  310SOL    HW2 7202   1.952   1.603   5.917
  311SOL     OW 7203   2.859   2.349   0.575
  311SOL    HW1 7204   2.922   2.275   0.553
  311SOL    HW2 7205   2.775   2.340   0.521
  312SOL     OW 7206   6.212   6.236   0.776
  312SOL    HW1 7207   6.232   6.232   0.873
  312SOL    HW2 7208   6.291   6.204   0.724
  313SOL     OW 7209   3.344   3.509   0.585
  313SOL    HW1 7210   3.340   3.578   0.513
  313SOL    HW2 7211   3.436   3.507   0.625
  314SOL     OW 7212   0.138   3.799   1.285
  314SOL    HW1 7213   0.193   3.739   1.343
  314SOL    HW2 7214   0.153   3.894   1.313
  315SOL     OW 7215   2.635   1.915   5.740
  315SOL    HW1 7216   2.560   1.981   5.735
  315SOL    HW2 7217   2.721   1.961   5.719
  316SOL     OW 7218   4.906   3.760   2.356
  316SOL    HW1 7219   4.872   3.676   2.315
  316SOL    HW2 7220   4.980   3.738   2.419
  317SOL     OW 7221   4.223   4.186   5.760
  317SOL    HW1 7222   4.279   4.251   5.707
  317SOL    HW2 7223   4.265   4.171   5.849
  318SOL     OW 7224   3.922   1.000   1.701
  318SOL    HW1 7225   3.832   1.042   1.706
  318SOL    HW2 7226   3.966   1.002   1.791
  319SOL     OW 7227   0.062   5.492   1.478
  319SOL    HW1 7228   0.113   5.526   1.556
  319SOL    HW2 7229   0.001   5.564   1.443
  320SOL     OW 7230   3.214   3.945   1.387
  320SOL    HW1 7231   3.152   4.012   1.428
  320SOL    HW2 7232   3.251   3.885   1.457
  321SOL     OW 7233   4.452   2.399   0.275
  321SOL    HW1 7234   4.540   2.352   0.278
  321SOL    HW2 7235   4.382   2.342   0.316
  322SOL     OW 7236   3.280   1.710   1.633
  322SOL    HW1 7237   3.214   1.635   1.638
  322SOL    HW2 7238   3.352   1.696   1.701
  323SOL     OW 7239   6.310   1.978   4.923
  323SOL    HW1 7240   6.281   2.064   4.880
  323SOL    HW2 7241   0.075   1.977   4.931
  324SOL     OW 7242   3.560   6.214   5.219
  324SOL    HW1 7243   3.591   6.136   5.165
  324SOL    HW2 7244   3.460   6.215   5.222
  325SOL     OW 7245   1.323   5.442   6.243
  325SOL    HW1 7246   1.347   5.353   6.206
  325SOL    HW2 7247   1.345   5.445   6.340
  326SOL     OW 7248   3.772   3.534   6.285
  326SOL    HW1 7249   3.698   3.520   6.351
  326SOL    HW2 7250   3.822   3.448   6.272
  327SOL     OW 7251   5.242   1.628   0.555
  327SOL    HW1 7252   5.319   1.626   0.619
  327SOL    HW2 7253   5.157   1.640   0.605
  328SOL     OW 7254   2.221   3.210   5.941
  328SOL    HW1 7255   2.172   3.291   5.975
  328SOL    HW2 7256   2.213   3.206   5.841
  329SOL     OW 7257   4.389   1.611   0.165
  329SOL    HW1 7258   4.455   1.549   0.122
  329SOL    HW2 7259   4.309   1.559   0.195
  330SOL     OW 7260   3.448   0.369   0.356
  330SOL    HW1 7261   3.442   0.288   0.299
  330SOL    HW2 7262   3.533   0.367   0.410
  331SOL     OW 7263   2.701   3.882   6.222
  331SOL    HW1 7264   2.710   3.958   6.286
  331SOL    HW2 7265   2.757   3.805   6.254
  332SOL     OW 7266   2.952   3.523   5.272
  332SOL    HW1 7267   2.852   3.529   5.275
  332SOL    HW2 7268   2.989   3.613   5.248
  333SOL     OW 7269   2.667   0.866   1.697
  333SOL    HW1 7270   2.731   0.936   1.728
  333SOL    HW2 7271   2.579   0.879   1.743
  334SOL     OW 7272   1.021   3.114   5.333
  334SOL    HW1 7273   1.120   3.108   5.344
  334SOL    HW2 7274   0.999   3.162   5.249
  335SOL     OW 7275   0.031   2.151   5.884
  335SOL    HW1 7276   0.106   2.123   5.824
  335SOL    HW2 7277   0.067   2.170   5.976
  336SOL     OW 7278   4.105   5.039   0.194
  336SOL    HW1 7279   4.101   5.137   0.175
  336SOL    HW2 7280   4.200   5.009   0.197
  337SOL     OW 7281   2.725   4.656   0.860
  337SOL    HW1 7282   2.784   4.576   0.853
  337SOL    HW2 7283   2.698   4.670   0.956
  338SOL     OW 7284   3.330   5.573   0.962
  338SOL    HW1 7285   3.381   5.544   1.043
  338SOL    HW2 7286   3.256   5.508   0.944
  339SOL     OW 7287   3.187   6.015   5.081
  339SOL    HW1 7288   3.281   5.984   5.064
  339SOL    HW2 7289   3.145   6.043   4.994
  340SOL     OW 7290   4.078   4.698   4.730
  340SOL    HW1 7291   4.167   4.741   4.745
  340SOL    HW2 7292   4.087   4.598   4.736
  341SOL     OW 7293   2.926   3.125   0.609
  341SOL    HW1 7294   2.933   3.205   0.669
  341SOL    HW2 7295   2.997   3.058   0.634
  342SOL     OW 7296   2.894   0.070   6.156
  342SOL    HW1 7297   2.929   0.054   6.064
  342SOL    HW2 7298   2.826   0.143   6.153
  343SOL     OW 7299   2.125   3.584   6.414
  343SOL    HW1 7300   2.167   3.644   6.482
  343SOL    HW2 7301   2.045   3.628   6.375
  344SOL     OW 7302   2.286   4.717   0.255
  344SOL    HW1 7303   2.277   4.618   0.240
  344SOL    HW2 7304   2.262   4.738   0.350
  345SOL     OW 7305   4.592   0.620   1.224
  345SOL    HW1 7306   4.649   0.606   1.306
  345SOL    HW2 7307   4.571   0.717   1.215
  346SOL     OW 7308   0.705   2.068   1.176
  346SOL    HW1 7309   0.714   1.973   1.205
  346SOL    HW2 7310   0.752   2.127   1.241
  347SOL     OW 7311   0.496   2.048   0.990
  347SOL    HW1 7312   0.525   1.960   0.952
  347SOL    HW2 7313   0.553   2.070   1.070
  348SOL     OW 7314   2.765   4.705   6.383
  348SOL    HW1 7315   2.737   4.773   6.315
  348SOL    HW2 7316   2.784   4.750   6.470
  349SOL     OW 7317   3.643   1.805   6.054
  349SOL    HW1 7318   3.723   1.750   6.036
  349SOL    HW2 7319   3.664   1.902   6.038
  350SOL     OW 7320   0.436   1.873   0.197
  350SOL    HW1 7321   0.382   1.911   0.273
  350SOL    HW2 7322   0.531   1.903   0.207
  351SOL     OW 7323   0.716   1.762   5.732
  351SOL    HW1 7324   0.706   1.667   5.762
  351SOL    HW2 7325   0.772   1.812   5.797
  352SOL     OW 7326   2.671   1.479   1.452
  352SOL    HW1 7327   2.584   1.525   1.470
  352SOL    HW2 7328   2.742   1.517   1.510
  353SOL     OW 7329   1.481   5.849   0.255
  353SOL    HW1 7330   1.508   5.836   0.351
  353SOL    HW2 7331   1.551   5.900   0.207
  354SOL     OW 7332   4.755   3.699   0.042
  354SOL    HW1 7333   4.714   3.613   0.014
  354SOL    HW2 7334   4.840   3.681   0.092
  355SOL     OW 7335   5.900   6.359   5.991
  355SOL    HW1 7336   5.987   6.334   6.032
  355SOL    HW2 7337   5.916   0.004   5.906
  356SOL     OW 7338   1.819   4.641   6.021
  356SOL    HW1 7339   1.777   4.671   5.936
  356SOL    HW2 7340   1.840   4.543   6.016
  357SOL     OW 7341   2.414   0.649   5.351
  357SOL    HW1 7342   2.457   0.731   5.314
  357SOL    HW2 7343   2.339   0.675   5.412
  358SOL     OW 7344   4.459   1.375   5.776
  358SOL    HW1 7345   4.516   1.425   5.841
  358SOL    HW2 7346   4.516   1.316   5.720
  359SOL     OW 7347   4.604   4.806   0.266
  359SOL    HW1 7348   4.672   4.877   0.286
  359SOL    HW2 7349   4.598   4.744   0.344
  360SOL     OW 7350   1.438   0.276   5.579
  360SOL    HW1 7351   1.339   0.283   5.565
  360SOL    HW2 7352   1.459   0.195   5.633
  361SOL     OW 7353   0.506   5.345   0.610
  361SOL    HW1 7354   0.466   5.426   0.568
  361SOL    HW2 7355   0.553   5.291   0.540
  362SOL     OW 7356   0.621   2.390   1.185
  362SOL    HW1 7357   0.539   2.339   1.211
  362SOL    HW2 7358   0.701   2.349   1.228
  363SOL     OW 7359   1.147   3.088   4.950
  363SOL    HW1 7360   1.097   3.002   4.939
  363SOL    HW2 7361   1.204   3.104   4.868
  364SOL     OW 7362   3.396   3.144   1.332
  364SOL    HW1 7363   3.364   3.161   1.426
  364SOL    HW2 7364   3.419   3.047   1.322
  365SOL     OW 7365   2.599   0.904   5.510
  365SOL    HW1 7366   2.578   0.901   5.413
  365SOL    HW2 7367   2.698   0.912   5.522
  366SOL     OW 7368   3.558   4.307   6.027
  366SOL    HW1 7369   3.565   4.263   5.938
  366SOL    HW2 7370   3.464   4.340   6.041
  367SOL     OW 7371   3.020   6.060   5.371
  367SOL    HW1 7372   3.001   6.117   5.291
  367SOL    HW2 7373   2.949   5.990   5.379
  368SOL     OW 7374   2.597   4.024   0.887
  368SOL    HW1 7375   2.515   3.977   0.853
  368SOL    HW2 7376   2.650   3.960   0.942
  369SOL     OW 7377   2.245   4.819   0.519
  369SOL    HW1 7378   2.233   4.915   0.546
  369SOL    HW2 7379   2.322   4.780   0.570
  370SOL     OW 7380   0.083   6.059   5.389
  370SOL    HW1 7381   0.079   5.961   5.411
  370SOL    HW2 7382   6.325   6.096   5.386
  371SOL     OW 7383   2.680   5.619   0.947
  371SOL    HW1 7384   2.763   5.570   0.923
  371SOL    HW2 7385   2.679   5.708   0.900
  372SOL     OW 7386   1.739   2.238   5.768
  372SOL    HW1 7387   1.710   2.210   5.860
  372SOL    HW2 7388   1.789   2.163   5.725
  373SOL     OW 7389   0.034   3.968   5.786
  373SOL    HW1 7390   6.316   3.986   5.870
  373SOL    HW2 7391   6.311   3.918   5.721
  374SOL     OW 7392   2.003   5.395   6.372
  374SOL    HW1 7393   1.918   5.344   6.382
  374SOL    HW2 7394   2.077   5.348   6.420
  375SOL     OW 7395   3.532   1.759   0.847
  375SOL    HW1 7396   3.504   1.697   0.920
  375SOL    HW2 7397   3.630   1.778   0.854
  376SOL     OW 7398   5.974   1.301   0.929
  376SOL    HW1 7399   5.935   1.336   1.013
  376SOL    HW2 7400   6.040   1.228   0.950
  377SOL     OW 7401   0.248   1.099   0.643
  377SOL    HW1 7402   0.254   1.162   0.565
  377SOL    HW2 7403   0.340   1.084   0.680
  378SOL     OW 7404   4.398   4.327   0.048
  378SOL    HW1 7405   4.339   4.395   0.006
  378SOL    HW2 7406   4.360   4.300   0.136
  379SOL     OW 7407   1.374   5.808   1.088
  379SOL    HW1 7408   1.395   5.712   1.070
  379SOL    HW2 7409   1.275   5.822   1.081
  380SOL     OW 7410   6.080   5.689   4.710
  380SOL    HW1 7411   6.092   5.638   4.795
  380SOL    HW2 7412   5.985   5.723   4.705
  381SOL     OW 7413   5.310   0.268   0.858
  381SOL    HW1 7414   5.354   0.272   0.948
  381SOL    HW2 7415   5.316   0.358   0.814
  382SOL     OW 7416   5.891   2.109   0.622
  382SOL    HW1 7417   5.931   2.038   0.679
  382SOL    HW2 7418   5.909   2.199   0.662
  383SOL     OW 7419   5.818   6.132   0.893
  383SOL    HW1 7420   5.897   6.127   0.955
  383SOL    HW2 7421   5.781   6.040   0.881
  384SOL     OW 7422   4.874   5.366   5.817
  384SOL    HW1 7423   4.924   5.302   5.875
  384SOL    HW2 7424   4.925   5.451   5.808
  385SOL     OW 7425   5.914   4.802   5.829
  385SOL    HW1 7426   5.815   4.796   5.818
  385SOL    HW2 7427   5.959   4.792   5.740
  386SOL     OW 7428   5.211   2.618   0.750
  386SOL    HW1 7429   5.134   2.586   0.695
  386SOL    HW2 7430   5.297   2.600   0.702
  387SOL     OW 7431   5.046   4.488   0.999
  387SOL    HW1 7432   5.049   4.584   0.972
  387SOL    HW2 7433   5.135   4.446   0.982
  388SOL     OW 7434   2.716   3.494   5.572
  388SOL    HW1 7435   2.763   3.580   5.591
  388SOL    HW2 7436   2.693   3.489   5.475
  389SOL     OW 7437   3.364   1.742   0.219
  389SOL    HW1 7438   3.450   1.719   0.265
  389SOL    HW2 7439   3.345   1.839   0.233
  390SOL     OW 7440   5.379   5.762   6.440
  390SOL    HW1 7441   5.412   5.691   6.378
  390SOL    HW2 7442   5.432   5.846   6.428
  391SOL     OW 7443   5.660   3.944   6.183
  391SOL    HW1 7444   5.725   3.998   6.130
  391SOL    HW2 7445   5.568   3.959   6.148
  392SOL     OW 7446   3.671   3.018   5.699
  392SOL    HW1 7447   3.627   2.979   5.618
  392SOL    HW2 7448   3.761   2.976   5.711
  393SOL     OW 7449   5.634   1.035   5.621
  393SOL    HW1 7450   5.561   0.973   5.594
  393SOL    HW2 7451   5.723   0.994   5.602
  394SOL     OW 7452   4.078   5.813   5.592
  394SOL    HW1 7453   4.113   5.755   5.518
  394SOL    HW2 7454   4.155   5.856   5.640
  395SOL     OW 7455   5.429   3.568   0.913
  395SOL    HW1 7456   5.404   3.518   0.830
  395SOL    HW2 7457   5.357   3.558   0.982
  396SOL     OW 7458   4.959   1.269   1.826
  396SOL    HW1 7459   4.930   1.351   1.875
  396SOL    HW2 7460   4.880   1.227   1.781
  397SOL     OW 7461   2.233   0.692   0.170
  397SOL    HW1 7462   2.217   0.632   0.248
  397SOL    HW2 7463   2.225   0.639   0.085
  398SOL     OW 7464   2.991   0.865   4.844
  398SOL    HW1 7465   3.064   0.886   4.779
  398SOL    HW2 7466   2.948   0.951   4.874
  399SOL     OW 7467   1.537   2.006   1.103
  399SOL    HW1 7468   1.632   2.021   1.077
  399SOL    HW2 7469   1.532   1.980   1.199
  400SOL     OW 7470   6.033   4.691   0.503
  400SOL    HW1 7471   6.040   4.724   0.409
  400SOL    HW2 7472   5.958   4.737   0.549
  401SOL     OW 7473   1.535   4.063   5.174
  401SOL    HW1 7474   1.576   4.108   5.095
  401SOL    HW2 7475   1.469   3.994   5.143
  402SOL     OW 7476   5.597   1.572   5.531
  402SOL    HW1 7477   5.624   1.501   5.466
  402SOL    HW2 7478   5.615   1.662   5.492
  403SOL     OW 7479   4.830   1.858   0.016
  403SOL    HW1 7480   4.810   1.888   6.493
  403SOL    HW2 7481   4.866   1.764   0.014
  404SOL     OW 7482   1.252   0.856   5.675
  404SOL    HW1 7483   1.221   0.776   5.623
  404SOL    HW2 7484   1.351   0.850   5.688
  405SOL     OW 7485   5.735   4.422   6.303
  405SOL    HW1 7486   5.687   4.489   6.246
  405SOL    HW2 7487   5.670   4.380   6.366
  406SOL     OW 7488   4.917   5.752   0.755
  406SOL    HW1 7489   4.904   5.850   0.742
  406SOL    HW2 7490   4.965   5.714   0.676
  407SOL     OW 7491   4.007   0.791   0.288
  407SOL    HW1 7492   3.913   0.823   0.283
  407SOL    HW2 7493   4.054   0.810   0.202
  408SOL     OW 7494   4.434   6.206   5.747
  408SOL    HW1 7495   4.469   6.294   5.715
  408SOL    HW2 7496   4.414   6.213   5.845
  409SOL     OW 7497   1.970   5.960   0.563
  409SOL    HW1 7498   1.900   6.009   0.615
  409SOL    HW2 7499   2.051   6.017   0.554
  410SOL     OW 7500   1.989   2.400   6.212
  410SOL    HW1 7501   1.953   2.411   6.304
  410SOL    HW2 7502   1.943   2.464   6.150
  411SOL     OW 7503   3.988   1.298   5.314
  411SOL    HW1 7504   3.987   1.326   5.218
  411SOL    HW2 7505   4.069   1.334   5.359
  412SOL     OW 7506   5.420   4.166   6.285
  412SOL    HW1 7507   5.345   4.163   6.351
  412SOL    HW2 7508   5.406   4.094   6.216
  413SOL     OW 7509   1.638   5.307   6.136
  413SOL    HW1 7510   1.662   5.309   6.233
  413SOL    HW2 7511   1.548   5.267   6.124
  414SOL     OW 7512   5.653   2.704   0.888
  414SOL    HW1 7513   5.558   2.732   0.876
  414SOL    HW2 7514   5.705   2.780   0.928
  415SOL     OW 7515   0.283   5.237   6.160
  415SOL    HW1 7516   0.323   5.145   6.158
  415SOL    HW2 7517   0.308   5.282   6.246
  416SOL     OW 7518   3.873   0.801   5.411
  416SOL    HW1 7519   3.791   0.763   5.369
  416SOL    HW2 7520   3.952   0.784   5.352
  417SOL     OW 7521   4.207   3.230   0.475
  417SOL    HW1 7522   4.287   3.230   0.534
  417SOL    HW2 7523   4.130   3.271   0.524
  418SOL     OW 7524   5.964   2.370   1.084
  418SOL    HW1 7525   6.038   2.323   1.131
  418SOL    HW2 7526   5.907   2.417   1.152
  419SOL     OW 7527   4.080   3.176   5.211
  419SOL    HW1 7528   4.170   3.151   5.174
  419SOL    HW2 7529   4.013   3.177   5.136
  420SOL     OW 7530   2.489   5.144   5.908
  420SOL    HW1 7531   2.445   5.201   5.977
  420SOL    HW2 7532   2.427   5.071   5.880
  421SOL     OW 7533   5.723   0.274   0.265
  421SOL    HW1 7534   5.652   0.277   0.194
  421SOL    HW2 7535   5.710   0.350   0.328
  422SOL     OW 7536   1.073   5.495   6.148
  422SOL    HW1 7537   1.015   5.416   6.166
  422SOL    HW2 7538   1.162   5.482   6.193
  423SOL     OW 7539   4.956   1.925   1.076
  423SOL    HW1 7540   4.935   2.022   1.064
  423SOL    HW2 7541   4.871   1.872   1.072
  424SOL     OW 7542   5.772   0.578   6.012
  424SOL    HW1 7543   5.673   0.589   6.019
  424SOL    HW2 7544   5.816   0.632   6.084
  425SOL     OW 7545   2.131   4.446   6.057
  425SOL    HW1 7546   2.152   4.382   6.131
  425SOL    HW2 7547   2.179   4.532   6.074
  426SOL     OW 7548   0.564   5.355   5.295
  426SOL    HW1 7549   0.478   5.362   5.244
  426SOL    HW2 7550   0.613   5.443   5.289
  427SOL     OW 7551   6.250   0.783   6.331
  427SOL    HW1 7552   6.174   0.723   6.356
  427SOL    HW2 7553   0.001   0.733   6.341
  428SOL     OW 7554   6.159   5.022   0.705
  428SOL    HW1 7555   6.251   4.987   0.688
  428SOL    HW2 7556   6.129   4.994   0.796
  429SOL     OW 7557   5.348   3.060   0.797
  429SOL    HW1 7558   5.335   3.086   0.892
  429SOL    HW2 7559   5.446   3.062   0.774
  430SOL     OW 7560   0.136   4.687   6.089
  430SOL    HW1 7561   0.214   4.650   6.040
  430SOL    HW2 7562   0.082   4.745   6.028
  431SOL     OW 7563   1.283   3.088   0.289
  431SOL    HW1 7564   1.221   3.010   0.300
  431SOL    HW2 7565   1.334   3.078   0.204
  432SOL     OW 7566   3.202   0.902   5.778
  432SOL    HW1 7567   3.232   0.825   5.833
  432SOL    HW2 7568   3.248   0.900   5.689
  433SOL     OW 7569   4.215   2.001   6.524
  433SOL    HW1 7570   4.140   1.941   6.495
  433SOL    HW2 7571   4.238   2.065   6.451
  434SOL     OW 7572   3.712   0.220   5.661
  434SOL    HW1 7573   3.729   0.143   5.599
  434SOL    HW2 7574   3.619   0.216   5.695
  435SOL     OW 7575   0.530   6.064   0.153
  435SOL    HW1 7576   0.513   6.139   0.218
  435SOL    HW2 7577   0.580   5.991   0.198
  436SOL     OW 7578   3.823   6.015   6.208
  436SOL    HW1 7579   3.844   5.918   6.193
  436SOL    HW2 7580   3.881   6.071   6.148
  437SOL     OW 7581   2.655   3.064   6.199
  437SOL    HW1 7582   2.696   3.154   6.216
  437SOL    HW2 7583   2.556   3.070   6.215
  438SOL     OW 7584   1.615   1.305   6.016
  438SOL    HW1 7585   1.644   1.259   5.932
  438SOL    HW2 7586   1.522   1.338   6.006
  439SOL     OW 7587   4.705   0.852   5.321
  439SOL    HW1 7588   4.804   0.843   5.305
  439SOL    HW2 7589   4.656   0.825   5.238
  440SOL     OW 7590   5.067   1.815   1.769
  440SOL    HW1 7591   5.014   1.781   1.846
  440SOL    HW2 7592   5.151   1.858   1.802
  441SOL     OW 7593   0.765   1.840   0.010
  441SOL    HW1 7594   0.726   1.907   0.073
  441SOL    HW2 7595   0.836   1.787   0.057
  442SOL     OW 7596   0.395   6.227   5.684
  442SOL    HW1 7597   0.316   6.184   5.730
  442SOL    HW2 7598   0.453   6.156   5.644
  443SOL     OW 7599   2.647   3.465   0.109
  443SOL    HW1 7600   2.555   3.499   0.130
  443SOL    HW2 7601   2.661   3.376   0.154
  444SOL     OW 7602   2.983   0.037   5.896
  444SOL    HW1 7603   3.049   6.367   5.885
  444SOL    HW2 7604   2.909   0.026   5.830
  445SOL     OW 7605   1.449   1.463   5.495
  445SOL    HW1 7606   1.386   1.390   5.468
  445SOL    HW2 7607   1.418   1.503   5.581
  446SOL     OW 7608   5.919   4.016   5.278
  446SOL    HW1 7609   5.881   4.014   5.186
  446SOL    HW2 7610   6.003   4.070   5.277
  447SOL     OW 7611   0.621   5.709   5.945
  447SOL    HW1 7612   0.637   5.680   5.851
  447SOL    HW2 7613   0.638   5.632   6.007
  448SOL     OW 7614   4.566   3.658   0.612
  448SOL    HW1 7615   4.591   3.645   0.516
  448SOL    HW2 7616   4.570   3.570   0.659
  449SOL     OW 7617   4.803   0.774   0.185
  449SOL    HW1 7618   4.810   0.873   0.173
  449SOL    HW2 7619   4.707   0.745   0.175
  450SOL     OW 7620   3.584   6.134   1.036
  450SOL    HW1 7621   3.582   6.094   1.128
  450SOL    HW2 7622   3.650   6.085   0.980
  451SOL     OW 7623   4.872   4.566   1.818
  451SOL    HW1 7624   4.795   4.593   1.761
  451SOL    HW2 7625   4.958   4.580   1.768
  452SOL     OW 7626   0.206   3.807   0.286
  452SOL    HW1 7627   0.277   3.779   0.350
  452SOL    HW2 7628   0.200   3.907   0.285
  453SOL     OW 7629   2.764   2.674   5.653
  453SOL    HW1 7630   2.667   2.683   5.677
  453SOL    HW2 7631   2.776   2.597   5.591
  454SOL     OW 7632   3.312   2.436   0.332
  454SOL    HW1 7633   3.216   2.445   0.307
  454SOL    HW2 7634   3.370   2.458   0.253
  455SOL     OW 7635   3.777   1.212   5.458
  455SOL    HW1 7636   3.809   1.164   5.540
  455SOL    HW2 7637   3.856   1.243   5.405
  456SOL     OW 7638   5.671   0.193   5.752
  456SOL    HW1 7639   5.662   0.285   5.715
  456SOL    HW2 7640   5.639   0.126   5.685
  457SOL     OW 7641   2.840   1.659   6.524
  457SOL    HW1 7642   2.905   1.729   6.554
  457SOL    HW2 7643   2.781   1.633   0.031
  458SOL     OW 7644   3.182   0.510   5.701
  458SOL    HW1 7645   3.140   0.443   5.762
  458SOL    HW2 7646   3.118   0.585   5.685
  459SOL     OW 7647   3.685   0.377   6.510
  459SOL    HW1 7648   3.722   0.432   6.436
  459SOL    HW2 7649   3.658   0.436   0.016
  460SOL     OW 7650   1.376   0.476   1.054
  460SOL    HW1 7651   1.340   0.536   0.982
  460SOL    HW2 7652   1.432   0.531   1.117
  461SOL     OW 7653   4.208   0.082   0.994
  461SOL    HW1 7654   4.269   0.008   1.023
  461SOL    HW2 7655   4.199   0.149   1.068
  462SOL     OW 7656   1.261   2.936   6.193
  462SOL    HW1 7657   1.168   2.962   6.218
  462SOL    HW2 7658   1.301   2.880   6.266
  463SOL     OW 7659   3.892   1.104   0.440
  463SOL    HW1 7660   3.829   1.134   0.513
  463SOL    HW2 7661   3.973   1.063   0.481
  464SOL     OW 7662   1.300   2.018   0.360
  464SOL    HW1 7663   1.332   2.051   0.449
  464SOL    HW2 7664   1.343   2.071   0.287
  465SOL     OW 7665   4.903   2.358   0.842
  465SOL    HW1 7666   4.830   2.337   0.778
  465SOL    HW2 7667   4.877   2.436   0.899
  466SOL     OW 7668   3.144   4.987   0.066
  466SOL    HW1 7669   3.177   5.080   0.050
  466SOL    HW2 7670   3.102   4.952   6.552
  467SOL     OW 7671   3.632   6.122   0.547
  467SOL    HW1 7672   3.658   6.159   0.457
  467SOL    HW2 7673   3.534   6.137   0.562
  468SOL     OW 7674   5.472   1.151   0.033
  468SOL    HW1 7675   5.423   1.164   0.119
  468SOL    HW2 7676   5.507   1.057   0.028
  469SOL     OW 7677   1.526   6.342   1.694
  469SOL    HW1 7678   1.531   6.279   1.772
  469SOL    HW2 7679   1.435   6.386   1.693
  470SOL     OW 7680   5.952   3.419   5.658
  470SOL    HW1 7681   5.951   3.396   5.561
  470SOL    HW2 7682   5.901   3.504   5.673
  471SOL     OW 7683   5.382   1.659   1.854
  471SOL    HW1 7684   5.335   1.746   1.866
  471SOL    HW2 7685   5.477   1.668   1.885
  472SOL     OW 7686   4.138   1.616   6.347
  472SOL    HW1 7687   4.124   1.536   6.406
  472SOL    HW2 7688   4.160   1.586   6.254
  473SOL     OW 7689   3.860   5.904   1.218
  473SOL    HW1 7690   3.920   5.909   1.297
  473SOL    HW2 7691   3.770   5.938   1.242
  474SOL     OW 7692   5.586   4.228   6.027
  474SOL    HW1 7693   5.541   4.228   6.116
  474SOL    HW2 7694   5.674   4.181   6.033
  475SOL     OW 7695   2.448   5.405   5.333
  475SOL    HW1 7696   2.519   5.352   5.379
  475SOL    HW2 7697   2.412   5.354   5.255
  476SOL     OW 7698   0.217   3.378   0.694
  476SOL    HW1 7699   0.204   3.327   0.779
  476SOL    HW2 7700   0.144   3.447   0.685
  477SOL     OW 7701   1.587   2.781   5.208
  477SOL    HW1 7702   1.669   2.790   5.265
  477SOL    HW2 7703   1.597   2.702   5.148
  478SOL     OW 7704   4.726   3.957   1.182
  478SOL    HW1 7705   4.769   4.043   1.153
  478SOL    HW2 7706   4.725   3.954   1.282
  479SOL     OW 7707   0.993   2.709   6.223
  479SOL    HW1 7708   0.925   2.683   6.292
  479SOL    HW2 7709   0.999   2.808   6.219
  480SOL     OW 7710   1.777   4.383   0.915
  480SOL    HW1 7711   1.768   4.352   1.010
  480SOL    HW2 7712   1.831   4.317   0.863
  481SOL     OW 7713   4.893   3.381   5.552
  481SOL    HW1 7714   4.965   3.449   5.544
  481SOL    HW2 7715   4.900   3.316   5.475
  482SOL     OW 7716   6.132   4.058   0.073
  482SOL    HW1 7717   6.099   4.152   0.075
  482SOL    HW2 7718   6.217   4.052   0.021
  483SOL     OW 7719   3.114   0.682   0.290
  483SOL    HW1 7720   3.074   0.591   0.279
  483SOL    HW2 7721   3.213   0.677   0.274
  484SOL     OW 7722   4.663   3.316   1.153
  484SOL    HW1 7723   4.607   3.351   1.228
  484SOL    HW2 7724   4.749   3.280   1.189
  485SOL     OW 7725   2.690   2.888   5.279
  485SOL    HW1 7726   2.620   2.833   5.324
  485SOL    HW2 7727   2.703   2.856   5.185
  486SOL     OW 7728   2.025   1.266   6.198
  486SOL    HW1 7729   2.018   1.273   6.099
  486SOL    HW2 7730   2.107   1.314   6.229
  487SOL     OW 7731   5.886   3.664   0.148
  487SOL    HW1 7732   5.944   3.602   0.095
  487SOL    HW2 7733   5.791   3.652   0.121
  488SOL     OW 7734   0.539   6.039   5.539
  488SOL    HW1 7735   0.470   5.973   5.510
  488SOL    HW2 7736   0.588   6.073   5.458
  489SOL     OW 7737   5.644   0.011   0.319
  489SOL    HW1 7738   5.698   6.364   0.385
  489SOL    HW2 7739   5.684   0.101   0.306
  490SOL     OW 7740   4.846   2.054   0.719
  490SOL    HW1 7741   4.799   2.076   0.633
  490SOL    HW2 7742   4.779   2.028   0.788
  491SOL     OW 7743   0.008   0.320   5.207
  491SOL    HW1 7744   0.061   0.401   5.232
  491SOL    HW2 7745   6.285   0.340   5.129
  492SOL     OW 7746   3.826   3.123   1.519
  492SOL    HW1 7747   3.753   3.166   1.571
  492SOL    HW2 7748   3.787   3.068   1.445
  493SOL     OW 7749   2.952   0.257   5.591
  493SOL    HW1 7750   3.010   0.269   5.511
  493SOL    HW2 7751   3.005   0.278   5.674
  494SOL     OW 7752   4.315   4.573   1.498
  494SOL    HW1 7753   4.377   4.642   1.459
  494SOL    HW2 7754   4.267   4.612   1.576
  495SOL     OW 7755   3.144   4.844   1.266
  495SOL    HW1 7756   3.201   4.768   1.297
  495SOL    HW2 7757   3.048   4.816   1.266
  496SOL     OW 7758   1.342   0.843   0.133
  496SOL    HW1 7759   1.376   0.896   0.055
  496SOL    HW2 7760   1.249   0.813   0.115
  497SOL     OW 7761   5.166   1.038   0.318
  497SOL    HW1 7762   5.080   1.076   0.351
  497SOL    HW2 7763   5.228   1.112   0.293
  498SOL     OW 7764   5.486   2.781   5.541
  498SOL    HW1 7765   5.554   2.811   5.474
  498SOL    HW2 7766   5.515   2.810   5.633
  499SOL     OW 7767   1.974   0.770   0.434
  499SOL    HW1 7768   2.059   0.735   0.474
  499SOL    HW2 7769   1.897   0.714   0.464
  500SOL     OW 7770   2.581   1.227   6.102
  500SOL    HW1 7771   2.659   1.290   6.100
  500SOL    HW2 7772   2.498   1.277   6.077
  501SOL     OW 7773   2.974   1.798   0.349
  501SOL    HW1 7774   2.891   1.801   0.406
  501SOL    HW2 7775   3.052   1.828   0.403
  502SOL     OW 7776   0.477   2.677   6.509
  502SOL    HW1 7777   0.407   2.736   6.468
  502SOL    HW2 7778   0.533   2.731   0.002
  503SOL     OW 7779   3.063   3.524   0.527
  503SOL    HW1 7780   3.147   3.500   0.575
  503SOL    HW2 7781   3.059   3.624   0.517
  504SOL     OW 7782   0.172   6.122   5.806
  504SOL    HW1 7783   0.194   6.029   5.834
  504SOL    HW2 7784   0.073   6.132   5.796
  505SOL     OW 7785   1.244   3.264   0.888
  505SOL    HW1 7786   1.185   3.224   0.958
  505SOL    HW2 7787   1.280   3.192   0.829
  506SOL     OW 7788   3.817   0.209   5.916
  506SOL    HW1 7789   3.776   0.220   5.826
  506SOL    HW2 7790   3.894   0.144   5.910
  507SOL     OW 7791   3.918   5.478   1.643
  507SOL    HW1 7792   3.946   5.394   1.690
  507SOL    HW2 7793   3.951   5.558   1.695
  508SOL     OW 7794   3.620   4.657   5.482
  508SOL    HW1 7795   3.676   4.637   5.562
  508SOL    HW2 7796   3.655   4.738   5.436
  509SOL     OW 7797   0.620   1.638   6.454
  509SOL    HW1 7798   0.683   1.616   6.380
  509SOL    HW2 7799   0.655   1.718   6.504
  510SOL     OW 7800   1.519   4.578   0.127
  510SOL    HW1 7801   1.498   4.636   0.206
  510SOL    HW2 7802   1.493   4.484   0.146
  511SOL     OW 7803   3.451   4.091   6.337
  511SOL    HW1 7804   3.434   4.189   6.345
  511SOL    HW2 7805   3.406   4.057   6.254
  512SOL     OW 7806   5.804   4.754   0.073
  512SOL    HW1 7807   5.722   4.721   0.120
  512SOL    HW2 7808   5.844   4.680   0.020
  513SOL     OW 7809   3.034   5.770   1.030
  513SOL    HW1 7810   3.055   5.735   0.938
  513SOL    HW2 7811   2.949   5.823   1.027
  514SOL     OW 7812   1.169   4.682   6.400
  514SOL    HW1 7813   1.105   4.755   6.373
  514SOL    HW2 7814   1.263   4.711   6.382
  515SOL     OW 7815   3.965   2.841   6.378
  515SOL    HW1 7816   4.027   2.787   6.322
  515SOL    HW2 7817   3.871   2.829   6.345
  516SOL     OW 7818   3.451   5.780   1.243
  516SOL    HW1 7819   3.364   5.819   1.211
  516SOL    HW2 7820   3.464   5.690   1.202
  517SOL     OW 7821   4.779   5.305   5.564
  517SOL    HW1 7822   4.862   5.308   5.509
  517SOL    HW2 7823   4.801   5.323   5.660
  518SOL     OW 7824   0.292   4.304   5.181
  518SOL    HW1 7825   0.389   4.289   5.163
  518SOL    HW2 7826   0.248   4.218   5.208
  519SOL     OW 7827   4.939   5.172   6.007
  519SOL    HW1 7828   4.854   5.121   6.009
  519SOL    HW2 7829   5.009   5.118   5.960
  520SOL     OW 7830   4.458   2.956   1.253
  520SOL    HW1 7831   4.403   3.039   1.264
  520SOL    HW2 7832   4.546   2.979   1.212
  521SOL     OW 7833   4.515   5.529   6.198
  521SOL    HW1 7834   4.422   5.549   6.167
  521SOL    HW2 7835   4.565   5.481   6.125
  522SOL     OW 7836   4.421   3.882   0.534
  522SOL    HW1 7837   4.330   3.868   0.495
  522SOL    HW2 7838   4.456   3.794   0.569
  523SOL     OW 7839   4.824   4.783   1.055
  523SOL    HW1 7840   4.774   4.869   1.058
  523SOL    HW2 7841   4.759   4.707   1.064
  524SOL     OW 7842   0.203   0.473   6.154
  524SOL    HW1 7843   0.286   0.417   6.146
  524SOL    HW2 7844   0.124   0.418   6.127
  525SOL     OW 7845   5.035   3.846   6.093
  525SOL    HW1 7846   5.107   3.778   6.086
  525SOL    HW2 7847   5.050   3.901   6.176
  526SOL     OW 7848   5.548   4.347   5.787
  526SOL    HW1 7849   5.554   4.300   5.874
  526SOL    HW2 7850   5.568   4.283   5.712
  527SOL     OW 7851   4.872   2.183   1.805
  527SOL    HW1 7852   4.853   2.104   1.864
  527SOL    HW2 7853   4.960   2.170   1.760
  528SOL     OW 7854   3.654   3.549   5.197
  528SOL    HW1 7855   3.727   3.515   5.137
  528SOL    HW2 7856   3.694   3.604   5.270
  529SOL     OW 7857   3.198   2.981   1.100
  529SOL    HW1 7858   3.183   2.977   1.199
  529SOL    HW2 7859   3.262   2.909   1.073
  530SOL     OW 7860   2.417   6.122   5.602
  530SOL    HW1 7861   2.448   6.177   5.681
  530SOL    HW2 7862   2.332   6.160   5.567
  531SOL     OW 7863   3.895   5.481   6.510
  531SOL    HW1 7864   3.801   5.446   6.520
  531SOL    HW2 7865   3.899   5.576   6.540
  532SOL     OW 7866   0.667   2.821   5.690
  532SOL    HW1 7867   0.593   2.887   5.701
  532SOL    HW2 7868   0.691   2.813   5.593
  533SOL     OW 7869   0.266   3.932   0.948
  533SOL    HW1 7870   0.223   3.886   0.870
  533SOL    HW2 7871   0.253   3.877   1.031
  534SOL     OW 7872   6.050   3.119   5.947
  534SOL    HW1 7873   6.035   3.081   6.039
  534SOL    HW2 7874   5.963   3.152   5.911
  535SOL     OW 7875   4.803   4.790   6.463
  535SOL    HW1 7876   4.870   4.721   6.489
  535SOL    HW2 7877   4.712   4.762   6.495
  536SOL     OW 7878   4.670   2.267   6.190
  536SOL    HW1 7879   4.697   2.361   6.167
  536SOL    HW2 7880   4.740   2.203   6.158
  537SOL     OW 7881   1.194   1.940   6.485
  537SOL    HW1 7882   1.104   1.958   6.445
  537SOL    HW2 7883   1.256   2.014   6.462
  538SOL     OW 7884   5.017   4.867   1.231
  538SOL    HW1 7885   5.043   4.820   1.316
  538SOL    HW2 7886   4.957   4.808   1.178
  539SOL     OW 7887   1.761   1.360   6.237
  539SOL    HW1 7888   1.852   1.319   6.236
  539SOL    HW2 7889   1.710   1.330   6.156
  540SOL     OW 7890   6.182   4.916   0.085
  540SOL    HW1 7891   6.114   4.892   0.153
  540SOL    HW2 7892   6.189   5.015   0.078
  541SOL     OW 7893   2.836   3.743   5.569
  541SOL    HW1 7894   2.776   3.766   5.492
  541SOL    HW2 7895   2.930   3.766   5.545
  542SOL     OW 7896   4.640   0.988   6.243
  542SOL    HW1 7897   4.582   0.914   6.276
  542SOL    HW2 7898   4.736   0.963   6.256
  543SOL     OW 7899   1.196   2.310   0.492
  543SOL    HW1 7900   1.233   2.224   0.527
  543SOL    HW2 7901   1.133   2.349   0.560
  544SOL     OW 7902   3.852   1.247   0.218
  544SOL    HW1 7903   3.854   1.182   0.293
  544SOL    HW2 7904   3.771   1.304   0.225
  545SOL     OW 7905   2.925   1.617   0.645
  545SOL    HW1 7906   2.887   1.570   0.725
  545SOL    HW2 7907   2.853   1.671   0.601
  546SOL     OW 7908   0.089   3.285   0.451
  546SOL    HW1 7909   0.145   3.318   0.527
  546SOL    HW2 7910   0.079   3.358   0.382
  547SOL     OW 7911   6.260   3.644   1.050
  547SOL    HW1 7912   6.232   3.656   1.145
  547SOL    HW2 7913   0.025   3.636   1.046
  548SOL     OW 7914   6.294   0.915   0.480
  548SOL    HW1 7915   0.033   0.870   0.529
  548SOL    HW2 7916   6.331   0.976   0.410
  549SOL     OW 7917   2.114   0.384   6.293
  549SOL    HW1 7918   2.068   0.298   6.269
  549SOL    HW2 7919   2.205   0.385   6.253
  550SOL     OW 7920   1.459   5.537   1.079
  550SOL    HW1 7921   1.515   5.571   1.154
  550SOL    HW2 7922   1.430   5.443   1.098
  551SOL     OW 7923   2.890   1.004   5.276
  551SOL    HW1 7924   2.972   1.031   5.226
  551SOL    HW2 7925   2.838   0.939   5.220
  552SOL     OW 7926   2.609   0.833   0.563
  552SOL    HW1 7927   2.518   0.874   0.555
  552SOL    HW2 7928   2.657   0.842   0.475
  553SOL     OW 7929   0.628   2.868   0.067
  553SOL    HW1 7930   0.656   2.907   0.154
  553SOL    HW2 7931   0.576   2.936   0.015
  554SOL     OW 7932   6.154   0.851   5.886
  554SOL    HW1 7933   6.236   0.819   5.838
  554SOL    HW2 7934   6.167   0.945   5.916
  555SOL     OW 7935   5.720   5.880   0.846
  555SOL    HW1 7936   5.680   5.920   0.764
  555SOL    HW2 7937   5.734   5.782   0.832
  556SOL     OW 7938   4.252   5.996   5.711
  556SOL    HW1 7939   4.174   6.024   5.768
  556SOL    HW2 7940   4.321   6.068   5.711
  557SOL     OW 7941   0.809   6.149   5.891
  557SOL    HW1 7942   0.806   6.132   5.793
  557SOL    HW2 7943   0.805   6.062   5.940
  558SOL     OW 7944   2.527   6.254   5.808
  558SOL    HW1 7945   2.500   6.326   5.872
  558SOL    HW2 7946   2.597   6.197   5.850
  559SOL     OW 7947   2.261   3.088   0.751
  559SOL    HW1 7948   2.192   3.053   0.815
  559SOL    HW2 7949   2.334   3.020   0.741
  560SOL     OW 7950   6.008   3.228   1.062
  560SOL    HW1 7951   6.017   3.259   1.156
  560SOL    HW2 7952   6.098   3.228   1.017
  561SOL     OW 7953   3.672   1.463   5.390
  561SOL    HW1 7954   3.696   1.369   5.412
  561SOL    HW2 7955   3.749   1.523   5.411
  562SOL     OW 7956   1.145   5.661   5.728
  562SOL    HW1 7957   1.079   5.732   5.752
  562SOL    HW2 7958   1.127   5.628   5.636
  563SOL     OW 7959   1.217   1.071   6.380
  563SOL    HW1 7960   1.131   1.070   6.431
  563SOL    HW2 7961   1.209   1.011   6.301
  564SOL     OW 7962   2.881   0.428   5.980
  564SOL    HW1 7963   2.955   0.377   5.935
  564SOL    HW2 7964   2.840   0.492   5.915
  565SOL     OW 7965   2.558   2.632   0.733
  565SOL    HW1 7966   2.499   2.590   0.664
  565SOL    HW2 7967   2.521   2.613   0.825
  566SOL     OW 7968   3.098   0.297   6.452
  566SOL    HW1 7969   3.099   0.208   6.405
  566SOL    HW2 7970   3.009   0.340   6.439
  567SOL     OW 7971   2.218   5.607   0.519
  567SOL    HW1 7972   2.162   5.654   0.587
  567SOL    HW2 7973   2.203   5.647   0.429
  568SOL     OW 7974   2.564   3.691   6.073
  568SOL    HW1 7975   2.470   3.724   6.079
  568SOL    HW2 7976   2.626   3.757   6.116
  569SOL     OW 7977   2.605   1.323   6.504
  569SOL    HW1 7978   2.522   1.269   6.498
  569SOL    HW2 7979   2.681   1.273   6.463
  570SOL     OW 7980   6.130   1.287   5.614
  570SOL    HW1 7981   6.034   1.306   5.593
  570SOL    HW2 7982   6.163   1.351   5.683
  571SOL     OW 7983   3.567   2.282   6.256
  571SOL    HW1 7984   3.624   2.210   6.294
  571SOL    HW2 7985   3.544   2.260   6.161
  572SOL     OW 7986   4.903   6.356   0.710
  572SOL    HW1 7987   4.906   6.401   0.621
  572SOL    HW2 7988   4.995   6.348   0.747
  573SOL     OW 7989   3.157   1.421   0.849
  573SOL    HW1 7990   3.208   1.467   0.776
  573SOL    HW2 7991   3.176   1.323   0.846
  574SOL     OW 7992   1.396   2.611   0.744
  574SOL    HW1 7993   1.412   2.542   0.673
  574SOL    HW2 7994   1.480   2.663   0.760
  575SOL     OW 7995   0.563   0.725   0.160
  575SOL    HW1 7996   0.554   0.666   0.240
  575SOL    HW2 7997   0.660   0.740   0.140
  576SOL     OW 7998   4.179   4.521   5.987
  576SOL    HW1 7999   4.106   4.499   5.922
  576SOL    HW2 8000   4.140   4.540   6.076
  577SOL     OW 8001   5.001   5.858   0.031
  577SOL    HW1 8002   4.994   5.957   0.050
  577SOL    HW2 8003   5.081   5.822   0.079
  578SOL     OW 8004   1.848   1.215   1.353
  578SOL    HW1 8005   1.839   1.310   1.380
  578SOL    HW2 8006   1.865   1.159   1.435
  579SOL     OW 8007   1.824   2.072   0.183
  579SOL    HW1 8008   1.814   2.039   0.089
  579SOL    HW2 8009   1.754   2.141   0.202
  580SOL     OW 8010   4.430   2.205   6.070
  580SOL    HW1 8011   4.448   2.152   5.987
  580SOL    HW2 8012   4.516   2.226   6.116
  581SOL     OW 8013   3.339   4.705   5.497
  581SOL    HW1 8014   3.293   4.738   5.415
  581SOL    HW2 8015   3.434   4.681   5.475
  582SOL     OW 8016   1.790   1.991   6.490
  582SOL    HW1 8017   1.724   1.930   6.446
  582SOL    HW2 8018   1.882   1.954   6.480
  583SOL     OW 8019   3.003   3.718   6.505
  583SOL    HW1 8020   2.988   3.813   6.478
  583SOL    HW2 8021   3.101   3.701   6.515
  584SOL     OW 8022   1.001   3.671   6.497
  584SOL    HW1 8023   0.984   3.621   0.013
  584SOL    HW2 8024   0.975   3.613   6.420
  585SOL     OW 8025   5.950   2.963   0.152
  585SOL    HW1 8026   5.929   2.866   0.152
  585SOL    HW2 8027   5.869   3.015   0.126
  586SOL     OW 8028   5.875   3.850   0.639
  586SOL    HW1 8029   5.952   3.906   0.607
  586SOL    HW2 8030   5.904   3.755   0.648
  587SOL     OW 8031   4.098   1.398   1.719
  587SOL    HW1 8032   4.006   1.414   1.756
  587SOL    HW2 8033   4.137   1.316   1.761
  588SOL     OW 8034   4.738   5.686   6.002
  588SOL    HW1 8035   4.730   5.588   5.989
  588SOL    HW2 8036   4.728   5.708   6.099
  589SOL     OW 8037   2.182   5.700   0.260
  589SOL    HW1 8038   2.244   5.764   0.215
  589SOL    HW2 8039   2.088   5.721   0.234
  590SOL     OW 8040   4.562   3.509   0.989
  590SOL    HW1 8041   4.613   3.592   1.010
  590SOL    HW2 8042   4.597   3.434   1.044
  591SOL     OW 8043   1.583   0.202   6.455
  591SOL    HW1 8044   1.567   0.195   6.553
  591SOL    HW2 8045   1.498   0.188   6.405
  592SOL     OW 8046   0.676   5.911   0.899
  592SOL    HW1 8047   0.588   5.894   0.944
  592SOL    HW2 8048   0.717   5.823   0.873
  593SOL     OW 8049   3.252   3.082   5.961
  593SOL    HW1 8050   3.340   3.108   6.001
  593SOL    HW2 8051   3.254   2.986   5.934
  594SOL     OW 8052   0.176   0.834   0.622
  594SOL    HW1 8053   0.210   0.927   0.630
  594SOL    HW2 8054   0.175   0.791   0.713
  595SOL     OW 8055   3.622   4.337   1.080
  595SOL    HW1 8056   3.543   4.353   1.021
  595SOL    HW2 8057   3.603   4.261   1.142
  596SOL     OW 8058   0.891   2.120   5.745
  596SOL    HW1 8059   0.950   2.102   5.667
  596SOL    HW2 8060   0.886   2.038   5.802
  597SOL     OW 8061   0.939   3.522   5.901
  597SOL    HW1 8062   0.999   3.526   5.980
  597SOL    HW2 8063   0.994   3.521   5.817
  598SOL     OW 8064   4.057   3.112   6.429
  598SOL    HW1 8065   4.095   3.102   6.521
  598SOL    HW2 8066   4.015   3.025   6.401
  599SOL     OW 8067   5.965   1.594   6.106
  599SOL    HW1 8068   5.973   1.670   6.041
  599SOL    HW2 8069   5.988   1.508   6.061
  600SOL     OW 8070   1.880   2.025   5.645
  600SOL    HW1 8071   1.870   1.996   5.550
  600SOL    HW2 8072   1.977   2.038   5.665
  601SOL     OW 8073   5.160   0.418   0.584
  601SOL    HW1 8074   5.167   0.319   0.588
  601SOL    HW2 8075   5.236   0.459   0.635
  602SOL     OW 8076   5.340   3.433   0.687
  602SOL    HW1 8077   5.313   3.489   0.608
  602SOL    HW2 8078   5.418   3.376   0.662
  603SOL     OW 8079   5.534   2.347   5.357
  603SOL    HW1 8080   5.463   2.302   5.412
  603SOL    HW2 8081   5.528   2.314   5.263
  604SOL     OW 8082   0.832   4.614   6.452
  604SOL    HW1 8083   0.867   4.551   6.382
  604SOL    HW2 8084   0.779   4.562   6.519
  605SOL     OW 8085   3.534   1.999   0.077
  605SOL    HW1 8086   3.604   1.949   0.128
  605SOL    HW2 8087   3.451   2.004   0.131
  606SOL     OW 8088   2.292   0.307   0.563
  606SOL    HW1 8089   2.255   0.263   0.645
  606SOL    HW2 8090   2.339   0.392   0.588
  607SOL     OW 8091   5.145   3.284   5.065
  607SOL    HW1 8092   5.192   3.200   5.037
  607SOL    HW2 8093   5.060   3.294   5.012
  608SOL     OW 8094   5.648   0.878   5.310
  608SOL    HW1 8095   5.738   0.904   5.346
  608SOL    HW2 8096   5.652   0.873   5.210
  609SOL     OW 8097   1.264   4.536   0.466
  609SOL    HW1 8098   1.309   4.549   0.554
  609SOL    HW2 8099   1.197   4.462   0.474
  610SOL     OW 8100   1.210   3.339   5.500
  610SOL    HW1 8101   1.211   3.244   5.470
  610SOL    HW2 8102   1.235   3.399   5.423
  611SOL     OW 8103   4.079   4.096   0.335
  611SOL    HW1 8104   4.039   4.049   0.256
  611SOL    HW2 8105   4.135   4.172   0.304
  612SOL     OW 8106   5.114   6.267   0.387
  612SOL    HW1 8107   5.171   6.267   0.469
  612SOL    HW2 8108   5.075   6.358   0.374
  613SOL     OW 8109   0.793   3.323   6.134
  613SOL    HW1 8110   0.882   3.282   6.114
  613SOL    HW2 8111   0.720   3.260   6.106
  614SOL     OW 8112   2.850   5.784   0.645
  614SOL    HW1 8113   2.869   5.878   0.618
  614SOL    HW2 8114   2.785   5.743   0.581
  615SOL     OW 8115   0.495   6.403   5.502
  615SOL    HW1 8116   0.587   6.372   5.478
  615SOL    HW2 8117   0.457   6.341   5.571
  616SOL     OW 8118   3.279   4.628   1.364
  616SOL    HW1 8119   3.224   4.545   1.355
  616SOL    HW2 8120   3.289   4.649   1.461
  617SOL     OW 8121   4.376   2.025   0.193
  617SOL    HW1 8122   4.308   2.017   0.121
  617SOL    HW2 8123   4.467   2.036   0.152
  618SOL     OW 8124   1.942   4.816   5.608
  618SOL    HW1 8125   2.032   4.804   5.565
  618SOL    HW2 8126   1.885   4.875   5.550
  619SOL     OW 8127   0.162   4.389   5.839
  619SOL    HW1 8128   0.205   4.341   5.763
  619SOL    HW2 8129   0.086   4.444   5.805
  620SOL     OW 8130   4.886   4.856   6.207
  620SOL    HW1 8131   4.985   4.846   6.201
  620SOL    HW2 8132   4.853   4.815   6.292
  621SOL     OW 8133   0.326   3.968   6.019
  621SOL    HW1 8134   0.238   3.933   6.050
  621SOL    HW2 8135   0.317   4.007   5.928
  622SOL     OW 8136   4.321   4.125   6.441
  622SOL    HW1 8137   4.358   4.189   6.509
  622SOL    HW2 8138   4.242   4.166   6.396
  623SOL     OW 8139   3.054   5.532   5.588
  623SOL    HW1 8140   3.078   5.481   5.506
  623SOL    HW2 8141   3.055   5.471   5.667
  624SOL     OW 8142   2.657   5.999   5.592
  624SOL    HW1 8143   2.722   6.065   5.629
  624SOL    HW2 8144   2.566   6.040   5.588
  625SOL     OW 8145   2.559   1.087   5.863
  625SOL    HW1 8146   2.573   1.125   5.955
  625SOL    HW2 8147   2.613   1.139   5.798
  626SOL     OW 8148   0.734   0.844   5.316
  626SOL    HW1 8149   0.818   0.811   5.358
  626SOL    HW2 8150   0.756   0.909   5.243
  627SOL     OW 8151   2.803   3.933   0.586
  627SOL    HW1 8152   2.769   4.021   0.621
  627SOL    HW2 8153   2.821   3.872   0.663
  628SOL     OW 8154   0.027   1.479   0.577
  628SOL    HW1 8155   0.044   1.472   0.675
  628SOL    HW2 8156   0.114   1.490   0.529
  629SOL     OW 8157   6.120   6.014   6.446
  629SOL    HW1 8158   6.074   5.940   6.396
  629SOL    HW2 8159   6.217   6.014   6.423
  630SOL     OW 8160   3.218   5.242   0.012
  630SOL    HW1 8161   3.131   5.289   6.563
  630SOL    HW2 8162   3.251   5.270   0.102
  631SOL     OW 8163   1.932   2.404   6.493
  631SOL    HW1 8164   1.993   2.342   6.542
  631SOL    HW2 8165   1.873   2.451   6.559
  632SOL     OW 8166   4.904   3.593   1.142
  632SOL    HW1 8167   4.866   3.551   1.224
  632SOL    HW2 8168   4.832   3.646   1.095
  633SOL     OW 8169   5.810   4.970   0.993
  633SOL    HW1 8170   5.908   4.953   0.989
  633SOL    HW2 8171   5.781   4.979   1.089
  634SOL     OW 8172   4.617   3.227   0.383
  634SOL    HW1 8173   4.556   3.196   0.311
  634SOL    HW2 8174   4.566   3.236   0.468
  635SOL     OW 8175   5.719   2.562   6.561
  635SOL    HW1 8176   5.697   2.494   0.062
  635SOL    HW2 8177   5.634   2.599   6.523
  636SOL     OW 8178   1.313   1.125   0.362
  636SOL    HW1 8179   1.395   1.104   0.308
  636SOL    HW2 8180   1.277   1.214   0.334
  637SOL     OW 8181   5.683   5.428   6.181
  637SOL    HW1 8182   5.755   5.367   6.215
  637SOL    HW2 8183   5.707   5.460   6.090
  638SOL     OW 8184   4.372   0.964   6.465
  638SOL    HW1 8185   4.416   0.886   6.421
  638SOL    HW2 8186   4.440   1.020   6.511
  639SOL     OW 8187   6.032   0.634   6.428
  639SOL    HW1 8188   6.017   0.535   6.426
  639SOL    HW2 8189   6.012   0.668   6.519
  640SOL     OW 8190   4.675   2.238   0.272
  640SOL    HW1 8191   4.755   2.292   0.244
  640SOL    HW2 8192   4.661   2.164   0.207
  641SOL     OW 8193   6.163   4.237   6.136
  641SOL    HW1 8194   6.079   4.287   6.118
  641SOL    HW2 8195   6.187   4.245   6.233
  642SOL     OW 8196   0.841   0.127   5.144
  642SOL    HW1 8197   0.847   0.031   5.172
  642SOL    HW2 8198   0.918   0.148   5.084
  643SOL     OW 8199   3.772   2.984   1.279
  643SOL    HW1 8200   3.845   3.046   1.253
  643SOL    HW2 8201   3.800   2.889   1.263
  644SOL     OW 8202   4.477   1.138   1.608
  644SOL    HW1 8203   4.423   1.057   1.631
  644SOL    HW2 8204   4.416   1.213   1.582
  645SOL     OW 8205   4.194   1.918   5.531
  645SOL    HW1 8206   4.190   1.923   5.431
  645SOL    HW2 8207   4.106   1.885   5.566
  646SOL     OW 8208   4.087   1.838   0.511
  646SOL    HW1 8209   4.172   1.785   0.511
  646SOL    HW2 8210   4.096   1.915   0.575
  647SOL     OW 8211   3.493   0.937   5.937
  647SOL    HW1 8212   3.453   1.018   5.892
  647SOL    HW2 8213   3.583   0.919   5.898
  648SOL     OW 8214   0.751   5.888   6.288
  648SOL    HW1 8215   0.741   5.945   6.369
  648SOL    HW2 8216   0.831   5.828   6.298
  649SOL     OW 8217   4.872   2.429   1.692
  649SOL    HW1 8218   4.866   2.342   1.740
  649SOL    HW2 8219   4.941   2.487   1.736
  650SOL     OW 8220   4.923   2.896   0.021
  650SOL    HW1 8221   4.869   2.968   0.064
  650SOL    HW2 8222   5.020   2.920   0.027
  651SOL     OW 8223   3.765   1.327   5.816
  651SOL    HW1 8224   3.758   1.418   5.775
  651SOL    HW2 8225   3.695   1.316   5.887
  652SOL     OW 8226   5.546   0.952   0.702
  652SOL    HW1 8227   5.632   0.998   0.682
  652SOL    HW2 8228   5.475   0.986   0.641
  653SOL     OW 8229   5.177   4.187   1.393
  653SOL    HW1 8230   5.276   4.188   1.401
  653SOL    HW2 8231   5.151   4.187   1.296
  654SOL     OW 8232   0.121   2.824   1.515
  654SOL    HW1 8233   0.129   2.813   1.614
  654SOL    HW2 8234   0.044   2.771   1.482
  655SOL     OW 8235   4.313   0.969   5.925
  655SOL    HW1 8236   4.408   0.991   5.946
  655SOL    HW2 8237   4.255   0.997   6.001
  656SOL     OW 8238   0.571   0.897   5.529
  656SOL    HW1 8239   0.567   0.997   5.533
  656SOL    HW2 8240   0.632   0.870   5.455
  657SOL     OW 8241   4.842   4.446   6.168
  657SOL    HW1 8242   4.754   4.474   6.207
  657SOL    HW2 8243   4.843   4.347   6.156
  658SOL     OW 8244   0.033   4.041   6.486
  658SOL    HW1 8245   0.120   4.087   6.503
  658SOL    HW2 8246   0.049   3.946   6.461
  659SOL     OW 8247   5.432   1.307   5.875
  659SOL    HW1 8248   5.452   1.397   5.835
  659SOL    HW2 8249   5.514   1.249   5.869
  660SOL     OW 8250   5.219   2.404   1.752
  660SOL    HW1 8251   5.160   2.475   1.792
  660SOL    HW2 8252   5.305   2.400   1.802
  661SOL     OW 8253   1.715   1.018   6.387
  661SOL    HW1 8254   1.668   1.009   6.299
  661SOL    HW2 8255   1.813   1.025   6.372
  662SOL     OW 8256   4.124   5.859   0.149
  662SOL    HW1 8257   4.133   5.934   0.083
  662SOL    HW2 8258   4.127   5.895   0.242
  663SOL     OW 8259   2.362   3.070   0.360
  663SOL    HW1 8260   2.414   3.155   0.354
  663SOL    HW2 8261   2.411   2.997   0.314
  664SOL     OW 8262   3.307   5.153   6.326
  664SOL    HW1 8263   3.236   5.101   6.280
  664SOL    HW2 8264   3.279   5.171   6.420
  665SOL     OW 8265   5.024   4.187   0.699
  665SOL    HW1 8266   4.983   4.278   0.702
  665SOL    HW2 8267   4.970   4.123   0.754
  666SOL     OW 8268   3.435   1.493   6.132
  666SOL    HW1 8269   3.352   1.457   6.175
  666SOL    HW2 8270   3.471   1.568   6.187
  667SOL     OW 8271   4.664   2.359   0.700
  667SOL    HW1 8272   4.587   2.349   0.763
  667SOL    HW2 8273   4.682   2.456   0.685
  668SOL     OW 8274   3.006   6.250   0.866
  668SOL    HW1 8275   3.003   6.284   0.959
  668SOL    HW2 8276   2.919   6.204   0.845
  669SOL     OW 8277   4.413   3.710   5.773
  669SOL    HW1 8278   4.512   3.724   5.771
  669SOL    HW2 8279   4.381   3.690   5.680
  670SOL     OW 8280   0.099   3.064   0.286
  670SOL    HW1 8281   0.096   3.138   0.353
  670SOL    HW2 8282   0.013   3.061   0.235
  671SOL     OW 8283   4.635   0.728   5.551
  671SOL    HW1 8284   4.590   0.644   5.523
  671SOL    HW2 8285   4.668   0.777   5.470
  672SOL     OW 8286   1.030   5.557   0.410
  672SOL    HW1 8287   0.930   5.555   0.419
  672SOL    HW2 8288   1.065   5.645   0.443
  673SOL     OW 8289   2.603   5.108   5.655
  673SOL    HW1 8290   2.539   5.042   5.617
  673SOL    HW2 8291   2.566   5.145   5.740
  674SOL     OW 8292   4.437   3.839   1.519
  674SOL    HW1 8293   4.368   3.766   1.515
  674SOL    HW2 8294   4.411   3.906   1.588
  675SOL     OW 8295   1.754   2.516   0.105
  675SOL    HW1 8296   1.732   2.604   0.062
  675SOL    HW2 8297   1.768   2.530   0.203
  676SOL     OW 8298   5.511   1.088   6.286
  676SOL    HW1 8299   5.591   1.131   6.243
  676SOL    HW2 8300   5.504   1.119   6.381
  677SOL     OW 8301   5.649   2.822   0.223
  677SOL    HW1 8302   5.637   2.865   0.133
  677SOL    HW2 8303   5.732   2.766   0.223
  678SOL     OW 8304   4.037   6.069   5.267
  678SOL    HW1 8305   3.947   6.029   5.285
  678SOL    HW2 8306   4.077   6.026   5.186
  679SOL     OW 8307   0.674   4.410   6.139
  679SOL    HW1 8308   0.760   4.412   6.192
  679SOL    HW2 8309   0.669   4.491   6.081
  680SOL     OW 8310   2.189   3.818   0.290
  680SOL    HW1 8311   2.237   3.836   0.376
  680SOL    HW2 8312   2.137   3.733   0.298
  681SOL     OW 8313   4.081   2.650   0.402
  681SOL    HW1 8314   4.019   2.723   0.376
  681SOL    HW2 8315   4.028   2.574   0.442
  682SOL     OW 8316   3.134   3.513   1.319
  682SOL    HW1 8317   3.142   3.481   1.414
  682SOL    HW2 8318   3.182   3.450   1.259
  683SOL     OW 8319   1.125   1.838   5.932
  683SOL    HW1 8320   1.135   1.850   5.834
  683SOL    HW2 8321   1.191   1.896   5.980
  684SOL     OW 8322   2.582   5.071   1.465
  684SOL    HW1 8323   2.493   5.034   1.493
  684SOL    HW2 8324   2.629   5.005   1.407
  685SOL     OW 8325   3.371   2.779   1.021
  685SOL    HW1 8326   3.457   2.823   1.048
  685SOL    HW2 8327   3.371   2.684   1.049
  686SOL     OW 8328   2.461   3.206   5.628
  686SOL    HW1 8329   2.484   3.202   5.725
  686SOL    HW2 8330   2.542   3.185   5.574
  687SOL     OW 8331   4.344   4.386   0.598
  687SOL    HW1 8332   4.287   4.305   0.595
  687SOL    HW2 8333   4.334   4.438   0.514
  688SOL     OW 8334   2.857   2.720   6.102
  688SOL    HW1 8335   2.876   2.813   6.070
  688SOL    HW2 8336   2.926   2.694   6.170
  689SOL     OW 8337   5.095   2.296   0.054
  689SOL    HW1 8338   5.149   2.299   0.138
  689SOL    HW2 8339   5.105   2.206   0.011
  690SOL     OW 8340   4.560   5.979   0.517
  690SOL    HW1 8341   4.517   5.961   0.605
  690SOL    HW2 8342   4.548   6.076   0.493
  691SOL     OW 8343   2.317   3.541   1.306
  691SOL    HW1 8344   2.357   3.631   1.320
  691SOL    HW2 8345   2.388   3.475   1.282
  692SOL     OW 8346   0.090   5.155   6.444
  692SOL    HW1 8347   0.015   5.166   6.510
  692SOL    HW2 8348   0.054   5.165   6.351
  693SOL     OW 8349   4.506   0.766   6.336
  693SOL    HW1 8350   4.457   0.723   6.260
  693SOL    HW2 8351   4.565   0.698   6.380
  694SOL     OW 8352   0.883   0.008   5.659
  694SOL    HW1 8353   0.821   6.376   5.591
  694SOL    HW2 8354   0.963   0.048   5.614
  695SOL     OW 8355   3.689   3.558   4.835
  695SOL    HW1 8356   3.736   3.629   4.783
  695SOL    HW2 8357   3.753   3.516   4.899
  696SOL     OW 8358   0.571   5.674   6.290
  696SOL    HW1 8359   0.619   5.761   6.277
  696SOL    HW2 8360   0.608   5.606   6.227
  697SOL     OW 8361   1.748   0.001   0.252
  697SOL    HW1 8362   1.652   0.029   0.248
  697SOL    HW2 8363   1.760   6.340   0.327
  698SOL     OW 8364   0.711   6.064   6.504
  698SOL    HW1 8365   0.780   6.126   6.543
  698SOL    HW2 8366   0.638   6.050   0.001
  699SOL     OW 8367   2.885   1.609   5.936
  699SOL    HW1 8368   2.969   1.632   5.986
  699SOL    HW2 8369   2.906   1.598   5.839
  700SOL     OW 8370   3.811   1.800   0.929
  700SOL    HW1 8371   3.836   1.703   0.931
  700SOL    HW2 8372   3.778   1.828   1.019
  701SOL     OW 8373   5.256   1.484   0.319
  701SOL    HW1 8374   5.293   1.545   0.249
  701SOL    HW2 8375   5.246   1.533   0.405
  702SOL     OW 8376   4.316   4.765   0.739
  702SOL    HW1 8377   4.306   4.848   0.795
  702SOL    HW2 8378   4.259   4.773   0.657
  703SOL     OW 8379   5.883   4.458   0.532
  703SOL    HW1 8380   5.825   4.465   0.451
  703SOL    HW2 8381   5.949   4.533   0.533
  704SOL     OW 8382   2.989   1.523   0.282
  704SOL    HW1 8383   3.020   1.483   0.368
  704SOL    HW2 8384   2.993   1.623   0.288
  705SOL     OW 8385   4.482   5.591   5.405
  705SOL    HW1 8386   4.539   5.672   5.411
  705SOL    HW2 8387   4.458   5.575   5.309
  706SOL     OW 8388   5.831   2.484   1.294
  706SOL    HW1 8389   5.777   2.418   1.346
  706SOL    HW2 8390   5.901   2.524   1.353
  707SOL     OW 8391   1.846   5.641   6.054
  707SOL    HW1 8392   1.930   5.590   6.073
  707SOL    HW2 8393   1.779   5.624   6.126
  708SOL     OW 8394   2.686   1.147   0.568
  708SOL    HW1 8395   2.663   1.178   0.660
  708SOL    HW2 8396   2.741   1.063   0.575
  709SOL     OW 8397   4.120   5.665   6.286
  709SOL    HW1 8398   4.171   5.636   6.205
  709SOL    HW2 8399   4.125   5.593   6.356
  710SOL     OW 8400   0.265   0.040   6.348
  710SOL    HW1 8401   0.310   6.356   6.339
  710SOL    HW2 8402   0.328   0.105   6.391
  711SOL     OW 8403   1.469   6.106   0.948
  711SOL    HW1 8404   1.496   6.074   1.039
  711SOL    HW2 8405   1.477   6.205   0.945
  712SOL     OW 8406   4.503   2.062   1.085
  712SOL    HW1 8407   4.489   2.157   1.112
  712SOL    HW2 8408   4.416   2.013   1.089
  713SOL     OW 8409   1.981   3.063   1.321
  713SOL    HW1 8410   2.012   3.147   1.366
  713SOL    HW2 8411   1.903   3.084   1.262
  714SOL     OW 8412   1.740   3.797   6.089
  714SOL    HW1 8413   1.706   3.862   6.156
  714SOL    HW2 8414   1.769   3.846   6.007
  715SOL     OW 8415   3.496   2.893   1.298
  715SOL    HW1 8416   3.481   2.811   1.354
  715SOL    HW2 8417   3.594   2.910   1.290
  716SOL     OW 8418   3.602   4.164   0.366
  716SOL    HW1 8419   3.595   4.064   0.369
  716SOL    HW2 8420   3.695   4.192   0.388
  717SOL     OW 8421   5.236   5.730   0.110
  717SOL    HW1 8422   5.297   5.753   0.034
  717SOL    HW2 8423   5.218   5.632   0.109
  718SOL     OW 8424   3.713   3.639   0.506
  718SOL    HW1 8425   3.808   3.660   0.528
  718SOL    HW2 8426   3.671   3.589   0.582
  719SOL     OW 8427   2.045   4.968   5.807
  719SOL    HW1 8428   2.044   4.913   5.890
  719SOL    HW2 8429   2.014   4.912   5.730
  720SOL     OW 8430   3.024   4.933   0.504
  720SOL    HW1 8431   2.942   4.896   0.547
  720SOL    HW2 8432   3.021   5.033   0.504
  721SOL     OW 8433   4.047   4.540   5.414
  721SOL    HW1 8434   4.147   4.533   5.414
  721SOL    HW2 8435   4.019   4.629   5.449
  722SOL     OW 8436   3.597   3.881   0.386
  722SOL    HW1 8437   3.643   3.805   0.432
  722SOL    HW2 8438   3.594   3.862   0.287
  723SOL     OW 8439   6.228   1.693   5.949
  723SOL    HW1 8440   6.258   1.682   6.043
  723SOL    HW2 8441   6.144   1.748   5.946
  724SOL     OW 8442   4.220   2.399   0.556
  724SOL    HW1 8443   4.257   2.322   0.505
  724SOL    HW2 8444   4.123   2.410   0.537
  725SOL     OW 8445   5.281   1.324   6.101
  725SOL    HW1 8446   5.213   1.393   6.078
  725SOL    HW2 8447   5.331   1.297   6.019
  726SOL     OW 8448   1.191   0.614   5.568
  726SOL    HW1 8449   1.248   0.581   5.493
  726SOL    HW2 8450   1.206   0.556   5.648
  727SOL     OW 8451   0.436   4.650   5.723
  727SOL    HW1 8452   0.410   4.607   5.636
  727SOL    HW2 8453   0.519   4.704   5.711
  728SOL     OW 8454   0.962   5.865   5.785
  728SOL    HW1 8455   0.902   5.913   5.722
  728SOL    HW2 8456   0.921   5.862   5.876
  729SOL     OW 8457   2.989   0.552   6.207
  729SOL    HW1 8458   2.949   0.507   6.127
  729SOL    HW2 8459   2.945   0.517   6.290
  730SOL     OW 8460   4.560   2.516   5.898
  730SOL    HW1 8461   4.621   2.504   5.977
  730SOL    HW2 8462   4.476   2.464   5.913
  731SOL     OW 8463   1.375   5.276   1.157
  731SOL    HW1 8464   1.286   5.230   1.148
  731SOL    HW2 8465   1.425   5.236   1.234
  732SOL     OW 8466   3.775   5.949   0.954
  732SOL    HW1 8467   3.755   5.858   0.918
  732SOL    HW2 8468   3.817   5.941   1.044
  733SOL     OW 8469   1.081   1.427   5.952
  733SOL    HW1 8470   1.060   1.508   6.007
  733SOL    HW2 8471   1.073   1.450   5.855
  734SOL     OW 8472   3.206   4.212   5.822
  734SOL    HW1 8473   3.269   4.136   5.840
  734SOL    HW2 8474   3.137   4.217   5.894
  735SOL     OW 8475   6.296   2.478   5.874
  735SOL    HW1 8476   0.026   2.517   5.809
  735SOL    HW2 8477   0.007   2.408   5.928
  736SOL     OW 8478   6.049   2.744   0.475
  736SOL    HW1 8479   6.075   2.710   0.385
  736SOL    HW2 8480   5.960   2.790   0.469
  737SOL     OW 8481   3.840   6.086   0.730
  737SOL    HW1 8482   3.807   6.035   0.809
  737SOL    HW2 8483   3.766   6.096   0.663
  738SOL     OW 8484   5.994   4.455   0.917
  738SOL    HW1 8485   5.973   4.545   0.878
  738SOL    HW2 8486   5.982   4.458   1.017
  739SOL     OW 8487   0.207   6.273   0.984
  739SOL    HW1 8488   0.114   6.241   1.003
  739SOL    HW2 8489   0.203   6.347   0.916
  740SOL     OW 8490   3.041   4.901   6.403
  740SOL    HW1 8491   3.084   4.811   6.403
  740SOL    HW2 8492   3.053   4.944   6.314
  741SOL     OW 8493   6.172   1.464   1.234
  741SOL    HW1 8494   6.200   1.371   1.258
  741SOL    HW2 8495   6.231   1.530   1.283
  742SOL     OW 8496   0.385   3.601   0.726
  742SOL    HW1 8497   0.425   3.633   0.640
  742SOL    HW2 8498   0.335   3.515   0.709
  743SOL     OW 8499   0.403   3.186   5.863
  743SOL    HW1 8500   0.419   3.108   5.802
  743SOL    HW2 8501   0.434   3.270   5.817
  744SOL     OW 8502   3.295   3.179   1.586
  744SOL    HW1 8503   3.228   3.107   1.605
  744SOL    HW2 8504   3.350   3.195   1.667
  745SOL     OW 8505   1.165   0.988   4.648
  745SOL    HW1 8506   1.093   0.920   4.639
  745SOL    HW2 8507   1.140   1.070   4.597
  746SOL     OW 8508   3.820   5.962   6.476
  746SOL    HW1 8509   3.820   5.990   6.380
  746SOL    HW2 8510   3.845   6.041   6.533
  747SOL     OW 8511   6.268   1.416   6.320
  747SOL    HW1 8512   6.280   1.501   6.269
  747SOL    HW2 8513   6.170   1.401   6.337
  748SOL     OW 8514   3.170   4.660   6.461
  748SOL    HW1 8515   3.103   4.637   6.531
  748SOL    HW2 8516   3.262   4.654   6.499
  749SOL     OW 8517   4.849   1.591   5.606
  749SOL    HW1 8518   4.943   1.602   5.572
  749SOL    HW2 8519   4.833   1.495   5.628
  750SOL     OW 8520   1.795   5.093   5.800
  750SOL    HW1 8521   1.730   5.024   5.768
  750SOL    HW2 8522   1.887   5.055   5.798
  751SOL     OW 8523   5.488   0.565   6.034
  751SOL    HW1 8524   5.456   0.538   6.125
  751SOL    HW2 8525   5.453   0.501   5.966
  752SOL     OW 8526   3.272   0.623   0.645
  752SOL    HW1 8527   3.300   0.572   0.726
  752SOL    HW2 8528   3.231   0.560   0.579
  753SOL     OW 8529   0.834   5.227   5.515
  753SOL    HW1 8530   0.873   5.226   5.422
  753SOL    HW2 8531   0.888   5.167   5.574
  754SOL     OW 8532   0.652   4.019   0.060
  754SOL    HW1 8533   0.686   3.947   6.569
  754SOL    HW2 8534   0.717   4.035   0.133
  755SOL     OW 8535   3.054   4.619   0.601
  755SOL    HW1 8536   3.035   4.578   0.511
  755SOL    HW2 8537   2.980   4.682   0.624
  756SOL     OW 8538   0.103   5.113   5.332
  756SOL    HW1 8539   0.194   5.107   5.290
  756SOL    HW2 8540   0.033   5.106   5.261
  757SOL     OW 8541   6.034   3.310   1.320
  757SOL    HW1 8542   6.044   3.274   1.413
  757SOL    HW2 8543   5.972   3.388   1.320
  758SOL     OW 8544   1.082   3.643   0.326
  758SOL    HW1 8545   1.091   3.616   0.422
  758SOL    HW2 8546   1.016   3.582   0.281
  759SOL     OW 8547   2.065   5.745   0.699
  759SOL    HW1 8548   1.989   5.695   0.740
  759SOL    HW2 8549   2.029   5.823   0.648
  760SOL     OW 8550   0.554   3.569   0.294
  760SOL    HW1 8551   0.535   3.472   0.287
  760SOL    HW2 8552   0.598   3.601   0.210
  761SOL     OW 8553   4.675   2.603   5.515
  761SOL    HW1 8554   4.721   2.575   5.599
  761SOL    HW2 8555   4.736   2.662   5.461
  762SOL     OW 8556   3.078   0.287   5.846
  762SOL    HW1 8557   3.042   0.196   5.866
  762SOL    HW2 8558   3.167   0.298   5.891
  763SOL     OW 8559   4.553   5.740   5.798
  763SOL    HW1 8560   4.618   5.726   5.872
  763SOL    HW2 8561   4.569   5.830   5.756
  764SOL     OW 8562   3.188   6.083   0.745
  764SOL    HW1 8563   3.251   6.045   0.812
  764SOL    HW2 8564   3.128   6.150   0.790
  765SOL     OW 8565   2.749   5.232   1.625
  765SOL    HW1 8566   2.685   5.171   1.580
  765SOL    HW2 8567   2.718   5.250   1.719
  766SOL     OW 8568   4.611   2.462   5.280
  766SOL    HW1 8569   4.589   2.541   5.223
  766SOL    HW2 8570   4.641   2.492   5.370
  767SOL     OW 8571   6.092   2.123   5.939
  767SOL    HW1 8572   6.192   2.128   5.936
  767SOL    HW2 8573   6.054   2.189   5.874
  768SOL     OW 8574   2.101   6.177   0.279
  768SOL    HW1 8575   2.076   6.269   0.247
  768SOL    HW2 8576   2.188   6.150   0.237
  769SOL     OW 8577   0.286   4.048   5.760
  769SOL    HW1 8578   0.292   4.130   5.702
  769SOL    HW2 8579   0.190   4.020   5.768
  770SOL     OW 8580   3.977   4.791   6.076
  770SOL    HW1 8581   3.880   4.786   6.054
  770SOL    HW2 8582   4.022   4.852   6.011
  771SOL     OW 8583   1.746   5.882   5.150
  771SOL    HW1 8584   1.755   5.832   5.064
  771SOL    HW2 8585   1.675   5.840   5.206
  772SOL     OW 8586   3.820   5.810   0.441
  772SOL    HW1 8587   3.902   5.834   0.492
  772SOL    HW2 8588   3.741   5.812   0.502
  773SOL     OW 8589   6.269   4.061   0.742
  773SOL    HW1 8590   6.320   4.132   0.790
  773SOL    HW2 8591   6.241   3.990   0.807
  774SOL     OW 8592   2.793   2.441   5.500
  774SOL    HW1 8593   2.799   2.383   5.419
  774SOL    HW2 8594   2.845   2.399   5.574
  775SOL     OW 8595   4.602   5.831   5.429
  775SOL    HW1 8596   4.656   5.888   5.368
  775SOL    HW2 8597   4.506   5.859   5.424
  776SOL     OW 8598   4.268   1.921   1.099
  776SOL    HW1 8599   4.206   1.956   1.169
  776SOL    HW2 8600   4.216   1.902   1.015
  777SOL     OW 8601   2.467   1.543   6.407
  777SOL    HW1 8602   2.444   1.602   6.485
  777SOL    HW2 8603   2.524   1.467   6.438
  778SOL     OW 8604   5.027   5.664   0.510
  778SOL    HW1 8605   4.954   5.651   0.443
  778SOL    HW2 8606   5.089   5.586   0.507
  779SOL     OW 8607   4.992   3.679   0.174
  779SOL    HW1 8608   5.065   3.658   0.108
  779SOL    HW2 8609   5.033   3.710   0.259
  780SOL     OW 8610   4.680   4.314   0.167
  780SOL    HW1 8611   4.593   4.318   0.116
  780SOL    HW2 8612   4.755   4.336   0.106
  781SOL     OW 8613   0.896   3.112   5.755
  781SOL    HW1 8614   0.877   3.021   5.791
  781SOL    HW2 8615   0.988   3.140   5.781
  782SOL     OW 8616   1.529   2.795   5.662
  782SOL    HW1 8617   1.474   2.876   5.642
  782SOL    HW2 8618   1.487   2.745   5.738
  783SOL     OW 8619   0.449   2.984   5.688
  783SOL    HW1 8620   0.451   3.022   5.595
  783SOL    HW2 8621   0.373   2.920   5.697
  784SOL     OW 8622   4.551   0.634   0.241
  784SOL    HW1 8623   4.621   0.579   0.286
  784SOL    HW2 8624   4.478   0.575   0.206
  785SOL     OW 8625   1.610   3.202   0.137
  785SOL    HW1 8626   1.562   3.289   0.122
  785SOL    HW2 8627   1.547   3.126   0.121
  786SOL     OW 8628   1.460   6.405   0.972
  786SOL    HW1 8629   1.367   6.381   1.003
  786SOL    HW2 8630   1.485   0.090   1.007
  787SOL     OW 8631   4.650   0.790   0.586
  787SOL    HW1 8632   4.556   0.754   0.584
  787SOL    HW2 8633   4.707   0.738   0.522
  788SOL     OW 8634   4.196   2.461   6.290
  788SOL    HW1 8635   4.289   2.491   6.267
  788SOL    HW2 8636   4.130   2.529   6.258
  789SOL     OW 8637   1.566   1.475   0.858
  789SOL    HW1 8638   1.492   1.424   0.813
  789SOL    HW2 8639   1.639   1.493   0.792
  790SOL     OW 8640   4.964   3.497   0.486
  790SOL    HW1 8641   4.901   3.479   0.411
  790SOL    HW2 8642   5.001   3.590   0.477
  791SOL     OW 8643   1.281   0.154   1.297
  791SOL    HW1 8644   1.233   0.238   1.321
  791SOL    HW2 8645   1.377   0.161   1.326
  792SOL     OW 8646   2.244   5.673   6.232
  792SOL    HW1 8647   2.171   5.624   6.184
  792SOL    HW2 8648   2.291   5.611   6.294
  793SOL     OW 8649   3.464   1.240   0.434
  793SOL    HW1 8650   3.522   1.295   0.373
  793SOL    HW2 8651   3.465   1.281   0.526
  794SOL     OW 8652   0.913   0.570   5.051
  794SOL    HW1 8653   0.821   0.607   5.066
  794SOL    HW2 8654   0.912   0.509   4.971
  795SOL     OW 8655   5.919   6.216   0.222
  795SOL    HW1 8656   5.838   6.171   0.184
  795SOL    HW2 8657   5.959   6.275   0.152
  796SOL     OW 8658   4.476   2.090   5.817
  796SOL    HW1 8659   4.387   2.045   5.828
  796SOL    HW2 8660   4.471   2.156   5.741
  797SOL     OW 8661   4.590   2.906   5.963
  797SOL    HW1 8662   4.523   2.858   5.906
  797SOL    HW2 8663   4.683   2.882   5.932
  798SOL     OW 8664   4.354   5.717   0.176
  798SOL    HW1 8665   4.433   5.778   0.176
  798SOL    HW2 8666   4.270   5.771   0.169
  799SOL     OW 8667   3.601   2.713   6.029
  799SOL    HW1 8668   3.619   2.634   5.970
  799SOL    HW2 8669   3.570   2.790   5.974
  800SOL     OW 8670   4.261   2.835   6.049
  800SOL    HW1 8671   4.302   2.808   5.962
  800SOL    HW2 8672   4.291   2.927   6.074
  801SOL     OW 8673   2.784   4.779   0.089
  801SOL    HW1 8674   2.692   4.778   0.128
  801SOL    HW2 8675   2.839   4.849   0.134
  802SOL     OW 8676   2.907   3.158   0.338
  802SOL    HW1 8677   2.970   3.231   0.312
  802SOL    HW2 8678   2.914   3.141   0.436
  803SOL     OW 8679   3.884   1.115   1.098
  803SOL    HW1 8680   3.972   1.096   1.140
  803SOL    HW2 8681   3.820   1.041   1.120
  804SOL     OW 8682   4.032   4.922   0.950
  804SOL    HW1 8683   3.974   4.895   0.874
  804SOL    HW2 8684   4.125   4.937   0.918
  805SOL     OW 8685   5.764   5.602   0.822
  805SOL    HW1 8686   5.782   5.515   0.868
  805SOL    HW2 8687   5.829   5.613   0.746
  806SOL     OW 8688   1.282   2.778   0.079
  806SOL    HW1 8689   1.317   2.685   0.087
  806SOL    HW2 8690   1.215   2.794   0.152
  807SOL     OW 8691   3.201   3.192   5.718
  807SOL    HW1 8692   3.116   3.243   5.714
  807SOL    HW2 8693   3.212   3.152   5.809
  808SOL     OW 8694   5.777   4.953   6.264
  808SOL    HW1 8695   5.715   4.944   6.342
  808SOL    HW2 8696   5.846   4.880   6.268
  809SOL     OW 8697   3.643   3.014   0.713
  809SOL    HW1 8698   3.699   2.946   0.666
  809SOL    HW2 8699   3.663   3.105   0.676
  810SOL     OW 8700   2.405   2.765   5.072
  810SOL    HW1 8701   2.331   2.829   5.093
  810SOL    HW2 8702   2.383   2.716   4.987
  811SOL     OW 8703   5.291   0.933   6.213
  811SOL    HW1 8704   5.293   0.879   6.297
  811SOL    HW2 8705   5.358   1.007   6.219
  812SOL     OW 8706   4.536   5.327   0.559
  812SOL    HW1 8707   4.551   5.295   0.653
  812SOL    HW2 8708   4.615   5.381   0.530
  813SOL     OW 8709   2.135   2.666   5.589
  813SOL    HW1 8710   2.228   2.643   5.618
  813SOL    HW2 8711   2.089   2.716   5.662
  814SOL     OW 8712   4.183   3.192   1.066
  814SOL    HW1 8713   4.222   3.115   1.016
  814SOL    HW2 8714   4.231   3.203   1.153
  815SOL     OW 8715   2.226   5.774   4.991
  815SOL    HW1 8716   2.275   5.816   5.068
  815SOL    HW2 8717   2.181   5.845   4.938
  816SOL     OW 8718   1.681   4.309   6.107
  816SOL    HW1 8719   1.616   4.241   6.073
  816SOL    HW2 8720   1.741   4.338   6.033
  817SOL     OW 8721   1.705   5.595   6.293
  817SOL    HW1 8722   1.714   5.509   6.344
  817SOL    HW2 8723   1.714   5.672   6.355
  818SOL     OW 8724   5.544   3.965   1.240
  818SOL    HW1 8725   5.544   3.898   1.165
  818SOL    HW2 8726   5.587   3.926   1.321
  819SOL     OW 8727   5.505   1.938   6.216
  819SOL    HW1 8728   5.432   1.996   6.180
  819SOL    HW2 8729   5.464   1.862   6.267
  820SOL     OW 8730   3.014   3.889   1.650
  820SOL    HW1 8731   2.950   3.845   1.714
  820SOL    HW2 8732   3.104   3.897   1.693
  821SOL     OW 8733   1.611   4.100   0.335
  821SOL    HW1 8734   1.616   4.029   0.265
  821SOL    HW2 8735   1.567   4.182   0.296
  822SOL     OW 8736   6.054   5.565   6.437
  822SOL    HW1 8737   6.125   5.573   6.506
  822SOL    HW2 8738   6.095   5.570   6.346
  823SOL     OW 8739   3.620   3.592   6.056
  823SOL    HW1 8740   3.541   3.538   6.084
  823SOL    HW2 8741   3.688   3.594   6.130
  824SOL     OW 8742   3.909   3.048   5.962
  824SOL    HW1 8743   3.913   2.988   5.882
  824SOL    HW2 8744   3.998   3.090   5.977
  825SOL     OW 8745   5.303   6.233   6.055
  825SOL    HW1 8746   5.390   6.213   6.010
  825SOL    HW2 8747   5.261   6.314   6.014
  826SOL     OW 8748   4.294   2.655   0.676
  826SOL    HW1 8749   4.263   2.602   0.754
  826SOL    HW2 8750   4.283   2.601   0.592
  827SOL     OW 8751   0.502   0.662   6.464
  827SOL    HW1 8752   0.450   0.734   6.419
  827SOL    HW2 8753   0.523   0.690   6.558
  828SOL     OW 8754   0.380   3.333   1.105
  828SOL    HW1 8755   0.354   3.347   1.200
  828SOL    HW2 8756   0.421   3.417   1.068
  829SOL     OW 8757   3.587   3.810   5.877
  829SOL    HW1 8758   3.660   3.871   5.908
  829SOL    HW2 8759   3.587   3.727   5.933
  830SOL     OW 8760   6.142   2.066   0.052
  830SOL    HW1 8761   6.149   2.032   6.528
  830SOL    HW2 8762   6.107   1.993   0.111
  831SOL     OW 8763   1.764   6.345   5.612
  831SOL    HW1 8764   1.770   6.385   5.521
  831SOL    HW2 8765   1.757   6.245   5.604
  832SOL     OW 8766   3.212   0.393   0.493
  832SOL    HW1 8767   3.300   0.389   0.447
  832SOL    HW2 8768   3.181   0.301   0.517
  833SOL     OW 8769   4.263   3.868   1.098
  833SOL    HW1 8770   4.178   3.858   1.149
  833SOL    HW2 8771   4.287   3.781   1.056
  834SOL     OW 8772   6.243   4.785   5.668
  834SOL    HW1 8773   6.311   4.832   5.612
  834SOL    HW2 8774   6.155   4.786   5.621
  835SOL     OW 8775   1.370   3.472   0.550
  835SOL    HW1 8776   1.453   3.520   0.524
  835SOL    HW2 8777   1.381   3.374   0.532
  836SOL     OW 8778   0.469   1.641   6.000
  836SOL    HW1 8779   0.536   1.697   6.048
  836SOL    HW2 8780   0.396   1.699   5.965
  837SOL     OW 8781   1.978   5.041   0.270
  837SOL    HW1 8782   2.003   5.138   0.271
  837SOL    HW2 8783   2.033   4.993   0.202
  838SOL     OW 8784   6.183   1.196   1.310
  838SOL    HW1 8785   6.111   1.201   1.379
  838SOL    HW2 8786   6.247   1.123   1.335
  839SOL     OW 8787   3.848   2.450   1.808
  839SOL    HW1 8788   3.912   2.398   1.864
  839SOL    HW2 8789   3.757   2.409   1.816
  840SOL     OW 8790   6.022   0.749   4.884
  840SOL    HW1 8791   6.032   0.847   4.896
  840SOL    HW2 8792   6.104   0.712   4.841
  841SOL     OW 8793   1.926   1.402   0.341
  841SOL    HW1 8794   1.935   1.352   0.427
  841SOL    HW2 8795   2.011   1.452   0.323
  842SOL     OW 8796   3.926   2.208   5.509
  842SOL    HW1 8797   3.925   2.152   5.426
  842SOL    HW2 8798   4.018   2.208   5.548
  843SOL     OW 8799   4.806   4.384   2.227
  843SOL    HW1 8800   4.762   4.311   2.280
  843SOL    HW2 8801   4.905   4.381   2.242
  844SOL     OW 8802   6.262   3.225   0.948
  844SOL    HW1 8803   0.025   3.242   0.940
  844SOL    HW2 8804   6.242   3.130   0.924
  845SOL     OW 8805   3.608   5.786   6.491
  845SOL    HW1 8806   3.675   5.860   6.482
  845SOL    HW2 8807   3.553   5.801   0.004
  846SOL     OW 8808   5.727   1.193   6.149
  846SOL    HW1 8809   5.707   1.188   6.051
  846SOL    HW2 8810   5.736   1.289   6.176
  847SOL     OW 8811   5.399   2.312   5.690
  847SOL    HW1 8812   5.373   2.249   5.616
  847SOL    HW2 8813   5.371   2.405   5.666
  848SOL     OW 8814   0.200   3.238   0.927
  848SOL    HW1 8815   0.268   3.275   0.991
  848SOL    HW2 8816   0.209   3.138   0.924
  849SOL     OW 8817   6.205   3.053   0.143
  849SOL    HW1 8818   6.232   3.054   0.047
  849SOL    HW2 8819   6.114   3.013   0.153
  850SOL     OW 8820   5.231   2.297   0.288
  850SOL    HW1 8821   5.314   2.352   0.283
  850SOL    HW2 8822   5.197   2.296   0.382
  851SOL     OW 8823   1.263   0.011   1.708
  851SOL    HW1 8824   1.193   0.081   1.715
  851SOL    HW2 8825   1.256   6.354   1.787
  852SOL     OW 8826   5.238   5.030   0.705
  852SOL    HW1 8827   5.303   4.990   0.771
  852SOL    HW2 8828   5.154   4.976   0.704
  853SOL     OW 8829   1.564   1.650   0.015
  853SOL    HW1 8830   1.561   1.569   6.527
  853SOL    HW2 8831   1.657   1.663   0.051
  854SOL     OW 8832   2.028   1.861   6.467
  854SOL    HW1 8833   2.064   1.847   6.560
  854SOL    HW2 8834   2.021   1.772   6.421
  855SOL     OW 8835   3.738   3.700   5.407
  855SOL    HW1 8836   3.682   3.743   5.478
  855SOL    HW2 8837   3.834   3.726   5.419
  856SOL     OW 8838   3.261   5.328   1.520
  856SOL    HW1 8839   3.247   5.244   1.468
  856SOL    HW2 8840   3.352   5.327   1.562
  857SOL     OW 8841   5.183   2.025   0.001
  857SOL    HW1 8842   5.177   2.014   0.100
  857SOL    HW2 8843   5.269   2.070   6.547
  858SOL     OW 8844   2.918   3.259   1.051
  858SOL    HW1 8845   2.923   3.195   1.127
  858SOL    HW2 8846   2.929   3.352   1.085
  859SOL     OW 8847   1.414   4.588   0.688
  859SOL    HW1 8848   1.451   4.506   0.731
  859SOL    HW2 8849   1.488   4.645   0.653
  860SOL     OW 8850   3.375   2.785   0.132
  860SOL    HW1 8851   3.468   2.819   0.115
  860SOL    HW2 8852   3.310   2.840   0.080
  861SOL     OW 8853   4.688   3.849   0.767
  861SOL    HW1 8854   4.645   3.775   0.716
  861SOL    HW2 8855   4.626   3.928   0.769
  862SOL     OW 8856   4.951   1.610   6.549
  862SOL    HW1 8857   4.915   1.548   6.480
  862SOL    HW2 8858   4.969   1.559   0.064
  863SOL     OW 8859   1.338   0.250   0.331
  863SOL    HW1 8860   1.390   0.328   0.296
  863SOL    HW2 8861   1.376   0.165   0.295
  864SOL     OW 8862   5.207   5.459   0.078
  864SOL    HW1 8863   5.132   5.395   0.095
  864SOL    HW2 8864   5.293   5.417   0.107
  865SOL     OW 8865   1.600   3.406   5.888
  865SOL    HW1 8866   1.536   3.336   5.855
  865SOL    HW2 8867   1.598   3.485   5.826
  866SOL     OW 8868   0.758   3.351   5.784
  866SOL    HW1 8869   0.822   3.410   5.832
  866SOL    HW2 8870   0.798   3.260   5.772
  867SOL     OW 8871   0.364   5.887   5.388
  867SOL    HW1 8872   0.270   5.860   5.410
  867SOL    HW2 8873   0.363   5.971   5.333
  868SOL     OW 8874   3.083   1.785   0.791
  868SOL    HW1 8875   3.033   1.717   0.738
  868SOL    HW2 8876   3.041   1.794   0.882
  869SOL     OW 8877   5.935   0.103   5.761
  869SOL    HW1 8878   5.960   0.116   5.665
  869SOL    HW2 8879   5.841   0.133   5.775
  870SOL     OW 8880   3.715   2.051   5.985
  870SOL    HW1 8881   3.794   2.104   6.018
  870SOL    HW2 8882   3.725   2.036   5.887
  871SOL     OW 8883   2.013   5.163   1.098
  871SOL    HW1 8884   1.917   5.169   1.125
  871SOL    HW2 8885   2.071   5.186   1.176
  872SOL     OW 8886   5.271   3.315   1.246
  872SOL    HW1 8887   5.222   3.257   1.312
  872SOL    HW2 8888   5.364   3.331   1.279
  873SOL     OW 8889   6.234   3.997   6.024
  873SOL    HW1 8890   6.212   4.086   6.063
  873SOL    HW2 8891   6.310   3.956   6.075
  874SOL     OW 8892   2.005   0.762   5.300
  874SOL    HW1 8893   1.926   0.823   5.298
  874SOL    HW2 8894   2.052   0.767   5.212
  875SOL     OW 8895   3.642   6.252   5.858
  875SOL    HW1 8896   3.555   6.291   5.827
  875SOL    HW2 8897   3.673   6.302   5.939
  876SOL     OW 8898   2.469   0.865   5.743
  876SOL    HW1 8899   2.506   0.941   5.797
  876SOL    HW2 8900   2.508   0.867   5.651
  877SOL     OW 8901   6.310   3.163   5.858
  877SOL    HW1 8902   0.041   3.171   5.932
  877SOL    HW2 8903   6.219   3.146   5.895
  878SOL     OW 8904   3.501   0.944   6.211
  878SOL    HW1 8905   3.411   0.964   6.249
  878SOL    HW2 8906   3.496   0.938   6.112
  879SOL     OW 8907   1.068   5.351   0.238
  879SOL    HW1 8908   1.060   5.426   0.304
  879SOL    HW2 8909   1.060   5.264   0.285
  880SOL     OW 8910   5.329   4.376   0.070
  880SOL    HW1 8911   5.335   4.309   0.144
  880SOL    HW2 8912   5.287   4.460   0.105
  881SOL     OW 8913   4.118   1.375   0.892
  881SOL    HW1 8914   4.178   1.352   0.816
  881SOL    HW2 8915   4.155   1.337   0.977
  882SOL     OW 8916   1.247   1.635   1.079
  882SOL    HW1 8917   1.346   1.648   1.078
  882SOL    HW2 8918   1.225   1.549   1.126
  883SOL     OW 8919   2.389   5.983   5.925
  883SOL    HW1 8920   2.412   5.903   5.981
  883SOL    HW2 8921   2.448   5.985   5.844
  884SOL     OW 8922   0.966   0.732   5.447
  884SOL    HW1 8923   0.896   0.661   5.447
  884SOL    HW2 8924   1.048   0.698   5.493
  885SOL     OW 8925   1.721   3.493   6.330
  885SOL    HW1 8926   1.688   3.521   6.420
  885SOL    HW2 8927   1.644   3.459   6.276
  886SOL     OW 8928   2.901   3.088   1.269
  886SOL    HW1 8929   2.989   3.056   1.305
  886SOL    HW2 8930   2.842   3.009   1.251
  887SOL     OW 8931   5.446   1.640   0.739
  887SOL    HW1 8932   5.502   1.722   0.731
  887SOL    HW2 8933   5.495   1.561   0.701
  888SOL     OW 8934   1.828   3.127   6.338
  888SOL    HW1 8935   1.876   3.209   6.306
  888SOL    HW2 8936   1.846   3.114   6.436
  889SOL     OW 8937   5.611   1.512   1.127
  889SOL    HW1 8938   5.553   1.587   1.157
  889SOL    HW2 8939   5.627   1.449   1.203
  890SOL     OW 8940   3.787   3.433   5.903
  890SOL    HW1 8941   3.731   3.351   5.890
  890SOL    HW2 8942   3.733   3.502   5.951
  891SOL     OW 8943   6.219   3.706   1.323
  891SOL    HW1 8944   6.197   3.691   1.420
  891SOL    HW2 8945   6.312   3.742   1.315
  892SOL     OW 8946   4.472   1.542   0.967
  892SOL    HW1 8947   4.493   1.448   0.995
  892SOL    HW2 8948   4.480   1.603   1.046
  893SOL     OW 8949   0.871   2.852   5.860
  893SOL    HW1 8950   0.939   2.780   5.848
  893SOL    HW2 8951   0.793   2.835   5.800
  894SOL     OW 8952   0.488   0.263   5.539
  894SOL    HW1 8953   0.467   0.276   5.636
  894SOL    HW2 8954   0.501   0.166   5.520
  895SOL     OW 8955   5.999   1.388   6.367
  895SOL    HW1 8956   5.921   1.414   6.308
  895SOL    HW2 8957   5.970   1.389   6.462
  896SOL     OW 8958   0.629   6.300   6.038
  896SOL    HW1 8959   0.696   6.256   5.978
  896SOL    HW2 8960   0.657   6.290   6.133
  897SOL     OW 8961   0.358   2.625   0.713
  897SOL    HW1 8962   0.440   2.659   0.760
  897SOL    HW2 8963   0.298   2.702   0.692
  898SOL     OW 8964   2.122   1.088   6.549
  898SOL    HW1 8965   2.064   1.153   0.029
  898SOL    HW2 8966   2.072   1.055   6.469
  899SOL     OW 8967   4.222   5.180   6.353
  899SOL    HW1 8968   4.289   5.151   6.422
  899SOL    HW2 8969   4.162   5.103   6.331
  900SOL     OW 8970   4.366   6.265   1.076
  900SOL    HW1 8971   4.320   6.211   1.146
  900SOL    HW2 8972   4.440   6.211   1.035
  901SOL     OW 8973   1.631   6.361   6.107
  901SOL    HW1 8974   1.681   6.400   6.183
  901SOL    HW2 8975   1.691   6.300   6.055
  902SOL     OW 8976   2.916   4.454   0.855
  902SOL    HW1 8977   2.976   4.534   0.859
  902SOL    HW2 8978   2.948   4.392   0.783
  903SOL     OW 8979   5.937   5.568   0.238
  903SOL    HW1 8980   5.932   5.607   0.146
  903SOL    HW2 8981   5.916   5.639   0.306
  904SOL     OW 8982   4.753   1.932   6.329
  904SOL    HW1 8983   4.667   1.975   6.356
  904SOL    HW2 8984   4.796   1.986   6.256
  905SOL     OW 8985   2.200   5.918   6.341
  905SOL    HW1 8986   2.216   5.828   6.300
  905SOL    HW2 8987   2.282   5.974   6.329
  906SOL     OW 8988   6.318   3.725   0.458
  906SOL    HW1 8989   6.248   3.779   0.412
  906SOL    HW2 8990   0.072   3.743   0.415
  907SOL     OW 8991   2.003   2.950   1.570
  907SOL    HW1 8992   1.929   2.980   1.630
  907SOL    HW2 8993   1.990   2.988   1.479
  908SOL     OW 8994   1.706   3.270   0.782
  908SOL    HW1 8995   1.728   3.333   0.708
  908SOL    HW2 8996   1.786   3.256   0.840
  909SOL     OW 8997   3.263   2.526   6.177
  909SOL    HW1 8998   3.295   2.476   6.257
  909SOL    HW2 8999   3.306   2.616   6.173
  910SOL     OW 9000   3.553   6.036   6.158
  910SOL    HW1 9001   3.535   5.993   6.070
  910SOL    HW2 9002   3.652   6.033   6.177
  911SOL     OW 9003   5.223   5.461   5.769
  911SOL    HW1 9004   5.231   5.441   5.671
  911SOL    HW2 9005   5.144   5.521   5.784
  912SOL     OW 9006   3.396   2.501   0.609
  912SOL    HW1 9007   3.346   2.510   0.522
  912SOL    HW2 9008   3.477   2.444   0.595
  913SOL     OW 9009   0.967   1.509   6.501
  913SOL    HW1 9010   0.948   1.584   6.565
  913SOL    HW2 9011   1.057   1.471   6.521
  914SOL     OW 9012   3.123   3.404   6.094
  914SOL    HW1 9013   3.112   3.310   6.125
  914SOL    HW2 9014   3.155   3.461   6.170
  915SOL     OW 9015   3.792   4.658   5.710
  915SOL    HW1 9016   3.804   4.758   5.711
  915SOL    HW2 9017   3.726   4.632   5.781
  916SOL     OW 9018   2.022   1.627   6.330
  916SOL    HW1 9019   1.930   1.623   6.290
  916SOL    HW2 9020   2.089   1.640   6.258
  917SOL     OW 9021   2.409   1.832   0.298
  917SOL    HW1 9022   2.388   1.923   0.263
  917SOL    HW2 9023   2.405   1.765   0.224
  918SOL     OW 9024   3.697   5.806   5.531
  918SOL    HW1 9025   3.744   5.850   5.454
  918SOL    HW2 9026   3.694   5.868   5.609
  919SOL     OW 9027   5.125   5.154   1.717
  919SOL    HW1 9028   5.080   5.101   1.788
  919SOL    HW2 9029   5.184   5.223   1.760
  920SOL     OW 9030   3.656   4.764   0.612
  920SOL    HW1 9031   3.631   4.691   0.677
  920SOL    HW2 9032   3.653   4.727   0.519
  921SOL     OW 9033   5.247   2.975   6.229
  921SOL    HW1 9034   5.172   3.000   6.168
  921SOL    HW2 9035   5.254   3.043   6.302
  922SOL     OW 9036   4.026   1.490   0.019
  922SOL    HW1 9037   3.968   1.568   0.041
  922SOL    HW2 9038   4.089   1.473   0.095
  923SOL     OW 9039   1.427   5.435   0.326
  923SOL    HW1 9040   1.446   5.340   0.302
  923SOL    HW2 9041   1.335   5.459   0.296
  924SOL     OW 9042   1.174   0.043   5.819
  924SOL    HW1 9043   1.142   0.086   5.735
  924SOL    HW2 9044   1.238   6.375   5.798
  925SOL     OW 9045   0.700   1.691   0.674
  925SOL    HW1 9046   0.772   1.624   0.694
  925SOL    HW2 9047   0.704   1.715   0.577
  926SOL     OW 9048   5.308   3.868   0.191
  926SOL    HW1 9049   5.229   3.922   0.161
  926SOL    HW2 9050   5.322   3.880   0.289
  927SOL     OW 9051   0.282   4.472   0.721
  927SOL    HW1 9052   0.254   4.492   0.814
  927SOL    HW2 9053   0.306   4.375   0.714
  928SOL     OW 9054   0.949   0.661   0.641
  928SOL    HW1 9055   0.988   0.590   0.582
  928SOL    HW2 9056   0.859   0.687   0.606
  929SOL     OW 9057   2.657   3.111   4.393
  929SOL    HW1 9058   2.732   3.177   4.394
  929SOL    HW2 9059   2.589   3.137   4.461
  930SOL     OW 9060   1.376   4.724   6.114
  930SOL    HW1 9061   1.403   4.750   6.207
  930SOL    HW2 9062   1.347   4.629   6.113
  931SOL     OW 9063   5.724   3.126   0.081
  931SOL    HW1 9064   5.642   3.170   0.117
  931SOL    HW2 9065   5.698   3.046   0.026
  932SOL     OW 9066   1.581   0.735   6.462
  932SOL    HW1 9067   1.532   0.820   6.478
  932SOL    HW2 9068   1.613   0.732   6.367
  933SOL     OW 9069   1.514   3.068   1.137
  933SOL    HW1 9070   1.462   2.982   1.137
  933SOL    HW2 9071   1.456   3.141   1.173
  934SOL     OW 9072   3.055   5.683   0.775
  934SOL    HW1 9073   2.979   5.725   0.726
  934SOL    HW2 9074   3.134   5.675   0.714
  935SOL     OW 9075   5.407   6.201   6.566
  935SOL    HW1 9076   5.355   6.157   0.070
  935SOL    HW2 9077   5.435   6.132   6.499
  936SOL     OW 9078   0.050   0.211   5.842
  936SOL    HW1 9079   0.138   0.163   5.844
  936SOL    HW2 9080   0.037   0.260   5.927
  937SOL     OW 9081   3.179   1.616   1.045
  937SOL    HW1 9082   3.167   1.538   0.984
  937SOL    HW2 9083   3.094   1.669   1.049
  938SOL     OW 9084   4.402   0.713   5.851
  938SOL    HW1 9085   4.365   0.804   5.873
  938SOL    HW2 9086   4.501   0.719   5.845
  939SOL     OW 9087   2.477   1.750   0.792
  939SOL    HW1 9088   2.499   1.730   0.696
  939SOL    HW2 9089   2.562   1.770   0.842
  940SOL     OW 9090   4.718   5.012   6.045
  940SOL    HW1 9091   4.621   4.987   6.051
  940SOL    HW2 9092   4.771   4.952   6.104
  941SOL     OW 9093   3.534   6.008   1.876
  941SOL    HW1 9094   3.541   5.926   1.933
  941SOL    HW2 9095   3.452   6.059   1.900
  942SOL     OW 9096   5.507   6.010   6.388
  942SOL    HW1 9097   5.601   6.008   6.354
  942SOL    HW2 9098   5.444   6.004   6.310
  943SOL     OW 9099   1.613   2.230   0.482
  943SOL    HW1 9100   1.550   2.299   0.518
  943SOL    HW2 9101   1.619   2.240   0.383
  944SOL     OW 9102   5.138   4.477   0.547
  944SOL    HW1 9103   5.071   4.468   0.621
  944SOL    HW2 9104   5.167   4.572   0.540
  945SOL     OW 9105   3.383   4.722   5.765
  945SOL    HW1 9106   3.355   4.631   5.795
  945SOL    HW2 9107   3.375   4.728   5.665
  946SOL     OW 9108   2.272   1.391   6.259
  946SOL    HW1 9109   2.300   1.390   6.164
  946SOL    HW2 9110   2.322   1.463   6.308
  947SOL     OW 9111   2.685   2.774   5.031
  947SOL    HW1 9112   2.589   2.755   5.052
  947SOL    HW2 9113   2.711   2.725   4.948
  948SOL     OW 9114   3.242   6.264   1.189
  948SOL    HW1 9115   3.153   6.294   1.153
  948SOL    HW2 9116   3.315   6.313   1.141
  949SOL     OW 9117   2.510   3.814   6.541
  949SOL    HW1 9118   2.553   3.735   6.497
  949SOL    HW2 9119   2.539   3.819   0.067
  950SOL     OW 9120   4.008   0.195   4.864
  950SOL    HW1 9121   4.010   0.274   4.803
  950SOL    HW2 9122   4.101   0.161   4.878
  951SOL     OW 9123   5.096   1.514   6.043
  951SOL    HW1 9124   5.024   1.446   6.030
  951SOL    HW2 9125   5.059   1.606   6.031
  952SOL     OW 9126   2.238   2.497   0.770
  952SOL    HW1 9127   2.217   2.557   0.847
  952SOL    HW2 9128   2.181   2.415   0.775
  953SOL     OW 9129   0.396   5.166   0.323
  953SOL    HW1 9130   0.360   5.259   0.333
  953SOL    HW2 9131   0.484   5.159   0.371
  954SOL     OW 9132   0.329   4.200   0.711
  954SOL    HW1 9133   0.280   4.128   0.661
  954SOL    HW2 9134   0.416   4.219   0.665
  955SOL     OW 9135   0.476   0.055   0.194
  955SOL    HW1 9136   0.541   0.035   0.120
  955SOL    HW2 9137   0.486   6.391   0.266
  956SOL     OW 9138   3.873   2.562   4.870
  956SOL    HW1 9139   3.952   2.542   4.811
  956SOL    HW2 9140   3.795   2.590   4.814
  957SOL     OW 9141   4.373   4.944   0.220
  957SOL    HW1 9142   4.355   4.983   0.310
  957SOL    HW2 9143   4.460   4.896   0.221
  958SOL     OW 9144   0.330   4.763   0.325
  958SOL    HW1 9145   0.298   4.749   0.231
  958SOL    HW2 9146   0.287   4.845   0.363
  959SOL     OW 9147   0.236   4.441   6.259
  959SOL    HW1 9148   0.189   4.371   6.206
  959SOL    HW2 9149   0.212   4.532   6.224
  960SOL     OW 9150   6.253   1.217   0.115
  960SOL    HW1 9151   6.242   1.311   0.146
  960SOL    HW2 9152   6.163   1.174   0.108
  961SOL     OW 9153   0.650   0.374   0.860
  961SOL    HW1 9154   0.666   0.312   0.937
  961SOL    HW2 9155   0.636   0.467   0.894
  962SOL     OW 9156   0.657   3.552   0.553
  962SOL    HW1 9157   0.658   3.452   0.559
  962SOL    HW2 9158   0.638   3.580   0.460
  963SOL     OW 9159   4.731   1.212   1.677
  963SOL    HW1 9160   4.639   1.177   1.662
  963SOL    HW2 9161   4.732   1.312   1.663
  964SOL     OW 9162   6.115   2.542   0.654
  964SOL    HW1 9163   6.215   2.552   0.651
  964SOL    HW2 9164   6.073   2.613   0.598
  965SOL     OW 9165   0.728   1.177   0.291
  965SOL    HW1 9166   0.688   1.235   0.219
  965SOL    HW2 9167   0.660   1.161   0.362
  966SOL     OW 9168   2.997   3.983   6.419
  966SOL    HW1 9169   3.046   4.014   6.501
  966SOL    HW2 9170   3.036   4.028   6.338
  967SOL     OW 9171   1.884   1.197   5.689
  967SOL    HW1 9172   1.812   1.237   5.632
  967SOL    HW2 9173   1.870   1.099   5.697
  968SOL     OW 9174   5.735   4.471   0.312
  968SOL    HW1 9175   5.741   4.411   0.231
  968SOL    HW2 9176   5.641   4.502   0.324
  969SOL     OW 9177   3.368   3.042   0.709
  969SOL    HW1 9178   3.465   3.018   0.708
  969SOL    HW2 9179   3.351   3.112   0.639
  970SOL     OW 9180   3.671   0.061   5.217
  970SOL    HW1 9181   3.625   6.377   5.215
  970SOL    HW2 9182   3.751   0.058   5.157
  971SOL     OW 9183   3.156   1.883   0.542
  971SOL    HW1 9184   3.254   1.863   0.532
  971SOL    HW2 9185   3.126   1.855   0.633
  972SOL     OW 9186   3.112   4.320   6.449
  972SOL    HW1 9187   3.114   4.254   6.373
  972SOL    HW2 9188   3.040   4.387   6.433
  973SOL     OW 9189   0.385   2.776   0.284
  973SOL    HW1 9190   0.403   2.875   0.289
  973SOL    HW2 9191   0.293   2.761   0.248
  974SOL     OW 9192   0.142   4.308   0.161
  974SOL    HW1 9193   0.161   4.238   0.230
  974SOL    HW2 9194   0.054   4.351   0.181
  975SOL     OW 9195   3.120   0.287   5.370
  975SOL    HW1 9196   3.120   0.290   5.270
  975SOL    HW2 9197   3.209   0.256   5.403
  976SOL     OW 9198   6.163   0.226   0.305
  976SOL    HW1 9199   6.121   0.140   0.334
  976SOL    HW2 9200   6.261   0.224   0.325
  977SOL     OW 9201   3.537   0.212   0.947
  977SOL    HW1 9202   3.500   0.276   1.015
  977SOL    HW2 9203   3.591   0.262   0.880
  978SOL     OW 9204   2.054   2.407   5.543
  978SOL    HW1 9205   1.989   2.397   5.619
  978SOL    HW2 9206   2.091   2.500   5.543
  979SOL     OW 9207   4.584   4.274   1.291
  979SOL    HW1 9208   4.540   4.193   1.252
  979SOL    HW2 9209   4.676   4.284   1.251
  980SOL     OW 9210   3.786   3.970   5.973
  980SOL    HW1 9211   3.858   3.915   6.015
  980SOL    HW2 9212   3.817   4.065   5.964
  981SOL     OW 9213   1.912   4.186   0.780
  981SOL    HW1 9214   1.853   4.185   0.698
  981SOL    HW2 9215   1.929   4.093   0.810
  982SOL     OW 9216   1.268   4.196   0.307
  982SOL    HW1 9217   1.204   4.251   0.360
  982SOL    HW2 9218   1.219   4.147   0.235
  983SOL     OW 9219   5.107   1.617   5.522
  983SOL    HW1 9220   5.142   1.684   5.588
  983SOL    HW2 9221   5.122   1.650   5.429
  984SOL     OW 9222   2.246   0.864   5.901
  984SOL    HW1 9223   2.278   0.856   5.995
  984SOL    HW2 9224   2.324   0.860   5.838
  985SOL     OW 9225   2.621   3.414   4.991
  985SOL    HW1 9226   2.686   3.484   4.961
  985SOL    HW2 9227   2.531   3.455   5.006
  986SOL     OW 9228   3.909   6.344   6.276
  986SOL    HW1 9229   3.932   6.283   6.201
  986SOL    HW2 9230   3.993   6.376   6.320
  987SOL     OW 9231   5.095   2.179   1.648
  987SOL    HW1 9232   5.150   2.135   1.577
  987SOL    HW2 9233   5.144   2.258   1.684
  988SOL     OW 9234   5.775   4.372   0.768
  988SOL    HW1 9235   5.806   4.396   0.676
  988SOL    HW2 9236   5.847   4.389   0.834
  989SOL     OW 9237   4.206   1.175   5.032
  989SOL    HW1 9238   4.161   1.086   5.042
  989SOL    HW2 9239   4.305   1.163   5.035
  990SOL     OW 9240   5.757   0.245   4.976
  990SOL    HW1 9241   5.709   0.193   4.905
  990SOL    HW2 9242   5.855   0.242   4.959
  991SOL     OW 9243   0.877   1.938   6.351
  991SOL    HW1 9244   0.797   1.981   6.308
  991SOL    HW2 9245   0.849   1.895   6.437
  992SOL     OW 9246   6.240   2.896   0.627
  992SOL    HW1 9247   6.176   2.840   0.574
  992SOL    HW2 9248   6.229   2.992   0.602
  993SOL     OW 9249   2.446   2.267   5.462
  993SOL    HW1 9250   2.468   2.362   5.482
  993SOL    HW2 9251   2.497   2.238   5.381
  994SOL     OW 9252   5.332   0.823   6.469
  994SOL    HW1 9253   5.263   0.858   6.532
  994SOL    HW2 9254   5.423   0.840   6.507
  995SOL     OW 9255   4.800   0.283   5.789
  995SOL    HW1 9256   4.774   0.362   5.844
  995SOL    HW2 9257   4.767   0.199   5.834
  996SOL     OW 9258   0.767   5.954   0.545
  996SOL    HW1 9259   0.702   6.016   0.588
  996SOL    HW2 9260   0.856   5.965   0.588
  997SOL     OW 9261   4.325   2.185   0.415
  997SOL    HW1 9262   4.332   2.128   0.334
  997SOL    HW2 9263   4.352   2.133   0.496
  998SOL     OW 9264   4.064   2.671   6.166
  998SOL    HW1 9265   3.998   2.632   6.102
  998SOL    HW2 9266   4.120   2.739   6.118
  999SOL     OW 9267   2.478   2.366   1.155
  999SOL    HW1 9268   2.573   2.368   1.186
  999SOL    HW2 9269   2.418   2.345   1.232
 1000SOL     OW 9270   2.195   5.335   0.508
 1000SOL    HW1 9271   2.140   5.312   0.429
 1000SOL    HW2 9272   2.203   5.434   0.517
 1001SOL     OW 9273   0.581   2.712   0.838
 1001SOL    HW1 9274   0.594   2.620   0.875
 1001SOL    HW2 9275   0.580   2.778   0.914
 1002SOL     OW 9276   2.683   0.316   5.562
 1002SOL    HW1 9277   2.657   0.378   5.488
 1002SOL    HW2 9278   2.782   0.314   5.572
 1003SOL     OW 9279   1.502   4.093   6.048
 1003SOL    HW1 9280   1.412   4.134   6.058
 1003SOL    HW2 9281   1.502   4.028   5.972
 1004SOL     OW 9282   0.294   3.684   0.045
 1004SOL    HW1 9283   0.310   3.587   0.065
 1004SOL    HW2 9284   0.279   3.734   0.130
 1005SOL     OW 9285   6.091   1.013   4.940
 1005SOL    HW1 9286   6.033   1.080   4.893
 1005SOL    HW2 9287   6.187   1.033   4.920
 1006SOL     OW 9288   2.229   5.080   0.624
 1006SOL    HW1 9289   2.208   5.169   0.584
 1006SOL    HW2 9290   2.189   5.074   0.715
 1007SOL     OW 9291   3.891   6.359   0.715
 1007SOL    HW1 9292   3.978   6.366   0.667
 1007SOL    HW2 9293   3.865   6.263   0.723
 1008SOL     OW 9294   3.541   3.818   4.703
 1008SOL    HW1 9295   3.497   3.760   4.635
 1008SOL    HW2 9296   3.640   3.801   4.704
 1009SOL     OW 9297   0.350   5.106   5.218
 1009SOL    HW1 9298   0.343   5.200   5.182
 1009SOL    HW2 9299   0.441   5.091   5.256
 1010SOL     OW 9300   2.407   3.704   1.046
 1010SOL    HW1 9301   2.422   3.742   1.138
 1010SOL    HW2 9302   2.317   3.661   1.043
 1011SOL     OW 9303   0.311   2.301   6.021
 1011SOL    HW1 9304   0.334   2.336   5.930
 1011SOL    HW2 9305   0.313   2.201   6.020
 1012SOL     OW 9306   0.369   2.765   5.459
 1012SOL    HW1 9307   0.271   2.786   5.458
 1012SOL    HW2 9308   0.414   2.810   5.382
 1013SOL     OW 9309   3.831   0.846   1.484
 1013SOL    HW1 9310   3.869   0.885   1.567
 1013SOL    HW2 9311   3.773   0.913   1.438
 1014SOL     OW 9312   5.470   2.393   6.389
 1014SOL    HW1 9313   5.556   2.357   6.352
 1014SOL    HW2 9314   5.479   2.491   6.404
 1015SOL     OW 9315   4.619   3.460   6.548
 1015SOL    HW1 9316   4.550   3.467   0.050
 1015SOL    HW2 9317   4.580   3.414   6.468
 1016SOL     OW 9318   6.317   3.718   0.144
 1016SOL    HW1 9319   6.244   3.767   0.190
 1016SOL    HW2 9320   0.071   3.751   0.178
 1017SOL     OW 9321   0.395   5.587   0.533
 1017SOL    HW1 9322   0.312   5.628   0.572
 1017SOL    HW2 9323   0.473   5.647   0.551
 1018SOL     OW 9324   5.509   2.917   1.096
 1018SOL    HW1 9325   5.606   2.915   1.074
 1018SOL    HW2 9326   5.458   2.862   1.030
 1019SOL     OW 9327   0.999   5.065   5.651
 1019SOL    HW1 9328   1.058   5.119   5.710
 1019SOL    HW2 9329   1.022   4.968   5.661
 1020SOL     OW 9330   2.841   5.842   0.341
 1020SOL    HW1 9331   2.860   5.829   0.243
 1020SOL    HW2 9332   2.784   5.766   0.373
 1021SOL     OW 9333   3.805   5.928   5.308
 1021SOL    HW1 9334   3.744   5.953   5.233
 1021SOL    HW2 9335   3.865   5.854   5.279
 1022SOL     OW 9336   4.999   5.351   0.888
 1022SOL    HW1 9337   5.073   5.313   0.944
 1022SOL    HW2 9338   4.973   5.440   0.924
 1023SOL     OW 9339   2.214   4.294   6.275
 1023SOL    HW1 9340   2.215   4.364   6.346
 1023SOL    HW2 9341   2.197   4.205   6.316
 1024SOL     OW 9342   5.872   1.377   5.560
 1024SOL    HW1 9343   5.834   1.384   5.652
 1024SOL    HW2 9344   5.798   1.368   5.493
 1025SOL     OW 9345   3.454   4.355   0.503
 1025SOL    HW1 9346   3.452   4.326   0.599
 1025SOL    HW2 9347   3.503   4.287   0.449
 1026SOL     OW 9348   0.681   2.006   0.214
 1026SOL    HW1 9349   0.618   2.077   0.248
 1026SOL    HW2 9350   0.752   1.990   0.282
 1027SOL     OW 9351   0.310   4.836   5.273
 1027SOL    HW1 9352   0.317   4.929   5.239
 1027SOL    HW2 9353   0.235   4.789   5.225
 1028SOL     OW 9354   3.112   0.297   0.852
 1028SOL    HW1 9355   3.038   0.340   0.801
 1028SOL    HW2 9356   3.080   0.273   0.943
 1029SOL     OW 9357   3.352   4.841   0.172
 1029SOL    HW1 9358   3.277   4.891   0.127
 1029SOL    HW2 9359   3.329   4.827   0.268
 1030SOL     OW 9360   2.651   4.153   4.919
 1030SOL    HW1 9361   2.569   4.118   4.873
 1030SOL    HW2 9362   2.704   4.209   4.855
 1031SOL     OW 9363   1.917   3.212   0.943
 1031SOL    HW1 9364   1.979   3.136   0.923
 1031SOL    HW2 9365   1.872   3.196   1.031
 1032SOL     OW 9366   4.014   3.860   5.675
 1032SOL    HW1 9367   4.062   3.806   5.744
 1032SOL    HW2 9368   4.023   3.816   5.586
 1033SOL     OW 9369   3.903   4.183   6.533
 1033SOL    HW1 9370   3.934   4.110   0.025
 1033SOL    HW2 9371   3.830   4.148   6.475
 1034SOL     OW 9372   3.221   5.906   1.165
 1034SOL    HW1 9373   3.168   5.977   1.212
 1034SOL    HW2 9374   3.159   5.848   1.112
 1035SOL     OW 9375   1.051   1.364   5.082
 1035SOL    HW1 9376   0.991   1.311   5.022
 1035SOL    HW2 9377   1.130   1.396   5.031
 1036SOL     OW 9378   5.308   4.692   0.982
 1036SOL    HW1 9379   5.314   4.595   0.957
 1036SOL    HW2 9380   5.215   4.724   0.967
 1037SOL     OW 9381   4.093   2.514   4.718
 1037SOL    HW1 9382   4.146   2.581   4.666
 1037SOL    HW2 9383   4.113   2.422   4.684
 1038SOL     OW 9384   1.496   0.556   5.620
 1038SOL    HW1 9385   1.457   0.549   5.528
 1038SOL    HW2 9386   1.487   0.469   5.667
 1039SOL     OW 9387   1.570   0.075   0.714
 1039SOL    HW1 9388   1.629   0.154   0.727
 1039SOL    HW2 9389   1.528   0.050   0.801
 1040SOL     OW 9390   1.754   4.296   1.172
 1040SOL    HW1 9391   1.841   4.294   1.222
 1040SOL    HW2 9392   1.690   4.357   1.220
 1041SOL     OW 9393   0.480   3.342   6.241
 1041SOL    HW1 9394   0.519   3.270   6.184
 1041SOL    HW2 9395   0.405   3.386   6.192
 1042SOL     OW 9396   5.094   1.667   5.244
 1042SOL    HW1 9397   5.051   1.585   5.208
 1042SOL    HW2 9398   5.121   1.727   5.169
 1043SOL     OW 9399   6.310   1.091   0.697
 1043SOL    HW1 9400   6.286   1.024   0.627
 1043SOL    HW2 9401   0.074   1.108   0.694
 1044SOL     OW 9402   2.035   2.719   4.811
 1044SOL    HW1 9403   1.960   2.707   4.746
 1044SOL    HW2 9404   2.006   2.784   4.882
 1045SOL     OW 9405   5.436   1.971   1.117
 1045SOL    HW1 9406   5.510   2.021   1.161
 1045SOL    HW2 9407   5.401   2.024   1.040
 1046SOL     OW 9408   3.617   1.401   0.268
 1046SOL    HW1 9409   3.617   1.496   0.300
 1046SOL    HW2 9410   3.567   1.395   0.182
 1047SOL     OW 9411   1.597   5.909   0.794
 1047SOL    HW1 9412   1.534   5.969   0.844
 1047SOL    HW2 9413   1.575   5.813   0.815
 1048SOL     OW 9414   0.954   2.979   0.104
 1048SOL    HW1 9415   0.874   2.985   0.164
 1048SOL    HW2 9416   0.936   2.913   0.031
 1049SOL     OW 9417   4.831   5.757   5.618
 1049SOL    HW1 9418   4.743   5.736   5.575
 1049SOL    HW2 9419   4.857   5.851   5.597
 1050SOL     OW 9420   3.927   6.156   0.088
 1050SOL    HW1 9421   4.012   6.129   0.042
 1050SOL    HW2 9422   3.948   6.216   0.165
 1051SOL     OW 9423   0.719   3.473   1.078
 1051SOL    HW1 9424   0.767   3.412   1.015
 1051SOL    HW2 9425   0.634   3.505   1.037
 1052SOL     OW 9426   1.567   5.756   5.313
 1052SOL    HW1 9427   1.478   5.710   5.318
 1052SOL    HW2 9428   1.594   5.787   5.404
 1053SOL     OW 9429   0.300   5.782   1.337
 1053SOL    HW1 9430   0.321   5.749   1.429
 1053SOL    HW2 9431   0.362   5.856   1.313
 1054SOL     OW 9432   1.113   5.403   6.546
 1054SOL    HW1 9433   1.041   5.467   6.518
 1054SOL    HW2 9434   1.103   5.383   0.074
 1055SOL     OW 9435   0.079   1.272   5.899
 1055SOL    HW1 9436   0.165   1.314   5.928
 1055SOL    HW2 9437   0.090   1.231   5.809
 1056SOL     OW 9438   3.973   4.816   0.096
 1056SOL    HW1 9439   3.914   4.754   0.148
 1056SOL    HW2 9440   3.997   4.895   0.152
 1057SOL     OW 9441   6.255   0.382   6.448
 1057SOL    HW1 9442   6.157   0.379   6.430
 1057SOL    HW2 9443   6.297   0.295   6.421
 1058SOL     OW 9444   3.815   0.472   5.633
 1058SOL    HW1 9445   3.748   0.525   5.580
 1058SOL    HW2 9446   3.784   0.377   5.641
 1059SOL     OW 9447   6.226   1.452   5.813
 1059SOL    HW1 9448   6.301   1.396   5.849
 1059SOL    HW2 9449   6.233   1.545   5.851
 1060SOL     OW 9450   5.003   1.456   0.205
 1060SOL    HW1 9451   5.098   1.458   0.238
 1060SOL    HW2 9452   4.941   1.475   0.281
 1061SOL     OW 9453   5.621   0.849   6.193
 1061SOL    HW1 9454   5.571   0.931   6.222
 1061SOL    HW2 9455   5.629   0.848   6.093
 1062SOL     OW 9456   0.308   6.101   6.540
 1062SOL    HW1 9457   0.378   6.068   0.034
 1062SOL    HW2 9458   0.352   6.134   6.457
 1063SOL     OW 9459   4.321   4.991   1.142
 1063SOL    HW1 9460   4.242   4.950   1.187
 1063SOL    HW2 9461   4.332   5.086   1.174
 1064SOL     OW 9462   6.028   1.354   5.968
 1064SOL    HW1 9463   6.098   1.395   5.909
 1064SOL    HW2 9464   6.058   1.262   5.996
 1065SOL     OW 9465   4.901   1.269   0.027
 1065SOL    HW1 9466   4.936   1.329   0.098
 1065SOL    HW2 9467   4.869   1.323   6.519
 1066SOL     OW 9468   6.273   2.809   6.209
 1066SOL    HW1 9469   0.023   2.858   6.191
 1066SOL    HW2 9470   6.283   2.754   6.292
 1067SOL     OW 9471   2.574   5.873   0.798
 1067SOL    HW1 9472   2.502   5.917   0.852
 1067SOL    HW2 9473   2.533   5.828   0.719
 1068SOL     OW 9474   2.849   3.752   1.816
 1068SOL    HW1 9475   2.891   3.672   1.858
 1068SOL    HW2 9476   2.749   3.740   1.814
 1069SOL     OW 9477   1.463   3.946   0.944
 1069SOL    HW1 9478   1.546   3.978   0.989
 1069SOL    HW2 9479   1.468   3.848   0.929
 1070SOL     OW 9480   1.344   0.611   6.017
 1070SOL    HW1 9481   1.361   0.558   6.100
 1070SOL    HW2 9482   1.422   0.673   6.001
 1071SOL     OW 9483   3.601   3.175   1.151
 1071SOL    HW1 9484   3.524   3.173   1.215
 1071SOL    HW2 9485   3.680   3.130   1.193
 1072SOL     OW 9486   5.867   2.532   6.333
 1072SOL    HW1 9487   5.841   2.606   6.271
 1072SOL    HW2 9488   5.825   2.547   6.422
 1073SOL     OW 9489   4.526   3.956   6.388
 1073SOL    HW1 9490   4.449   4.020   6.393
 1073SOL    HW2 9491   4.611   4.007   6.371
 1074SOL     OW 9492   4.007   5.193   0.515
 1074SOL    HW1 9493   4.096   5.233   0.495
 1074SOL    HW2 9494   3.940   5.265   0.532
 1075SOL     OW 9495   1.339   5.209   5.546
 1075SOL    HW1 9496   1.268   5.253   5.490
 1075SOL    HW2 9497   1.412   5.176   5.486
 1076SOL     OW 9498   5.550   6.167   5.950
 1076SOL    HW1 9499   5.603   6.085   5.970
 1076SOL    HW2 9500   5.589   6.244   6.001
 1077SOL     OW 9501   2.863   6.283   6.564
 1077SOL    HW1 9502   2.822   6.300   6.474
 1077SOL    HW2 9503   2.918   6.199   6.559
 1078SOL     OW 9504   1.590   0.512   0.724
 1078SOL    HW1 9505   1.603   0.571   0.803
 1078SOL    HW2 9506   1.636   0.425   0.739
 1079SOL     OW 9507   3.635   4.879   0.918
 1079SOL    HW1 9508   3.613   4.907   1.011
 1079SOL    HW2 9509   3.701   4.803   0.920
 1080SOL     OW 9510   2.887   0.636   4.946
 1080SOL    HW1 9511   2.924   0.717   4.901
 1080SOL    HW2 9512   2.953   0.562   4.941
 1081SOL     OW 9513   4.573   5.208   0.302
 1081SOL    HW1 9514   4.549   5.270   0.228
 1081SOL    HW2 9515   4.551   5.251   0.390
 1082SOL     OW 9516   6.317   5.363   0.742
 1082SOL    HW1 9517   6.221   5.342   0.724
 1082SOL    HW2 9518   0.038   5.335   0.664
 1083SOL     OW 9519   3.910   5.735   0.033
 1083SOL    HW1 9520   3.993   5.769   0.079
 1083SOL    HW2 9521   3.870   5.809   6.549
 1084SOL     OW 9522   3.886   2.761   0.068
 1084SOL    HW1 9523   3.914   2.665   0.080
 1084SOL    HW2 9524   3.923   2.795   6.551
 1085SOL     OW 9525   0.994   0.399   5.735
 1085SOL    HW1 9526   1.085   0.412   5.774
 1085SOL    HW2 9527   1.001   0.395   5.635
 1086SOL     OW 9528   0.840   2.288   1.314
 1086SOL    HW1 9529   0.935   2.316   1.321
 1086SOL    HW2 9530   0.801   2.277   1.406
 1087SOL     OW 9531   2.653   5.257   5.427
 1087SOL    HW1 9532   2.727   5.215   5.375
 1087SOL    HW2 9533   2.643   5.209   5.515
 1088SOL     OW 9534   6.222   5.694   1.421
 1088SOL    HW1 9535   6.129   5.669   1.392
 1088SOL    HW2 9536   6.219   5.725   1.516
 1089SOL     OW 9537   0.125   3.409   5.324
 1089SOL    HW1 9538   0.152   3.488   5.270
 1089SOL    HW2 9539   0.033   3.381   5.299
 1090SOL     OW 9540   1.866   5.613   0.833
 1090SOL    HW1 9541   1.769   5.587   0.827
 1090SOL    HW2 9542   1.921   5.531   0.850
 1091SOL     OW 9543   4.830   5.630   0.321
 1091SOL    HW1 9544   4.794   5.723   0.320
 1091SOL    HW2 9545   4.807   5.584   0.235
 1092SOL     OW 9546   4.502   0.139   5.182
 1092SOL    HW1 9547   4.511   0.108   5.087
 1092SOL    HW2 9548   4.442   0.077   5.232
 1093SOL     OW 9549   6.178   6.191   5.383
 1093SOL    HW1 9550   6.132   6.174   5.295
 1093SOL    HW2 9551   6.117   6.242   5.443
 1094SOL     OW 9552   0.273   5.815   0.300
 1094SOL    HW1 9553   0.357   5.774   0.263
 1094SOL    HW2 9554   0.200   5.747   0.301
 1095SOL     OW 9555   4.474   4.093   5.001
 1095SOL    HW1 9556   4.376   4.114   4.999
 1095SOL    HW2 9557   4.522   4.153   4.936
 1096SOL     OW 9558   2.036   1.038   0.452
 1096SOL    HW1 9559   2.013   0.941   0.439
 1096SOL    HW2 9560   2.123   1.058   0.406
 1097SOL     OW 9561   3.662   1.743   5.065
 1097SOL    HW1 9562   3.628   1.678   4.997
 1097SOL    HW2 9563   3.641   1.836   5.035
 1098SOL     OW 9564   3.584   3.478   0.719
 1098SOL    HW1 9565   3.598   3.568   0.760
 1098SOL    HW2 9566   3.568   3.410   0.791
 1099SOL     OW 9567   4.896   2.803   1.060
 1099SOL    HW1 9568   4.826   2.864   1.097
 1099SOL    HW2 9569   4.987   2.838   1.083
 1100SOL     OW 9570   3.755   4.279   6.209
 1100SOL    HW1 9571   3.746   4.196   6.264
 1100SOL    HW2 9572   3.674   4.289   6.150
 1101SOL     OW 9573   1.087   0.716   0.127
 1101SOL    HW1 9574   1.111   0.703   0.223
 1101SOL    HW2 9575   0.987   0.720   0.118
 1102SOL     OW 9576   2.651   4.359   5.369
 1102SOL    HW1 9577   2.610   4.299   5.300
 1102SOL    HW2 9578   2.749   4.342   5.375
 1103SOL     OW 9579   2.849   2.705   4.544
 1103SOL    HW1 9580   2.783   2.740   4.478
 1103SOL    HW2 9581   2.938   2.748   4.528
 1104SOL     OW 9582   3.118   4.414   1.351
 1104SOL    HW1 9583   3.056   4.393   1.427
 1104SOL    HW2 9584   3.080   4.377   1.266
 1105SOL     OW 9585   1.604   0.994   6.138
 1105SOL    HW1 9586   1.679   1.028   6.081
 1105SOL    HW2 9587   1.520   1.042   6.113
 1106SOL     OW 9588   3.047   3.787   0.464
 1106SOL    HW1 9589   3.055   3.869   0.520
 1106SOL    HW2 9590   2.960   3.789   0.414
 1107SOL     OW 9591   6.055   1.611   1.037
 1107SOL    HW1 9592   6.098   1.551   1.104
 1107SOL    HW2 9593   6.075   1.578   0.945
 1108SOL     OW 9594   2.701   0.945   0.238
 1108SOL    HW1 9595   2.749   1.026   0.272
 1108SOL    HW2 9596   2.662   0.964   0.148
 1109SOL     OW 9597   4.669   6.233   0.748
 1109SOL    HW1 9598   4.600   6.300   0.774
 1109SOL    HW2 9599   4.757   6.278   0.736
 1110SOL     OW 9600   2.396   0.241   1.004
 1110SOL    HW1 9601   2.481   0.198   1.033
 1110SOL    HW2 9602   2.378   0.321   1.061
 1111SOL     OW 9603   4.243   0.461   0.667
 1111SOL    HW1 9604   4.306   0.452   0.745
 1111SOL    HW2 9605   4.156   0.500   0.699
 1112SOL     OW 9606   4.247   2.484   1.106
 1112SOL    HW1 9607   4.219   2.485   1.010
 1112SOL    HW2 9608   4.287   2.572   1.130
 1113SOL     OW 9609   4.996   5.972   6.203
 1113SOL    HW1 9610   4.980   5.936   6.112
 1113SOL    HW2 9611   5.040   5.902   6.260
 1114SOL     OW 9612   5.831   5.762   0.408
 1114SOL    HW1 9613   5.863   5.856   0.413
 1114SOL    HW2 9614   5.736   5.761   0.375
 1115SOL     OW 9615   4.677   2.192   5.486
 1115SOL    HW1 9616   4.761   2.211   5.537
 1115SOL    HW2 9617   4.700   2.151   5.398
 1116SOL     OW 9618   5.331   5.057   0.447
 1116SOL    HW1 9619   5.297   5.046   0.540
 1116SOL    HW2 9620   5.405   5.125   0.447
 1117SOL     OW 9621   3.834   0.428   0.284
 1117SOL    HW1 9622   3.859   0.352   0.224
 1117SOL    HW2 9623   3.796   0.502   0.229
 1118SOL     OW 9624   5.644   1.368   0.070
 1118SOL    HW1 9625   5.593   1.443   0.027
 1118SOL    HW2 9626   5.598   1.281   0.050
 1119SOL     OW 9627   2.263   2.863   0.517
 1119SOL    HW1 9628   2.334   2.856   0.587
 1119SOL    HW2 9629   2.285   2.937   0.454
 1120SOL     OW 9630   5.484   4.564   0.395
 1120SOL    HW1 9631   5.448   4.481   0.436
 1120SOL    HW2 9632   5.490   4.636   0.464
 1121SOL     OW 9633   4.612   2.718   0.330
 1121SOL    HW1 9634   4.517   2.687   0.339
 1121SOL    HW2 9635   4.612   2.813   0.298
 1122SOL     OW 9636   1.852   4.071   0.065
 1122SOL    HW1 9637   1.942   4.061   0.106
 1122SOL    HW2 9638   1.816   4.162   0.084
 1123SOL     OW 9639   5.662   0.502   0.412
 1123SOL    HW1 9640   5.568   0.534   0.397
 1123SOL    HW2 9641   5.726   0.571   0.378
 1124SOL     OW 9642   0.286   5.415   0.352
 1124SOL    HW1 9643   0.210   5.454   0.300
 1124SOL    HW2 9644   0.329   5.486   0.407
 1125SOL     OW 9645   5.321   1.279   0.913
 1125SOL    HW1 9646   5.307   1.250   0.818
 1125SOL    HW2 9647   5.287   1.372   0.924
 1126SOL     OW 9648   0.307   5.614   0.879
 1126SOL    HW1 9649   0.335   5.697   0.927
 1126SOL    HW2 9650   0.253   5.638   0.799
 1127SOL     OW 9651   1.833   5.860   0.935
 1127SOL    HW1 9652   1.851   5.767   0.902
 1127SOL    HW2 9653   1.746   5.893   0.898
 1128SOL     OW 9654   5.937   2.043   5.668
 1128SOL    HW1 9655   5.907   1.948   5.658
 1128SOL    HW2 9656   5.922   2.091   5.581
 1129SOL     OW 9657   2.462   6.379   0.267
 1129SOL    HW1 9658   2.534   0.022   0.215
 1129SOL    HW2 9659   2.476   6.280   0.260
 1130SOL     OW 9660   4.230   2.565   5.727
 1130SOL    HW1 9661   4.252   2.503   5.803
 1130SOL    HW2 9662   4.290   2.544   5.650
 1131SOL     OW 9663   1.171   3.889   6.492
 1131SOL    HW1 9664   1.147   3.950   6.567
 1131SOL    HW2 9665   1.111   3.809   6.493
 1132SOL     OW 9666   0.057   2.108   6.341
 1132SOL    HW1 9667   6.307   2.056   6.351
 1132SOL    HW2 9668   0.041   2.187   6.282
 1133SOL     OW 9669   5.221   3.414   6.183
 1133SOL    HW1 9670   5.203   3.506   6.148
 1133SOL    HW2 9671   5.171   3.401   6.269
 1134SOL     OW 9672   5.913   1.003   6.241
 1134SOL    HW1 9673   6.007   1.036   6.230
 1134SOL    HW2 9674   5.850   1.071   6.205
 1135SOL     OW 9675   4.555   2.125   6.396
 1135SOL    HW1 9676   4.601   2.185   6.330
 1135SOL    HW2 9677   4.456   2.133   6.385
 1136SOL     OW 9678   2.859   2.424   6.355
 1136SOL    HW1 9679   2.904   2.334   6.356
 1136SOL    HW2 9680   2.921   2.491   6.315
 1137SOL     OW 9681   0.860   6.130   0.894
 1137SOL    HW1 9682   0.798   6.052   0.909
 1137SOL    HW2 9683   0.814   6.214   0.920
 1138SOL     OW 9684   5.336   1.502   1.637
 1138SOL    HW1 9685   5.290   1.416   1.663
 1138SOL    HW2 9686   5.351   1.557   1.719
 1139SOL     OW 9687   5.274   2.732   0.011
 1139SOL    HW1 9688   5.201   2.667   6.557
 1139SOL    HW2 9689   5.236   2.825   0.015
 1140SOL     OW 9690   1.056   4.868   6.078
 1140SOL    HW1 9691   1.151   4.894   6.058
 1140SOL    HW2 9692   1.040   4.873   6.176
 1141SOL     OW 9693   2.285   5.265   0.936
 1141SOL    HW1 9694   2.238   5.179   0.914
 1141SOL    HW2 9695   2.340   5.253   1.018
 1142SOL     OW 9696   0.491   0.049   0.876
 1142SOL    HW1 9697   0.396   0.056   0.846
 1142SOL    HW2 9698   0.500   0.090   0.967
 1143SOL     OW 9699   3.185   0.041   0.775
 1143SOL    HW1 9700   3.122   6.376   0.811
 1143SOL    HW2 9701   3.163   0.130   0.815
 1144SOL     OW 9702   5.737   1.786   5.856
 1144SOL    HW1 9703   5.777   1.782   5.764
 1144SOL    HW2 9704   5.644   1.824   5.850
 1145SOL     OW 9705   3.368   2.405   6.402
 1145SOL    HW1 9706   3.386   2.441   6.494
 1145SOL    HW2 9707   3.452   2.367   6.364
 1146SOL     OW 9708   3.134   6.320   4.851
 1146SOL    HW1 9709   3.214   6.351   4.799
 1146SOL    HW2 9710   3.122   6.222   4.837
 1147SOL     OW 9711   5.443   2.475   0.326
 1147SOL    HW1 9712   5.533   2.452   0.290
 1147SOL    HW2 9713   5.421   2.569   0.301
 1148SOL     OW 9714   6.196   0.014   5.812
 1148SOL    HW1 9715   6.104   0.051   5.795
 1148SOL    HW2 9716   6.261   0.090   5.821
 1149SOL     OW 9717   0.121   1.782   0.086
 1149SOL    HW1 9718   0.195   1.725   0.121
 1149SOL    HW2 9719   0.039   1.768   0.141
 1150SOL     OW 9720   4.342   0.453   0.174
 1150SOL    HW1 9721   4.312   0.425   0.265
 1150SOL    HW2 9722   4.346   0.372   0.115
 1151SOL     OW 9723   1.077   6.065   0.126
 1151SOL    HW1 9724   1.003   5.997   0.127
 1151SOL    HW2 9725   1.086   6.102   0.033
 1152SOL     OW 9726   5.840   0.674   5.074
 1152SOL    HW1 9727   5.904   0.682   4.997
 1152SOL    HW2 9728   5.765   0.739   5.061
 1153SOL     OW 9729   4.882   3.344   0.701
 1153SOL    HW1 9730   4.906   3.399   0.621
 1153SOL    HW2 9731   4.966   3.320   0.751
 1154SOL     OW 9732   5.840   0.726   0.605
 1154SOL    HW1 9733   5.861   0.822   0.622
 1154SOL    HW2 9734   5.841   0.709   0.506
 1155SOL     OW 9735   5.748   2.110   5.873
 1155SOL    HW1 9736   5.819   2.097   5.803
 1155SOL    HW2 9737   5.768   2.192   5.925
 1156SOL     OW 9738   4.921   4.974   0.066
 1156SOL    HW1 9739   4.864   4.988   0.147
 1156SOL    HW2 9740   4.878   4.908   0.005
 1157SOL     OW 9741   1.433   2.439   0.533
 1157SOL    HW1 9742   1.461   2.494   0.454
 1157SOL    HW2 9743   1.346   2.395   0.514
 1158SOL     OW 9744   3.721   4.971   1.995
 1158SOL    HW1 9745   3.668   5.038   1.942
 1158SOL    HW2 9746   3.680   4.881   1.986
 1159SOL     OW 9747   5.434   6.213   5.448
 1159SOL    HW1 9748   5.353   6.212   5.506
 1159SOL    HW2 9749   5.442   6.126   5.400
 1160SOL     OW 9750   1.824   3.854   0.498
 1160SOL    HW1 9751   1.821   3.805   0.411
 1160SOL    HW2 9752   1.908   3.907   0.504
 1161SOL     OW 9753   3.308   3.996   6.117
 1161SOL    HW1 9754   3.353   4.019   6.030
 1161SOL    HW2 9755   3.260   3.909   6.108
 1162SOL     OW 9756   3.300   2.014   0.229
 1162SOL    HW1 9757   3.212   2.037   0.188
 1162SOL    HW2 9758   3.319   2.075   0.306
 1163SOL     OW 9759   5.959   0.251   0.124
 1163SOL    HW1 9760   6.036   0.252   0.188
 1163SOL    HW2 9761   5.873   0.261   0.174
 1164SOL     OW 9762   4.339   5.660   5.632
 1164SOL    HW1 9763   4.404   5.712   5.686
 1164SOL    HW2 9764   4.380   5.638   5.543
 1165SOL     OW 9765   1.939   4.104   6.002
 1165SOL    HW1 9766   1.919   4.200   5.985
 1165SOL    HW2 9767   1.883   4.047   5.943
 1166SOL     OW 9768   4.492   2.608   1.824
 1166SOL    HW1 9769   4.415   2.672   1.830
 1166SOL    HW2 9770   4.509   2.568   1.913
 1167SOL     OW 9771   1.294   3.489   5.294
 1167SOL    HW1 9772   1.374   3.462   5.241
 1167SOL    HW2 9773   1.262   3.578   5.263
 1168SOL     OW 9774   2.224   0.171   0.801
 1168SOL    HW1 9775   2.290   0.193   0.872
 1168SOL    HW2 9776   2.225   0.073   0.783
 1169SOL     OW 9777   1.956   2.615   0.569
 1169SOL    HW1 9778   2.015   2.614   0.488
 1169SOL    HW2 9779   1.972   2.699   0.621
 1170SOL     OW 9780   4.868   4.176   6.129
 1170SOL    HW1 9781   4.821   4.111   6.069
 1170SOL    HW2 9782   4.967   4.165   6.119
 1171SOL     OW 9783   3.288   6.225   5.238
 1171SOL    HW1 9784   3.247   6.305   5.193
 1171SOL    HW2 9785   3.244   6.142   5.205
 1172SOL     OW 9786   2.372   2.286   6.486
 1172SOL    HW1 9787   2.449   2.339   6.450
 1172SOL    HW2 9788   2.357   2.206   6.429
 1173SOL     OW 9789   4.995   3.338   1.047
 1173SOL    HW1 9790   5.053   3.331   0.966
 1173SOL    HW2 9791   4.981   3.434   1.071
 1174SOL     OW 9792   3.270   4.390   0.102
 1174SOL    HW1 9793   3.316   4.477   0.088
 1174SOL    HW2 9794   3.200   4.377   0.032
 1175SOL     OW 9795   2.397   0.130   1.349
 1175SOL    HW1 9796   2.366   0.127   1.445
 1175SOL    HW2 9797   2.443   0.217   1.332
 1176SOL     OW 9798   2.837   0.508   0.124
 1176SOL    HW1 9799   2.911   0.462   0.173
 1176SOL    HW2 9800   2.814   0.593   0.170
 1177SOL     OW 9801   1.846   3.807   6.543
 1177SOL    HW1 9802   1.882   3.786   6.452
 1177SOL    HW2 9803   1.860   3.904   6.562
 1178SOL     OW 9804   3.396   1.489   1.339
 1178SOL    HW1 9805   3.448   1.508   1.421
 1178SOL    HW2 9806   3.298   1.488   1.361
 1179SOL     OW 9807   3.975   4.230   5.662
 1179SOL    HW1 9808   4.063   4.207   5.703
 1179SOL    HW2 9809   3.912   4.154   5.674
 1180SOL     OW 9810   0.750   4.146   0.516
 1180SOL    HW1 9811   0.676   4.209   0.541
 1180SOL    HW2 9812   0.830   4.165   0.573
 1181SOL     OW 9813   1.178   5.335   5.364
 1181SOL    HW1 9814   1.099   5.288   5.325
 1181SOL    HW2 9815   1.245   5.353   5.291
 1182SOL     OW 9816   1.140   1.072   0.761
 1182SOL    HW1 9817   1.226   1.077   0.709
 1182SOL    HW2 9818   1.118   0.977   0.780
 1183SOL     OW 9819   6.093   1.503   0.789
 1183SOL    HW1 9820   6.038   1.537   0.713
 1183SOL    HW2 9821   6.053   1.419   0.825
 1184SOL     OW 9822   4.656   4.574   1.087
 1184SOL    HW1 9823   4.566   4.616   1.099
 1184SOL    HW2 9824   4.649   4.499   1.021
 1185SOL     OW 9825   3.036   4.355   1.088
 1185SOL    HW1 9826   2.973   4.377   1.013
 1185SOL    HW2 9827   3.122   4.404   1.074
 1186SOL     OW 9828   4.673   0.838   0.855
 1186SOL    HW1 9829   4.678   0.820   0.757
 1186SOL    HW2 9830   4.765   0.853   0.892
 1187SOL     OW 9831   1.371   5.465   6.511
 1187SOL    HW1 9832   1.274   5.444   6.527
 1187SOL    HW2 9833   1.391   5.557   6.544
 1188SOL     OW 9834   0.191   3.197   6.033
 1188SOL    HW1 9835   0.202   3.285   6.079
 1188SOL    HW2 9836   0.267   3.183   5.969
 1189SOL     OW 9837   4.891   1.015   1.567
 1189SOL    HW1 9838   4.841   1.089   1.611
 1189SOL    HW2 9839   4.840   0.930   1.578
 1190SOL     OW 9840   4.219   3.290   5.826
 1190SOL    HW1 9841   4.308   3.334   5.813
 1190SOL    HW2 9842   4.163   3.346   5.887
 1191SOL     OW 9843   3.389   2.675   5.037
 1191SOL    HW1 9844   3.308   2.681   4.979
 1191SOL    HW2 9845   3.381   2.741   5.112
 1192SOL     OW 9846   4.853   1.506   0.432
 1192SOL    HW1 9847   4.779   1.453   0.391
 1192SOL    HW2 9848   4.823   1.600   0.447
 1193SOL     OW 9849   0.845   4.694   0.599
 1193SOL    HW1 9850   0.880   4.653   0.683
 1193SOL    HW2 9851   0.819   4.789   0.617
 1194SOL     OW 9852   2.004   1.369   0.867
 1194SOL    HW1 9853   2.039   1.297   0.926
 1194SOL    HW2 9854   1.961   1.440   0.923
 1195SOL     OW 9855   1.284   2.034   1.003
 1195SOL    HW1 9856   1.382   2.026   1.024
 1195SOL    HW2 9857   1.237   2.074   1.081
 1196SOL     OW 9858   3.389   3.573   5.526
 1196SOL    HW1 9859   3.348   3.649   5.577
 1196SOL    HW2 9860   3.398   3.494   5.587
 1197SOL     OW 9861   0.603   0.171   5.973
 1197SOL    HW1 9862   0.692   0.191   5.933
 1197SOL    HW2 9863   0.598   0.074   5.997
 1198SOL     OW 9864   4.404   3.075   6.086
 1198SOL    HW1 9865   4.417   3.173   6.070
 1198SOL    HW2 9866   4.482   3.025   6.048
 1199SOL     OW 9867   4.214   0.082   5.535
 1199SOL    HW1 9868   4.259   0.134   5.608
 1199SOL    HW2 9869   4.138   0.031   5.574
 1200SOL     OW 9870   1.852   5.299   5.960
 1200SOL    HW1 9871   1.784   5.309   6.033
 1200SOL    HW2 9872   1.831   5.219   5.905
 1201SOL     OW 9873   2.594   2.484   5.167
 1201SOL    HW1 9874   2.583   2.482   5.068
 1201SOL    HW2 9875   2.599   2.390   5.201
 1202SOL     OW 9876   2.518   4.343   0.585
 1202SOL    HW1 9877   2.475   4.376   0.669
 1202SOL    HW2 9878   2.447   4.326   0.516
 1203SOL     OW 9879   0.260   4.972   5.903
 1203SOL    HW1 9880   0.170   4.928   5.902
 1203SOL    HW2 9881   0.302   4.966   5.813
 1204SOL     OW 9882   0.939   1.234   6.096
 1204SOL    HW1 9883   0.926   1.278   6.185
 1204SOL    HW2 9884   0.990   1.296   6.036
 1205SOL     OW 9885   1.690   1.113   1.162
 1205SOL    HW1 9886   1.701   1.014   1.156
 1205SOL    HW2 9887   1.751   1.150   1.232
 1206SOL     OW 9888   5.245   4.084   5.214
 1206SOL    HW1 9889   5.166   4.043   5.169
 1206SOL    HW2 9890   5.239   4.184   5.208
 1207SOL     OW 9891   3.891   0.046   5.062
 1207SOL    HW1 9892   3.965   6.395   5.098
 1207SOL    HW2 9893   3.921   0.093   4.979
 1208SOL     OW 9894   3.334   2.860   5.228
 1208SOL    HW1 9895   3.251   2.915   5.220
 1208SOL    HW2 9896   3.412   2.913   5.197
 1209SOL     OW 9897   5.537   5.731   5.983
 1209SOL    HW1 9898   5.482   5.747   5.901
 1209SOL    HW2 9899   5.476   5.717   6.061
 1210SOL     OW 9900   2.315   0.951   0.111
 1210SOL    HW1 9901   2.290   0.855   0.126
 1210SOL    HW2 9902   2.244   0.996   0.056
 1211SOL     OW 9903   3.090   5.255   1.206
 1211SOL    HW1 9904   3.188   5.240   1.191
 1211SOL    HW2 9905   3.064   5.215   1.294
 1212SOL     OW 9906   4.478   0.005   0.816
 1212SOL    HW1 9907   4.501   0.044   0.906
 1212SOL    HW2 9908   4.411   0.063   0.771
 1213SOL     OW 9909   3.418   0.423   5.595
 1213SOL    HW1 9910   3.444   0.354   5.662
 1213SOL    HW2 9911   3.335   0.469   5.625
 1214SOL     OW 9912   0.195   3.636   1.069
 1214SOL    HW1 9913   0.193   3.691   1.153
 1214SOL    HW2 9914   0.288   3.607   1.051
 1215SOL     OW 9915   4.291   2.186   6.321
 1215SOL    HW1 9916   4.252   2.278   6.325
 1215SOL    HW2 9917   4.320   2.167   6.227
 1216SOL     OW 9918   2.179   4.488   6.485
 1216SOL    HW1 9919   2.213   4.575   6.448
 1216SOL    HW2 9920   2.079   4.494   6.495
 1217SOL     OW 9921   1.053   0.206   4.991
 1217SOL    HW1 9922   1.013   0.270   4.926
 1217SOL    HW2 9923   1.087   0.256   5.070
 1218SOL     OW 9924   5.897   2.148   5.417
 1218SOL    HW1 9925   5.861   2.237   5.445
 1218SOL    HW2 9926   5.840   2.111   5.344
 1219SOL     OW 9927   0.240   2.490   4.966
 1219SOL    HW1 9928   0.275   2.568   4.914
 1219SOL    HW2 9929   0.150   2.464   4.931
 1220SOL     OW 9930   0.675   4.983   0.229
 1220SOL    HW1 9931   0.768   4.947   0.217
 1220SOL    HW2 9932   0.615   4.944   0.160
 1221SOL     OW 9933   4.743   0.405   0.091
 1221SOL    HW1 9934   4.684   0.325   0.104
 1221SOL    HW2 9935   4.762   0.447   0.180
 1222SOL     OW 9936   0.263   4.169   6.536
 1222SOL    HW1 9937   0.218   4.219   0.041
 1222SOL    HW2 9938   0.361   4.191   6.536
 1223SOL     OW 9939   5.911   6.196   6.378
 1223SOL    HW1 9940   5.850   6.132   6.331
 1223SOL    HW2 9941   5.986   6.145   6.420
 1224SOL     OW 9942   3.198   2.691   1.451
 1224SOL    HW1 9943   3.298   2.690   1.455
 1224SOL    HW2 9944   3.162   2.705   1.543
 1225SOL     OW 9945   0.667   2.229   5.639
 1225SOL    HW1 9946   0.747   2.178   5.671
 1225SOL    HW2 9947   0.688   2.327   5.641
 1226SOL     OW 9948   2.016   5.702   5.828
 1226SOL    HW1 9949   1.950   5.681   5.901
 1226SOL    HW2 9950   2.054   5.793   5.843
 1227SOL     OW 9951   1.919   6.067   0.094
 1227SOL    HW1 9952   1.984   6.103   0.161
 1227SOL    HW2 9953   1.915   6.128   0.014
 1228SOL     OW 9954   2.263   4.676   6.118
 1228SOL    HW1 9955   2.344   4.710   6.071
 1228SOL    HW2 9956   2.275   4.684   6.217
 1229SOL     OW 9957   4.019   5.266   1.781
 1229SOL    HW1 9958   4.102   5.319   1.796
 1229SOL    HW2 9959   4.001   5.208   1.860
 1230SOL     OW 9960   1.522   0.805   5.713
 1230SOL    HW1 9961   1.541   0.803   5.811
 1230SOL    HW2 9962   1.513   0.711   5.678
 1231SOL     OW 9963   1.069   1.709   5.503
 1231SOL    HW1 9964   1.120   1.710   5.417
 1231SOL    HW2 9965   1.102   1.782   5.563
 1232SOL     OW 9966   1.764   0.615   0.526
 1232SOL    HW1 9967   1.755   0.567   0.439
 1232SOL    HW2 9968   1.687   0.591   0.586
 1233SOL     OW 9969   3.735   0.651   1.143
 1233SOL    HW1 9970   3.714   0.749   1.146
 1233SOL    HW2 9971   3.742   0.616   1.236
 1234SOL     OW 9972   0.677   5.488   6.103
 1234SOL    HW1 9973   0.665   5.418   6.173
 1234SOL    HW2 9974   0.737   5.453   6.031
 1235SOL     OW 9975   0.618   0.011   6.529
 1235SOL    HW1 9976   0.559   0.088   6.504
 1235SOL    HW2 9977   0.647   6.368   6.446
 1236SOL     OW 9978   0.628   0.523   4.767
 1236SOL    HW1 9979   0.713   0.562   4.732
 1236SOL    HW2 9980   0.637   0.423   4.773
 1237SOL     OW 9981   5.669   1.160   5.858
 1237SOL    HW1 9982   5.652   1.114   5.771
 1237SOL    HW2 9983   5.725   1.241   5.842
 1238SOL     OW 9984   4.338   0.215   0.027
 1238SOL    HW1 9985   4.371   0.183   6.508
 1238SOL    HW2 9986   4.251   0.172   0.048
 1239SOL     OW 9987   3.899   1.663   5.184
 1239SOL    HW1 9988   3.812   1.698   5.149
 1239SOL    HW2 9989   3.952   1.624   5.109
 1240SOL     OW 9990   5.217   0.071   5.960
 1240SOL    HW1 9991   5.313   0.096   5.947
 1240SOL    HW2 9992   5.161   0.118   5.891
 1241SOL     OW 9993   5.745   2.875   0.488
 1241SOL    HW1 9994   5.696   2.857   0.403
 1241SOL    HW2 9995   5.768   2.972   0.494
 1242SOL     OW 9996   1.371   5.280   0.880
 1242SOL    HW1 9997   1.313   5.359   0.861
 1242SOL    HW2 9998   1.387   5.273   0.979
 1243SOL     OW 9999   5.330   1.701   1.454
 1243SOL    HW110000   5.239   1.741   1.465
 1243SOL    HW210001   5.343   1.628   1.521
 1244SOL     OW10002   0.941   4.898   0.222
 1244SOL    HW110003   1.015   4.878   0.157
 1244SOL    HW210004   0.966   4.978   0.277
 1245SOL     OW10005   3.340   4.465   5.845
 1245SOL    HW110006   3.295   4.385   5.805
 1245SOL    HW210007   3.327   4.465   5.944
 1246SOL     OW10008   2.533   2.522   5.490
 1246SOL    HW110009   2.629   2.494   5.483
 1246SOL    HW210010   2.515   2.595   5.424
 1247SOL     OW10011   3.481   0.509   6.036
 1247SOL    HW110012   3.527   0.473   6.117
 1247SOL    HW210013   3.550   0.535   5.968
 1248SOL     OW10014   6.299   4.521   5.706
 1248SOL    HW110015   6.303   4.488   5.612
 1248SOL    HW210016   6.280   4.619   5.707
 1249SOL     OW10017   3.231   3.588   6.270
 1249SOL    HW110018   3.244   3.622   6.364
 1249SOL    HW210019   3.212   3.665   6.209
 1250SOL     OW10020   1.504   2.599   0.325
 1250SOL    HW110021   1.456   2.681   0.359
 1250SOL    HW210022   1.602   2.611   0.338
 1251SOL     OW10023   3.035   5.793   5.122
 1251SOL    HW110024   3.098   5.870   5.112
 1251SOL    HW210025   3.085   5.707   5.110
 1252SOL     OW10026   5.372   3.584   5.843
 1252SOL    HW110027   5.305   3.518   5.810
 1252SOL    HW210028   5.449   3.589   5.779
 1253SOL     OW10029   4.218   1.632   0.906
 1253SOL    HW110030   4.173   1.543   0.892
 1253SOL    HW210031   4.315   1.618   0.923
 1254SOL     OW10032   4.688   5.021   5.767
 1254SOL    HW110033   4.683   5.033   5.866
 1254SOL    HW210034   4.778   4.988   5.741
 1255SOL     OW10035   3.321   6.360   5.479
 1255SOL    HW110036   3.346   0.050   5.461
 1255SOL    HW210037   3.319   6.309   5.393
 1256SOL     OW10038   0.750   5.644   0.839
 1256SOL    HW110039   0.838   5.620   0.879
 1256SOL    HW210040   0.681   5.577   0.866
 1257SOL     OW10041   0.340   0.853   6.337
 1257SOL    HW110042   0.297   0.938   6.307
 1257SOL    HW210043   0.271   0.780   6.338
 1258SOL     OW10044   2.936   4.958   0.235
 1258SOL    HW110045   3.014   4.969   0.173
 1258SOL    HW210046   2.970   4.936   0.327
 1259SOL     OW10047   2.289   1.091   0.344
 1259SOL    HW110048   2.363   1.157   0.360
 1259SOL    HW210049   2.303   1.045   0.256
 1260SOL     OW10050   2.041   5.410   0.896
 1260SOL    HW110051   1.968   5.342   0.894
 1260SOL    HW210052   2.129   5.365   0.910
 1261SOL     OW10053   0.444   1.201   5.804
 1261SOL    HW110054   0.395   1.278   5.845
 1261SOL    HW210055   0.378   1.138   5.764
 1262SOL     OW10056   0.913   1.007   0.191
 1262SOL    HW110057   0.980   0.989   0.263
 1262SOL    HW210058   0.841   1.066   0.227
 1263SOL     OW10059   2.196   3.227   5.675
 1263SOL    HW110060   2.136   3.256   5.600
 1263SOL    HW210061   2.289   3.216   5.640
 1264SOL     OW10062   1.876   5.033   0.783
 1264SOL    HW110063   1.974   5.022   0.796
 1264SOL    HW210064   1.847   5.122   0.817
 1265SOL     OW10065   2.160   3.129   5.358
 1265SOL    HW110066   2.178   3.225   5.380
 1265SOL    HW210067   2.102   3.123   5.276
 1266SOL     OW10068   2.822   1.958   0.728
 1266SOL    HW110069   2.889   2.020   0.768
 1266SOL    HW210070   2.784   1.900   0.800
 1267SOL     OW10071   2.439   1.634   0.105
 1267SOL    HW110072   2.534   1.634   0.136
 1267SOL    HW210073   2.398   1.545   0.122
 1268SOL     OW10074   1.541   5.129   5.390
 1268SOL    HW110075   1.620   5.075   5.417
 1268SOL    HW210076   1.559   5.173   5.302
 1269SOL     OW10077   5.659   4.979   0.773
 1269SOL    HW110078   5.563   4.974   0.801
 1269SOL    HW210079   5.717   4.979   0.854
 1270SOL     OW10080   4.730   6.365   5.563
 1270SOL    HW110081   4.663   6.400   5.629
 1270SOL    HW210082   4.740   0.027   5.489
 1271SOL     OW10083   0.699   1.397   5.447
 1271SOL    HW110084   0.722   1.484   5.404
 1271SOL    HW210085   0.780   1.359   5.491
 1272SOL     OW10086   4.469   0.887   0.312
 1272SOL    HW110087   4.500   0.797   0.283
 1272SOL    HW210088   4.376   0.881   0.347
 1273SOL     OW10089   2.150   4.903   0.103
 1273SOL    HW110090   2.203   4.835   0.153
 1273SOL    HW210091   2.091   4.857   0.036
 1274SOL     OW10092   0.530   4.247   6.545
 1274SOL    HW110093   0.523   4.255   6.445
 1274SOL    HW210094   0.578   4.162   6.569
 1275SOL     OW10095   1.448   0.711   0.340
 1275SOL    HW110096   1.410   0.761   0.261
 1275SOL    HW210097   1.468   0.617   0.313
 1276SOL     OW10098   2.880   0.021   4.896
 1276SOL    HW110099   2.810   6.368   4.855
 1276SOL    HW210100   2.971   6.390   4.872
 1277SOL     OW10101   2.077   2.856   1.162
 1277SOL    HW110102   2.047   2.936   1.214
 1277SOL    HW210103   2.043   2.773   1.206
 1278SOL     OW10104   3.565   1.894   5.520
 1278SOL    HW110105   3.548   1.987   5.487
 1278SOL    HW210106   3.575   1.831   5.443
 1279SOL     OW10107   4.901   3.182   1.244
 1279SOL    HW110108   4.939   3.234   1.167
 1279SOL    HW210109   4.972   3.168   1.313
 1280SOL     OW10110   2.871   5.284   5.986
 1280SOL    HW110111   2.908   5.298   6.078
 1280SOL    HW210112   2.824   5.196   5.982
 1281SOL     OW10113   3.566   1.708   5.314
 1281SOL    HW110114   3.596   1.618   5.348
 1281SOL    HW210115   3.606   1.725   5.224
 1282SOL     OW10116   2.342   2.880   5.736
 1282SOL    HW110117   2.358   2.783   5.718
 1282SOL    HW210118   2.419   2.917   5.787
 1283SOL     OW10119   1.566   0.772   5.981
 1283SOL    HW110120   1.644   0.711   5.993
 1283SOL    HW210121   1.573   0.850   6.043
 1284SOL     OW10122   6.171   4.888   6.384
 1284SOL    HW110123   6.169   4.895   6.484
 1284SOL    HW210124   6.253   4.838   6.356
 1285SOL     OW10125   4.490   5.466   5.810
 1285SOL    HW110126   4.502   5.565   5.802
 1285SOL    HW210127   4.496   5.424   5.719
 1286SOL     OW10128   2.548   3.080   0.073
 1286SOL    HW110129   2.540   2.991   0.119
 1286SOL    HW210130   2.587   3.147   0.137
 1287SOL     OW10131   2.731   2.389   1.251
 1287SOL    HW110132   2.716   2.338   1.335
 1287SOL    HW210133   2.711   2.486   1.266
 1288SOL     OW10134   0.015   3.559   0.671
 1288SOL    HW110135   6.268   3.534   0.722
 1288SOL    HW210136   6.324   3.612   0.590
 1289SOL     OW10137   1.468   3.004   6.028
 1289SOL    HW110138   1.536   2.939   6.061
 1289SOL    HW210139   1.386   2.998   6.086
 1290SOL     OW10140   4.088   1.865   1.717
 1290SOL    HW110141   4.182   1.897   1.708
 1290SOL    HW210142   4.026   1.933   1.678
 1291SOL     OW10143   6.322   5.881   5.786
 1291SOL    HW110144   6.298   5.815   5.715
 1291SOL    HW210145   6.281   5.969   5.764
 1292SOL     OW10146   5.424   2.562   0.595
 1292SOL    HW110147   5.520   2.590   0.607
 1292SOL    HW210148   5.414   2.517   0.507
 1293SOL     OW10149   0.066   4.749   6.338
 1293SOL    HW110150   0.088   4.726   6.244
 1293SOL    HW210151   0.136   4.810   6.375
 1294SOL     OW10152   2.535   0.711   0.180
 1294SOL    HW110153   2.437   0.711   0.199
 1294SOL    HW210154   2.576   0.796   0.215
 1295SOL     OW10155   0.373   3.786   5.735
 1295SOL    HW110156   0.428   3.791   5.652
 1295SOL    HW210157   0.338   3.877   5.758
 1296SOL     OW10158   2.558   2.472   4.898
 1296SOL    HW110159   2.485   2.452   4.833
 1296SOL    HW210160   2.629   2.527   4.853
 1297SOL     OW10161   5.472   4.093   0.570
 1297SOL    HW110162   5.542   4.040   0.520
 1297SOL    HW210163   5.508   4.120   0.659
 1298SOL     OW10164   2.007   0.003   0.165
 1298SOL    HW110165   1.912   0.012   0.194
 1298SOL    HW210166   2.011   6.386   0.067
 1299SOL     OW10167   2.723   1.860   6.367
 1299SOL    HW110168   2.758   1.769   6.389
 1299SOL    HW210169   2.682   1.901   6.448
 1300SOL     OW10170   2.748   1.207   5.405
 1300SOL    HW110171   2.799   1.130   5.367
 1300SOL    HW210172   2.687   1.244   5.335
 1301SOL     OW10173   0.078   4.948   1.082
 1301SOL    HW110174   0.071   4.926   1.179
 1301SOL    HW210175   0.045   5.042   1.067
 1302SOL     OW10176   3.476   6.307   6.147
 1302SOL    HW110177   3.564   6.348   6.123
 1302SOL    HW210178   3.486   6.207   6.150
 1303SOL     OW10179   5.384   4.701   6.210
 1303SOL    HW110180   5.352   4.641   6.283
 1303SOL    HW210181   5.480   4.681   6.191
 1304SOL     OW10182   6.272   6.225   1.045
 1304SOL    HW110183   6.191   6.169   1.063
 1304SOL    HW210184   6.297   6.275   1.128
 1305SOL     OW10185   1.063   0.804   5.055
 1305SOL    HW110186   1.123   0.805   4.974
 1305SOL    HW210187   1.011   0.718   5.057
 1306SOL     OW10188   0.275   3.088   1.721
 1306SOL    HW110189   0.305   2.994   1.704
 1306SOL    HW210190   0.324   3.124   1.800
 1307SOL     OW10191   5.228   3.365   5.753
 1307SOL    HW110192   5.209   3.313   5.836
 1307SOL    HW210193   5.180   3.323   5.676
 1308SOL     OW10194   4.164   5.757   0.807
 1308SOL    HW110195   4.255   5.724   0.781
 1308SOL    HW210196   4.173   5.825   0.880
 1309SOL     OW10197   3.546   4.126   0.831
 1309SOL    HW110198   3.628   4.137   0.774
 1309SOL    HW210199   3.508   4.217   0.852
 1310SOL     OW10200   2.770   6.245   1.235
 1310SOL    HW110201   2.717   6.244   1.150
 1310SOL    HW210202   2.714   6.210   1.310
 1311SOL     OW10203   1.766   4.327   0.155
 1311SOL    HW110204   1.666   4.326   0.153
 1311SOL    HW210205   1.798   4.344   0.248
 1312SOL     OW10206   3.539   4.292   0.120
 1312SOL    HW110207   3.440   4.306   0.118
 1312SOL    HW210208   3.563   4.240   0.202
 1313SOL     OW10209   5.266   3.052   4.984
 1313SOL    HW110210   5.361   3.020   4.989
 1313SOL    HW210211   5.212   2.988   4.931
 1314SOL     OW10212   2.741   3.504   0.803
 1314SOL    HW110213   2.770   3.594   0.772
 1314SOL    HW210214   2.817   3.440   0.794
 1315SOL     OW10215   1.049   0.467   0.477
 1315SOL    HW110216   0.987   0.461   0.399
 1315SOL    HW210217   1.084   0.376   0.498
 1316SOL     OW10218   0.038   1.486   0.855
 1316SOL    HW110219   0.070   1.457   0.945
 1316SOL    HW210220   6.274   1.471   0.849
 1317SOL     OW10221   5.331   0.797   5.976
 1317SOL    HW110222   5.397   0.722   5.986
 1317SOL    HW210223   5.318   0.843   6.064
 1318SOL     OW10224   4.951   2.916   0.565
 1318SOL    HW110225   4.949   2.866   0.652
 1318SOL    HW210226   5.000   2.861   0.496
 1319SOL     OW10227   2.935   3.525   1.130
 1319SOL    HW110228   2.997   3.531   1.208
 1319SOL    HW210229   2.843   3.550   1.158
 1320SOL     OW10230   4.683   0.422   0.765
 1320SOL    HW110231   4.765   0.447   0.714
 1320SOL    HW210232   4.676   0.478   0.848
 1321SOL     OW10233   3.071   0.994   6.009
 1321SOL    HW110234   3.089   0.916   6.068
 1321SOL    HW210235   3.126   0.987   5.926
 1322SOL     OW10236   5.670   1.663   6.435
 1322SOL    HW110237   5.573   1.683   6.419
 1322SOL    HW210238   5.725   1.743   6.407
 1323SOL     OW10239   1.262   1.614   0.405
 1323SOL    HW110240   1.351   1.624   0.360
 1323SOL    HW210241   1.268   1.643   0.500
 1324SOL     OW10242   2.950   2.336   5.702
 1324SOL    HW110243   2.944   2.383   5.790
 1324SOL    HW210244   3.044   2.305   5.687
 1325SOL     OW10245   2.492   5.018   0.585
 1325SOL    HW110246   2.399   5.048   0.601
 1325SOL    HW210247   2.501   4.921   0.609
 1326SOL     OW10248   0.673   3.427   6.424
 1326SOL    HW110249   0.604   3.398   6.357
 1326SOL    HW210250   0.753   3.462   6.376
 1327SOL     OW10251   4.011   0.017   5.896
 1327SOL    HW110252   4.000   6.343   5.956
 1327SOL    HW210253   4.008   6.391   5.800
 1328SOL     OW10254   1.302   3.103   5.367
 1328SOL    HW110255   1.303   3.015   5.319
 1328SOL    HW210256   1.385   3.154   5.344
 1329SOL     OW10257   1.507   6.227   0.052
 1329SOL    HW110258   1.482   6.284   0.130
 1329SOL    HW210259   1.444   6.243   6.546
 1330SOL     OW10260   2.061   0.192   1.507
 1330SOL    HW110261   2.151   0.172   1.546
 1330SOL    HW210262   2.035   0.286   1.530
 1331SOL     OW10263   3.231   4.543   1.005
 1331SOL    HW110264   3.302   4.594   1.054
 1331SOL    HW210265   3.156   4.605   0.983
 1332SOL     OW10266   2.784   4.160   5.637
 1332SOL    HW110267   2.733   4.121   5.560
 1332SOL    HW210268   2.882   4.157   5.616
 1333SOL     OW10269   3.412   2.385   5.969
 1333SOL    HW110270   3.375   2.296   5.942
 1333SOL    HW210271   3.356   2.424   6.042
 1334SOL     OW10272   2.529   2.694   6.411
 1334SOL    HW110273   2.461   2.712   6.340
 1334SOL    HW210274   2.609   2.753   6.395
 1335SOL     OW10275   0.531   5.454   0.858
 1335SOL    HW110276   0.451   5.513   0.872
 1335SOL    HW210277   0.528   5.415   0.766
 1336SOL     OW10278   2.858   2.987   6.031
 1336SOL    HW110279   2.847   3.004   5.933
 1336SOL    HW210280   2.775   3.015   6.079
 1337SOL     OW10281   3.301   5.979   0.308
 1337SOL    HW110282   3.259   6.057   0.262
 1337SOL    HW210283   3.231   5.912   0.331
 1338SOL     OW10284   4.283   1.230   0.363
 1338SOL    HW110285   4.374   1.204   0.329
 1338SOL    HW210286   4.287   1.243   0.462
 1339SOL     OW10287   0.339   4.564   5.961
 1339SOL    HW110288   0.276   4.494   5.930
 1339SOL    HW210289   0.383   4.607   5.882
 1340SOL     OW10290   2.547   4.801   0.234
 1340SOL    HW110291   2.455   4.764   0.225
 1340SOL    HW210292   2.542   4.899   0.254
 1341SOL     OW10293   1.007   0.366   5.462
 1341SOL    HW110294   1.049   0.359   5.371
 1341SOL    HW210295   0.925   0.422   5.456
 1342SOL     OW10296   2.343   1.383   0.154
 1342SOL    HW110297   2.337   1.335   0.067
 1342SOL    HW210298   2.393   1.327   0.220
 1343SOL     OW10299   0.366   1.224   0.162
 1343SOL    HW110300   0.387   1.288   0.088
 1343SOL    HW210301   0.394   1.131   0.135
 1344SOL     OW10302   6.114   5.152   6.320
 1344SOL    HW110303   6.189   5.184   6.263
 1344SOL    HW210304   6.124   5.054   6.336
 1345SOL     OW10305   6.114   1.421   0.481
 1345SOL    HW110306   6.049   1.489   0.515
 1345SOL    HW210307   6.205   1.442   0.517
 1346SOL     OW10308   4.973   5.281   1.243
 1346SOL    HW110309   5.039   5.294   1.169
 1346SOL    HW210310   5.022   5.268   1.329
 1347SOL     OW10311   4.805   6.171   6.253
 1347SOL    HW110312   4.720   6.119   6.264
 1347SOL    HW210313   4.882   6.108   6.250
 1348SOL     OW10314   1.145   0.313   5.225
 1348SOL    HW110315   1.218   0.377   5.200
 1348SOL    HW210316   1.185   0.227   5.256
 1349SOL     OW10317   5.708   0.738   6.424
 1349SOL    HW110318   5.684   0.782   6.338
 1349SOL    HW210319   5.697   0.639   6.414
 1350SOL     OW10320   0.767   4.952   0.648
 1350SOL    HW110321   0.837   5.004   0.697
 1350SOL    HW210322   0.725   5.009   0.577
 1351SOL     OW10323   6.154   3.314   0.201
 1351SOL    HW110324   6.238   3.365   0.221
 1351SOL    HW210325   6.177   3.218   0.183
 1352SOL     OW10326   4.019   5.902   0.613
 1352SOL    HW110327   3.960   5.969   0.658
 1352SOL    HW210328   4.069   5.850   0.682
 1353SOL     OW10329   1.059   3.249   0.357
 1353SOL    HW110330   1.155   3.220   0.361
 1353SOL    HW210331   1.034   3.266   0.262
 1354SOL     OW10332   2.185   1.955   5.319
 1354SOL    HW110333   2.204   1.988   5.227
 1354SOL    HW210334   2.179   2.033   5.382
 1355SOL     OW10335   3.221   0.884   1.094
 1355SOL    HW110336   3.289   0.815   1.071
 1355SOL    HW210337   3.259   0.948   1.161
 1356SOL     OW10338   3.955   2.415   0.934
 1356SOL    HW110339   3.943   2.330   0.985
 1356SOL    HW210340   3.878   2.476   0.951
 1357SOL     OW10341   5.312   5.451   1.248
 1357SOL    HW110342   5.399   5.427   1.292
 1357SOL    HW210343   5.246   5.479   1.318
 1358SOL     OW10344   1.355   2.848   1.120
 1358SOL    HW110345   1.261   2.881   1.112
 1358SOL    HW210346   1.360   2.755   1.083
 1359SOL     OW10347   1.753   0.484   0.285
 1359SOL    HW110348   1.828   0.418   0.296
 1359SOL    HW210349   1.766   0.534   0.199
 1360SOL     OW10350   4.471   0.391   1.138
 1360SOL    HW110351   4.518   0.475   1.166
 1360SOL    HW210352   4.433   0.346   1.219
 1361SOL     OW10353   4.941   2.800   6.158
 1361SOL    HW110354   4.883   2.822   6.236
 1361SOL    HW210355   5.014   2.737   6.186
 1362SOL     OW10356   2.435   5.932   0.363
 1362SOL    HW110357   2.396   5.993   0.294
 1362SOL    HW210358   2.524   5.966   0.392
 1363SOL     OW10359   5.179   2.776   0.432
 1363SOL    HW110360   5.209   2.859   0.481
 1363SOL    HW210361   5.249   2.749   0.366
 1364SOL     OW10362   5.554   4.715   0.179
 1364SOL    HW110363   5.514   4.657   0.249
 1364SOL    HW210364   5.486   4.734   0.108
 1365SOL     OW10365   4.749   2.512   6.100
 1365SOL    HW110366   4.716   2.599   6.137
 1365SOL    HW210367   4.843   2.524   6.068
 1366SOL     OW10368   4.585   1.988   2.072
 1366SOL    HW110369   4.536   1.928   2.008
 1366SOL    HW210370   4.556   2.082   2.058
 1367SOL     OW10371   2.609   2.186   0.069
 1367SOL    HW110372   2.527   2.221   0.024
 1367SOL    HW210373   2.609   2.086   0.066
 1368SOL     OW10374   1.188   6.091   6.058
 1368SOL    HW110375   1.162   6.036   6.137
 1368SOL    HW210376   1.124   6.168   6.048
 1369SOL     OW10377   2.541   1.583   6.145
 1369SOL    HW110378   2.630   1.541   6.129
 1369SOL    HW210379   2.520   1.582   6.243
 1370SOL     OW10380   2.209   0.459   0.339
 1370SOL    HW110381   2.235   0.406   0.420
 1370SOL    HW210382   2.260   0.426   0.260
 1371SOL     OW10383   1.868   1.842   0.331
 1371SOL    HW110384   1.962   1.835   0.364
 1371SOL    HW210385   1.855   1.930   0.285
 1372SOL     OW10386   0.265   3.461   6.111
 1372SOL    HW110387   0.317   3.523   6.052
 1372SOL    HW210388   0.209   3.516   6.174
 1373SOL     OW10389   0.747   6.373   0.980
 1373SOL    HW110390   0.659   6.368   0.933
 1373SOL    HW210391   0.758   0.059   1.020
 1374SOL     OW10392   2.844   2.072   5.643
 1374SOL    HW110393   2.875   2.163   5.671
 1374SOL    HW210394   2.814   2.075   5.548
 1375SOL     OW10395   4.718   1.055   0.594
 1375SOL    HW110396   4.792   1.055   0.662
 1375SOL    HW210397   4.690   0.961   0.576
 1376SOL     OW10398   1.262   0.439   5.809
 1376SOL    HW110399   1.276   0.507   5.881
 1376SOL    HW210400   1.323   0.361   5.824
 1377SOL     OW10401   3.999   6.190   6.064
 1377SOL    HW110402   4.001   6.140   5.977
 1377SOL    HW210403   4.088   6.179   6.110
 1378SOL     OW10404   3.321   1.561   5.886
 1378SOL    HW110405   3.374   1.535   5.967
 1378SOL    HW210406   3.379   1.612   5.822
 1379SOL     OW10407   3.624   5.603   6.298
 1379SOL    HW110408   3.622   5.671   6.372
 1379SOL    HW210409   3.541   5.610   6.244
 1380SOL     OW10410   1.196   6.008   5.800
 1380SOL    HW110411   1.202   6.036   5.896
 1380SOL    HW210412   1.112   5.954   5.786
 1381SOL     OW10413   2.967   5.350   6.542
 1381SOL    HW110414   2.878   5.343   6.499
 1381SOL    HW210415   2.956   5.373   0.069
 1382SOL     OW10416   5.856   1.790   5.609
 1382SOL    HW110417   5.789   1.793   5.534
 1382SOL    HW210418   5.925   1.721   5.590
 1383SOL     OW10419   0.520   3.292   0.262
 1383SOL    HW110420   0.557   3.284   0.354
 1383SOL    HW210421   0.592   3.276   0.195
 1384SOL     OW10422   2.825   0.784   6.403
 1384SOL    HW110423   2.903   0.840   6.430
 1384SOL    HW210424   2.810   0.793   6.304
 1385SOL     OW10425   4.188   1.633   1.610
 1385SOL    HW110426   4.145   1.713   1.652
 1385SOL    HW210427   4.157   1.550   1.656
 1386SOL     OW10428   1.235   0.816   4.843
 1386SOL    HW110429   1.308   0.753   4.816
 1386SOL    HW210430   1.218   0.882   4.771
 1387SOL     OW10431   4.090   1.760   5.838
 1387SOL    HW110432   4.023   1.732   5.907
 1387SOL    HW210433   4.043   1.779   5.752
 1388SOL     OW10434   2.338   2.055   6.342
 1388SOL    HW110435   2.418   2.033   6.286
 1388SOL    HW210436   2.255   2.028   6.294
 1389SOL     OW10437   1.482   4.300   0.168
 1389SOL    HW110438   1.404   4.275   0.226
 1389SOL    HW210439   1.457   4.286   0.072
 1390SOL     OW10440   2.667   6.021   0.470
 1390SOL    HW110441   2.742   5.974   0.423
 1390SOL    HW210442   2.688   6.118   0.476
 1391SOL     OW10443   0.010   0.853   5.535
 1391SOL    HW110444   0.082   0.823   5.473
 1391SOL    HW210445   0.017   0.804   5.622
 1392SOL     OW10446   0.100   4.283   6.085
 1392SOL    HW110447   0.121   4.315   5.993
 1392SOL    HW210448   0.001   4.271   6.094
 1393SOL     OW10449   3.757   3.311   0.017
 1393SOL    HW110450   3.824   3.385   0.022
 1393SOL    HW210451   3.748   3.269   0.107
 1394SOL     OW10452   2.320   3.913   0.535
 1394SOL    HW110453   2.383   3.970   0.483
 1394SOL    HW210454   2.362   3.887   0.622
 1395SOL     OW10455   5.388   2.791   0.878
 1395SOL    HW110456   5.376   2.882   0.838
 1395SOL    HW210457   5.320   2.729   0.840
 1396SOL     OW10458   3.156   3.415   1.567
 1396SOL    HW110459   3.208   3.330   1.572
 1396SOL    HW210460   3.071   3.405   1.619
 1397SOL     OW10461   5.030   3.047   6.068
 1397SOL    HW110462   4.954   3.112   6.059
 1397SOL    HW210463   4.993   2.956   6.089
 1398SOL     OW10464   5.145   2.892   1.113
 1398SOL    HW110465   5.166   2.887   1.211
 1398SOL    HW210466   5.193   2.971   1.073
 1399SOL     OW10467   0.868   0.808   6.385
 1399SOL    HW110468   0.797   0.804   6.315
 1399SOL    HW210469   0.950   0.761   6.352
 1400SOL     OW10470   4.362   1.745   0.555
 1400SOL    HW110471   4.412   1.754   0.469
 1400SOL    HW210472   4.395   1.665   0.604
 1401SOL     OW10473   3.617   4.554   5.898
 1401SOL    HW110474   3.527   4.554   5.854
 1401SOL    HW210475   3.628   4.470   5.951
 1402SOL     OW10476   5.746   1.519   1.756
 1402SOL    HW110477   5.694   1.439   1.783
 1402SOL    HW210478   5.717   1.598   1.810
 1403SOL     OW10479   4.109   1.030   0.612
 1403SOL    HW110480   4.074   1.116   0.647
 1403SOL    HW210481   4.122   0.966   0.688
 1404SOL     OW10482   1.091   5.562   5.479
 1404SOL    HW110483   0.993   5.556   5.495
 1404SOL    HW210484   1.125   5.474   5.444
 1405SOL     OW10485   2.336   5.257   6.104
 1405SOL    HW110486   2.304   5.193   6.173
 1405SOL    HW210487   2.261   5.282   6.043
 1406SOL     OW10488   1.312   6.152   0.536
 1406SOL    HW110489   1.290   6.093   0.458
 1406SOL    HW210490   1.395   6.204   0.517
 1407SOL     OW10491   5.618   3.642   1.285
 1407SOL    HW110492   5.636   3.716   1.349
 1407SOL    HW210493   5.606   3.680   1.193
 1408SOL     OW10494   4.503   5.039   0.697
 1408SOL    HW110495   4.433   5.014   0.763
 1408SOL    HW210496   4.560   5.112   0.734
 1409SOL     OW10497   3.139   5.964   1.508
 1409SOL    HW110498   3.047   5.995   1.532
 1409SOL    HW210499   3.169   5.894   1.573
 1410SOL     OW10500   5.916   1.384   0.069
 1410SOL    HW110501   5.816   1.385   0.070
 1410SOL    HW210502   5.949   1.291   0.085
 1411SOL     OW10503   1.050   3.220   6.104
 1411SOL    HW110504   1.085   3.195   6.014
 1411SOL    HW210505   1.122   3.266   6.156
 1412SOL     OW10506   3.528   0.007   1.626
 1412SOL    HW110507   3.451   0.004   1.690
 1412SOL    HW210508   3.496   0.038   1.536
 1413SOL     OW10509   3.955   2.017   0.327
 1413SOL    HW110510   3.881   1.967   0.282
 1413SOL    HW210511   4.010   1.954   0.381
 1414SOL     OW10512   5.886   2.697   0.160
 1414SOL    HW110513   5.831   2.649   0.092
 1414SOL    HW210514   5.971   2.647   0.175
 1415SOL     OW10515   3.790   5.417   5.868
 1415SOL    HW110516   3.842   5.499   5.846
 1415SOL    HW210517   3.760   5.421   5.963
 1416SOL     OW10518   4.750   1.765   0.448
 1416SOL    HW110519   4.818   1.817   0.396
 1416SOL    HW210520   4.659   1.778   0.407
 1417SOL     OW10521   4.308   0.287   1.626
 1417SOL    HW110522   4.385   0.311   1.685
 1417SOL    HW210523   4.274   0.196   1.650
 1418SOL     OW10524   4.561   2.630   1.002
 1418SOL    HW110525   4.650   2.586   0.996
 1418SOL    HW210526   4.541   2.677   0.917
 1419SOL     OW10527   2.883   4.040   5.015
 1419SOL    HW110528   2.950   4.056   4.943
 1419SOL    HW210529   2.793   4.069   4.983
 1420SOL     OW10530   2.578   3.397   0.471
 1420SOL    HW110531   2.567   3.358   0.562
 1420SOL    HW210532   2.661   3.452   0.468
 1421SOL     OW10533   4.939   5.116   6.283
 1421SOL    HW110534   4.937   5.162   6.194
 1421SOL    HW210535   4.915   5.020   6.271
 1422SOL     OW10536   4.650   2.142   0.532
 1422SOL    HW110537   4.653   2.223   0.591
 1422SOL    HW210538   4.661   2.170   0.437
 1423SOL     OW10539   0.261   2.248   0.189
 1423SOL    HW110540   0.227   2.174   0.130
 1423SOL    HW210541   0.288   2.326   0.133
 1424SOL     OW10542   0.533   3.800   1.125
 1424SOL    HW110543   0.545   3.860   1.046
 1424SOL    HW210544   0.591   3.832   1.200
 1425SOL     OW10545   1.422   5.125   0.666
 1425SOL    HW110546   1.508   5.075   0.667
 1425SOL    HW210547   1.412   5.177   0.751
 1426SOL     OW10548   0.458   4.062   5.353
 1426SOL    HW110549   0.503   4.123   5.288
 1426SOL    HW210550   0.360   4.059   5.335
 1427SOL     OW10551   5.808   5.225   0.711
 1427SOL    HW110552   5.745   5.147   0.714
 1427SOL    HW210553   5.804   5.274   0.798
 1428SOL     OW10554   0.378   1.313   6.228
 1428SOL    HW110555   0.476   1.326   6.239
 1428SOL    HW210556   0.329   1.379   6.286
 1429SOL     OW10557   2.502   1.424   5.759
 1429SOL    HW110558   2.544   1.511   5.785
 1429SOL    HW210559   2.572   1.361   5.727
 1430SOL     OW10560   6.076   0.640   0.198
 1430SOL    HW110561   6.109   0.723   0.153
 1430SOL    HW210562   6.139   0.565   0.177
 1431SOL     OW10563   2.859   5.680   6.102
 1431SOL    HW110564   2.947   5.652   6.139
 1431SOL    HW210565   2.808   5.599   6.072
 1432SOL     OW10566   3.998   3.516   0.366
 1432SOL    HW110567   3.983   3.430   0.414
 1432SOL    HW210568   3.995   3.592   0.430
 1433SOL     OW10569   5.569   2.164   0.804
 1433SOL    HW110570   5.594   2.224   0.727
 1433SOL    HW210571   5.636   2.175   0.877
 1434SOL     OW10572   1.977   1.271   0.569
 1434SOL    HW110573   1.993   1.181   0.528
 1434SOL    HW210574   2.059   1.299   0.619
 1435SOL     OW10575   4.831   3.848   0.519
 1435SOL    HW110576   4.797   3.854   0.612
 1435SOL    HW210577   4.760   3.877   0.455
 1436SOL     OW10578   0.215   4.088   0.322
 1436SOL    HW110579   0.312   4.074   0.306
 1436SOL    HW210580   0.195   4.076   0.420
 1437SOL     OW10581   5.473   2.101   5.858
 1437SOL    HW110582   5.573   2.105   5.864
 1437SOL    HW210583   5.439   2.175   5.801
 1438SOL     OW10584   2.860   3.764   0.796
 1438SOL    HW110585   2.813   3.800   0.876
 1438SOL    HW210586   2.947   3.723   0.824
 1439SOL     OW10587   3.085   5.051   6.175
 1439SOL    HW110588   3.078   5.025   6.078
 1439SOL    HW210589   3.030   5.132   6.192
 1440SOL     OW10590   3.613   1.665   0.383
 1440SOL    HW110591   3.548   1.693   0.455
 1440SOL    HW210592   3.705   1.661   0.421
 1441SOL     OW10593   6.158   3.891   0.298
 1441SOL    HW110594   6.144   3.955   0.223
 1441SOL    HW210595   6.122   3.930   0.383
 1442SOL     OW10596   5.657   3.921   6.463
 1442SOL    HW110597   5.662   3.942   6.365
 1442SOL    HW210598   5.749   3.922   6.502
 1443SOL     OW10599   5.227   4.161   6.490
 1443SOL    HW110600   5.259   4.245   6.533
 1443SOL    HW210601   5.189   4.100   6.559
 1444SOL     OW10602   0.949   1.694   0.139
 1444SOL    HW110603   1.015   1.745   0.194
 1444SOL    HW210604   0.903   1.627   0.197
 1445SOL     OW10605   2.674   1.369   0.196
 1445SOL    HW110606   2.654   1.350   0.100
 1445SOL    HW210607   2.745   1.305   0.228
 1446SOL     OW10608   6.214   0.258   0.918
 1446SOL    HW110609   6.307   0.258   0.952
 1446SOL    HW210610   6.155   0.310   0.980
 1447SOL     OW10611   0.704   5.154   6.515
 1447SOL    HW110612   0.758   5.214   0.004
 1447SOL    HW210613   0.747   5.064   6.510
 1448SOL     OW10614   4.245   6.110   1.264
 1448SOL    HW110615   4.195   6.138   1.347
 1448SOL    HW210616   4.200   6.030   1.224
 1449SOL     OW10617   0.540   1.165   0.491
 1449SOL    HW110618   0.535   1.105   0.570
 1449SOL    HW210619   0.447   1.188   0.461
 1450SOL     OW10620   3.289   3.235   5.325
 1450SOL    HW110621   3.286   3.158   5.389
 1450SOL    HW210622   3.197   3.253   5.291
 1451SOL     OW10623   5.430   3.790   6.533
 1451SOL    HW110624   5.509   3.847   6.510
 1451SOL    HW210625   5.386   3.827   0.045
 1452SOL     OW10626   5.175   5.998   0.723
 1452SOL    HW110627   5.076   6.007   0.707
 1452SOL    HW210628   5.190   5.954   0.811
 1453SOL     OW10629   0.506   2.191   0.314
 1453SOL    HW110630   0.417   2.214   0.275
 1453SOL    HW210631   0.494   2.156   0.407
 1454SOL     OW10632   0.441   0.965   0.092
 1454SOL    HW110633   0.484   0.988   0.004
 1454SOL    HW210634   0.486   0.885   0.131
 1455SOL     OW10635   0.054   6.193   0.236
 1455SOL    HW110636   6.330   6.147   0.170
 1455SOL    HW210637   0.118   6.253   0.188
 1456SOL     OW10638   2.237   3.375   6.566
 1456SOL    HW110639   2.301   3.421   0.057
 1456SOL    HW210640   2.200   3.441   6.500
 1457SOL     OW10641   4.872   3.116   0.394
 1457SOL    HW110642   4.779   3.150   0.411
 1457SOL    HW210643   4.892   3.041   0.457
 1458SOL     OW10644   5.839   2.721   5.248
 1458SOL    HW110645   5.846   2.621   5.244
 1458SOL    HW210646   5.931   2.761   5.238
 1459SOL     OW10647   2.621   5.257   0.613
 1459SOL    HW110648   2.548   5.318   0.646
 1459SOL    HW210649   2.582   5.167   0.596
 1460SOL     OW10650   1.731   6.280   1.534
 1460SOL    HW110651   1.660   6.316   1.594
 1460SOL    HW210652   1.737   6.181   1.545
 1461SOL     OW10653   0.919   0.965   6.074
 1461SOL    HW110654   0.912   0.938   5.977
 1461SOL    HW210655   0.922   1.064   6.081
 1462SOL     OW10656   4.050   4.133   0.817
 1462SOL    HW110657   4.136   4.114   0.863
 1462SOL    HW210658   3.991   4.187   0.877
 1463SOL     OW10659   6.103   2.334   0.030
 1463SOL    HW110660   6.127   2.238   0.045
 1463SOL    HW210661   6.103   2.353   6.501
 1464SOL     OW10662   4.635   3.628   0.350
 1464SOL    HW110663   4.707   3.564   0.322
 1464SOL    HW210664   4.659   3.720   0.320
 1465SOL     OW10665   4.507   4.794   6.269
 1465SOL    HW110666   4.553   4.868   6.319
 1465SOL    HW210667   4.414   4.784   6.304
 1466SOL     OW10668   0.917   4.416   6.272
 1466SOL    HW110669   0.910   4.319   6.294
 1466SOL    HW210670   1.013   4.440   6.256
 1467SOL     OW10671   5.375   2.737   6.198
 1467SOL    HW110672   5.336   2.828   6.206
 1467SOL    HW210673   5.410   2.723   6.105
 1468SOL     OW10674   2.638   4.612   5.848
 1468SOL    HW110675   2.718   4.583   5.901
 1468SOL    HW210676   2.645   4.574   5.755
 1469SOL     OW10677   5.484   3.318   5.673
 1469SOL    HW110678   5.388   3.336   5.696
 1469SOL    HW210679   5.488   3.275   5.582
 1470SOL     OW10680   2.142   3.171   0.512
 1470SOL    HW110681   2.205   3.143   0.440
 1470SOL    HW210682   2.178   3.143   0.601
 1471SOL     OW10683   1.631   5.336   0.672
 1471SOL    HW110684   1.568   5.261   0.655
 1471SOL    HW210685   1.588   5.423   0.646
 1472SOL     OW10686   2.328   4.167   0.070
 1472SOL    HW110687   2.318   4.265   0.086
 1472SOL    HW210688   2.250   4.119   0.109
 1473SOL     OW10689   2.149   1.635   5.669
 1473SOL    HW110690   2.208   1.704   5.710
 1473SOL    HW210691   2.122   1.665   5.577
 1474SOL     OW10692   5.894   2.454   5.248
 1474SOL    HW110693   5.993   2.435   5.251
 1474SOL    HW210694   5.853   2.426   5.335
 1475SOL     OW10695   0.100   5.916   0.753
 1475SOL    HW110696   0.103   6.004   0.706
 1475SOL    HW210697   0.132   5.927   0.847
 1476SOL     OW10698   3.530   1.157   5.574
 1476SOL    HW110699   3.616   1.188   5.532
 1476SOL    HW210700   3.523   1.058   5.567
 1477SOL     OW10701   0.798   5.904   6.013
 1477SOL    HW110702   0.732   5.836   5.981
 1477SOL    HW210703   0.791   5.913   6.113
 1478SOL     OW10704   2.034   6.314   6.005
 1478SOL    HW110705   2.018   6.363   5.920
 1478SOL    HW210706   2.129   6.283   6.009
 1479SOL     OW10707   0.724   3.882   5.686
 1479SOL    HW110708   0.642   3.864   5.631
 1479SOL    HW210709   0.801   3.901   5.625
 1480SOL     OW10710   5.985   1.126   0.111
 1480SOL    HW110711   6.004   1.078   0.197
 1480SOL    HW210712   5.945   1.062   0.045
 1481SOL     OW10713   2.103   4.054   0.182
 1481SOL    HW110714   2.129   3.965   0.218
 1481SOL    HW210715   2.086   4.117   0.258
 1482SOL     OW10716   1.335   2.873   5.236
 1482SOL    HW110717   1.284   2.833   5.159
 1482SOL    HW210718   1.431   2.843   5.230
 1483SOL     OW10719   6.257   4.362   0.485
 1483SOL    HW110720   6.233   4.382   0.580
 1483SOL    HW210721   0.021   4.369   0.472
 1484SOL     OW10722   3.133   0.775   6.158
 1484SOL    HW110723   3.074   0.697   6.179
 1484SOL    HW210724   3.202   0.747   6.090
 1485SOL     OW10725   6.268   4.670   0.651
 1485SOL    HW110726   6.265   4.578   0.691
 1485SOL    HW210727   6.187   4.683   0.592
 1486SOL     OW10728   5.709   5.944   5.998
 1486SOL    HW110729   5.796   5.922   5.956
 1486SOL    HW210730   5.648   5.865   5.995
 1487SOL     OW10731   0.714   1.738   0.412
 1487SOL    HW110732   0.777   1.814   0.395
 1487SOL    HW210733   0.741   1.659   0.356
 1488SOL     OW10734   6.297   4.526   6.467
 1488SOL    HW110735   6.291   4.561   6.560
 1488SOL    HW210736   6.333   4.597   6.406
 1489SOL     OW10737   5.196   5.119   6.372
 1489SOL    HW110738   5.099   5.128   6.349
 1489SOL    HW210739   5.236   5.210   6.385
 1490SOL     OW10740   1.181   0.919   6.158
 1490SOL    HW110741   1.247   0.973   6.106
 1490SOL    HW210742   1.089   0.933   6.120
 1491SOL     OW10743   2.510   5.774   5.683
 1491SOL    HW110744   2.578   5.845   5.661
 1491SOL    HW210745   2.485   5.725   5.599
 1492SOL     OW10746   0.656   4.481   0.042
 1492SOL    HW110747   0.618   4.521   0.126
 1492SOL    HW210748   0.614   4.392   0.025
 1493SOL     OW10749   1.645   3.644   5.737
 1493SOL    HW110750   1.599   3.644   5.648
 1493SOL    HW210751   1.738   3.680   5.725
 1494SOL     OW10752   2.730   5.049   5.993
 1494SOL    HW110753   2.767   5.001   5.914
 1494SOL    HW210754   2.639   5.085   5.970
 1495SOL     OW10755   6.118   3.413   5.951
 1495SOL    HW110756   6.077   3.324   5.928
 1495SOL    HW210757   6.046   3.481   5.963
 1496SOL     OW10758   6.189   1.037   6.254
 1496SOL    HW110759   6.241   1.095   6.317
 1496SOL    HW210760   6.202   0.941   6.279
 1497SOL     OW10761   4.928   6.230   5.726
 1497SOL    HW110762   4.895   6.236   5.820
 1497SOL    HW210763   4.871   6.289   5.668
 1498SOL     OW10764   1.838   1.608   5.490
 1498SOL    HW110765   1.923   1.659   5.477
 1498SOL    HW210766   1.828   1.540   5.417
 1499SOL     OW10767   4.982   6.024   0.410
 1499SOL    HW110768   5.014   6.118   0.395
 1499SOL    HW210769   5.056   5.960   0.390
 1500SOL     OW10770   4.405   1.789   6.525
 1500SOL    HW110771   4.338   1.863   6.522
 1500SOL    HW210772   4.390   1.734   0.037
 1501SOL     OW10773   0.906   1.131   5.754
 1501SOL    HW110774   0.837   1.180   5.807
 1501SOL    HW210775   0.898   1.033   5.771
 1502SOL     OW10776   0.913   4.580   0.837
 1502SOL    HW110777   0.852   4.608   0.912
 1502SOL    HW210778   0.958   4.494   0.861
 1503SOL     OW10779   6.215   2.027   5.679
 1503SOL    HW110780   6.116   2.036   5.686
 1503SOL    HW210781   6.260   2.087   5.746
 1504SOL     OW10782   0.939   1.516   1.233
 1504SOL    HW110783   0.885   1.449   1.285
 1504SOL    HW210784   0.948   1.600   1.287
 1505SOL     OW10785   3.062   5.364   5.805
 1505SOL    HW110786   2.987   5.338   5.866
 1505SOL    HW210787   3.110   5.282   5.775
 1506SOL     OW10788   3.627   3.473   0.297
 1506SOL    HW110789   3.681   3.388   0.290
 1506SOL    HW210790   3.668   3.532   0.367
 1507SOL     OW10791   2.884   1.494   0.881
 1507SOL    HW110792   2.975   1.454   0.882
 1507SOL    HW210793   2.861   1.528   0.972
 1508SOL     OW10794   2.027   2.204   0.317
 1508SOL    HW110795   1.963   2.155   0.258
 1508SOL    HW210796   1.986   2.215   0.407
 1509SOL     OW10797   4.759   0.493   0.359
 1509SOL    HW110798   4.746   0.412   0.416
 1509SOL    HW210799   4.826   0.553   0.401
 1510SOL     OW10800   5.332   5.273   0.820
 1510SOL    HW110801   5.293   5.273   0.912
 1510SOL    HW210802   5.294   5.196   0.768
 1511SOL     OW10803   3.108   6.210   5.573
 1511SOL    HW110804   3.079   6.153   5.496
 1511SOL    HW210805   3.178   6.274   5.542
 1512SOL     OW10806   4.577   0.194   0.162
 1512SOL    HW110807   4.492   0.198   0.110
 1512SOL    HW210808   4.556   0.183   0.259
 1513SOL     OW10809   4.883   4.489   1.228
 1513SOL    HW110810   4.794   4.521   1.194
 1513SOL    HW210811   4.946   4.478   1.151
 1514SOL     OW10812   4.572   6.021   6.260
 1514SOL    HW110813   4.543   5.935   6.302
 1514SOL    HW210814   4.582   6.008   6.161
 1515SOL     OW10815   5.340   1.033   0.540
 1515SOL    HW110816   5.322   1.121   0.584
 1515SOL    HW210817   5.271   1.018   0.469
 1516SOL     OW10818   0.412   5.507   1.363
 1516SOL    HW110819   0.373   5.566   1.292
 1516SOL    HW210820   0.392   5.545   1.453
 1517SOL     OW10821   3.610   2.951   0.979
 1517SOL    HW110822   3.608   2.977   0.883
 1517SOL    HW210823   3.595   3.032   1.037
 1518SOL     OW10824   3.027   3.269   5.218
 1518SOL    HW110825   3.018   3.363   5.252
 1518SOL    HW210826   2.940   3.239   5.179
 1519SOL     OW10827   1.452   0.976   6.490
 1519SOL    HW110828   1.373   1.019   6.448
 1519SOL    HW210829   1.536   1.022   6.459
 1520SOL     OW10830   0.229   3.220   5.497
 1520SOL    HW110831   0.196   3.285   5.429
 1520SOL    HW210832   0.325   3.199   5.479
 1521SOL     OW10833   1.302   3.127   4.729
 1521SOL    HW110834   1.313   3.061   4.655
 1521SOL    HW210835   1.352   3.211   4.707
 1522SOL     OW10836   4.089   3.548   6.222
 1522SOL    HW110837   4.029   3.627   6.236
 1522SOL    HW210838   4.093   3.493   6.306
 1523SOL     OW10839   0.323   0.865   4.757
 1523SOL    HW110840   0.229   0.874   4.724
 1523SOL    HW210841   0.387   0.879   4.681
 1524SOL     OW10842   3.434   3.981   4.887
 1524SOL    HW110843   3.476   3.921   4.818
 1524SOL    HW210844   3.392   4.059   4.841
 1525SOL     OW10845   5.254   1.859   0.818
 1525SOL    HW110846   5.342   1.814   0.803
 1525SOL    HW210847   5.269   1.947   0.862
 1526SOL     OW10848   5.504   2.000   5.331
 1526SOL    HW110849   5.422   2.001   5.274
 1526SOL    HW210850   5.579   2.045   5.283
 1527SOL     OW10851   1.341   0.707   0.902
 1527SOL    HW110852   1.320   0.762   0.984
 1527SOL    HW210853   1.440   0.699   0.892
 1528SOL     OW10854   4.982   4.609   6.551
 1528SOL    HW110855   5.068   4.620   0.030
 1528SOL    HW210856   4.950   4.514   6.560
 1529SOL     OW10857   5.709   5.529   5.920
 1529SOL    HW110858   5.651   5.603   5.952
 1529SOL    HW210859   5.694   5.514   5.822
 1530SOL     OW10860   0.958   6.317   1.168
 1530SOL    HW110861   0.937   6.256   1.244
 1530SOL    HW210862   0.879   6.327   1.109
 1531SOL     OW10863   1.196   2.721   6.031
 1531SOL    HW110864   1.119   2.695   6.090
 1531SOL    HW210865   1.241   2.802   6.069
 1532SOL     OW10866   6.229   4.430   0.217
 1532SOL    HW110867   6.254   4.525   0.200
 1532SOL    HW210868   6.229   4.413   0.316
 1533SOL     OW10869   0.600   5.083   5.328
 1533SOL    HW110870   0.596   5.183   5.333
 1533SOL    HW210871   0.689   5.055   5.292
 1534SOL     OW10872   0.058   3.455   0.229
 1534SOL    HW110873   0.146   3.437   0.185
 1534SOL    HW210874   0.027   3.547   0.204
 1535SOL     OW10875   4.027   3.819   1.235
 1535SOL    HW110876   3.981   3.874   1.305
 1535SOL    HW210877   4.001   3.723   1.246
 1536SOL     OW10878   1.071   3.790   1.536
 1536SOL    HW110879   1.143   3.822   1.598
 1536SOL    HW210880   1.015   3.868   1.508
 1537SOL     OW10881   1.453   4.706   0.364
 1537SOL    HW110882   1.519   4.719   0.438
 1537SOL    HW210883   1.380   4.645   0.395
 1538SOL     OW10884   2.978   2.354   0.822
 1538SOL    HW110885   3.071   2.391   0.821
 1538SOL    HW210886   2.940   2.358   0.730
 1539SOL     OW10887   1.632   2.268   0.211
 1539SOL    HW110888   1.663   2.347   0.158
 1539SOL    HW210889   1.543   2.239   0.178
 1540SOL     OW10890   4.206   4.501   6.537
 1540SOL    HW110891   4.122   4.467   0.008
 1540SOL    HW210892   4.222   4.595   6.566
 1541SOL     OW10893   5.723   1.459   6.245
 1541SOL    HW110894   5.717   1.526   6.319
 1541SOL    HW210895   5.722   1.505   6.157
 1542SOL     OW10896   3.491   2.436   4.975
 1542SOL    HW110897   3.461   2.529   4.998
 1542SOL    HW210898   3.472   2.417   4.879
 1543SOL     OW10899   2.737   3.833   1.030
 1543SOL    HW110900   2.795   3.868   1.104
 1543SOL    HW210901   2.702   3.743   1.055
 1544SOL     OW10902   1.531   4.432   6.302
 1544SOL    HW110903   1.577   4.504   6.354
 1544SOL    HW210904   1.593   4.394   6.234
 1545SOL     OW10905   5.885   3.270   0.263
 1545SOL    HW110906   5.838   3.219   0.190
 1545SOL    HW210907   5.982   3.276   0.242
 1546SOL     OW10908   1.909   4.042   6.269
 1546SOL    HW110909   1.929   4.062   6.173
 1546SOL    HW210910   1.812   4.022   6.279
 1547SOL     OW10911   0.698   5.884   0.288
 1547SOL    HW110912   0.725   5.914   0.379
 1547SOL    HW210913   0.779   5.874   0.230
 1548SOL     OW10914   0.831   5.360   5.913
 1548SOL    HW110915   0.907   5.396   5.860
 1548SOL    HW210916   0.842   5.262   5.925
 1549SOL     OW10917   2.585   2.426   6.399
 1549SOL    HW110918   2.682   2.415   6.376
 1549SOL    HW210919   2.562   2.524   6.399
 1550SOL     OW10920   0.708   1.600   4.893
 1550SOL    HW110921   0.738   1.543   4.817
 1550SOL    HW210922   0.693   1.693   4.861
 1551SOL     OW10923   1.021   0.977   1.416
 1551SOL    HW110924   1.043   0.890   1.372
 1551SOL    HW210925   0.939   0.966   1.474
 1552SOL     OW10926   1.061   3.955   0.843
 1552SOL    HW110927   1.127   4.010   0.895
 1552SOL    HW210928   1.103   3.925   0.757
 1553SOL     OW10929   1.953   0.126   0.858
 1553SOL    HW110930   2.047   0.146   0.828
 1553SOL    HW210931   1.943   0.027   0.868
 1554SOL     OW10932   5.137   3.202   5.548
 1554SOL    HW110933   5.074   3.209   5.471
 1554SOL    HW210934   5.203   3.128   5.531
 1555SOL     OW10935   4.166   2.033   0.695
 1555SOL    HW110936   4.266   2.034   0.687
 1555SOL    HW210937   4.140   1.980   0.776
 1556SOL     OW10938   0.893   5.842   0.097
 1556SOL    HW110939   0.978   5.803   0.063
 1556SOL    HW210940   0.815   5.802   0.048
 1557SOL     OW10941   3.112   2.946   0.684
 1557SOL    HW110942   3.104   2.861   0.634
 1557SOL    HW210943   3.209   2.969   0.695
 1558SOL     OW10944   4.284   3.628   6.530
 1558SOL    HW110945   4.230   3.551   6.495
 1558SOL    HW210946   4.269   3.637   0.058
 1559SOL     OW10947   6.264   0.940   5.276
 1559SOL    HW110948   6.278   0.910   5.370
 1559SOL    HW210949   6.174   0.911   5.244
 1560SOL     OW10950   2.445   5.651   5.451
 1560SOL    HW110951   2.444   5.557   5.415
 1560SOL    HW210952   2.489   5.711   5.386
 1561SOL     OW10953   1.539   2.209   5.363
 1561SOL    HW110954   1.581   2.240   5.277
 1561SOL    HW210955   1.537   2.110   5.366
 1562SOL     OW10956   3.961   4.457   5.820
 1562SOL    HW110957   3.911   4.534   5.781
 1562SOL    HW210958   3.971   4.385   5.750
 1563SOL     OW10959   3.615   0.316   1.285
 1563SOL    HW110960   3.639   0.355   1.374
 1563SOL    HW210961   3.697   0.310   1.228
 1564SOL     OW10962   0.646   5.330   1.071
 1564SOL    HW110963   0.601   5.375   0.994
 1564SOL    HW210964   0.578   5.303   1.139
 1565SOL     OW10965   3.032   2.209   0.284
 1565SOL    HW110966   3.044   2.307   0.271
 1565SOL    HW210967   3.050   2.186   0.380
 1566SOL     OW10968   4.689   0.595   0.973
 1566SOL    HW110969   4.657   0.598   1.068
 1566SOL    HW210970   4.671   0.683   0.929
 1567SOL     OW10971   0.544   2.664   6.054
 1567SOL    HW110972   0.582   2.596   5.991
 1567SOL    HW210973   0.597   2.748   6.049
 1568SOL     OW10974   2.341   1.950   0.033
 1568SOL    HW110975   2.326   1.987   6.511
 1568SOL    HW210976   2.264   1.890   0.058
 1569SOL     OW10977   5.238   2.075   1.439
 1569SOL    HW110978   5.321   2.124   1.411
 1569SOL    HW210979   5.218   2.003   1.372
 1570SOL     OW10980   4.169   2.724   1.342
 1570SOL    HW110981   4.260   2.697   1.310
 1570SOL    HW210982   4.122   2.774   1.269
 1571SOL     OW10983   0.671   3.091   0.872
 1571SOL    HW110984   0.596   3.133   0.821
 1571SOL    HW210985   0.635   3.023   0.935
 1572SOL     OW10986   5.465   3.129   5.884
 1572SOL    HW110987   5.491   3.197   5.816
 1572SOL    HW210988   5.387   3.163   5.937
 1573SOL     OW10989   0.097   2.774   5.462
 1573SOL    HW110990   0.062   2.694   5.412
 1573SOL    HW210991   0.034   2.851   5.450
 1574SOL     OW10992   3.212   4.331   0.364
 1574SOL    HW110993   3.230   4.349   0.267
 1574SOL    HW210994   3.295   4.350   0.417
 1575SOL     OW10995   1.194   5.493   0.829
 1575SOL    HW110996   1.235   5.574   0.787
 1575SOL    HW210997   1.117   5.520   0.887
 1576SOL     OW10998   0.699   3.592   6.013
 1576SOL    HW110999   0.782   3.572   5.962
 1576SOL    HW211000   0.689   3.527   6.088
 1577SOL     OW11001   3.712   1.182   0.639
 1577SOL    HW111002   3.665   1.102   0.601
 1577SOL    HW211003   3.645   1.252   0.663
 1578SOL     OW11004   4.610   0.994   1.414
 1578SOL    HW111005   4.560   1.050   1.481
 1578SOL    HW211006   4.659   0.921   1.461
 1579SOL     OW11007   4.108   1.141   0.170
 1579SOL    HW111008   4.168   1.164   0.247
 1579SOL    HW211009   4.018   1.183   0.184
 1580SOL     OW11010   4.002   1.363   5.049
 1580SOL    HW111011   4.000   1.443   4.989
 1580SOL    HW211012   4.082   1.307   5.029
 1581SOL     OW11013   1.904   3.491   0.990
 1581SOL    HW111014   1.941   3.403   0.958
 1581SOL    HW211015   1.823   3.474   1.046
 1582SOL     OW11016   1.800   1.687   5.935
 1582SOL    HW111017   1.746   1.668   5.853
 1582SOL    HW211018   1.830   1.782   5.934
 1583SOL     OW11019   1.093   4.490   5.787
 1583SOL    HW111020   1.190   4.477   5.810
 1583SOL    HW211021   1.082   4.490   5.687
 1584SOL     OW11022   2.040   6.046   5.637
 1584SOL    HW111023   2.069   6.020   5.730
 1584SOL    HW211024   2.101   6.117   5.601
 1585SOL     OW11025   5.737   3.690   1.663
 1585SOL    HW111026   5.807   3.636   1.710
 1585SOL    HW211027   5.652   3.686   1.716
 1586SOL     OW11028   3.426   4.668   1.140
 1586SOL    HW111029   3.382   4.658   1.229
 1586SOL    HW211030   3.525   4.660   1.150
 1587SOL     OW11031   3.269   4.818   0.429
 1587SOL    HW111032   3.300   4.759   0.504
 1587SOL    HW211033   3.179   4.856   0.452
 1588SOL     OW11034   5.835   4.097   6.039
 1588SOL    HW111035   5.900   4.021   6.042
 1588SOL    HW211036   5.882   4.182   6.061
 1589SOL     OW11037   5.282   3.113   0.280
 1589SOL    HW111038   5.212   3.182   0.297
 1589SOL    HW211039   5.298   3.061   0.364
 1590SOL     OW11040   3.534   5.115   1.382
 1590SOL    HW111041   3.435   5.103   1.388
 1590SOL    HW211042   3.556   5.212   1.376
 1591SOL     OW11043   3.059   1.106   5.660
 1591SOL    HW111044   3.115   1.035   5.701
 1591SOL    HW211045   3.067   1.190   5.714
 1592SOL     OW11046   4.224   0.861   0.436
 1592SOL    HW111047   4.152   0.825   0.377
 1592SOL    HW211048   4.187   0.931   0.496
 1593SOL     OW11049   2.655   3.238   0.266
 1593SOL    HW111050   2.745   3.201   0.287
 1593SOL    HW211051   2.623   3.293   0.343
 1594SOL     OW11052   2.902   4.819   5.531
 1594SOL    HW111053   2.948   4.888   5.474
 1594SOL    HW211054   2.970   4.759   5.573
 1595SOL     OW11055   5.155   0.692   0.873
 1595SOL    HW111056   5.087   0.726   0.807
 1595SOL    HW211057   5.230   0.758   0.880
 1596SOL     OW11058   5.606   6.007   0.635
 1596SOL    HW111059   5.616   6.098   0.593
 1596SOL    HW211060   5.523   5.964   0.600
 1597SOL     OW11061   0.780   2.479   5.663
 1597SOL    HW111062   0.781   2.517   5.570
 1597SOL    HW211063   0.874   2.459   5.691
 1598SOL     OW11064   5.660   1.563   5.996
 1598SOL    HW111065   5.571   1.552   5.952
 1598SOL    HW211066   5.701   1.649   5.967
 1599SOL     OW11067   3.183   2.472   1.289
 1599SOL    HW111068   3.189   2.552   1.348
 1599SOL    HW211069   3.140   2.396   1.339
 1600SOL     OW11070   4.904   4.008   0.874
 1600SOL    HW111071   4.842   3.938   0.839
 1600SOL    HW211072   4.977   3.964   0.926
 1601SOL     OW11073   4.706   4.906   0.571
 1601SOL    HW111074   4.770   4.976   0.542
 1601SOL    HW211075   4.626   4.948   0.612
 1602SOL     OW11076   2.475   4.779   5.986
 1602SOL    HW111077   2.425   4.842   5.926
 1602SOL    HW211078   2.536   4.722   5.931
 1603SOL     OW11079   5.561   1.890   0.715
 1603SOL    HW111080   5.656   1.858   0.714
 1603SOL    HW211081   5.558   1.987   0.739
 1604SOL     OW11082   0.869   5.174   1.038
 1604SOL    HW111083   0.825   5.084   1.045
 1604SOL    HW211084   0.801   5.245   1.052
 1605SOL     OW11085   2.293   0.801   6.167
 1605SOL    HW111086   2.330   0.789   6.260
 1605SOL    HW211087   2.193   0.804   6.172
 1606SOL     OW11088   1.339   6.238   5.747
 1606SOL    HW111089   1.274   6.163   5.760
 1606SOL    HW211090   1.431   6.207   5.769
 1607SOL     OW11091   0.720   3.953   6.227
 1607SOL    HW111092   0.622   3.969   6.239
 1607SOL    HW211093   0.737   3.924   6.132
 1608SOL     OW11094   1.331   1.253   1.005
 1608SOL    HW111095   1.275   1.318   1.058
 1608SOL    HW211096   1.334   1.283   0.910
 1609SOL     OW11097   4.351   4.710   5.870
 1609SOL    HW111098   4.314   4.731   5.779
 1609SOL    HW211099   4.291   4.644   5.915
 1610SOL     OW11100   3.022   4.709   0.942
 1610SOL    HW111101   2.952   4.749   1.002
 1610SOL    HW211102   3.052   4.777   0.876
 1611SOL     OW11103   3.318   1.302   1.147
 1611SOL    HW111104   3.347   1.370   1.215
 1611SOL    HW211105   3.219   1.307   1.134
 1612SOL     OW11106   6.011   1.180   1.527
 1612SOL    HW111107   6.084   1.148   1.588
 1612SOL    HW211108   5.985   1.273   1.553
 1613SOL     OW11109   1.432   1.077   4.732
 1613SOL    HW111110   1.451   1.174   4.713
 1613SOL    HW211111   1.344   1.053   4.692
 1614SOL     OW11112   4.890   3.929   6.518
 1614SOL    HW111113   4.837   3.849   6.544
 1614SOL    HW211114   4.830   3.994   6.471
 1615SOL     OW11115   0.180   5.906   1.012
 1615SOL    HW111116   0.130   5.893   1.097
 1615SOL    HW211117   0.278   5.891   1.028
 1616SOL     OW11118   3.409   0.137   0.213
 1616SOL    HW111119   3.380   0.079   0.289
 1616SOL    HW211120   3.455   0.082   0.144
 1617SOL     OW11121   2.659   2.836   4.393
 1617SOL    HW111122   2.562   2.816   4.409
 1617SOL    HW211123   2.670   2.934   4.376
 1618SOL     OW11124   4.457   1.731   1.171
 1618SOL    HW111125   4.389   1.797   1.138
 1618SOL    HW211126   4.434   1.703   1.264
 1619SOL     OW11127   0.416   3.634   5.368
 1619SOL    HW111128   0.338   3.627   5.307
 1619SOL    HW211129   0.440   3.543   5.402
 1620SOL     OW11130   4.958   5.567   6.277
 1620SOL    HW111131   4.869   5.611   6.267
 1620SOL    HW211132   5.026   5.636   6.301
 1621SOL     OW11133   1.573   5.628   0.839
 1621SOL    HW111134   1.521   5.602   0.758
 1621SOL    HW211135   1.528   5.592   0.920
 1622SOL     OW11136   2.247   3.542   0.659
 1622SOL    HW111137   2.282   3.474   0.724
 1622SOL    HW211138   2.171   3.503   0.608
 1623SOL     OW11139   3.759   5.439   5.250
 1623SOL    HW111140   3.690   5.377   5.212
 1623SOL    HW211141   3.804   5.489   5.176
 1624SOL     OW11142   2.299   1.830   5.774
 1624SOL    HW111143   2.253   1.919   5.765
 1624SOL    HW211144   2.349   1.827   5.860
 1625SOL     OW11145   5.200   5.881   0.963
 1625SOL    HW111146   5.201   5.785   0.990
 1625SOL    HW211147   5.132   5.930   1.017
 1626SOL     OW11148   1.362   1.104   6.054
 1626SOL    HW111149   1.375   1.119   5.956
 1626SOL    HW211150   1.348   1.192   6.100
 1627SOL     OW11151   3.392   2.615   5.810
 1627SOL    HW111152   3.409   2.604   5.712
 1627SOL    HW211153   3.405   2.526   5.856
 1628SOL     OW11154   3.563   5.021   0.166
 1628SOL    HW111155   3.493   4.950   0.162
 1628SOL    HW211156   3.550   5.076   0.248
 1629SOL     OW11157   4.750   4.112   6.370
 1629SOL    HW111158   4.799   4.131   6.285
 1629SOL    HW211159   4.703   4.195   6.401
 1630SOL     OW11160   0.148   0.607   0.060
 1630SOL    HW111161   0.161   0.695   0.106
 1630SOL    HW211162   0.072   0.558   0.102
 1631SOL     OW11163   0.388   4.613   1.146
 1631SOL    HW111164   0.440   4.689   1.107
 1631SOL    HW211165   0.370   4.631   1.242
 1632SOL     OW11166   0.244   6.336   0.106
 1632SOL    HW111167   0.327   6.383   0.136
 1632SOL    HW211168   0.269   6.257   0.050
 1633SOL     OW11169   3.615   0.414   0.765
 1633SOL    HW111170   3.518   0.436   0.773
 1633SOL    HW211171   3.639   0.402   0.669
 1634SOL     OW11172   2.489   0.525   0.877
 1634SOL    HW111173   2.417   0.517   0.946
 1634SOL    HW211174   2.563   0.462   0.898
 1635SOL     OW11175   3.744   0.861   0.277
 1635SOL    HW111176   3.714   0.905   0.191
 1635SOL    HW211177   3.703   0.909   0.354
 1636SOL     OW11178   5.745   0.816   1.488
 1636SOL    HW111179   5.670   0.768   1.442
 1636SOL    HW211180   5.726   0.820   1.586
 1637SOL     OW11181   1.829   2.997   6.096
 1637SOL    HW111182   1.752   2.933   6.103
 1637SOL    HW211183   1.835   3.052   6.179
 1638SOL     OW11184   0.553   1.201   0.953
 1638SOL    HW111185   0.599   1.286   0.926
 1638SOL    HW211186   0.471   1.223   1.005
 1639SOL     OW11187   1.033   2.147   0.888
 1639SOL    HW111188   0.956   2.089   0.915
 1639SOL    HW211189   1.118   2.104   0.916
 1640SOL     OW11190   1.106   4.059   0.127
 1640SOL    HW111191   1.070   4.008   0.205
 1640SOL    HW211192   1.040   4.127   0.097
 1641SOL     OW11193   3.247   1.146   0.787
 1641SOL    HW111194   3.242   1.052   0.754
 1641SOL    HW211195   3.329   1.158   0.843
 1642SOL     OW11196   5.465   2.709   1.593
 1642SOL    HW111197   5.536   2.639   1.598
 1642SOL    HW211198   5.483   2.780   1.660
 1643SOL     OW11199   2.049   1.809   4.970
 1643SOL    HW111200   2.024   1.732   4.911
 1643SOL    HW211201   2.148   1.819   4.971
 1644SOL     OW11202   4.006   3.843   6.091
 1644SOL    HW111203   4.054   3.796   6.016
 1644SOL    HW211204   4.051   3.931   6.109
 1645SOL     OW11205   0.040   4.170   5.484
 1645SOL    HW111206   6.297   4.114   5.511
 1645SOL    HW211207   0.010   4.264   5.470
 1646SOL     OW11208   5.803   4.824   0.606
 1646SOL    HW111209   5.751   4.881   0.670
 1646SOL    HW211210   5.756   4.822   0.518
 1647SOL     OW11211   3.120   2.942   1.369
 1647SOL    HW111212   3.152   2.848   1.378
 1647SOL    HW211213   3.115   2.984   1.460
 1648SOL     OW11214   4.391   3.014   1.926
 1648SOL    HW111215   4.404   3.099   1.875
 1648SOL    HW211216   4.382   3.035   2.024
 1649SOL     OW11217   1.276   5.731   0.721
 1649SOL    HW111218   1.225   5.735   0.635
 1649SOL    HW211219   1.285   5.823   0.759
 1650SOL     OW11220   6.035   0.001   0.395
 1650SOL    HW111221   5.986   6.338   0.341
 1650SOL    HW211222   5.973   0.039   0.464
 1651SOL     OW11223   4.006   6.055   5.832
 1651SOL    HW111224   3.972   5.969   5.870
 1651SOL    HW211225   3.968   6.069   5.740
 1652SOL     OW11226   5.365   5.884   0.561
 1652SOL    HW111227   5.306   5.919   0.633
 1652SOL    HW211228   5.313   5.876   0.476
 1653SOL     OW11229   1.330   0.528   0.633
 1653SOL    HW111230   1.425   0.512   0.662
 1653SOL    HW211231   1.297   0.449   0.581
 1654SOL     OW11232   2.703   0.447   5.075
 1654SOL    HW111233   2.733   0.533   5.035
 1654SOL    HW211234   2.770   0.375   5.055
 1655SOL     OW11235   6.276   3.438   1.601
 1655SOL    HW111236   6.230   3.526   1.588
 1655SOL    HW211237   6.294   3.424   1.698
 1656SOL     OW11238   2.630   0.474   5.345
 1656SOL    HW111239   2.649   0.461   5.248
 1656SOL    HW211240   2.551   0.535   5.355
 1657SOL     OW11241   3.328   0.907   5.537
 1657SOL    HW111242   3.425   0.883   5.542
 1657SOL    HW211243   3.302   0.922   5.442
 1658SOL     OW11244   5.470   5.975   5.303
 1658SOL    HW111245   5.474   6.001   5.206
 1658SOL    HW211246   5.461   5.876   5.310
 1659SOL     OW11247   4.706   0.274   0.523
 1659SOL    HW111248   4.686   0.314   0.613
 1659SOL    HW211249   4.624   0.232   0.486
 1660SOL     OW11250   2.128   4.338   0.860
 1660SOL    HW111251   2.115   4.362   0.956
 1660SOL    HW211252   2.056   4.276   0.831
 1661SOL     OW11253   4.271   1.268   6.552
 1661SOL    HW111254   4.247   1.246   6.458
 1661SOL    HW211255   4.204   1.229   0.045
 1662SOL     OW11256   1.328   5.627   5.339
 1662SOL    HW111257   1.243   5.611   5.389
 1662SOL    HW211258   1.347   5.547   5.281
 1663SOL     OW11259   3.295   0.687   5.263
 1663SOL    HW111260   3.289   0.786   5.269
 1663SOL    HW211261   3.376   0.661   5.212
 1664SOL     OW11262   0.578   2.537   6.295
 1664SOL    HW111263   0.541   2.590   6.372
 1664SOL    HW211264   0.564   2.588   6.210
 1665SOL     OW11265   3.120   1.640   6.077
 1665SOL    HW111266   3.193   1.636   6.009
 1665SOL    HW211267   3.149   1.701   6.152
 1666SOL     OW11268   3.518   6.166   1.451
 1666SOL    HW111269   3.558   6.192   1.538
 1666SOL    HW211270   3.421   6.192   1.449
 1667SOL     OW11271   0.480   0.706   4.916
 1667SOL    HW111272   0.529   0.643   4.855
 1667SOL    HW211273   0.420   0.765   4.862
 1668SOL     OW11274   0.816   0.779   0.079
 1668SOL    HW111275   0.844   0.863   0.126
 1668SOL    HW211276   0.828   0.791   6.550
 1669SOL     OW11277   5.566   2.903   5.769
 1669SOL    HW111278   5.649   2.944   5.731
 1669SOL    HW211279   5.511   2.974   5.813
 1670SOL     OW11280   3.273   3.176   0.925
 1670SOL    HW111281   3.233   3.113   0.991
 1670SOL    HW211282   3.301   3.126   0.844
 1671SOL     OW11283   2.885   3.914   1.249
 1671SOL    HW111284   2.931   3.848   1.308
 1671SOL    HW211285   2.796   3.937   1.289
 1672SOL     OW11286   3.578   0.989   0.489
 1672SOL    HW111287   3.520   0.908   0.480
 1672SOL    HW211288   3.527   1.070   0.457
 1673SOL     OW11289   5.742   2.208   1.012
 1673SOL    HW111290   5.830   2.254   1.029
 1673SOL    HW211291   5.709   2.168   1.097
 1674SOL     OW11292   5.312   3.110   1.060
 1674SOL    HW111293   5.389   3.058   1.095
 1674SOL    HW211294   5.295   3.189   1.119
 1675SOL     OW11295   2.109   1.181   1.025
 1675SOL    HW111296   2.134   1.182   1.122
 1675SOL    HW211297   2.096   1.087   0.995
 1676SOL     OW11298   0.689   2.897   6.067
 1676SOL    HW111299   0.719   2.910   6.161
 1676SOL    HW211300   0.769   2.887   6.008
 1677SOL     OW11301   2.980   1.861   0.084
 1677SOL    HW111302   2.979   1.841   0.182
 1677SOL    HW211303   2.945   1.953   0.068
 1678SOL     OW11304   1.066   4.803   5.679
 1678SOL    HW111305   1.029   4.766   5.594
 1678SOL    HW211306   1.017   4.765   5.757
 1679SOL     OW11307   3.287   0.489   6.405
 1679SOL    HW111308   3.240   0.558   6.351
 1679SOL    HW211309   3.223   0.416   6.431
 1680SOL     OW11310   1.984   2.637   1.298
 1680SOL    HW111311   1.931   2.675   1.374
 1680SOL    HW211312   2.057   2.579   1.333
 1681SOL     OW11313   0.657   0.760   5.756
 1681SOL    HW111314   0.592   0.771   5.832
 1681SOL    HW211315   0.621   0.804   5.674
 1682SOL     OW11316   5.593   0.015   5.554
 1682SOL    HW111317   5.528   6.349   5.526
 1682SOL    HW211318   5.655   0.036   5.479
 1683SOL     OW11319   1.531   1.062   5.617
 1683SOL    HW111320   1.531   0.968   5.651
 1683SOL    HW211321   1.482   1.120   5.682
 1684SOL     OW11322   2.828   0.713   0.320
 1684SOL    HW111323   2.788   0.798   0.286
 1684SOL    HW211324   2.928   0.720   0.321
 1685SOL     OW11325   4.647   4.255   1.970
 1685SOL    HW111326   4.654   4.348   2.006
 1685SOL    HW211327   4.580   4.253   1.896
 1686SOL     OW11328   5.664   2.895   6.518
 1686SOL    HW111329   5.605   2.824   6.480
 1686SOL    HW211330   5.735   2.918   6.451
 1687SOL     OW11331   4.839   2.632   0.042
 1687SOL    HW111332   4.739   2.620   0.049
 1687SOL    HW211333   4.861   2.729   0.045
 1688SOL     OW11334   2.965   1.944   6.253
 1688SOL    HW111335   2.876   1.907   6.281
 1688SOL    HW211336   3.037   1.878   6.272
 1689SOL     OW11337   5.750   1.269   0.735
 1689SOL    HW111338   5.695   1.275   0.818
 1689SOL    HW211339   5.847   1.272   0.758
 1690SOL     OW11340   5.929   0.723   6.190
 1690SOL    HW111341   5.908   0.821   6.196
 1690SOL    HW211342   5.955   0.689   6.280
 1691SOL     OW11343   1.257   3.726   5.949
 1691SOL    HW111344   1.182   3.792   5.963
 1691SOL    HW211345   1.275   3.717   5.852
 1692SOL     OW11346   0.262   1.539   0.442
 1692SOL    HW111347   0.328   1.588   0.500
 1692SOL    HW211348   0.277   1.564   0.346
 1693SOL     OW11349   6.090   2.040   1.034
 1693SOL    HW111350   6.169   2.091   1.000
 1693SOL    HW211351   6.084   2.049   1.134
 1694SOL     OW11352   2.949   5.287   6.249
 1694SOL    HW111353   2.862   5.285   6.297
 1694SOL    HW211354   3.018   5.331   6.306
 1695SOL     OW11355   2.978   0.682   5.609
 1695SOL    HW111356   3.021   0.639   5.529
 1695SOL    HW211357   2.944   0.772   5.585
 1696SOL     OW11358   5.621   5.518   5.643
 1696SOL    HW111359   5.608   5.419   5.630
 1696SOL    HW211360   5.540   5.567   5.612
 1697SOL     OW11361   2.057   3.990   0.569
 1697SOL    HW111362   2.025   3.972   0.662
 1697SOL    HW211363   2.151   3.959   0.559
 1698SOL     OW11364   1.855   4.313   6.321
 1698SOL    HW111365   1.893   4.221   6.325
 1698SOL    HW211366   1.792   4.320   6.243
 1699SOL     OW11367   2.675   5.254   1.276
 1699SOL    HW111368   2.642   5.347   1.258
 1699SOL    HW211369   2.631   5.218   1.358
 1700SOL     OW11370   6.228   5.112   5.947
 1700SOL    HW111371   6.266   5.119   5.854
 1700SOL    HW211372   6.137   5.153   5.949
 1701SOL     OW11373   0.472   2.428   0.545
 1701SOL    HW111374   0.439   2.498   0.608
 1701SOL    HW211375   0.402   2.357   0.535
 1702SOL     OW11376   0.198   1.278   4.794
 1702SOL    HW111377   0.297   1.263   4.790
 1702SOL    HW211378   0.175   1.359   4.740
 1703SOL     OW11379   4.025   0.832   5.632
 1703SOL    HW111380   4.035   0.743   5.676
 1703SOL    HW211381   3.960   0.826   5.557
 1704SOL     OW11382   0.513   3.132   5.450
 1704SOL    HW111383   0.496   3.119   5.352
 1704SOL    HW211384   0.612   3.127   5.467
 1705SOL     OW11385   0.373   3.053   0.310
 1705SOL    HW111386   0.276   3.064   0.289
 1705SOL    HW211387   0.423   3.135   0.282
 1706SOL     OW11388   1.048   3.439   0.790
 1706SOL    HW111389   0.963   3.399   0.824
 1706SOL    HW211390   1.124   3.378   0.807
 1707SOL     OW11391   4.710   5.360   1.290
 1707SOL    HW111392   4.684   5.456   1.301
 1707SOL    HW211393   4.810   5.354   1.285
 1708SOL     OW11394   0.530   0.760   0.768
 1708SOL    HW111395   0.465   0.696   0.727
 1708SOL    HW211396   0.577   0.715   0.844
 1709SOL     OW11397   1.466   3.435   0.081
 1709SOL    HW111398   1.395   3.494   0.119
 1709SOL    HW211399   1.544   3.490   0.053
 1710SOL     OW11400   2.830   5.395   0.496
 1710SOL    HW111401   2.804   5.491   0.501
 1710SOL    HW211402   2.755   5.338   0.531
 1711SOL     OW11403   5.211   1.274   1.722
 1711SOL    HW111404   5.280   1.249   1.790
 1711SOL    HW211405   5.120   1.268   1.763
 1712SOL     OW11406   0.802   1.512   0.277
 1712SOL    HW111407   0.859   1.447   0.328
 1712SOL    HW211408   0.746   1.462   0.211
 1713SOL     OW11409   4.284   1.169   6.295
 1713SOL    HW111410   4.313   1.089   6.348
 1713SOL    HW211411   4.225   1.141   6.220
 1714SOL     OW11412   0.632   1.386   0.626
 1714SOL    HW111413   0.601   1.306   0.575
 1714SOL    HW211414   0.692   1.442   0.568
 1715SOL     OW11415   2.652   0.131   1.071
 1715SOL    HW111416   2.656   0.038   1.037
 1715SOL    HW211417   2.716   0.142   1.147
 1716SOL     OW11418   3.085   0.564   5.388
 1716SOL    HW111419   3.163   0.610   5.345
 1716SOL    HW211420   3.102   0.465   5.390
 1717SOL     OW11421   3.921   0.687   5.955
 1717SOL    HW111422   3.974   0.655   5.876
 1717SOL    HW211423   3.868   0.611   5.992
 1718SOL     OW11424   0.360   2.025   1.398
 1718SOL    HW111425   0.440   2.035   1.458
 1718SOL    HW211426   0.278   2.013   1.454
 1719SOL     OW11427   3.348   2.508   1.074
 1719SOL    HW111428   3.422   2.440   1.073
 1719SOL    HW211429   3.287   2.491   1.151
 1720SOL     OW11430   0.486   4.629   6.445
 1720SOL    HW111431   0.567   4.584   6.482
 1720SOL    HW211432   0.404   4.578   6.472
 1721SOL     OW11433   4.791   2.537   5.759
 1721SOL    HW111434   4.700   2.527   5.800
 1721SOL    HW211435   4.847   2.458   5.783
 1722SOL     OW11436   3.621   2.349   0.576
 1722SOL    HW111437   3.659   2.287   0.508
 1722SOL    HW211438   3.609   2.300   0.662
 1723SOL     OW11439   2.833   5.167   5.231
 1723SOL    HW111440   2.880   5.251   5.206
 1723SOL    HW211441   2.752   5.155   5.172
 1724SOL     OW11442   5.066   0.203   5.777
 1724SOL    HW111443   4.969   0.230   5.781
 1724SOL    HW211444   5.092   0.187   5.682
 1725SOL     OW11445   4.710   3.741   1.020
 1725SOL    HW111446   4.712   3.817   1.085
 1725SOL    HW211447   4.702   3.776   0.927
 1726SOL     OW11448   3.737   2.487   6.326
 1726SOL    HW111449   3.825   2.441   6.313
 1726SOL    HW211450   3.664   2.429   6.289
 1727SOL     OW11451   4.125   1.053   5.747
 1727SOL    HW111452   4.087   0.970   5.705
 1727SOL    HW211453   4.191   1.027   5.817
 1728SOL     OW11454   3.230   2.084   5.457
 1728SOL    HW111455   3.170   2.014   5.419
 1728SOL    HW211456   3.324   2.066   5.428
 1729SOL     OW11457   3.348   2.185   0.437
 1729SOL    HW111458   3.342   2.278   0.401
 1729SOL    HW211459   3.332   2.186   0.535
 1730SOL     OW11460   3.696   2.810   4.943
 1730SOL    HW111461   3.777   2.863   4.918
 1730SOL    HW211462   3.676   2.743   4.871
 1731SOL     OW11463   1.762   1.610   0.426
 1731SOL    HW111464   1.814   1.535   0.384
 1731SOL    HW211465   1.798   1.697   0.393
 1732SOL     OW11466   1.411   1.826   0.865
 1732SOL    HW111467   1.351   1.896   0.903
 1732SOL    HW211468   1.452   1.773   0.940
 1733SOL     OW11469   2.481   4.070   0.374
 1733SOL    HW111470   2.419   4.148   0.371
 1733SOL    HW211471   2.574   4.100   0.350
 1734SOL     OW11472   2.250   2.573   0.154
 1734SOL    HW111473   2.345   2.603   0.146
 1734SOL    HW211474   2.213   2.559   0.062
 1735SOL     OW11475   4.954   0.514   0.981
 1735SOL    HW111476   4.862   0.553   0.973
 1735SOL    HW211477   5.020   0.574   0.935
 1736SOL     OW11478   6.230   6.144   5.798
 1736SOL    HW111479   6.190   6.105   5.881
 1736SOL    HW211480   6.208   6.241   5.793
 1737SOL     OW11481   1.722   4.171   0.576
 1737SOL    HW111482   1.648   4.152   0.641
 1737SOL    HW211483   1.700   4.131   0.487
 1738SOL     OW11484   1.507   3.433   6.157
 1738SOL    HW111485   1.487   3.531   6.150
 1738SOL    HW211486   1.542   3.400   6.069
 1739SOL     OW11487   3.189   1.698   0.011
 1739SOL    HW111488   3.261   1.705   0.081
 1739SOL    HW211489   3.113   1.759   0.035
 1740SOL     OW11490   2.290   2.246   5.886
 1740SOL    HW111491   2.239   2.237   5.972
 1740SOL    HW211492   2.344   2.331   5.889
 1741SOL     OW11493   3.988   4.409   0.105
 1741SOL    HW111494   3.922   4.478   0.137
 1741SOL    HW211495   3.940   4.337   0.056
 1742SOL     OW11496   4.203   5.488   5.788
 1742SOL    HW111497   4.247   5.554   5.726
 1742SOL    HW211498   4.272   5.428   5.827
 1743SOL     OW11499   4.534   2.805   6.554
 1743SOL    HW111500   4.545   2.707   0.002
 1743SOL    HW211501   4.596   2.833   6.481
 1744SOL     OW11502   0.106   4.938   5.550
 1744SOL    HW111503   0.103   4.985   5.461
 1744SOL    HW211504   0.199   4.941   5.586
 1745SOL     OW11505   2.897   0.273   5.004
 1745SOL    HW111506   2.891   0.183   4.961
 1745SOL    HW211507   2.974   0.323   4.965
 1746SOL     OW11508   0.327   1.389   5.971
 1746SOL    HW111509   0.362   1.482   5.966
 1746SOL    HW211510   0.340   1.353   6.063
 1747SOL     OW11511   0.279   1.614   0.818
 1747SOL    HW111512   0.193   1.564   0.831
 1747SOL    HW211513   0.342   1.593   0.893
 1748SOL     OW11514   3.882   0.661   0.524
 1748SOL    HW111515   3.821   0.591   0.486
 1748SOL    HW211516   3.930   0.708   0.450
 1749SOL     OW11517   5.752   3.409   6.069
 1749SOL    HW111518   5.805   3.491   6.047
 1749SOL    HW211519   5.655   3.431   6.073
 1750SOL     OW11520   5.833   5.021   5.999
 1750SOL    HW111521   5.818   4.993   6.094
 1750SOL    HW211522   5.871   4.945   5.947
 1751SOL     OW11523   6.209   3.282   6.178
 1751SOL    HW111524   6.216   3.330   6.090
 1751SOL    HW211525   6.120   3.301   6.219
 1752SOL     OW11526   0.529   2.228   0.786
 1752SOL    HW111527   0.525   2.161   0.860
 1752SOL    HW211528   0.516   2.181   0.698
 1753SOL     OW11529   2.354   0.928   0.550
 1753SOL    HW111530   2.326   0.985   0.473
 1753SOL    HW211531   2.296   0.847   0.554
 1754SOL     OW11532   1.222   0.057   5.295
 1754SOL    HW111533   1.318   0.046   5.320
 1754SOL    HW211534   1.204   0.014   5.207
 1755SOL     OW11535   5.596   0.397   0.866
 1755SOL    HW111536   5.557   0.348   0.944
 1755SOL    HW211537   5.525   0.451   0.821
 1756SOL     OW11538   4.818   1.138   1.022
 1756SOL    HW111539   4.836   1.040   1.027
 1756SOL    HW211540   4.769   1.167   1.104
 1757SOL     OW11541   6.072   5.273   0.644
 1757SOL    HW111542   6.110   5.183   0.670
 1757SOL    HW211543   5.973   5.272   0.658
 1758SOL     OW11544   1.623   2.749   0.807
 1758SOL    HW111545   1.707   2.747   0.752
 1758SOL    HW211546   1.606   2.842   0.839
 1759SOL     OW11547   5.834   3.495   1.370
 1759SOL    HW111548   5.811   3.446   1.454
 1759SOL    HW211549   5.753   3.542   1.335
 1760SOL     OW11550   3.380   0.613   0.254
 1760SOL    HW111551   3.411   0.621   0.159
 1760SOL    HW211552   3.404   0.523   0.289
 1761SOL     OW11553   3.702   2.168   5.192
 1761SOL    HW111554   3.785   2.124   5.227
 1761SOL    HW211555   3.727   2.245   5.133
 1762SOL     OW11556   4.477   1.824   1.879
 1762SOL    HW111557   4.467   1.725   1.889
 1762SOL    HW211558   4.427   1.855   1.798
 1763SOL     OW11559   2.295   2.671   4.840
 1763SOL    HW111560   2.318   2.583   4.799
 1763SOL    HW211561   2.198   2.689   4.829
 1764SOL     OW11562   1.510   0.240   1.082
 1764SOL    HW111563   1.456   0.323   1.069
 1764SOL    HW211564   1.524   0.225   1.180
 1765SOL     OW11565   5.531   2.912   1.762
 1765SOL    HW111566   5.554   3.009   1.762
 1765SOL    HW211567   5.501   2.885   1.853
 1766SOL     OW11568   0.945   5.092   5.969
 1766SOL    HW111569   1.023   5.127   5.917
 1766SOL    HW211570   0.971   5.005   6.012
 1767SOL     OW11571   6.205   3.156   0.565
 1767SOL    HW111572   6.281   3.206   0.524
 1767SOL    HW211573   6.127   3.217   0.578
 1768SOL     OW11574   3.432   2.515   0.089
 1768SOL    HW111575   3.410   2.612   0.103
 1768SOL    HW211576   3.530   2.505   0.075
 1769SOL     OW11577   4.552   6.255   0.485
 1769SOL    HW111578   4.627   6.281   0.425
 1769SOL    HW211579   4.585   6.250   0.580
 1770SOL     OW11580   1.110   6.166   6.434
 1770SOL    HW111581   1.042   6.221   6.387
 1770SOL    HW211582   1.198   6.214   6.434
 1771SOL     OW11583   3.551   3.315   5.320
 1771SOL    HW111584   3.567   3.403   5.275
 1771SOL    HW211585   3.453   3.297   5.323
 1772SOL     OW11586   0.574   6.359   0.624
 1772SOL    HW111587   0.539   6.403   0.707
 1772SOL    HW211588   0.601   6.265   0.644
 1773SOL     OW11589   6.334   5.211   1.075
 1773SOL    HW111590   0.063   5.274   1.031
 1773SOL    HW211591   6.328   5.232   1.172
 1774SOL     OW11592   1.635   2.812   6.146
 1774SOL    HW111593   1.614   2.732   6.090
 1774SOL    HW211594   1.692   2.785   6.223
 1775SOL     OW11595   0.227   4.312   1.318
 1775SOL    HW111596   0.184   4.402   1.314
 1775SOL    HW211597   0.311   4.318   1.373
 1776SOL     OW11598   1.335   4.736   5.720
 1776SOL    HW111599   1.398   4.806   5.689
 1776SOL    HW211600   1.241   4.766   5.705
 1777SOL     OW11601   0.828   2.948   0.696
 1777SOL    HW111602   0.788   3.008   0.765
 1777SOL    HW211603   0.755   2.901   0.646
 1778SOL     OW11604   4.415   2.741   5.834
 1778SOL    HW111605   4.478   2.666   5.853
 1778SOL    HW211606   4.339   2.708   5.778
 1779SOL     OW11607   5.502   0.852   0.396
 1779SOL    HW111608   5.461   0.763   0.372
 1779SOL    HW211609   5.438   0.902   0.455
 1780SOL     OW11610   4.627   2.047   0.080
 1780SOL    HW111611   4.693   1.972   0.076
 1780SOL    HW211612   4.603   2.076   6.557
 1781SOL     OW11613   1.624   2.572   6.016
 1781SOL    HW111614   1.724   2.570   6.012
 1781SOL    HW211615   1.592   2.495   6.072
 1782SOL     OW11616   3.654   0.597   5.844
 1782SOL    HW111617   3.709   0.548   5.776
 1782SOL    HW211618   3.668   0.695   5.833
 1783SOL     OW11619   5.882   0.993   0.628
 1783SOL    HW111620   5.958   1.055   0.648
 1783SOL    HW211621   5.825   1.032   0.556
 1784SOL     OW11622   1.904   3.693   6.297
 1784SOL    HW111623   1.838   3.618   6.307
 1784SOL    HW211624   1.881   3.747   6.216
 1785SOL     OW11625   4.843   1.045   0.183
 1785SOL    HW111626   4.845   1.119   0.116
 1785SOL    HW211627   4.869   1.080   0.273
 1786SOL     OW11628   4.580   6.093   0.974
 1786SOL    HW111629   4.651   6.042   1.023
 1786SOL    HW211630   4.621   6.136   0.893
 1787SOL     OW11631   4.715   5.696   6.275
 1787SOL    HW111632   4.633   5.641   6.264
 1787SOL    HW211633   4.722   5.729   6.369
 1788SOL     OW11634   0.989   2.986   6.230
 1788SOL    HW111635   1.006   3.073   6.184
 1788SOL    HW211636   0.900   2.989   6.276
 1789SOL     OW11637   2.179   1.518   0.333
 1789SOL    HW111638   2.241   1.503   0.409
 1789SOL    HW211639   2.217   1.478   0.250
 1790SOL     OW11640   5.237   3.667   6.071
 1790SOL    HW111641   5.284   3.645   5.985
 1790SOL    HW211642   5.305   3.691   6.140
 1791SOL     OW11643   0.264   0.069   1.164
 1791SOL    HW111644   0.359   0.101   1.165
 1791SOL    HW211645   0.257   6.392   1.106
 1792SOL     OW11646   1.663   1.648   5.697
 1792SOL    HW111647   1.585   1.586   5.688
 1792SOL    HW211648   1.728   1.629   5.623
 1793SOL     OW11649   4.095   4.581   1.333
 1793SOL    HW111650   4.175   4.586   1.393
 1793SOL    HW211651   4.021   4.533   1.380
 1794SOL     OW11652   2.915   3.676   6.036
 1794SOL    HW111653   2.882   3.674   6.131
 1794SOL    HW211654   2.907   3.585   5.996
 1795SOL     OW11655   6.286   1.673   6.218
 1795SOL    HW111656   0.029   1.704   6.273
 1795SOL    HW211657   6.201   1.699   6.264
 1796SOL     OW11658   4.937   3.223   5.333
 1796SOL    HW111659   4.916   3.293   5.265
 1796SOL    HW211660   4.941   3.133   5.290
 1797SOL     OW11661   1.297   0.846   1.126
 1797SOL    HW111662   1.224   0.817   1.188
 1797SOL    HW211663   1.339   0.930   1.161
 1798SOL     OW11664   5.801   1.394   5.827
 1798SOL    HW111665   5.747   1.461   5.876
 1798SOL    HW211666   5.887   1.377   5.876
 1799SOL     OW11667   3.990   6.345   5.626
 1799SOL    HW111668   3.909   6.382   5.581
 1799SOL    HW211669   3.999   6.247   5.606
 1800SOL     OW11670   2.169   1.706   6.108
 1800SOL    HW111671   2.259   1.738   6.078
 1800SOL    HW211672   2.129   1.649   6.036
 1801SOL     OW11673   3.104   3.007   5.169
 1801SOL    HW111674   3.119   3.005   5.070
 1801SOL    HW211675   3.084   3.101   5.197
 1802SOL     OW11676   0.305   5.589   6.324
 1802SOL    HW111677   0.399   5.624   6.322
 1802SOL    HW211678   0.305   5.497   6.363
 1803SOL     OW11679   3.470   6.385   1.089
 1803SOL    HW111680   3.496   0.057   1.031
 1803SOL    HW211681   3.511   6.301   1.053
 1804SOL     OW11682   2.991   4.233   5.995
 1804SOL    HW111683   2.960   4.327   5.990
 1804SOL    HW211684   2.918   4.171   5.965
 1805SOL     OW11685   0.848   0.980   0.556
 1805SOL    HW111686   0.791   0.898   0.544
 1805SOL    HW211687   0.934   0.969   0.506
 1806SOL     OW11688   2.648   1.190   0.842
 1806SOL    HW111689   2.601   1.109   0.879
 1806SOL    HW211690   2.742   1.192   0.876
 1807SOL     OW11691   3.528   2.656   0.806
 1807SOL    HW111692   3.472   2.609   0.737
 1807SOL    HW211693   3.470   2.717   0.860
 1808SOL     OW11694   5.648   3.511   6.415
 1808SOL    HW111695   5.687   3.573   6.347
 1808SOL    HW211696   5.637   3.559   6.502
 1809SOL     OW11697   4.092   3.091   1.491
 1809SOL    HW111698   4.117   3.003   1.531
 1809SOL    HW211699   3.993   3.105   1.500
 1810SOL     OW11700   6.057   4.662   1.342
 1810SOL    HW111701   6.084   4.749   1.301
 1810SOL    HW211702   6.128   4.634   1.408
 1811SOL     OW11703   4.566   3.887   0.088
 1811SOL    HW111704   4.535   3.923   6.569
 1811SOL    HW211705   4.632   3.814   0.073
 1812SOL     OW11706   2.179   6.137   0.544
 1812SOL    HW111707   2.278   6.131   0.559
 1812SOL    HW211708   2.160   6.157   0.448
 1813SOL     OW11709   0.181   4.521   5.302
 1813SOL    HW111710   0.160   4.598   5.242
 1813SOL    HW211711   0.223   4.448   5.248
 1814SOL     OW11712   1.231   3.859   5.467
 1814SOL    HW111713   1.183   3.946   5.459
 1814SOL    HW211714   1.223   3.808   5.381
 1815SOL     OW11715   6.188   5.375   0.415
 1815SOL    HW111716   6.142   5.342   0.498
 1815SOL    HW211717   6.135   5.349   0.335
 1816SOL     OW11718   5.352   1.632   0.108
 1816SOL    HW111719   5.292   1.693   0.057
 1816SOL    HW211720   5.362   1.545   0.059
 1817SOL     OW11721   3.016   3.271   6.557
 1817SOL    HW111722   2.996   3.360   0.028
 1817SOL    HW211723   2.929   3.224   6.537
 1818SOL     OW11724   3.494   6.336   0.052
 1818SOL    HW111725   3.408   6.315   0.006
 1818SOL    HW211726   3.571   6.321   6.559
 1819SOL     OW11727   0.946   0.302   6.094
 1819SOL    HW111728   0.911   0.260   6.011
 1819SOL    HW211729   0.963   0.399   6.078
 1820SOL     OW11730   2.738   3.297   1.356
 1820SOL    HW111731   2.661   3.315   1.295
 1820SOL    HW211732   2.801   3.233   1.313
 1821SOL     OW11733   1.764   0.299   0.767
 1821SOL    HW111734   1.822   0.223   0.798
 1821SOL    HW211735   1.821   0.378   0.748
 1822SOL     OW11736   1.854   5.156   1.832
 1822SOL    HW111737   1.800   5.236   1.807
 1822SOL    HW211738   1.823   5.121   1.920
 1823SOL     OW11739   2.641   0.744   0.813
 1823SOL    HW111740   2.580   0.668   0.831
 1823SOL    HW211741   2.629   0.775   0.718
 1824SOL     OW11742   2.479   4.749   0.653
 1824SOL    HW111743   2.488   4.710   0.745
 1824SOL    HW211744   2.544   4.704   0.591
 1825SOL     OW11745   5.471   0.082   0.724
 1825SOL    HW111746   5.526   0.024   0.784
 1825SOL    HW211747   5.413   0.143   0.780
 1826SOL     OW11748   5.808   5.830   0.087
 1826SOL    HW111749   5.739   5.771   0.128
 1826SOL    HW211750   5.777   5.925   0.093
 1827SOL     OW11751   4.298   1.314   0.696
 1827SOL    HW111752   4.357   1.393   0.685
 1827SOL    HW211753   4.352   1.230   0.686
 1828SOL     OW11754   4.120   0.480   1.608
 1828SOL    HW111755   4.189   0.408   1.615
 1828SOL    HW211756   4.159   0.566   1.641
 1829SOL     OW11757   4.818   4.190   1.057
 1829SOL    HW111758   4.849   4.127   0.986
 1829SOL    HW211759   4.758   4.259   1.016
 1830SOL     OW11760   4.743   2.378   1.214
 1830SOL    HW111761   4.644   2.373   1.222
 1830SOL    HW211762   4.782   2.417   1.298
 1831SOL     OW11763   5.185   0.590   6.464
 1831SOL    HW111764   5.138   0.599   6.552
 1831SOL    HW211765   5.250   0.664   6.453
 1832SOL     OW11766   6.311   5.130   5.694
 1832SOL    HW111767   0.009   5.208   5.641
 1832SOL    HW211768   0.014   5.046   5.656
 1833SOL     OW11769   2.462   2.893   0.706
 1833SOL    HW111770   2.536   2.954   0.680
 1833SOL    HW211771   2.498   2.802   0.723
 1834SOL     OW11772   2.843   6.196   5.667
 1834SOL    HW111773   2.938   6.191   5.637
 1834SOL    HW211774   2.816   6.292   5.676
 1835SOL     OW11775   3.816   3.765   0.022
 1835SOL    HW111776   3.724   3.785   0.054
 1835SOL    HW211777   3.823   3.784   6.494
 1836SOL     OW11778   2.755   3.223   5.577
 1836SOL    HW111779   2.731   3.319   5.588
 1836SOL    HW211780   2.726   3.192   5.486
 1837SOL     OW11781   5.610   5.120   0.097
 1837SOL    HW111782   5.617   5.049   0.028
 1837SOL    HW211783   5.691   5.117   0.156
 1838SOL     OW11784   2.746   4.320   6.174
 1838SOL    HW111785   2.768   4.380   6.097
 1838SOL    HW211786   2.676   4.254   6.146
 1839SOL     OW11787   2.187   2.517   6.458
 1839SOL    HW111788   2.255   2.444   6.453
 1839SOL    HW211789   2.095   2.476   6.462
 1840SOL     OW11790   2.459   2.581   0.984
 1840SOL    HW111791   2.365   2.615   0.990
 1840SOL    HW211792   2.473   2.508   1.050
 1841SOL     OW11793   3.314   0.302   5.975
 1841SOL    HW111794   3.315   0.238   6.052
 1841SOL    HW211795   3.367   0.384   5.999
 1842SOL     OW11796   4.052   3.460   5.964
 1842SOL    HW111797   4.065   3.476   6.061
 1842SOL    HW211798   3.955   3.444   5.945
 1843SOL     OW11799   5.518   6.024   5.035
 1843SOL    HW111800   5.612   6.053   5.053
 1843SOL    HW211801   5.519   5.946   4.973
 1844SOL     OW11802   0.469   4.713   6.174
 1844SOL    HW111803   0.433   4.642   6.114
 1844SOL    HW211804   0.483   4.675   6.266
 1845SOL     OW11805   2.864   0.861   5.889
 1845SOL    HW111806   2.930   0.919   5.936
 1845SOL    HW211807   2.871   0.875   5.790
 1846SOL     OW11808   1.147   6.365   0.599
 1846SOL    HW111809   1.112   6.351   0.692
 1846SOL    HW211810   1.206   6.289   0.573
 1847SOL     OW11811   3.732   2.174   0.394
 1847SOL    HW111812   3.721   2.194   0.297
 1847SOL    HW211813   3.821   2.131   0.409
 1848SOL     OW11814   4.742   4.403   0.418
 1848SOL    HW111815   4.707   4.370   0.330
 1848SOL    HW211816   4.842   4.405   0.416
 1849SOL     OW11817   1.443   5.894   5.753
 1849SOL    HW111818   1.484   5.874   5.842
 1849SOL    HW211819   1.350   5.928   5.765
 1850SOL     OW11820   2.773   3.230   5.125
 1850SOL    HW111821   2.720   3.301   5.079
 1850SOL    HW211822   2.727   3.203   5.210
 1851SOL     OW11823   3.844   4.489   6.356
 1851SOL    HW111824   3.930   4.524   6.320
 1851SOL    HW211825   3.814   4.412   6.301
 1852SOL     OW11826   0.463   1.833   5.671
 1852SOL    HW111827   0.555   1.800   5.692
 1852SOL    HW211828   0.435   1.797   5.581
 1853SOL     OW11829   3.181   2.134   4.876
 1853SOL    HW111830   3.222   2.071   4.810
 1853SOL    HW211831   3.108   2.186   4.831
 1854SOL     OW11832   1.820   5.913   6.052
 1854SOL    HW111833   1.832   5.814   6.049
 1854SOL    HW211834   1.898   5.954   6.100
 1855SOL     OW11835   0.235   4.742   0.067
 1855SOL    HW111836   0.250   4.652   0.027
 1855SOL    HW211837   0.246   4.812   6.566
 1856SOL     OW11838   3.382   4.359   6.371
 1856SOL    HW111839   3.289   4.356   6.407
 1856SOL    HW211840   3.437   4.424   6.423
 1857SOL     OW11841   5.215   0.971   5.791
 1857SOL    HW111842   5.262   0.915   5.859
 1857SOL    HW211843   5.168   1.046   5.837
 1858SOL     OW11844   2.983   4.236   0.680
 1858SOL    HW111845   3.026   4.184   0.606
 1858SOL    HW211846   2.886   4.214   0.685
 1859SOL     OW11847   3.601   0.877   5.550
 1859SOL    HW111848   3.601   0.777   5.541
 1859SOL    HW211849   3.688   0.907   5.589
 1860SOL     OW11850   0.058   5.712   6.375
 1860SOL    HW111851   0.148   5.671   6.362
 1860SOL    HW211852   6.330   5.675   6.307
 1861SOL     OW11853   0.960   2.518   6.487
 1861SOL    HW111854   0.885   2.456   6.464
 1861SOL    HW211855   1.041   2.495   6.434
 1862SOL     OW11856   0.540   4.305   0.575
 1862SOL    HW111857   0.574   4.393   0.610
 1862SOL    HW211858   0.498   4.319   0.485
 1863SOL     OW11859   3.641   5.432   0.398
 1863SOL    HW111860   3.718   5.421   0.462
 1863SOL    HW211861   3.667   5.496   0.326
 1864SOL     OW11862   3.269   5.806   5.867
 1864SOL    HW111863   3.243   5.714   5.896
 1864SOL    HW211864   3.199   5.871   5.896
 1865SOL     OW11865   3.629   3.245   1.657
 1865SOL    HW111866   3.627   3.345   1.653
 1865SOL    HW211867   3.557   3.213   1.719
 1866SOL     OW11868   1.019   4.914   6.345
 1866SOL    HW111869   0.931   4.902   6.391
 1866SOL    HW211870   1.056   5.005   6.368
 1867SOL     OW11871   1.134   0.734   5.892
 1867SOL    HW111872   1.208   0.697   5.949
 1867SOL    HW211873   1.174   0.787   5.817
 1868SOL     OW11874   1.868   3.138   0.041
 1868SOL    HW111875   1.775   3.149   0.074
 1868SOL    HW211876   1.925   3.212   0.076
 1869SOL     OW11877   0.901   6.158   1.382
 1869SOL    HW111878   0.818   6.107   1.360
 1869SOL    HW211879   0.900   6.183   1.479
 1870SOL     OW11880   4.328   5.109   5.900
 1870SOL    HW111881   4.378   5.039   5.951
 1870SOL    HW211882   4.367   5.118   5.809
 1871SOL     OW11883   3.954   3.319   0.570
 1871SOL    HW111884   3.978   3.320   0.667
 1871SOL    HW211885   3.860   3.288   0.558
 1872SOL     OW11886   4.405   1.405   6.205
 1872SOL    HW111887   4.433   1.468   6.278
 1872SOL    HW211888   4.357   1.327   6.246
 1873SOL     OW11889   5.410   6.061   5.728
 1873SOL    HW111890   5.336   6.118   5.692
 1873SOL    HW211891   5.453   6.107   5.806
 1874SOL     OW11892   1.244   2.827   0.684
 1874SOL    HW111893   1.288   2.741   0.710
 1874SOL    HW211894   1.157   2.807   0.638
 1875SOL     OW11895   6.061   5.245   1.026
 1875SOL    HW111896   6.160   5.229   1.025
 1875SOL    HW211897   6.021   5.200   1.105
 1876SOL     OW11898   3.513   5.914   5.921
 1876SOL    HW111899   3.426   5.871   5.895
 1876SOL    HW211900   3.561   5.944   5.840
 1877SOL     OW11901   6.229   4.271   6.398
 1877SOL    HW111902   6.291   4.197   6.425
 1877SOL    HW211903   6.270   4.359   6.418
 1878SOL     OW11904   3.524   2.913   5.488
 1878SOL    HW111905   3.577   2.964   5.420
 1878SOL    HW211906   3.433   2.953   5.495
 1879SOL     OW11907   3.755   0.010   5.485
 1879SOL    HW111908   3.727   6.320   5.494
 1879SOL    HW211909   3.730   0.043   5.393
 1880SOL     OW11910   3.917   2.858   0.323
 1880SOL    HW111911   3.897   2.824   0.231
 1880SOL    HW211912   3.946   2.954   0.318
 1881SOL     OW11913   3.031   1.092   6.552
 1881SOL    HW111914   3.048   1.166   0.048
 1881SOL    HW211915   3.115   1.042   6.534
 1882SOL     OW11916   4.815   2.558   0.408
 1882SOL    HW111917   4.742   2.618   0.377
 1882SOL    HW211918   4.836   2.491   0.337
 1883SOL     OW11919   4.730   0.789   1.562
 1883SOL    HW111920   4.765   0.703   1.523
 1883SOL    HW211921   4.657   0.769   1.626
 1884SOL     OW11922   1.616   1.918   5.693
 1884SOL    HW111923   1.707   1.961   5.689
 1884SOL    HW211924   1.627   1.819   5.702
 1885SOL     OW11925   0.429   1.046   6.041
 1885SOL    HW111926   0.353   1.071   6.101
 1885SOL    HW211927   0.428   1.103   5.959
 1886SOL     OW11928   4.677   0.712   5.817
 1886SOL    HW111929   4.666   0.719   5.718
 1886SOL    HW211930   4.735   0.786   5.849
 1887SOL     OW11931   5.925   1.602   0.576
 1887SOL    HW111932   5.875   1.606   0.490
 1887SOL    HW211933   5.887   1.668   0.640
 1888SOL     OW11934   5.915   5.808   6.400
 1888SOL    HW111935   5.868   5.817   6.488
 1888SOL    HW211936   5.958   5.717   6.394
 1889SOL     OW11937   2.818   5.870   5.419
 1889SOL    HW111938   2.789   5.883   5.324
 1889SOL    HW211939   2.751   5.911   5.480
 1890SOL     OW11940   3.990   1.275   5.968
 1890SOL    HW111941   4.067   1.303   5.910
 1890SOL    HW211942   3.905   1.289   5.917
 1891SOL     OW11943   5.227   5.819   5.991
 1891SOL    HW111944   5.272   5.802   5.904
 1891SOL    HW211945   5.128   5.830   5.976
 1892SOL     OW11946   5.116   1.013   1.076
 1892SOL    HW111947   5.079   1.017   1.168
 1892SOL    HW211948   5.215   1.028   1.079
 1893SOL     OW11949   3.540   1.542   1.570
 1893SOL    HW111950   3.586   1.453   1.573
 1893SOL    HW211951   3.514   1.569   1.663
 1894SOL     OW11952   2.272   3.280   1.112
 1894SOL    HW111953   2.282   3.181   1.123
 1894SOL    HW211954   2.185   3.310   1.152
 1895SOL     OW11955   2.382   2.615   5.692
 1895SOL    HW111956   2.393   2.563   5.776
 1895SOL    HW211957   2.438   2.574   5.619
 1896SOL     OW11958   4.234   1.986   5.879
 1896SOL    HW111959   4.174   2.066   5.881
 1896SOL    HW211960   4.182   1.905   5.852
 1897SOL     OW11961   6.324   2.317   6.170
 1897SOL    HW111962   0.051   2.395   6.171
 1897SOL    HW211963   6.239   2.340   6.216
 1898SOL     OW11964   0.645   5.142   0.451
 1898SOL    HW111965   0.729   5.193   0.470
 1898SOL    HW211966   0.660   5.084   0.370
 1899SOL     OW11967   2.208   2.075   0.632
 1899SOL    HW111968   2.270   2.102   0.559
 1899SOL    HW211969   2.209   1.975   0.642
 1900SOL     OW11970   2.245   5.085   6.293
 1900SOL    HW111971   2.316   5.022   6.324
 1900SOL    HW211972   2.161   5.035   6.276
 1901SOL     OW11973   1.373   1.060   0.619
 1901SOL    HW111974   1.353   1.090   0.525
 1901SOL    HW211975   1.392   0.961   0.619
 1902SOL     OW11976   0.283   1.800   5.872
 1902SOL    HW111977   0.348   1.810   5.796
 1902SOL    HW211978   0.190   1.802   5.836
 1903SOL     OW11979   1.768   6.349   5.148
 1903SOL    HW111980   1.705   6.385   5.079
 1903SOL    HW211981   1.768   0.004   5.228
 1904SOL     OW11982   0.604   5.439   0.218
 1904SOL    HW111983   0.526   5.391   0.177
 1904SOL    HW211984   0.688   5.409   0.174
 1905SOL     OW11985   0.778   2.254   5.983
 1905SOL    HW111986   0.716   2.326   5.953
 1905SOL    HW211987   0.806   2.199   5.904
 1906SOL     OW11988   3.678   3.252   0.576
 1906SOL    HW111989   3.618   3.217   0.504
 1906SOL    HW211990   3.638   3.333   0.617
 1907SOL     OW11991   2.654   6.324   0.543
 1907SOL    HW111992   2.746   6.353   0.515
 1907SOL    HW211993   2.591   6.401   0.536
 1908SOL     OW11994   4.924   0.433   6.147
 1908SOL    HW111995   4.860   0.447   6.071
 1908SOL    HW211996   5.017   0.423   6.111
 1909SOL     OW11997   0.593   4.405   5.354
 1909SOL    HW111998   0.576   4.344   5.278
 1909SOL    HW211999   0.680   4.453   5.340
 1910SOL     OW12000   3.340   5.225   1.068
 1910SOL    HW112001   3.332   5.126   1.065
 1910SOL    HW212002   3.433   5.252   1.043
 1911SOL     OW12003   0.912   2.288   6.213
 1911SOL    HW112004   0.861   2.274   6.128
 1911SOL    HW212005   0.847   2.301   6.288
 1912SOL     OW12006   2.790   0.611   5.798
 1912SOL    HW112007   2.848   0.614   5.716
 1912SOL    HW212008   2.804   0.695   5.851
 1913SOL     OW12009   1.778   3.071   5.287
 1913SOL    HW112010   1.860   3.098   5.236
 1913SOL    HW212011   1.788   2.976   5.318
 1914SOL     OW12012   4.107   5.242   1.292
 1914SOL    HW112013   4.150   5.215   1.378
 1914SOL    HW212014   4.178   5.265   1.225
 1915SOL     OW12015   4.475   1.526   0.690
 1915SOL    HW112016   4.481   1.545   0.788
 1915SOL    HW212017   4.550   1.466   0.663
 1916SOL     OW12018   2.075   2.745   6.342
 1916SOL    HW112019   2.128   2.670   6.382
 1916SOL    HW212020   2.078   2.824   6.403
 1917SOL     OW12021   0.519   4.851   5.446
 1917SOL    HW112022   0.553   4.938   5.412
 1917SOL    HW212023   0.445   4.818   5.386
 1918SOL     OW12024   1.091   1.930   0.685
 1918SOL    HW112025   1.028   1.997   0.647
 1918SOL    HW212026   1.045   1.878   0.757
 1919SOL     OW12027   4.099   4.259   6.350
 1919SOL    HW112028   4.025   4.237   6.414
 1919SOL    HW212029   4.115   4.358   6.349
 1920SOL     OW12030   0.919   4.417   0.256
 1920SOL    HW112031   0.892   4.367   0.174
 1920SOL    HW212032   0.863   4.499   0.265
 1921SOL     OW12033   6.038   0.437   5.842
 1921SOL    HW112034   5.974   0.371   5.881
 1921SOL    HW212035   6.068   0.501   5.913
 1922SOL     OW12036   3.358   3.955   1.161
 1922SOL    HW112037   3.300   3.953   1.242
 1922SOL    HW212038   3.303   3.934   1.080
 1923SOL     OW12039   4.278   0.162   4.887
 1923SOL    HW112040   4.359   0.110   4.915
 1923SOL    HW212041   4.298   0.209   4.801
 1924SOL     OW12042   3.698   0.925   1.175
 1924SOL    HW112043   3.636   0.935   1.097
 1924SOL    HW212044   3.667   0.983   1.250
 1925SOL     OW12045   2.654   3.487   5.309
 1925SOL    HW112046   2.603   3.571   5.288
 1925SOL    HW212047   2.597   3.408   5.288
 1926SOL     OW12048   5.630   5.502   0.102
 1926SOL    HW112049   5.551   5.440   0.100
 1926SOL    HW212050   5.695   5.475   0.031
 1927SOL     OW12051   3.699   2.272   5.640
 1927SOL    HW112052   3.624   2.245   5.579
 1927SOL    HW212053   3.786   2.257   5.594
 1928SOL     OW12054   4.841   5.061   1.145
 1928SOL    HW112055   4.878   5.150   1.172
 1928SOL    HW212056   4.906   4.989   1.170
 1929SOL     OW12057   3.501   6.088   6.422
 1929SOL    HW112058   3.512   6.064   6.326
 1929SOL    HW212059   3.579   6.143   6.452
 1930SOL     OW12060   1.922   5.096   1.575
 1930SOL    HW112061   1.904   5.108   1.672
 1930SOL    HW212062   2.001   5.035   1.563
 1931SOL     OW12063   4.780   3.509   1.375
 1931SOL    HW112064   4.810   3.457   1.455
 1931SOL    HW212065   4.682   3.494   1.360
 1932SOL     OW12066   5.734   5.135   1.693
 1932SOL    HW112067   5.834   5.142   1.685
 1932SOL    HW212068   5.712   5.055   1.749
 1933SOL     OW12069   3.528   1.711   6.280
 1933SOL    HW112070   3.570   1.747   6.197
 1933SOL    HW212071   3.483   1.786   6.329
 1934SOL     OW12072   3.410   1.939   6.397
 1934SOL    HW112073   3.357   2.022   6.378
 1934SOL    HW212074   3.465   1.953   6.479
 1935SOL     OW12075   2.648   0.130   0.141
 1935SOL    HW112076   2.627   0.224   0.168
 1935SOL    HW212077   2.746   0.114   0.151
 1936SOL     OW12078   1.415   1.082   1.197
 1936SOL    HW112079   1.515   1.092   1.204
 1936SOL    HW212080   1.381   1.143   1.125
 1937SOL     OW12081   5.488   0.129   5.948
 1937SOL    HW112082   5.549   0.146   5.870
 1937SOL    HW212083   5.536   0.074   6.016
 1938SOL     OW12084   1.881   0.917   5.743
 1938SOL    HW112085   1.836   0.875   5.664
 1938SOL    HW212086   1.933   0.848   5.792
 1939SOL     OW12087   4.389   1.670   1.428
 1939SOL    HW112088   4.482   1.670   1.466
 1939SOL    HW212089   4.322   1.667   1.502
 1940SOL     OW12090   3.775   4.148   0.697
 1940SOL    HW112091   3.835   4.194   0.762
 1940SOL    HW212092   3.802   4.173   0.604
 1941SOL     OW12093   6.306   4.746   0.927
 1941SOL    HW112094   6.324   4.742   0.829
 1941SOL    HW212095   0.025   4.819   0.969
 1942SOL     OW12096   4.934   1.138   0.431
 1942SOL    HW112097   4.965   1.221   0.478
 1942SOL    HW212098   4.849   1.106   0.473
 1943SOL     OW12099   0.567   1.031   1.486
 1943SOL    HW112100   0.655   0.997   1.519
 1943SOL    HW212101   0.516   1.072   1.561
 1944SOL     OW12102   2.896   3.418   5.947
 1944SOL    HW112103   2.915   3.386   5.855
 1944SOL    HW212104   2.976   3.404   6.005
 1945SOL     OW12105   0.499   2.281   6.227
 1945SOL    HW112106   0.431   2.283   6.153
 1945SOL    HW212107   0.534   2.373   6.242
 1946SOL     OW12108   1.436   3.182   5.825
 1946SOL    HW112109   1.415   3.126   5.745
 1946SOL    HW212110   1.452   3.123   5.904
 1947SOL     OW12111   5.388   1.059   1.067
 1947SOL    HW112112   5.368   1.142   1.016
 1947SOL    HW212113   5.462   1.077   1.132
 1948SOL     OW12114   3.947   3.182   1.215
 1948SOL    HW112115   3.969   3.244   1.290
 1948SOL    HW212116   4.024   3.180   1.150
 1949SOL     OW12117   3.627   2.880   0.072
 1949SOL    HW112118   3.712   2.828   0.075
 1949SOL    HW212119   3.634   2.953   0.003
 1950SOL     OW12120   4.417   6.113   0.089
 1950SOL    HW112121   4.479   6.036   0.105
 1950SOL    HW212122   4.451   6.167   0.011
 1951SOL     OW12123   6.316   2.145   0.923
 1951SOL    HW112124   0.080   2.156   0.926
 1951SOL    HW212125   6.284   2.153   0.829
 1952SOL     OW12126   5.773   4.299   0.097
 1952SOL    HW112127   5.708   4.293   0.021
 1952SOL    HW212128   5.865   4.309   0.062
 1953SOL     OW12129   4.461   2.344   0.879
 1953SOL    HW112130   4.368   2.374   0.861
 1953SOL    HW212131   4.475   2.336   0.978
 1954SOL     OW12132   1.533   4.980   1.157
 1954SOL    HW112133   1.559   4.887   1.180
 1954SOL    HW212134   1.490   5.023   1.237
 1955SOL     OW12135   3.612   5.996   1.272
 1955SOL    HW112136   3.574   6.059   1.339
 1955SOL    HW212137   3.551   5.918   1.260
 1956SOL     OW12138   4.624   3.918   0.349
 1956SOL    HW112139   4.545   3.918   0.411
 1956SOL    HW212140   4.592   3.916   0.255
 1957SOL     OW12141   2.757   5.167   0.209
 1957SOL    HW112142   2.823   5.092   0.216
 1957SOL    HW212143   2.804   5.254   0.219
 1958SOL     OW12144   2.014   4.957   6.234
 1958SOL    HW112145   1.932   4.913   6.271
 1958SOL    HW212146   2.033   4.919   6.143
 1959SOL     OW12147   5.324   2.115   0.912
 1959SOL    HW112148   5.243   2.143   0.860
 1959SOL    HW212149   5.406   2.138   0.860
 1960SOL     OW12150   0.972   5.722   6.272
 1960SOL    HW112151   1.039   5.796   6.270
 1960SOL    HW212152   1.003   5.648   6.213
 1961SOL     OW12153   0.466   1.967   6.495
 1961SOL    HW112154   0.442   1.925   0.013
 1961SOL    HW212155   0.389   1.958   6.431
 1962SOL     OW12156   0.370   0.562   0.673
 1962SOL    HW112157   0.352   0.502   0.594
 1962SOL    HW212158   0.337   0.518   0.756
 1963SOL     OW12159   2.913   5.175   1.408
 1963SOL    HW112160   2.837   5.198   1.347
 1963SOL    HW212161   2.881   5.176   1.503
 1964SOL     OW12162   6.225   4.418   0.756
 1964SOL    HW112163   6.294   4.361   0.801
 1964SOL    HW212164   6.146   4.427   0.816
 1965SOL     OW12165   1.958   3.363   6.297
 1965SOL    HW112166   1.870   3.410   6.303
 1965SOL    HW212167   2.030   3.420   6.338
 1966SOL     OW12168   4.253   4.781   6.360
 1966SOL    HW112169   4.251   4.775   6.460
 1966SOL    HW212170   4.188   4.850   6.330
 1967SOL     OW12171   0.172   2.326   5.573
 1967SOL    HW112172   0.185   2.237   5.616
 1967SOL    HW212173   0.107   2.318   5.497
 1968SOL     OW12174   2.856   5.859   5.897
 1968SOL    HW112175   2.850   5.791   5.970
 1968SOL    HW212176   2.858   5.811   5.808
 1969SOL     OW12177   4.199   3.157   5.454
 1969SOL    HW112178   4.252   3.241   5.449
 1969SOL    HW212179   4.149   3.144   5.369
 1970SOL     OW12180   5.349   5.983   6.172
 1970SOL    HW112181   5.305   5.914   6.115
 1970SOL    HW212182   5.329   6.074   6.135
 1971SOL     OW12183   1.783   0.920   5.278
 1971SOL    HW112184   1.813   1.016   5.276
 1971SOL    HW212185   1.762   0.891   5.184
 1972SOL     OW12186   4.781   3.092   0.139
 1972SOL    HW112187   4.828   3.104   0.227
 1972SOL    HW212188   4.690   3.054   0.155
 1973SOL     OW12189   4.013   1.838   6.425
 1973SOL    HW112190   4.065   1.754   6.408
 1973SOL    HW212191   3.989   1.880   6.338
 1974SOL     OW12192   6.017   4.239   0.442
 1974SOL    HW112193   5.957   4.310   0.478
 1974SOL    HW212194   6.111   4.271   0.441
 1975SOL     OW12195   5.021   5.236   0.085
 1975SOL    HW112196   4.976   5.289   0.013
 1975SOL    HW212197   4.989   5.141   0.082
 1976SOL     OW12198   4.908   2.221   5.636
 1976SOL    HW112199   4.944   2.128   5.629
 1976SOL    HW212200   4.911   2.251   5.731
 1977SOL     OW12201   5.822   5.365   0.951
 1977SOL    HW112202   5.752   5.347   1.021
 1977SOL    HW212203   5.907   5.319   0.977
 1978SOL     OW12204   3.417   0.710   1.007
 1978SOL    HW112205   3.476   0.786   0.981
 1978SOL    HW212206   3.391   0.658   0.925
 1979SOL     OW12207   0.014   5.190   6.179
 1979SOL    HW112208   6.308   5.159   6.093
 1979SOL    HW212209   0.109   5.217   6.163
 1980SOL     OW12210   3.149   4.771   5.294
 1980SOL    HW112211   3.170   4.772   5.196
 1980SOL    HW212212   3.106   4.858   5.319
 1981SOL     OW12213   5.051   4.749   0.916
 1981SOL    HW112214   4.967   4.767   0.966
 1981SOL    HW212215   5.047   4.792   0.826
 1982SOL     OW12216   2.715   0.276   6.134
 1982SOL    HW112217   2.772   0.331   6.072
 1982SOL    HW212218   2.666   0.337   6.195
 1983SOL     OW12219   2.482   0.277   5.107
 1983SOL    HW112220   2.439   0.238   5.026
 1983SOL    HW212221   2.556   0.338   5.080
 1984SOL     OW12222   1.627   5.849   5.559
 1984SOL    HW112223   1.559   5.861   5.632
 1984SOL    HW212224   1.687   5.929   5.557
 1985SOL     OW12225   5.591   5.120   1.461
 1985SOL    HW112226   5.643   5.121   1.547
 1985SOL    HW212227   5.561   5.213   1.439
 1986SOL     OW12228   3.123   4.510   5.374
 1986SOL    HW112229   3.216   4.476   5.386
 1986SOL    HW212230   3.125   4.607   5.350
 1987SOL     OW12231   2.321   5.123   0.128
 1987SOL    HW112232   2.259   5.046   0.114
 1987SOL    HW212233   2.382   5.103   0.205
 1988SOL     OW12234   3.749   2.376   5.020
 1988SOL    HW112235   3.652   2.396   5.005
 1988SOL    HW212236   3.805   2.446   4.976
 1989SOL     OW12237   1.980   1.291   5.927
 1989SOL    HW112238   1.945   1.264   5.837
 1989SOL    HW212239   2.006   1.387   5.926
 1990SOL     OW12240   3.868   4.301   0.935
 1990SOL    HW112241   3.920   4.387   0.933
 1990SOL    HW212242   3.784   4.315   0.989
 1991SOL     OW12243   2.160   3.504   1.855
 1991SOL    HW112244   2.245   3.539   1.816
 1991SOL    HW212245   2.083   3.560   1.824
 1992SOL     OW12246   4.003   0.415   1.369
 1992SOL    HW112247   4.050   0.433   1.455
 1992SOL    HW212248   3.917   0.466   1.367
 1993SOL     OW12249   0.264   1.033   5.700
 1993SOL    HW112250   0.181   1.075   5.663
 1993SOL    HW212251   0.273   0.940   5.664
 1994SOL     OW12252   4.463   4.038   1.197
 1994SOL    HW112253   4.394   3.975   1.164
 1994SOL    HW212254   4.554   3.997   1.186
 1995SOL     OW12255   4.096   4.103   6.123
 1995SOL    HW112256   4.100   4.154   6.209
 1995SOL    HW212257   4.031   4.147   6.061
 1996SOL     OW12258   0.975   4.182   0.668
 1996SOL    HW112259   0.999   4.087   0.686
 1996SOL    HW212260   0.993   4.237   0.750
 1997SOL     OW12261   3.359   6.133   0.536
 1997SOL    HW112262   3.343   6.070   0.460
 1997SOL    HW212263   3.295   6.113   0.610
 1998SOL     OW12264   0.099   0.162   0.097
 1998SOL    HW112265   0.055   0.168   0.007
 1998SOL    HW212266   0.152   0.078   0.102
 1999SOL     OW12267   2.954   6.039   0.605
 1999SOL    HW112268   2.958   6.083   0.515
 1999SOL    HW212269   3.044   6.043   0.649
 2000SOL     OW12270   5.182   1.760   6.499
 2000SOL    HW112271   5.170   1.857   6.521
 2000SOL    HW212272   5.096   1.712   6.511
 2001SOL     OW12273   6.305   3.922   1.637
 2001SOL    HW112274   0.070   3.923   1.629
 2001SOL    HW212275   6.270   4.015   1.637
 2002SOL     OW12276   0.394   2.261   1.263
 2002SOL    HW112277   0.360   2.327   1.330
 2002SOL    HW212278   0.385   2.168   1.299
 2003SOL     OW12279   3.694   2.469   0.025
 2003SOL    HW112280   3.784   2.484   0.065
 2003SOL    HW212281   3.699   2.483   6.495
 2004SOL     OW12282   0.106   1.450   5.200
 2004SOL    HW112283   0.076   1.465   5.106
 2004SOL    HW212284   0.194   1.494   5.214
 2005SOL     OW12285   1.087   0.749   1.277
 2005SOL    HW112286   1.132   0.688   1.342
 2005SOL    HW212287   1.024   0.696   1.221
 2006SOL     OW12288   4.772   5.453   0.521
 2006SOL    HW112289   4.792   5.513   0.444
 2006SOL    HW212290   4.854   5.404   0.548
 2007SOL     OW12291   5.813   3.645   5.714
 2007SOL    HW112292   5.717   3.638   5.687
 2007SOL    HW212293   5.854   3.726   5.672
 2008SOL     OW12294   3.988   3.017   0.729
 2008SOL    HW112295   3.925   2.968   0.669
 2008SOL    HW212296   4.082   2.990   0.709
 2009SOL     OW12297   2.573   2.951   5.871
 2009SOL    HW112298   2.660   2.962   5.823
 2009SOL    HW212299   2.541   3.041   5.902
 2010SOL     OW12300   5.241   3.546   1.101
 2010SOL    HW112301   5.203   3.619   1.157
 2010SOL    HW212302   5.240   3.460   1.152
 2011SOL     OW12303   5.132   6.201   6.266
 2011SOL    HW112304   5.195   6.222   6.192
 2011SOL    HW212305   5.085   6.115   6.247
 2012SOL     OW12306   0.767   3.826   6.470
 2012SOL    HW112307   0.858   3.784   6.474
 2012SOL    HW212308   0.753   3.865   6.379
 2013SOL     OW12309   0.928   2.532   0.641
 2013SOL    HW112310   0.998   2.477   0.687
 2013SOL    HW212311   0.860   2.472   0.600
 2014SOL     OW12312   3.536   3.100   0.365
 2014SOL    HW112313   3.539   3.000   0.357
 2014SOL    HW212314   3.448   3.134   0.332
 2015SOL     OW12315   6.117   2.562   0.193
 2015SOL    HW112316   6.204   2.570   0.242
 2015SOL    HW212317   6.120   2.483   0.133
 2016SOL     OW12318   4.517   3.441   1.347
 2016SOL    HW112319   4.489   3.387   1.427
 2016SOL    HW212320   4.437   3.483   1.306
 2017SOL     OW12321   5.243   4.614   5.977
 2017SOL    HW112322   5.263   4.649   6.069
 2017SOL    HW212323   5.213   4.690   5.919
 2018SOL     OW12324   4.778   4.024   2.040
 2018SOL    HW112325   4.727   4.108   2.021
 2018SOL    HW212326   4.820   4.030   2.131
 2019SOL     OW12327   0.866   5.287   0.526
 2019SOL    HW112328   0.829   5.376   0.500
 2019SOL    HW212329   0.945   5.299   0.585
 2020SOL     OW12330   1.212   1.437   0.034
 2020SOL    HW112331   1.243   1.533   0.031
 2020SOL    HW212332   1.210   1.407   0.130
 2021SOL     OW12333   5.688   2.627   0.626
 2021SOL    HW112334   5.715   2.709   0.575
 2021SOL    HW212335   5.689   2.647   0.724
 2022SOL     OW12336   3.310   2.140   5.896
 2022SOL    HW112337   3.244   2.125   5.970
 2022SOL    HW212338   3.363   2.056   5.882
 2023SOL     OW12339   1.292   1.693   6.548
 2023SOL    HW112340   1.255   1.786   6.538
 2023SOL    HW212341   1.389   1.698   0.000
 2024SOL     OW12342   2.039   3.425   0.529
 2024SOL    HW112343   2.072   3.331   0.518
 2024SOL    HW212344   1.942   3.425   0.552
 2025SOL     OW12345   1.899   4.376   5.943
 2025SOL    HW112346   1.912   4.371   5.844
 2025SOL    HW212347   1.985   4.403   5.987
 2026SOL     OW12348   5.116   2.216   5.287
 2026SOL    HW112349   5.078   2.281   5.353
 2026SOL    HW212350   5.069   2.226   5.199
 2027SOL     OW12351   1.125   5.765   6.548
 2027SOL    HW112352   1.128   5.814   6.461
 2027SOL    HW212353   1.218   5.741   0.006
 2028SOL     OW12354   0.899   0.869   5.821
 2028SOL    HW112355   0.816   0.822   5.792
 2028SOL    HW212356   0.972   0.803   5.835
 2029SOL     OW12357   3.131   4.088   0.059
 2029SOL    HW112358   3.126   4.184   0.030
 2029SOL    HW212359   3.072   4.074   0.139
 2030SOL     OW12360   3.200   5.142   5.722
 2030SOL    HW112361   3.292   5.155   5.757
 2030SOL    HW212362   3.202   5.140   5.622
 2031SOL     OW12363   4.417   0.417   0.867
 2031SOL    HW112364   4.429   0.407   0.965
 2031SOL    HW212365   4.505   0.408   0.821
 2032SOL     OW12366   3.985   3.965   0.115
 2032SOL    HW112367   3.917   3.893   0.099
 2032SOL    HW212368   4.070   3.942   0.068
 2033SOL     OW12369   4.600   4.297   0.643
 2033SOL    HW112370   4.508   4.331   0.626
 2033SOL    HW212371   4.660   4.326   0.569
 2034SOL     OW12372   1.431   6.183   6.167
 2034SOL    HW112373   1.486   6.256   6.127
 2034SOL    HW212374   1.355   6.162   6.105
 2035SOL     OW12375   6.151   0.860   0.056
 2035SOL    HW112376   6.229   0.860   6.563
 2035SOL    HW212377   6.069   0.888   0.007
 2036SOL     OW12378   3.754   1.589   5.723
 2036SOL    HW112379   3.802   1.598   5.635
 2036SOL    HW212380   3.808   1.634   5.794
 2037SOL     OW12381   4.295   4.087   0.927
 2037SOL    HW112382   4.285   4.007   0.986
 2037SOL    HW212383   4.370   4.072   0.863
 2038SOL     OW12384   3.382   2.769   6.192
 2038SOL    HW112385   3.393   2.857   6.237
 2038SOL    HW212386   3.463   2.750   6.137
 2039SOL     OW12387   0.814   4.671   0.326
 2039SOL    HW112388   0.831   4.673   0.424
 2039SOL    HW212389   0.860   4.747   0.281
 2040SOL     OW12390   4.285   2.824   0.102
 2040SOL    HW112391   4.288   2.749   0.168
 2040SOL    HW212392   4.363   2.817   0.040
 2041SOL     OW12393   2.589   4.432   0.095
 2041SOL    HW112394   2.670   4.463   0.145
 2041SOL    HW212395   2.601   4.336   0.070
 2042SOL     OW12396   5.816   1.787   0.747
 2042SOL    HW112397   5.894   1.847   0.760
 2042SOL    HW212398   5.798   1.737   0.832
 2043SOL     OW12399   3.420   5.773   0.799
 2043SOL    HW112400   3.401   5.858   0.847
 2043SOL    HW212401   3.393   5.696   0.857
 2044SOL     OW12402   0.977   2.859   5.431
 2044SOL    HW112403   0.880   2.837   5.432
 2044SOL    HW212404   0.991   2.948   5.388
 2045SOL     OW12405   1.170   0.229   0.540
 2045SOL    HW112406   1.232   0.237   0.462
 2045SOL    HW212407   1.156   0.132   0.561
 2046SOL     OW12408   1.465   1.677   5.315
 2046SOL    HW112409   1.470   1.603   5.382
 2046SOL    HW212410   1.504   1.760   5.355
 2047SOL     OW12411   0.413   6.126   6.048
 2047SOL    HW112412   0.330   6.180   6.039
 2047SOL    HW212413   0.493   6.184   6.030
 2048SOL     OW12414   2.465   4.950   6.389
 2048SOL    HW112415   2.510   5.013   6.453
 2048SOL    HW212416   2.531   4.921   6.319
 2049SOL     OW12417   1.294   2.011   6.068
 2049SOL    HW112418   1.376   2.006   6.125
 2049SOL    HW212419   1.213   2.023   6.126
 2050SOL     OW12420   1.635   1.805   6.356
 2050SOL    HW112421   1.690   1.743   6.301
 2050SOL    HW212422   1.597   1.755   6.434
 2051SOL     OW12423   2.935   2.204   1.211
 2051SOL    HW112424   2.988   2.223   1.294
 2051SOL    HW212425   2.858   2.267   1.206
 2052SOL     OW12426   4.643   4.647   1.692
 2052SOL    HW112427   4.620   4.705   1.770
 2052SOL    HW212428   4.573   4.576   1.682
 2053SOL     OW12429   1.388   1.208   5.797
 2053SOL    HW112430   1.378   1.295   5.845
 2053SOL    HW212431   1.303   1.184   5.752
 2054SOL     OW12432   5.111   5.779   6.363
 2054SOL    HW112433   5.066   5.807   6.448
 2054SOL    HW212434   5.209   5.774   6.378
 2055SOL     OW12435   0.389   5.859   5.977
 2055SOL    HW112436   0.478   5.815   5.966
 2055SOL    HW212437   0.402   5.954   6.005
 2056SOL     OW12438   3.219   0.902   0.665
 2056SOL    HW112439   3.185   0.919   0.572
 2056SOL    HW212440   3.232   0.804   0.678
 2057SOL     OW12441   1.975   0.040   5.765
 2057SOL    HW112442   1.895   0.002   5.718
 2057SOL    HW212443   2.050   0.052   5.700
 2058SOL     OW12444   4.241   2.924   0.668
 2058SOL    HW112445   4.277   2.954   0.580
 2058SOL    HW212446   4.250   2.825   0.676
 2059SOL     OW12447   3.849   4.351   5.455
 2059SOL    HW112448   3.911   4.426   5.429
 2059SOL    HW212449   3.888   4.302   5.533
 2060SOL     OW12450   4.082   4.987   5.923
 2060SOL    HW112451   4.171   5.032   5.914
 2060SOL    HW212452   4.009   5.054   5.907
 2061SOL     OW12453   1.052   3.285   1.475
 2061SOL    HW112454   1.021   3.379   1.483
 2061SOL    HW212455   1.151   3.281   1.491
 2062SOL     OW12456   4.930   4.313   1.440
 2062SOL    HW112457   5.021   4.271   1.430
 2062SOL    HW212458   4.916   4.378   1.366
 2063SOL     OW12459   6.152   1.982   6.360
 2063SOL    HW112460   6.124   1.886   6.354
 2063SOL    HW212461   6.093   2.038   6.302
 2064SOL     OW12462   3.849   4.462   0.593
 2064SOL    HW112463   3.785   4.480   0.668
 2064SOL    HW212464   3.941   4.493   0.620
 2065SOL     OW12465   1.468   3.730   6.399
 2065SOL    HW112466   1.462   3.715   6.301
 2065SOL    HW212467   1.446   3.826   6.419
 2066SOL     OW12468   0.219   1.092   6.257
 2066SOL    HW112469   0.281   1.171   6.250
 2066SOL    HW212470   0.145   1.114   6.321
 2067SOL     OW12471   4.513   4.385   1.531
 2067SOL    HW112472   4.443   4.454   1.515
 2067SOL    HW212473   4.546   4.351   1.443
 2068SOL     OW12474   4.273   5.300   0.500
 2068SOL    HW112475   4.256   5.371   0.432
 2068SOL    HW212476   4.369   5.304   0.529
 2069SOL     OW12477   1.577   5.812   0.515
 2069SOL    HW112478   1.575   5.860   0.603
 2069SOL    HW212479   1.670   5.812   0.479
 2070SOL     OW12480   5.432   1.826   5.850
 2070SOL    HW112481   5.395   1.792   5.937
 2070SOL    HW212482   5.440   1.925   5.853
 2071SOL     OW12483   5.903   4.554   6.476
 2071SOL    HW112484   5.964   4.490   6.524
 2071SOL    HW212485   5.842   4.503   6.415
 2072SOL     OW12486   1.310   2.107   0.636
 2072SOL    HW112487   1.342   2.162   0.713
 2072SOL    HW212488   1.243   2.039   0.669
 2073SOL     OW12489   1.426   1.642   6.083
 2073SOL    HW112490   1.512   1.687   6.106
 2073SOL    HW212491   1.367   1.639   6.164
 2074SOL     OW12492   0.063   1.206   5.625
 2074SOL    HW112493   0.124   1.281   5.600
 2074SOL    HW212494   6.303   1.232   5.607
 2075SOL     OW12495   0.176   4.050   1.371
 2075SOL    HW112496   0.204   4.024   1.464
 2075SOL    HW212497   0.198   4.146   1.355
 2076SOL     OW12498   0.464   3.573   0.996
 2076SOL    HW112499   0.493   3.656   1.042
 2076SOL    HW212500   0.449   3.592   0.899
 2077SOL     OW12501   3.037   5.206   0.505
 2077SOL    HW112502   2.966   5.275   0.492
 2077SOL    HW212503   3.111   5.243   0.560
 2078SOL     OW12504   1.017   6.298   5.997
 2078SOL    HW112505   0.939   6.255   5.951
 2078SOL    HW212506   1.060   6.364   5.936
 2079SOL     OW12507   2.882   3.130   1.712
 2079SOL    HW112508   2.901   3.228   1.719
 2079SOL    HW212509   2.799   3.116   1.658
 2080SOL     OW12510   2.494   3.212   5.904
 2080SOL    HW112511   2.399   3.215   5.935
 2080SOL    HW212512   2.542   3.294   5.935
 2081SOL     OW12513   4.434   0.404   5.230
 2081SOL    HW112514   4.457   0.307   5.218
 2081SOL    HW212515   4.486   0.459   5.164
 2082SOL     OW12516   1.257   3.346   6.249
 2082SOL    HW112517   1.255   3.318   6.345
 2082SOL    HW212518   1.351   3.363   6.221
 2083SOL     OW12519   5.575   3.767   1.040
 2083SOL    HW112520   5.630   3.819   0.975
 2083SOL    HW212521   5.524   3.696   0.992
 2084SOL     OW12522   4.578   3.888   5.153
 2084SOL    HW112523   4.541   3.955   5.088
 2084SOL    HW212524   4.629   3.817   5.103
 2085SOL     OW12525   2.077   0.522   5.630
 2085SOL    HW112526   2.098   0.444   5.571
 2085SOL    HW212527   2.095   0.498   5.725
 2086SOL     OW12528   5.910   4.629   6.045
 2086SOL    HW112529   5.943   4.674   6.129
 2086SOL    HW212530   5.927   4.689   5.967
 2087SOL     OW12531   1.407   6.256   5.077
 2087SOL    HW112532   1.475   6.315   5.034
 2087SOL    HW212533   1.316   6.287   5.052
 2088SOL     OW12534   2.924   4.331   5.382
 2088SOL    HW112535   2.951   4.261   5.448
 2088SOL    HW212536   2.995   4.402   5.378
 2089SOL     OW12537   0.755   2.966   0.288
 2089SOL    HW112538   0.777   3.029   0.364
 2089SOL    HW212539   0.781   2.873   0.314
 2090SOL     OW12540   2.557   1.988   6.185
 2090SOL    HW112541   2.612   2.050   6.128
 2090SOL    HW212542   2.617   1.935   6.245
 2091SOL     OW12543   0.265   4.491   6.534
 2091SOL    HW112544   0.241   4.459   6.443
 2091SOL    HW212545   0.226   4.430   0.033
 2092SOL     OW12546   0.003   0.125   6.406
 2092SOL    HW112547   0.090   0.084   6.377
 2092SOL    HW212548   6.262   0.069   6.372
 2093SOL     OW12549   3.737   1.863   0.221
 2093SOL    HW112550   3.782   1.807   0.152
 2093SOL    HW212551   3.688   1.805   0.285
 2094SOL     OW12552   0.010   6.156   6.185
 2094SOL    HW112553   0.038   6.103   6.265
 2094SOL    HW212554   0.091   6.199   6.144
 2095SOL     OW12555   3.178   2.930   0.015
 2095SOL    HW112556   3.092   2.882   0.001
 2095SOL    HW212557   3.187   3.003   6.517
 2096SOL     OW12558   4.403   2.696   1.207
 2096SOL    HW112559   4.419   2.793   1.224
 2096SOL    HW212560   4.465   2.664   1.136
 2097SOL     OW12561   2.435   5.163   1.147
 2097SOL    HW112562   2.437   5.073   1.102
 2097SOL    HW212563   2.523   5.178   1.193
 2098SOL     OW12564   0.007   2.603   0.346
 2098SOL    HW112565   0.023   2.614   0.445
 2098SOL    HW212566   0.052   2.677   0.297
 2099SOL     OW12567   1.299   3.692   5.671
 2099SOL    HW112568   1.256   3.758   5.610
 2099SOL    HW212569   1.384   3.660   5.631
 2100SOL     OW12570   0.036   1.813   5.752
 2100SOL    HW112571   6.317   1.891   5.720
 2100SOL    HW212572   6.320   1.764   5.823
 2101SOL     OW12573   3.163   0.021   5.102
 2101SOL    HW112574   3.156   6.398   5.006
 2101SOL    HW212575   3.181   0.119   5.107
 2102SOL     OW12576   0.021   6.373   1.264
 2102SOL    HW112577   0.018   6.370   1.364
 2102SOL    HW212578   0.105   0.013   1.234
 2103SOL     OW12579   0.679   3.612   0.056
 2103SOL    HW112580   0.659   3.544   6.555
 2103SOL    HW212581   0.696   3.701   0.012
 2104SOL     OW12582   1.114   2.863   0.299
 2104SOL    HW112583   1.062   2.826   0.376
 2104SOL    HW212584   1.051   2.902   0.232
 2105SOL     OW12585   3.965   5.618   5.767
 2105SOL    HW112586   4.049   5.565   5.783
 2105SOL    HW212587   3.983   5.688   5.698
 2106SOL     OW12588   2.464   3.396   6.269
 2106SOL    HW112589   2.435   3.300   6.268
 2106SOL    HW212590   2.395   3.452   6.223
 2107SOL     OW12591   0.190   4.067   5.279
 2107SOL    HW112592   0.131   4.100   5.353
 2107SOL    HW212593   0.147   3.987   5.236
 2108SOL     OW12594   3.968   3.577   1.575
 2108SOL    HW112595   3.926   3.552   1.663
 2108SOL    HW212596   3.912   3.645   1.529
 2109SOL     OW12597   1.841   1.946   5.373
 2109SOL    HW112598   1.862   1.859   5.329
 2109SOL    HW212599   1.846   2.020   5.306
 2110SOL     OW12600   2.832   1.192   6.398
 2110SOL    HW112601   2.898   1.149   6.459
 2110SOL    HW212602   2.767   1.123   6.365
 2111SOL     OW12603   6.086   5.852   0.099
 2111SOL    HW112604   6.106   5.924   0.033
 2111SOL    HW212605   5.987   5.843   0.109
 2112SOL     OW12606   0.787   0.381   5.219
 2112SOL    HW112607   0.845   0.441   5.162
 2112SOL    HW212608   0.808   0.285   5.198
 2113SOL     OW12609   3.457   5.112   5.307
 2113SOL    HW112610   3.452   5.023   5.261
 2113SOL    HW212611   3.497   5.180   5.245
 2114SOL     OW12612   4.936   4.347   0.060
 2114SOL    HW112613   4.976   4.356   0.151
 2114SOL    HW212614   4.982   4.272   0.012
 2115SOL     OW12615   3.060   4.200   5.592
 2115SOL    HW112616   3.123   4.176   5.519
 2115SOL    HW212617   3.109   4.202   5.679
 2116SOL     OW12618   3.671   0.803   6.379
 2116SOL    HW112619   3.608   0.848   6.316
 2116SOL    HW212620   3.683   0.708   6.352
 2117SOL     OW12621   3.939   3.561   1.241
 2117SOL    HW112622   3.917   3.528   1.149
 2117SOL    HW212623   3.974   3.485   1.297
 2118SOL     OW12624   1.118   4.009   6.247
 2118SOL    HW112625   1.096   3.948   6.171
 2118SOL    HW212626   1.143   3.955   6.328
 2119SOL     OW12627   0.260   3.834   6.385
 2119SOL    HW112628   0.335   3.895   6.362
 2119SOL    HW212629   0.281   3.788   6.472
 2120SOL     OW12630   2.120   2.259   0.051
 2120SOL    HW112631   2.216   2.256   0.023
 2120SOL    HW212632   2.112   2.229   0.146
 2121SOL     OW12633   4.597   4.305   4.850
 2121SOL    HW112634   4.506   4.343   4.833
 2121SOL    HW212635   4.667   4.369   4.819
 2122SOL     OW12636   4.718   2.058   5.245
 2122SOL    HW112637   4.671   2.128   5.191
 2122SOL    HW212638   4.799   2.027   5.195
 2123SOL     OW12639   1.370   5.222   6.084
 2123SOL    HW112640   1.358   5.123   6.077
 2123SOL    HW212641   1.300   5.268   6.029
 2124SOL     OW12642   6.190   4.174   1.633
 2124SOL    HW112643   6.194   4.267   1.670
 2124SOL    HW212644   6.119   4.169   1.562
 2125SOL     OW12645   2.322   4.302   0.387
 2125SOL    HW112646   2.229   4.269   0.400
 2125SOL    HW212647   2.326   4.357   0.304
 2126SOL     OW12648   4.185   2.180   5.611
 2126SOL    HW112649   4.276   2.220   5.601
 2126SOL    HW212650   4.189   2.082   5.589
 2127SOL     OW12651   6.260   5.645   0.040
 2127SOL    HW112652   6.203   5.722   0.069
 2127SOL    HW212653   6.319   5.674   6.534
 2128SOL     OW12654   1.103   0.810   0.806
 2128SOL    HW112655   1.050   0.755   0.741
 2128SOL    HW212656   1.188   0.762   0.829
 2129SOL     OW12657   4.106   0.690   6.159
 2129SOL    HW112658   4.040   0.713   6.087
 2129SOL    HW212659   4.063   0.704   6.248
 2130SOL     OW12660   4.701   3.580   6.221
 2130SOL    HW112661   4.620   3.622   6.262
 2130SOL    HW212662   4.741   3.515   6.285
 2131SOL     OW12663   4.098   4.847   1.214
 2131SOL    HW112664   4.084   4.754   1.248
 2131SOL    HW212665   4.057   4.856   1.123
 2132SOL     OW12666   3.097   1.314   0.141
 2132SOL    HW112667   3.148   1.353   0.065
 2132SOL    HW212668   3.048   1.387   0.189
 2133SOL     OW12669   2.687   5.646   0.467
 2133SOL    HW112670   2.662   5.587   0.390
 2133SOL    HW212671   2.604   5.680   0.511
 2134SOL     OW12672   3.183   3.896   0.950
 2134SOL    HW112673   3.145   3.804   0.940
 2134SOL    HW212674   3.116   3.956   0.993
 2135SOL     OW12675   4.814   4.108   0.296
 2135SOL    HW112676   4.748   4.037   0.319
 2135SOL    HW212677   4.768   4.181   0.245
 2136SOL     OW12678   2.309   2.925   5.457
 2136SOL    HW112679   2.258   3.004   5.424
 2136SOL    HW212680   2.315   2.928   5.557
 2137SOL     OW12681   3.193   1.418   6.237
 2137SOL    HW112682   3.142   1.488   6.189
 2137SOL    HW212683   3.147   1.330   6.227
 2138SOL     OW12684   0.088   4.559   1.325
 2138SOL    HW112685   0.017   4.573   1.395
 2138SOL    HW212686   0.172   4.605   1.352
 2139SOL     OW12687   4.416   5.682   0.718
 2139SOL    HW112688   4.510   5.654   0.737
 2139SOL    HW212689   4.388   5.648   0.629
 2140SOL     OW12690   3.528   2.154   5.423
 2140SOL    HW112691   3.468   2.233   5.435
 2140SOL    HW212692   3.575   2.161   5.335
 2141SOL     OW12693   0.452   0.348   6.118
 2141SOL    HW112694   0.506   0.420   6.161
 2141SOL    HW212695   0.514   0.283   6.074
 2142SOL     OW12696   0.615   0.539   6.244
 2142SOL    HW112697   0.571   0.578   6.325
 2142SOL    HW212698   0.664   0.612   6.195
 2143SOL     OW12699   0.186   2.511   6.149
 2143SOL    HW112700   0.238   2.435   6.108
 2143SOL    HW212701   0.212   2.596   6.105
 2144SOL     OW12702   3.971   2.645   5.709
 2144SOL    HW112703   3.964   2.744   5.716
 2144SOL    HW212704   4.067   2.617   5.711
 2145SOL     OW12705   0.499   3.418   5.756
 2145SOL    HW112706   0.474   3.489   5.822
 2145SOL    HW212707   0.596   3.395   5.767
 2146SOL     OW12708   0.461   3.185   0.714
 2146SOL    HW112709   0.423   3.103   0.671
 2146SOL    HW212710   0.389   3.254   0.723
 2147SOL     OW12711   2.886   2.121   0.073
 2147SOL    HW112712   2.936   2.154   0.152
 2147SOL    HW212713   2.791   2.151   0.078
 2148SOL     OW12714   3.784   5.021   5.157
 2148SOL    HW112715   3.870   4.979   5.127
 2148SOL    HW212716   3.732   5.051   5.077
 2149SOL     OW12717   1.775   1.513   0.688
 2149SOL    HW112718   1.858   1.457   0.695
 2149SOL    HW212719   1.763   1.542   0.593
 2150SOL     OW12720   3.708   0.622   0.133
 2150SOL    HW112721   3.626   0.633   0.078
 2150SOL    HW212722   3.722   0.703   0.190
 2151SOL     OW12723   3.066   3.137   6.147
 2151SOL    HW112724   2.983   3.087   6.123
 2151SOL    HW212725   3.138   3.115   6.081
 2152SOL     OW12726   1.452   0.484   6.243
 2152SOL    HW112727   1.434   0.484   6.342
 2152SOL    HW212728   1.533   0.428   6.224
 2153SOL     OW12729   1.107   0.124   5.541
 2153SOL    HW112730   1.151   0.093   5.457
 2153SOL    HW212731   1.064   0.213   5.525
 2154SOL     OW12732   2.318   0.130   1.611
 2154SOL    HW112733   2.331   0.047   1.666
 2154SOL    HW212734   2.344   0.210   1.666
 2155SOL     OW12735   1.281   6.227   1.901
 2155SOL    HW112736   1.379   6.205   1.898
 2155SOL    HW212737   1.237   6.171   1.971
 2156SOL     OW12738   1.056   2.648   5.808
 2156SOL    HW112739   1.115   2.664   5.887
 2156SOL    HW212740   1.044   2.549   5.795
 2157SOL     OW12741   3.550   4.449   1.969
 2157SOL    HW112742   3.600   4.365   1.990
 2157SOL    HW212743   3.454   4.438   1.993
 2158SOL     OW12744   4.553   0.481   1.530
 2158SOL    HW112745   4.545   0.436   1.619
 2158SOL    HW212746   4.480   0.549   1.520
 2159SOL     OW12747   4.298   6.187   0.753
 2159SOL    HW112748   4.348   6.101   0.747
 2159SOL    HW212749   4.357   6.257   0.791
 2160SOL     OW12750   4.823   1.584   0.949
 2160SOL    HW112751   4.817   1.625   0.858
 2160SOL    HW212752   4.782   1.645   1.017
 2161SOL     OW12753   2.053   6.008   0.982
 2161SOL    HW112754   2.129   5.951   0.952
 2161SOL    HW212755   1.967   5.958   0.970
 2162SOL     OW12756   1.283   3.631   0.143
 2162SOL    HW112757   1.246   3.665   0.057
 2162SOL    HW212758   1.211   3.633   0.213
 2163SOL     OW12759   1.245   5.975   0.329
 2163SOL    HW112760   1.325   5.928   0.294
 2163SOL    HW212761   1.187   6.005   0.253
 2164SOL     OW12762   5.046   6.045   1.119
 2164SOL    HW112763   5.101   6.126   1.099
 2164SOL    HW212764   5.050   6.025   1.217
 2165SOL     OW12765   0.990   3.251   5.102
 2165SOL    HW112766   1.049   3.192   5.047
 2165SOL    HW212767   0.969   3.334   5.051
 2166SOL     OW12768   4.141   5.310   0.145
 2166SOL    HW112769   4.142   5.341   0.050
 2166SOL    HW212770   4.206   5.363   0.198
 2167SOL     OW12771   2.860   1.453   5.437
 2167SOL    HW112772   2.817   1.363   5.433
 2167SOL    HW212773   2.895   1.477   5.347
 2168SOL     OW12774   5.897   0.767   5.822
 2168SOL    HW112775   5.988   0.795   5.851
 2168SOL    HW212776   5.871   0.684   5.871
 2169SOL     OW12777   1.800   2.734   6.344
 2169SOL    HW112778   1.900   2.731   6.337
 2169SOL    HW212779   1.773   2.745   6.440
 2170SOL     OW12780   2.960   2.841   5.332
 2170SOL    HW112781   2.862   2.860   5.324
 2170SOL    HW212782   3.011   2.901   5.270
 2171SOL     OW12783   5.642   4.616   6.126
 2171SOL    HW112784   5.739   4.629   6.103
 2171SOL    HW212785   5.590   4.599   6.042
 2172SOL     OW12786   0.902   1.502   0.701
 2172SOL    HW112787   0.915   1.404   0.687
 2172SOL    HW212788   0.981   1.540   0.749
 2173SOL     OW12789   5.394   4.928   1.413
 2173SOL    HW112790   5.461   4.994   1.447
 2173SOL    HW212791   5.354   4.879   1.490
 2174SOL     OW12792   5.432   5.318   0.152
 2174SOL    HW112793   5.371   5.290   0.226
 2174SOL    HW212794   5.492   5.242   0.128
 2175SOL     OW12795   0.582   3.153   6.068
 2175SOL    HW112796   0.518   3.166   5.992
 2175SOL    HW212797   0.615   3.059   6.069
 2176SOL     OW12798   4.549   2.966   0.213
 2176SOL    HW112799   4.468   2.974   0.270
 2176SOL    HW212800   4.527   2.917   0.129
 2177SOL     OW12801   4.986   3.871   1.946
 2177SOL    HW112802   4.992   3.782   1.992
 2177SOL    HW212803   4.914   3.926   1.988
 2178SOL     OW12804   1.653   5.991   0.099
 2178SOL    HW112805   1.749   6.019   0.104
 2178SOL    HW212806   1.595   6.071   0.081
 2179SOL     OW12807   2.880   4.488   5.948
 2179SOL    HW112808   2.937   4.569   5.966
 2179SOL    HW212809   2.891   4.461   5.852
 2180SOL     OW12810   3.956   5.165   1.063
 2180SOL    HW112811   3.986   5.076   1.029
 2180SOL    HW212812   3.997   5.183   1.153
 2181SOL     OW12813   4.304   4.651   1.939
 2181SOL    HW112814   4.290   4.555   1.915
 2181SOL    HW212815   4.360   4.657   2.021
 2182SOL     OW12816   6.265   0.956   1.435
 2182SOL    HW112817   6.265   0.996   1.527
 2182SOL    HW212818   6.175   0.917   1.416
 2183SOL     OW12819   1.012   3.246   0.077
 2183SOL    HW112820   1.097   3.266   0.028
 2183SOL    HW212821   0.999   3.147   0.083
 2184SOL     OW12822   2.091   1.714   5.413
 2184SOL    HW112823   2.102   1.649   5.337
 2184SOL    HW212824   2.117   1.806   5.382
 2185SOL     OW12825   3.134   1.480   1.405
 2185SOL    HW112826   3.047   1.475   1.356
 2185SOL    HW212827   3.116   1.483   1.503
 2186SOL     OW12828   4.708   0.003   6.369
 2186SOL    HW112829   4.758   6.335   6.323
 2186SOL    HW212830   4.729   0.091   6.325
 2187SOL     OW12831   0.682   1.796   6.117
 2187SOL    HW112832   0.654   1.878   6.168
 2187SOL    HW212833   0.732   1.734   6.178
 2188SOL     OW12834   3.237   4.162   5.385
 2188SOL    HW112835   3.263   4.253   5.351
 2188SOL    HW212836   3.166   4.123   5.325
 2189SOL     OW12837   3.378   4.836   0.821
 2189SOL    HW112838   3.474   4.844   0.851
 2189SOL    HW212839   3.368   4.759   0.759
 2190SOL     OW12840   5.148   5.528   1.448
 2190SOL    HW112841   5.052   5.512   1.474
 2190SOL    HW212842   5.177   5.617   1.481
 2191SOL     OW12843   4.919   4.017   2.266
 2191SOL    HW112844   4.906   3.926   2.307
 2191SOL    HW212845   5.008   4.053   2.293
 2192SOL     OW12846   3.061   1.179   6.214
 2192SOL    HW112847   3.051   1.127   6.130
 2192SOL    HW212848   2.972   1.187   6.259
 2193SOL     OW12849   4.726   0.484   5.960
 2193SOL    HW112850   4.664   0.474   6.038
 2193SOL    HW212851   4.702   0.567   5.909
 2194SOL     OW12852   0.955   6.328   6.265
 2194SOL    HW112853   0.982   6.324   6.168
 2194SOL    HW212854   0.955   0.019   6.295
 2195SOL     OW12855   2.832   3.652   6.299
 2195SOL    HW112856   2.748   3.618   6.340
 2195SOL    HW212857   2.902   3.662   6.369
 2196SOL     OW12858   3.883   1.526   0.934
 2196SOL    HW112859   3.832   1.527   0.848
 2196SOL    HW212860   3.972   1.482   0.919
 2197SOL     OW12861   3.453   5.186   5.806
 2197SOL    HW112862   3.519   5.230   5.745
 2197SOL    HW212863   3.485   5.093   5.827
 2198SOL     OW12864   1.292   1.454   4.968
 2198SOL    HW112865   1.267   1.526   4.903
 2198SOL    HW212866   1.378   1.478   5.012
 2199SOL     OW12867   4.152   5.429   6.453
 2199SOL    HW112868   4.171   5.344   6.404
 2199SOL    HW212869   4.053   5.438   6.466
 2200SOL     OW12870   2.710   5.583   0.005
 2200SOL    HW112871   2.722   5.510   6.508
 2200SOL    HW212872   2.618   5.622   6.566
 2201SOL     OW12873   4.893   0.872   1.014
 2201SOL    HW112874   4.985   0.912   1.019
 2201SOL    HW212875   4.879   0.813   1.093
 2202SOL     OW12876   4.132   2.836   1.586
 2202SOL    HW112877   4.144   2.795   1.496
 2202SOL    HW212878   4.060   2.787   1.635
 2203SOL     OW12879   4.457   4.272   1.771
 2203SOL    HW112880   4.482   4.313   1.683
 2203SOL    HW212881   4.384   4.326   1.813
 2204SOL     OW12882   0.326   1.624   0.187
 2204SOL    HW112883   0.367   1.561   0.122
 2204SOL    HW212884   0.380   1.707   0.192
 2205SOL     OW12885   0.170   2.945   6.162
 2205SOL    HW112886   0.216   2.878   6.104
 2205SOL    HW212887   0.178   3.036   6.121
 2206SOL     OW12888   3.861   5.435   0.568
 2206SOL    HW112889   3.905   5.480   0.646
 2206SOL    HW212890   3.911   5.457   0.485
 2207SOL     OW12891   3.660   0.953   0.036
 2207SOL    HW112892   3.653   0.894   6.526
 2207SOL    HW212893   3.575   1.005   0.047
 2208SOL     OW12894   2.796   3.548   0.455
 2208SOL    HW112895   2.799   3.635   0.406
 2208SOL    HW212896   2.888   3.526   0.489
 2209SOL     OW12897   3.599   4.195   5.777
 2209SOL    HW112898   3.681   4.139   5.764
 2209SOL    HW212899   3.588   4.257   5.700
 2210SOL     OW12900   4.773   4.366   5.377
 2210SOL    HW112901   4.825   4.451   5.377
 2210SOL    HW212902   4.685   4.380   5.332
 2211SOL     OW12903   0.258   4.935   6.426
 2211SOL    HW112904   0.301   4.946   6.336
 2211SOL    HW212905   0.200   5.015   6.445
 2212SOL     OW12906   4.765   6.329   0.337
 2212SOL    HW112907   4.830   6.390   0.384
 2212SOL    HW212908   4.766   6.349   0.239
 2213SOL     OW12909   0.245   2.258   0.544
 2213SOL    HW112910   0.254   2.159   0.535
 2213SOL    HW212911   0.173   2.291   0.482
 2214SOL     OW12912   1.614   6.029   6.296
 2214SOL    HW112913   1.552   6.079   6.234
 2214SOL    HW212914   1.665   6.094   6.351
 2215SOL     OW12915   1.411   2.673   4.572
 2215SOL    HW112916   1.340   2.605   4.588
 2215SOL    HW212917   1.499   2.628   4.562
 2216SOL     OW12918   3.174   1.330   5.810
 2216SOL    HW112919   3.249   1.265   5.820
 2216SOL    HW212920   3.204   1.422   5.837
 2217SOL     OW12921   4.704   0.096   5.977
 2217SOL    HW112922   4.624   0.111   6.035
 2217SOL    HW212923   4.788   0.112   6.030
 2218SOL     OW12924   5.136   3.291   0.808
 2218SOL    HW112925   5.177   3.201   0.822
 2218SOL    HW212926   5.203   3.353   0.766
 2219SOL     OW12927   4.581   1.464   0.030
 2219SOL    HW112928   4.573   1.367   0.010
 2219SOL    HW212929   4.577   1.516   6.514
 2220SOL     OW12930   3.069   1.428   0.523
 2220SOL    HW112931   3.015   1.498   0.568
 2220SOL    HW212932   3.050   1.339   0.565
 2221SOL     OW12933   4.669   1.378   0.282
 2221SOL    HW112934   4.619   1.291   0.287
 2221SOL    HW212935   4.647   1.425   0.197
 2222SOL     OW12936   4.621   6.049   5.989
 2222SOL    HW112937   4.695   6.116   5.988
 2222SOL    HW212938   4.610   6.010   5.897
 2223SOL     OW12939   5.470   4.726   0.625
 2223SOL    HW112940   5.493   4.650   0.686
 2223SOL    HW212941   5.517   4.808   0.655
 2224SOL     OW12942   2.307   0.399   5.282
 2224SOL    HW112943   2.371   0.350   5.222
 2224SOL    HW212944   2.343   0.489   5.303
 2225SOL     OW12945   4.228   5.920   6.334
 2225SOL    HW112946   4.319   5.890   6.361
 2225SOL    HW212947   4.172   5.841   6.309
 2226SOL     OW12948   3.162   2.691   4.891
 2226SOL    HW112949   3.191   2.773   4.843
 2226SOL    HW212950   3.159   2.614   4.826
 2227SOL     OW12951   0.181   3.782   0.736
 2227SOL    HW112952   0.263   3.725   0.736
 2227SOL    HW212953   0.101   3.725   0.720
 2228SOL     OW12954   0.931   1.310   5.554
 2228SOL    HW112955   0.970   1.273   5.470
 2228SOL    HW212956   0.921   1.237   5.621
 2229SOL     OW12957   3.400   5.096   0.720
 2229SOL    HW112958   3.382   5.009   0.766
 2229SOL    HW212959   3.489   5.092   0.675
 2230SOL     OW12960   5.181   4.317   5.448
 2230SOL    HW112961   5.181   4.327   5.349
 2230SOL    HW212962   5.260   4.263   5.477
 2231SOL     OW12963   5.480   1.559   5.774
 2231SOL    HW112964   5.525   1.558   5.685
 2231SOL    HW212965   5.452   1.652   5.797
 2232SOL     OW12966   1.008   2.784   0.561
 2232SOL    HW112967   0.975   2.690   0.573
 2232SOL    HW212968   0.945   2.847   0.606
 2233SOL     OW12969   4.625   2.741   6.183
 2233SOL    HW112970   4.609   2.807   6.109
 2233SOL    HW212971   4.670   2.788   6.259
 2234SOL     OW12972   2.917   5.483   0.893
 2234SOL    HW112973   2.952   5.561   0.841
 2234SOL    HW212974   2.992   5.422   0.916
 2235SOL     OW12975   5.577   0.900   0.029
 2235SOL    HW112976   5.625   0.838   6.537
 2235SOL    HW212977   5.629   0.908   0.115
 2236SOL     OW12978   1.584   2.751   1.605
 2236SOL    HW112979   1.502   2.705   1.573
 2236SOL    HW212980   1.560   2.816   1.678
 2237SOL     OW12981   2.996   4.600   0.097
 2237SOL    HW112982   2.918   4.661   0.087
 2237SOL    HW212983   3.002   4.569   0.192
 2238SOL     OW12984   3.718   0.008   6.080
 2238SOL    HW112985   3.779   6.400   6.158
 2238SOL    HW212986   3.742   0.091   6.031
 2239SOL     OW12987   5.650   4.792   5.805
 2239SOL    HW112988   5.600   4.871   5.768
 2239SOL    HW212989   5.585   4.724   5.838
 2240SOL     OW12990   3.739   5.966   0.228
 2240SOL    HW112991   3.816   6.009   0.180
 2240SOL    HW212992   3.774   5.914   0.306
 2241SOL     OW12993   4.490   1.025   0.925
 2241SOL    HW112994   4.559   0.954   0.906
 2241SOL    HW212995   4.446   1.052   0.840
 2242SOL     OW12996   3.870   2.872   0.937
 2242SOL    HW112997   3.778   2.903   0.960
 2242SOL    HW212998   3.907   2.929   0.864
 2243SOL     OW12999   4.962   0.782   0.697
 2243SOL    HW113000   4.958   0.879   0.724
 2243SOL    HW213001   4.941   0.774   0.599
 2244SOL     OW13002   6.191   1.118   5.992
 2244SOL    HW113003   6.275   1.167   5.968
 2244SOL    HW213004   6.196   1.088   6.087
 2245SOL     OW13005   2.534   3.816   0.262
 2245SOL    HW113006   2.489   3.746   0.317
 2245SOL    HW213007   2.504   3.907   0.293
 2246SOL     OW13008   1.395   5.723   0.023
 2246SOL    HW113009   1.416   5.782   6.515
 2246SOL    HW213010   1.427   5.766   0.107
 2247SOL     OW13011   4.463   5.820   6.429
 2247SOL    HW113012   4.445   5.722   6.437
 2247SOL    HW213013   4.499   5.855   6.515
 2248SOL     OW13014   6.017   6.399   0.039
 2248SOL    HW113015   6.063   6.404   6.520
 2248SOL    HW213016   5.992   0.086   0.068
 2249SOL     OW13017   5.311   4.421   0.916
 2249SOL    HW113018   5.391   4.448   0.862
 2249SOL    HW213019   5.289   4.326   0.898
 2250SOL     OW13020   3.820   2.850   0.579
 2250SOL    HW113021   3.850   2.856   0.484
 2250SOL    HW213022   3.794   2.756   0.600
 2251SOL     OW13023   1.572   1.921   5.415
 2251SOL    HW113024   1.557   1.925   5.514
 2251SOL    HW213025   1.670   1.925   5.396
 2252SOL     OW13026   0.474   1.259   4.803
 2252SOL    HW113027   0.525   1.247   4.718
 2252SOL    HW213028   0.526   1.221   4.880
 2253SOL     OW13029   1.275   3.266   6.527
 2253SOL    HW113030   1.339   3.333   6.565
 2253SOL    HW213031   1.310   3.174   6.544
 2254SOL     OW13032   4.224   6.170   6.216
 2254SOL    HW113033   4.229   6.079   6.258
 2254SOL    HW213034   4.212   6.239   6.287
 2255SOL     OW13035   4.082   2.842   1.106
 2255SOL    HW113036   4.166   2.879   1.066
 2255SOL    HW213037   4.006   2.855   1.042
 2256SOL     OW13038   0.205   4.994   0.416
 2256SOL    HW113039   0.281   5.049   0.382
 2256SOL    HW213040   0.120   5.045   0.405
 2257SOL     OW13041   5.515   2.173   0.229
 2257SOL    HW113042   5.571   2.091   0.219
 2257SOL    HW213043   5.479   2.178   0.322
 2258SOL     OW13044   5.171   0.775   0.393
 2258SOL    HW113045   5.250   0.723   0.360
 2258SOL    HW213046   5.176   0.869   0.360
 2259SOL     OW13047   5.504   5.441   0.690
 2259SOL    HW113048   5.441   5.385   0.743
 2259SOL    HW213049   5.581   5.469   0.748
 2260SOL     OW13050   3.897   3.827   0.990
 2260SOL    HW113051   3.821   3.889   1.008
 2260SOL    HW213052   3.955   3.822   1.071
 2261SOL     OW13053   2.601   5.506   1.192
 2261SOL    HW113054   2.537   5.568   1.238
 2261SOL    HW213055   2.625   5.543   1.102
 2262SOL     OW13056   0.700   1.252   5.897
 2262SOL    HW113057   0.610   1.221   5.868
 2262SOL    HW213058   0.712   1.233   5.994
 2263SOL     OW13059   6.163   6.322   6.072
 2263SOL    HW113060   6.193   6.364   5.986
 2263SOL    HW213061   6.237   6.266   6.110
 2264SOL     OW13062   4.438   1.080   0.650
 2264SOL    HW113063   4.535   1.082   0.626
 2264SOL    HW213064   4.391   1.016   0.590
 2265SOL     OW13065   0.465   1.494   4.962
 2265SOL    HW113066   0.556   1.532   4.947
 2265SOL    HW213067   0.453   1.413   4.905
 2266SOL     OW13068   0.713   0.793   6.157
 2266SOL    HW113069   0.788   0.851   6.122
 2266SOL    HW213070   0.638   0.793   6.091
 2267SOL     OW13071   4.006   4.801   5.482
 2267SOL    HW113072   4.051   4.862   5.417
 2267SOL    HW213073   3.910   4.828   5.493
 2268SOL     OW13074   5.081   2.651   5.551
 2268SOL    HW113075   5.032   2.699   5.625
 2268SOL    HW213076   5.074   2.706   5.467
 2269SOL     OW13077   0.481   2.045   0.555
 2269SOL    HW113078   0.540   1.970   0.585
 2269SOL    HW213079   0.397   2.008   0.516
 2270SOL     OW13080   4.988   6.131   0.072
 2270SOL    HW113081   5.032   6.201   0.016
 2270SOL    HW213082   4.905   6.169   0.114
 2271SOL     OW13083   5.776   2.386   5.483
 2271SOL    HW113084   5.681   2.378   5.452
 2271SOL    HW213085   5.777   2.421   5.577
 2272SOL     OW13086   2.859   0.435   6.425
 2272SOL    HW113087   2.769   0.433   6.381
 2272SOL    HW213088   2.850   0.469   6.519
 2273SOL     OW13089   2.674   3.097   1.535
 2273SOL    HW113090   2.685   3.009   1.488
 2273SOL    HW213091   2.700   3.171   1.474
 2274SOL     OW13092   3.694   0.096   0.577
 2274SOL    HW113093   3.765   0.047   0.629
 2274SOL    HW213094   3.605   0.078   0.619
 2275SOL     OW13095   6.048   4.339   0.027
 2275SOL    HW113096   6.104   4.319   6.516
 2275SOL    HW213097   6.105   4.375   0.100
 2276SOL     OW13098   5.092   2.178   0.777
 2276SOL    HW113099   5.034   2.100   0.751
 2276SOL    HW213100   5.035   2.254   0.805
 2277SOL     OW13101   4.033   3.275   0.842
 2277SOL    HW113102   4.007   3.186   0.804
 2277SOL    HW213103   4.089   3.262   0.923
 2278SOL     OW13104   5.987   5.234   5.925
 2278SOL    HW113105   5.921   5.170   5.963
 2278SOL    HW213106   5.976   5.324   5.968
 2279SOL     OW13107   5.296   0.240   0.258
 2279SOL    HW113108   5.225   0.185   0.215
 2279SOL    HW213109   5.336   0.190   0.334
 2280SOL     OW13110   3.945   4.933   0.457
 2280SOL    HW113111   3.871   4.931   0.389
 2280SOL    HW213112   3.974   5.028   0.471
 2281SOL     OW13113   1.978   3.807   1.657
 2281SOL    HW113114   1.951   3.713   1.680
 2281SOL    HW213115   2.029   3.846   1.734
 2282SOL     OW13116   1.217   2.750   5.027
 2282SOL    HW113117   1.138   2.796   4.987
 2282SOL    HW213118   1.242   2.670   4.972
 2283SOL     OW13119   5.484   3.460   6.073
 2283SOL    HW113120   5.450   3.501   5.989
 2283SOL    HW213121   5.407   3.430   6.130
 2284SOL     OW13122   5.950   6.015   0.420
 2284SOL    HW113123   5.958   6.057   0.510
 2284SOL    HW213124   5.943   6.086   0.350
 2285SOL     OW13125   3.125   5.639   6.185
 2285SOL    HW113126   3.174   5.605   6.265
 2285SOL    HW213127   3.162   5.596   6.103
 2286SOL     OW13128   5.187   1.911   1.223
 2286SOL    HW113129   5.272   1.926   1.173
 2286SOL    HW213130   5.110   1.912   1.159
 2287SOL     OW13131   6.222   5.626   0.542
 2287SOL    HW113132   6.206   5.702   0.480
 2287SOL    HW213133   6.213   5.540   0.492
 2288SOL     OW13134   3.719   1.306   0.996
 2288SOL    HW113135   3.782   1.235   1.027
 2288SOL    HW213136   3.771   1.388   0.971
 2289SOL     OW13137   1.671   5.361   1.307
 2289SOL    HW113138   1.636   5.454   1.304
 2289SOL    HW213139   1.723   5.347   1.391
 2290SOL     OW13140   5.577   0.677   0.694
 2290SOL    HW113141   5.557   0.775   0.692
 2290SOL    HW213142   5.671   0.661   0.664
 2291SOL     OW13143   0.664   3.764   0.726
 2291SOL    HW113144   0.738   3.764   0.794
 2291SOL    HW213145   0.668   3.680   0.673
 2292SOL     OW13146   2.621   3.444   5.969
 2292SOL    HW113147   2.600   3.533   6.011
 2292SOL    HW213148   2.719   3.434   5.959
 2293SOL     OW13149   5.767   3.054   5.663
 2293SOL    HW113150   5.783   3.130   5.726
 2293SOL    HW213151   5.767   3.088   5.569
 2294SOL     OW13152   2.438   5.747   6.056
 2294SOL    HW113153   2.446   5.676   5.986
 2294SOL    HW213154   2.366   5.723   6.121
 2295SOL     OW13155   2.230   5.788   0.914
 2295SOL    HW113156   2.170   5.778   0.834
 2295SOL    HW213157   2.297   5.713   0.915
 2296SOL     OW13158   1.116   2.460   6.246
 2296SOL    HW113159   1.083   2.553   6.231
 2296SOL    HW213160   1.041   2.395   6.230
 2297SOL     OW13161   1.083   0.685   6.268
 2297SOL    HW113162   1.041   0.633   6.194
 2297SOL    HW213163   1.134   0.761   6.229
 2298SOL     OW13164   5.944   1.435   1.587
 2298SOL    HW113165   6.013   1.505   1.568
 2298SOL    HW213166   5.877   1.471   1.651
 2299SOL     OW13167   3.847   2.723   1.220
 2299SOL    HW113168   3.800   2.673   1.148
 2299SOL    HW213169   3.939   2.747   1.189
 2300SOL     OW13170   4.753   6.404   0.075
 2300SOL    HW113171   4.749   6.398   6.545
 2300SOL    HW213172   4.693   0.073   0.106
 2301SOL     OW13173   2.370   1.465   0.522
 2301SOL    HW113174   2.424   1.394   0.478
 2301SOL    HW213175   2.316   1.425   0.596
 2302SOL     OW13176   0.850   3.132   0.485
 2302SOL    HW113177   0.930   3.180   0.449
 2302SOL    HW213178   0.877   3.079   0.566
 2303SOL     OW13179   5.833   3.325   6.490
 2303SOL    HW113180   5.794   3.247   6.540
 2303SOL    HW213181   5.759   3.388   6.464
 2304SOL     OW13182   3.237   0.979   6.303
 2304SOL    HW113183   3.186   1.062   6.281
 2304SOL    HW213184   3.196   0.901   6.256
 2305SOL     OW13185   0.903   2.129   0.620
 2305SOL    HW113186   0.846   2.204   0.587
 2305SOL    HW213187   0.921   2.142   0.718
 2306SOL     OW13188   4.300   2.794   1.802
 2306SOL    HW113189   4.233   2.818   1.732
 2306SOL    HW213190   4.325   2.876   1.853
 2307SOL     OW13191   5.182   5.837   0.361
 2307SOL    HW113192   5.205   5.795   0.273
 2307SOL    HW213193   5.130   5.771   0.416
 2308SOL     OW13194   1.169   1.116   5.672
 2308SOL    HW113195   1.075   1.126   5.704
 2308SOL    HW213196   1.193   1.019   5.667
 2309SOL     OW13197   4.923   0.101   0.481
 2309SOL    HW113198   4.855   0.174   0.490
 2309SOL    HW213199   5.012   0.136   0.510
 2310SOL     OW13200   4.015   5.677   1.807
 2310SOL    HW113201   3.974   5.763   1.836
 2310SOL    HW213202   4.040   5.623   1.887
 2311SOL     OW13203   1.860   4.616   0.555
 2311SOL    HW113204   1.893   4.699   0.509
 2311SOL    HW213205   1.937   4.568   0.598
 2312SOL     OW13206   1.487   3.367   5.538
 2312SOL    HW113207   1.388   3.358   5.555
 2312SOL    HW213208   1.513   3.309   5.462
 2313SOL     OW13209   2.334   6.098   0.158
 2313SOL    HW113210   2.316   6.009   0.116
 2313SOL    HW213211   2.354   6.165   0.087
 2314SOL     OW13212   3.827   0.282   1.110
 2314SOL    HW113213   3.828   0.362   1.049
 2314SOL    HW213214   3.862   0.203   1.060
 2315SOL     OW13215   5.238   6.105   0.190
 2315SOL    HW113216   5.226   6.163   0.271
 2315SOL    HW213217   5.150   6.094   0.144
 2316SOL     OW13218   0.685   4.629   5.982
 2316SOL    HW113219   0.635   4.703   6.027
 2316SOL    HW213220   0.772   4.663   5.948
 2317SOL     OW13221   4.480   3.271   4.968
 2317SOL    HW113222   4.406   3.330   4.936
 2317SOL    HW213223   4.552   3.266   4.898
 2318SOL     OW13224   0.309   3.406   0.114
 2318SOL    HW113225   0.378   3.371   0.177
 2318SOL    HW213226   0.312   3.353   0.029
 2319SOL     OW13227   0.076   5.307   5.523
 2319SOL    HW113228   0.074   5.400   5.486
 2319SOL    HW213229   0.095   5.242   5.450
 2320SOL     OW13230   5.423   3.742   6.253
 2320SOL    HW113231   5.509   3.691   6.241
 2320SOL    HW213232   5.409   3.760   6.351
 2321SOL     OW13233   2.390   3.937   6.317
 2321SOL    HW113234   2.310   3.987   6.350
 2321SOL    HW213235   2.444   3.905   6.395
 2322SOL     OW13236   5.654   2.521   1.592
 2322SOL    HW113237   5.657   2.444   1.528
 2322SOL    HW213238   5.683   2.490   1.682
 2323SOL     OW13239   5.395   0.615   0.305
 2323SOL    HW113240   5.444   0.600   0.219
 2323SOL    HW213241   5.315   0.554   0.309
 2324SOL     OW13242   2.214   1.803   0.697
 2324SOL    HW113243   2.308   1.779   0.724
 2324SOL    HW213244   2.150   1.772   0.767
 2325SOL     OW13245   4.526   0.881   1.181
 2325SOL    HW113246   4.516   0.944   1.104
 2325SOL    HW213247   4.554   0.932   1.262
 2326SOL     OW13248   5.612   6.325   0.903
 2326SOL    HW113249   5.553   6.290   0.976
 2326SOL    HW213250   5.686   6.260   0.885
 2327SOL     OW13251   2.017   0.799   6.172
 2327SOL    HW113252   1.977   0.719   6.217
 2327SOL    HW213253   2.006   0.791   6.073
 2328SOL     OW13254   4.164   6.070   6.553
 2328SOL    HW113255   4.251   6.101   0.020
 2328SOL    HW213256   4.179   6.022   6.466
 2329SOL     OW13257   2.759   0.804   5.133
 2329SOL    HW113258   2.798   0.761   5.051
 2329SOL    HW213259   2.785   0.752   5.214
 2330SOL     OW13260   3.338   0.131   6.188
 2330SOL    HW113261   3.400   0.193   6.236
 2330SOL    HW213262   3.384   0.043   6.172
 2331SOL     OW13263   0.227   1.416   5.581
 2331SOL    HW113264   0.183   1.505   5.567
 2331SOL    HW213265   0.325   1.428   5.593
 2332SOL     OW13266   3.642   6.033   5.698
 2332SOL    HW113267   3.651   6.102   5.769
 2332SOL    HW213268   3.655   6.075   5.608
 2333SOL     OW13269   5.812   1.884   6.369
 2333SOL    HW113270   5.801   1.912   6.273
 2333SOL    HW213271   5.775   1.955   6.429
 2334SOL     OW13272   3.138   2.777   5.525
 2334SOL    HW113273   3.070   2.797   5.455
 2334SOL    HW213274   3.092   2.753   5.611
 2335SOL     OW13275   4.834   1.677   6.220
 2335SOL    HW113276   4.829   1.592   6.272
 2335SOL    HW213277   4.789   1.750   6.271
 2336SOL     OW13278   6.163   3.472   0.864
 2336SOL    HW113279   6.194   3.537   0.933
 2336SOL    HW213280   6.197   3.380   0.886
 2337SOL     OW13281   0.665   1.440   0.891
 2337SOL    HW113282   0.739   1.504   0.912
 2337SOL    HW213283   0.658   1.428   0.792
 2338SOL     OW13284   5.081   2.549   6.508
 2338SOL    HW113285   5.096   2.455   6.540
 2338SOL    HW213286   4.991   2.580   6.538
 2339SOL     OW13287   3.497   1.692   5.700
 2339SOL    HW113288   3.584   1.646   5.715
 2339SOL    HW213289   3.509   1.766   5.634
 2340SOL     OW13290   2.255   3.556   6.176
 2340SOL    HW113291   2.278   3.648   6.143
 2340SOL    HW213292   2.212   3.563   6.265
 2341SOL     OW13293   0.288   1.975   5.440
 2341SOL    HW113294   0.282   1.918   5.358
 2341SOL    HW213295   0.382   2.007   5.451
 2342SOL     OW13296   6.074   0.226   6.123
 2342SOL    HW113297   5.985   0.245   6.082
 2342SOL    HW213298   6.062   0.168   6.203
 2343SOL     OW13299   5.997   4.835   0.263
 2343SOL    HW113300   5.968   4.905   0.329
 2343SOL    HW213301   5.919   4.811   0.205
 2344SOL     OW13302   2.943   5.401   0.240
 2344SOL    HW113303   3.019   5.466   0.234
 2344SOL    HW213304   2.900   5.407   0.329
 2345SOL     OW13305   1.673   3.769   0.706
 2345SOL    HW113306   1.731   3.811   0.636
 2345SOL    HW213307   1.725   3.763   0.792
 2346SOL     OW13308   2.088   4.501   0.646
 2346SOL    HW113309   2.166   4.495   0.583
 2346SOL    HW213310   2.102   4.439   0.722
 2347SOL     OW13311   1.367   4.501   5.853
 2347SOL    HW113312   1.362   4.594   5.819
 2347SOL    HW213313   1.354   4.501   5.953
 2348SOL     OW13314   2.415   1.805   6.030
 2348SOL    HW113315   2.469   1.722   6.046
 2348SOL    HW213316   2.457   1.882   6.078
 2349SOL     OW13317   4.760   5.747   6.543
 2349SOL    HW113318   4.849   5.788   6.561
 2349SOL    HW213319   4.757   5.656   0.014
 2350SOL     OW13320   3.131   2.738   0.282
 2350SOL    HW113321   3.219   2.756   0.239
 2350SOL    HW213322   3.064   2.807   0.253
 2351SOL     OW13323   4.732   0.248   6.251
 2351SOL    HW113324   4.820   0.289   6.227
 2351SOL    HW213325   4.659   0.313   6.231
 2352SOL     OW13326   1.813   0.110   1.415
 2352SOL    HW113327   1.787   0.024   1.459
 2352SOL    HW213328   1.900   0.141   1.451
 2353SOL     OW13329   4.443   5.953   0.768
 2353SOL    HW113330   4.488   5.978   0.854
 2353SOL    HW213331   4.435   5.854   0.761
 2354SOL     OW13332   0.553   2.724   5.011
 2354SOL    HW113333   0.484   2.713   4.939
 2354SOL    HW213334   0.644   2.724   4.970
 2355SOL     OW13335   0.288   0.065   5.791
 2355SOL    HW113336   0.346   6.392   5.768
 2355SOL    HW213337   0.344   0.147   5.803
 2356SOL     OW13338   5.924   2.353   0.732
 2356SOL    HW113339   5.990   2.422   0.702
 2356SOL    HW213340   5.897   2.372   0.827
 2357SOL     OW13341   0.735   2.951   6.334
 2357SOL    HW113342   0.649   2.988   6.370
 2357SOL    HW213343   0.774   2.887   6.400
 2358SOL     OW13344   4.342   4.138   6.005
 2358SOL    HW113345   4.256   4.125   6.055
 2358SOL    HW213346   4.392   4.051   6.000
 2359SOL     OW13347   2.874   4.316   5.115
 2359SOL    HW113348   2.896   4.317   5.213
 2359SOL    HW213349   2.872   4.222   5.082
 2360SOL     OW13350   5.184   2.988   0.046
 2360SOL    HW113351   5.218   3.026   0.133
 2360SOL    HW213352   5.206   3.052   6.542
 2361SOL     OW13353   4.561   5.599   1.293
 2361SOL    HW113354   4.507   5.532   1.344
 2361SOL    HW213355   4.501   5.671   1.258
 2362SOL     OW13356   3.646   5.539   5.481
 2362SOL    HW113357   3.673   5.633   5.500
 2362SOL    HW213358   3.689   5.509   5.395
 2363SOL     OW13359   5.449   5.559   6.252
 2363SOL    HW113360   5.542   5.522   6.245
 2363SOL    HW213361   5.397   5.537   6.170
 2364SOL     OW13362   1.353   2.798   0.425
 2364SOL    HW113363   1.339   2.822   0.521
 2364SOL    HW213364   1.269   2.818   0.374
 2365SOL     OW13365   3.611   0.603   5.505
 2365SOL    HW113366   3.610   0.620   5.407
 2365SOL    HW213367   3.534   0.544   5.529
 2366SOL     OW13368   1.722   5.350   6.438
 2366SOL    HW113369   1.645   5.293   6.466
 2366SOL    HW213370   1.771   5.381   6.519
 2367SOL     OW13371   0.697   6.255   6.309
 2367SOL    HW113372   0.698   6.175   6.369
 2367SOL    HW213373   0.790   6.286   6.293
 2368SOL     OW13374   2.416   6.075   6.315
 2368SOL    HW113375   2.420   6.136   6.394
 2368SOL    HW213376   2.499   6.087   6.260
 2369SOL     OW13377   0.833   3.886   5.041
 2369SOL    HW113378   0.931   3.880   5.023
 2369SOL    HW213379   0.802   3.981   5.032
 2370SOL     OW13380   3.407   4.368   0.885
 2370SOL    HW113381   3.357   4.444   0.926
 2370SOL    HW213382   3.343   4.296   0.859
 2371SOL     OW13383   2.964   3.717   1.430
 2371SOL    HW113384   3.044   3.662   1.404
 2371SOL    HW213385   2.987   3.775   1.508
 2372SOL     OW13386   4.006   3.856   5.170
 2372SOL    HW113387   3.991   3.815   5.080
 2372SOL    HW213388   4.028   3.953   5.159
 2373SOL     OW13389   5.046   0.131   6.357
 2373SOL    HW113390   5.071   0.049   6.409
 2373SOL    HW213391   5.012   0.201   6.420
 2374SOL     OW13392   2.708   0.378   0.960
 2374SOL    HW113393   2.681   0.284   0.983
 2374SOL    HW213394   2.769   0.413   1.031
 2375SOL     OW13395   4.306   4.556   0.384
 2375SOL    HW113396   4.403   4.579   0.393
 2375SOL    HW213397   4.250   4.636   0.403
 2376SOL     OW13398   0.620   2.457   5.883
 2376SOL    HW113399   0.678   2.480   5.805
 2376SOL    HW213400   0.530   2.428   5.850
 2377SOL     OW13401   3.316   3.240   0.537
 2377SOL    HW113402   3.324   3.339   0.541
 2377SOL    HW213403   3.291   3.213   0.444
 2378SOL     OW13404   1.664   5.004   0.618
 2378SOL    HW113405   1.684   5.039   0.527
 2378SOL    HW213406   1.745   5.011   0.675
 2379SOL     OW13407   2.774   1.424   6.091
 2379SOL    HW113408   2.811   1.494   6.030
 2379SOL    HW213409   2.816   1.434   6.182
 2380SOL     OW13410   2.284   5.862   0.037
 2380SOL    HW113411   2.238   5.883   6.520
 2380SOL    HW213412   2.350   5.789   0.023
 2381SOL     OW13413   5.951   5.129   1.249
 2381SOL    HW113414   5.860   5.087   1.258
 2381SOL    HW213415   5.948   5.223   1.282
 2382SOL     OW13416   6.306   4.431   5.449
 2382SOL    HW113417   0.053   4.472   5.408
 2382SOL    HW213418   6.235   4.421   5.379
 2383SOL     OW13419   3.268   3.173   0.273
 2383SOL    HW113420   3.203   3.249   0.267
 2383SOL    HW213421   3.246   3.105   0.203
 2384SOL     OW13422   3.687   4.587   1.179
 2384SOL    HW113423   3.709   4.600   1.276
 2384SOL    HW213424   3.668   4.491   1.162
 2385SOL     OW13425   4.266   1.854   6.118
 2385SOL    HW113426   4.265   1.900   6.029
 2385SOL    HW213427   4.248   1.756   6.105
 2386SOL     OW13428   4.139   6.360   0.600
 2386SOL    HW113429   4.180   0.040   0.634
 2386SOL    HW213430   4.190   6.281   0.635
 2387SOL     OW13431   5.958   3.713   1.240
 2387SOL    HW113432   5.910   3.639   1.286
 2387SOL    HW213433   6.054   3.713   1.267
 2388SOL     OW13434   3.969   5.751   5.187
 2388SOL    HW113435   4.017   5.817   5.131
 2388SOL    HW213436   3.932   5.678   5.129
 2389SOL     OW13437   1.799   3.930   5.854
 2389SOL    HW113438   1.700   3.933   5.841
 2389SOL    HW213439   1.841   3.875   5.781
 2390SOL     OW13440   5.343   1.873   0.453
 2390SOL    HW113441   5.295   1.795   0.494
 2390SOL    HW213442   5.385   1.928   0.525
 2391SOL     OW13443   1.478   2.398   6.439
 2391SOL    HW113444   1.564   2.351   6.459
 2391SOL    HW213445   1.447   2.446   6.520
 2392SOL     OW13446   1.960   5.643   6.494
 2392SOL    HW113447   1.917   5.712   6.436
 2392SOL    HW213448   1.991   5.567   6.437
 2393SOL     OW13449   3.686   0.359   0.502
 2393SOL    HW113450   3.696   0.262   0.527
 2393SOL    HW213451   3.746   0.379   0.424
 2394SOL     OW13452   3.816   0.501   0.932
 2394SOL    HW113453   3.780   0.561   1.003
 2394SOL    HW213454   3.743   0.472   0.871
 2395SOL     OW13455   1.520   3.634   5.498
 2395SOL    HW113456   1.537   3.666   5.404
 2395SOL    HW213457   1.508   3.535   5.497
 2396SOL     OW13458   0.166   2.052   0.030
 2396SOL    HW113459   0.121   2.079   6.514
 2396SOL    HW213460   0.144   1.957   0.051
 2397SOL     OW13461   4.237   4.759   0.060
 2397SOL    HW113462   4.288   4.820   0.121
 2397SOL    HW213463   4.139   4.776   0.070
 2398SOL     OW13464   1.071   2.064   6.207
 2398SOL    HW113465   1.011   1.999   6.253
 2398SOL    HW213466   1.026   2.154   6.204
 2399SOL     OW13467   3.048   1.298   1.122
 2399SOL    HW113468   2.986   1.353   1.179
 2399SOL    HW213469   2.995   1.250   1.052
 2400SOL     OW13470   6.293   0.377   6.054
 2400SOL    HW113471   6.223   0.313   6.085
 2400SOL    HW213472   6.253   0.468   6.047
 2401SOL     OW13473   3.275   3.692   6.524
 2401SOL    HW113474   3.317   3.640   0.028
 2401SOL    HW213475   3.308   3.787   6.528
 2402SOL     OW13476   3.048   2.290   1.454
 2402SOL    HW113477   3.036   2.201   1.497
 2402SOL    HW213478   3.014   2.362   1.514
 2403SOL     OW13479   3.384   0.220   5.414
 2403SOL    HW113480   3.430   0.241   5.327
 2403SOL    HW213481   3.402   0.292   5.480
 2404SOL     OW13482   2.081   2.829   5.809
 2404SOL    HW113483   2.067   2.818   5.907
 2404SOL    HW213484   2.174   2.859   5.791
 2405SOL     OW13485   2.444   1.625   1.485
 2405SOL    HW113486   2.447   1.700   1.419
 2405SOL    HW213487   2.357   1.629   1.535
 2406SOL     OW13488   3.908   2.556   5.965
 2406SOL    HW113489   3.933   2.588   5.873
 2406SOL    HW213490   3.823   2.504   5.960
 2407SOL     OW13491   5.000   3.615   2.043
 2407SOL    HW113492   4.939   3.586   2.117
 2407SOL    HW213493   5.083   3.559   2.045
 2408SOL     OW13494   2.061   5.503   6.131
 2408SOL    HW113495   2.039   5.457   6.218
 2408SOL    HW213496   2.091   5.435   6.065
 2409SOL     OW13497   2.064   4.211   0.405
 2409SOL    HW113498   1.985   4.272   0.409
 2409SOL    HW213499   2.052   4.136   0.471
 2410SOL     OW13500   3.944   3.743   4.935
 2410SOL    HW113501   3.892   3.766   4.852
 2410SOL    HW213502   3.996   3.660   4.918
 2411SOL     OW13503   4.625   5.026   6.385
 2411SOL    HW113504   4.712   4.987   6.416
 2411SOL    HW213505   4.642   5.114   6.341
 2412SOL     OW13506   5.723   5.382   0.333
 2412SOL    HW113507   5.687   5.422   0.249
 2412SOL    HW213508   5.793   5.442   0.371
 2413SOL     OW13509   4.730   3.902   5.375
 2413SOL    HW113510   4.669   3.890   5.297
 2413SOL    HW213511   4.795   3.975   5.356
 2414SOL     OW13512   1.330   5.028   6.469
 2414SOL    HW113513   1.254   5.078   6.429
 2414SOL    HW213514   1.401   5.092   6.497
 2415SOL     OW13515   2.016   5.316   0.289
 2415SOL    HW113516   1.947   5.335   0.359
 2415SOL    HW213517   1.986   5.355   0.202
 2416SOL     OW13518   0.171   2.592   6.414
 2416SOL    HW113519   0.212   2.528   6.479
 2416SOL    HW213520   0.173   2.553   6.322
 2417SOL     OW13521   3.300   3.706   0.391
 2417SOL    HW113522   3.347   3.788   0.424
 2417SOL    HW213523   3.201   3.719   0.396
 2418SOL     OW13524   3.116   5.796   0.390
 2418SOL    HW113525   3.152   5.763   0.477
 2418SOL    HW213526   3.020   5.820   0.400
 2419SOL     OW13527   5.671   3.849   1.456
 2419SOL    HW113528   5.714   3.937   1.475
 2419SOL    HW213529   5.693   3.784   1.529
 2420SOL     OW13530   6.283   6.308   0.460
 2420SOL    HW113531   6.318   6.267   0.376
 2420SOL    HW213532   6.189   6.339   0.445
 2421SOL     OW13533   5.019   3.667   0.874
 2421SOL    HW113534   5.005   3.644   0.970
 2421SOL    HW213535   4.959   3.611   0.817
 2422SOL     OW13536   1.788   6.211   0.446
 2422SOL    HW113537   1.866   6.172   0.399
 2422SOL    HW213538   1.785   6.178   0.540
 2423SOL     OW13539   0.940   5.257   6.193
 2423SOL    HW113540   0.847   5.270   6.227
 2423SOL    HW213541   0.938   5.195   6.114
 2424SOL     OW13542   3.863   1.376   6.404
 2424SOL    HW113543   3.927   1.416   6.470
 2424SOL    HW213544   3.847   1.280   6.427
 2425SOL     OW13545   5.763   6.288   0.529
 2425SOL    HW113546   5.828   6.221   0.565
 2425SOL    HW213547   5.785   6.379   0.565
 2426SOL     OW13548   0.029   4.935   1.363
 2426SOL    HW113549   6.314   4.998   1.423
 2426SOL    HW213550   0.118   4.914   1.403
 2427SOL     OW13551   6.138   2.322   0.459
 2427SOL    HW113552   6.230   2.320   0.419
 2427SOL    HW213553   6.131   2.400   0.520
 2428SOL     OW13554   0.853   2.774   6.508
 2428SOL    HW113555   0.894   2.683   6.515
 2428SOL    HW213556   0.773   2.780   6.568
 2429SOL     OW13557   3.788   0.585   1.405
 2429SOL    HW113558   3.730   0.532   1.466
 2429SOL    HW213559   3.799   0.677   1.442
 2430SOL     OW13560   2.501   0.143   0.485
 2430SOL    HW113561   2.477   0.088   0.405
 2430SOL    HW213562   2.423   0.199   0.511
 2431SOL     OW13563   2.248   0.132   0.198
 2431SOL    HW113564   2.319   0.065   0.224
 2431SOL    HW213565   2.161   0.084   0.185
 2432SOL     OW13566   3.947   1.843   5.621
 2432SOL    HW113567   3.876   1.906   5.653
 2432SOL    HW213568   3.908   1.781   5.552
 2433SOL     OW13569   5.086   3.975   6.328
 2433SOL    HW113570   5.017   3.944   6.394
 2433SOL    HW213571   5.139   4.050   6.368
 2434SOL     OW13572   2.392   2.496   0.551
 2434SOL    HW113573   2.331   2.501   0.630
 2434SOL    HW213574   2.340   2.465   0.471
 2435SOL     OW13575   3.201   3.879   4.984
 2435SOL    HW113576   3.290   3.915   4.958
 2435SOL    HW213577   3.129   3.931   4.938
 2436SOL     OW13578   3.986   3.697   0.586
 2436SOL    HW113579   4.037   3.642   0.652
 2436SOL    HW213580   3.936   3.769   0.634
 2437SOL     OW13581   5.016   2.538   6.008
 2437SOL    HW113582   5.058   2.548   6.098
 2437SOL    HW213583   5.068   2.592   5.941
 2438SOL     OW13584   1.482   3.764   0.282
 2438SOL    HW113585   1.525   3.828   0.218
 2438SOL    HW213586   1.408   3.716   0.235
 2439SOL     OW13587   5.626   5.314   1.134
 2439SOL    HW113588   5.574   5.232   1.110
 2439SOL    HW213589   5.603   5.341   1.228
 2440SOL     OW13590   0.595   2.459   0.925
 2440SOL    HW113591   0.603   2.429   1.020
 2440SOL    HW213592   0.576   2.380   0.867
 2441SOL     OW13593   3.570   3.466   6.465
 2441SOL    HW113594   3.632   3.401   6.508
 2441SOL    HW213595   3.507   3.503   6.533
 2442SOL     OW13596   0.857   1.556   5.120
 2442SOL    HW113597   0.933   1.493   5.106
 2442SOL    HW213598   0.806   1.565   5.035
 2443SOL     OW13599   5.661   0.877   5.917
 2443SOL    HW113600   5.749   0.844   5.885
 2443SOL    HW213601   5.657   0.977   5.905
 2444SOL     OW13602   4.828   3.236   6.032
 2444SOL    HW113603   4.815   3.333   6.052
 2444SOL    HW213604   4.822   3.222   5.933
 2445SOL     OW13605   1.387   5.051   5.757
 2445SOL    HW113606   1.364   5.103   5.675
 2445SOL    HW213607   1.472   5.001   5.742
 2446SOL     OW13608   3.028   2.531   5.958
 2446SOL    HW113609   3.106   2.511   6.018
 2446SOL    HW213610   2.956   2.576   6.012
 2447SOL     OW13611   2.720   2.845   0.445
 2447SOL    HW113612   2.702   2.920   0.508
 2447SOL    HW213613   2.753   2.765   0.496
 2448SOL     OW13614   3.806   4.611   0.193
 2448SOL    HW113615   3.755   4.597   0.278
 2448SOL    HW213616   3.748   4.589   0.115
 2449SOL     OW13617   3.461   4.072   5.511
 2449SOL    HW113618   3.370   4.092   5.475
 2449SOL    HW213619   3.509   4.157   5.532
 2450SOL     OW13620   5.523   4.487   0.755
 2450SOL    HW113621   5.617   4.455   0.767
 2450SOL    HW213622   5.481   4.439   0.678
 2451SOL     OW13623   2.394   3.125   6.266
 2451SOL    HW113624   2.357   3.114   6.358
 2451SOL    HW213625   2.339   3.072   6.202
 2452SOL     OW13626   1.039   0.946   5.285
 2452SOL    HW113627   1.018   0.880   5.357
 2452SOL    HW213628   1.040   0.900   5.196
 2453SOL     OW13629   2.876   1.598   1.580
 2453SOL    HW113630   2.883   1.697   1.573
 2453SOL    HW213631   2.960   1.562   1.622
 2454SOL     OW13632   3.581   1.292   6.010
 2454SOL    HW113633   3.631   1.234   6.074
 2454SOL    HW213634   3.534   1.364   6.061
 2455SOL     OW13635   1.772   0.625   0.053
 2455SOL    HW113636   1.842   0.691   0.082
 2455SOL    HW213637   1.702   0.672   6.569
 2456SOL     OW13638   5.991   2.125   6.192
 2456SOL    HW113639   6.032   2.132   6.101
 2456SOL    HW213640   5.898   2.089   6.184
 2457SOL     OW13641   4.642   5.249   0.805
 2457SOL    HW113642   4.623   5.246   0.904
 2457SOL    HW213643   4.732   5.291   0.790
 2458SOL     OW13644   2.492   2.798   4.708
 2458SOL    HW113645   2.419   2.751   4.758
 2458SOL    HW213646   2.461   2.819   4.615
 2459SOL     OW13647   1.361   4.167   5.769
 2459SOL    HW113648   1.441   4.220   5.797
 2459SOL    HW213649   1.391   4.093   5.708
 2460SOL     OW13650   3.997   1.919   6.165
 2460SOL    HW113651   3.975   2.011   6.132
 2460SOL    HW213652   4.096   1.905   6.158
 2461SOL     OW13653   6.150   1.459   0.214
 2461SOL    HW113654   6.065   1.443   0.163
 2461SOL    HW213655   6.136   1.438   0.310
 2462SOL     OW13656   5.022   4.850   0.661
 2462SOL    HW113657   5.089   4.805   0.602
 2462SOL    HW213658   4.938   4.796   0.662
 2463SOL     OW13659   4.477   3.694   6.340
 2463SOL    HW113660   4.418   3.662   6.414
 2463SOL    HW213661   4.501   3.790   6.356
 2464SOL     OW13662   1.770   2.621   0.363
 2464SOL    HW113663   1.804   2.706   0.323
 2464SOL    HW213664   1.821   2.600   0.446
 2465SOL     OW13665   1.955   0.807   0.159
 2465SOL    HW113666   1.951   0.797   0.259
 2465SOL    HW213667   2.047   0.786   0.127
 2466SOL     OW13668   3.223   0.288   5.106
 2466SOL    HW113669   3.321   0.304   5.116
 2466SOL    HW213670   3.187   0.348   5.035
 2467SOL     OW13671   0.582   2.628   0.393
 2467SOL    HW113672   0.510   2.676   0.344
 2467SOL    HW213673   0.544   2.545   0.434
 2468SOL     OW13674   4.864   1.381   5.930
 2468SOL    HW113675   4.850   1.365   5.833
 2468SOL    HW213676   4.781   1.421   5.969
 2469SOL     OW13677   0.077   1.083   0.299
 2469SOL    HW113678   0.021   1.131   0.231
 2469SOL    HW213679   0.142   1.147   0.340
 2470SOL     OW13680   0.496   1.482   5.603
 2470SOL    HW113681   0.565   1.448   5.539
 2470SOL    HW213682   0.538   1.498   5.692
 2471SOL     OW13683   3.938   2.171   1.077
 2471SOL    HW113684   3.862   2.191   1.139
 2471SOL    HW213685   4.006   2.114   1.123
 2472SOL     OW13686   2.748   2.842   6.336
 2472SOL    HW113687   2.717   2.931   6.303
 2472SOL    HW213688   2.778   2.786   6.258
 2473SOL     OW13689   5.203   5.460   0.479
 2473SOL    HW113690   5.206   5.388   0.410
 2473SOL    HW213691   5.290   5.508   0.481
 2474SOL     OW13692   4.616   2.493   1.619
 2474SOL    HW113693   4.566   2.534   1.695
 2474SOL    HW213694   4.709   2.470   1.648
 2475SOL     OW13695   2.112   1.767   0.430
 2475SOL    HW113696   2.156   1.784   0.518
 2475SOL    HW213697   2.134   1.674   0.399
 2476SOL     OW13698   5.810   5.128   0.296
 2476SOL    HW113699   5.870   5.095   0.369
 2476SOL    HW213700   5.771   5.216   0.322
 2477SOL     OW13701   3.656   0.392   1.552
 2477SOL    HW113702   3.567   0.374   1.595
 2477SOL    HW213703   3.729   0.370   1.616
 2478SOL     OW13704   4.890   0.896   6.294
 2478SOL    HW113705   4.905   0.800   6.315
 2478SOL    HW213706   4.938   0.953   6.361
 2479SOL     OW13707   3.864   1.654   0.494
 2479SOL    HW113708   3.932   1.727   0.503
 2479SOL    HW213709   3.910   1.568   0.474
 2480SOL     OW13710   2.053   1.427   1.257
 2480SOL    HW113711   1.974   1.441   1.317
 2480SOL    HW213712   2.090   1.335   1.272
 2481SOL     OW13713   3.962   2.491   0.089
 2481SOL    HW113714   3.975   2.426   0.164
 2481SOL    HW213715   4.025   2.469   0.014
 2482SOL     OW13716   5.768   3.170   0.948
 2482SOL    HW113717   5.704   3.241   0.979
 2482SOL    HW213718   5.860   3.192   0.982
 2483SOL     OW13719   3.247   6.204   1.449
 2483SOL    HW113720   3.207   6.114   1.465
 2483SOL    HW213721   3.242   6.226   1.352
 2484SOL     OW13722   1.817   4.762   6.282
 2484SOL    HW113723   1.742   4.726   6.339
 2484SOL    HW213724   1.811   4.722   6.191
 2485SOL     OW13725   2.788   0.054   5.695
 2485SOL    HW113726   2.840   0.129   5.653
 2485SOL    HW213727   2.700   0.089   5.728
 2486SOL     OW13728   1.802   6.113   5.275
 2486SOL    HW113729   1.804   6.195   5.218
 2486SOL    HW213730   1.788   6.032   5.218
 2487SOL     OW13731   1.013   5.116   0.374
 2487SOL    HW113732   1.087   5.079   0.429
 2487SOL    HW213733   0.952   5.171   0.432
 2488SOL     OW13734   2.715   0.605   1.639
 2488SOL    HW113735   2.813   0.595   1.624
 2488SOL    HW213736   2.694   0.699   1.664
 2489SOL     OW13737   0.965   3.543   1.486
 2489SOL    HW113738   0.881   3.558   1.434
 2489SOL    HW213739   1.004   3.631   1.512
 2490SOL     OW13740   2.522   0.665   6.090
 2490SOL    HW113741   2.518   0.641   5.993
 2490SOL    HW213742   2.438   0.712   6.117
 2491SOL     OW13743   3.972   1.257   0.688
 2491SOL    HW113744   4.002   1.297   0.775
 2491SOL    HW213745   3.875   1.235   0.693
 2492SOL     OW13746   0.483   2.081   5.784
 2492SOL    HW113747   0.489   1.992   5.741
 2492SOL    HW213748   0.547   2.144   5.740
 2493SOL     OW13749   3.043   0.415   0.279
 2493SOL    HW113750   3.089   0.414   0.368
 2493SOL    HW213751   3.078   0.340   0.223
 2494SOL     OW13752   1.105   5.286   0.667
 2494SOL    HW113753   1.133   5.366   0.721
 2494SOL    HW213754   1.185   5.246   0.623
 2495SOL     OW13755   3.669   2.433   5.880
 2495SOL    HW113756   3.581   2.408   5.920
 2495SOL    HW213757   3.687   2.377   5.800
 2496SOL     OW13758   1.942   6.244   0.893
 2496SOL    HW113759   1.862   6.271   0.947
 2496SOL    HW213760   1.985   6.164   0.935
 2497SOL     OW13761   2.658   0.516   0.453
 2497SOL    HW113762   2.713   0.437   0.480
 2497SOL    HW213763   2.718   0.587   0.417
 2498SOL     OW13764   3.414   4.809   4.891
 2498SOL    HW113765   3.468   4.750   4.831
 2498SOL    HW213766   3.416   4.903   4.856
 2499SOL     OW13767   1.597   3.945   0.108
 2499SOL    HW113768   1.690   3.970   0.082
 2499SOL    HW213769   1.535   3.964   0.032
 2500SOL     OW13770   1.047   3.900   5.997
 2500SOL    HW113771   0.950   3.879   5.987
 2500SOL    HW213772   1.069   3.983   5.946
 2501SOL     OW13773   2.565   3.305   0.727
 2501SOL    HW113774   2.477   3.316   0.773
 2501SOL    HW213775   2.629   3.375   0.760
 2502SOL     OW13776   0.592   5.093   6.076
 2502SOL    HW113777   0.632   5.051   5.994
 2502SOL    HW213778   0.513   5.040   6.106
 2503SOL     OW13779   1.733   2.789   0.035
 2503SOL    HW113780   1.792   2.819   0.110
 2503SOL    HW213781   1.685   2.867   6.566
 2504SOL     OW13782   1.725   2.634   5.568
 2504SOL    HW113783   1.656   2.693   5.608
 2504SOL    HW213784   1.688   2.541   5.557
 2505SOL     OW13785   5.875   2.581   6.004
 2505SOL    HW113786   5.973   2.596   6.015
 2505SOL    HW213787   5.824   2.646   6.060
 2506SOL     OW13788   4.322   3.146   6.342
 2506SOL    HW113789   4.226   3.129   6.365
 2506SOL    HW213790   4.343   3.106   6.253
 2507SOL     OW13791   3.650   5.097   4.927
 2507SOL    HW113792   3.557   5.084   4.895
 2507SOL    HW213793   3.715   5.081   4.852
 2508SOL     OW13794   4.252   5.502   0.317
 2508SOL    HW113795   4.299   5.579   0.275
 2508SOL    HW213796   4.154   5.523   0.326
 2509SOL     OW13797   3.680   5.151   6.528
 2509SOL    HW113798   3.664   5.249   6.537
 2509SOL    HW213799   3.637   5.102   0.034
 2510SOL     OW13800   1.906   0.556   6.250
 2510SOL    HW113801   1.989   0.502   6.261
 2510SOL    HW213802   1.834   0.519   6.309
 2511SOL     OW13803   1.137   0.380   1.365
 2511SOL    HW113804   1.175   0.467   1.396
 2511SOL    HW213805   1.062   0.352   1.425
 2512SOL     OW13806   2.392   0.117   6.255
 2512SOL    HW113807   2.455   0.105   6.332
 2512SOL    HW213808   2.378   0.215   6.237
 2513SOL     OW13809   2.241   2.377   0.347
 2513SOL    HW113810   2.242   2.444   0.273
 2513SOL    HW213811   2.158   2.321   0.339
 2514SOL     OW13812   2.419   3.339   5.252
 2514SOL    HW113813   2.402   3.394   5.170
 2514SOL    HW213814   2.346   3.357   5.319
 2515SOL     OW13815   2.386   3.539   0.159
 2515SOL    HW113816   2.382   3.557   0.257
 2515SOL    HW213817   2.337   3.612   0.110
 2516SOL     OW13818   5.776   2.909   1.024
 2516SOL    HW113819   5.870   2.875   1.026
 2516SOL    HW213820   5.776   3.004   0.993
 2517SOL     OW13821   5.849   2.991   6.334
 2517SOL    HW113822   5.791   3.067   6.305
 2517SOL    HW213823   5.943   3.008   6.304
 2518SOL     OW13824   1.156   5.193   5.832
 2518SOL    HW113825   1.243   5.148   5.814
 2518SOL    HW213826   1.172   5.291   5.845
 2519SOL     OW13827   4.178   3.052   5.702
 2519SOL    HW113828   4.189   3.077   5.606
 2519SOL    HW213829   4.199   3.131   5.760
 2520SOL     OW13830   2.186   3.994   5.941
 2520SOL    HW113831   2.092   4.021   5.961
 2520SOL    HW213832   2.248   4.065   5.972
 2521SOL     OW13833   3.208   5.904   6.192
 2521SOL    HW113834   3.301   5.902   6.156
 2521SOL    HW213835   3.171   5.811   6.193
 2522SOL     OW13836   3.007   2.717   5.758
 2522SOL    HW113837   3.026   2.647   5.826
 2522SOL    HW213838   2.915   2.705   5.722
 2523SOL     OW13839   4.876   2.402   0.185
 2523SOL    HW113840   4.952   2.351   0.145
 2523SOL    HW213841   4.862   2.487   0.134
 2524SOL     OW13842   3.906   1.464   6.149
 2524SOL    HW113843   3.886   1.431   6.242
 2524SOL    HW213844   3.938   1.388   6.093
 2525SOL     OW13845   0.283   2.838   6.392
 2525SOL    HW113846   0.243   2.889   6.316
 2525SOL    HW213847   0.233   2.752   6.404
 2526SOL     OW13848   5.243   5.022   1.208
 2526SOL    HW113849   5.157   4.971   1.202
 2526SOL    HW213850   5.292   4.995   1.291
 2527SOL     OW13851   4.813   6.244   5.980
 2527SOL    HW113852   4.776   6.337   5.969
 2527SOL    HW213853   4.840   6.230   6.075
 2528SOL     OW13854   3.291   5.579   6.418
 2528SOL    HW113855   3.346   5.570   6.501
 2528SOL    HW213856   3.316   5.507   6.353
 2529SOL     OW13857   2.323   4.705   6.383
 2529SOL    HW113858   2.353   4.799   6.400
 2529SOL    HW213859   2.400   4.643   6.396
 2530SOL     OW13860   4.382   5.565   6.522
 2530SOL    HW113861   4.364   5.616   0.036
 2530SOL    HW213862   4.298   5.520   6.491
 2531SOL     OW13863   0.448   4.306   1.475
 2531SOL    HW113864   0.463   4.229   1.537
 2531SOL    HW213865   0.470   4.392   1.521
 2532SOL     OW13866   1.854   5.451   0.091
 2532SOL    HW113867   1.792   5.487   0.160
 2532SOL    HW213868   1.897   5.526   0.042
 2533SOL     OW13869   6.084   3.999   0.546
 2533SOL    HW113870   6.154   4.016   0.615
 2533SOL    HW213871   6.052   4.086   0.509
 2534SOL     OW13872   0.226   0.682   5.980
 2534SOL    HW113873   0.184   0.763   6.021
 2534SOL    HW213874   0.218   0.605   6.043
 2535SOL     OW13875   0.096   0.881   6.112
 2535SOL    HW113876   0.023   0.846   6.170
 2535SOL    HW213877   0.134   0.964   6.152
 2536SOL     OW13878   1.740   0.843   5.017
 2536SOL    HW113879   1.729   0.928   4.965
 2536SOL    HW213880   1.712   0.765   4.960
 2537SOL     OW13881   4.517   5.364   5.555
 2537SOL    HW113882   4.497   5.438   5.491
 2537SOL    HW213883   4.614   5.341   5.551
 2538SOL     OW13884   3.580   4.645   4.740
 2538SOL    HW113885   3.594   4.554   4.701
 2538SOL    HW213886   3.663   4.699   4.728
 2539SOL     OW13887   0.471   1.584   1.015
 2539SOL    HW113888   0.436   1.534   1.094
 2539SOL    HW213889   0.541   1.529   0.969
 2540SOL     OW13890   0.391   1.680   5.450
 2540SOL    HW113891   0.433   1.607   5.504
 2540SOL    HW213892   0.382   1.650   5.355
 2541SOL     OW13893   0.220   5.670   6.075
 2541SOL    HW113894   0.282   5.742   6.044
 2541SOL    HW213895   0.252   5.634   6.163
 2542SOL     OW13896   2.856   3.293   4.463
 2542SOL    HW113897   2.955   3.290   4.473
 2542SOL    HW213898   2.820   3.374   4.509
 2543SOL     OW13899   3.259   5.680   0.596
 2543SOL    HW113900   3.325   5.721   0.660
 2543SOL    HW213901   3.304   5.607   0.545
 2544SOL     OW13902   5.460   0.287   1.088
 2544SOL    HW113903   5.441   0.356   1.158
 2544SOL    HW213904   5.428   0.197   1.119
 2545SOL     OW13905   4.869   1.340   0.845
 2545SOL    HW113906   4.856   1.430   0.887
 2545SOL    HW213907   4.846   1.269   0.911
 2546SOL     OW13908   5.840   2.473   5.752
 2546SOL    HW113909   5.840   2.516   5.842
 2546SOL    HW213910   5.920   2.413   5.744
 2547SOL     OW13911   5.120   3.749   1.242
 2547SOL    HW113912   5.122   3.808   1.322
 2547SOL    HW213913   5.028   3.709   1.233
 2548SOL     OW13914   4.950   5.854   5.949
 2548SOL    HW113915   4.869   5.798   5.969
 2548SOL    HW213916   4.928   5.919   5.877
 2549SOL     OW13917   5.895   3.466   0.821
 2549SOL    HW113918   5.992   3.477   0.844
 2549SOL    HW213919   5.845   3.438   0.902
 2550SOL     OW13920   5.541   5.397   1.403
 2550SOL    HW113921   5.511   5.387   1.498
 2550SOL    HW213922   5.614   5.465   1.398
 2551SOL     OW13923   6.247   1.769   0.721
 2551SOL    HW113924   6.232   1.671   0.733
 2551SOL    HW213925   6.305   1.784   0.641
 2552SOL     OW13926   1.549   3.216   5.321
 2552SOL    HW113927   1.633   3.163   5.307
 2552SOL    HW213928   1.549   3.294   5.257
 2553SOL     OW13929   3.944   2.921   5.710
 2553SOL    HW113930   4.036   2.959   5.716
 2553SOL    HW213931   3.913   2.921   5.615
 2554SOL     OW13932   6.104   3.028   6.221
 2554SOL    HW113933   6.156   3.110   6.196
 2554SOL    HW213934   6.161   2.947   6.207
 2555SOL     OW13935   0.701   0.308   6.374
 2555SOL    HW113936   0.689   0.382   6.308
 2555SOL    HW213937   0.786   0.259   6.353
 2556SOL     OW13938   1.899   2.572   6.014
 2556SOL    HW113939   1.909   2.540   5.920
 2556SOL    HW213940   1.952   2.656   6.026
 2557SOL     OW13941   3.603   3.236   5.854
 2557SOL    HW113942   3.562   3.210   5.941
 2557SOL    HW213943   3.630   3.153   5.804
 2558SOL     OW13944   4.745   5.893   0.341
 2558SOL    HW113945   4.678   5.916   0.411
 2558SOL    HW213946   4.829   5.945   0.358
 2559SOL     OW13947   1.772   3.155   1.170
 2559SOL    HW113948   1.768   3.244   1.216
 2559SOL    HW213949   1.679   3.119   1.159
 2560SOL     OW13950   0.856   1.614   0.995
 2560SOL    HW113951   0.936   1.635   0.938
 2560SOL    HW213952   0.887   1.575   1.082
 2561SOL     OW13953   2.619   5.496   0.257
 2561SOL    HW113954   2.522   5.478   0.243
 2561SOL    HW213955   2.662   5.519   0.169
 2562SOL     OW13956   2.602   0.390   0.207
 2562SOL    HW113957   2.595   0.435   0.296
 2562SOL    HW213958   2.678   0.431   0.156
 2563SOL     OW13959   2.896   1.293   5.856
 2563SOL    HW113960   2.859   1.328   5.942
 2563SOL    HW213961   2.992   1.319   5.847
 2564SOL     OW13962   2.624   3.152   5.346
 2564SOL    HW113963   2.633   3.055   5.323
 2564SOL    HW213964   2.535   3.185   5.317
 2565SOL     OW13965   3.900   4.863   0.718
 2565SOL    HW113966   3.930   4.896   0.629
 2565SOL    HW213967   3.811   4.818   0.709
 2566SOL     OW13968   5.844   0.694   0.332
 2566SOL    HW113969   5.927   0.672   0.281
 2566SOL    HW213970   5.808   0.782   0.300
 2567SOL     OW13971   2.822   5.954   5.156
 2567SOL    HW113972   2.901   5.892   5.150
 2567SOL    HW213973   2.827   6.021   5.082
 2568SOL     OW13974   3.204   3.424   0.813
 2568SOL    HW113975   3.268   3.447   0.739
 2568SOL    HW213976   3.230   3.336   0.853
 2569SOL     OW13977   1.488   0.457   0.232
 2569SOL    HW113978   1.586   0.457   0.252
 2569SOL    HW213979   1.474   0.472   0.134
 2570SOL     OW13980   4.087   6.062   0.888
 2570SOL    HW113981   4.002   6.084   0.842
 2570SOL    HW213982   4.162   6.113   0.846
 2571SOL     OW13983   5.712   4.983   1.262
 2571SOL    HW113984   5.746   4.896   1.298
 2571SOL    HW213985   5.668   5.034   1.336
 2572SOL     OW13986   1.567   3.702   5.218
 2572SOL    HW113987   1.650   3.722   5.165
 2572SOL    HW213988   1.493   3.763   5.191
 2573SOL     OW13989   3.407   4.615   0.027
 2573SOL    HW113990   3.503   4.594   0.013
 2573SOL    HW213991   3.398   4.699   0.081
 2574SOL     OW13992   4.175   1.460   0.256
 2574SOL    HW113993   4.226   1.378   0.280
 2574SOL    HW213994   4.104   1.477   0.325
 2575SOL     OW13995   5.699   6.083   0.108
 2575SOL    HW113996   5.666   6.130   0.025
 2575SOL    HW213997   5.621   6.049   0.160
 2576SOL     OW13998   0.380   4.500   5.493
 2576SOL    HW113999   0.461   4.471   5.442
 2576SOL    HW214000   0.308   4.529   5.430
 2577SOL     OW14001   4.112   3.552   0.793
 2577SOL    HW114002   4.099   3.454   0.804
 2577SOL    HW214003   4.176   3.586   0.863
 2578SOL     OW14004   1.784   0.054   6.333
 2578SOL    HW114005   1.719   0.117   6.376
 2578SOL    HW214006   1.853   0.106   6.283
 2579SOL     OW14007   5.236   1.536   0.902
 2579SOL    HW114008   5.155   1.577   0.860
 2579SOL    HW214009   5.318   1.579   0.865
 2580SOL     OW14010   4.231   5.433   1.825
 2580SOL    HW114011   4.185   5.476   1.903
 2580SOL    HW214012   4.290   5.500   1.780
 2581SOL     OW14013   4.947   1.993   5.108
 2581SOL    HW114014   4.964   2.086   5.077
 2581SOL    HW214015   5.014   1.931   5.066
 2582SOL     OW14016   2.768   6.072   0.806
 2582SOL    HW114017   2.693   6.007   0.793
 2582SOL    HW214018   2.830   6.067   0.729
 2583SOL     OW14019   1.441   0.512   6.536
 2583SOL    HW114020   1.492   0.594   6.512
 2583SOL    HW214021   1.343   0.530   6.525
 2584SOL     OW14022   5.968   6.150   0.660
 2584SOL    HW114023   6.059   6.180   0.689
 2584SOL    HW214024   5.909   6.142   0.740
 2585SOL     OW14025   1.919   0.258   5.928
 2585SOL    HW114026   1.835   0.305   5.899
 2585SOL    HW214027   1.934   0.179   5.869
 2586SOL     OW14028   1.499   5.230   6.554
 2586SOL    HW114029   1.453   5.318   6.541
 2586SOL    HW214030   1.501   5.208   0.081
 2587SOL     OW14031   3.890   5.436   1.021
 2587SOL    HW114032   3.924   5.344   1.039
 2587SOL    HW214033   3.790   5.434   1.011
 2588SOL     OW14034   5.273   2.533   1.518
 2588SOL    HW114035   5.342   2.600   1.543
 2588SOL    HW214036   5.252   2.476   1.597
 2589SOL     OW14037   3.957   2.690   1.733
 2589SOL    HW114038   3.946   2.763   1.802
 2589SOL    HW214039   3.909   2.608   1.764
 2590SOL     OW14040   4.165   0.890   0.067
 2590SOL    HW114041   4.134   0.976   0.107
 2590SOL    HW214042   4.237   0.909   6.569
 2591SOL     OW14043   0.474   4.027   0.280
 2591SOL    HW114044   0.524   3.987   0.356
 2591SOL    HW214045   0.529   4.019   0.197
 2592SOL     OW14046   1.584   6.151   5.800
 2592SOL    HW114047   1.579   6.053   5.785
 2592SOL    HW214048   1.662   6.171   5.860
 2593SOL     OW14049   3.206   2.250   5.667
 2593SOL    HW114050   3.242   2.210   5.752
 2593SOL    HW214051   3.210   2.181   5.594
 2594SOL     OW14052   5.464   1.717   1.220
 2594SOL    HW114053   5.451   1.805   1.174
 2594SOL    HW214054   5.413   1.716   1.306
 2595SOL     OW14055   5.545   0.414   5.379
 2595SOL    HW114056   5.614   0.415   5.307
 2595SOL    HW214057   5.457   0.445   5.342
 2596SOL     OW14058   5.201   5.253   0.302
 2596SOL    HW114059   5.130   5.232   0.234
 2596SOL    HW214060   5.227   5.169   0.350
 2597SOL     OW14061   1.273   1.728   0.653
 2597SOL    HW114062   1.209   1.803   0.639
 2597SOL    HW214063   1.339   1.753   0.723
 2598SOL     OW14064   5.157   4.373   5.889
 2598SOL    HW114065   5.114   4.392   5.801
 2598SOL    HW214066   5.189   4.458   5.930
 2599SOL     OW14067   3.216   4.186   0.826
 2599SOL    HW114068   3.133   4.212   0.777
 2599SOL    HW214069   3.198   4.104   0.881
 2600SOL     OW14070   2.825   4.782   0.634
 2600SOL    HW114071   2.792   4.745   0.721
 2600SOL    HW214072   2.767   4.748   0.560
 2601SOL     OW14073   0.290   0.432   0.431
 2601SOL    HW114074   0.360   0.398   0.368
 2601SOL    HW214075   0.270   0.528   0.410
 2602SOL     OW14076   1.380   2.182   0.140
 2602SOL    HW114077   1.375   2.149   0.046
 2602SOL    HW214078   1.302   2.241   0.159
 2603SOL     OW14079   4.458   4.905   6.026
 2603SOL    HW114080   4.466   4.866   6.118
 2603SOL    HW214081   4.416   4.839   5.965
 2604SOL     OW14082   4.857   3.331   0.018
 2604SOL    HW114083   4.772   3.379   6.565
 2604SOL    HW214084   4.836   3.237   0.045
 2605SOL     OW14085   3.505   2.920   5.889
 2605SOL    HW114086   3.414   2.898   5.855
 2605SOL    HW214087   3.560   2.959   5.815
 2606SOL     OW14088   2.918   1.586   5.670
 2606SOL    HW114089   2.889   1.531   5.592
 2606SOL    HW214090   2.934   1.680   5.641
 2607SOL     OW14091   3.081   3.807   5.467
 2607SOL    HW114092   3.151   3.791   5.536
 2607SOL    HW214093   3.113   3.771   5.379
 2608SOL     OW14094   0.160   5.387   0.943
 2608SOL    HW114095   0.095   5.382   0.867
 2608SOL    HW214096   0.219   5.467   0.931
 2609SOL     OW14097   4.680   1.205   1.250
 2609SOL    HW114098   4.663   1.125   1.308
 2609SOL    HW214099   4.680   1.288   1.307
 2610SOL     OW14100   4.852   3.741   1.498
 2610SOL    HW114101   4.820   3.664   1.443
 2610SOL    HW214102   4.798   3.823   1.476
 2611SOL     OW14103   0.098   5.282   0.506
 2611SOL    HW114104   0.012   5.309   0.463
 2611SOL    HW214105   0.175   5.324   0.457
 2612SOL     OW14106   1.411   5.854   6.345
 2612SOL    HW114107   1.482   5.923   6.336
 2612SOL    HW214108   1.427   5.781   6.279
 2613SOL     OW14109   5.292   4.541   6.411
 2613SOL    HW114110   5.313   4.478   6.486
 2613SOL    HW214111   5.219   4.503   6.354
 2614SOL     OW14112   5.496   3.251   0.159
 2614SOL    HW114113   5.513   3.334   0.212
 2614SOL    HW214114   5.420   3.201   0.199
 2615SOL     OW14115   3.975   1.409   0.450
 2615SOL    HW114116   3.939   1.346   0.382
 2615SOL    HW214117   3.989   1.361   0.537
 2616SOL     OW14118   3.185   2.471   4.734
 2616SOL    HW114119   3.117   2.398   4.732
 2616SOL    HW214120   3.275   2.433   4.716
 2617SOL     OW14121   3.842   4.935   6.453
 2617SOL    HW114122   3.787   5.014   6.481
 2617SOL    HW214123   3.884   4.893   6.533
 2618SOL     OW14124   3.438   1.897   5.880
 2618SOL    HW114125   3.442   1.827   5.809
 2618SOL    HW214126   3.499   1.872   5.956
 2619SOL     OW14127   0.857   3.791   0.917
 2619SOL    HW114128   0.846   3.809   1.015
 2619SOL    HW214129   0.930   3.848   0.880
 2620SOL     OW14130   0.789   3.141   5.493
 2620SOL    HW114131   0.819   3.130   5.588
 2620SOL    HW214132   0.867   3.131   5.432
 2621SOL     OW14133   5.629   0.480   6.378
 2621SOL    HW114134   5.686   0.402   6.351
 2621SOL    HW214135   5.537   0.469   6.341
 2622SOL     OW14136   5.223   3.219   5.988
 2622SOL    HW114137   5.228   3.288   6.061
 2622SOL    HW214138   5.153   3.152   6.011
 2623SOL     OW14139   0.340   6.150   0.775
 2623SOL    HW114140   0.264   6.161   0.711
 2623SOL    HW214141   0.312   6.182   0.866
 2624SOL     OW14142   2.336   1.245   6.485
 2624SOL    HW114143   2.266   1.177   6.507
 2624SOL    HW214144   2.314   1.290   6.399
 2625SOL     OW14145   0.616   2.815   0.591
 2625SOL    HW114146   0.613   2.747   0.518
 2625SOL    HW214147   0.608   2.769   0.679
 2626SOL     OW14148   4.503   0.498   5.478
 2626SOL    HW114149   4.584   0.444   5.502
 2626SOL    HW214150   4.470   0.470   5.388
 2627SOL     OW14151   3.868   5.741   6.200
 2627SOL    HW114152   3.794   5.687   6.239
 2627SOL    HW214153   3.955   5.710   6.238
 2628SOL     OW14154   3.075   3.641   0.922
 2628SOL    HW114155   3.023   3.604   1.000
 2628SOL    HW214156   3.129   3.569   0.880
 2629SOL     OW14157   3.766   3.031   6.198
 2629SOL    HW114158   3.808   3.037   6.107
 2629SOL    HW214159   3.744   2.935   6.217
 2630SOL     OW14160   6.311   5.775   6.033
 2630SOL    HW114161   6.314   5.810   5.939
 2630SOL    HW214162   0.064   5.735   6.057
 2631SOL     OW14163   2.213   6.321   6.289
 2631SOL    HW114164   2.240   6.257   6.217
 2631SOL    HW214165   2.266   0.000   6.280
 2632SOL     OW14166   3.420   3.589   0.169
 2632SOL    HW114167   3.363   3.623   0.243
 2632SOL    HW214168   3.494   3.533   0.207
 2633SOL     OW14169   0.452   4.010   6.254
 2633SOL    HW114170   0.452   4.109   6.271
 2633SOL    HW214171   0.410   3.992   6.165
 2634SOL     OW14172   2.522   2.872   0.254
 2634SOL    HW114173   2.510   2.787   0.203
 2634SOL    HW214174   2.593   2.860   0.323
 2635SOL     OW14175   5.972   3.598   1.807
 2635SOL    HW114176   5.939   3.608   1.901
 2635SOL    HW214177   6.007   3.505   1.795
 2636SOL     OW14178   0.664   1.356   0.092
 2636SOL    HW114179   0.577   1.395   0.060
 2636SOL    HW214180   0.716   1.321   0.014
 2637SOL     OW14181   6.037   1.600   5.536
 2637SOL    HW114182   5.982   1.518   5.553
 2637SOL    HW214183   6.126   1.573   5.501
 2638SOL     OW14184   0.955   5.093   0.789
 2638SOL    HW114185   0.924   5.130   0.877
 2638SOL    HW214186   1.011   5.161   0.742
 2639SOL     OW14187   1.872   1.736   5.187
 2639SOL    HW114188   1.951   1.758   5.129
 2639SOL    HW214189   1.879   1.642   5.219
 2640SOL     OW14190   5.680   1.799   5.400
 2640SOL    HW114191   5.611   1.871   5.393
 2640SOL    HW214192   5.725   1.787   5.312
 2641SOL     OW14193   3.759   2.617   0.973
 2641SOL    HW114194   3.808   2.700   0.947
 2641SOL    HW214195   3.671   2.614   0.925
 2642SOL     OW14196   0.164   4.016   0.588
 2642SOL    HW114197   0.072   4.044   0.616
 2642SOL    HW214198   0.185   3.926   0.627
 2643SOL     OW14199   5.600   4.158   0.805
 2643SOL    HW114200   5.666   4.233   0.792
 2643SOL    HW214201   5.556   4.168   0.894
 2644SOL     OW14202   1.173   1.393   1.186
 2644SOL    HW114203   1.087   1.439   1.205
 2644SOL    HW214204   1.188   1.321   1.254
 2645SOL     OW14205   1.355   3.064   0.740
 2645SOL    HW114206   1.442   3.044   0.785
 2645SOL    HW214207   1.307   2.978   0.721
 2646SOL     OW14208   4.456   3.228   0.612
 2646SOL    HW114209   4.488   3.142   0.652
 2646SOL    HW214210   4.500   3.305   0.659
 2647SOL     OW14211   5.396   1.708   6.335
 2647SOL    HW114212   5.405   1.610   6.320
 2647SOL    HW214213   5.318   1.726   6.395
 2648SOL     OW14214   2.520   5.064   0.311
 2648SOL    HW114215   2.604   5.113   0.288
 2648SOL    HW214216   2.513   5.054   0.410
 2649SOL     OW14217   1.275   6.008   0.767
 2649SOL    HW114218   1.329   6.045   0.843
 2649SOL    HW214219   1.291   6.063   0.685
 2650SOL     OW14220   0.643   1.515   5.831
 2650SOL    HW114221   0.678   1.425   5.857
 2650SOL    HW214222   0.584   1.551   5.903
 2651SOL     OW14223   2.888   5.789   0.074
 2651SOL    HW114224   2.824   5.718   0.045
 2651SOL    HW214225   2.979   5.768   0.038
 2652SOL     OW14226   0.351   2.441   0.012
 2652SOL    HW114227   0.399   2.528   0.002
 2652SOL    HW214228   0.411   2.366   6.553
 2653SOL     OW14229   5.376   1.406   6.535
 2653SOL    HW114230   5.388   1.419   6.437
 2653SOL    HW214231   5.385   1.308   6.557
 2654SOL     OW14232   6.315   5.272   1.336
 2654SOL    HW114233   0.019   5.349   1.386
 2654SOL    HW214234   6.271   5.209   1.401
 2655SOL     OW14235   0.850   0.198   5.854
 2655SOL    HW114236   0.854   0.118   5.794
 2655SOL    HW214237   0.896   0.275   5.811
 2656SOL     OW14238   2.041   3.588   0.309
 2656SOL    HW114239   2.047   3.532   0.391
 2656SOL    HW214240   1.947   3.621   0.297
 2657SOL     OW14241   3.034   4.035   5.259
 2657SOL    HW114242   2.976   4.028   5.177
 2657SOL    HW214243   3.020   3.954   5.316
 2658SOL     OW14244   5.339   3.014   5.528
 2658SOL    HW114245   5.387   2.926   5.528
 2658SOL    HW214246   5.396   3.083   5.485
 2659SOL     OW14247   2.313   3.013   1.160
 2659SOL    HW114248   2.393   2.966   1.197
 2659SOL    HW214249   2.237   2.949   1.152
 2660SOL     OW14250   0.679   5.447   1.409
 2660SOL    HW114251   0.683   5.362   1.462
 2660SOL    HW214252   0.584   5.470   1.389
 2661SOL     OW14253   4.796   3.420   0.285
 2661SOL    HW114254   4.835   3.396   0.196
 2661SOL    HW214255   4.733   3.349   0.314
 2662SOL     OW14256   6.085   2.346   5.747
 2662SOL    HW114257   6.100   2.362   5.649
 2662SOL    HW214258   6.157   2.390   5.799
 2663SOL     OW14259   3.359   5.999   0.943
 2663SOL    HW114260   3.434   6.059   0.969
 2663SOL    HW214261   3.307   5.972   1.025
 2664SOL     OW14262   5.159   0.470   0.312
 2664SOL    HW114263   5.202   0.385   0.279
 2664SOL    HW214264   5.144   0.464   0.410
 2665SOL     OW14265   5.486   5.973   0.239
 2665SOL    HW114266   5.505   5.876   0.251
 2665SOL    HW214267   5.388   5.986   0.222
 2666SOL     OW14268   3.942   0.993   6.302
 2666SOL    HW114269   3.941   0.896   6.326
 2666SOL    HW214270   3.921   1.048   6.383
 2667SOL     OW14271   6.015   3.772   6.330
 2667SOL    HW114272   5.978   3.824   6.407
 2667SOL    HW214273   6.096   3.722   6.359
 2668SOL     OW14274   6.038   1.735   6.325
 2668SOL    HW114275   5.958   1.786   6.359
 2668SOL    HW214276   6.010   1.672   6.253
 2669SOL     OW14277   3.874   5.372   1.397
 2669SOL    HW114278   3.899   5.417   1.483
 2669SOL    HW214279   3.957   5.337   1.353
 2670SOL     OW14280   4.803   3.732   6.014
 2670SOL    HW114281   4.763   3.673   6.084
 2670SOL    HW214282   4.891   3.767   6.046
 2671SOL     OW14283   1.953   2.071   4.927
 2671SOL    HW114284   1.937   2.082   4.828
 2671SOL    HW214285   2.000   1.984   4.943
 2672SOL     OW14286   1.602   2.979   6.429
 2672SOL    HW114287   1.673   3.035   6.387
 2672SOL    HW214288   1.563   2.918   6.360
 2673SOL     OW14289   1.688   6.214   1.266
 2673SOL    HW114290   1.635   6.130   1.256
 2673SOL    HW214291   1.699   6.236   1.363
 2674SOL     OW14292   2.808   5.923   1.038
 2674SOL    HW114293   2.721   5.915   1.085
 2674SOL    HW214294   2.797   5.975   0.953
 2675SOL     OW14295   5.322   5.470   6.027
 2675SOL    HW114296   5.236   5.442   6.069
 2675SOL    HW214297   5.310   5.480   5.928
 2676SOL     OW14298   3.733   2.592   0.630
 2676SOL    HW114299   3.674   2.628   0.702
 2676SOL    HW214300   3.695   2.506   0.596
 2677SOL     OW14301   2.075   2.766   5.342
 2677SOL    HW114302   2.104   2.732   5.432
 2677SOL    HW214303   2.143   2.829   5.307
 2678SOL     OW14304   4.205   0.199   5.974
 2678SOL    HW114305   4.132   0.135   5.953
 2678SOL    HW214306   4.169   0.275   6.028
 2679SOL     OW14307   1.977   4.834   0.453
 2679SOL    HW114308   2.073   4.823   0.478
 2679SOL    HW214309   1.968   4.910   0.388
 2680SOL     OW14310   1.653   4.622   6.468
 2680SOL    HW114311   1.744   4.582   6.484
 2680SOL    HW214312   1.598   4.613   6.551
 2681SOL     OW14313   5.182   2.710   5.871
 2681SOL    HW114314   5.179   2.802   5.831
 2681SOL    HW214315   5.277   2.687   5.894
 2682SOL     OW14316   2.606   3.573   6.431
 2682SOL    HW114317   2.628   3.525   6.517
 2682SOL    HW214318   2.549   3.514   6.374
 2683SOL     OW14319   5.654   6.376   6.102
 2683SOL    HW114320   5.745   6.368   6.062
 2683SOL    HW214321   5.663   6.383   6.202
 2684SOL     OW14322   2.713   4.173   0.692
 2684SOL    HW114323   2.670   4.123   0.768
 2684SOL    HW214324   2.645   4.233   0.650
 2685SOL     OW14325   3.400   3.620   5.259
 2685SOL    HW114326   3.390   3.599   5.356
 2685SOL    HW214327   3.493   3.598   5.229
 2686SOL     OW14328   2.820   4.966   5.747
 2686SOL    HW114329   2.848   4.901   5.677
 2686SOL    HW214330   2.748   5.026   5.711
 2687SOL     OW14331   1.698   0.311   5.499
 2687SOL    HW114332   1.738   0.393   5.541
 2687SOL    HW214333   1.601   0.305   5.522
 2688SOL     OW14334   3.252   3.553   5.887
 2688SOL    HW114335   3.205   3.496   5.953
 2688SOL    HW214336   3.314   3.497   5.832
 2689SOL     OW14337   1.557   4.684   5.339
 2689SOL    HW114338   1.478   4.738   5.308
 2689SOL    HW214339   1.641   4.736   5.324
 2690SOL     OW14340   5.040   4.423   5.650
 2690SOL    HW114341   5.087   4.383   5.572
 2690SOL    HW214342   4.982   4.499   5.620
 2691SOL     OW14343   0.803   6.025   5.632
 2691SOL    HW114344   0.844   6.069   5.552
 2691SOL    HW214345   0.704   6.017   5.618
 2692SOL     OW14346   4.558   6.218   5.380
 2692SOL    HW114347   4.594   6.137   5.334
 2692SOL    HW214348   4.624   6.251   5.447
 2693SOL     OW14349   1.876   2.478   5.755
 2693SOL    HW114350   1.830   2.542   5.692
 2693SOL    HW214351   1.821   2.396   5.765
 2694SOL     OW14352   5.648   0.439   5.634
 2694SOL    HW114353   5.606   0.430   5.544
 2694SOL    HW214354   5.619   0.525   5.676
 2695SOL     OW14355   4.136   4.872   2.004
 2695SOL    HW114356   4.079   4.830   2.075
 2695SOL    HW214357   4.212   4.811   1.982
 2696SOL     OW14358   3.798   2.077   0.856
 2696SOL    HW114359   3.796   1.977   0.863
 2696SOL    HW214360   3.854   2.114   0.931
 2697SOL     OW14361   0.025   3.161   1.816
 2697SOL    HW114362   0.116   3.134   1.783
 2697SOL    HW214363   0.026   3.258   1.840
 2698SOL     OW14364   3.742   5.044   6.088
 2698SOL    HW114365   3.720   4.947   6.077
 2698SOL    HW214366   3.683   5.084   6.157
 2699SOL     OW14367   3.455   0.438   1.098
 2699SOL    HW114368   3.452   0.538   1.102
 2699SOL    HW214369   3.506   0.404   1.178
 2700SOL     OW14370   2.962   4.035   0.270
 2700SOL    HW114371   2.913   3.948   0.281
 2700SOL    HW214372   3.020   4.051   0.350
 2701SOL     OW14373   5.180   0.437   6.055
 2701SOL    HW114374   5.238   0.449   6.135
 2701SOL    HW214375   5.236   0.404   5.978
 2702SOL     OW14376   4.174   5.608   1.346
 2702SOL    HW114377   4.102   5.624   1.279
 2702SOL    HW214378   4.149   5.652   1.432
 2703SOL     OW14379   0.510   5.700   0.210
 2703SOL    HW114380   0.576   5.763   0.252
 2703SOL    HW214381   0.539   5.606   0.225
 2704SOL     OW14382   4.336   2.646   0.321
 2704SOL    HW114383   4.373   2.554   0.307
 2704SOL    HW214384   4.241   2.640   0.352
 2705SOL     OW14385   1.686   2.173   6.043
 2705SOL    HW114386   1.782   2.167   6.070
 2705SOL    HW214387   1.643   2.249   6.091
 2706SOL     OW14388   2.465   0.035   5.999
 2706SOL    HW114389   2.512   0.107   5.948
 2706SOL    HW214390   2.450   0.065   6.093
 2707SOL     OW14391   4.533   2.758   0.763
 2707SOL    HW114392   4.448   2.725   0.722
 2707SOL    HW214393   4.611   2.712   0.719
 2708SOL     OW14394   1.891   4.481   6.528
 2708SOL    HW114395   1.855   4.433   0.038
 2708SOL    HW214396   1.883   4.423   6.447
 2709SOL     OW14397   4.244   1.464   1.322
 2709SOL    HW114398   4.254   1.397   1.395
 2709SOL    HW214399   4.296   1.546   1.345
 2710SOL     OW14400   1.789   6.069   5.542
 2710SOL    HW114401   1.880   6.059   5.583
 2710SOL    HW214402   1.799   6.088   5.444
 2711SOL     OW14403   1.504   5.550   0.568
 2711SOL    HW114404   1.518   5.648   0.551
 2711SOL    HW214405   1.463   5.508   0.487
 2712SOL     OW14406   2.942   4.443   5.686
 2712SOL    HW114407   2.998   4.523   5.666
 2712SOL    HW214408   2.984   4.361   5.647
 2713SOL     OW14409   2.392   5.375   0.713
 2713SOL    HW114410   2.327   5.367   0.637
 2713SOL    HW214411   2.353   5.334   0.795
 2714SOL     OW14412   2.410   5.588   0.895
 2714SOL    HW114413   2.507   5.600   0.917
 2714SOL    HW214414   2.400   5.521   0.822
 2715SOL     OW14415   1.589   3.626   0.487
 2715SOL    HW114416   1.541   3.680   0.418
 2715SOL    HW214417   1.610   3.684   0.566
 2716SOL     OW14418   2.426   0.539   0.608
 2716SOL    HW114419   2.453   0.538   0.704
 2716SOL    HW214420   2.508   0.542   0.550
 2717SOL     OW14421   0.074   3.306   6.360
 2717SOL    HW114422   0.087   3.404   6.377
 2717SOL    HW214423   0.007   3.294   6.287
 2718SOL     OW14424   4.242   3.638   1.541
 2718SOL    HW114425   4.144   3.627   1.557
 2718SOL    HW214426   4.293   3.577   1.602
 2719SOL     OW14427   2.317   3.808   6.092
 2719SOL    HW114428   2.347   3.856   6.175
 2719SOL    HW214429   2.264   3.871   6.035
 2720SOL     OW14430   5.275   6.223   0.604
 2720SOL    HW114431   5.248   6.135   0.644
 2720SOL    HW214432   5.356   6.211   0.548
 2721SOL     OW14433   3.746   5.697   0.865
 2721SOL    HW114434   3.830   5.655   0.831
 2721SOL    HW214435   3.667   5.653   0.822
 2722SOL     OW14436   0.554   4.599   0.268
 2722SOL    HW114437   0.484   4.668   0.289
 2722SOL    HW214438   0.644   4.634   0.294
 2723SOL     OW14439   2.520   0.885   5.243
 2723SOL    HW114440   2.452   0.920   5.178
 2723SOL    HW214441   2.605   0.864   5.193
 2724SOL     OW14442   2.581   5.909   1.198
 2724SOL    HW114443   2.640   5.935   1.274
 2724SOL    HW214444   2.525   5.830   1.224
 2725SOL     OW14445   3.685   6.145   5.451
 2725SOL    HW114446   3.632   6.175   5.371
 2725SOL    HW214447   3.753   6.078   5.423
 2726SOL     OW14448   5.492   5.335   1.666
 2726SOL    HW114449   5.565   5.280   1.706
 2726SOL    HW214450   5.415   5.338   1.730
 2727SOL     OW14451   2.372   6.265   6.515
 2727SOL    HW114452   2.439   6.339   6.508
 2727SOL    HW214453   2.297   6.281   6.451
 2728SOL     OW14454   0.049   2.583   0.630
 2728SOL    HW114455   0.101   2.510   0.674
 2728SOL    HW214456   0.091   2.671   0.650
 2729SOL     OW14457   2.640   3.566   1.051
 2729SOL    HW114458   2.552   3.611   1.038
 2729SOL    HW214459   2.676   3.536   0.963
 2730SOL     OW14460   2.180   6.304   0.768
 2730SOL    HW114461   2.094   6.284   0.813
 2730SOL    HW214462   2.186   6.251   0.683
 2731SOL     OW14463   3.095   4.669   5.658
 2731SOL    HW114464   3.182   4.677   5.610
 2731SOL    HW214465   3.108   4.687   5.755
 2732SOL     OW14466   0.908   0.389   4.842
 2732SOL    HW114467   0.902   0.465   4.778
 2732SOL    HW214468   0.828   0.330   4.831
 2733SOL     OW14469   1.891   2.842   0.261
 2733SOL    HW114470   1.978   2.795   0.274
 2733SOL    HW214471   1.884   2.918   0.326
 2734SOL     OW14472   3.032   2.635   6.290
 2734SOL    HW114473   3.048   2.689   6.372
 2734SOL    HW214474   3.120   2.600   6.255
 2735SOL     OW14475   1.159   3.891   0.601
 2735SOL    HW114476   1.159   3.791   0.597
 2735SOL    HW214477   1.245   3.926   0.564
 2736SOL     OW14478   0.716   1.855   5.475
 2736SOL    HW114479   0.749   1.775   5.425
 2736SOL    HW214480   0.722   1.836   5.573
 2737SOL     OW14481   5.510   5.266   0.469
 2737SOL    HW114482   5.584   5.302   0.412
 2737SOL    HW214483   5.502   5.319   0.553
 2738SOL     OW14484   5.068   4.105   0.383
 2738SOL    HW114485   5.087   4.080   0.478
 2738SOL    HW214486   4.970   4.098   0.366
 2739SOL     OW14487   2.975   2.179   6.392
 2739SOL    HW114488   2.943   2.158   6.484
 2739SOL    HW214489   2.965   2.098   6.334
 2740SOL     OW14490   4.583   2.990   0.899
 2740SOL    HW114491   4.565   2.901   0.857
 2740SOL    HW214492   4.639   3.045   0.836
 2741SOL     OW14493   2.900   2.901   0.233
 2741SOL    HW114494   2.835   2.864   0.299
 2741SOL    HW214495   2.913   2.998   0.250
 2742SOL     OW14496   3.467   0.630   6.566
 2742SOL    HW114497   3.438   0.724   6.547
 2742SOL    HW214498   3.412   0.567   6.510
 2743SOL     OW14499   5.033   4.374   0.322
 2743SOL    HW114500   5.042   4.275   0.332
 2743SOL    HW214501   5.073   4.419   0.402
 2744SOL     OW14502   0.014   1.181   6.424
 2744SOL    HW114503   6.332   1.183   6.522
 2744SOL    HW214504   6.321   1.269   6.383
 2745SOL     OW14505   1.031   1.220   5.318
 2745SOL    HW114506   1.021   1.122   5.299
 2745SOL    HW214507   1.026   1.271   5.232
 2746SOL     OW14508   3.973   5.557   0.786
 2746SOL    HW114509   3.962   5.509   0.873
 2746SOL    HW214510   4.047   5.624   0.794
 2747SOL     OW14511   2.716   2.664   4.779
 2747SOL    HW114512   2.780   2.660   4.702
 2747SOL    HW214513   2.633   2.713   4.750
 2748SOL     OW14514   0.713   2.785   5.423
 2748SOL    HW114515   0.642   2.816   5.360
 2748SOL    HW214516   0.732   2.688   5.407
 2749SOL     OW14517   2.739   0.825   6.140
 2749SOL    HW114518   2.785   0.841   6.052
 2749SOL    HW214519   2.661   0.764   6.125
 2750SOL     OW14520   0.283   2.739   6.020
 2750SOL    HW114521   0.270   2.769   5.926
 2750SOL    HW214522   0.379   2.714   6.034
 2751SOL     OW14523   4.370   5.434   1.411
 2751SOL    HW114524   4.291   5.490   1.385
 2751SOL    HW214525   4.339   5.348   1.451
 2752SOL     OW14526   0.496   1.035   0.735
 2752SOL    HW114527   0.529   1.087   0.813
 2752SOL    HW214528   0.515   0.937   0.749
 2753SOL     OW14529   2.888   1.474   1.269
 2753SOL    HW114530   2.849   1.538   1.202
 2753SOL    HW214531   2.820   1.456   1.341
 2754SOL     OW14532   0.803   0.469   0.010
 2754SOL    HW114533   0.763   0.405   6.515
 2754SOL    HW214534   0.785   0.563   6.550
 2755SOL     OW14535   1.083   1.501   5.683
 2755SOL    HW114536   1.075   1.582   5.625
 2755SOL    HW214537   1.031   1.426   5.643
 2756SOL     OW14538   4.783   1.743   0.724
 2756SOL    HW114539   4.730   1.817   0.766
 2756SOL    HW214540   4.771   1.745   0.625
 2757SOL     OW14541   6.184   5.184   0.019
 2757SOL    HW114542   6.142   5.192   6.499
 2757SOL    HW214543   6.133   5.239   0.085
 2758SOL     OW14544   0.939   1.221   0.660
 2758SOL    HW114545   0.880   1.148   0.626
 2758SOL    HW214546   1.022   1.182   0.700
 2759SOL     OW14547   4.723   3.122   6.263
 2759SOL    HW114548   4.761   3.156   6.177
 2759SOL    HW214549   4.657   3.188   6.298
 2760SOL     OW14550   1.004   5.985   0.701
 2760SOL    HW114551   0.949   6.037   0.766
 2760SOL    HW214552   1.100   5.988   0.728
 2761SOL     OW14553   2.743   6.318   6.321
 2761SOL    HW114554   2.801   6.373   6.261
 2761SOL    HW214555   2.710   6.238   6.272
 2762SOL     OW14556   2.896   0.021   0.432
 2762SOL    HW114557   2.925   6.331   0.429
 2762SOL    HW214558   2.893   0.058   0.339
 2763SOL     OW14559   0.850   6.279   0.032
 2763SOL    HW114560   0.926   6.325   0.077
 2763SOL    HW214561   0.772   6.342   0.025
 2764SOL     OW14562   5.960   4.749   6.288
 2764SOL    HW114563   5.940   4.679   6.357
 2764SOL    HW214564   6.040   4.801   6.315
 2765SOL     OW14565   4.979   1.758   6.009
 2765SOL    HW114566   4.919   1.724   6.081
 2765SOL    HW214567   5.031   1.837   6.043
 2766SOL     OW14568   1.253   1.590   6.293
 2766SOL    HW114569   1.272   1.493   6.307
 2766SOL    HW214570   1.260   1.638   6.381
 2767SOL     OW14571   4.183   5.219   0.760
 2767SOL    HW114572   4.084   5.215   0.752
 2767SOL    HW214573   4.222   5.262   0.679
 2768SOL     OW14574   4.502   4.052   0.737
 2768SOL    HW114575   4.460   4.005   0.660
 2768SOL    HW214576   4.540   4.139   0.707
 2769SOL     OW14577   3.311   1.927   0.840
 2769SOL    HW114578   3.230   1.871   0.827
 2769SOL    HW214579   3.392   1.869   0.842
 2770SOL     OW14580   3.845   1.703   0.030
 2770SOL    HW114581   3.772   1.654   6.552
 2770SOL    HW214582   3.897   1.758   6.534
 2771SOL     OW14583   3.456   2.400   4.706
 2771SOL    HW114584   3.470   2.302   4.691
 2771SOL    HW214585   3.538   2.450   4.679
 2772SOL     OW14586   5.318   4.197   0.278
 2772SOL    HW114587   5.395   4.170   0.336
 2772SOL    HW214588   5.233   4.160   0.315
 2773SOL     OW14589   0.700   0.726   0.545
 2773SOL    HW114590   0.671   0.647   0.490
 2773SOL    HW214591   0.634   0.740   0.619
 2774SOL     OW14592   3.730   2.758   6.260
 2774SOL    HW114593   3.735   2.669   6.304
 2774SOL    HW214594   3.686   2.749   6.171
 2775SOL     OW14595   5.678   3.944   0.468
 2775SOL    HW114596   5.720   4.002   0.397
 2775SOL    HW214597   5.749   3.912   0.530
 2776SOL     OW14598   4.873   2.485   1.424
 2776SOL    HW114599   4.942   2.556   1.409
 2776SOL    HW214600   4.872   2.460   1.520
 2777SOL     OW14601   5.948   4.461   1.187
 2777SOL    HW114602   5.897   4.403   1.250
 2777SOL    HW214603   5.989   4.537   1.237
 2778SOL     OW14604   3.808   2.256   4.769
 2778SOL    HW114605   3.782   2.291   4.859
 2778SOL    HW214606   3.770   2.164   4.756
 2779SOL     OW14607   1.358   2.938   4.536
 2779SOL    HW114608   1.373   2.841   4.551
 2779SOL    HW214609   1.328   2.953   4.442
 2780SOL     OW14610   5.137   2.601   6.243
 2780SOL    HW114611   5.225   2.649   6.233
 2780SOL    HW214612   5.120   2.583   6.340
 2781SOL     OW14613   1.170   0.698   0.388
 2781SOL    HW114614   1.131   0.616   0.430
 2781SOL    HW214615   1.270   0.694   0.394
 2782SOL     OW14616   1.051   1.645   6.113
 2782SOL    HW114617   1.122   1.633   6.182
 2782SOL    HW214618   1.078   1.718   6.050
 2783SOL     OW14619   3.630   4.529   0.769
 2783SOL    HW114620   3.684   4.573   0.841
 2783SOL    HW214621   3.553   4.480   0.810
 2784SOL     OW14622   0.670   5.702   6.551
 2784SOL    HW114623   0.602   5.706   0.054
 2784SOL    HW214624   0.623   5.691   6.463
 2785SOL     OW14625   5.996   1.838   5.950
 2785SOL    HW114626   5.900   1.830   5.924
 2785SOL    HW214627   6.022   1.935   5.950
 2786SOL     OW14628   3.661   3.083   6.451
 2786SOL    HW114629   3.704   3.070   6.362
 2786SOL    HW214630   3.698   3.166   6.494
 2787SOL     OW14631   2.290   6.224   6.033
 2787SOL    HW114632   2.329   6.137   6.002
 2787SOL    HW214633   2.356   6.297   6.019
 2788SOL     OW14634   2.128   5.320   5.943
 2788SOL    HW114635   2.030   5.299   5.941
 2788SOL    HW214636   2.152   5.372   5.861
 2789SOL     OW14637   0.473   4.286   6.277
 2789SOL    HW114638   0.390   4.341   6.273
 2789SOL    HW214639   0.546   4.331   6.226
 2790SOL     OW14640   3.329   1.841   5.259
 2790SOL    HW114641   3.340   1.917   5.195
 2790SOL    HW214642   3.419   1.801   5.279
 2791SOL     OW14643   1.792   6.180   5.978
 2791SOL    HW114644   1.882   6.224   5.988
 2791SOL    HW214645   1.799   6.084   6.004
 2792SOL     OW14646   3.322   0.728   5.969
 2792SOL    HW114647   3.370   0.642   5.986
 2792SOL    HW214648   3.389   0.801   5.957
 2793SOL     OW14649   2.882   5.735   5.654
 2793SOL    HW114650   2.854   5.777   5.568
 2793SOL    HW214651   2.939   5.655   5.636
 2794SOL     OW14652   3.724   4.055   6.364
 2794SOL    HW114653   3.624   4.057   6.361
 2794SOL    HW214654   3.756   3.962   6.343
 2795SOL     OW14655   4.073   4.595   6.238
 2795SOL    HW114656   4.032   4.666   6.181
 2795SOL    HW214657   4.147   4.634   6.292
 2796SOL     OW14658   2.974   3.343   5.693
 2796SOL    HW114659   2.989   3.425   5.639
 2796SOL    HW214660   2.901   3.288   5.651
 2797SOL     OW14661   6.271   3.074   6.454
 2797SOL    HW114662   6.202   3.058   6.383
 2797SOL    HW214663   6.329   3.151   6.427
 2798SOL     OW14664   1.548   5.980   1.200
 2798SOL    HW114665   1.627   5.929   1.233
 2798SOL    HW214666   1.482   5.917   1.159
 2799SOL     OW14667   2.985   4.495   0.362
 2799SOL    HW114668   2.897   4.453   0.383
 2799SOL    HW214669   3.057   4.425   0.366
 2800SOL     OW14670   5.170   1.784   5.741
 2800SOL    HW114671   5.121   1.758   5.824
 2800SOL    HW214672   5.265   1.804   5.763
 2801SOL     OW14673   4.703   4.540   2.034
 2801SOL    HW114674   4.743   4.492   2.112
 2801SOL    HW214675   4.772   4.547   1.961
 2802SOL     OW14676   4.705   1.800   1.074
 2802SOL    HW114677   4.680   1.855   0.994
 2802SOL    HW214678   4.622   1.772   1.123
 2803SOL     OW14679   4.663   1.329   0.659
 2803SOL    HW114680   4.735   1.341   0.727
 2803SOL    HW214681   4.676   1.242   0.611
 2804SOL     OW14682   4.984   0.321   6.547
 2804SOL    HW114683   5.038   0.402   6.525
 2804SOL    HW214684   4.895   0.349   0.013
 2805SOL     OW14685   5.505   2.249   5.102
 2805SOL    HW114686   5.456   2.172   5.060
 2805SOL    HW214687   5.594   2.259   5.057
 2806SOL     OW14688   1.165   1.916   5.667
 2806SOL    HW114689   1.251   1.950   5.703
 2806SOL    HW214690   1.122   1.987   5.611
 2807SOL     OW14691   1.167   4.433   6.514
 2807SOL    HW114692   1.162   4.518   6.460
 2807SOL    HW214693   1.178   4.456   0.041
 2808SOL     OW14694   3.245   5.303   0.653
 2808SOL    HW114695   3.296   5.368   0.597
 2808SOL    HW214696   3.303   5.226   0.678
 2809SOL     OW14697   5.620   3.624   0.089
 2809SOL    HW114698   5.590   3.573   0.170
 2809SOL    HW214699   5.549   3.689   0.062
 2810SOL     OW14700   2.062   2.981   0.906
 2810SOL    HW114701   2.060   2.926   0.990
 2810SOL    HW214702   2.037   2.923   0.828
 2811SOL     OW14703   2.758   1.796   0.516
 2811SOL    HW114704   2.776   1.867   0.584
 2811SOL    HW214705   2.661   1.772   0.517
 2812SOL     OW14706   1.497   4.113   0.724
 2812SOL    HW114707   1.485   4.049   0.799
 2812SOL    HW214708   1.444   4.082   0.645
 2813SOL     OW14709   4.986   0.993   1.315
 2813SOL    HW114710   4.952   1.018   1.405
 2813SOL    HW214711   4.948   0.904   1.288
 2814SOL     OW14712   4.565   4.723   0.010
 2814SOL    HW114713   4.473   4.683   0.004
 2814SOL    HW214714   4.584   4.747   0.105
 2815SOL     OW14715   2.879   1.085   1.481
 2815SOL    HW114716   2.956   1.040   1.437
 2815SOL    HW214717   2.889   1.078   1.580
 2816SOL     OW14718   0.931   4.788   1.686
 2816SOL    HW114719   0.990   4.737   1.749
 2816SOL    HW214720   0.840   4.745   1.683
 2817SOL     OW14721   5.390   4.360   0.554
 2817SOL    HW114722   5.403   4.261   0.557
 2817SOL    HW214723   5.292   4.381   0.553
 2818SOL     OW14724   4.655   3.996   5.620
 2818SOL    HW114725   4.681   3.958   5.532
 2818SOL    HW214726   4.656   3.924   5.690
 2819SOL     OW14727   1.486   5.169   0.254
 2819SOL    HW114728   1.425   5.090   0.259
 2819SOL    HW214729   1.574   5.147   0.295
 2820SOL     OW14730   1.081   4.330   0.459
 2820SOL    HW114731   1.040   4.278   0.534
 2820SOL    HW214732   1.011   4.356   0.393
 2821SOL     OW14733   1.522   2.014   6.217
 2821SOL    HW114734   1.587   2.059   6.156
 2821SOL    HW214735   1.567   1.939   6.265
 2822SOL     OW14736   2.221   5.270   6.486
 2822SOL    HW114737   2.227   5.202   6.412
 2822SOL    HW214738   2.251   5.229   0.002
 2823SOL     OW14739   3.247   2.162   6.363
 2823SOL    HW114740   3.150   2.170   6.384
 2823SOL    HW214741   3.293   2.249   6.381
 2824SOL     OW14742   4.841   0.917   5.887
 2824SOL    HW114743   4.844   0.978   5.807
 2824SOL    HW214744   4.918   0.938   5.948
 2825SOL     OW14745   3.448   1.607   1.060
 2825SOL    HW114746   3.468   1.537   1.128
 2825SOL    HW214747   3.349   1.616   1.050
 2826SOL     OW14748   3.412   1.185   5.822
 2826SOL    HW114749   3.456   1.181   5.732
 2826SOL    HW214750   3.473   1.228   5.888
 2827SOL     OW14751   2.143   2.069   5.723
 2827SOL    HW114752   2.169   2.097   5.631
 2827SOL    HW214753   2.185   2.131   5.790
 2828SOL     OW14754   5.415   2.168   6.542
 2828SOL    HW114755   5.423   2.253   6.491
 2828SOL    HW214756   5.442   2.182   0.067
 2829SOL     OW14757   5.149   0.673   1.155
 2829SOL    HW114758   5.155   0.681   1.055
 2829SOL    HW214759   5.154   0.576   1.180
 2830SOL     OW14760   3.656   1.549   6.464
 2830SOL    HW114761   3.610   1.603   6.393
 2830SOL    HW214762   3.722   1.487   6.422
 2831SOL     OW14763   3.342   5.402   6.227
 2831SOL    HW114764   3.374   5.399   6.132
 2831SOL    HW214765   3.331   5.310   6.262
 2832SOL     OW14766   3.946   2.190   0.644
 2832SOL    HW114767   4.033   2.142   0.654
 2832SOL    HW214768   3.881   2.157   0.712
 2833SOL     OW14769   4.728   4.186   1.573
 2833SOL    HW114770   4.808   4.228   1.529
 2833SOL    HW214771   4.657   4.254   1.585
 2834SOL     OW14772   2.573   5.146   6.568
 2834SOL    HW114773   2.641   5.147   0.072
 2834SOL    HW214774   2.481   5.149   0.038
 2835SOL     OW14775   1.377   4.021   0.493
 2835SOL    HW114776   1.331   4.087   0.433
 2835SOL    HW214777   1.461   3.989   0.449
 2836SOL     OW14778   2.110   1.955   6.224
 2836SOL    HW114779   2.074   1.932   6.314
 2836SOL    HW214780   2.125   1.872   6.171
 2837SOL     OW14781   2.608   1.912   0.046
 2837SOL    HW114782   2.637   1.835   0.103
 2837SOL    HW214783   2.508   1.915   0.042
 2838SOL     OW14784   1.683   1.057   4.863
 2838SOL    HW114785   1.766   1.086   4.815
 2838SOL    HW214786   1.604   1.067   4.801
 2839SOL     OW14787   3.059   4.129   1.518
 2839SOL    HW114788   3.018   4.055   1.571
 2839SOL    HW214789   3.007   4.214   1.534
 2840SOL     OW14790   4.713   2.994   1.149
 2840SOL    HW114791   4.776   3.068   1.171
 2840SOL    HW214792   4.673   3.010   1.059
 2841SOL     OW14793   3.258   3.759   5.687
 2841SOL    HW114794   3.244   3.691   5.759
 2841SOL    HW214795   3.278   3.847   5.728
 2842SOL     OW14796   0.068   5.994   6.407
 2842SOL    HW114797   0.146   6.026   6.461
 2842SOL    HW214798   0.074   5.895   6.397
 2843SOL     OW14799   2.926   3.510   0.105
 2843SOL    HW114800   2.827   3.501   0.111
 2843SOL    HW214801   2.949   3.589   0.049
 2844SOL     OW14802   2.827   1.180   0.329
 2844SOL    HW114803   2.927   1.188   0.335
 2844SOL    HW214804   2.789   1.180   0.422
 2845SOL     OW14805   2.641   4.873   6.190
 2845SOL    HW114806   2.579   4.826   6.128
 2845SOL    HW214807   2.693   4.942   6.140
 2846SOL     OW14808   3.929   3.518   0.087
 2846SOL    HW114809   3.892   3.608   0.065
 2846SOL    HW214810   3.946   3.513   0.186
 2847SOL     OW14811   6.073   3.342   1.823
 2847SOL    HW114812   6.031   3.268   1.875
 2847SOL    HW214813   6.167   3.356   1.855
 2848SOL     OW14814   5.592   1.301   0.951
 2848SOL    HW114815   5.610   1.379   1.011
 2848SOL    HW214816   5.494   1.292   0.935
 2849SOL     OW14817   3.435   1.106   0.083
 2849SOL    HW114818   3.371   1.108   0.160
 2849SOL    HW214819   3.458   1.200   0.056
 2850SOL     OW14820   3.400   6.346   5.749
 2850SOL    HW114821   3.378   6.342   5.651
 2850SOL    HW214822   3.322   6.309   5.801
 2851SOL     OW14823   2.929   2.801   6.546
 2851SOL    HW114824   2.862   2.828   6.477
 2851SOL    HW214825   2.906   2.843   0.064
 2852SOL     OW14826   3.184   3.131   6.397
 2852SOL    HW114827   3.133   3.190   6.459
 2852SOL    HW214828   3.139   3.130   6.307
 2853SOL     OW14829   0.219   4.471   0.990
 2853SOL    HW114830   0.126   4.490   1.021
 2853SOL    HW214831   0.285   4.519   1.048
 2854SOL     OW14832   1.776   1.629   6.201
 2854SOL    HW114833   1.785   1.649   6.104
 2854SOL    HW214834   1.763   1.531   6.214
 2855SOL     OW14835   2.181   5.497   5.740
 2855SOL    HW114836   2.151   5.470   5.649
 2855SOL    HW214837   2.126   5.574   5.772
 2856SOL     OW14838   4.611   4.787   1.925
 2856SOL    HW114839   4.640   4.704   1.973
 2856SOL    HW214840   4.564   4.848   1.989
 2857SOL     OW14841   6.320   5.746   4.600
 2857SOL    HW114842   6.326   5.715   4.505
 2857SOL    HW214843   6.229   5.727   4.636
 2858SOL     OW14844   3.992   5.670   1.148
 2858SOL    HW114845   3.921   5.738   1.164
 2858SOL    HW214846   3.952   5.589   1.104
 2859SOL     OW14847   1.474   0.030   5.391
 2859SOL    HW114848   1.502   6.341   5.369
 2859SOL    HW214849   1.501   0.051   5.486
 2860SOL     OW14850   1.812   1.675   0.113
 2860SOL    HW114851   1.893   1.623   0.083
 2860SOL    HW214852   1.839   1.740   0.183
 2861SOL     OW14853   4.201   0.619   6.565
 2861SOL    HW114854   4.247   0.563   0.064
 2861SOL    HW214855   4.197   0.714   0.026
 2862SOL     OW14856   5.682   2.387   0.199
 2862SOL    HW114857   5.623   2.305   0.203
 2862SOL    HW214858   5.774   2.362   0.228
 2863SOL     OW14859   3.946   2.435   0.530
 2863SOL    HW114860   3.880   2.498   0.571
 2863SOL    HW214861   3.939   2.345   0.574
 2864SOL     OW14862   1.191   1.369   0.302
 2864SOL    HW114863   1.218   1.455   0.345
 2864SOL    HW214864   1.099   1.344   0.333
 2865SOL     OW14865   5.662   2.885   5.368
 2865SOL    HW114866   5.723   2.826   5.314
 2865SOL    HW214867   5.702   2.976   5.373
 2866SOL     OW14868   0.398   4.682   0.582
 2866SOL    HW114869   0.339   4.611   0.622
 2866SOL    HW214870   0.367   4.702   0.489
 2867SOL     OW14871   6.005   3.227   1.578
 2867SOL    HW114872   6.055   3.264   1.656
 2867SOL    HW214873   5.911   3.262   1.580
 2868SOL     OW14874   1.228   5.025   0.509
 2868SOL    HW114875   1.266   4.987   0.424
 2868SOL    HW214876   1.302   5.060   0.566
 2869SOL     OW14877   4.520   1.147   0.251
 2869SOL    HW114878   4.534   1.156   0.153
 2869SOL    HW214879   4.514   1.050   0.275
 2870SOL     OW14880   4.262   0.161   0.735
 2870SOL    HW114881   4.261   0.260   0.722
 2870SOL    HW214882   4.236   0.140   0.829
 2871SOL     OW14883   3.851   1.129   6.529
 2871SOL    HW114884   3.868   1.182   0.042
 2871SOL    HW214885   3.781   1.060   6.548
 2872SOL     OW14886   3.609   5.845   0.606
 2872SOL    HW114887   3.544   5.820   0.677
 2872SOL    HW214888   3.602   5.943   0.587
 2873SOL     OW14889   2.734   6.101   5.901
 2873SOL    HW114890   2.783   6.144   5.826
 2873SOL    HW214891   2.764   6.007   5.912
 2874SOL     OW14892   5.220   4.734   0.516
 2874SOL    HW114893   5.226   4.775   0.425
 2874SOL    HW214894   5.309   4.736   0.560
 2875SOL     OW14895   2.023   2.865   0.658
 2875SOL    HW114896   1.965   2.920   0.598
 2875SOL    HW214897   2.115   2.859   0.618
 2876SOL     OW14898   4.105   3.422   6.467
 2876SOL    HW114899   4.041   3.453   6.538
 2876SOL    HW214900   4.107   3.322   6.466
 2877SOL     OW14901   4.177   4.180   0.582
 2877SOL    HW114902   4.138   4.134   0.502
 2877SOL    HW214903   4.124   4.155   0.663
 2878SOL     OW14904   3.445   1.767   0.583
 2878SOL    HW114905   3.478   1.852   0.543
 2878SOL    HW214906   3.476   1.761   0.678
 2879SOL     OW14907   2.747   6.137   0.196
 2879SOL    HW114908   2.778   6.198   0.124
 2879SOL    HW214909   2.726   6.047   0.156
 2880SOL     OW14910   4.167   5.682   5.358
 2880SOL    HW114911   4.210   5.598   5.324
 2880SOL    HW214912   4.089   5.706   5.299
 2881SOL     OW14913   1.728   0.438   6.414
 2881SOL    HW114914   1.745   0.487   6.499
 2881SOL    HW214915   1.674   0.356   6.433
 2882SOL     OW14916   5.682   1.962   0.190
 2882SOL    HW114917   5.755   1.983   0.255
 2882SOL    HW214918   5.632   1.881   0.222
 2883SOL     OW14919   0.123   5.639   1.715
 2883SOL    HW114920   0.047   5.701   1.698
 2883SOL    HW214921   0.097   5.573   1.785
 2884SOL     OW14922   1.174   4.862   0.063
 2884SOL    HW114923   1.225   4.924   0.003
 2884SOL    HW214924   1.161   4.774   0.017
 2885SOL     OW14925   5.350   0.335   5.599
 2885SOL    HW114926   5.280   0.269   5.572
 2885SOL    HW214927   5.415   0.348   5.524
 2886SOL     OW14928   3.694   4.778   6.036
 2886SOL    HW114929   3.663   4.697   5.986
 2886SOL    HW214930   3.693   4.759   6.134
 2887SOL     OW14931   2.088   3.445   5.987
 2887SOL    HW114932   1.993   3.476   5.995
 2887SOL    HW214933   2.142   3.482   6.062
 2888SOL     OW14934   2.812   3.009   5.752
 2888SOL    HW114935   2.862   2.938   5.703
 2888SOL    HW214936   2.795   3.087   5.690
 2889SOL     OW14937   4.046   0.582   5.734
 2889SOL    HW114938   4.133   0.537   5.716
 2889SOL    HW214939   3.971   0.528   5.696
 2890SOL     OW14940   5.690   4.871   0.365
 2890SOL    HW114941   5.638   4.819   0.298
 2890SOL    HW214942   5.704   4.964   0.332
 2891SOL     OW14943   2.389   1.405   6.009
 2891SOL    HW114944   2.409   1.406   5.911
 2891SOL    HW214945   2.437   1.482   6.053
 2892SOL     OW14946   4.888   4.108   5.314
 2892SOL    HW114947   4.856   4.203   5.314
 2892SOL    HW214948   4.939   4.091   5.230
 2893SOL     OW14949   0.226   2.089   5.689
 2893SOL    HW114950   0.230   2.033   5.607
 2893SOL    HW214951   0.316   2.089   5.734
 2894SOL     OW14952   3.505   5.508   1.171
 2894SOL    HW114953   3.549   5.461   1.095
 2894SOL    HW214954   3.530   5.464   1.257
 2895SOL     OW14955   4.627   3.436   5.574
 2895SOL    HW114956   4.726   3.425   5.583
 2895SOL    HW214957   4.606   3.474   5.485
 2896SOL     OW14958   3.853   4.228   0.446
 2896SOL    HW114959   3.872   4.319   0.483
 2896SOL    HW214960   3.937   4.191   0.405
 2897SOL     OW14961   6.160   5.608   6.188
 2897SOL    HW114962   6.211   5.672   6.130
 2897SOL    HW214963   6.093   5.559   6.134
 2898SOL     OW14964   0.095   0.262   0.348
 2898SOL    HW114965   0.110   0.230   0.255
 2898SOL    HW214966   0.169   0.324   0.375
 2899SOL     OW14967   5.458   2.702   5.935
 2899SOL    HW114968   5.503   2.775   5.884
 2899SOL    HW214969   5.496   2.613   5.907
 2900SOL     OW14970   3.583   5.170   6.271
 2900SOL    HW114971   3.485   5.155   6.280
 2900SOL    HW214972   3.627   5.158   6.360
 2901SOL     OW14973   4.270   5.293   6.100
 2901SOL    HW114974   4.255   5.247   6.188
 2901SOL    HW214975   4.289   5.225   6.030
 2902SOL     OW14976   1.573   1.027   0.266
 2902SOL    HW114977   1.646   1.028   0.198
 2902SOL    HW214978   1.527   0.938   0.264
 2903SOL     OW14979   2.231   5.355   1.535
 2903SOL    HW114980   2.269   5.443   1.507
 2903SOL    HW214981   2.168   5.370   1.612
 2904SOL     OW14982   4.244   1.289   1.121
 2904SOL    HW114983   4.242   1.360   1.191
 2904SOL    HW214984   4.338   1.277   1.088
 2905SOL     OW14985   0.104   3.034   5.658
 2905SOL    HW114986   0.146   3.099   5.594
 2905SOL    HW214987   0.056   3.084   5.729
 2906SOL     OW14988   0.123   2.802   0.198
 2906SOL    HW114989   0.114   2.895   0.232
 2906SOL    HW214990   0.104   2.801   0.100
 2907SOL     OW14991   3.628   6.215   0.270
 2907SOL    HW114992   3.654   6.121   0.246
 2907SOL    HW214993   3.565   6.251   0.200
 2908SOL     OW14994   3.233   6.288   6.519
 2908SOL    HW114995   3.230   6.195   6.480
 2908SOL    HW214996   3.187   6.351   6.457
 2909SOL     OW14997   0.969   0.574   6.042
 2909SOL    HW114998   0.884   0.559   5.992
 2909SOL    HW214999   1.031   0.630   5.987
 2910SOL     OW15000   4.261   5.559   6.078
 2910SOL    HW115001   4.243   5.583   5.983
 2910SOL    HW215002   4.259   5.459   6.088
 2911SOL     OW15003   5.582   0.000   0.042
 2911SOL    HW115004   5.610   6.398   0.137
 2911SOL    HW215005   5.513   6.335   0.022
 2912SOL     OW15006   5.494   5.068   1.107
 2912SOL    HW115007   5.567   5.028   1.162
 2912SOL    HW215008   5.406   5.053   1.151
 2913SOL     OW15009   5.413   4.927   0.887
 2913SOL    HW115010   5.441   4.986   0.962
 2913SOL    HW215011   5.383   4.839   0.922
 2914SOL     OW15012   2.198   5.232   1.288
 2914SOL    HW115013   2.287   5.206   1.252
 2914SOL    HW215014   2.207   5.261   1.383
 2915SOL     OW15015   1.682   1.390   1.090
 2915SOL    HW115016   1.628   1.403   1.007
 2915SOL    HW215017   1.677   1.294   1.119
 2916SOL     OW15018   5.716   2.294   6.316
 2916SOL    HW115019   5.784   2.365   6.334
 2916SOL    HW215020   5.728   2.219   6.380
 2917SOL     OW15021   0.777   0.532   5.857
 2917SOL    HW115022   0.727   0.604   5.808
 2917SOL    HW215023   0.841   0.488   5.795
 2918SOL     OW15024   4.377   4.342   5.603
 2918SOL    HW115025   4.475   4.325   5.605
 2918SOL    HW215026   4.359   4.426   5.552
 2919SOL     OW15027   5.912   0.921   6.500
 2919SOL    HW115028   5.842   0.849   6.500
 2919SOL    HW215029   5.918   0.961   6.408
 2920SOL     OW15030   0.101   3.865   6.153
 2920SOL    HW115031   0.081   3.767   6.161
 2920SOL    HW215032   0.154   3.894   6.232
 2921SOL     OW15033   6.280   0.438   5.718
 2921SOL    HW115034   6.188   0.437   5.758
 2921SOL    HW215035   6.332   0.361   5.752
 2922SOL     OW15036   1.308   1.329   6.376
 2922SOL    HW115037   1.280   1.234   6.366
 2922SOL    HW215038   1.278   1.364   6.465
 2923SOL     OW15039   2.967   6.246   5.172
 2923SOL    HW115040   2.935   6.205   5.086
 2923SOL    HW215041   3.033   6.318   5.152
 2924SOL     OW15042   4.912   2.309   5.895
 2924SOL    HW115043   4.895   2.237   5.962
 2924SOL    HW215044   4.964   2.383   5.938
 2925SOL     OW15045   1.186   2.364   0.224
 2925SOL    HW115046   1.193   2.339   0.321
 2925SOL    HW215047   1.099   2.411   0.208
 2926SOL     OW15048   0.136   1.990   1.545
 2926SOL    HW115049   0.097   1.905   1.580
 2926SOL    HW215050   0.063   2.054   1.524
 2927SOL     OW15051   5.683   2.080   6.510
 2927SOL    HW115052   5.585   2.098   6.496
 2927SOL    HW215053   5.696   2.041   0.032
 2928SOL     OW15054   0.550   1.171   5.527
 2928SOL    HW115055   0.605   1.247   5.494
 2928SOL    HW215056   0.513   1.192   5.617
 2929SOL     OW15057   3.667   3.073   5.313
 2929SOL    HW115058   3.635   3.033   5.228
 2929SOL    HW215059   3.631   3.166   5.323
 2930SOL     OW15060   5.141   3.903   1.727
 2930SOL    HW115061   5.075   3.891   1.802
 2930SOL    HW215062   5.229   3.933   1.765
 2931SOL     OW15063   4.450   3.486   0.205
 2931SOL    HW115064   4.518   3.532   0.262
 2931SOL    HW215065   4.364   3.536   0.210
 2932SOL     OW15066   2.654   6.107   6.171
 2932SOL    HW115067   2.662   6.009   6.192
 2932SOL    HW215068   2.679   6.122   6.075
 2933SOL     OW15069   5.810   0.512   0.997
 2933SOL    HW115070   5.748   0.474   0.928
 2933SOL    HW215071   5.757   0.537   1.078
 2934SOL     OW15072   2.398   2.181   0.459
 2934SOL    HW115073   2.492   2.214   0.447
 2934SOL    HW215074   2.335   2.243   0.414
 2935SOL     OW15075   4.794   0.545   1.428
 2935SOL    HW115076   4.866   0.476   1.438
 2935SOL    HW215077   4.709   0.511   1.469
 2936SOL     OW15078   1.810   1.064   5.972
 2936SOL    HW115079   1.832   1.008   5.892
 2936SOL    HW215080   1.872   1.143   5.975
 2937SOL     OW15081   3.715   1.116   6.174
 2937SOL    HW115082   3.801   1.078   6.208
 2937SOL    HW215083   3.639   1.055   6.198
 2938SOL     OW15084   1.944   5.796   0.150
 2938SOL    HW115085   1.940   5.892   0.125
 2938SOL    HW215086   1.954   5.740   0.067
 2939SOL     OW15087   5.477   6.180   0.424
 2939SOL    HW115088   5.542   6.251   0.396
 2939SOL    HW215089   5.484   6.102   0.362
 2940SOL     OW15090   4.158   0.261   1.199
 2940SOL    HW115091   4.085   0.311   1.244
 2940SOL    HW215092   4.240   0.262   1.256
 2941SOL     OW15093   0.455   0.216   6.448
 2941SOL    HW115094   0.406   0.290   6.495
 2941SOL    HW215095   0.541   0.251   6.411
 2942SOL     OW15096   2.439   5.637   0.014
 2942SOL    HW115097   2.410   5.584   0.093
 2942SOL    HW215098   2.412   5.591   6.500
 2943SOL     OW15099   1.351   1.397   5.998
 2943SOL    HW115100   1.384   1.486   6.031
 2943SOL    HW215101   1.251   1.400   5.988
 2944SOL     OW15102   0.751   2.346   0.526
 2944SOL    HW115103   0.656   2.367   0.549
 2944SOL    HW215104   0.760   2.338   0.427
 2945SOL     OW15105   3.856   0.212   0.107
 2945SOL    HW115106   3.808   0.152   0.172
 2945SOL    HW215107   3.790   0.247   0.040
 2946SOL     OW15108   1.530   3.434   5.161
 2946SOL    HW115109   1.551   3.407   5.067
 2946SOL    HW215110   1.555   3.530   5.174
 2947SOL     OW15111   3.075   1.892   5.337
 2947SOL    HW115112   3.161   1.863   5.294
 2947SOL    HW215113   2.999   1.846   5.292
 2948SOL     OW15114   5.389   2.732   0.257
 2948SOL    HW115115   5.481   2.773   0.253
 2948SOL    HW215116   5.349   2.733   0.166
 2949SOL     OW15117   5.062   1.745   1.512
 2949SOL    HW115118   5.070   1.774   1.607
 2949SOL    HW215119   4.992   1.674   1.504
 2950SOL     OW15120   1.624   4.015   5.426
 2950SOL    HW115121   1.721   3.991   5.432
 2950SOL    HW215122   1.598   4.026   5.330
 2951SOL     OW15123   3.145   5.762   6.551
 2951SOL    HW115124   3.189   5.693   6.493
 2951SOL    HW215125   3.185   5.852   6.533
 2952SOL     OW15126   2.697   1.641   0.195
 2952SOL    HW115127   2.749   1.683   0.269
 2952SOL    HW215128   2.699   1.541   0.205
 2953SOL     OW15129   1.687   5.552   0.287
 2953SOL    HW115130   1.703   5.645   0.320
 2953SOL    HW215131   1.589   5.531   0.291
 2954SOL     OW15132   5.809   4.118   0.305
 2954SOL    HW115133   5.785   4.174   0.226
 2954SOL    HW215134   5.888   4.157   0.351
 2955SOL     OW15135   3.620   4.717   1.928
 2955SOL    HW115136   3.609   4.621   1.955
 2955SOL    HW215137   3.575   4.732   1.840
 2956SOL     OW15138   3.060   4.705   5.950
 2956SOL    HW115139   3.093   4.679   6.041
 2956SOL    HW215140   3.064   4.804   5.940
 2957SOL     OW15141   3.303   1.527   0.633
 2957SOL    HW115142   3.337   1.616   0.604
 2957SOL    HW215143   3.228   1.499   0.573
 2958SOL     OW15144   3.738   2.002   5.710
 2958SOL    HW115145   3.731   2.101   5.696
 2958SOL    HW215146   3.668   1.956   5.655
 2959SOL     OW15147   4.251   0.344   0.417
 2959SOL    HW115148   4.251   0.389   0.506
 2959SOL    HW215149   4.157   0.320   0.392
 2960SOL     OW15150   4.682   0.568   6.430
 2960SOL    HW115151   4.773   0.597   6.402
 2960SOL    HW215152   4.689   0.512   6.513
 2961SOL     OW15153   4.178   5.735   1.596
 2961SOL    HW115154   4.267   5.694   1.615
 2961SOL    HW215155   4.116   5.718   1.672
 2962SOL     OW15156   4.436   0.091   6.079
 2962SOL    HW115157   4.430   6.398   6.059
 2962SOL    HW215158   4.357   0.138   6.041
 2963SOL     OW15159   3.562   4.963   1.160
 2963SOL    HW115160   3.466   4.950   1.137
 2963SOL    HW215161   3.570   5.016   1.244
 2964SOL     OW15162   2.387   4.428   0.809
 2964SOL    HW115163   2.395   4.516   0.855
 2964SOL    HW215164   2.297   4.389   0.829
 2965SOL     OW15165   1.026   5.008   1.556
 2965SOL    HW115166   0.983   4.936   1.609
 2965SOL    HW215167   1.121   5.018   1.584
 2966SOL     OW15168   1.217   1.997   5.332
 2966SOL    HW115169   1.275   2.036   5.260
 2966SOL    HW215170   1.210   1.898   5.319
 2967SOL     OW15171   1.363   2.769   6.382
 2967SOL    HW115172   1.396   2.677   6.364
 2967SOL    HW215173   1.327   2.774   6.475
 2968SOL     OW15174   5.151   6.315   6.505
 2968SOL    HW115175   5.137   6.273   6.415
 2968SOL    HW215176   5.245   6.299   6.535
 2969SOL     OW15177   1.681   4.997   1.473
 2969SOL    HW115178   1.761   5.050   1.498
 2969SOL    HW215179   1.696   4.901   1.497
 2970SOL     OW15180   0.345   1.595   5.188
 2970SOL    HW115181   0.388   1.555   5.108
 2970SOL    HW215182   0.330   1.693   5.173
 2971SOL     OW15183   6.083   2.357   6.311
 2971SOL    HW115184   6.045   2.274   6.272
 2971SOL    HW215185   6.013   2.429   6.312
 2972SOL     OW15186   2.908   0.704   0.766
 2972SOL    HW115187   2.812   0.718   0.789
 2972SOL    HW215188   2.924   0.607   0.746
 2973SOL     OW15189   1.270   2.532   4.879
 2973SOL    HW115190   1.283   2.447   4.931
 2973SOL    HW215191   1.258   2.511   4.782
 2974SOL     OW15192   2.657   5.840   6.194
 2974SOL    HW115193   2.576   5.804   6.148
 2974SOL    HW215194   2.736   5.782   6.172
 2975SOL     OW15195   3.106   2.995   1.640
 2975SOL    HW115196   3.108   2.900   1.671
 2975SOL    HW215197   3.025   3.040   1.677
 2976SOL     OW15198   5.189   4.949   0.021
 2976SOL    HW115199   5.090   4.948   0.041
 2976SOL    HW215200   5.207   5.019   6.521
 2977SOL     OW15201   3.389   2.292   5.183
 2977SOL    HW115202   3.429   2.341   5.105
 2977SOL    HW215203   3.370   2.198   5.157
 2978SOL     OW15204   5.753   1.995   6.127
 2978SOL    HW115205   5.659   1.978   6.159
 2978SOL    HW215206   5.750   2.025   6.032
 2979SOL     OW15207   4.574   0.469   6.193
 2979SOL    HW115208   4.489   0.518   6.171
 2979SOL    HW215209   4.610   0.503   6.280
 2980SOL     OW15210   5.558   3.582   5.637
 2980SOL    HW115211   5.481   3.619   5.585
 2980SOL    HW215212   5.549   3.482   5.643
 2981SOL     OW15213   4.201   2.443   0.829
 2981SOL    HW115214   4.108   2.429   0.862
 2981SOL    HW215215   4.208   2.413   0.734
 2982SOL     OW15216   3.053   4.981   5.899
 2982SOL    HW115217   2.966   4.976   5.850
 2982SOL    HW215218   3.119   5.033   5.844
 2983SOL     OW15219   5.934   3.901   1.039
 2983SOL    HW115220   5.850   3.904   0.984
 2983SOL    HW215221   5.926   3.829   1.108
 2984SOL     OW15222   3.219   5.546   5.942
 2984SOL    HW115223   3.155   5.487   5.891
 2984SOL    HW215224   3.307   5.499   5.951
 2985SOL     OW15225   3.274   5.264   0.297
 2985SOL    HW115226   3.195   5.221   0.341
 2985SOL    HW215227   3.357   5.217   0.326
 2986SOL     OW15228   5.251   3.467   0.227
 2986SOL    HW115229   5.188   3.394   0.251
 2986SOL    HW215230   5.281   3.514   0.309
 2987SOL     OW15231   1.669   3.447   1.119
 2987SOL    HW115232   1.597   3.425   1.052
 2987SOL    HW215233   1.652   3.538   1.157
 2988SOL     OW15234   4.617   5.995   5.717
 2988SOL    HW115235   4.688   6.000   5.647
 2988SOL    HW215236   4.552   6.070   5.704
 2989SOL     OW15237   3.154   5.351   0.908
 2989SOL    HW115238   3.213   5.301   0.972
 2989SOL    HW215239   3.186   5.336   0.815
 2990SOL     OW15240   3.656   6.177   1.696
 2990SOL    HW115241   3.628   6.273   1.700
 2990SOL    HW215242   3.615   6.127   1.772
 2991SOL     OW15243   0.819   1.989   0.939
 2991SOL    HW115244   0.783   2.027   1.024
 2991SOL    HW215245   0.758   1.916   0.907
 2992SOL     OW15246   1.149   0.290   6.495
 2992SOL    HW115247   1.135   0.265   0.021
 2992SOL    HW215248   1.157   0.390   6.487
 2993SOL     OW15249   2.506   1.265   0.386
 2993SOL    HW115250   2.559   1.216   0.454
 2993SOL    HW215251   2.568   1.307   0.320
 2994SOL     OW15252   2.303   3.114   6.523
 2994SOL    HW115253   2.275   3.208   6.540
 2994SOL    HW215254   2.390   3.096   6.569
 2995SOL     OW15255   1.378   2.138   6.426
 2995SOL    HW115256   1.431   2.091   6.355
 2995SOL    HW215257   1.399   2.235   6.423
 2996SOL     OW15258   0.099   4.254   0.862
 2996SOL    HW115259   0.175   4.215   0.810
 2996SOL    HW215260   0.133   4.327   0.922
 2997SOL     OW15261   0.050   5.516   0.253
 2997SOL    HW115262   0.011   5.560   0.172
 2997SOL    HW215263   6.311   5.471   0.304
 2998SOL     OW15264   4.387   2.609   6.154
 2998SOL    HW115265   4.479   2.641   6.174
 2998SOL    HW215266   4.329   2.688   6.132
 2999SOL     OW15267   3.323   4.635   0.638
 2999SOL    HW115268   3.369   4.555   0.601
 2999SOL    HW215269   3.224   4.622   0.635
 3000SOL     OW15270   5.101   0.112   0.126
 3000SOL    HW115271   5.109   0.033   0.065
 3000SOL    HW215272   5.049   0.184   0.081
 3001SOL     OW15273   2.877   2.534   0.036
 3001SOL    HW115274   2.866   2.487   6.518
 3001SOL    HW215275   2.897   2.630   0.019
 3002SOL     OW15276   5.532   3.719   0.531
 3002SOL    HW115277   5.577   3.803   0.501
 3002SOL    HW215278   5.599   3.660   0.578
 3003SOL     OW15279   4.619   1.961   0.859
 3003SOL    HW115280   4.553   1.972   0.785
 3003SOL    HW215281   4.586   2.008   0.941
 3004SOL     OW15282   4.581   5.886   0.119
 3004SOL    HW115283   4.626   5.903   0.207
 3004SOL    HW215284   4.644   5.840   0.057
 3005SOL     OW15285   5.752   2.052   5.206
 3005SOL    HW115286   5.769   1.957   5.180
 3005SOL    HW215287   5.753   2.109   5.124
 3006SOL     OW15288   0.966   1.046   6.494
 3006SOL    HW115289   0.930   0.965   6.448
 3006SOL    HW215290   0.956   1.035   0.023
 3007SOL     OW15291   5.477   4.159   1.049
 3007SOL    HW115292   5.499   4.096   1.124
 3007SOL    HW215293   5.378   4.160   1.035
 3008SOL     OW15294   1.246   4.107   0.981
 3008SOL    HW115295   1.320   4.041   0.968
 3008SOL    HW215296   1.285   4.197   0.998
 3009SOL     OW15297   3.880   3.277   6.271
 3009SOL    HW115298   3.826   3.205   6.228
 3009SOL    HW215299   3.949   3.236   6.331
 3010SOL     OW15300   0.095   0.104   0.574
 3010SOL    HW115301   0.113   0.164   0.496
 3010SOL    HW215302   0.040   0.025   0.544
 3011SOL     OW15303   2.601   0.486   6.281
 3011SOL    HW115304   2.587   0.552   6.207
 3011SOL    HW215305   2.599   0.533   6.369
 3012SOL     OW15306   0.950   0.187   6.333
 3012SOL    HW115307   1.020   0.225   6.393
 3012SOL    HW215308   0.956   0.229   6.243
 3013SOL     OW15309   1.092   3.512   5.676
 3013SOL    HW115310   1.165   3.580   5.684
 3013SOL    HW215311   1.124   3.436   5.620
 3014SOL     OW15312   5.055   1.685   0.749
 3014SOL    HW115313   5.111   1.762   0.778
 3014SOL    HW215314   4.960   1.715   0.739
 3015SOL     OW15315   3.774   5.624   0.246
 3015SOL    HW115316   3.784   5.692   0.318
 3015SOL    HW215317   3.802   5.663   0.159
 3016SOL     OW15318   0.117   2.583   5.666
 3016SOL    HW115319   0.139   2.492   5.630
 3016SOL    HW215320   0.107   2.647   5.589
 3017SOL     OW15321   5.060   1.267   6.271
 3017SOL    HW115322   5.061   1.184   6.326
 3017SOL    HW215323   5.144   1.270   6.216
 3018SOL     OW15324   5.174   0.145   0.589
 3018SOL    HW115325   5.258   0.124   0.538
 3018SOL    HW215326   5.178   0.103   0.679
 3019SOL     OW15327   2.151   3.597   1.082
 3019SOL    HW115328   2.192   3.563   1.166
 3019SOL    HW215329   2.066   3.547   1.063
 3020SOL     OW15330   4.324   6.196   0.335
 3020SOL    HW115331   4.358   6.169   0.245
 3020SOL    HW215332   4.401   6.221   0.394
 3021SOL     OW15333   5.737   0.433   5.177
 3021SOL    HW115334   5.727   0.363   5.106
 3021SOL    HW215335   5.766   0.519   5.136
 3022SOL     OW15336   6.042   0.393   1.072
 3022SOL    HW115337   5.962   0.444   1.040
 3022SOL    HW215338   6.044   0.396   1.172
 3023SOL     OW15339   4.834   3.208   5.761
 3023SOL    HW115340   4.862   3.276   5.693
 3023SOL    HW215341   4.873   3.119   5.738
 3024SOL     OW15342   2.628   0.355   1.726
 3024SOL    HW115343   2.655   0.448   1.704
 3024SOL    HW215344   2.531   0.353   1.753
 3025SOL     OW15345   1.554   0.197   1.352
 3025SOL    HW115346   1.642   0.149   1.359
 3025SOL    HW215347   1.549   0.267   1.424
 3026SOL     OW15348   4.007   3.758   5.416
 3026SOL    HW115349   4.008   3.795   5.324
 3026SOL    HW215350   4.062   3.675   5.420
 3027SOL     OW15351   2.385   2.745   6.179
 3027SOL    HW115352   2.340   2.830   6.152
 3027SOL    HW215353   2.459   2.725   6.115
 3028SOL     OW15354   4.680   3.754   5.767
 3028SOL    HW115355   4.740   3.724   5.692
 3028SOL    HW215356   4.725   3.735   5.854
 3029SOL     OW15357   5.396   5.632   5.531
 3029SOL    HW115358   5.422   5.664   5.440
 3029SOL    HW215359   5.324   5.562   5.522
 3030SOL     OW15360   0.826   1.279   6.447
 3030SOL    HW115361   0.877   1.195   6.462
 3030SOL    HW215362   0.883   1.358   6.469
 3031SOL     OW15363   1.957   2.148   6.101
 3031SOL    HW115364   2.014   2.080   6.148
 3031SOL    HW215365   1.976   2.239   6.139
 3032SOL     OW15366   5.872   5.623   5.631
 3032SOL    HW115367   5.777   5.591   5.622
 3032SOL    HW215368   5.898   5.672   5.549
 3033SOL     OW15369   4.608   4.332   6.436
 3033SOL    HW115370   4.603   4.406   6.369
 3033SOL    HW215371   4.527   4.335   6.495
 3034SOL     OW15372   5.390   3.970   6.093
 3034SOL    HW115373   5.399   3.943   5.997
 3034SOL    HW215374   5.379   3.889   6.150
 3035SOL     OW15375   2.568   4.173   5.187
 3035SOL    HW115376   2.604   4.174   5.094
 3035SOL    HW215377   2.483   4.120   5.190
 3036SOL     OW15378   4.698   6.008   5.246
 3036SOL    HW115379   4.785   6.051   5.271
 3036SOL    HW215380   4.698   5.987   5.148
 3037SOL     OW15381   2.405   5.982   0.996
 3037SOL    HW115382   2.467   5.956   1.071
 3037SOL    HW215383   2.341   5.907   0.979
 3038SOL     OW15384   4.963   1.876   5.364
 3038SOL    HW115385   5.009   1.793   5.330
 3038SOL    HW215386   4.953   1.941   5.288
 3039SOL     OW15387   4.462   3.351   6.053
 3039SOL    HW115388   4.415   3.433   6.084
 3039SOL    HW215389   4.484   3.359   5.956
 3040SOL     OW15390   1.359   3.010   5.621
 3040SOL    HW115391   1.285   2.946   5.637
 3040SOL    HW215392   1.349   3.051   5.530
 3041SOL     OW15393   5.198   6.222   5.608
 3041SOL    HW115394   5.129   6.210   5.680
 3041SOL    HW215395   5.158   6.272   5.531
 3042SOL     OW15396   4.530   1.754   6.124
 3042SOL    HW115397   4.587   1.822   6.077
 3042SOL    HW215398   4.438   1.792   6.139
 3043SOL     OW15399   3.722   1.880   1.169
 3043SOL    HW115400   3.653   1.952   1.165
 3043SOL    HW215401   3.779   1.893   1.250
 3044SOL     OW15402   5.625   2.563   1.129
 3044SOL    HW115403   5.653   2.601   1.041
 3044SOL    HW215404   5.706   2.539   1.182
 3045SOL     OW15405   0.677   4.781   5.656
 3045SOL    HW115406   0.624   4.810   5.576
 3045SOL    HW215407   0.738   4.706   5.630
 3046SOL     OW15408   0.555   1.004   6.417
 3046SOL    HW115409   0.623   1.027   6.348
 3046SOL    HW215410   0.484   0.947   6.376
 3047SOL     OW15411   4.831   2.783   5.896
 3047SOL    HW115412   4.829   2.694   5.851
 3047SOL    HW215413   4.881   2.775   5.983
 3048SOL     OW15414   3.495   2.133   4.686
 3048SOL    HW115415   3.418   2.070   4.695
 3048SOL    HW215416   3.581   2.083   4.699
 3049SOL     OW15417   0.896   4.148   6.326
 3049SOL    HW115418   0.982   4.104   6.301
 3049SOL    HW215419   0.820   4.090   6.298
 3050SOL     OW15420   3.899   4.231   5.982
 3050SOL    HW115421   3.919   4.312   5.926
 3050SOL    HW215422   3.850   4.259   6.064
 3051SOL     OW15423   2.423   2.491   5.930
 3051SOL    HW115424   2.498   2.553   5.955
 3051SOL    HW215425   2.355   2.490   6.003
 3052SOL     OW15426   4.741   3.101   0.701
 3052SOL    HW115427   4.789   3.189   0.702
 3052SOL    HW215428   4.799   3.032   0.659
 3053SOL     OW15429   3.933   0.071   0.966
 3053SOL    HW115430   4.033   0.072   0.970
 3053SOL    HW215431   3.904   0.035   0.877
 3054SOL     OW15432   0.539   3.946   0.895
 3054SOL    HW115433   0.574   3.885   0.825
 3054SOL    HW215434   0.439   3.948   0.891
 3055SOL     OW15435   3.981   0.706   6.410
 3055SOL    HW115436   4.059   0.667   6.459
 3055SOL    HW215437   3.912   0.736   6.476
 3056SOL     OW15438   4.344   3.583   6.129
 3056SOL    HW115439   4.397   3.625   6.204
 3056SOL    HW215440   4.249   3.572   6.158
 3057SOL     OW15441   3.741   1.524   0.711
 3057SOL    HW115442   3.655   1.478   0.690
 3057SOL    HW215443   3.774   1.573   0.630
 3058SOL     OW15444   3.937   2.162   6.534
 3058SOL    HW115445   3.866   2.181   0.032
 3058SOL    HW215446   4.012   2.113   0.007
 3059SOL     OW15447   1.112   5.176   6.388
 3059SOL    HW115448   1.053   5.203   6.312
 3059SOL    HW215449   1.117   5.251   6.454
 3060SOL     OW15450   2.362   5.481   6.381
 3060SOL    HW115451   2.433   5.446   6.320
 3060SOL    HW215452   2.310   5.405   6.419
 3061SOL     OW15453   2.605   1.309   5.201
 3061SOL    HW115454   2.518   1.357   5.188
 3061SOL    HW215455   2.630   1.262   5.116
 3062SOL     OW15456   3.016   1.193   0.652
 3062SOL    HW115457   2.970   1.108   0.627
 3062SOL    HW215458   3.104   1.173   0.695
 3063SOL     OW15459   1.907   1.538   1.054
 3063SOL    HW115460   1.972   1.508   1.124
 3063SOL    HW215461   1.819   1.493   1.069
 3064SOL     OW15462   4.806   5.698   1.217
 3064SOL    HW115463   4.853   5.703   1.305
 3064SOL    HW215464   4.715   5.660   1.229
 3065SOL     OW15465   5.838   3.254   5.842
 3065SOL    HW115466   5.792   3.305   5.916
 3065SOL    HW215467   5.877   3.319   5.777
 3066SOL     OW15468   6.024   1.861   0.202
 3066SOL    HW115469   5.974   1.920   0.265
 3066SOL    HW215470   5.961   1.798   0.158
 3067SOL     OW15471   3.987   1.615   4.916
 3067SOL    HW115472   4.062   1.594   4.853
 3067SOL    HW215473   3.933   1.691   4.879
 3068SOL     OW15474   0.466   5.241   0.061
 3068SOL    HW115475   0.439   5.191   0.143
 3068SOL    HW215476   0.548   5.199   0.022
 3069SOL     OW15477   3.740   4.885   5.386
 3069SOL    HW115478   3.752   4.928   5.297
 3069SOL    HW215479   3.697   4.951   5.449
 3070SOL     OW15480   5.722   1.162   0.482
 3070SOL    HW115481   5.739   1.198   0.574
 3070SOL    HW215482   5.699   1.237   0.420
 3071SOL     OW15483   3.882   3.489   0.987
 3071SOL    HW115484   3.912   3.408   0.936
 3071SOL    HW215485   3.904   3.572   0.935
 3072SOL     OW15486   5.005   1.349   0.602
 3072SOL    HW115487   4.960   1.416   0.543
 3072SOL    HW215488   4.965   1.354   0.694
 3073SOL     OW15489   3.569   5.286   5.119
 3073SOL    HW115490   3.511   5.358   5.079
 3073SOL    HW215491   3.600   5.225   5.046
 3074SOL     OW15492   3.505   1.358   0.693
 3074SOL    HW115493   3.488   1.313   0.781
 3074SOL    HW215494   3.432   1.424   0.675
 3075SOL     OW15495   2.343   5.475   0.213
 3075SOL    HW115496   2.278   5.546   0.241
 3075SOL    HW215497   2.299   5.386   0.217
 3076SOL     OW15498   4.098   0.082   0.069
 3076SOL    HW115499   4.096   0.015   0.143
 3076SOL    HW215500   4.014   0.137   0.071
 3077SOL     OW15501   4.374   0.649   6.123
 3077SOL    HW115502   4.386   0.662   6.025
 3077SOL    HW215503   4.278   0.664   6.146
 3078SOL     OW15504   1.836   4.369   0.421
 3078SOL    HW115505   1.788   4.307   0.483
 3078SOL    HW215506   1.836   4.462   0.459
 3079SOL     OW15507   4.762   2.879   6.371
 3079SOL    HW115508   4.747   2.972   6.335
 3079SOL    HW215509   4.825   2.884   6.448
 3080SOL     OW15510   3.185   0.007   1.617
 3080SOL    HW115511   3.208   6.342   1.549
 3080SOL    HW215512   3.240   6.397   1.699
 3081SOL     OW15513   1.984   4.747   6.515
 3081SOL    HW115514   1.944   4.772   6.427
 3081SOL    HW215515   1.952   4.656   6.542
 3082SOL     OW15516   0.220   0.080   0.814
 3082SOL    HW115517   0.180   0.088   0.723
 3082SOL    HW215518   0.185   0.154   0.872
 3083SOL     OW15519   2.771   3.173   6.493
 3083SOL    HW115520   2.750   3.226   6.410
 3083SOL    HW215521   2.687   3.133   6.529
 3084SOL     OW15522   0.831   1.588   6.270
 3084SOL    HW115523   0.901   1.612   6.202
 3084SOL    HW215524   0.876   1.561   6.355
 3085SOL     OW15525   1.784   3.670   0.286
 3085SOL    HW115526   1.714   3.638   0.350
 3085SOL    HW215527   1.746   3.672   0.193
 3086SOL     OW15528   2.011   3.356   0.151
 3086SOL    HW115529   2.091   3.345   0.092
 3086SOL    HW215530   2.018   3.443   0.200
 3087SOL     OW15531   3.613   5.490   0.717
 3087SOL    HW115532   3.540   5.513   0.652
 3087SOL    HW215533   3.696   5.465   0.666
 3088SOL     OW15534   1.404   3.024   0.041
 3088SOL    HW115535   1.475   3.014   6.540
 3088SOL    HW215536   1.359   2.936   0.056
 3089SOL     OW15537   3.941   2.172   6.078
 3089SOL    HW115538   3.996   2.209   6.003
 3089SOL    HW215539   3.939   2.238   6.153
 3090SOL     OW15540   4.369   4.016   1.708
 3090SOL    HW115541   4.403   4.102   1.746
 3090SOL    HW215542   4.313   3.969   1.776
 3091SOL     OW15543   4.931   2.958   5.712
 3091SOL    HW115544   5.030   2.964   5.724
 3091SOL    HW215545   4.892   2.895   5.779
 3092SOL     OW15546   5.856   3.510   0.383
 3092SOL    HW115547   5.866   3.421   0.338
 3092SOL    HW215548   5.878   3.583   0.319
 3093SOL     OW15549   0.957   4.262   0.008
 3093SOL    HW115550   1.028   4.326   6.549
 3093SOL    HW215551   0.915   4.220   6.497
 3094SOL     OW15552   0.479   6.250   0.371
 3094SOL    HW115553   0.512   6.291   0.457
 3094SOL    HW215554   0.402   6.190   0.390
 3095SOL     OW15555   4.681   3.947   1.450
 3095SOL    HW115556   4.589   3.913   1.469
 3095SOL    HW215557   4.695   4.033   1.498
 3096SOL     OW15558   2.041   6.036   6.147
 3096SOL    HW115559   2.093   5.996   6.223
 3096SOL    HW215560   2.050   6.135   6.150
 3097SOL     OW15561   4.363   5.775   1.236
 3097SOL    HW115562   4.314   5.835   1.172
 3097SOL    HW215563   4.299   5.710   1.277
 3098SOL     OW15564   5.565   0.691   5.712
 3098SOL    HW115565   5.525   0.749   5.641
 3098SOL    HW215566   5.581   0.746   5.794
 3099SOL     OW15567   0.426   0.305   5.797
 3099SOL    HW115568   0.406   0.403   5.802
 3099SOL    HW215569   0.494   0.281   5.867
 3100SOL     OW15570   1.436   3.969   5.605
 3100SOL    HW115571   1.513   3.985   5.544
 3100SOL    HW215572   1.364   3.920   5.557
 3101SOL     OW15573   1.166   6.297   0.261
 3101SOL    HW115574   1.131   6.214   0.217
 3101SOL    HW215575   1.116   6.313   0.346
 3102SOL     OW15576   3.054   2.481   0.240
 3102SOL    HW115577   2.990   2.484   0.163
 3102SOL    HW215578   3.082   2.574   0.263
 3103SOL     OW15579   1.828   3.539   5.994
 3103SOL    HW115580   1.795   3.625   6.033
 3103SOL    HW215581   1.749   3.484   5.964
 3104SOL     OW15582   3.791   4.657   0.944
 3104SOL    HW115583   3.885   4.625   0.934
 3104SOL    HW215584   3.760   4.640   1.038
 3105SOL     OW15585   4.925   1.896   0.279
 3105SOL    HW115586   5.014   1.941   0.282
 3105SOL    HW215587   4.893   1.890   0.185
 3106SOL     OW15588   6.157   6.005   6.034
 3106SOL    HW115589   6.207   5.919   6.043
 3106SOL    HW215590   6.193   6.071   6.099
 3107SOL     OW15591   1.987   0.156   6.175
 3107SOL    HW115592   1.958   0.203   6.092
 3107SOL    HW215593   2.027   0.068   6.152
 3108SOL     OW15594   5.125   3.929   1.031
 3108SOL    HW115595   5.180   3.891   0.958
 3108SOL    HW215596   5.128   3.869   1.111
 3109SOL     OW15597   0.263   0.502   0.921
 3109SOL    HW115598   0.323   0.500   1.001
 3109SOL    HW215599   0.218   0.591   0.916
 3110SOL     OW15600   2.324   4.947   5.823
 3110SOL    HW115601   2.226   4.967   5.822
 3110SOL    HW215602   2.357   4.940   5.729
 3111SOL     OW15603   5.500   3.284   6.452
 3111SOL    HW115604   5.538   3.375   6.432
 3111SOL    HW215605   5.494   3.272   6.551
 3112SOL     OW15606   4.474   0.170   0.420
 3112SOL    HW115607   4.391   0.227   0.421
 3112SOL    HW215608   4.450   0.076   0.446
 3113SOL     OW15609   2.073   2.958   6.511
 3113SOL    HW115610   2.158   3.010   6.518
 3113SOL    HW215611   2.000   3.008   6.558
 3114SOL     OW15612   2.379   6.250   0.952
 3114SOL    HW115613   2.383   6.150   0.965
 3114SOL    HW215614   2.315   6.271   0.878
 3115SOL     OW15615   5.044   0.969   6.082
 3115SOL    HW115616   5.137   0.957   6.117
 3115SOL    HW215617   4.978   0.945   6.153
 3116SOL     OW15618   2.660   4.049   5.422
 3116SOL    HW115619   2.626   4.100   5.343
 3116SOL    HW215620   2.679   3.955   5.394
 3117SOL     OW15621   3.759   3.228   0.274
 3117SOL    HW115622   3.684   3.171   0.306
 3117SOL    HW215623   3.846   3.183   0.294
 3118SOL     OW15624   2.541   0.196   5.764
 3118SOL    HW115625   2.453   0.169   5.723
 3118SOL    HW215626   2.591   0.253   5.699
 3119SOL     OW15627   1.112   5.806   0.507
 3119SOL    HW115628   1.060   5.863   0.571
 3119SOL    HW215629   1.158   5.865   0.440
 3120SOL     OW15630   1.762   3.419   0.559
 3120SOL    HW115631   1.700   3.496   0.543
 3120SOL    HW215632   1.770   3.364   0.475
 3121SOL     OW15633   4.507   6.226   6.430
 3121SOL    HW115634   4.575   6.298   6.414
 3121SOL    HW215635   4.520   6.153   6.364
 3122SOL     OW15636   5.071   4.350   2.257
 3122SOL    HW115637   5.092   4.258   2.288
 3122SOL    HW215638   5.156   4.402   2.245
 3123SOL     OW15639   0.624   2.021   6.269
 3123SOL    HW115640   0.575   1.995   6.352
 3123SOL    HW215641   0.590   2.110   6.237
 3124SOL     OW15642   1.799   0.093   5.376
 3124SOL    HW115643   1.763   0.175   5.420
 3124SOL    HW215644   1.897   0.084   5.398
 3125SOL     OW15645   4.050   3.368   1.412
 3125SOL    HW115646   4.021   3.437   1.479
 3125SOL    HW215647   4.083   3.287   1.460
 3126SOL     OW15648   1.627   2.380   5.557
 3126SOL    HW115649   1.597   2.316   5.486
 3126SOL    HW215650   1.656   2.328   5.638
 3127SOL     OW15651   3.252   1.138   0.288
 3127SOL    HW115652   3.196   1.209   0.244
 3127SOL    HW215653   3.317   1.181   0.350
 3128SOL     OW15654   5.026   1.063   6.462
 3128SOL    HW115655   4.981   1.137   6.513
 3128SOL    HW215656   5.073   1.003   6.527
 3129SOL     OW15657   1.155   3.134   5.863
 3129SOL    HW115658   1.167   3.035   5.850
 3129SOL    HW215659   1.243   3.180   5.848
 3130SOL     OW15660   3.155   6.234   5.838
 3130SOL    HW115661   3.138   6.150   5.890
 3130SOL    HW215662   3.136   6.217   5.741
 3131SOL     OW15663   5.581   5.709   0.275
 3131SOL    HW115664   5.527   5.675   0.352
 3131SOL    HW215665   5.592   5.636   0.207
 3132SOL     OW15666   1.729   5.824   6.440
 3132SOL    HW115667   1.709   5.857   6.532
 3132SOL    HW215668   1.701   5.893   6.373
 3133SOL     OW15669   6.197   3.328   5.295
 3133SOL    HW115670   6.188   3.236   5.256
 3133SOL    HW215671   6.109   3.359   5.330
 3134SOL     OW15672   0.070   4.904   0.647
 3134SOL    HW115673   0.030   4.813   0.635
 3134SOL    HW215674   0.127   4.925   0.567
 3135SOL     OW15675   4.485   4.760   1.407
 3135SOL    HW115676   4.466   4.848   1.451
 3135SOL    HW215677   4.583   4.740   1.415
 3136SOL     OW15678   3.245   2.836   5.842
 3136SOL    HW115679   3.151   2.814   5.816
 3136SOL    HW215680   3.300   2.752   5.842
 3137SOL     OW15681   6.038   3.475   0.012
 3137SOL    HW115682   6.087   3.421   0.081
 3137SOL    HW215683   5.967   3.420   6.540
 3138SOL     OW15684   0.538   2.063   1.614
 3138SOL    HW115685   0.552   1.964   1.619
 3138SOL    HW215686   0.472   2.090   1.684
 3139SOL     OW15687   1.828   5.345   1.525
 3139SOL    HW115688   1.783   5.362   1.613
 3139SOL    HW215689   1.877   5.258   1.528
 3140SOL     OW15690   2.671   2.428   0.183
 3140SOL    HW115691   2.649   2.340   0.142
 3140SOL    HW215692   2.751   2.467   0.138
 3141SOL     OW15693   0.598   5.140   5.661
 3141SOL    HW115694   0.669   5.172   5.599
 3141SOL    HW215695   0.639   5.085   5.734
 3142SOL     OW15696   2.451   5.565   5.847
 3142SOL    HW115697   2.479   5.641   5.787
 3142SOL    HW215698   2.367   5.524   5.811
 3143SOL     OW15699   1.392   4.275   6.477
 3143SOL    HW115700   1.446   4.327   6.411
 3143SOL    HW215701   1.303   4.320   6.489
 3144SOL     OW15702   5.882   0.121   0.593
 3144SOL    HW115703   5.948   0.106   0.667
 3144SOL    HW215704   5.832   0.206   0.609
 3145SOL     OW15705   4.507   1.273   1.047
 3145SOL    HW115706   4.507   1.190   0.991
 3145SOL    HW215707   4.570   1.261   1.124
 3146SOL     OW15708   2.183   2.631   1.006
 3146SOL    HW115709   2.159   2.716   1.053
 3146SOL    HW215710   2.122   2.558   1.034
 3147SOL     OW15711   6.180   3.880   0.926
 3147SOL    HW115712   6.217   3.792   0.958
 3147SOL    HW215713   6.086   3.890   0.958
 3148SOL     OW15714   5.209   5.628   1.061
 3148SOL    HW115715   5.247   5.558   1.121
 3148SOL    HW215716   5.115   5.605   1.037
 3149SOL     OW15717   0.370   4.982   5.643
 3149SOL    HW115718   0.440   5.051   5.656
 3149SOL    HW215719   0.404   4.910   5.582
 3150SOL     OW15720   6.263   0.452   0.139
 3150SOL    HW115721   6.253   0.367   0.192
 3150SOL    HW215722   6.265   0.430   0.041
 3151SOL     OW15723   2.678   4.472   5.616
 3151SOL    HW115724   2.656   4.426   5.530
 3151SOL    HW215725   2.772   4.453   5.642
 3152SOL     OW15726   1.178   0.563   6.491
 3152SOL    HW115727   1.142   0.615   6.569
 3152SOL    HW215728   1.146   0.603   6.406
 3153SOL     OW15729   6.307   4.519   1.080
 3153SOL    HW115730   0.003   4.545   1.171
 3153SOL    HW215731   6.288   4.602   1.026
 3154SOL     OW15732   3.977   5.460   0.322
 3154SOL    HW115733   3.904   5.517   0.283
 3154SOL    HW215734   4.005   5.393   0.254
 3155SOL     OW15735   1.283   2.313   6.079
 3155SOL    HW115736   1.228   2.368   6.141
 3155SOL    HW215737   1.260   2.216   6.091
 3156SOL     OW15738   3.612   5.362   0.960
 3156SOL    HW115739   3.651   5.273   0.936
 3156SOL    HW215740   3.597   5.416   0.877
 3157SOL     OW15741   3.023   4.072   1.071
 3157SOL    HW115742   3.029   4.170   1.090
 3157SOL    HW215743   2.977   4.026   1.146
 3158SOL     OW15744   2.316   3.338   0.842
 3158SOL    HW115745   2.291   3.250   0.801
 3158SOL    HW215746   2.298   3.336   0.940
 3159SOL     OW15747   3.087   5.994   5.956
 3159SOL    HW115748   2.997   5.953   5.938
 3159SOL    HW215749   3.110   5.982   6.052
 3160SOL     OW15750   4.946   5.602   0.990
 3160SOL    HW115751   4.891   5.636   1.066
 3160SOL    HW215752   4.931   5.661   0.910
 3161SOL     OW15753   4.852   1.420   6.360
 3161SOL    HW115754   4.931   1.375   6.320
 3161SOL    HW215755   4.768   1.371   6.334
 3162SOL     OW15756   4.182   3.076   0.099
 3162SOL    HW115757   4.256   3.134   0.134
 3162SOL    HW215758   4.215   2.981   0.092
 3163SOL     OW15759   1.073   4.954   1.295
 3163SOL    HW115760   1.052   4.857   1.278
 3163SOL    HW215761   1.053   4.975   1.391
 3164SOL     OW15762   2.557   0.054   6.464
 3164SOL    HW115763   2.593   0.089   6.550
 3164SOL    HW215764   2.630   0.007   6.414
 3165SOL     OW15765   4.938   0.626   6.340
 3165SOL    HW115766   4.929   0.558   6.267
 3165SOL    HW215767   5.029   0.618   6.381
 3166SOL     OW15768   1.784   6.104   0.698
 3166SOL    HW115769   1.826   6.159   0.770
 3166SOL    HW215770   1.711   6.047   0.738
 3167SOL     OW15771   4.434   0.134   6.354
 3167SOL    HW115772   4.525   0.104   6.380
 3167SOL    HW215773   4.426   0.134   6.254
 3168SOL     OW15774   4.821   1.950   1.940
 3168SOL    HW115775   4.741   1.962   1.999
 3168SOL    HW215776   4.865   1.863   1.962
 3169SOL     OW15777   4.568   2.538   0.047
 3169SOL    HW115778   4.572   2.463   6.551
 3169SOL    HW215779   4.526   2.506   0.132
 3170SOL     OW15780   4.254   1.286   1.523
 3170SOL    HW115781   4.213   1.340   1.597
 3170SOL    HW215782   4.208   1.198   1.516
 3171SOL     OW15783   2.410   3.608   0.425
 3171SOL    HW115784   2.474   3.533   0.438
 3171SOL    HW215785   2.348   3.614   0.503
 3172SOL     OW15786   0.401   0.479   1.153
 3172SOL    HW115787   0.332   0.436   1.212
 3172SOL    HW215788   0.492   0.459   1.188
 3173SOL     OW15789   0.595   1.809   0.895
 3173SOL    HW115790   0.633   1.768   0.813
 3173SOL    HW215791   0.550   1.738   0.950
 3174SOL     OW15792   0.595   3.922   0.514
 3174SOL    HW115793   0.654   4.002   0.511
 3174SOL    HW215794   0.623   3.863   0.591
 3175SOL     OW15795   1.121   3.548   6.113
 3175SOL    HW115796   1.176   3.480   6.161
 3175SOL    HW215797   1.181   3.610   6.061
 3176SOL     OW15798   4.454   3.429   5.784
 3176SOL    HW115799   4.518   3.421   5.708
 3176SOL    HW215800   4.436   3.526   5.802
 3177SOL     OW15801   3.132   0.132   0.528
 3177SOL    HW115802   3.150   0.098   0.620
 3177SOL    HW215803   3.044   0.098   0.496
 3178SOL     OW15804   6.064   1.197   0.644
 3178SOL    HW115805   6.153   1.168   0.679
 3178SOL    HW215806   6.077   1.270   0.578
 3179SOL     OW15807   1.706   0.420   5.842
 3179SOL    HW115808   1.723   0.489   5.912
 3179SOL    HW215809   1.730   0.458   5.752
 3180SOL     OW15810   1.676   4.049   1.083
 3180SOL    HW115811   1.648   4.007   1.170
 3180SOL    HW215812   1.707   4.143   1.100
 3181SOL     OW15813   4.381   0.704   0.596
 3181SOL    HW115814   4.346   0.611   0.603
 3181SOL    HW215815   4.327   0.754   0.527
 3182SOL     OW15816   2.112   2.698   0.353
 3182SOL    HW115817   2.162   2.654   0.278
 3182SOL    HW215818   2.175   2.753   0.408
 3183SOL     OW15819   1.073   6.318   0.858
 3183SOL    HW115820   1.128   6.330   0.941
 3183SOL    HW215821   1.006   6.245   0.872
 3184SOL     OW15822   6.042   1.940   0.783
 3184SOL    HW115823   6.116   1.876   0.763
 3184SOL    HW215824   6.051   1.972   0.877
 3185SOL     OW15825   1.669   1.245   0.404
 3185SOL    HW115826   1.634   1.166   0.353
 3185SOL    HW215827   1.748   1.282   0.356
 3186SOL     OW15828   1.529   4.372   0.803
 3186SOL    HW115829   1.517   4.279   0.767
 3186SOL    HW215830   1.622   4.382   0.839
 3187SOL     OW15831   0.747   1.795   1.197
 3187SOL    HW115832   0.819   1.774   1.262
 3187SOL    HW215833   0.763   1.745   1.112
 3188SOL     OW15834   5.795   3.148   0.501
 3188SOL    HW115835   5.810   3.177   0.406
 3188SOL    HW215836   5.864   3.190   0.560
 3189SOL     OW15837   3.111   0.931   0.409
 3189SOL    HW115838   3.163   1.000   0.359
 3189SOL    HW215839   3.117   0.844   0.361
 3190SOL     OW15840   3.560   4.121   1.235
 3190SOL    HW115841   3.480   4.067   1.208
 3190SOL    HW215842   3.597   4.084   1.320
 3191SOL     OW15843   5.366   0.857   0.889
 3191SOL    HW115844   5.366   0.927   0.960
 3191SOL    HW215845   5.429   0.884   0.816
 3192SOL     OW15846   4.211   1.180   1.822
 3192SOL    HW115847   4.156   1.111   1.868
 3192SOL    HW215848   4.280   1.216   1.885
 3193SOL     OW15849   1.433   0.795   0.600
 3193SOL    HW115850   1.453   0.771   0.505
 3193SOL    HW215851   1.383   0.720   0.644
 3194SOL     OW15852   1.889   1.941   5.919
 3194SOL    HW115853   1.914   2.015   5.981
 3194SOL    HW215854   1.903   1.970   5.825
 3195SOL     OW15855   5.355   0.527   0.757
 3195SOL    HW115856   5.430   0.585   0.725
 3195SOL    HW215857   5.287   0.583   0.804
 3196SOL     OW15858   0.521   4.878   0.000
 3196SOL    HW115859   0.508   4.786   6.533
 3196SOL    HW215860   0.443   4.935   6.546
 3197SOL     OW15861   6.073   0.075   0.778
 3197SOL    HW115862   6.128   0.140   0.830
 3197SOL    HW215863   6.122   6.393   0.772
 3198SOL     OW15864   6.077   4.884   0.974
 3198SOL    HW115865   6.153   4.826   0.945
 3198SOL    HW215866   6.085   4.903   1.072
 3199SOL     OW15867   2.985   6.044   6.559
 3199SOL    HW115868   2.946   5.956   0.016
 3199SOL    HW215869   3.076   6.030   6.519
 3200SOL     OW15870   3.897   1.701   6.023
 3200SOL    HW115871   3.929   1.774   6.083
 3200SOL    HW215872   3.901   1.613   6.071
 3201SOL     OW15873   4.343   5.893   5.375
 3201SOL    HW115874   4.294   5.975   5.407
 3201SOL    HW215875   4.279   5.816   5.373
 3202SOL     OW15876   1.437   5.092   1.393
 3202SOL    HW115877   1.372   5.074   1.467
 3202SOL    HW215878   1.529   5.069   1.424
 3203SOL     OW15879   5.337   2.178   5.464
 3203SOL    HW115880   5.392   2.100   5.432
 3203SOL    HW215881   5.253   2.183   5.410
 3204SOL     OW15882   3.153   2.099   6.111
 3204SOL    HW115883   3.201   2.124   6.195
 3204SOL    HW215884   3.074   2.042   6.133
 3205SOL     OW15885   1.807   0.540   5.607
 3205SOL    HW115886   1.907   0.538   5.615
 3205SOL    HW215887   1.778   0.632   5.582
 3206SOL     OW15888   5.902   1.372   1.183
 3206SOL    HW115889   5.829   1.361   1.250
 3206SOL    HW215890   5.987   1.395   1.230
 3207SOL     OW15891   4.117   1.072   6.102
 3207SOL    HW115892   4.055   1.032   6.170
 3207SOL    HW215893   4.069   1.143   6.051
 3208SOL     OW15894   4.541   0.132   1.054
 3208SOL    HW115895   4.530   0.080   1.139
 3208SOL    HW215896   4.516   0.227   1.070
 3209SOL     OW15897   1.636   3.989   6.260
 3209SOL    HW115898   1.589   4.035   6.185
 3209SOL    HW215899   1.577   3.988   6.341
 3210SOL     OW15900   1.810   2.802   5.366
 3210SOL    HW115901   1.908   2.791   5.350
 3210SOL    HW215902   1.782   2.743   5.442
 3211SOL     OW15903   4.956   0.098   6.095
 3211SOL    HW115904   4.980   0.110   6.192
 3211SOL    HW215905   5.040   0.085   6.042
 3212SOL     OW15906   3.550   2.969   5.098
 3212SOL    HW115907   3.485   3.019   5.040
 3212SOL    HW215908   3.601   2.904   5.043
 3213SOL     OW15909   0.620   4.548   0.655
 3213SOL    HW115910   0.542   4.604   0.627
 3213SOL    HW215911   0.705   4.594   0.629
 3214SOL     OW15912   1.492   1.420   0.511
 3214SOL    HW115913   1.479   1.491   0.442
 3214SOL    HW215914   1.556   1.352   0.476
 3215SOL     OW15915   5.630   4.905   6.489
 3215SOL    HW115916   5.698   4.856   6.542
 3215SOL    HW215917   5.541   4.859   6.498
 3216SOL     OW15918   4.785   4.679   0.687
 3216SOL    HW115919   4.704   4.637   0.728
 3216SOL    HW215920   4.757   4.759   0.635
 3217SOL     OW15921   2.467   3.687   5.256
 3217SOL    HW115922   2.398   3.751   5.288
 3217SOL    HW215923   2.430   3.632   5.181
 3218SOL     OW15924   0.624   3.278   0.513
 3218SOL    HW115925   0.709   3.226   0.505
 3218SOL    HW215926   0.571   3.243   0.590
 3219SOL     OW15927   4.325   2.922   0.394
 3219SOL    HW115928   4.245   2.957   0.345
 3219SOL    HW215929   4.331   2.823   0.382
 3220SOL     OW15930   5.083   3.285   0.352
 3220SOL    HW115931   5.008   3.218   0.357
 3220SOL    HW215932   5.061   3.363   0.411
 3221SOL     OW15933   5.942   2.296   0.260
 3221SOL    HW115934   6.006   2.310   0.335
 3221SOL    HW215935   5.990   2.310   0.173
 3222SOL     OW15936   0.427   3.610   5.940
 3222SOL    HW115937   0.520   3.622   5.974
 3222SOL    HW215938   0.405   3.684   5.876
 3223SOL     OW15939   5.525   1.757   0.285
 3223SOL    HW115940   5.470   1.710   0.215
 3223SOL    HW215941   5.464   1.803   0.349
 3224SOL     OW15942   3.342   0.458   0.852
 3224SOL    HW115943   3.263   0.398   0.840
 3224SOL    HW215944   3.380   0.446   0.943
 3225SOL     OW15945   4.171   3.840   0.423
 3225SOL    HW115946   4.104   3.796   0.483
 3225SOL    HW215947   4.135   3.927   0.392
 3226SOL     OW15948   5.251   3.927   0.564
 3226SOL    HW115949   5.330   3.988   0.561
 3226SOL    HW215950   5.247   3.882   0.654
 3227SOL     OW15951   1.963   3.924   0.837
 3227SOL    HW115952   1.883   3.886   0.883
 3227SOL    HW215953   2.035   3.855   0.832
 3228SOL     OW15954   3.394   2.387   5.519
 3228SOL    HW115955   3.385   2.486   5.522
 3228SOL    HW215956   3.325   2.346   5.579
 3229SOL     OW15957   5.791   1.650   0.976
 3229SOL    HW115958   5.726   1.592   1.024
 3229SOL    HW215959   5.884   1.626   1.003
 3230SOL     OW15960   3.402   3.903   0.787
 3230SOL    HW115961   3.320   3.896   0.844
 3230SOL    HW215962   3.450   3.988   0.807
 3231SOL     OW15963   5.358   1.231   0.277
 3231SOL    HW115964   5.435   1.223   0.341
 3231SOL    HW215965   5.317   1.322   0.286
 3232SOL     OW15966   1.972   4.812   1.382
 3232SOL    HW115967   2.037   4.859   1.442
 3232SOL    HW215968   1.888   4.792   1.433
 3233SOL     OW15969   5.615   3.029   0.759
 3233SOL    HW115970   5.675   3.084   0.816
 3233SOL    HW215971   5.668   2.990   0.684
 3234SOL     OW15972   2.384   3.860   0.817
 3234SOL    HW115973   2.287   3.837   0.805
 3234SOL    HW215974   2.422   3.806   0.893
 3235SOL     OW15975   5.917   4.358   6.103
 3235SOL    HW115976   5.857   4.360   6.183
 3235SOL    HW215977   5.927   4.450   6.066
 3236SOL     OW15978   4.646   4.353   0.916
 3236SOL    HW115979   4.550   4.344   0.943
 3236SOL    HW215980   4.654   4.335   0.818
 3237SOL     OW15981   0.450   5.811   1.043
 3237SOL    HW115982   0.503   5.729   1.065
 3237SOL    HW215983   0.453   5.874   1.121
 3238SOL     OW15984   1.152   5.930   6.305
 3238SOL    HW115985   1.131   6.013   6.355
 3238SOL    HW215986   1.249   5.908   6.315
 3239SOL     OW15987   0.380   2.829   1.701
 3239SOL    HW115988   0.407   2.745   1.654
 3239SOL    HW215989   0.289   2.816   1.742
 3240SOL     OW15990   1.036   3.909   0.347
 3240SOL    HW115991   1.048   3.812   0.327
 3240SOL    HW215992   1.066   3.927   0.441
 3241SOL     OW15993   3.342   2.043   5.075
 3241SOL    HW115994   3.432   2.028   5.033
 3241SOL    HW215995   3.278   2.075   5.006
 3242SOL     OW15996   5.572   3.318   0.600
 3242SOL    HW115997   5.629   3.399   0.614
 3242SOL    HW215998   5.629   3.241   0.572
 3243SOL     OW15999   3.803   4.942   5.693
 3243SOL    HW116000   3.834   5.004   5.766
 3243SOL    HW216001   3.721   4.979   5.651
 3244SOL     OW16002   5.777   2.771   6.177
 3244SOL    HW116003   5.714   2.823   6.119
 3244SOL    HW216004   5.820   2.833   6.243
 3245SOL     OW16005   2.045   4.797   6.012
 3245SOL    HW116006   1.965   4.738   6.019
 3245SOL    HW216007   2.125   4.751   6.051
 3246SOL     OW16008   1.766   4.988   5.472
 3246SOL    HW116009   1.822   5.070   5.464
 3246SOL    HW216010   1.779   4.931   5.391
 3247SOL     OW16011   5.206   3.605   0.000
 3247SOL    HW116012   5.278   3.670   6.547
 3247SOL    HW216013   5.233   3.551   0.080
 3248SOL     OW16014   4.823   2.546   1.015
 3248SOL    HW116015   4.796   2.493   1.096
 3248SOL    HW216016   4.846   2.639   1.043
 3249SOL     OW16017   4.783   5.958   1.104
 3249SOL    HW116018   4.785   5.863   1.136
 3249SOL    HW216019   4.876   5.994   1.099
 3250SOL     OW16020   4.141   3.704   5.868
 3250SOL    HW116021   4.116   3.615   5.904
 3250SOL    HW216022   4.240   3.707   5.853
 3251SOL     OW16023   2.630   1.655   5.832
 3251SOL    HW116024   2.623   1.751   5.804
 3251SOL    HW216025   2.720   1.639   5.874
 3252SOL     OW16026   1.559   5.847   5.987
 3252SOL    HW116027   1.647   5.884   6.018
 3252SOL    HW216028   1.523   5.784   6.056
 3253SOL     OW16029   1.478   0.263   5.880
 3253SOL    HW116030   1.559   0.322   5.877
 3253SOL    HW216031   1.500   0.175   5.838
 3254SOL     OW16032   0.187   4.398   0.471
 3254SOL    HW116033   0.268   4.385   0.413
 3254SOL    HW216034   0.215   4.436   0.559
 3255SOL     OW16035   0.927   3.510   0.140
 3255SOL    HW116036   0.943   3.414   0.119
 3255SOL    HW216037   0.830   3.531   0.128
 3256SOL     OW16038   2.258   6.396   1.155
 3256SOL    HW116039   2.309   6.357   1.078
 3256SOL    HW216040   2.320   0.047   1.211
 3257SOL     OW16041   3.748   0.055   0.307
 3257SOL    HW116042   3.707   6.371   0.285
 3257SOL    HW216043   3.730   0.078   0.402
 3258SOL     OW16044   4.774   5.027   0.288
 3258SOL    HW116045   4.699   5.094   0.287
 3258SOL    HW216046   4.836   5.048   0.363
 3259SOL     OW16047   4.298   3.602   1.016
 3259SOL    HW116048   4.388   3.565   0.993
 3259SOL    HW216049   4.273   3.572   1.108
 3260SOL     OW16050   0.077   1.779   0.478
 3260SOL    HW116051   0.134   1.698   0.491
 3260SOL    HW216052   0.012   1.763   0.404
 3261SOL     OW16053   2.344   0.369   0.119
 3261SOL    HW116054   2.312   0.277   0.138
 3261SOL    HW216055   2.441   0.376   0.141
 3262SOL     OW16056   5.281   1.279   0.638
 3262SOL    HW116057   5.194   1.323   0.617
 3262SOL    HW216058   5.355   1.345   0.622
 3263SOL     OW16059   2.754   0.259   0.532
 3263SOL    HW116060   2.660   0.228   0.522
 3263SOL    HW216061   2.816   0.188   0.500
 3264SOL     OW16062   0.547   2.065   5.456
 3264SOL    HW116063   0.604   1.983   5.454
 3264SOL    HW216064   0.588   2.133   5.517
 3265SOL     OW16065   3.832   3.800   6.310
 3265SOL    HW116066   3.894   3.825   6.236
 3265SOL    HW216067   3.805   3.704   6.301
 3266SOL     OW16068   2.062   1.723   0.913
 3266SOL    HW116069   2.126   1.753   0.984
 3266SOL    HW216070   1.996   1.660   0.953
 3267SOL     OW16071   2.538   0.960   0.949
 3267SOL    HW116072   2.587   0.890   0.897
 3267SOL    HW216073   2.442   0.933   0.959
 3268SOL     OW16074   0.780   4.879   6.480
 3268SOL    HW116075   0.685   4.885   6.510
 3268SOL    HW216076   0.807   4.783   6.470
 3269SOL     OW16077   3.378   5.465   0.467
 3269SOL    HW116078   3.475   5.463   0.441
 3269SOL    HW216079   3.324   5.419   0.397
 3270SOL     OW16080   4.738   3.669   5.058
 3270SOL    HW116081   4.826   3.714   5.047
 3270SOL    HW216082   4.686   3.675   4.973
 3271SOL     OW16083   1.097   1.637   0.850
 3271SOL    HW116084   1.148   1.640   0.936
 3271SOL    HW216085   1.160   1.654   0.774
 3272SOL     OW16086   5.139   3.916   1.455
 3272SOL    HW116087   5.129   3.905   1.554
 3272SOL    HW216088   5.147   4.013   1.432
 3273SOL     OW16089   6.147   5.824   0.369
 3273SOL    HW116090   6.086   5.894   0.406
 3273SOL    HW216091   6.144   5.826   0.269
 3274SOL     OW16092   3.741   5.131   0.881
 3274SOL    HW116093   3.704   5.039   0.892
 3274SOL    HW216094   3.819   5.143   0.943
 3275SOL     OW16095   1.326   2.599   1.009
 3275SOL    HW116096   1.302   2.505   1.036
 3275SOL    HW216097   1.349   2.600   0.912
 3276SOL     OW16098   4.505   2.341   1.425
 3276SOL    HW116099   4.496   2.250   1.465
 3276SOL    HW216100   4.542   2.404   1.493
 3277SOL     OW16101   3.425   3.023   6.309
 3277SOL    HW116102   3.501   3.038   6.372
 3277SOL    HW216103   3.342   3.063   6.348
 3278SOL     OW16104   2.030   2.816   6.082
 3278SOL    HW116105   2.051   2.785   6.174
 3278SOL    HW216106   1.956   2.884   6.086
 3279SOL     OW16107   4.295   3.171   1.325
 3279SOL    HW116108   4.348   3.222   1.392
 3279SOL    HW216109   4.215   3.130   1.369
 3280SOL     OW16110   1.802   5.275   0.880
 3280SOL    HW116111   1.731   5.305   0.816
 3280SOL    HW216112   1.760   5.247   0.966
 3281SOL     OW16113   2.214   0.530   6.515
 3281SOL    HW116114   2.164   0.482   6.443
 3281SOL    HW216115   2.262   0.464   0.003
 3282SOL     OW16116   0.196   0.862   0.178
 3282SOL    HW116117   0.280   0.897   0.137
 3282SOL    HW216118   0.144   0.939   0.217
 3283SOL     OW16119   3.691   3.996   1.029
 3283SOL    HW116120   3.655   4.039   1.112
 3283SOL    HW216121   3.642   4.032   0.949
 3284SOL     OW16122   2.297   1.088   0.766
 3284SOL    HW116123   2.289   1.027   0.845
 3284SOL    HW216124   2.329   1.036   0.687
 3285SOL     OW16125   1.175   4.503   0.204
 3285SOL    HW116126   1.080   4.476   0.222
 3285SOL    HW216127   1.219   4.529   0.289
 3286SOL     OW16128   4.664   1.941   5.954
 3286SOL    HW116129   4.601   1.996   5.899
 3286SOL    HW216130   4.700   1.867   5.898
 3287SOL     OW16131   4.008   5.909   1.450
 3287SOL    HW116132   4.080   5.856   1.494
 3287SOL    HW216133   3.941   5.937   1.519
 3288SOL     OW16134   4.539   0.046   1.323
 3288SOL    HW116135   4.637   0.026   1.328
 3288SOL    HW216136   4.490   6.395   1.389
 3289SOL     OW16137   1.513   1.612   0.301
 3289SOL    HW116138   1.604   1.616   0.344
 3289SOL    HW216139   1.522   1.626   0.203
 3290SOL     OW16140   1.586   3.341   4.911
 3290SOL    HW116141   1.530   3.346   4.829
 3290SOL    HW216142   1.682   3.331   4.885
 3291SOL     OW16143   3.063   2.151   0.558
 3291SOL    HW116144   3.133   2.186   0.621
 3291SOL    HW216145   3.078   2.053   0.543
 3292SOL     OW16146   3.679   5.393   6.123
 3292SOL    HW116147   3.680   5.467   6.191
 3292SOL    HW216148   3.659   5.306   6.168
 3293SOL     OW16149   2.874   1.460   6.336
 3293SOL    HW116150   2.868   1.369   6.377
 3293SOL    HW216151   2.869   1.530   6.407
 3294SOL     OW16152   1.573   0.055   4.986
 3294SOL    HW116153   1.527   0.077   4.901
 3294SOL    HW216154   1.546   0.119   5.058
 3295SOL     OW16155   5.296   0.192   6.255
 3295SOL    HW116156   5.204   0.172   6.291
 3295SOL    HW216157   5.317   0.126   6.183
 3296SOL     OW16158   6.076   0.963   0.307
 3296SOL    HW116159   6.117   0.918   0.228
 3296SOL    HW216160   6.133   0.946   0.388
 3297SOL     OW16161   2.509   2.641   0.111
 3297SOL    HW116162   2.516   2.659   0.013
 3297SOL    HW216163   2.567   2.564   0.135
 3298SOL     OW16164   2.592   4.108   6.085
 3298SOL    HW116165   2.658   4.099   6.010
 3298SOL    HW216166   2.595   4.026   6.142
 3299SOL     OW16167   2.939   2.116   0.946
 3299SOL    HW116168   2.961   2.201   0.899
 3299SOL    HW216169   2.945   2.130   1.045
 3300SOL     OW16170   1.597   5.622   1.296
 3300SOL    HW116171   1.659   5.700   1.298
 3300SOL    HW216172   1.530   5.631   1.370
 3301SOL     OW16173   4.176   4.786   0.496
 3301SOL    HW116174   4.241   4.861   0.483
 3301SOL    HW216175   4.083   4.819   0.477
 3302SOL     OW16176   5.655   2.335   0.600
 3302SOL    HW116177   5.745   2.291   0.596
 3302SOL    HW216178   5.666   2.434   0.604
 3303SOL     OW16179   0.770   3.857   5.961
 3303SOL    HW116180   0.752   3.871   5.863
 3303SOL    HW216181   0.740   3.766   5.987
 3304SOL     OW16182   3.270   3.326   1.173
 3304SOL    HW116183   3.256   3.285   1.083
 3304SOL    HW216184   3.310   3.259   1.235
 3305SOL     OW16185   3.606   3.515   1.677
 3305SOL    HW116186   3.539   3.578   1.715
 3305SOL    HW216187   3.694   3.528   1.722
 3306SOL     OW16188   2.800   4.278   4.730
 3306SOL    HW116189   2.853   4.218   4.669
 3306SOL    HW216190   2.832   4.372   4.721
 3307SOL     OW16191   0.032   1.514   4.949
 3307SOL    HW116192   6.308   1.592   4.934
 3307SOL    HW216193   0.075   1.486   4.863
 3308SOL     OW16194   0.594   6.093   0.708
 3308SOL    HW116195   0.628   6.030   0.777
 3308SOL    HW216196   0.498   6.114   0.725
 3309SOL     OW16197   3.633   5.333   5.658
 3309SOL    HW116198   3.684   5.365   5.738
 3309SOL    HW216199   3.626   5.407   5.591
 3310SOL     OW16200   4.102   6.320   5.181
 3310SOL    HW116201   4.073   6.229   5.211
 3310SOL    HW216202   4.193   6.340   5.217
 3311SOL     OW16203   5.233   3.017   0.550
 3311SOL    HW116204   5.136   3.035   0.564
 3311SOL    HW216205   5.283   3.037   0.634
 3312SOL     OW16206   4.427   4.729   1.144
 3312SOL    HW116207   4.449   4.731   1.241
 3312SOL    HW216208   4.396   4.819   1.115
 3313SOL     OW16209   0.170   2.831   0.681
 3313SOL    HW116210   0.078   2.866   0.662
 3313SOL    HW216211   0.238   2.888   0.636
 3314SOL     OW16212   1.517   0.044   5.694
 3314SOL    HW116213   1.453   6.376   5.718
 3314SOL    HW216214   1.610   0.006   5.687
 3315SOL     OW16215   3.647   5.049   0.611
 3315SOL    HW116216   3.703   5.085   0.686
 3315SOL    HW216217   3.652   4.949   0.610
 3316SOL     OW16218   0.709   4.978   5.851
 3316SOL    HW116219   0.804   4.998   5.877
 3316SOL    HW216220   0.707   4.898   5.791
 3317SOL     OW16221   4.416   5.107   6.547
 3317SOL    HW116222   4.406   5.052   0.061
 3317SOL    HW216223   4.490   5.070   6.492
 3318SOL     OW16224   4.438   2.001   0.638
 3318SOL    HW116225   4.420   1.908   0.604
 3318SOL    HW216226   4.518   2.038   0.591
 3319SOL     OW16227   5.569   3.475   0.314
 3319SOL    HW116228   5.500   3.496   0.383
 3319SOL    HW216229   5.660   3.483   0.353
 3320SOL     OW16230   0.537   0.528   5.547
 3320SOL    HW116231   0.491   0.559   5.630
 3320SOL    HW216232   0.525   0.429   5.537
 3321SOL     OW16233   2.467   2.740   5.342
 3321SOL    HW116234   2.406   2.806   5.385
 3321SOL    HW216235   2.447   2.734   5.244
 3322SOL     OW16236   0.251   2.179   0.945
 3322SOL    HW116237   0.264   2.257   0.884
 3322SOL    HW216238   0.340   2.139   0.968
 3323SOL     OW16239   0.361   4.961   6.155
 3323SOL    HW116240   0.317   4.965   6.066
 3323SOL    HW216241   0.403   4.870   6.167
 3324SOL     OW16242   0.747   2.366   6.421
 3324SOL    HW116243   0.693   2.435   6.372
 3324SOL    HW216244   0.685   2.306   6.471
 3325SOL     OW16245   3.612   3.728   0.807
 3325SOL    HW116246   3.695   3.780   0.786
 3325SOL    HW216247   3.533   3.788   0.804
 3326SOL     OW16248   1.276   2.289   5.800
 3326SOL    HW116249   1.319   2.200   5.782
 3326SOL    HW216250   1.290   2.314   5.896
 3327SOL     OW16251   1.051   2.112   5.511
 3327SOL    HW116252   1.021   2.202   5.478
 3327SOL    HW216253   1.113   2.071   5.444
 3328SOL     OW16254   5.437   5.622   0.495
 3328SOL    HW116255   5.418   5.711   0.535
 3328SOL    HW216256   5.469   5.559   0.567
 3329SOL     OW16257   3.562   3.818   0.118
 3329SOL    HW116258   3.518   3.730   0.133
 3329SOL    HW216259   3.499   3.880   0.071
 3330SOL     OW16260   4.998   5.324   0.615
 3330SOL    HW116261   5.002   5.330   0.715
 3330SOL    HW216262   5.079   5.367   0.576
 3331SOL     OW16263   2.192   2.181   5.479
 3331SOL    HW116264   2.135   2.261   5.501
 3331SOL    HW216265   2.288   2.209   5.472
 3332SOL     OW16266   5.462   0.851   5.508
 3332SOL    HW116267   5.525   0.852   5.431
 3332SOL    HW216268   5.367   0.853   5.475
 3333SOL     OW16269   1.723   6.219   6.452
 3333SOL    HW116270   1.741   6.306   6.407
 3333SOL    HW216271   1.653   6.231   6.522
 3334SOL     OW16272   5.319   1.697   6.061
 3334SOL    HW116273   5.351   1.709   6.155
 3334SOL    HW216274   5.252   1.622   6.059
 3335SOL     OW16275   3.695   0.848   0.702
 3335SOL    HW116276   3.761   0.781   0.667
 3335SOL    HW216277   3.648   0.891   0.626
 3336SOL     OW16278   2.337   4.191   6.045
 3336SOL    HW116279   2.432   4.163   6.062
 3336SOL    HW216280   2.300   4.234   6.127
 3337SOL     OW16281   1.383   1.312   0.733
 3337SOL    HW116282   1.407   1.366   0.652
 3337SOL    HW216283   1.370   1.217   0.706
 3338SOL     OW16284   4.532   3.317   6.325
 3338SOL    HW116285   4.456   3.258   6.351
 3338SOL    HW216286   4.523   3.344   6.230
 3339SOL     OW16287   4.174   6.391   6.386
 3339SOL    HW116288   4.143   0.012   6.477
 3339SOL    HW216289   4.262   0.030   6.367
 3340SOL     OW16290   0.366   2.403   5.770
 3340SOL    HW116291   0.401   2.489   5.734
 3340SOL    HW216292   0.298   2.366   5.706
 3341SOL     OW16293   4.109   2.238   5.870
 3341SOL    HW116294   4.160   2.318   5.901
 3341SOL    HW216295   4.119   2.227   5.771
 3342SOL     OW16296   2.729   3.319   6.256
 3342SOL    HW116297   2.793   3.379   6.209
 3342SOL    HW216298   2.636   3.357   6.251
 3343SOL     OW16299   2.723   4.401   0.410
 3343SOL    HW116300   2.657   4.389   0.484
 3343SOL    HW216301   2.727   4.318   0.355
 3344SOL     OW16302   4.231   4.539   1.100
 3344SOL    HW116303   4.305   4.606   1.102
 3344SOL    HW216304   4.174   4.550   1.182
 3345SOL     OW16305   4.153   5.976   0.385
 3345SOL    HW116306   4.213   6.056   0.391
 3345SOL    HW216307   4.113   5.957   0.474
 3346SOL     OW16308   0.814   4.046   0.271
 3346SOL    HW116309   0.890   3.985   0.296
 3346SOL    HW216310   0.784   4.097   0.352
 3347SOL     OW16311   4.511   5.354   0.072
 3347SOL    HW116312   4.470   5.431   0.024
 3347SOL    HW216313   4.477   5.268   0.033
 3348SOL     OW16314   1.980   1.026   6.324
 3348SOL    HW116315   1.998   1.110   6.272
 3348SOL    HW216316   1.998   0.947   6.266
 3349SOL     OW16317   3.800   4.022   5.664
 3349SOL    HW116318   3.880   3.965   5.682
 3349SOL    HW216319   3.723   3.963   5.638
 3350SOL     OW16320   2.132   0.312   5.470
 3350SOL    HW116321   2.199   0.341   5.401
 3350SOL    HW216322   2.106   0.217   5.452
 3351SOL     OW16323   0.648   0.292   0.599
 3351SOL    HW116324   0.640   0.323   0.694
 3351SOL    HW216325   0.623   0.195   0.594
 3352SOL     OW16326   3.186   1.785   6.313
 3352SOL    HW116327   3.267   1.844   6.318
 3352SOL    HW216328   3.177   1.735   6.400
 3353SOL     OW16329   0.460   5.259   1.255
 3353SOL    HW116330   0.430   5.347   1.292
 3353SOL    HW216331   0.453   5.188   1.325
 3354SOL     OW16332   3.960   2.326   6.312
 3354SOL    HW116333   4.052   2.367   6.310
 3354SOL    HW216334   3.953   2.265   6.390
 3355SOL     OW16335   2.752   4.106   6.375
 3355SOL    HW116336   2.763   4.185   6.314
 3355SOL    HW216337   2.842   4.068   6.396
 3356SOL     OW16338   4.887   5.371   6.456
 3356SOL    HW116339   4.925   5.441   6.396
 3356SOL    HW216340   4.836   5.304   6.401
 3357SOL     OW16341   6.116   4.912   1.244
 3357SOL    HW116342   6.064   4.996   1.258
 3357SOL    HW216343   6.208   4.923   1.282
 3358SOL     OW16344   0.006   4.859   5.915
 3358SOL    HW116345   6.292   4.941   5.944
 3358SOL    HW216346   6.300   4.824   5.831
 3359SOL     OW16347   4.581   0.993   5.975
 3359SOL    HW116348   4.594   0.999   6.074
 3359SOL    HW216349   4.668   0.975   5.930
 3360SOL     OW16350   3.114   0.054   6.326
 3360SOL    HW116351   3.033   0.049   6.267
 3360SOL    HW216352   3.194   0.077   6.270
 3361SOL     OW16353   0.407   3.731   0.455
 3361SOL    HW116354   0.466   3.807   0.479
 3361SOL    HW216355   0.455   3.668   0.395
 3362SOL     OW16356   1.841   2.731   1.508
 3362SOL    HW116357   1.751   2.743   1.549
 3362SOL    HW216358   1.904   2.798   1.545
 3363SOL     OW16359   0.828   5.501   5.511
 3363SOL    HW116360   0.773   5.531   5.433
 3363SOL    HW216361   0.822   5.401   5.520
 3364SOL     OW16362   0.623   5.609   1.115
 3364SOL    HW116363   0.713   5.653   1.117
 3364SOL    HW216364   0.634   5.511   1.128
 3365SOL     OW16365   3.461   0.063   0.725
 3365SOL    HW116366   3.364   0.039   0.729
 3365SOL    HW216367   3.487   0.113   0.808
 3366SOL     OW16368   4.328   5.019   0.481
 3366SOL    HW116369   4.288   5.111   0.478
 3366SOL    HW216370   4.401   5.017   0.549
 3367SOL     OW16371   1.024   2.375   5.753
 3367SOL    HW116372   0.969   2.291   5.762
 3367SOL    HW216373   1.121   2.353   5.765
 3368SOL     OW16374   3.571   2.232   0.818
 3368SOL    HW116375   3.553   2.272   0.908
 3368SOL    HW216376   3.649   2.169   0.824
 3369SOL     OW16377   5.213   5.771   1.545
 3369SOL    HW116378   5.143   5.826   1.590
 3369SOL    HW216379   5.303   5.814   1.556
 3370SOL     OW16380   2.599   5.138   5.086
 3370SOL    HW116381   2.518   5.194   5.101
 3370SOL    HW216382   2.572   5.053   5.039
 3371SOL     OW16383   1.914   0.530   0.744
 3371SOL    HW116384   1.987   0.593   0.772
 3371SOL    HW216385   1.873   0.563   0.658
 3372SOL     OW16386   0.650   1.360   6.250
 3372SOL    HW116387   0.700   1.314   6.323
 3372SOL    HW216388   0.696   1.447   6.228
 3373SOL     OW16389   4.732   3.996   5.973
 3373SOL    HW116390   4.632   3.996   5.968
 3373SOL    HW216391   4.764   3.903   5.991
 3374SOL     OW16392   4.190   1.325   5.792
 3374SOL    HW116393   4.288   1.347   5.789
 3374SOL    HW216394   4.176   1.231   5.764
 3375SOL     OW16395   2.120   5.955   5.888
 3375SOL    HW116396   2.081   5.984   5.975
 3375SOL    HW216397   2.220   5.961   5.892
 3376SOL     OW16398   5.070   2.667   1.406
 3376SOL    HW116399   5.109   2.758   1.391
 3376SOL    HW216400   5.136   2.609   1.453
 3377SOL     OW16401   3.074   3.373   0.296
 3377SOL    HW116402   3.071   3.424   0.382
 3377SOL    HW216403   3.027   3.425   0.225
 3378SOL     OW16404   2.996   0.909   0.937
 3378SOL    HW116405   3.081   0.898   0.989
 3378SOL    HW216406   2.985   0.833   0.874
 3379SOL     OW16407   4.887   6.145   1.767
 3379SOL    HW116408   4.811   6.198   1.803
 3379SOL    HW216409   4.964   6.206   1.746
 3380SOL     OW16410   5.727   0.003   6.371
 3380SOL    HW116411   5.797   6.337   6.381
 3380SOL    HW216412   5.675   0.011   6.456
 3381SOL     OW16413   3.417   5.494   5.025
 3381SOL    HW116414   3.473   5.576   5.014
 3381SOL    HW216415   3.322   5.521   5.040
 3382SOL     OW16416   0.516   3.842   5.505
 3382SOL    HW116417   0.479   3.765   5.453
 3382SOL    HW216418   0.500   3.927   5.455
 3383SOL     OW16419   5.954   5.885   5.888
 3383SOL    HW116420   5.997   5.800   5.859
 3383SOL    HW216421   6.018   5.937   5.945
 3384SOL     OW16422   6.013   0.885   5.171
 3384SOL    HW116423   6.042   0.931   5.088
 3384SOL    HW216424   5.953   0.808   5.147
 3385SOL     OW16425   0.830   5.352   0.091
 3385SOL    HW116426   0.911   5.344   0.150
 3385SOL    HW216427   0.848   5.419   0.019
 3386SOL     OW16428   3.498   5.831   0.174
 3386SOL    HW116429   3.586   5.874   0.194
 3386SOL    HW216430   3.425   5.881   0.220
 3387SOL     OW16431   3.522   3.303   0.919
 3387SOL    HW116432   3.433   3.258   0.917
 3387SOL    HW216433   3.574   3.269   0.998
 3388SOL     OW16434   4.408   5.581   1.648
 3388SOL    HW116435   4.396   5.522   1.568
 3388SOL    HW216436   4.504   5.580   1.676
 3389SOL     OW16437   0.129   1.676   5.538
 3389SOL    HW116438   0.102   1.730   5.617
 3389SOL    HW216439   0.221   1.703   5.509
 3390SOL     OW16440   2.993   6.359   1.112
 3390SOL    HW116441   2.998   0.054   1.110
 3390SOL    HW216442   2.912   6.331   1.164
 3391SOL     OW16443   3.472   3.191   6.090
 3391SOL    HW116444   3.472   3.120   6.161
 3391SOL    HW216445   3.463   3.281   6.133
 3392SOL     OW16446   5.882   2.044   0.355
 3392SOL    HW116447   5.903   2.132   0.312
 3392SOL    HW216448   5.880   2.055   0.454
 3393SOL     OW16449   5.184   2.018   0.274
 3393SOL    HW116450   5.240   1.964   0.337
 3393SOL    HW216451   5.204   2.115   0.286
 3394SOL     OW16452   2.376   0.389   5.906
 3394SOL    HW116453   2.420   0.472   5.873
 3394SOL    HW216454   2.422   0.309   5.867
 3395SOL     OW16455   2.977   6.045   1.219
 3395SOL    HW116456   2.927   6.127   1.246
 3395SOL    HW216457   2.925   5.995   1.151
 3396SOL     OW16458   0.357   0.584   5.759
 3396SOL    HW116459   0.339   0.655   5.690
 3396SOL    HW216460   0.313   0.609   5.845
 3397SOL     OW16461   2.961   6.168   0.364
 3397SOL    HW116462   3.044   6.178   0.308
 3397SOL    HW216463   2.883   6.149   0.305
 3398SOL     OW16464   5.790   2.316   6.041
 3398SOL    HW116465   5.816   2.412   6.032
 3398SOL    HW216466   5.752   2.301   6.133
 3399SOL     OW16467   0.428   4.365   0.334
 3399SOL    HW116468   0.427   4.301   0.257
 3399SOL    HW216469   0.471   4.450   0.306
 3400SOL     OW16470   1.704   2.252   6.463
 3400SOL    HW116471   1.788   2.306   6.463
 3400SOL    HW216472   1.727   2.155   6.470
 3401SOL     OW16473   1.531   3.883   5.844
 3401SOL    HW116474   1.555   3.786   5.831
 3401SOL    HW216475   1.486   3.918   5.762
 3402SOL     OW16476   0.158   1.743   6.385
 3402SOL    HW116477   0.210   1.819   6.347
 3402SOL    HW216478   0.139   1.761   6.482
 3403SOL     OW16479   1.625   2.443   0.873
 3403SOL    HW116480   1.713   2.429   0.827
 3403SOL    HW216481   1.607   2.541   0.881
 3404SOL     OW16482   5.124   5.250   1.464
 3404SOL    HW116483   5.131   5.208   1.554
 3404SOL    HW216484   5.150   5.347   1.470
 3405SOL     OW16485   2.132   5.044   0.888
 3405SOL    HW116486   2.084   5.090   0.963
 3405SOL    HW216487   2.170   4.958   0.921
 3406SOL     OW16488   2.672   1.220   1.357
 3406SOL    HW116489   2.662   1.311   1.397
 3406SOL    HW216490   2.748   1.172   1.402
 3407SOL     OW16491   5.440   2.194   0.494
 3407SOL    HW116492   5.516   2.247   0.530
 3407SOL    HW216493   5.353   2.236   0.521
 3408SOL     OW16494   3.317   2.166   0.707
 3408SOL    HW116495   3.303   2.079   0.755
 3408SOL    HW216496   3.400   2.210   0.742
 3409SOL     OW16497   1.727   5.173   1.124
 3409SOL    HW116498   1.661   5.099   1.129
 3409SOL    HW216499   1.706   5.242   1.193
 3410SOL     OW16500   5.304   3.595   0.464
 3410SOL    HW116501   5.222   3.653   0.458
 3410SOL    HW216502   5.383   3.651   0.489
 3411SOL     OW16503   4.459   3.890   5.989
 3411SOL    HW116504   4.436   3.832   5.911
 3411SOL    HW216505   4.463   3.835   6.073
 3412SOL     OW16506   4.495   1.804   0.326
 3412SOL    HW116507   4.467   1.728   0.267
 3412SOL    HW216508   4.459   1.889   0.289
 3413SOL     OW16509   1.530   1.538   5.089
 3413SOL    HW116510   1.509   1.593   5.169
 3413SOL    HW216511   1.587   1.460   5.115
 3414SOL     OW16512   1.402   3.202   0.506
 3414SOL    HW116513   1.375   3.153   0.588
 3414SOL    HW216514   1.362   3.158   0.425
 3415SOL     OW16515   0.941   1.308   0.399
 3415SOL    HW116516   0.872   1.249   0.358
 3415SOL    HW216517   0.952   1.285   0.496
 3416SOL     OW16518   5.956   3.331   6.247
 3416SOL    HW116519   5.885   3.360   6.183
 3416SOL    HW216520   5.916   3.322   6.339
 3417SOL     OW16521   4.203   4.330   0.256
 3417SOL    HW116522   4.241   4.410   0.304
 3417SOL    HW216523   4.124   4.359   0.201
 3418SOL     OW16524   0.328   4.659   1.411
 3418SOL    HW116525   0.389   4.614   1.476
 3418SOL    HW216526   0.310   4.753   1.441
 3419SOL     OW16527   1.723   6.320   1.024
 3419SOL    HW116528   1.634   6.359   0.998
 3419SOL    HW216529   1.718   6.285   1.117
 3420SOL     OW16530   6.207   2.150   0.673
 3420SOL    HW116531   6.144   2.074   0.691
 3420SOL    HW216532   6.176   2.200   0.592
 3421SOL     OW16533   6.115   1.012   5.557
 3421SOL    HW116534   6.203   0.965   5.559
 3421SOL    HW216535   6.127   1.107   5.588
 3422SOL     OW16536   4.942   1.053   0.756
 3422SOL    HW116537   5.008   1.117   0.716
 3422SOL    HW216538   4.924   1.079   0.851
 3423SOL     OW16539   4.526   4.596   0.740
 3423SOL    HW116540   4.453   4.665   0.747
 3423SOL    HW216541   4.489   4.506   0.763
 3424SOL     OW16542   0.888   5.554   6.479
 3424SOL    HW116543   0.928   5.609   6.406
 3424SOL    HW216544   0.806   5.600   6.514
 3425SOL     OW16545   3.774   0.546   6.310
 3425SOL    HW116546   3.790   0.502   6.222
 3425SOL    HW216547   3.857   0.595   6.339
 3426SOL     OW16548   6.311   4.676   0.133
 3426SOL    HW116549   0.073   4.698   0.125
 3426SOL    HW216550   6.257   4.760   0.121
 3427SOL     OW16551   1.669   1.283   5.541
 3427SOL    HW116552   1.606   1.357   5.515
 3427SOL    HW216553   1.617   1.199   5.557
 3428SOL     OW16554   2.656   4.669   0.451
 3428SOL    HW116555   2.686   4.577   0.428
 3428SOL    HW216556   2.622   4.715   0.370
 3429SOL     OW16557   3.656   4.503   6.560
 3429SOL    HW116558   3.628   4.416   0.029
 3429SOL    HW216559   3.723   4.488   6.487
 3430SOL     OW16560   1.415   2.662   5.866
 3430SOL    HW116561   1.490   2.620   5.916
 3430SOL    HW216562   1.336   2.673   5.926
 3431SOL     OW16563   6.243   5.117   5.147
 3431SOL    HW116564   6.234   5.203   5.096
 3431SOL    HW216565   6.153   5.074   5.156
 3432SOL     OW16566   0.219   2.402   0.773
 3432SOL    HW116567   0.226   2.338   0.696
 3432SOL    HW216568   0.283   2.477   0.761
 3433SOL     OW16569   5.928   4.698   0.825
 3433SOL    HW116570   5.878   4.737   0.747
 3433SOL    HW216571   5.969   4.772   0.878
 3434SOL     OW16572   5.384   5.790   5.763
 3434SOL    HW116573   5.378   5.735   5.679
 3434SOL    HW216574   5.390   5.887   5.739
 3435SOL     OW16575   4.405   2.535   5.520
 3435SOL    HW116576   4.501   2.563   5.518
 3435SOL    HW216577   4.357   2.576   5.442
 3436SOL     OW16578   4.088   1.865   0.895
 3436SOL    HW116579   3.989   1.851   0.903
 3436SOL    HW216580   4.134   1.777   0.891
 3437SOL     OW16581   5.055   1.175   5.903
 3437SOL    HW116582   5.051   1.111   5.980
 3437SOL    HW216583   4.989   1.249   5.917
 3438SOL     OW16584   1.753   4.680   5.750
 3438SOL    HW116585   1.736   4.591   5.709
 3438SOL    HW216586   1.831   4.724   5.704
 3439SOL     OW16587   4.420   4.404   6.053
 3439SOL    HW116588   4.337   4.452   6.025
 3439SOL    HW216589   4.408   4.306   6.040
 3440SOL     OW16590   5.166   4.876   6.226
 3440SOL    HW116591   5.244   4.815   6.229
 3440SOL    HW216592   5.183   4.956   6.285
 3441SOL     OW16593   0.153   0.654   6.356
 3441SOL    HW116594   0.151   0.619   6.450
 3441SOL    HW216595   0.169   0.579   6.292
 3442SOL     OW16596   4.315   0.510   5.680
 3442SOL    HW116597   4.344   0.578   5.747
 3442SOL    HW216598   4.382   0.506   5.606
 3443SOL     OW16599   1.521   1.656   1.057
 3443SOL    HW116600   1.580   1.638   1.135
 3443SOL    HW216601   1.537   1.588   0.985
 3444SOL     OW16602   2.915   1.167   0.915
 3444SOL    HW116603   2.944   1.200   0.825
 3444SOL    HW216604   2.943   1.072   0.927
 3445SOL     OW16605   4.549   0.059   5.743
 3445SOL    HW116606   4.476   0.126   5.734
 3445SOL    HW216607   4.594   0.070   5.831
 3446SOL     OW16608   1.198   1.732   5.264
 3446SOL    HW116609   1.166   1.726   5.169
 3446SOL    HW216610   1.293   1.699   5.269
 3447SOL     OW16611   4.444   2.271   5.595
 3447SOL    HW116612   4.428   2.367   5.571
 3447SOL    HW216613   4.529   2.240   5.554
 3448SOL     OW16614   5.270   2.340   6.207
 3448SOL    HW116615   5.343   2.352   6.274
 3448SOL    HW216616   5.214   2.423   6.202
 3449SOL     OW16617   5.969   5.008   0.485
 3449SOL    HW116618   6.048   5.027   0.543
 3449SOL    HW216619   5.903   4.953   0.536
 3450SOL     OW16620   6.250   1.718   0.258
 3450SOL    HW116621   6.171   1.776   0.244
 3450SOL    HW216622   6.226   1.622   0.241
 3451SOL     OW16623   3.992   6.074   5.543
 3451SOL    HW116624   4.020   6.094   5.450
 3451SOL    HW216625   4.014   5.979   5.565
 3452SOL     OW16626   1.797   3.300   0.320
 3452SOL    HW116627   1.724   3.257   0.267
 3452SOL    HW216628   1.877   3.314   0.261
 3453SOL     OW16629   0.305   5.329   6.424
 3453SOL    HW116630   0.222   5.276   6.439
 3453SOL    HW216631   0.371   5.309   6.497
 3454SOL     OW16632   0.515   2.857   5.243
 3454SOL    HW116633   0.501   2.954   5.223
 3454SOL    HW216634   0.534   2.808   5.158
 3455SOL     OW16635   6.212   2.963   0.898
 3455SOL    HW116636   6.218   2.934   0.802
 3455SOL    HW216637   6.139   2.911   0.943
 3456SOL     OW16638   0.330   3.255   6.453
 3456SOL    HW116639   0.390   3.290   6.381
 3456SOL    HW216640   0.235   3.255   6.422
 3457SOL     OW16641   2.666   3.060   0.636
 3457SOL    HW116642   2.620   3.143   0.667
 3457SOL    HW216643   2.764   3.078   0.625
 3458SOL     OW16644   5.763   1.632   0.349
 3458SOL    HW116645   5.811   1.644   0.262
 3458SOL    HW216646   5.677   1.682   0.347
 3459SOL     OW16647   2.702   3.796   5.333
 3459SOL    HW116648   2.763   3.790   5.254
 3459SOL    HW216649   2.611   3.766   5.307
 3460SOL     OW16650   1.491   3.400   0.911
 3460SOL    HW116651   1.403   3.353   0.902
 3460SOL    HW216652   1.560   3.352   0.857
 3461SOL     OW16653   0.283   1.258   0.414
 3461SOL    HW116654   0.314   1.246   0.320
 3461SOL    HW216655   0.272   1.355   0.434
 3462SOL     OW16656   5.512   0.267   0.093
 3462SOL    HW116657   5.531   0.179   0.049
 3462SOL    HW216658   5.427   0.260   0.146
 3463SOL     OW16659   0.063   2.338   0.358
 3463SOL    HW116660   0.046   2.436   0.342
 3463SOL    HW216661   0.124   2.303   0.287
 3464SOL     OW16662   3.451   4.878   5.165
 3464SOL    HW116663   3.454   4.781   5.191
 3464SOL    HW216664   3.440   4.885   5.066
 3465SOL     OW16665   4.522   1.607   6.362
 3465SOL    HW116666   4.542   1.650   6.274
 3465SOL    HW216667   4.477   1.673   6.422
 3466SOL     OW16668   2.717   5.329   6.416
 3466SOL    HW116669   2.660   5.355   6.337
 3466SOL    HW216670   2.669   5.260   6.469
 3467SOL     OW16671   5.823   0.309   6.001
 3467SOL    HW116672   5.762   0.267   5.934
 3467SOL    HW216673   5.805   0.407   6.007
 3468SOL     OW16674   5.140   0.896   0.078
 3468SOL    HW116675   5.101   0.806   0.097
 3468SOL    HW216676   5.143   0.949   0.162
 3469SOL     OW16677   5.825   5.420   6.494
 3469SOL    HW116678   5.907   5.474   6.475
 3469SOL    HW216679   5.817   5.345   6.429
 3470SOL     OW16680   0.232   2.819   5.763
 3470SOL    HW116681   0.177   2.893   5.723
 3470SOL    HW216682   0.198   2.731   5.731
 3471SOL     OW16683   5.923   3.893   6.560
 3471SOL    HW116684   5.992   3.959   0.021
 3471SOL    HW216685   5.910   3.823   0.061
 3472SOL     OW16686   1.729   5.115   0.374
 3472SOL    HW116687   1.756   5.208   0.401
 3472SOL    HW216688   1.806   5.070   0.327
 3473SOL     OW16689   2.515   0.607   5.823
 3473SOL    HW116690   2.487   0.694   5.784
 3473SOL    HW216691   2.612   0.591   5.802
 3474SOL     OW16692   2.034   1.532   0.024
 3474SOL    HW116693   2.013   1.435   0.036
 3474SOL    HW216694   2.038   1.553   6.496
 3475SOL     OW16695   0.112   3.612   6.295
 3475SOL    HW116696   0.027   3.616   6.347
 3475SOL    HW216697   0.177   3.679   6.331
 3476SOL     OW16698   3.178   3.760   6.059
 3476SOL    HW116699   3.079   3.751   6.052
 3476SOL    HW216700   3.222   3.697   5.995
 3477SOL     OW16701   4.669   5.404   5.999
 3477SOL    HW116702   4.590   5.415   5.938
 3477SOL    HW216703   4.748   5.377   5.945
 3478SOL     OW16704   3.302   4.954   1.068
 3478SOL    HW116705   3.317   4.895   0.989
 3478SOL    HW216706   3.240   4.909   1.133
 3479SOL     OW16707   6.089   6.401   6.321
 3479SOL    HW116708   6.018   6.336   6.346
 3479SOL    HW216709   6.122   6.380   6.229
 3480SOL     OW16710   3.922   5.824   5.944
 3480SOL    HW116711   3.931   5.746   5.882
 3480SOL    HW216712   3.898   5.792   6.035
 3481SOL     OW16713   0.786   0.530   5.442
 3481SOL    HW116714   0.698   0.541   5.487
 3481SOL    HW216715   0.773   0.481   5.356
 3482SOL     OW16716   3.725   4.736   6.298
 3482SOL    HW116717   3.761   4.648   6.331
 3482SOL    HW216718   3.761   4.810   6.355
 3483SOL     OW16719   4.333   0.236   5.736
 3483SOL    HW116720   4.289   0.221   5.825
 3483SOL    HW216721   4.330   0.333   5.714
 3484SOL     OW16722   5.257   4.163   0.840
 3484SOL    HW116723   5.293   4.070   0.827
 3484SOL    HW216724   5.174   4.174   0.785
 3485SOL     OW16725   1.425   4.784   6.375
 3485SOL    HW116726   1.404   4.875   6.411
 3485SOL    HW216727   1.505   4.748   6.421
 3486SOL     OW16728   2.138   1.780   0.135
 3486SOL    HW116729   2.147   1.789   0.234
 3486SOL    HW216730   2.122   1.684   0.111
 3487SOL     OW16731   5.718   0.938   0.270
 3487SOL    HW116732   5.758   1.016   0.318
 3487SOL    HW216733   5.637   0.906   0.320
 3488SOL     OW16734   1.743   0.801   5.530
 3488SOL    HW116735   1.750   0.849   5.443
 3488SOL    HW216736   1.654   0.818   5.571
 3489SOL     OW16737   4.991   0.350   1.456
 3489SOL    HW116738   4.990   0.250   1.451
 3489SOL    HW216739   5.059   0.379   1.524
 3490SOL     OW16740   1.381   2.028   5.794
 3490SOL    HW116741   1.471   1.994   5.765
 3490SOL    HW216742   1.373   2.019   5.894
 3491SOL     OW16743   3.973   5.093   1.985
 3491SOL    HW116744   3.884   5.055   2.010
 3491SOL    HW216745   4.044   5.025   2.001
 3492SOL     OW16746   4.906   0.735   1.256
 3492SOL    HW116747   4.866   0.663   1.313
 3492SOL    HW216748   4.994   0.703   1.219
 3493SOL     OW16749   5.251   3.172   6.423
 3493SOL    HW116750   5.185   3.248   6.426
 3493SOL    HW216751   5.344   3.210   6.424
 3494SOL     OW16752   2.305   0.161   5.636
 3494SOL    HW116753   2.310   0.106   5.553
 3494SOL    HW216754   2.249   0.243   5.618
 3495SOL     OW16755   4.604   2.258   5.107
 3495SOL    HW116756   4.612   2.302   5.018
 3495SOL    HW216757   4.610   2.327   5.179
 3496SOL     OW16758   4.631   1.259   6.296
 3496SOL    HW116759   4.639   1.164   6.266
 3496SOL    HW216760   4.566   1.307   6.237
 3497SOL     OW16761   0.363   5.670   1.580
 3497SOL    HW116762   0.439   5.717   1.623
 3497SOL    HW216763   0.285   5.666   1.644
 3498SOL     OW16764   0.642   5.710   0.594
 3498SOL    HW116765   0.679   5.685   0.683
 3498SOL    HW216766   0.677   5.800   0.568
 3499SOL     OW16767   4.885   2.191   1.068
 3499SOL    HW116768   4.893   2.231   0.976
 3499SOL    HW216769   4.828   2.250   1.125
 3500SOL     OW16770   5.858   1.661   0.091
 3500SOL    HW116771   5.788   1.677   0.021
 3500SOL    HW216772   5.902   1.572   0.074
 3501SOL     OW16773   4.260   3.527   1.285
 3501SOL    HW116774   4.195   3.452   1.299
 3501SOL    HW216775   4.258   3.588   1.364
 3502SOL     OW16776   3.744   0.871   5.837
 3502SOL    HW116777   3.814   0.821   5.889
 3502SOL    HW216778   3.787   0.949   5.792
 3503SOL     OW16779   1.337   0.155   6.340
 3503SOL    HW116780   1.321   0.158   6.242
 3503SOL    HW216781   1.267   0.207   6.388
 3504SOL     OW16782   1.526   6.180   5.309
 3504SOL    HW116783   1.621   6.150   5.302
 3504SOL    HW216784   1.490   6.199   5.218
 3505SOL     OW16785   0.343   2.028   6.015
 3505SOL    HW116786   0.302   1.941   5.985
 3505SOL    HW216787   0.417   2.053   5.953
 3506SOL     OW16788   5.781   0.263   6.283
 3506SOL    HW116789   5.788   0.267   6.183
 3506SOL    HW216790   5.760   0.170   6.311
 3507SOL     OW16791   4.080   2.016   1.273
 3507SOL    HW116792   4.000   1.973   1.315
 3507SOL    HW216793   4.146   2.042   1.345
 3508SOL     OW16794   5.335   2.556   5.593
 3508SOL    HW116795   5.396   2.634   5.577
 3508SOL    HW216796   5.240   2.587   5.589
 3509SOL     OW16797   4.462   4.660   2.158
 3509SOL    HW116798   4.552   4.616   2.149
 3509SOL    HW216799   4.474   4.759   2.162
 3510SOL     OW16800   1.475   5.655   6.166
 3510SOL    HW116801   1.562   5.629   6.207
 3510SOL    HW216802   1.408   5.582   6.180
 3511SOL     OW16803   2.835   0.659   5.339
 3511SOL    HW116804   2.927   0.624   5.353
 3511SOL    HW216805   2.768   0.588   5.362
 3512SOL     OW16806   5.087   3.395   6.434
 3512SOL    HW116807   5.003   3.370   6.483
 3512SOL    HW216808   5.127   3.476   6.477
 3513SOL     OW16809   2.254   2.978   6.084
 3513SOL    HW116810   2.171   2.923   6.082
 3513SOL    HW216811   2.241   3.060   6.028
 3514SOL     OW16812   5.764   2.207   4.984
 3514SOL    HW116813   5.845   2.172   4.938
 3514SOL    HW216814   5.763   2.307   4.978
 3515SOL     OW16815   4.451   2.319   1.165
 3515SOL    HW116816   4.372   2.376   1.141
 3515SOL    HW216817   4.465   2.324   1.264
 3516SOL     OW16818   0.676   5.268   6.265
 3516SOL    HW116819   0.673   5.229   6.357
 3516SOL    HW216820   0.640   5.202   6.200
 3517SOL     OW16821   0.720   3.271   0.076
 3517SOL    HW116822   0.696   3.319   6.562
 3517SOL    HW216823   0.817   3.245   0.074
 3518SOL     OW16824   5.987   3.329   0.595
 3518SOL    HW116825   5.961   3.370   0.682
 3518SOL    HW216826   5.978   3.396   0.522
 3519SOL     OW16827   3.063   2.718   0.550
 3519SOL    HW116828   2.971   2.678   0.557
 3519SOL    HW216829   3.092   2.717   0.454
 3520SOL     OW16830   5.499   4.587   5.897
 3520SOL    HW116831   5.518   4.497   5.856
 3520SOL    HW216832   5.403   4.590   5.927
 3521SOL     OW16833   0.942   4.692   5.898
 3521SOL    HW116834   0.996   4.611   5.876
 3521SOL    HW216835   0.987   4.744   5.971
 3522SOL     OW16836   1.649   3.624   6.567
 3522SOL    HW116837   1.574   3.662   6.514
 3522SOL    HW216838   1.727   3.687   6.565
 3523SOL     OW16839   3.878   1.630   5.458
 3523SOL    HW116840   3.899   1.645   5.361
 3523SOL    HW216841   3.952   1.579   5.501
 3524SOL     OW16842   2.947   3.327   0.792
 3524SOL    HW116843   3.038   3.367   0.787
 3524SOL    HW216844   2.933   3.289   0.884
 3525SOL     OW16845   3.489   0.328   6.307
 3525SOL    HW116846   3.561   0.324   6.376
 3525SOL    HW216847   3.416   0.389   6.340
 3526SOL     OW16848   5.999   3.865   6.070
 3526SOL    HW116849   6.004   3.834   6.165
 3526SOL    HW216850   6.086   3.907   6.044
 3527SOL     OW16851   3.839   3.875   0.730
 3527SOL    HW116852   3.822   3.972   0.714
 3527SOL    HW216853   3.877   3.862   0.821
 3528SOL     OW16854   2.454   5.752   0.569
 3528SOL    HW116855   2.441   5.818   0.496
 3528SOL    HW216856   2.378   5.687   0.569
 3529SOL     OW16857   5.201   2.965   5.764
 3529SOL    HW116858   5.250   2.982   5.678
 3529SOL    HW216859   5.231   3.031   5.832
 3530SOL     OW16860   3.109   4.147   6.230
 3530SOL    HW116861   3.058   4.187   6.153
 3530SOL    HW216862   3.188   4.097   6.195
 3531SOL     OW16863   3.316   4.431   6.114
 3531SOL    HW116864   3.353   4.400   6.201
 3531SOL    HW216865   3.239   4.492   6.130
 3532SOL     OW16866   1.327   4.454   6.123
 3532SOL    HW116867   1.288   4.363   6.109
 3532SOL    HW216868   1.396   4.451   6.195
 3533SOL     OW16869   4.359   3.229   0.243
 3533SOL    HW116870   4.393   3.321   0.222
 3533SOL    HW216871   4.305   3.232   0.327
 3534SOL     OW16872   0.477   2.619   5.657
 3534SOL    HW116873   0.430   2.672   5.586
 3534SOL    HW216874   0.556   2.671   5.690
 3535SOL     OW16875   2.242   2.495   6.128
 3535SOL    HW116876   2.269   2.579   6.175
 3535SOL    HW216877   2.157   2.461   6.168
 3536SOL     OW16878   5.108   4.421   6.251
 3536SOL    HW116879   5.126   4.334   6.206
 3536SOL    HW216880   5.015   4.450   6.231
 3537SOL     OW16881   2.616   2.364   0.446
 3537SOL    HW116882   2.637   2.391   0.352
 3537SOL    HW216883   2.542   2.422   0.481
 3538SOL     OW16884   5.073   3.758   0.445
 3538SOL    HW116885   4.981   3.789   0.466
 3538SOL    HW216886   5.139   3.825   0.479
 3539SOL     OW16887   0.014   1.085   4.865
 3539SOL    HW116888   0.074   1.162   4.844
 3539SOL    HW216889   0.033   1.010   4.802
 3540SOL     OW16890   4.295   2.978   0.938
 3540SOL    HW116891   4.395   2.983   0.949
 3540SOL    HW216892   4.273   2.960   0.843
 3541SOL     OW16893   0.858   3.286   0.930
 3541SOL    HW116894   0.789   3.218   0.904
 3541SOL    HW216895   0.933   3.241   0.979
 3542SOL     OW16896   0.753   2.299   0.247
 3542SOL    HW116897   0.654   2.285   0.261
 3542SOL    HW216898   0.792   2.218   0.204
 3543SOL     OW16899   3.178   4.774   5.024
 3543SOL    HW116900   3.126   4.709   4.968
 3543SOL    HW216901   3.268   4.788   4.983
 3544SOL     OW16902   5.450   4.177   1.407
 3544SOL    HW116903   5.490   4.102   1.355
 3544SOL    HW216904   5.503   4.193   1.489
 3545SOL     OW16905   0.943   2.488   0.189
 3545SOL    HW116906   0.870   2.423   0.209
 3545SOL    HW216907   0.949   2.501   0.090
 3546SOL     OW16908   0.828   2.707   0.311
 3546SOL    HW116909   0.884   2.633   0.274
 3546SOL    HW216910   0.740   2.671   0.341
 3547SOL     OW16911   3.603   5.381   1.398
 3547SOL    HW116912   3.577   5.367   1.494
 3547SOL    HW216913   3.703   5.378   1.391
 3548SOL     OW16914   2.151   4.053   6.395
 3548SOL    HW116915   2.141   4.049   6.495
 3548SOL    HW216916   2.063   4.038   6.352
 3549SOL     OW16917   2.192   0.729   5.491
 3549SOL    HW116918   2.123   0.745   5.420
 3549SOL    HW216919   2.157   0.662   5.556
 3550SOL     OW16920   2.203   0.702   0.575
 3550SOL    HW116921   2.278   0.636   0.568
 3550SOL    HW216922   2.168   0.703   0.669
 3551SOL     OW16923   1.042   4.298   0.906
 3551SOL    HW116924   1.036   4.361   0.983
 3551SOL    HW216925   1.112   4.229   0.926
 3552SOL     OW16926   3.530   4.932   5.856
 3552SOL    HW116927   3.469   4.861   5.821
 3552SOL    HW216928   3.595   4.891   5.920
 3553SOL     OW16929   5.093   4.184   1.137
 3553SOL    HW116930   5.111   4.096   1.092
 3553SOL    HW216931   4.999   4.212   1.118
 3554SOL     OW16932   0.879   1.960   0.395
 3554SOL    HW116933   0.891   2.019   0.474
 3554SOL    HW216934   0.966   1.917   0.371
 3555SOL     OW16935   3.584   4.320   5.532
 3555SOL    HW116936   3.677   4.345   5.505
 3555SOL    HW216937   3.518   4.380   5.488
 3556SOL     OW16938   2.898   0.955   0.581
 3556SOL    HW116939   2.969   0.941   0.512
 3556SOL    HW216940   2.893   0.874   0.640
 3557SOL     OW16941   5.495   2.673   6.436
 3557SOL    HW116942   5.418   2.693   6.496
 3557SOL    HW216943   5.470   2.695   6.341
 3558SOL     OW16944   4.197   4.713   1.696
 3558SOL    HW116945   4.237   4.696   1.786
 3558SOL    HW216946   4.209   4.809   1.672
 3559SOL     OW16947   3.625   5.093   5.525
 3559SOL    HW116948   3.628   5.180   5.574
 3559SOL    HW216949   3.558   5.097   5.452
 3560SOL     OW16950   0.151   5.672   0.653
 3560SOL    HW116951   0.067   5.636   0.614
 3560SOL    HW216952   0.137   5.767   0.682
 3561SOL     OW16953   3.516   0.289   5.176
 3561SOL    HW116954   3.568   0.204   5.183
 3561SOL    HW216955   3.578   0.364   5.157
 3562SOL     OW16956   3.999   2.301   0.283
 3562SOL    HW116957   3.970   2.343   0.369
 3562SOL    HW216958   3.998   2.202   0.293
 3563SOL     OW16959   5.752   0.357   0.635
 3563SOL    HW116960   5.695   0.365   0.717
 3563SOL    HW216961   5.712   0.411   0.561
 3564SOL     OW16962   4.912   0.508   0.654
 3564SOL    HW116963   4.924   0.605   0.677
 3564SOL    HW216964   4.999   0.469   0.626
 3565SOL     OW16965   2.966   1.834   5.579
 3565SOL    HW116966   3.006   1.857   5.490
 3565SOL    HW216967   2.927   1.916   5.621
 3566SOL     OW16968   1.198   1.178   1.347
 3566SOL    HW116969   1.283   1.133   1.321
 3566SOL    HW216970   1.136   1.111   1.388
 3567SOL     OW16971   4.849   2.088   6.092
 3567SOL    HW116972   4.790   2.029   6.036
 3567SOL    HW216973   4.939   2.046   6.102
 3568SOL     OW16974   0.828   1.632   5.373
 3568SOL    HW116975   0.914   1.643   5.421
 3568SOL    HW216976   0.846   1.602   5.279
 3569SOL     OW16977   4.622   5.218   1.079
 3569SOL    HW116978   4.647   5.284   1.149
 3569SOL    HW216979   4.687   5.141   1.080
 3570SOL     OW16980   4.011   0.587   0.753
 3570SOL    HW116981   3.964   0.613   0.669
 3570SOL    HW216982   3.945   0.552   0.819
 3571SOL     OW16983   1.787   1.025   0.088
 3571SOL    HW116984   1.757   1.019   6.563
 3571SOL    HW216985   1.850   0.950   0.108
 3572SOL     OW16986   5.444   1.446   6.278
 3572SOL    HW116987   5.387   1.394   6.214
 3572SOL    HW216988   5.540   1.435   6.254
 3573SOL     OW16989   5.721   3.915   0.859
 3573SOL    HW116990   5.675   4.002   0.841
 3573SOL    HW216991   5.775   3.888   0.780
 3574SOL     OW16992   1.379   2.298   0.841
 3574SOL    HW116993   1.340   2.297   0.933
 3574SOL    HW216994   1.466   2.348   0.843
 3575SOL     OW16995   5.470   2.365   1.863
 3575SOL    HW116996   5.459   2.265   1.864
 3575SOL    HW216997   5.567   2.388   1.857
 3576SOL     OW16998   4.565   4.608   0.460
 3576SOL    HW116999   4.635   4.539   0.442
 3576SOL    HW217000   4.553   4.620   0.559
 3577SOL     OW17001   3.849   1.097   5.701
 3577SOL    HW117002   3.812   1.179   5.745
 3577SOL    HW217003   3.947   1.089   5.721
 3578SOL     OW17004   5.756   3.695   6.248
 3578SOL    HW117005   5.719   3.783   6.218
 3578SOL    HW217006   5.852   3.705   6.274
 3579SOL     OW17007   5.538   1.411   0.608
 3579SOL    HW117008   5.562   1.410   0.511
 3579SOL    HW217009   5.611   1.367   0.660
 3580SOL     OW17010   4.611   3.418   0.737
 3580SOL    HW117011   4.707   3.390   0.733
 3580SOL    HW217012   4.589   3.444   0.831
 3581SOL     OW17013   5.522   3.391   1.324
 3581SOL    HW117014   5.553   3.485   1.311
 3581SOL    HW217015   5.526   3.367   1.422
 3582SOL     OW17016   6.138   2.649   6.022
 3582SOL    HW117017   6.188   2.705   6.088
 3582SOL    HW217018   6.201   2.586   5.977
 3583SOL     OW17019   3.189   6.214   0.215
 3583SOL    HW117020   3.239   6.279   0.273
 3583SOL    HW217021   3.197   6.243   0.120
 3584SOL     OW17022   3.621   5.427   6.526
 3584SOL    HW117023   3.555   5.466   0.021
 3584SOL    HW217024   3.616   5.476   6.439
 3585SOL     OW17025   0.214   1.475   6.382
 3585SOL    HW117026   0.124   1.433   6.374
 3585SOL    HW217027   0.205   1.575   6.378
 3586SOL     OW17028   6.137   1.115   1.049
 3586SOL    HW117029   6.201   1.041   1.030
 3586SOL    HW217030   6.154   1.151   1.141
 3587SOL     OW17031   1.116   2.372   0.760
 3587SOL    HW117032   1.215   2.374   0.773
 3587SOL    HW217033   1.078   2.293   0.807
 3588SOL     OW17034   4.220   3.630   0.235
 3588SOL    HW117035   4.144   3.574   0.268
 3588SOL    HW217036   4.222   3.717   0.285
 3589SOL     OW17037   0.283   1.968   6.287
 3589SOL    HW117038   0.318   1.988   6.196
 3589SOL    HW217039   0.203   2.025   6.306
 3590SOL     OW17040   2.722   4.168   0.270
 3590SOL    HW117041   2.681   4.163   0.179
 3590SOL    HW217042   2.812   4.125   0.269
 3591SOL     OW17043   4.918   5.076   0.518
 3591SOL    HW117044   4.969   5.007   0.570
 3591SOL    HW217045   4.946   5.168   0.547
 3592SOL     OW17046   2.769   3.528   1.513
 3592SOL    HW117047   2.830   3.597   1.476
 3592SOL    HW217048   2.763   3.451   1.449
 3593SOL     OW17049   0.740   3.565   1.334
 3593SOL    HW117050   0.742   3.543   1.236
 3593SOL    HW217051   0.650   3.543   1.372
 3594SOL     OW17052   1.128   5.160   1.134
 3594SOL    HW117053   1.117   5.083   1.197
 3594SOL    HW217054   1.041   5.180   1.089
 3595SOL     OW17055   2.883   0.934   5.543
 3595SOL    HW117056   2.890   0.945   5.444
 3595SOL    HW217057   2.939   1.004   5.588
 3596SOL     OW17058   5.157   6.360   0.808
 3596SOL    HW117059   5.181   6.324   0.899
 3596SOL    HW217060   5.212   6.314   0.739
 3597SOL     OW17061   5.641   1.387   0.346
 3597SOL    HW117062   5.692   1.472   0.362
 3597SOL    HW217063   5.634   1.371   0.247
 3598SOL     OW17064   6.080   5.651   5.792
 3598SOL    HW117065   6.162   5.651   5.735
 3598SOL    HW217066   5.999   5.639   5.734
 3599SOL     OW17067   3.275   3.025   5.513
 3599SOL    HW117068   3.223   2.939   5.516
 3599SOL    HW217069   3.248   3.083   5.590
 3600SOL     OW17070   0.505   3.405   5.484
 3600SOL    HW117071   0.515   3.308   5.463
 3600SOL    HW217072   0.499   3.418   5.582
 3601SOL     OW17073   5.363   0.453   6.277
 3601SOL    HW117074   5.349   0.354   6.274
 3601SOL    HW217075   5.305   0.493   6.347
 3602SOL     OW17076   4.304   2.421   5.962
 3602SOL    HW117077   4.337   2.335   6.001
 3602SOL    HW217078   4.309   2.493   6.031
 3603SOL     OW17079   1.900   3.983   5.474
 3603SOL    HW117080   1.882   4.080   5.484
 3603SOL    HW217081   1.981   3.970   5.417
 3604SOL     OW17082   5.201   5.266   1.076
 3604SOL    HW117083   5.214   5.174   1.115
 3604SOL    HW217084   5.250   5.333   1.131
 3605SOL     OW17085   2.637   1.034   6.292
 3605SOL    HW117086   2.603   1.101   6.227
 3605SOL    HW217087   2.669   0.952   6.243
 3606SOL     OW17088   1.514   0.221   5.188
 3606SOL    HW117089   1.505   0.167   5.272
 3606SOL    HW217090   1.523   0.318   5.211
 3607SOL     OW17091   0.221   2.970   0.929
 3607SOL    HW117092   0.200   2.910   0.852
 3607SOL    HW217093   0.257   2.917   1.005
 3608SOL     OW17094   1.152   6.355   5.042
 3608SOL    HW117095   1.094   6.285   5.001
 3608SOL    HW217096   1.121   0.040   5.012
 3609SOL     OW17097   5.375   0.370   5.870
 3609SOL    HW117098   5.367   0.364   5.771
 3609SOL    HW217099   5.414   0.285   5.906
 3610SOL     OW17100   3.598   3.849   5.596
 3610SOL    HW117101   3.581   3.820   5.690
 3610SOL    HW217102   3.533   3.920   5.570
 3611SOL     OW17103   1.469   3.700   6.123
 3611SOL    HW117104   1.397   3.720   6.058
 3611SOL    HW217105   1.555   3.741   6.092
 3612SOL     OW17106   4.992   1.964   5.619
 3612SOL    HW117107   5.060   1.906   5.665
 3612SOL    HW217108   4.982   1.933   5.524
 3613SOL     OW17109   0.755   5.519   0.435
 3613SOL    HW117110   0.711   5.589   0.491
 3613SOL    HW217111   0.695   5.494   0.359
 3614SOL     OW17112   3.111   4.592   6.201
 3614SOL    HW117113   3.152   4.631   6.283
 3614SOL    HW217114   3.028   4.542   6.227
 3615SOL     OW17115   2.540   4.556   6.426
 3615SOL    HW117116   2.557   4.506   6.511
 3615SOL    HW217117   2.623   4.606   6.400
 3616SOL     OW17118   4.384   4.348   0.971
 3616SOL    HW117119   4.320   4.410   1.015
 3616SOL    HW217120   4.341   4.258   0.959
 3617SOL     OW17121   1.561   1.444   6.411
 3617SOL    HW117122   1.636   1.407   6.356
 3617SOL    HW217123   1.477   1.393   6.391
 3618SOL     OW17124   3.827   5.974   1.641
 3618SOL    HW117125   3.767   6.053   1.654
 3618SOL    HW217126   3.859   5.941   1.730
 3619SOL     OW17127   4.011   3.114   0.307
 3619SOL    HW117128   4.070   3.157   0.376
 3619SOL    HW217129   4.060   3.107   0.221
 3620SOL     OW17130   5.042   5.998   1.384
 3620SOL    HW117131   5.040   5.940   1.466
 3620SOL    HW217132   4.994   6.084   1.404
 3621SOL     OW17133   2.009   6.335   6.473
 3621SOL    HW117134   1.927   6.367   6.427
 3621SOL    HW217135   2.083   6.326   6.407
 3622SOL     OW17136   5.267   2.004   5.200
 3622SOL    HW117137   5.207   2.078   5.230
 3622SOL    HW217138   5.221   1.948   5.132
 3623SOL     OW17139   2.321   4.445   0.147
 3623SOL    HW117140   2.418   4.453   0.127
 3623SOL    HW217141   2.268   4.465   0.065
 3624SOL     OW17142   4.108   4.543   0.652
 3624SOL    HW117143   4.125   4.628   0.602
 3624SOL    HW217144   4.190   4.486   0.649
 3625SOL     OW17145   3.094   0.942   1.392
 3625SOL    HW117146   3.169   0.991   1.348
 3625SOL    HW217147   3.127   0.852   1.421
 3626SOL     OW17148   4.368   5.262   1.182
 3626SOL    HW117149   4.385   5.331   1.252
 3626SOL    HW217150   4.450   5.250   1.126
 3627SOL     OW17151   0.197   6.292   6.033
 3627SOL    HW117152   0.216   6.389   6.042
 3627SOL    HW217153   0.185   6.269   5.936
 3628SOL     OW17154   2.144   3.726   0.834
 3628SOL    HW117155   2.139   3.678   0.921
 3628SOL    HW217156   2.175   3.662   0.763
 3629SOL     OW17157   4.943   4.455   0.738
 3629SOL    HW117158   4.961   4.455   0.836
 3629SOL    HW217159   4.881   4.531   0.715
 3630SOL     OW17160   5.319   2.099   6.089
 3630SOL    HW117161   5.371   2.108   6.004
 3630SOL    HW217162   5.301   2.189   6.127
 3631SOL     OW17163   2.456   2.118   5.700
 3631SOL    HW117164   2.402   2.163   5.770
 3631SOL    HW217165   2.459   2.176   5.618
 3632SOL     OW17166   3.854   2.942   5.460
 3632SOL    HW117167   3.796   2.993   5.397
 3632SOL    HW217168   3.933   2.907   5.411
 3633SOL     OW17169   3.484   1.378   0.029
 3633SOL    HW117170   3.548   1.437   6.550
 3633SOL    HW217171   3.390   1.398   6.569
 3634SOL     OW17172   3.134   4.095   0.479
 3634SOL    HW117173   3.216   4.040   0.497
 3634SOL    HW217174   3.160   4.182   0.437
 3635SOL     OW17175   3.865   5.150   5.877
 3635SOL    HW117176   3.844   5.247   5.872
 3635SOL    HW217177   3.820   5.110   5.957
 3636SOL     OW17178   5.476   3.223   5.417
 3636SOL    HW117179   5.400   3.265   5.369
 3636SOL    HW217180   5.562   3.257   5.380
 3637SOL     OW17181   5.920   3.610   5.964
 3637SOL    HW117182   5.940   3.699   6.006
 3637SOL    HW217183   5.876   3.625   5.875
 3638SOL     OW17184   1.818   5.801   0.392
 3638SOL    HW117185   1.877   5.854   0.453
 3638SOL    HW217186   1.860   5.795   0.301
 3639SOL     OW17187   3.408   4.017   5.858
 3639SOL    HW117188   3.460   3.932   5.870
 3639SOL    HW217189   3.468   4.088   5.822
 3640SOL     OW17190   2.802   2.623   0.601
 3640SOL    HW117191   2.827   2.527   0.587
 3640SOL    HW217192   2.715   2.627   0.652
 3641SOL     OW17193   2.782   4.084   5.893
 3641SOL    HW117194   2.784   3.984   5.884
 3641SOL    HW217195   2.774   4.125   5.803
 3642SOL     OW17196   4.726   0.353   5.530
 3642SOL    HW117197   4.755   0.321   5.620
 3642SOL    HW217198   4.737   0.280   5.463
 3643SOL     OW17199   0.873   0.469   0.274
 3643SOL    HW117200   0.858   0.464   0.175
 3643SOL    HW217201   0.784   0.474   0.321
 3644SOL     OW17202   5.522   0.539   0.076
 3644SOL    HW117203   5.518   0.439   0.081
 3644SOL    HW217204   5.566   0.567   6.560
 3645SOL     OW17205   0.482   3.018   6.458
 3645SOL    HW117206   0.441   3.109   6.470
 3645SOL    HW217207   0.412   2.952   6.432
 3646SOL     OW17208   6.096   2.564   0.941
 3646SOL    HW117209   6.049   2.487   0.985
 3646SOL    HW217210   6.099   2.548   0.842
 3647SOL     OW17211   4.827   3.423   5.150
 3647SOL    HW117212   4.862   3.370   5.073
 3647SOL    HW217213   4.795   3.512   5.119
 3648SOL     OW17214   1.789   3.741   0.959
 3648SOL    HW117215   1.839   3.654   0.957
 3648SOL    HW217216   1.720   3.739   1.031
 3649SOL     OW17217   1.338   3.240   1.255
 3649SOL    HW117218   1.342   3.275   1.349
 3649SOL    HW217219   1.263   3.173   1.248
 3650SOL     OW17220   5.009   5.916   1.655
 3650SOL    HW117221   4.968   5.996   1.699
 3650SOL    HW217222   4.964   5.833   1.689
 3651SOL     OW17223   0.248   1.990   0.414
 3651SOL    HW117224   0.190   1.915   0.447
 3651SOL    HW217225   0.201   2.038   0.340
 3652SOL     OW17226   1.900   3.022   0.471
 3652SOL    HW117227   1.968   3.094   0.471
 3652SOL    HW217228   1.810   3.060   0.492
 3653SOL     OW17229   0.497   0.795   5.980
 3653SOL    HW117230   0.475   0.890   6.004
 3653SOL    HW217231   0.414   0.740   5.984
 3654SOL     OW17232   5.728   3.545   0.620
 3654SOL    HW117233   5.786   3.524   0.699
 3654SOL    HW217234   5.783   3.539   0.537
 3655SOL     OW17235   3.221   5.166   5.444
 3655SOL    HW117236   3.190   5.257   5.416
 3655SOL    HW217237   3.307   5.144   5.398
 3656SOL     OW17238   6.162   3.689   1.597
 3656SOL    HW117239   6.214   3.770   1.622
 3656SOL    HW217240   6.094   3.670   1.668
 3657SOL     OW17241   3.725   6.261   6.482
 3657SOL    HW117242   3.790   6.241   6.555
 3657SOL    HW217243   3.775   6.297   6.402
 3658SOL     OW17244   3.319   1.071   1.294
 3658SOL    HW117245   3.316   1.151   1.233
 3658SOL    HW217246   3.382   1.090   1.369
 3659SOL     OW17247   0.270   4.275   5.611
 3659SOL    HW117248   0.308   4.355   5.564
 3659SOL    HW217249   0.195   4.238   5.556
 3660SOL     OW17250   5.189   2.308   0.556
 3660SOL    HW117251   5.154   2.254   0.633
 3660SOL    HW217252   5.142   2.397   0.554
 3661SOL     OW17253   5.084   5.384   6.115
 3661SOL    HW117254   5.021   5.314   6.080
 3661SOL    HW217255   5.035   5.447   6.175
 3662SOL     OW17256   5.991   5.027   5.199
 3662SOL    HW117257   5.936   4.957   5.243
 3662SOL    HW217258   5.932   5.095   5.156
 3663SOL     OW17259   4.115   1.071   1.234
 3663SOL    HW117260   4.171   1.145   1.199
 3663SOL    HW217261   4.119   1.070   1.334
 3664SOL     OW17262   0.522   5.675   5.467
 3664SOL    HW117263   0.580   5.647   5.390
 3664SOL    HW217264   0.459   5.746   5.436
 3665SOL     OW17265   4.991   5.613   5.790
 3665SOL    HW117266   4.999   5.678   5.866
 3665SOL    HW217267   4.936   5.654   5.717
 3666SOL     OW17268   2.616   0.642   6.500
 3666SOL    HW117269   2.594   0.659   0.027
 3666SOL    HW217270   2.696   0.695   6.475
 3667SOL     OW17271   1.617   4.737   0.588
 3667SOL    HW117272   1.633   4.835   0.598
 3667SOL    HW217273   1.704   4.689   0.576
 3668SOL     OW17274   5.389   4.772   6.534
 3668SOL    HW117275   5.351   4.690   6.490
 3668SOL    HW217276   5.315   4.836   6.554
 3669SOL     OW17277   3.366   3.946   0.520
 3669SOL    HW117278   3.376   3.929   0.618
 3669SOL    HW217279   3.456   3.940   0.476
 3670SOL     OW17280   0.115   6.152   0.607
 3670SOL    HW117281   0.177   6.112   0.539
 3670SOL    HW217282   0.051   6.213   0.562
 3671SOL     OW17283   5.143   4.189   6.088
 3671SOL    HW117284   5.156   4.256   6.014
 3671SOL    HW217285   5.221   4.127   6.092
 3672SOL     OW17286   3.564   0.935   0.934
 3672SOL    HW117287   3.528   1.027   0.919
 3672SOL    HW217288   3.616   0.906   0.854
 3673SOL     OW17289   6.229   3.635   6.464
 3673SOL    HW117290   6.158   3.569   6.491
 3673SOL    HW217291   6.271   3.674   6.546
 3674SOL     OW17292   2.785   3.820   5.835
 3674SOL    HW117293   2.833   3.765   5.904
 3674SOL    HW217294   2.810   3.788   5.744
 3675SOL     OW17295   5.091   4.016   0.111
 3675SOL    HW117296   5.015   3.977   0.060
 3675SOL    HW217297   5.060   4.042   0.203
 3676SOL     OW17298   4.203   3.897   6.548
 3676SOL    HW117299   4.256   3.969   6.504
 3676SOL    HW217300   4.243   3.808   6.526
 3677SOL     OW17301   3.461   0.207   5.764
 3677SOL    HW117302   3.412   0.246   5.843
 3677SOL    HW217303   3.443   0.109   5.758
 3678SOL     OW17304   3.147   5.596   0.206
 3678SOL    HW117305   3.142   5.645   0.119
 3678SOL    HW217306   3.142   5.662   0.281
 3679SOL     OW17307   1.969   0.325   0.306
 3679SOL    HW117308   1.993   0.229   0.290
 3679SOL    HW217309   2.052   0.378   0.320
 3680SOL     OW17310   5.987   0.928   1.423
 3680SOL    HW117311   5.906   0.878   1.454
 3680SOL    HW217312   5.989   1.018   1.466
   6.33494   6.40481   6.56968
