CCL4
 2560
    1M486   Cl3    1   1.238   2.618   0.194
    1M486    C1    2   1.106   2.560   0.300
    1M486    Cl    3   1.095   2.382   0.289
    1M486   Cl1    4   0.951   2.633   0.248
    1M486   Cl2    5   1.141   2.607   0.469
    2M486   Cl3    6   1.435   0.099   1.138
    2M486    C1    7   1.528   4.949   1.166
    2M486    Cl    8   1.594   4.890   1.010
    2M486   Cl1    9   1.420   4.824   1.237
    2M486   Cl2   10   1.663   4.982   1.279
    3M486   Cl3   11   0.899   4.643   0.670
    3M486    C1   12   0.929   4.481   0.602
    3M486    Cl   13   1.044   4.391   0.705
    3M486   Cl1   14   0.995   4.498   0.437
    3M486   Cl2   15   0.775   4.391   0.595
    4M486   Cl3   16   4.045   3.133   0.359
    4M486    C1   17   4.041   3.058   0.522
    4M486    Cl   18   4.207   3.046   0.586
    4M486   Cl1   19   3.970   2.894   0.509
    4M486   Cl2   20   3.941   3.158   0.631
    5M486   Cl3   21   0.802   0.921   3.491
    5M486    C1   22   0.723   1.039   3.600
    5M486    Cl   23   0.626   0.951   3.722
    5M486   Cl1   24   0.615   1.145   3.504
    5M486   Cl2   25   0.848   1.137   3.682
    6M486   Cl3   26   4.531   3.595   0.753
    6M486    C1   27   4.525   3.730   0.636
    6M486    Cl   28   4.368   3.815   0.650
    6M486   Cl1   29   4.543   3.667   0.469
    6M486   Cl2   30   4.659   3.845   0.670
    7M486   Cl3   31   0.363   3.250   3.830
    7M486    C1   32   0.409   3.381   3.718
    7M486    Cl   33   0.335   3.355   3.558
    7M486   Cl1   34   0.587   3.384   3.699
    7M486   Cl2   35   0.354   3.537   3.785
    8M486   Cl3   36   2.188   3.363   0.654
    8M486    C1   37   2.240   3.378   0.483
    8M486    Cl   38   2.336   3.528   0.463
    8M486   Cl1   39   2.095   3.384   0.378
    8M486   Cl2   40   2.340   3.236   0.438
    9M486   Cl3   41   0.655   2.730   4.270
    9M486    C1   42   0.488   2.675   4.237
    9M486    Cl   43   0.406   2.793   4.130
    9M486   Cl1   44   0.399   2.661   4.391
    9M486   Cl2   45   0.493   2.515   4.156
   10M486   Cl3   46   1.164   2.367   3.242
   10M486    C1   47   1.314   2.354   3.339
   10M486    Cl   48   1.272   2.328   3.511
   10M486   Cl1   49   1.409   2.505   3.323
   10M486   Cl2   50   1.412   2.218   3.280
   11M486   Cl3   51   3.048   2.471   0.408
   11M486    C1   52   3.113   2.411   0.252
   11M486    Cl   53   3.181   2.547   0.158
   11M486   Cl1   54   2.981   2.334   0.160
   11M486   Cl2   55   3.242   2.291   0.284
   12M486   Cl3   56   4.969   1.494   1.663
   12M486    C1   57   0.089   1.574   1.558
   12M486    Cl   58   0.200   1.452   1.488
   12M486   Cl1   59   0.183   1.693   1.654
   12M486   Cl2   60   0.005   1.660   1.426
   13M486   Cl3   61   2.608   4.261   2.970
   13M486    C1   62   2.769   4.181   2.974
   13M486    Cl   63   2.788   4.080   2.828
   13M486   Cl1   64   2.781   4.079   3.120
   13M486   Cl2   65   2.897   4.305   2.978
   14M486   Cl3   66   1.102   3.842   0.566
   14M486    C1   67   0.941   3.918   0.549
   14M486    Cl   68   0.877   3.888   0.385
   14M486   Cl1   69   0.955   4.095   0.575
   14M486   Cl2   70   0.830   3.849   0.671
   15M486   Cl3   71   4.468   0.068   0.053
   15M486    C1   72   4.356   4.959   0.140
   15M486    Cl   73   4.314   0.028   0.299
   15M486   Cl1   74   4.435   4.800   0.163
   15M486   Cl2   75   4.207   4.938   0.043
   16M486   Cl3   76   1.611   3.277   2.481
   16M486    C1   77   1.637   3.263   2.658
   16M486    Cl   78   1.543   3.391   2.742
   16M486   Cl1   79   1.810   3.281   2.696
   16M486   Cl2   80   1.581   3.102   2.714
   17M486   Cl3   81   0.517   2.057   2.045
   17M486    C1   82   0.545   2.171   1.910
   17M486    Cl   83   0.417   2.151   1.787
   17M486   Cl1   84   0.704   2.138   1.837
   17M486   Cl2   85   0.542   2.339   1.972
   18M486   Cl3   86   1.120   2.739   4.680
   18M486    C1   87   1.242   2.648   4.775
   18M486    Cl   88   1.331   2.762   4.880
   18M486   Cl1   89   1.356   2.568   4.663
   18M486   Cl2   90   1.159   2.525   4.875
   19M486   Cl3   91   3.382   0.990   0.429
   19M486    C1   92   3.320   1.095   0.559
   19M486    Cl   93   3.432   1.232   0.583
   19M486   Cl1   94   3.308   1.001   0.711
   19M486   Cl2   95   3.158   1.156   0.513
   20M486   Cl3   96   3.371   1.296   4.052
   20M486    C1   97   3.492   1.179   4.113
   20M486    Cl   98   3.602   1.261   4.228
   20M486   Cl1   99   3.586   1.114   3.976
   20M486   Cl2  100   3.408   1.044   4.196
   21M486   Cl3  101   1.846   1.219   3.600
   21M486    C1  102   1.913   1.312   3.463
   21M486    Cl  103   1.794   1.314   3.330
   21M486   Cl1  104   2.064   1.236   3.405
   21M486   Cl2  105   1.947   1.480   3.515
   22M486   Cl3  106   1.405   3.110   1.828
   22M486    C1  107   1.277   3.026   1.737
   22M486    Cl  108   1.118   3.098   1.778
   22M486   Cl1  109   1.277   2.853   1.781
   22M486   Cl2  110   1.307   3.043   1.562
   23M486   Cl3  111   3.092   3.795   0.461
   23M486    C1  112   3.079   3.711   0.304
   23M486    Cl  113   3.227   3.615   0.275
   23M486   Cl1  114   3.060   3.833   0.174
   23M486   Cl2  115   2.937   3.602   0.305
   24M486   Cl3  116   4.835   4.122   3.756
   24M486    C1  117   4.967   4.116   3.876
   24M486    Cl  118   0.122   4.151   3.795
   24M486   Cl1  119   4.974   3.952   3.947
   24M486   Cl2  120   4.938   4.236   4.006
   25M486   Cl3  121   3.324   1.545   2.947
   25M486    C1  122   3.253   1.528   2.783
   25M486    Cl  123   3.308   1.374   2.711
   25M486   Cl1  124   3.305   1.664   2.680
   25M486   Cl2  125   3.074   1.528   2.796
   26M486   Cl3  126   0.536   0.476   0.717
   26M486    C1  127   0.711   0.480   0.680
   26M486    Cl  128   0.802   0.544   0.820
   26M486   Cl1  129   0.739   0.584   0.537
   26M486   Cl2  130   0.767   0.314   0.644
   27M486   Cl3  131   3.365   2.568   2.183
   27M486    C1  132   3.526   2.492   2.164
   27M486    Cl  133   3.631   2.536   2.302
   27M486   Cl1  134   3.602   2.548   2.012
   27M486   Cl2  135   3.508   2.314   2.159
   28M486   Cl3  136   4.122   2.683   4.228
   28M486    C1  137   4.103   2.524   4.307
   28M486    Cl  138   4.064   2.547   4.480
   28M486   Cl1  139   4.255   2.430   4.291
   28M486   Cl2  140   3.970   2.434   4.228
   29M486   Cl3  141   2.385   2.957   4.527
   29M486    C1  142   2.275   2.877   4.410
   29M486    Cl  143   2.279   2.963   4.254
   29M486   Cl1  144   2.108   2.879   4.474
   29M486   Cl2  145   2.327   2.707   4.386
   30M486   Cl3  146   1.614   3.797   4.571
   30M486    C1  147   1.679   3.718   4.423
   30M486    Cl  148   1.544   3.680   4.312
   30M486   Cl1  149   1.762   3.567   4.468
   30M486   Cl2  150   1.794   3.829   4.342
   31M486   Cl3  151   1.815   2.111   4.592
   31M486    C1  152   1.834   2.288   4.608
   31M486    Cl  153   1.679   2.360   4.661
   31M486   Cl1  154   1.881   2.359   4.451
   31M486   Cl2  155   1.961   2.323   4.730
   32M486   Cl3  156   4.637   3.456   1.580
   32M486    C1  157   4.639   3.453   1.401
   32M486    Cl  158   4.678   3.617   1.340
   32M486   Cl1  159   4.479   3.402   1.340
   32M486   Cl2  160   4.764   3.339   1.344
   33M486   Cl3  161   3.040   2.675   4.092
   33M486    C1  162   3.218   2.689   4.104
   33M486    Cl  163   3.285   2.538   4.173
   33M486   Cl1  164   3.259   2.827   4.210
   33M486   Cl2  165   3.287   2.716   3.941
   34M486   Cl3  166   3.416   3.020   3.323
   34M486    C1  167   3.595   3.028   3.316
   34M486    Cl  168   3.659   2.874   3.253
   34M486   Cl1  169   3.660   3.058   3.480
   34M486   Cl2  170   3.644   3.162   3.207
   35M486   Cl3  171   3.071   2.350   1.371
   35M486    C1  172   3.103   2.246   1.229
   35M486    Cl  173   3.046   2.080   1.264
   35M486   Cl1  174   3.279   2.243   1.198
   35M486   Cl2  175   3.019   2.310   1.086
   36M486   Cl3  176   4.238   4.425   1.930
   36M486    C1  177   4.239   4.284   1.819
   36M486    Cl  178   4.129   4.158   1.883
   36M486   Cl1  179   4.404   4.218   1.806
   36M486   Cl2  180   4.182   4.336   1.658
   37M486   Cl3  181   2.379   0.454   3.034
   37M486    C1  182   2.215   0.521   3.062
   37M486    Cl  183   2.215   0.616   3.214
   37M486   Cl1  184   2.098   0.386   3.077
   37M486   Cl2  185   2.169   0.626   2.925
   38M486   Cl3  186   4.301   1.873   3.257
   38M486    C1  187   4.440   1.970   3.315
   38M486    Cl  188   4.495   1.907   3.474
   38M486   Cl1  189   4.391   2.141   3.333
   38M486   Cl2  190   4.574   1.959   3.197
   39M486   Cl3  191   4.988   0.120   1.961
   39M486    C1  192   4.898   0.116   1.807
   39M486    Cl  193   4.978   0.002   1.694
   39M486   Cl1  194   4.895   0.279   1.735
   39M486   Cl2  195   4.730   0.061   1.838
   40M486   Cl3  196   3.346   0.214   1.578
   40M486    C1  197   3.366   0.213   1.400
   40M486    Cl  198   3.243   0.107   1.326
   40M486   Cl1  199   3.529   0.153   1.358
   40M486   Cl2  200   3.347   0.380   1.336
   41M486   Cl3  201   1.853   3.949   0.487
   41M486    C1  202   1.966   3.858   0.593
   41M486    Cl  203   2.094   3.968   0.652
   41M486   Cl1  204   2.040   3.724   0.501
   41M486   Cl2  205   1.875   3.792   0.733
   42M486   Cl3  206   1.030   0.724   3.083
   42M486    C1  207   1.057   0.559   3.021
   42M486    Cl  208   1.010   0.551   2.849
   42M486   Cl1  209   0.959   0.442   3.115
   42M486   Cl2  210   1.231   0.517   3.038
   43M486   Cl3  211   1.676   2.866   4.949
   43M486    C1  212   1.647   2.936   0.110
   43M486    Cl  213   1.794   2.917   0.210
   43M486   Cl1  214   1.511   2.850   0.189
   43M486   Cl2  215   1.608   3.110   0.094
   44M486   Cl3  216   3.422   2.342   2.996
   44M486    C1  217   3.516   2.432   2.873
   44M486    Cl  218   3.597   2.317   2.762
   44M486   Cl1  219   3.638   2.534   2.953
   44M486   Cl2  220   3.404   2.535   2.779
   45M486   Cl3  221   3.084   0.733   0.743
   45M486    C1  222   2.998   0.699   0.590
   45M486    Cl  223   3.109   0.723   0.453
   45M486   Cl1  224   2.858   0.810   0.573
   45M486   Cl2  225   2.939   0.530   0.592
   46M486   Cl3  226   2.791   3.982   4.093
   46M486    C1  227   2.750   4.139   4.168
   46M486    Cl  228   2.884   4.255   4.140
   46M486   Cl1  229   2.725   4.117   4.344
   46M486   Cl2  230   2.600   4.204   4.094
   47M486   Cl3  231   2.977   4.886   1.369
   47M486    C1  232   2.891   4.767   1.472
   47M486    Cl  233   2.829   4.850   1.618
   47M486   Cl1  234   3.004   4.637   1.520
   47M486   Cl2  235   2.755   4.697   1.381
   48M486   Cl3  236   2.377   1.081   0.853
   48M486    C1  237   2.304   1.044   1.012
   48M486    Cl  238   2.174   0.923   0.992
   48M486   Cl1  239   2.236   1.194   1.083
   48M486   Cl2  240   2.430   0.979   1.122
   49M486   Cl3  241   4.707   1.570   1.288
   49M486    C1  242   4.619   1.472   1.167
   49M486    Cl  243   4.570   1.317   1.240
   49M486   Cl1  244   4.727   1.441   1.027
   49M486   Cl2  245   4.475   1.561   1.111
   50M486   Cl3  246   4.797   3.720   3.420
   50M486    C1  247   4.874   3.691   3.261
   50M486    Cl  248   4.814   3.811   3.143
   50M486   Cl1  249   4.833   3.526   3.206
   50M486   Cl2  250   0.052   3.706   3.277
   51M486   Cl3  251   4.250   0.272   4.471
   51M486    C1  252   4.281   0.382   4.609
   51M486    Cl  253   4.214   0.309   4.758
   51M486   Cl1  254   4.202   0.539   4.578
   51M486   Cl2  255   4.457   0.406   4.629
   52M486   Cl3  256   0.873   2.130   4.558
   52M486    C1  257   1.039   2.122   4.626
   52M486    Cl  258   1.101   1.955   4.612
   52M486   Cl1  259   1.036   2.172   4.797
   52M486   Cl2  260   1.145   2.234   4.535
   53M486   Cl3  261   2.755   1.208   2.845
   53M486    C1  262   2.829   1.213   2.683
   53M486    Cl  263   2.774   1.072   2.587
   53M486   Cl1  264   3.007   1.208   2.697
   53M486   Cl2  265   2.780   1.364   2.600
   54M486   Cl3  266   1.322   1.624   2.977
   54M486    C1  267   1.206   1.660   3.108
   54M486    Cl  268   1.110   1.805   3.064
   54M486   Cl1  269   1.294   1.691   3.260
   54M486   Cl2  270   1.096   1.521   3.130
   55M486   Cl3  271   2.117   0.851   2.239
   55M486    C1  272   2.150   0.986   2.350
   55M486    Cl  273   2.069   0.957   2.507
   55M486   Cl1  274   2.089   1.139   2.280
   55M486   Cl2  275   2.327   0.999   2.376
   56M486   Cl3  276   2.353   3.540   2.198
   56M486    C1  277   2.256   3.572   2.052
   56M486    Cl  278   2.301   3.455   1.925
   56M486   Cl1  279   2.291   3.738   1.994
   56M486   Cl2  280   2.082   3.557   2.090
   57M486   Cl3  281   2.367   3.010   0.722
   57M486    C1  282   2.413   3.078   0.881
   57M486    Cl  283   2.566   3.003   0.937
   57M486   Cl1  284   2.284   3.045   1.001
   57M486   Cl2  285   2.437   3.255   0.866
   58M486   Cl3  286   3.605   0.512   0.728
   58M486    C1  287   3.514   0.666   0.745
   58M486    Cl  288   3.628   0.801   0.770
   58M486   Cl1  289   3.404   0.654   0.886
   58M486   Cl2  290   3.420   0.695   0.597
   59M486   Cl3  291   0.306   4.366   3.591
   59M486    C1  292   0.481   4.401   3.583
   59M486    Cl  293   0.572   4.276   3.672
   59M486   Cl1  294   0.512   4.561   3.657
   59M486   Cl2  295   0.535   4.402   3.413
   60M486   Cl3  296   2.045   3.409   2.409
   60M486    C1  297   2.154   3.363   2.544
   60M486    Cl  298   2.124   3.469   2.685
   60M486   Cl1  299   2.324   3.379   2.492
   60M486   Cl2  300   2.123   3.194   2.591
   61M486   Cl3  301   3.834   4.019   1.339
   61M486    C1  302   3.920   4.134   1.446
   61M486    Cl  303   3.948   4.057   1.605
   61M486   Cl1  304   3.822   4.282   1.468
   61M486   Cl2  305   4.078   4.177   1.372
   62M486   Cl3  306   2.861   4.074   0.576
   62M486    C1  307   2.751   4.028   0.444
   62M486    Cl  308   2.811   4.096   0.290
   62M486   Cl1  309   2.587   4.091   0.477
   62M486   Cl2  310   2.744   3.850   0.431
   63M486   Cl3  311   0.323   4.569   0.597
   63M486    C1  312   0.400   4.686   0.709
   63M486    Cl  313   0.297   4.707   0.853
   63M486   Cl1  314   0.420   4.842   0.625
   63M486   Cl2  315   0.561   4.624   0.758
   64M486   Cl3  316   0.824   3.777   2.962
   64M486    C1  317   0.950   3.722   3.078
   64M486    Cl  318   1.079   3.636   2.989
   64M486   Cl1  319   0.876   3.612   3.198
   64M486   Cl2  320   1.019   3.864   3.161
   65M486   Cl3  321   0.630   2.713   2.445
   65M486    C1  322   0.772   2.735   2.552
   65M486    Cl  323   0.786   2.594   2.662
   65M486   Cl1  324   0.751   2.884   2.648
   65M486   Cl2  325   0.920   2.748   2.452
   66M486   Cl3  326   2.819   3.621   4.156
   66M486    C1  327   2.887   3.644   4.319
   66M486    Cl  328   2.806   3.782   4.398
   66M486   Cl1  329   3.063   3.676   4.307
   66M486   Cl2  330   2.862   3.495   4.416
   67M486   Cl3  331   2.628   0.501   0.123
   67M486    C1  332   2.711   0.608   0.240
   67M486    Cl  333   2.886   0.571   0.238
   67M486   Cl1  334   2.646   0.579   0.404
   67M486   Cl2  335   2.686   0.779   0.195
   68M486   Cl3  336   1.315   1.284   4.411
   68M486    C1  337   1.421   1.276   4.267
   68M486    Cl  338   1.437   1.439   4.197
   68M486   Cl1  339   1.349   1.167   4.145
   68M486   Cl2  340   1.583   1.215   4.314
   69M486   Cl3  341   0.638   2.357   4.731
   69M486    C1  342   0.716   2.470   4.616
   69M486    Cl  343   0.654   2.636   4.642
   69M486   Cl1  344   0.681   2.418   4.449
   69M486   Cl2  345   0.893   2.469   4.644
   70M486   Cl3  346   1.130   1.355   3.661
   70M486    C1  347   1.214   1.289   3.804
   70M486    Cl  348   1.321   1.154   3.755
   70M486   Cl1  349   1.093   1.229   3.922
   70M486   Cl2  350   1.313   1.418   3.880
   71M486   Cl3  351   3.624   1.248   3.268
   71M486    C1  352   3.674   1.335   3.119
   71M486    Cl  353   3.588   1.267   2.978
   71M486   Cl1  354   3.850   1.318   3.097
   71M486   Cl2  355   3.633   1.509   3.135
   72M486   Cl3  356   3.175   1.449   4.716
   72M486    C1  357   3.182   1.452   4.894
   72M486    Cl  358   3.071   1.578   4.956
   72M486   Cl1  359   3.348   1.488   4.947
   72M486   Cl2  360   3.133   1.292   4.959
   73M486   Cl3  361   3.618   1.825   4.484
   73M486    C1  362   3.484   1.707   4.498
   73M486    Cl  363   3.328   1.789   4.468
   73M486   Cl1  364   3.483   1.638   4.664
   73M486   Cl2  365   3.507   1.576   4.379
   74M486   Cl3  366   1.827   2.981   4.672
   74M486    C1  367   1.743   2.858   4.571
   74M486    Cl  368   1.762   2.901   4.398
   74M486   Cl1  369   1.569   2.856   4.613
   74M486   Cl2  370   1.814   2.697   4.602
   75M486   Cl3  371   2.910   3.435   4.766
   75M486    C1  372   2.926   3.501   4.931
   75M486    Cl  373   2.899   3.371   0.050
   75M486   Cl1  374   2.806   3.631   4.956
   75M486   Cl2  375   3.089   3.570   4.953
   76M486   Cl3  376   0.023   4.659   1.707
   76M486    C1  377   0.108   4.686   1.861
   76M486    Cl  378   0.000   4.775   1.973
   76M486   Cl1  379   0.256   4.782   1.832
   76M486   Cl2  380   0.151   4.528   1.934
   77M486   Cl3  381   4.392   2.941   1.697
   77M486    C1  382   4.553   2.965   1.624
   77M486    Cl  383   4.555   3.120   1.535
   77M486   Cl1  384   4.588   2.831   1.511
   77M486   Cl2  385   4.678   2.969   1.753
   78M486   Cl3  386   3.939   0.875   0.618
   78M486    C1  387   3.837   0.901   0.474
   78M486    Cl  388   3.747   0.751   0.435
   78M486   Cl1  389   3.940   0.947   0.336
   78M486   Cl2  390   3.720   1.033   0.507
   79M486   Cl3  391   3.122   0.546   4.394
   79M486    C1  392   3.180   0.593   4.231
   79M486    Cl  393   3.173   0.452   4.121
   79M486   Cl1  394   3.350   0.650   4.243
   79M486   Cl2  395   3.078   0.725   4.167
   80M486   Cl3  396   2.467   2.260   1.215
   80M486    C1  397   2.601   2.237   1.332
   80M486    Cl  398   2.541   2.261   1.498
   80M486   Cl1  399   2.730   2.357   1.298
   80M486   Cl2  400   2.668   2.072   1.315
   81M486   Cl3  401   2.293   0.401   0.071
   81M486    C1  402   2.132   0.455   0.014
   81M486    Cl  403   2.060   0.566   0.133
   81M486   Cl1  404   2.026   0.313   4.992
   81M486   Cl2  405   2.150   0.540   4.857
   82M486   Cl3  406   0.246   0.262   3.235
   82M486    C1  407   0.131   0.183   3.123
   82M486    Cl  408   0.210   0.043   3.044
   82M486   Cl1  409   0.082   0.301   2.998
   82M486   Cl2  410   4.986   0.127   3.213
   83M486   Cl3  411   3.427   4.371   4.868
   83M486    C1  412   3.501   4.257   4.752
   83M486    Cl  413   3.668   4.218   4.805
   83M486   Cl1  414   3.507   4.333   4.590
   83M486   Cl2  415   3.404   4.107   4.743
   84M486   Cl3  416   2.539   0.563   1.480
   84M486    C1  417   2.501   0.595   1.652
   84M486    Cl  418   2.464   0.441   1.735
   84M486   Cl1  419   2.360   0.705   1.664
   84M486   Cl2  420   2.642   0.673   1.731
   85M486   Cl3  421   3.406   2.951   1.659
   85M486    C1  422   3.466   2.837   1.783
   85M486    Cl  423   3.331   2.788   1.891
   85M486   Cl1  424   3.593   2.918   1.880
   85M486   Cl2  425   3.534   2.692   1.704
   86M486   Cl3  426   4.710   3.442   2.515
   86M486    C1  427   4.533   3.465   2.509
   86M486    Cl  428   4.468   3.468   2.675
   86M486   Cl1  429   4.457   3.332   2.417
   86M486   Cl2  430   4.496   3.620   2.428
   87M486   Cl3  431   3.951   4.496   0.073
   87M486    C1  432   3.891   4.341   0.138
   87M486    Cl  433   3.952   4.318   0.304
   87M486   Cl1  434   3.948   4.207   0.034
   87M486   Cl2  435   3.712   4.343   0.139
   88M486   Cl3  436   2.103   2.470   0.550
   88M486    C1  437   1.959   2.381   0.492
   88M486    Cl  438   1.936   2.233   0.589
   88M486   Cl1  439   1.982   2.336   0.320
   88M486   Cl2  440   1.814   2.486   0.508
   89M486   Cl3  441   4.569   0.113   4.141
   89M486    C1  442   4.615   0.286   4.152
   89M486    Cl  443   4.522   0.363   4.283
   89M486   Cl1  444   4.580   0.368   3.997
   89M486   Cl2  445   4.789   0.298   4.188
   90M486   Cl3  446   4.302   0.262   0.690
   90M486    C1  447   4.131   0.244   0.740
   90M486    Cl  448   4.117   0.109   0.856
   90M486   Cl1  449   4.031   0.211   0.596
   90M486   Cl2  450   4.076   0.396   0.817
   91M486   Cl3  451   4.304   3.835   4.091
   91M486    C1  452   4.368   3.703   3.989
   91M486    Cl  453   4.451   3.772   3.846
   91M486   Cl1  454   4.234   3.598   3.934
   91M486   Cl2  455   4.485   3.605   4.084
   92M486   Cl3  456   4.588   1.989   0.043
   92M486    C1  457   4.621   1.813   0.029
   92M486    Cl  458   4.768   1.788   4.931
   92M486   Cl1  459   4.482   1.732   4.951
   92M486   Cl2  460   4.646   1.745   0.193
   93M486   Cl3  461   4.119   3.732   1.632
   93M486    C1  462   4.235   3.809   1.520
   93M486    Cl  463   4.159   3.832   1.360
   93M486   Cl1  464   4.379   3.704   1.503
   93M486   Cl2  465   4.286   3.968   1.586
   94M486   Cl3  466   0.311   2.584   3.863
   94M486    C1  467   0.300   2.519   3.697
   94M486    Cl  468   0.452   2.434   3.656
   94M486   Cl1  469   0.273   2.653   3.582
   94M486   Cl2  470   0.163   2.406   3.686
   95M486   Cl3  471   4.857   2.037   0.263
   95M486    C1  472   4.742   2.123   0.371
   95M486    Cl  473   4.631   2.003   0.446
   95M486   Cl1  474   4.647   2.240   0.276
   95M486   Cl2  475   4.833   2.210   0.498
   96M486   Cl3  476   0.321   4.128   2.456
   96M486    C1  477   0.156   4.111   2.388
   96M486    Cl  478   0.157   4.159   2.216
   96M486   Cl1  479   0.044   4.216   2.479
   96M486   Cl2  480   0.104   3.940   2.403
   97M486   Cl3  481   3.766   0.983   3.075
   97M486    C1  482   3.624   0.881   3.039
   97M486    Cl  483   3.663   0.711   3.078
   97M486   Cl1  484   3.582   0.897   2.866
   97M486   Cl2  485   3.485   0.935   3.138
   98M486   Cl3  486   0.714   3.024   3.275
   98M486    C1  487   0.824   2.897   3.336
   98M486    Cl  488   0.989   2.930   3.277
   98M486   Cl1  489   0.770   2.736   3.278
   98M486   Cl2  490   0.826   2.898   3.515
   99M486   Cl3  491   2.651   3.164   0.590
   99M486    C1  492   2.705   3.092   0.436
   99M486    Cl  493   2.665   3.203   0.301
   99M486   Cl1  494   2.623   2.935   0.412
   99M486   Cl2  495   2.882   3.067   0.441
  100M486   Cl3  496   3.317   0.024   4.457
  100M486    C1  497   3.267   0.152   4.342
  100M486    Cl  498   3.284   0.093   4.175
  100M486   Cl1  499   3.370   0.297   4.366
  100M486   Cl2  500   3.096   0.195   4.373
  101M486   Cl3  501   2.110   1.863   3.499
  101M486    C1  502   1.998   1.917   3.370
  101M486    Cl  503   1.892   1.781   3.324
  101M486   Cl1  504   2.093   1.970   3.228
  101M486   Cl2  505   1.898   2.052   3.429
  102M486   Cl3  506   2.614   0.401   4.775
  102M486    C1  507   2.668   0.388   4.605
  102M486    Cl  508   2.531   0.332   4.503
  102M486   Cl1  509   2.803   0.270   4.594
  102M486   Cl2  510   2.724   0.548   4.546
  103M486   Cl3  511   1.038   1.842   4.989
  103M486    C1  512   1.073   1.910   0.150
  103M486    Cl  513   1.199   1.812   0.231
  103M486   Cl1  514   0.924   1.908   0.249
  103M486   Cl2  515   1.130   2.079   0.132
  104M486   Cl3  516   1.810   3.599   2.570
  104M486    C1  517   1.716   3.668   2.434
  104M486    Cl  518   1.791   3.822   2.383
  104M486   Cl1  519   1.548   3.697   2.488
  104M486   Cl2  520   1.716   3.553   2.297
  105M486   Cl3  521   4.716   2.550   1.025
  105M486    C1  522   4.663   2.455   1.167
  105M486    Cl  523   4.506   2.377   1.130
  105M486   Cl1  524   4.645   2.562   1.309
  105M486   Cl2  525   4.785   2.329   1.203
  106M486   Cl3  526   1.173   4.167   3.262
  106M486    C1  527   1.314   4.184   3.372
  106M486    Cl  528   1.458   4.112   3.295
  106M486   Cl1  529   1.279   4.100   3.526
  106M486   Cl2  530   1.345   4.357   3.404
  107M486   Cl3  531   4.515   4.470   0.040
  107M486    C1  532   4.338   4.447   0.044
  107M486    Cl  533   4.258   4.588   4.966
  107M486   Cl1  534   4.283   4.434   0.214
  107M486   Cl2  535   4.294   4.298   4.955
  108M486   Cl3  536   1.870   4.575   3.826
  108M486    C1  537   1.697   4.535   3.803
  108M486    Cl  538   1.656   4.537   3.629
  108M486   Cl1  539   1.596   4.656   3.889
  108M486   Cl2  540   1.665   4.372   3.870
  109M486   Cl3  541   1.639   4.122   4.114
  109M486    C1  542   1.627   4.017   3.969
  109M486    Cl  543   1.478   4.056   3.878
  109M486   Cl1  544   1.621   3.847   4.021
  109M486   Cl2  545   1.770   4.041   3.864
  110M486   Cl3  546   2.010   2.450   1.400
  110M486    C1  547   2.162   2.430   1.491
  110M486    Cl  548   2.197   2.256   1.515
  110M486   Cl1  549   2.145   2.509   1.651
  110M486   Cl2  550   2.297   2.505   1.402
  111M486   Cl3  551   4.377   0.979   0.120
  111M486    C1  552   4.440   1.044   0.274
  111M486    Cl  553   4.539   0.919   0.355
  111M486   Cl1  554   4.303   1.090   0.380
  111M486   Cl2  555   4.541   1.188   0.240
  112M486   Cl3  556   2.874   1.972   2.418
  112M486    C1  557   2.973   1.843   2.494
  112M486    Cl  558   3.091   1.781   2.374
  112M486   Cl1  559   2.866   1.711   2.548
  112M486   Cl2  560   3.060   1.911   2.634
  113M486   Cl3  561   2.112   3.051   3.926
  113M486    C1  562   2.196   3.078   3.770
  113M486    Cl  563   2.327   2.958   3.752
  113M486   Cl1  564   2.265   3.243   3.769
  113M486   Cl2  565   2.080   3.061   3.635
  114M486   Cl3  566   3.290   3.383   2.892
  114M486    C1  567   3.255   3.250   3.007
  114M486    Cl  568   3.371   3.116   2.979
  114M486   Cl1  569   3.088   3.191   2.981
  114M486   Cl2  570   3.272   3.310   3.174
  115M486   Cl3  571   0.761   4.857   0.126
  115M486    C1  572   0.727   4.825   4.953
  115M486    Cl  573   0.740   4.977   4.860
  115M486   Cl1  574   0.561   4.760   4.936
  115M486   Cl2  575   0.844   4.705   4.890
  116M486   Cl3  576   2.969   3.774   2.441
  116M486    C1  577   3.096   3.895   2.475
  116M486    Cl  578   3.068   3.970   2.635
  116M486   Cl1  579   3.092   4.023   2.349
  116M486   Cl2  580   3.257   3.815   2.472
  117M486   Cl3  581   0.682   3.702   4.199
  117M486    C1  582   0.757   3.720   4.037
  117M486    Cl  583   0.751   3.891   3.987
  117M486   Cl1  584   0.668   3.621   3.919
  117M486   Cl2  585   0.928   3.665   4.044
  118M486   Cl3  586   2.983   4.566   2.745
  118M486    C1  587   2.871   4.483   2.632
  118M486    Cl  588   2.860   4.576   2.479
  118M486   Cl1  589   2.709   4.473   2.707
  118M486   Cl2  590   2.931   4.318   2.599
  119M486   Cl3  591   2.480   1.170   4.514
  119M486    C1  592   2.424   1.255   4.367
  119M486    Cl  593   2.250   1.221   4.341
  119M486   Cl1  594   2.517   1.196   4.226
  119M486   Cl2  595   2.449   1.431   4.386
  120M486   Cl3  596   1.756   4.704   1.862
  120M486    C1  597   1.785   4.880   1.843
  120M486    Cl  598   1.887   4.908   1.698
  120M486   Cl1  599   1.869   4.942   1.988
  120M486   Cl2  600   1.628   4.964   1.823
  121M486   Cl3  601   2.291   4.914   3.195
  121M486    C1  602   2.436   4.987   3.271
  121M486    Cl  603   2.429   0.165   3.253
  121M486   Cl1  604   2.583   4.924   3.191
  121M486   Cl2  605   2.440   4.945   3.445
  122M486   Cl3  606   0.009   3.049   1.663
  122M486    C1  607   4.989   2.946   1.518
  122M486    Cl  608   4.862   3.014   1.413
  122M486   Cl1  609   4.941   2.781   1.569
  122M486   Cl2  610   0.143   2.938   1.428
  123M486   Cl3  611   3.693   1.103   3.594
  123M486    C1  612   3.804   0.996   3.502
  123M486    Cl  613   3.907   1.095   3.394
  123M486   Cl1  614   3.708   0.881   3.404
  123M486   Cl2  615   3.907   0.905   3.616
  124M486   Cl3  616   4.099   1.500   4.155
  124M486    C1  617   3.989   1.483   4.295
  124M486    Cl  618   4.075   1.534   4.443
  124M486   Cl1  619   3.938   1.312   4.310
  124M486   Cl2  620   3.845   1.587   4.270
  125M486   Cl3  621   4.781   4.096   0.318
  125M486    C1  622   4.608   4.140   0.308
  125M486    Cl  623   4.555   4.135   0.137
  125M486   Cl1  624   4.584   4.306   0.372
  125M486   Cl2  625   4.512   4.024   0.404
  126M486   Cl3  626   2.282   2.178   0.522
  126M486    C1  627   2.270   2.037   0.413
  126M486    Cl  628   2.243   2.093   0.245
  126M486   Cl1  629   2.133   1.934   0.464
  126M486   Cl2  630   2.422   1.943   0.422
  127M486   Cl3  631   4.905   1.920   1.628
  127M486    C1  632   4.738   1.882   1.574
  127M486    Cl  633   4.725   1.907   1.397
  127M486   Cl1  634   4.623   1.989   1.658
  127M486   Cl2  635   4.700   1.712   1.614
  128M486   Cl3  636   3.202   0.331   4.686
  128M486    C1  637   3.331   0.268   4.792
  128M486    Cl  638   3.363   0.385   4.923
  128M486   Cl1  639   3.481   0.243   4.697
  128M486   Cl2  640   3.279   0.111   4.862
  129M486   Cl3  641   2.029   0.529   2.346
  129M486    C1  642   1.915   0.583   2.472
  129M486    Cl  643   2.005   0.631   2.619
  129M486   Cl1  644   1.804   0.449   2.512
  129M486   Cl2  645   1.820   0.723   2.412
  130M486   Cl3  646   2.730   1.715   4.960
  130M486    C1  647   2.599   1.687   0.078
  130M486    Cl  648   2.667   1.612   0.225
  130M486   Cl1  649   2.476   1.580   0.006
  130M486   Cl2  650   2.523   1.843   0.120
  131M486   Cl3  651   2.517   4.625   2.353
  131M486    C1  652   2.540   4.587   2.180
  131M486    Cl  653   2.446   4.440   2.137
  131M486   Cl1  654   2.713   4.559   2.147
  131M486   Cl2  655   2.482   4.725   2.081
  132M486   Cl3  656   0.180   2.359   1.965
  132M486    C1  657   0.208   2.406   2.136
  132M486    Cl  658   0.302   2.558   2.142
  132M486   Cl1  659   0.300   2.276   2.218
  132M486   Cl2  660   0.051   2.429   2.218
  133M486   Cl3  661   1.133   2.008   3.356
  133M486    C1  662   0.965   1.950   3.378
  133M486    Cl  663   0.900   2.013   3.533
  133M486   Cl1  664   0.964   1.771   3.383
  133M486   Cl2  665   0.863   2.007   3.243
  134M486   Cl3  666   4.022   4.031   2.472
  134M486    C1  667   4.069   3.906   2.353
  134M486    Cl  668   3.954   3.769   2.363
  134M486   Cl1  669   4.235   3.849   2.390
  134M486   Cl2  670   4.065   3.975   2.188
  135M486   Cl3  671   4.321   4.645   4.312
  135M486    C1  672   4.255   4.633   4.146
  135M486    Cl  673   4.329   4.493   4.063
  135M486   Cl1  674   4.293   4.783   4.056
  135M486   Cl2  675   4.077   4.612   4.154
  136M486   Cl3  676   2.682   3.055   2.476
  136M486    C1  677   2.552   2.942   2.523
  136M486    Cl  678   2.575   2.892   2.694
  136M486   Cl1  679   2.556   2.799   2.417
  136M486   Cl2  680   2.394   3.023   2.506
  137M486   Cl3  681   4.430   3.155   3.129
  137M486    C1  682   4.331   3.257   3.021
  137M486    Cl  683   4.162   3.263   3.082
  137M486   Cl1  684   4.333   3.190   2.855
  137M486   Cl2  685   4.399   3.423   3.019
  138M486   Cl3  686   3.620   2.385   4.230
  138M486    C1  687   3.650   2.296   4.382
  138M486    Cl  688   3.495   2.238   4.449
  138M486   Cl1  689   3.729   2.406   4.500
  138M486   Cl2  690   3.758   2.157   4.351
  139M486   Cl3  691   4.639   0.911   3.206
  139M486    C1  692   4.466   0.887   3.243
  139M486    Cl  693   4.384   0.816   3.100
  139M486   Cl1  694   4.391   1.045   3.282
  139M486   Cl2  695   4.449   0.778   3.383
  140M486   Cl3  696   0.370   0.414   2.656
  140M486    C1  697   0.353   0.466   2.486
  140M486    Cl  698   0.197   0.407   2.421
  140M486   Cl1  699   0.488   0.399   2.390
  140M486   Cl2  700   0.356   0.645   2.479
  141M486   Cl3  701   3.144   1.184   3.521
  141M486    C1  702   3.319   1.167   3.556
  141M486    Cl  703   3.342   1.127   3.728
  141M486   Cl1  704   3.402   1.321   3.519
  141M486   Cl2  705   3.387   1.036   3.454
  142M486   Cl3  706   4.564   2.308   1.736
  142M486    C1  707   4.450   2.288   1.873
  142M486    Cl  708   4.492   2.140   1.964
  142M486   Cl1  709   4.283   2.274   1.810
  142M486   Cl2  710   4.461   2.430   1.981
  143M486   Cl3  711   4.831   1.667   1.935
  143M486    C1  712   4.731   1.799   2.003
  143M486    Cl  713   4.723   1.782   2.181
  143M486   Cl1  714   4.566   1.789   1.936
  143M486   Cl2  715   4.805   1.957   1.962
  144M486   Cl3  716   0.030   3.661   2.612
  144M486    C1  717   0.044   3.555   2.755
  144M486    Cl  718   0.207   3.571   2.828
  144M486   Cl1  719   0.019   3.385   2.705
  144M486   Cl2  720   4.920   3.600   2.876
  145M486   Cl3  721   3.330   1.675   1.861
  145M486    C1  722   3.351   1.793   1.728
  145M486    Cl  723   3.205   1.896   1.715
  145M486   Cl1  724   3.376   1.706   1.574
  145M486   Cl2  725   3.494   1.896   1.762
  146M486   Cl3  726   2.680   0.771   1.213
  146M486    C1  727   2.706   0.877   1.354
  146M486    Cl  728   2.767   1.036   1.298
  146M486   Cl1  729   2.827   0.802   1.463
  146M486   Cl2  730   2.552   0.901   1.442
  147M486   Cl3  731   3.965   2.991   1.990
  147M486    C1  732   3.886   2.952   2.145
  147M486    Cl  733   3.763   3.077   2.182
  147M486   Cl1  734   4.009   2.948   2.275
  147M486   Cl2  735   3.808   2.792   2.133
  148M486   Cl3  736   3.833   1.367   3.975
  148M486    C1  737   3.719   1.478   3.893
  148M486    Cl  738   3.811   1.609   3.814
  148M486   Cl1  739   3.607   1.548   4.014
  148M486   Cl2  740   3.627   1.387   3.771
  149M486   Cl3  741   1.602   3.796   3.621
  149M486    C1  742   1.728   3.669   3.635
  149M486    Cl  743   1.651   3.509   3.657
  149M486   Cl1  744   1.831   3.703   3.777
  149M486   Cl2  745   1.828   3.667   3.487
  150M486   Cl3  746   2.646   3.362   2.621
  150M486    C1  747   2.557   3.360   2.776
  150M486    Cl  748   2.467   3.513   2.796
  150M486   Cl1  749   2.673   3.340   2.911
  150M486   Cl2  750   2.442   3.223   2.777
  151M486   Cl3  751   3.821   3.581   1.811
  151M486    C1  752   3.903   3.489   1.942
  151M486    Cl  753   3.848   3.551   2.101
  151M486   Cl1  754   4.080   3.510   1.927
  151M486   Cl2  755   3.863   3.316   1.928
  152M486   Cl3  756   1.589   2.266   0.659
  152M486    C1  757   1.596   2.104   0.733
  152M486    Cl  758   1.660   1.988   0.613
  152M486   Cl1  759   1.431   2.055   0.783
  152M486   Cl2  760   1.703   2.110   0.877
  153M486   Cl3  761   0.369   0.454   1.274
  153M486    C1  762   0.400   0.536   1.118
  153M486    Cl  763   0.307   0.456   0.988
  153M486   Cl1  764   0.575   0.527   1.081
  153M486   Cl2  765   0.350   0.707   1.130
  154M486   Cl3  766   0.904   0.778   2.581
  154M486    C1  767   0.750   0.766   2.671
  154M486    Cl  768   0.630   0.878   2.597
  154M486   Cl1  769   0.776   0.812   2.842
  154M486   Cl2  770   0.688   0.598   2.662
  155M486   Cl3  771   1.766   4.242   4.677
  155M486    C1  772   1.750   4.274   4.502
  155M486    Cl  773   1.804   4.441   4.468
  155M486   Cl1  774   1.580   4.253   4.452
  155M486   Cl2  775   1.853   4.159   4.411
  156M486   Cl3  776   1.504   0.559   0.368
  156M486    C1  777   1.543   0.702   0.267
  156M486    Cl  778   1.644   0.650   0.128
  156M486   Cl1  779   1.632   0.822   0.365
  156M486   Cl2  780   1.391   0.775   0.206
  157M486   Cl3  781   4.925   2.919   0.372
  157M486    C1  782   0.019   3.046   0.289
  157M486    Cl  783   0.135   3.119   0.404
  157M486   Cl1  784   4.907   3.172   0.229
  157M486   Cl2  785   0.108   2.975   0.151
  158M486   Cl3  786   2.945   2.865   1.976
  158M486    C1  787   2.852   2.957   2.098
  158M486    Cl  788   2.917   3.123   2.110
  158M486   Cl1  789   2.865   2.874   2.255
  158M486   Cl2  790   2.680   2.966   2.049
  159M486   Cl3  791   0.532   2.150   3.871
  159M486    C1  792   0.472   2.054   3.732
  159M486    Cl  793   0.497   1.880   3.765
  159M486   Cl1  794   0.563   2.100   3.585
  159M486   Cl2  795   0.298   2.085   3.709
  160M486   Cl3  796   1.727   2.564   0.188
  160M486    C1  797   1.735   2.499   0.022
  160M486    Cl  798   1.577   2.526   4.941
  160M486   Cl1  799   1.770   2.324   0.028
  160M486   Cl2  800   1.864   2.582   4.931
  161M486   Cl3  801   3.478   0.409   0.418
  161M486    C1  802   3.627   0.328   0.361
  161M486    Cl  803   3.647   0.358   0.186
  161M486   Cl1  804   3.616   0.152   0.391
  161M486   Cl2  805   3.767   0.395   0.450
  162M486   Cl3  806   1.953   1.978   3.784
  162M486    C1  807   1.793   1.903   3.811
  162M486    Cl  808   1.684   2.022   3.890
  162M486   Cl1  809   1.810   1.759   3.916
  162M486   Cl2  810   1.723   1.853   3.654
  163M486   Cl3  811   1.977   3.320   4.581
  163M486    C1  812   2.077   3.309   4.434
  163M486    Cl  813   2.011   3.184   4.325
  163M486   Cl1  814   2.244   3.266   4.479
  163M486   Cl2  815   2.079   3.467   4.350
  164M486   Cl3  816   2.529   1.685   4.676
  164M486    C1  817   2.625   1.787   4.565
  164M486    Cl  818   2.675   1.690   4.423
  164M486   Cl1  819   2.772   1.847   4.649
  164M486   Cl2  820   2.526   1.926   4.512
  165M486   Cl3  821   2.608   2.199   2.514
  165M486    C1  822   2.504   2.079   2.430
  165M486    Cl  823   2.546   1.915   2.486
  165M486   Cl1  824   2.529   2.091   2.254
  165M486   Cl2  825   2.332   2.112   2.468
  166M486   Cl3  826   0.519   4.042   4.201
  166M486    C1  827   0.394   4.008   4.078
  166M486    Cl  828   0.386   3.831   4.049
  166M486   Cl1  829   0.436   4.092   3.926
  166M486   Cl2  830   0.235   4.066   4.136
  167M486   Cl3  831   0.474   3.154   4.172
  167M486    C1  832   0.562   3.308   4.151
  167M486    Cl  833   0.648   3.349   4.303
  167M486   Cl1  834   0.445   3.439   4.112
  167M486   Cl2  835   0.681   3.292   4.018
  168M486   Cl3  836   2.165   0.960   3.146
  168M486    C1  837   2.137   1.058   2.999
  168M486    Cl  838   2.031   1.197   3.040
  168M486   Cl1  839   2.057   0.958   2.874
  168M486   Cl2  840   2.294   1.118   2.938
  169M486   Cl3  841   4.819   3.784   4.453
  169M486    C1  842   4.731   3.925   4.388
  169M486    Cl  843   4.836   4.012   4.271
  169M486   Cl1  844   4.687   4.035   4.522
  169M486   Cl2  845   4.582   3.870   4.305
  170M486   Cl3  846   0.534   4.920   4.179
  170M486    C1  847   0.445   4.831   4.051
  170M486    Cl  848   0.561   4.770   3.930
  170M486   Cl1  849   0.328   4.942   3.973
  170M486   Cl2  850   0.358   4.694   4.125
  171M486   Cl3  851   1.298   3.428   1.945
  171M486    C1  852   1.248   3.550   2.066
  171M486    Cl  853   1.261   3.713   1.993
  171M486   Cl1  854   1.354   3.540   2.210
  171M486   Cl2  855   1.079   3.520   2.114
  172M486   Cl3  856   2.307   0.886   4.452
  172M486    C1  857   2.421   0.819   4.332
  172M486    Cl  858   2.587   0.869   4.373
  172M486   Cl1  859   2.376   0.880   4.170
  172M486   Cl2  860   2.411   0.640   4.333
  173M486   Cl3  861   0.257   0.578   3.016
  173M486    C1  862   0.245   0.703   2.888
  173M486    Cl  863   0.194   0.858   2.961
  173M486   Cl1  864   0.125   0.651   2.766
  173M486   Cl2  865   0.405   0.724   2.812
  174M486   Cl3  866   3.388   3.065   2.383
  174M486    C1  867   3.374   3.003   2.217
  174M486    Cl  868   3.490   2.870   2.195
  174M486   Cl1  869   3.411   3.134   2.101
  174M486   Cl2  870   3.208   2.942   2.189
  175M486   Cl3  871   3.132   2.876   3.117
  175M486    C1  872   3.220   2.772   3.001
  175M486    Cl  873   3.151   2.607   3.005
  175M486   Cl1  874   3.393   2.765   3.047
  175M486   Cl2  875   3.204   2.840   2.837
  176M486   Cl3  876   1.213   1.428   1.459
  176M486    C1  877   1.198   1.394   1.284
  176M486    Cl  878   1.035   1.329   1.249
  176M486   Cl1  879   1.322   1.274   1.235
  176M486   Cl2  880   1.222   1.546   1.192
  177M486   Cl3  881   0.803   4.496   3.832
  177M486    C1  882   0.752   4.403   3.976
  177M486    Cl  883   0.790   4.230   3.952
  177M486   Cl1  884   0.575   4.422   4.000
  177M486   Cl2  885   0.839   4.465   4.119
  178M486   Cl3  886   4.187   2.278   0.614
  178M486    C1  887   4.170   2.195   0.456
  178M486    Cl  888   4.065   2.292   0.349
  178M486   Cl1  889   4.097   2.033   0.481
  178M486   Cl2  890   4.331   2.177   0.381
  179M486   Cl3  891   4.306   3.205   3.887
  179M486    C1  892   4.379   3.288   3.747
  179M486    Cl  893   4.462   3.168   3.643
  179M486   Cl1  894   4.498   3.409   3.803
  179M486   Cl2  895   4.251   3.370   3.654
  180M486   Cl3  896   0.664   2.016   2.702
  180M486    C1  897   0.558   1.967   2.837
  180M486    Cl  898   0.433   1.854   2.777
  180M486   Cl1  899   0.479   2.112   2.906
  180M486   Cl2  900   0.656   1.886   2.963
  181M486   Cl3  901   2.208   2.275   2.177
  181M486    C1  902   2.179   2.376   2.032
  181M486    Cl  903   2.254   2.537   2.055
  181M486   Cl1  904   2.003   2.396   2.008
  181M486   Cl2  905   2.251   2.296   1.889
  182M486   Cl3  906   4.274   3.512   3.339
  182M486    C1  907   4.448   3.539   3.373
  182M486    Cl  908   4.467   3.617   3.533
  182M486   Cl1  909   4.517   3.645   3.248
  182M486   Cl2  910   4.534   3.382   3.373
  183M486   Cl3  911   2.239   3.996   2.580
  183M486    C1  912   2.298   3.830   2.613
  183M486    Cl  913   2.234   3.776   2.771
  183M486   Cl1  914   2.477   3.828   2.617
  183M486   Cl2  915   2.240   3.720   2.484
  184M486   Cl3  916   3.086   3.173   1.591
  184M486    C1  917   3.146   3.237   1.747
  184M486    Cl  918   3.031   3.358   1.811
  184M486   Cl1  919   3.306   3.315   1.722
  184M486   Cl2  920   3.164   3.104   1.865
  185M486   Cl3  921   4.399   2.976   1.251
  185M486    C1  922   4.488   2.900   1.116
  185M486    Cl  923   4.472   3.001   0.969
  185M486   Cl1  924   4.420   2.737   1.084
  185M486   Cl2  925   4.661   2.885   1.158
  186M486   Cl3  926   0.153   1.996   4.024
  186M486    C1  927   0.094   2.164   4.014
  186M486    Cl  928   0.232   2.275   3.991
  186M486   Cl1  929   0.008   2.207   4.165
  186M486   Cl2  930   4.981   2.179   3.876
  187M486   Cl3  931   0.925   2.972   2.941
  187M486    C1  932   1.057   2.851   2.930
  187M486    Cl  933   1.009   2.702   3.019
  187M486   Cl1  934   1.206   2.918   3.001
  187M486   Cl2  935   1.086   2.809   2.758
  188M486   Cl3  936   1.011   4.645   3.030
  188M486    C1  937   1.099   4.499   2.976
  188M486    Cl  938   1.230   4.463   3.092
  188M486   Cl1  939   1.170   4.528   2.814
  188M486   Cl2  940   0.986   4.361   2.967
  189M486   Cl3  941   1.438   0.991   2.784
  189M486    C1  942   1.317   0.883   2.858
  189M486    Cl  943   1.354   0.863   3.032
  189M486   Cl1  944   1.323   0.723   2.777
  189M486   Cl2  945   1.153   0.952   2.839
  190M486   Cl3  946   1.412   3.629   3.094
  190M486    C1  947   1.460   3.693   3.254
  190M486    Cl  948   1.603   3.800   3.235
  190M486   Cl1  949   1.503   3.558   3.361
  190M486   Cl2  950   1.325   3.785   3.326
  191M486   Cl3  951   3.329   3.419   4.742
  191M486    C1  952   3.383   3.366   4.905
  191M486    Cl  953   3.255   3.268   4.981
  191M486   Cl1  954   3.417   3.510   0.005
  191M486   Cl2  955   3.532   3.268   4.889
  192M486   Cl3  956   4.182   0.332   2.227
  192M486    C1  957   4.300   0.412   2.334
  192M486    Cl  958   4.342   0.573   2.268
  192M486   Cl1  959   4.448   0.312   2.346
  192M486   Cl2  960   4.229   0.432   2.497
  193M486   Cl3  961   2.218   3.197   1.678
  193M486    C1  962   2.051   3.196   1.740
  193M486    Cl  963   1.939   3.142   1.611
  193M486   Cl1  964   2.006   3.361   1.794
  193M486   Cl2  965   2.039   3.084   1.879
  194M486   Cl3  966   3.561   4.908   1.614
  194M486    C1  967   3.680   4.980   1.726
  194M486    Cl  968   3.845   4.932   1.677
  194M486   Cl1  969   3.649   4.922   1.893
  194M486   Cl2  970   3.665   0.158   1.722
  195M486   Cl3  971   4.414   4.808   1.662
  195M486    C1  972   4.538   4.714   1.751
  195M486    Cl  973   4.507   4.539   1.730
  195M486   Cl1  974   4.531   4.755   1.925
  195M486   Cl2  975   4.700   4.754   1.687
  196M486   Cl3  976   3.471   4.826   3.931
  196M486    C1  977   3.569   4.771   3.791
  196M486    Cl  978   3.486   4.637   3.707
  196M486   Cl1  979   3.729   4.715   3.849
  196M486   Cl2  980   3.592   4.908   3.677
  197M486   Cl3  981   0.231   3.842   3.742
  197M486    C1  982   0.362   3.862   3.622
  197M486    Cl  983   0.355   4.026   3.553
  197M486   Cl1  984   0.341   3.740   3.492
  197M486   Cl2  985   0.521   3.838   3.701
  198M486   Cl3  986   1.769   0.696   3.886
  198M486    C1  987   1.866   0.545   3.887
  198M486    Cl  988   2.003   0.562   3.772
  198M486   Cl1  989   1.764   0.407   3.838
  198M486   Cl2  990   1.930   0.516   4.051
  199M486   Cl3  991   1.566   3.506   1.735
  199M486    C1  992   1.505   3.429   1.585
  199M486    Cl  993   1.532   3.538   1.445
  199M486   Cl1  994   1.330   3.395   1.602
  199M486   Cl2  995   1.593   3.275   1.558
  200M486   Cl3  996   4.162   3.528   2.518
  200M486    C1  997   4.066   3.570   2.663
  200M486    Cl  998   4.128   3.479   2.804
  200M486   Cl1  999   3.894   3.527   2.635
  200M486   Cl2 1000   4.079   3.745   2.696
  201M486   Cl3 1001   1.018   4.971   0.689
  201M486    C1 1002   0.886   4.986   0.808
  201M486    Cl 1003   0.901   0.141   0.896
  201M486   Cl1 1004   0.896   4.852   0.926
  201M486   Cl2 1005   0.728   4.978   0.725
  202M486   Cl3 1006   1.180   0.962   4.386
  202M486    C1 1007   1.264   0.941   4.542
  202M486    Cl 1008   1.192   1.051   4.664
  202M486   Cl1 1009   1.438   0.980   4.522
  202M486   Cl2 1010   1.248   0.772   4.596
  203M486   Cl3 1011   4.296   2.665   1.402
  203M486    C1 1012   4.291   2.540   1.530
  203M486    Cl 1013   4.388   2.595   1.670
  203M486   Cl1 1014   4.360   2.388   1.466
  203M486   Cl2 1015   4.122   2.513   1.583
  204M486   Cl3 1016   3.828   0.437   1.599
  204M486    C1 1017   3.949   0.321   1.535
  204M486    Cl 1018   3.867   0.197   1.436
  204M486   Cl1 1019   4.033   0.241   1.672
  204M486   Cl2 1020   4.068   0.408   1.435
  205M486   Cl3 1021   4.753   0.597   4.413
  205M486    C1 1022   4.636   0.712   4.342
  205M486    Cl 1023   4.625   0.683   4.165
  205M486   Cl1 1024   4.690   0.880   4.372
  205M486   Cl2 1025   4.475   0.687   4.416
  206M486   Cl3 1026   1.835   3.353   1.319
  206M486    C1 1027   1.938   3.479   1.394
  206M486    Cl 1028   1.954   3.617   1.282
  206M486   Cl1 1029   2.099   3.411   1.429
  206M486   Cl2 1030   1.862   3.535   1.546
  207M486   Cl3 1031   0.044   3.564   3.592
  207M486    C1 1032   4.971   3.401   3.587
  207M486    Cl 1033   4.793   3.414   3.603
  207M486   Cl1 1034   0.035   3.305   3.723
  207M486   Cl2 1035   0.011   3.322   3.432
  208M486   Cl3 1036   0.310   2.380   0.304
  208M486    C1 1037   0.386   2.538   0.338
  208M486    Cl 1038   0.309   2.665   0.238
  208M486   Cl1 1039   0.561   2.530   0.300
  208M486   Cl2 1040   0.365   2.577   0.510
  209M486   Cl3 1041   1.913   4.334   4.103
  209M486    C1 1042   2.046   4.438   4.163
  209M486    Cl 1043   2.109   4.373   4.317
  209M486   Cl1 1044   1.982   4.603   4.189
  209M486   Cl2 1045   2.178   4.442   4.043
  210M486   Cl3 1046   1.026   4.393   3.569
  210M486    C1 1047   0.967   4.503   3.441
  210M486    Cl 1048   0.913   4.406   3.301
  210M486   Cl1 1049   1.100   4.612   3.391
  210M486   Cl2 1050   0.830   4.600   3.502
  211M486   Cl3 1051   3.549   3.005   0.119
  211M486    C1 1052   3.712   3.026   0.191
  211M486    Cl 1053   3.788   2.866   0.213
  211M486   Cl1 1054   3.697   3.107   0.350
  211M486   Cl2 1055   3.813   3.125   0.082
  212M486   Cl3 1056   1.012   0.295   3.438
  212M486    C1 1057   0.862   0.208   3.390
  212M486    Cl 1058   0.732   0.327   3.361
  212M486   Cl1 1059   0.813   0.097   3.521
  212M486   Cl2 1060   0.893   0.115   3.240
  213M486   Cl3 1061   4.889   0.724   3.397
  213M486    C1 1062   4.859   0.606   3.265
  213M486    Cl 1063   4.684   0.574   3.254
  213M486   Cl1 1064   4.946   0.454   3.301
  213M486   Cl2 1065   4.918   0.672   3.109
  214M486   Cl3 1066   1.774   1.809   4.828
  214M486    C1 1067   1.863   1.655   4.838
  214M486    Cl 1068   1.906   1.623   0.009
  214M486   Cl1 1069   2.012   1.666   4.740
  214M486   Cl2 1070   1.760   1.523   4.778
  215M486   Cl3 1071   4.227   0.742   0.376
  215M486    C1 1072   4.217   0.597   0.480
  215M486    Cl 1073   4.046   0.566   0.523
  215M486   Cl1 1074   4.312   0.623   0.629
  215M486   Cl2 1075   4.282   0.455   0.392
  216M486   Cl3 1076   2.044   3.922   3.623
  216M486    C1 1077   2.190   3.824   3.590
  216M486    Cl 1078   2.329   3.889   3.682
  216M486   Cl1 1079   2.226   3.829   3.415
  216M486   Cl2 1080   2.160   3.654   3.639
  217M486   Cl3 1081   2.483   4.073   2.350
  217M486    C1 1082   2.603   4.150   2.458
  217M486    Cl 1083   2.746   4.044   2.473
  217M486   Cl1 1084   2.530   4.176   2.619
  217M486   Cl2 1085   2.651   4.308   2.389
  218M486   Cl3 1086   4.678   2.721   3.612
  218M486    C1 1087   4.840   2.658   3.571
  218M486    Cl 1088   4.875   2.693   3.399
  218M486   Cl1 1089   4.844   2.481   3.597
  218M486   Cl2 1090   4.963   2.737   3.674
  219M486   Cl3 1091   0.820   0.781   1.123
  219M486    C1 1092   0.713   0.867   1.238
  219M486    Cl 1093   0.633   0.747   1.345
  219M486   Cl1 1094   0.589   0.959   1.147
  219M486   Cl2 1095   0.810   0.980   1.337
  220M486   Cl3 1096   2.819   4.836   1.058
  220M486    C1 1097   2.967   4.748   1.010
  220M486    Cl 1098   3.014   4.634   1.139
  220M486   Cl1 1099   3.100   4.866   0.983
  220M486   Cl2 1100   2.936   4.658   0.858
  221M486   Cl3 1101   4.585   3.690   2.921
  221M486    C1 1102   4.587   3.810   2.789
  221M486    Cl 1103   4.703   3.757   2.664
  221M486   Cl1 1104   4.636   3.969   2.853
  221M486   Cl2 1105   4.423   3.822   2.716
  222M486   Cl3 1106   2.993   4.338   3.781
  222M486    C1 1107   2.890   4.484   3.774
  222M486    Cl 1108   2.741   4.447   3.682
  222M486   Cl1 1109   2.979   4.617   3.693
  222M486   Cl2 1110   2.847   4.535   3.940
  223M486   Cl3 1111   4.202   2.748   1.912
  223M486    C1 1112   4.318   2.805   2.035
  223M486    Cl 1113   4.300   2.982   2.057
  223M486   Cl1 1114   4.485   2.770   1.983
  223M486   Cl2 1115   4.285   2.722   2.190
  224M486   Cl3 1116   3.365   3.641   1.865
  224M486    C1 1117   3.407   3.542   2.007
  224M486    Cl 1118   3.263   3.451   2.063
  224M486   Cl1 1119   3.466   3.648   2.139
  224M486   Cl2 1120   3.536   3.426   1.962
  225M486   Cl3 1121   1.182   4.445   1.744
  225M486    C1 1122   1.347   4.474   1.682
  225M486    Cl 1123   1.424   4.606   1.777
  225M486   Cl1 1124   1.339   4.522   1.510
  225M486   Cl2 1125   1.444   4.325   1.698
  226M486   Cl3 1126   2.208   3.881   4.721
  226M486    C1 1127   2.044   3.811   4.734
  226M486    Cl 1128   1.925   3.925   4.664
  226M486   Cl1 1129   2.005   3.780   4.906
  226M486   Cl2 1130   2.037   3.657   4.643
  227M486   Cl3 1131   1.646   4.767   4.230
  227M486    C1 1132   1.534   4.629   4.252
  227M486    Cl 1133   1.612   4.480   4.190
  227M486   Cl1 1134   1.382   4.659   4.163
  227M486   Cl2 1135   1.498   4.609   4.427
  228M486   Cl3 1136   2.188   0.172   4.449
  228M486    C1 1137   2.140   0.334   4.391
  228M486    Cl 1138   1.964   0.337   4.360
  228M486   Cl1 1139   2.228   0.372   4.240
  228M486   Cl2 1140   2.181   0.456   4.517
  229M486   Cl3 1141   2.824   2.546   2.056
  229M486    C1 1142   2.666   2.521   2.135
  229M486    Cl 1143   2.692   2.495   2.310
  229M486   Cl1 1144   2.585   2.378   2.064
  229M486   Cl2 1145   2.563   2.664   2.110
  230M486   Cl3 1146   4.338   4.668   0.474
  230M486    C1 1147   4.163   4.707   0.473
  230M486    Cl 1148   4.135   4.859   0.563
  230M486   Cl1 1149   4.071   4.574   0.550
  230M486   Cl2 1150   4.108   4.726   0.304
  231M486   Cl3 1151   1.801   4.041   3.425
  231M486    C1 1152   1.763   4.201   3.496
  231M486    Cl 1153   1.743   4.321   3.365
  231M486   Cl1 1154   1.894   4.253   3.605
  231M486   Cl2 1155   1.610   4.189   3.589
  232M486   Cl3 1156   1.528   2.682   1.587
  232M486    C1 1157   1.576   2.776   1.443
  232M486    Cl 1158   1.635   2.938   1.494
  232M486   Cl1 1159   1.435   2.795   1.335
  232M486   Cl2 1160   1.707   2.691   1.356
  233M486   Cl3 1161   4.629   4.351   3.599
  233M486    C1 1162   4.480   4.253   3.586
  233M486    Cl 1163   4.508   4.091   3.655
  233M486   Cl1 1164   4.433   4.238   3.414
  233M486   Cl2 1165   4.348   4.334   3.676
  234M486   Cl3 1166   1.665   2.720   3.429
  234M486    C1 1167   1.830   2.763   3.486
  234M486    Cl 1168   1.900   2.887   3.377
  234M486   Cl1 1169   1.933   2.617   3.485
  234M486   Cl2 1170   1.820   2.827   3.653
  235M486   Cl3 1171   2.815   3.653   2.749
  235M486    C1 1172   2.962   3.657   2.851
  235M486    Cl 1173   2.960   3.520   2.966
  235M486   Cl1 1174   2.967   3.811   2.943
  235M486   Cl2 1175   3.108   3.646   2.748
  236M486   Cl3 1176   4.755   0.331   3.031
  236M486    C1 1177   4.611   0.253   3.104
  236M486    Cl 1178   4.581   0.097   3.022
  236M486   Cl1 1179   4.469   0.360   3.084
  236M486   Cl2 1180   4.641   0.225   3.278
  237M486   Cl3 1181   2.433   0.721   4.959
  237M486    C1 1182   2.482   0.776   4.796
  237M486    Cl 1183   2.421   0.661   4.674
  237M486   Cl1 1184   2.660   0.785   4.788
  237M486   Cl2 1185   2.413   0.938   4.765
  238M486   Cl3 1186   1.632   1.740   3.108
  238M486    C1 1187   1.590   1.907   3.155
  238M486    Cl 1188   1.724   2.017   3.111
  238M486   Cl1 1189   1.562   1.914   3.332
  238M486   Cl2 1190   1.441   1.956   3.068
  239M486   Cl3 1191   0.636   1.621   0.649
  239M486    C1 1192   0.619   1.448   0.694
  239M486    Cl 1193   0.515   1.435   0.839
  239M486   Cl1 1194   0.781   1.380   0.729
  239M486   Cl2 1195   0.545   1.358   0.559
  240M486   Cl3 1196   2.516   2.437   0.512
  240M486    C1 1197   2.455   2.535   0.376
  240M486    Cl 1198   2.341   2.438   0.278
  240M486   Cl1 1199   2.592   2.588   0.274
  240M486   Cl2 1200   2.369   2.679   0.440
  241M486   Cl3 1201   2.979   0.669   2.814
  241M486    C1 1202   3.055   0.783   2.929
  241M486    Cl 1203   3.230   0.795   2.896
  241M486   Cl1 1204   3.030   0.725   3.096
  241M486   Cl2 1205   2.981   0.944   2.910
  242M486   Cl3 1206   2.759   4.650   0.552
  242M486    C1 1207   2.755   4.472   0.528
  242M486    Cl 1208   2.636   4.433   0.400
  242M486   Cl1 1209   2.709   4.391   0.680
  242M486   Cl2 1210   2.917   4.416   0.477
  243M486   Cl3 1211   0.773   2.240   0.260
  243M486    C1 1212   0.736   2.258   0.086
  243M486    Cl 1213   0.561   2.288   0.064
  243M486   Cl1 1214   0.781   2.108   0.000
  243M486   Cl2 1215   0.830   2.395   0.019
  244M486   Cl3 1216   2.956   4.456   3.389
  244M486    C1 1217   3.110   4.495   3.308
  244M486    Cl 1218   3.077   4.585   3.157
  244M486   Cl1 1219   3.197   4.343   3.269
  244M486   Cl2 1220   3.211   4.595   3.417
  245M486   Cl3 1221   4.657   3.364   0.370
  245M486    C1 1222   4.641   3.224   0.481
  245M486    Cl 1223   4.514   3.259   0.602
  245M486   Cl1 1224   4.797   3.197   0.564
  245M486   Cl2 1225   4.597   3.078   0.387
  246M486   Cl3 1226   1.384   2.913   2.123
  246M486    C1 1227   1.233   2.989   2.181
  246M486    Cl 1228   1.093   2.914   2.099
  246M486   Cl1 1229   1.238   3.164   2.144
  246M486   Cl2 1230   1.218   2.966   2.358
  247M486   Cl3 1231   1.848   0.986   3.256
  247M486    C1 1232   1.770   0.857   3.160
  247M486    Cl 1233   1.697   0.927   3.014
  247M486   Cl1 1234   1.645   0.778   3.260
  247M486   Cl2 1235   1.893   0.736   3.110
  248M486   Cl3 1236   1.604   1.002   0.065
  248M486    C1 1237   1.502   1.013   4.919
  248M486    Cl 1238   1.486   0.850   4.846
  248M486   Cl1 1239   1.578   1.125   4.802
  248M486   Cl2 1240   1.341   1.075   4.965
  249M486   Cl3 1241   0.041   3.609   3.937
  249M486    C1 1242   4.863   3.609   3.951
  249M486    Cl 1243   4.805   3.440   3.957
  249M486   Cl1 1244   4.792   3.693   3.810
  249M486   Cl2 1245   4.815   3.693   4.101
  250M486   Cl3 1246   4.252   0.092   3.143
  250M486    C1 1247   4.182   0.151   3.297
  250M486    Cl 1248   4.303   0.250   3.384
  250M486   Cl1 1249   4.137   0.010   3.398
  250M486   Cl2 1250   4.037   0.250   3.263
  251M486   Cl3 1251   4.084   1.721   0.321
  251M486    C1 1252   4.263   1.717   0.320
  251M486    Cl 1253   4.318   1.573   0.228
  251M486   Cl1 1254   4.324   1.709   0.488
  251M486   Cl2 1255   4.326   1.865   0.242
  252M486   Cl3 1256   2.561   2.193   0.113
  252M486    C1 1257   2.674   2.152   4.980
  252M486    Cl 1258   2.739   2.303   4.909
  252M486   Cl1 1259   2.588   2.060   4.853
  252M486   Cl2 1260   2.809   2.053   0.044
  253M486   Cl3 1261   3.127   2.814   0.590
  253M486    C1 1262   3.188   2.737   0.740
  253M486    Cl 1263   3.108   2.808   0.882
  253M486   Cl1 1264   3.365   2.763   0.752
  253M486   Cl2 1265   3.154   2.561   0.734
  254M486   Cl3 1266   4.872   4.953   4.039
  254M486    C1 1267   4.943   0.066   3.920
  254M486    Cl 1268   4.813   0.164   3.846
  254M486   Cl1 1269   0.027   4.973   3.792
  254M486   Cl2 1270   0.060   0.173   4.002
  255M486   Cl3 1271   0.309   2.255   3.404
  255M486    C1 1272   0.282   2.384   3.283
  255M486    Cl 1273   0.120   2.454   3.307
  255M486   Cl1 1274   0.295   2.315   3.119
  255M486   Cl2 1275   0.407   2.510   3.303
  256M486   Cl3 1276   4.150   0.904   4.503
  256M486    C1 1277   4.281   1.021   4.469
  256M486    Cl 1278   4.345   0.993   4.305
  256M486   Cl1 1279   4.412   1.001   4.589
  256M486   Cl2 1280   4.216   1.188   4.480
  257M486   Cl3 1281   2.507   3.851   4.243
  257M486    C1 1282   2.405   3.912   4.377
  257M486    Cl 1283   2.365   4.084   4.350
  257M486   Cl1 1284   2.494   3.895   4.531
  257M486   Cl2 1285   2.254   3.815   4.384
  258M486   Cl3 1286   0.634   2.549   1.278
  258M486    C1 1287   0.655   2.440   1.138
  258M486    Cl 1288   0.703   2.277   1.195
  258M486   Cl1 1289   0.783   2.505   1.031
  258M486   Cl2 1290   0.501   2.428   1.048
  259M486   Cl3 1291   3.590   2.722   4.127
  259M486    C1 1292   3.622   2.763   4.298
  259M486    Cl 1293   3.510   2.673   4.405
  259M486   Cl1 1294   3.600   2.939   4.322
  259M486   Cl2 1295   3.791   2.718   4.339
  260M486   Cl3 1296   1.849   3.451   0.637
  260M486    C1 1297   1.687   3.499   0.576
  260M486    Cl 1298   1.603   3.356   0.509
  260M486   Cl1 1299   1.707   3.622   0.448
  260M486   Cl2 1300   1.591   3.568   0.711
  261M486   Cl3 1301   0.402   2.984   4.959
  261M486    C1 1302   0.338   3.029   4.798
  261M486    Cl 1303   0.387   2.905   4.678
  261M486   Cl1 1304   0.403   3.188   4.750
  261M486   Cl2 1305   0.159   3.038   4.805
  262M486   Cl3 1306   0.516   2.347   2.657
  262M486    C1 1307   0.340   2.340   2.631
  262M486    Cl 1308   0.256   2.379   2.785
  262M486   Cl1 1309   0.293   2.176   2.578
  262M486   Cl2 1310   0.294   2.460   2.507
  263M486   Cl3 1311   2.870   3.657   0.689
  263M486    C1 1312   2.806   3.494   0.656
  263M486    Cl 1313   2.937   3.390   0.592
  263M486   Cl1 1314   2.675   3.505   0.535
  263M486   Cl2 1315   2.742   3.423   0.807
  264M486   Cl3 1316   3.328   2.150   1.914
  264M486    C1 1317   3.340   2.279   1.791
  264M486    Cl 1318   3.315   2.437   1.869
  264M486   Cl1 1319   3.214   2.254   1.666
  264M486   Cl2 1320   3.502   2.275   1.715
  265M486   Cl3 1321   3.845   4.376   1.810
  265M486    C1 1322   3.836   4.551   1.770
  265M486    Cl 1323   3.926   4.583   1.619
  265M486   Cl1 1324   3.908   4.646   1.904
  265M486   Cl2 1325   3.665   4.598   1.749
  266M486   Cl3 1326   2.421   4.425   3.548
  266M486    C1 1327   2.307   4.338   3.655
  266M486    Cl 1328   2.395   4.277   3.798
  266M486   Cl1 1329   2.235   4.201   3.565
  266M486   Cl2 1330   2.177   4.450   3.706
  267M486   Cl3 1331   0.900   2.655   0.741
  267M486    C1 1332   0.771   2.600   0.630
  267M486    Cl 1333   0.627   2.553   0.724
  267M486   Cl1 1334   0.829   2.459   0.537
  267M486   Cl2 1335   0.728   2.733   0.519
  268M486   Cl3 1336   2.914   4.256   2.179
  268M486    C1 1337   3.065   4.350   2.160
  268M486    Cl 1338   3.117   4.413   2.319
  268M486   Cl1 1339   3.036   4.486   2.048
  268M486   Cl2 1340   3.193   4.245   2.094
  269M486   Cl3 1341   1.264   4.256   2.539
  269M486    C1 1342   1.088   4.273   2.511
  269M486    Cl 1343   1.043   4.185   2.362
  269M486   Cl1 1344   1.047   4.446   2.492
  269M486   Cl2 1345   0.998   4.205   2.649
  270M486   Cl3 1346   0.225   4.838   1.484
  270M486    C1 1347   0.117   4.830   1.342
  270M486    Cl 1348   0.214   4.823   1.192
  270M486   Cl1 1349   0.013   4.976   1.339
  270M486   Cl2 1350   0.014   4.683   1.354
  271M486   Cl3 1351   1.164   0.732   4.941
  271M486    C1 1352   1.032   0.636   4.868
  271M486    Cl 1353   0.926   0.745   4.773
  271M486   Cl1 1354   0.937   0.556   4.997
  271M486   Cl2 1355   1.101   0.512   4.759
  272M486   Cl3 1356   0.790   2.204   2.201
  272M486    C1 1357   0.695   2.245   2.347
  272M486    Cl 1358   0.806   2.267   2.485
  272M486   Cl1 1359   0.579   2.114   2.382
  272M486   Cl2 1360   0.605   2.397   2.318
  273M486   Cl3 1361   0.904   4.487   1.553
  273M486    C1 1362   0.953   4.630   1.457
  273M486    Cl 1363   1.050   4.577   1.316
  273M486   Cl1 1364   1.050   4.740   1.559
  273M486   Cl2 1365   0.807   4.714   1.399
  274M486   Cl3 1366   4.983   4.257   3.473
  274M486    C1 1367   4.942   4.097   3.404
  274M486    Cl 1368   4.765   4.074   3.406
  274M486   Cl1 1369   0.019   3.968   3.502
  274M486   Cl2 1370   0.002   4.087   3.236
  275M486   Cl3 1371   3.012   3.757   4.665
  275M486    C1 1372   2.962   3.922   4.713
  275M486    Cl 1373   2.978   4.032   4.572
  275M486   Cl1 1374   3.067   3.979   4.846
  275M486   Cl2 1375   2.791   3.920   4.767
  276M486   Cl3 1376   3.567   3.549   0.408
  276M486    C1 1377   3.723   3.520   0.326
  276M486    Cl 1378   3.801   3.676   0.287
  276M486   Cl1 1379   3.695   3.429   0.175
  276M486   Cl2 1380   3.831   3.426   0.433
  277M486   Cl3 1381   4.200   0.558   3.241
  277M486    C1 1382   4.061   0.671   3.243
  277M486    Cl 1383   4.018   0.716   3.075
  277M486   Cl1 1384   4.106   0.818   3.334
  277M486   Cl2 1385   3.921   0.593   3.322
  278M486   Cl3 1386   2.907   1.593   0.610
  278M486    C1 1387   2.892   1.437   0.696
  278M486    Cl 1388   3.049   1.393   0.769
  278M486   Cl1 1389   2.842   1.310   0.579
  278M486   Cl2 1390   2.768   1.451   0.825
  279M486   Cl3 1391   0.927   3.130   3.763
  279M486    C1 1392   0.956   3.266   3.651
  279M486    Cl 1393   0.934   3.421   3.737
  279M486   Cl1 1394   0.841   3.256   3.514
  279M486   Cl2 1395   1.123   3.257   3.587
  280M486   Cl3 1396   0.443   3.042   0.934
  280M486    C1 1397   0.529   2.906   0.856
  280M486    Cl 1398   0.693   2.959   0.808
  280M486   Cl1 1399   0.439   2.855   0.711
  280M486   Cl2 1400   0.542   2.770   0.972
  281M486   Cl3 1401   4.828   0.270   1.258
  281M486    C1 1402   4.856   0.221   1.089
  281M486    Cl 1403   0.031   0.230   1.052
  281M486   Cl1 1404   4.767   0.330   0.979
  281M486   Cl2 1405   4.799   0.053   1.065
  282M486   Cl3 1406   1.330   1.975   4.868
  282M486    C1 1407   1.436   2.096   4.791
  282M486    Cl 1408   1.448   2.063   4.616
  282M486   Cl1 1409   1.599   2.088   4.864
  282M486   Cl2 1410   1.369   2.260   4.816
  283M486   Cl3 1411   1.115   0.990   1.160
  283M486    C1 1412   1.177   0.931   1.317
  283M486    Cl 1413   1.099   0.775   1.357
  283M486   Cl1 1414   1.140   1.051   1.445
  283M486   Cl2 1415   1.354   0.909   1.306
  284M486   Cl3 1416   4.123   1.773   4.963
  284M486    C1 1417   4.103   1.951   4.958
  284M486    Cl 1418   3.985   1.995   4.831
  284M486   Cl1 1419   4.261   2.027   4.921
  284M486   Cl2 1420   4.044   2.010   0.116
  285M486   Cl3 1421   0.051   0.871   0.634
  285M486    C1 1422   0.223   0.879   0.684
  285M486    Cl 1423   0.298   1.027   0.616
  285M486   Cl1 1424   0.310   0.735   0.623
  285M486   Cl2 1425   0.233   0.884   0.862
  286M486   Cl3 1426   4.981   2.637   1.901
  286M486    C1 1427   4.862   2.523   1.831
  286M486    Cl 1428   4.717   2.613   1.779
  286M486   Cl1 1429   4.817   2.401   1.954
  286M486   Cl2 1430   4.935   2.440   1.690
  287M486   Cl3 1431   2.383   1.465   2.684
  287M486    C1 1432   2.335   1.316   2.597
  287M486    Cl 1433   2.329   1.349   2.421
  287M486   Cl1 1434   2.174   1.262   2.652
  287M486   Cl2 1435   2.455   1.188   2.630
  288M486   Cl3 1436   2.023   4.149   4.910
  288M486    C1 1437   1.898   4.120   0.034
  288M486    Cl 1438   1.965   4.018   0.165
  288M486   Cl1 1439   1.758   4.035   4.960
  288M486   Cl2 1440   1.844   4.276   0.102
  289M486   Cl3 1441   2.555   4.108   3.510
  289M486    C1 1442   2.709   4.060   3.587
  289M486    Cl 1443   2.730   3.883   3.573
  289M486   Cl1 1444   2.706   4.106   3.760
  289M486   Cl2 1445   2.845   4.143   3.505
  290M486   Cl3 1446   1.111   4.071   0.871
  290M486    C1 1447   1.101   4.122   1.042
  290M486    Cl 1448   0.930   4.121   1.095
  290M486   Cl1 1449   1.168   4.286   1.059
  290M486   Cl2 1450   1.196   4.008   1.143
  291M486   Cl3 1451   1.909   2.249   1.705
  291M486    C1 1452   1.863   2.096   1.624
  291M486    Cl 1453   1.890   2.111   1.448
  291M486   Cl1 1454   1.690   2.062   1.655
  291M486   Cl2 1455   1.963   1.962   1.689
  292M486   Cl3 1456   3.200   4.526   4.537
  292M486    C1 1457   3.059   4.445   4.611
  292M486    Cl 1458   2.953   4.378   4.483
  292M486   Cl1 1459   2.966   4.564   4.708
  292M486   Cl2 1460   3.115   4.313   4.718
  293M486   Cl3 1461   1.906   1.403   3.894
  293M486    C1 1462   1.805   1.342   4.028
  293M486    Cl 1463   1.772   1.475   4.143
  293M486   Cl1 1464   1.891   1.211   4.114
  293M486   Cl2 1465   1.650   1.279   3.964
  294M486   Cl3 1466   0.703   4.140   0.818
  294M486    C1 1467   0.557   4.126   0.715
  294M486    Cl 1468   0.606   4.092   0.546
  294M486   Cl1 1469   0.465   4.279   0.721
  294M486   Cl2 1470   0.455   3.992   0.775
  295M486   Cl3 1471   4.984   1.452   2.182
  295M486    C1 1472   0.090   1.378   2.059
  295M486    Cl 1473   0.222   1.287   2.140
  295M486   Cl1 1474   0.161   1.506   1.956
  295M486   Cl2 1475   4.995   1.266   1.957
  296M486   Cl3 1476   3.363   0.541   3.077
  296M486    C1 1477   3.390   0.460   2.920
  296M486    Cl 1478   3.495   0.562   2.817
  296M486   Cl1 1479   3.233   0.434   2.838
  296M486   Cl2 1480   3.470   0.302   2.948
  297M486   Cl3 1481   3.393   1.800   3.534
  297M486    C1 1482   3.478   1.707   3.407
  297M486    Cl 1483   3.561   1.820   3.296
  297M486   Cl1 1484   3.360   1.609   3.315
  297M486   Cl2 1485   3.599   1.599   3.483
  298M486   Cl3 1486   1.585   4.832   0.406
  298M486    C1 1487   1.587   4.801   0.583
  298M486    Cl 1488   1.749   4.838   0.649
  298M486   Cl1 1489   1.548   4.629   0.613
  298M486   Cl2 1490   1.465   4.906   0.663
  299M486   Cl3 1491   1.329   4.866   0.147
  299M486    C1 1492   1.244   4.736   0.237
  299M486    Cl 1493   1.078   4.718   0.174
  299M486   Cl1 1494   1.237   4.779   0.410
  299M486   Cl2 1495   1.333   4.582   0.217
  300M486   Cl3 1496   0.174   2.813   3.281
  300M486    C1 1497   0.300   2.930   3.329
  300M486    Cl 1498   0.242   3.025   3.469
  300M486   Cl1 1499   0.335   3.040   3.191
  300M486   Cl2 1500   0.449   2.843   3.373
  301M486   Cl3 1501   1.660   3.659   1.062
  301M486    C1 1502   1.502   3.739   1.089
  301M486    Cl 1503   1.376   3.615   1.116
  301M486   Cl1 1504   1.459   3.838   0.946
  301M486   Cl2 1505   1.513   3.845   1.234
  302M486   Cl3 1506   3.021   2.577   1.786
  302M486    C1 1507   3.063   2.660   1.634
  302M486    Cl 1508   3.222   2.601   1.577
  302M486   Cl1 1509   3.072   2.836   1.662
  302M486   Cl2 1510   2.938   2.627   1.510
  303M486   Cl3 1511   4.096   1.239   2.859
  303M486    C1 1512   4.190   1.192   3.003
  303M486    Cl 1513   4.203   1.332   3.114
  303M486   Cl1 1514   4.354   1.140   2.954
  303M486   Cl2 1515   4.107   1.058   3.087
  304M486   Cl3 1516   2.946   4.978   3.742
  304M486    C1 1517   3.111   4.965   3.810
  304M486    Cl 1518   3.215   4.875   3.695
  304M486   Cl1 1519   3.103   4.877   3.966
  304M486   Cl2 1520   3.178   0.129   3.835
  305M486   Cl3 1521   2.548   2.130   0.804
  305M486    C1 1522   2.409   2.041   0.874
  305M486    Cl 1523   2.356   1.913   0.761
  305M486   Cl1 1524   2.274   2.155   0.902
  305M486   Cl2 1525   2.458   1.967   1.029
  306M486   Cl3 1526   3.476   4.091   0.089
  306M486    C1 1527   3.590   3.960   0.132
  306M486    Cl 1528   3.498   3.817   0.186
  306M486   Cl1 1529   3.698   4.016   0.264
  306M486   Cl2 1530   3.689   3.918   4.989
  307M486   Cl3 1531   3.970   2.511   2.006
  307M486    C1 1532   4.002   2.434   2.164
  307M486    Cl 1533   3.880   2.306   2.192
  307M486   Cl1 1534   3.992   2.556   2.294
  307M486   Cl2 1535   4.166   2.361   2.162
  308M486   Cl3 1536   1.506   3.441   4.680
  308M486    C1 1537   1.588   3.282   4.692
  308M486    Cl 1538   1.728   3.295   4.804
  308M486   Cl1 1539   1.644   3.232   4.530
  308M486   Cl2 1540   1.474   3.160   4.756
  309M486   Cl3 1541   1.318   4.397   0.501
  309M486    C1 1542   1.395   4.274   0.606
  309M486    Cl 1543   1.378   4.323   0.777
  309M486   Cl1 1544   1.568   4.259   0.564
  309M486   Cl2 1545   1.314   4.116   0.581
  310M486   Cl3 1546   2.186   3.671   1.657
  310M486    C1 1547   2.085   3.814   1.693
  310M486    Cl 1548   1.991   3.858   1.547
  310M486   Cl1 1549   2.189   3.951   1.740
  310M486   Cl2 1550   1.973   3.774   1.827
  311M486   Cl3 1551   4.839   1.942   3.422
  311M486    C1 1552   4.842   2.115   3.467
  311M486    Cl 1553   4.798   2.215   3.326
  311M486   Cl1 1554   0.007   2.159   3.521
  311M486   Cl2 1555   4.727   2.146   3.600
  312M486   Cl3 1556   0.546   1.498   2.106
  312M486    C1 1557   0.463   1.647   2.161
  312M486    Cl 1558   0.327   1.602   2.270
  312M486   Cl1 1559   0.399   1.735   2.019
  312M486   Cl2 1560   0.578   1.752   2.250
  313M486   Cl3 1561   4.717   1.844   3.760
  313M486    C1 1562   4.872   1.754   3.752
  313M486    Cl 1563   0.006   1.868   3.721
  313M486   Cl1 1564   4.864   1.634   3.619
  313M486   Cl2 1565   4.899   1.670   3.907
  314M486   Cl3 1566   3.000   1.196   2.340
  314M486    C1 1567   3.124   1.325   2.335
  314M486    Cl 1568   3.084   1.451   2.455
  314M486   Cl1 1569   3.130   1.397   2.172
  314M486   Cl2 1570   3.284   1.255   2.375
  315M486   Cl3 1571   0.327   3.964   3.221
  315M486    C1 1572   0.447   3.853   3.149
  315M486    Cl 1573   0.377   3.688   3.138
  315M486   Cl1 1574   0.594   3.849   3.251
  315M486   Cl2 1575   0.489   3.910   2.985
  316M486   Cl3 1576   4.126   4.598   3.790
  316M486    C1 1577   4.142   4.716   3.657
  316M486    Cl 1578   4.242   4.646   3.526
  316M486   Cl1 1579   4.219   4.865   3.718
  316M486   Cl2 1580   3.979   4.755   3.593
  317M486   Cl3 1581   1.240   3.157   3.266
  317M486    C1 1582   1.152   3.292   3.188
  317M486    Cl 1583   0.976   3.258   3.190
  317M486   Cl1 1584   1.206   3.308   3.018
  317M486   Cl2 1585   1.183   3.443   3.277
  318M486   Cl3 1586   0.599   0.317   0.327
  318M486    C1 1587   0.476   0.194   0.372
  318M486    Cl 1588   0.510   0.041   0.286
  318M486   Cl1 1589   0.313   0.254   0.326
  318M486   Cl2 1590   0.481   0.167   0.548
  319M486   Cl3 1591   4.999   3.491   4.839
  319M486    C1 1592   0.136   3.486   4.954
  319M486    Cl 1593   0.289   3.516   4.865
  319M486   Cl1 1594   0.143   3.326   0.033
  319M486   Cl2 1595   0.114   3.614   0.078
  320M486   Cl3 1596   1.303   0.010   4.787
  320M486    C1 1597   1.159   4.907   4.810
  320M486    Cl 1598   1.056   4.914   4.663
  320M486   Cl1 1599   1.065   4.967   4.950
  320M486   Cl2 1600   1.209   4.738   4.839
  321M486   Cl3 1601   2.781   2.928   0.099
  321M486    C1 1602   2.910   2.804   0.107
  321M486    Cl 1603   2.963   2.784   0.276
  321M486   Cl1 1604   3.049   2.856   0.007
  321M486   Cl2 1605   2.847   2.648   0.045
  322M486   Cl3 1606   3.108   4.006   4.244
  322M486    C1 1607   3.258   4.043   4.334
  322M486    Cl 1608   3.398   4.037   4.222
  322M486   Cl1 1609   3.282   3.923   4.464
  322M486   Cl2 1610   3.246   4.207   4.404
  323M486   Cl3 1611   2.145   0.861   0.392
  323M486    C1 1612   2.264   0.732   0.427
  323M486    Cl 1613   2.348   0.686   0.277
  323M486   Cl1 1614   2.179   0.588   0.493
  323M486   Cl2 1615   2.383   0.791   0.547
  324M486   Cl3 1616   3.528   1.768   4.999
  324M486    C1 1617   3.634   1.730   0.138
  324M486    Cl 1618   3.804   1.756   0.091
  324M486   Cl1 1619   3.611   1.559   0.188
  324M486   Cl2 1620   3.593   1.838   0.275
  325M486   Cl3 1621   2.535   3.019   1.644
  325M486    C1 1622   2.701   3.071   1.605
  325M486    Cl 1623   2.780   2.947   1.502
  325M486   Cl1 1624   2.795   3.091   1.756
  325M486   Cl2 1625   2.696   3.227   1.517
  326M486   Cl3 1626   1.238   3.910   2.470
  326M486    C1 1627   1.094   3.815   2.426
  326M486    Cl 1628   1.124   3.642   2.459
  326M486   Cl1 1629   1.060   3.838   2.251
  326M486   Cl2 1630   0.953   3.871   2.521
  327M486   Cl3 1631   3.213   4.337   1.490
  327M486    C1 1632   3.313   4.422   1.611
  327M486    Cl 1633   3.218   4.445   1.761
  327M486   Cl1 1634   3.363   4.581   1.547
  327M486   Cl2 1635   3.459   4.324   1.648
  328M486   Cl3 1636   1.083   0.879   3.763
  328M486    C1 1637   1.175   0.809   3.899
  328M486    Cl 1638   1.130   0.894   4.050
  328M486   Cl1 1639   1.351   0.828   3.870
  328M486   Cl2 1640   1.136   0.635   3.914
  329M486   Cl3 1641   3.186   2.656   1.231
  329M486    C1 1642   3.307   2.785   1.262
  329M486    Cl 1643   3.364   2.853   1.107
  329M486   Cl1 1644   3.447   2.717   1.352
  329M486   Cl2 1645   3.231   2.914   1.360
  330M486   Cl3 1646   1.531   3.308   3.124
  330M486    C1 1647   1.707   3.340   3.113
  330M486    Cl 1648   1.734   3.487   3.015
  330M486   Cl1 1649   1.787   3.200   3.036
  330M486   Cl2 1650   1.774   3.364   3.277
  331M486   Cl3 1651   1.595   3.053   3.335
  331M486    C1 1652   1.580   3.115   3.502
  331M486    Cl 1653   1.467   3.253   3.505
  331M486   Cl1 1654   1.741   3.166   3.562
  331M486   Cl2 1655   1.515   2.985   3.608
  332M486   Cl3 1656   3.555   3.308   2.582
  332M486    C1 1657   3.516   3.416   2.444
  332M486    Cl 1658   3.604   3.360   2.299
  332M486   Cl1 1659   3.565   3.583   2.483
  332M486   Cl2 1660   3.340   3.411   2.413
  333M486   Cl3 1661   1.858   3.280   2.116
  333M486    C1 1662   1.710   3.203   2.051
  333M486    Cl 1663   1.713   3.213   1.873
  333M486   Cl1 1664   1.566   3.287   2.114
  333M486   Cl2 1665   1.704   3.031   2.101
  334M486   Cl3 1666   0.553   0.107   3.153
  334M486    C1 1667   0.561   0.162   2.983
  334M486    Cl 1668   0.442   0.292   2.959
  334M486   Cl1 1669   0.524   0.026   2.874
  334M486   Cl2 1670   0.725   0.225   2.948
  335M486   Cl3 1671   2.968   1.053   0.784
  335M486    C1 1672   2.892   1.037   0.945
  335M486    Cl 1673   2.909   1.192   1.032
  335M486   Cl1 1674   2.972   0.906   1.036
  335M486   Cl2 1675   2.719   0.998   0.924
  336M486   Cl3 1676   0.569   4.409   1.524
  336M486    C1 1677   0.459   4.550   1.510
  336M486    Cl 1678   0.527   4.688   1.602
  336M486   Cl1 1679   0.298   4.507   1.575
  336M486   Cl2 1680   0.444   4.595   1.338
  337M486   Cl3 1681   1.002   2.234   0.975
  337M486    C1 1682   1.085   2.191   1.128
  337M486    Cl 1683   1.056   2.319   1.250
  337M486   Cl1 1684   1.261   2.178   1.098
  337M486   Cl2 1685   1.023   2.035   1.188
  338M486   Cl3 1686   0.962   0.324   0.372
  338M486    C1 1687   0.940   0.164   0.297
  338M486    Cl 1688   0.864   0.184   0.136
  338M486   Cl1 1689   0.835   0.062   0.401
  338M486   Cl2 1690   1.099   0.084   0.279
  339M486   Cl3 1691   0.916   3.214   2.037
  339M486    C1 1692   0.774   3.323   2.035
  339M486    Cl 1693   0.755   3.398   2.196
  339M486   Cl1 1694   0.627   3.228   1.995
  339M486   Cl2 1695   0.799   3.450   1.911
  340M486   Cl3 1696   4.997   0.607   0.932
  340M486    C1 1697   4.957   0.655   1.100
  340M486    Cl 1698   0.038   0.545   1.215
  340M486   Cl1 1699   4.780   0.647   1.125
  340M486   Cl2 1700   0.013   0.822   1.129
  341M486   Cl3 1701   1.353   1.878   1.238
  341M486    C1 1702   1.307   1.895   1.409
  341M486    Cl 1703   1.164   1.792   1.443
  341M486   Cl1 1704   1.266   2.066   1.444
  341M486   Cl2 1705   1.444   1.844   1.513
  342M486   Cl3 1706   2.796   2.654   0.552
  342M486    C1 1707   2.748   2.718   0.711
  342M486    Cl 1708   2.811   2.885   0.729
  342M486   Cl1 1709   2.815   2.614   0.841
  342M486   Cl2 1710   2.569   2.721   0.723
  343M486   Cl3 1711   1.590   2.169   3.580
  343M486    C1 1712   1.686   2.319   3.568
  343M486    Cl 1713   1.721   2.354   3.395
  343M486   Cl1 1714   1.840   2.300   3.658
  343M486   Cl2 1715   1.594   2.455   3.638
  344M486   Cl3 1716   1.363   2.176   0.408
  344M486    C1 1717   1.471   2.290   0.322
  344M486    Cl 1718   1.639   2.229   0.327
  344M486   Cl1 1719   1.462   2.451   0.399
  344M486   Cl2 1720   1.418   2.304   0.151
  345M486   Cl3 1721   4.870   1.142   1.146
  345M486    C1 1722   4.932   1.137   1.314
  345M486    Cl 1723   4.884   1.286   1.400
  345M486   Cl1 1724   0.111   1.124   1.312
  345M486   Cl2 1725   4.863   0.995   1.399
  346M486   Cl3 1726   3.444   2.733   2.504
  346M486    C1 1727   3.593   2.789   2.586
  346M486    Cl 1728   3.548   2.874   2.737
  346M486   Cl1 1729   3.683   2.900   2.479
  346M486   Cl2 1730   3.696   2.648   2.626
  347M486   Cl3 1731   2.524   3.218   4.285
  347M486    C1 1732   2.464   3.263   4.122
  347M486    Cl 1733   2.288   3.295   4.129
  347M486   Cl1 1734   2.496   3.128   4.009
  347M486   Cl2 1735   2.548   3.410   4.066
  348M486   Cl3 1736   2.961   1.742   0.935
  348M486    C1 1737   2.800   1.814   0.967
  348M486    Cl 1738   2.819   1.987   1.008
  348M486   Cl1 1739   2.724   1.728   1.104
  348M486   Cl2 1740   2.698   1.799   0.822
  349M486   Cl3 1741   2.415   4.459   1.010
  349M486    C1 1742   2.548   4.578   1.029
  349M486    Cl 1743   2.693   4.496   1.094
  349M486   Cl1 1744   2.496   4.707   1.142
  349M486   Cl2 1745   2.586   4.650   0.870
  350M486   Cl3 1746   1.425   3.972   2.750
  350M486    C1 1747   1.294   4.010   2.865
  350M486    Cl 1748   1.337   3.947   3.027
  350M486   Cl1 1749   1.142   3.934   2.811
  350M486   Cl2 1750   1.273   4.187   2.876
  351M486   Cl3 1751   0.314   0.093   0.841
  351M486    C1 1752   0.433   0.093   0.973
  351M486    Cl 1753   0.561   0.213   0.940
  351M486   Cl1 1754   0.508   4.932   0.988
  351M486   Cl2 1755   0.350   0.135   1.126
  352M486   Cl3 1756   0.687   1.779   0.013
  352M486    C1 1757   0.713   1.724   4.845
  352M486    Cl 1758   0.821   1.581   4.846
  352M486   Cl1 1759   0.788   1.855   4.750
  352M486   Cl2 1760   0.556   1.679   4.772
  353M486   Cl3 1761   1.901   1.028   4.902
  353M486    C1 1762   1.999   0.979   0.044
  353M486    Cl 1763   2.143   0.890   4.987
  353M486   Cl1 1764   1.902   0.872   0.149
  353M486   Cl2 1765   2.049   1.124   0.136
  354M486   Cl3 1766   2.179   2.058   4.649
  354M486    C1 1767   2.193   2.031   4.826
  354M486    Cl 1768   2.291   1.885   4.855
  354M486   Cl1 1769   2.030   2.009   4.897
  354M486   Cl2 1770   2.271   2.173   4.902
  355M486   Cl3 1771   2.578   1.353   4.773
  355M486    C1 1772   2.755   1.354   4.798
  355M486    Cl 1773   2.790   1.374   4.972
  355M486   Cl1 1774   2.827   1.489   4.706
  355M486   Cl2 1775   2.824   1.199   4.741
  356M486   Cl3 1776   3.238   1.512   0.505
  356M486    C1 1777   3.216   1.491   0.329
  356M486    Cl 1778   3.265   1.642   0.245
  356M486   Cl1 1779   3.044   1.457   0.294
  356M486   Cl2 1780   3.316   1.355   0.271
  357M486   Cl3 1781   1.368   4.147   2.209
  357M486    C1 1782   1.513   4.050   2.249
  357M486    Cl 1783   1.547   4.064   2.425
  357M486   Cl1 1784   1.654   4.109   2.157
  357M486   Cl2 1785   1.482   3.878   2.207
  358M486   Cl3 1786   3.309   2.265   0.853
  358M486    C1 1787   3.444   2.374   0.896
  358M486    Cl 1788   3.517   2.440   0.747
  358M486   Cl1 1789   3.567   2.283   0.988
  358M486   Cl2 1790   3.382   2.509   0.996
  359M486   Cl3 1791   4.784   4.512   1.948
  359M486    C1 1792   4.806   4.354   2.028
  359M486    Cl 1793   4.909   4.249   1.926
  359M486   Cl1 1794   4.646   4.277   2.051
  359M486   Cl2 1795   4.883   4.379   2.187
  360M486   Cl3 1796   3.214   4.891   1.632
  360M486    C1 1797   3.210   4.849   1.805
  360M486    Cl 1798   3.202   4.999   1.903
  360M486   Cl1 1799   3.357   4.757   1.848
  360M486   Cl2 1800   3.066   4.749   1.839
  361M486   Cl3 1801   4.244   4.100   3.145
  361M486    C1 1802   4.335   3.950   3.182
  361M486    Cl 1803   4.292   3.824   3.062
  361M486   Cl1 1804   4.295   3.894   3.347
  361M486   Cl2 1805   4.511   3.984   3.172
  362M486   Cl3 1806   2.699   4.997   0.366
  362M486    C1 1807   2.689   0.167   0.310
  362M486    Cl 1808   2.519   0.224   0.319
  362M486   Cl1 1809   2.746   0.177   0.141
  362M486   Cl2 1810   2.791   0.269   0.415
  363M486   Cl3 1811   1.376   1.599   3.588
  363M486    C1 1812   1.533   1.517   3.572
  363M486    Cl 1813   1.628   1.595   3.443
  363M486   Cl1 1814   1.507   1.345   3.531
  363M486   Cl2 1815   1.623   1.527   3.726
  364M486   Cl3 1816   3.135   1.541   3.571
  364M486    C1 1817   3.166   1.539   3.747
  364M486    Cl 1818   3.076   1.672   3.826
  364M486   Cl1 1819   3.341   1.561   3.777
  364M486   Cl2 1820   3.113   1.383   3.815
  365M486   Cl3 1821   2.357   3.572   4.633
  365M486    C1 1822   2.518   3.521   4.576
  365M486    Cl 1823   2.526   3.543   4.399
  365M486   Cl1 1824   2.544   3.349   4.617
  365M486   Cl2 1825   2.643   3.620   4.656
  366M486   Cl3 1826   4.960   2.716   1.215
  366M486    C1 1827   0.040   2.808   1.084
  366M486    Cl 1828   0.217   2.790   1.098
  366M486   Cl1 1829   4.998   2.982   1.098
  366M486   Cl2 1830   4.985   2.747   0.925
  367M486   Cl3 1831   4.668   4.546   1.412
  367M486    C1 1832   4.725   4.385   1.465
  367M486    Cl 1833   4.814   4.401   1.620
  367M486   Cl1 1834   4.834   4.316   1.341
  367M486   Cl2 1835   4.585   4.276   1.489
  368M486   Cl3 1836   3.315   1.008   2.624
  368M486    C1 1837   3.232   0.883   2.527
  368M486    Cl 1838   3.259   0.913   2.352
  368M486   Cl1 1839   3.057   0.888   2.561
  368M486   Cl2 1840   3.296   0.721   2.569
  369M486   Cl3 1841   2.767   4.970   0.722
  369M486    C1 1842   2.592   0.005   0.730
  369M486    Cl 1843   2.537   5.000   0.900
  369M486   Cl1 1844   2.502   4.883   0.634
  369M486   Cl2 1845   2.559   0.167   0.662
  370M486   Cl3 1846   1.506   2.602   0.745
  370M486    C1 1847   1.576   2.537   0.897
  370M486    Cl 1848   1.570   2.663   1.024
  370M486   Cl1 1849   1.746   2.489   0.868
  370M486   Cl2 1850   1.481   2.395   0.949
  371M486   Cl3 1851   2.783   0.628   0.900
  371M486    C1 1852   2.839   0.469   0.963
  371M486    Cl 1853   2.776   0.445   1.129
  371M486   Cl1 1854   3.018   0.465   0.966
  371M486   Cl2 1855   2.778   0.338   0.858
  372M486   Cl3 1856   1.016   3.114   2.608
  372M486    C1 1857   0.932   3.197   2.473
  372M486    Cl 1858   0.795   3.292   2.538
  372M486   Cl1 1859   0.871   3.076   2.356
  372M486   Cl2 1860   1.047   3.307   2.391
  373M486   Cl3 1861   0.799   0.670   3.820
  373M486    C1 1862   0.795   0.567   3.675
  373M486    Cl 1863   0.808   0.395   3.723
  373M486   Cl1 1864   0.931   0.609   3.567
  373M486   Cl2 1865   0.640   0.592   3.589
  374M486   Cl3 1866   1.617   3.516   3.995
  374M486    C1 1867   1.775   3.457   4.057
  374M486    Cl 1868   1.862   3.369   3.927
  374M486   Cl1 1869   1.745   3.348   4.195
  374M486   Cl2 1870   1.873   3.597   4.109
  375M486   Cl3 1871   2.076   2.879   2.472
  375M486    C1 1872   1.941   2.918   2.361
  375M486    Cl 1873   1.804   2.808   2.393
  375M486   Cl1 1874   1.998   2.898   2.193
  375M486   Cl2 1875   1.888   3.086   2.388
  376M486   Cl3 1876   1.111   1.076   3.176
  376M486    C1 1877   1.103   1.159   3.334
  376M486    Cl 1878   1.135   1.042   3.465
  376M486   Cl1 1879   0.941   1.231   3.356
  376M486   Cl2 1880   1.226   1.289   3.340
  377M486   Cl3 1881   3.623   4.646   2.124
  377M486    C1 1882   3.480   4.539   2.139
  377M486    Cl 1883   3.333   4.639   2.161
  377M486   Cl1 1884   3.499   4.430   2.279
  377M486   Cl2 1885   3.464   4.441   1.990
  378M486   Cl3 1886   2.340   2.940   2.183
  378M486    C1 1887   2.351   3.112   2.134
  378M486    Cl 1888   2.485   3.192   2.222
  378M486   Cl1 1889   2.198   3.196   2.172
  378M486   Cl2 1890   2.383   3.121   1.958
  379M486   Cl3 1891   4.645   3.129   3.945
  379M486    C1 1892   4.782   3.032   3.884
  379M486    Cl 1893   4.933   3.086   3.964
  379M486   Cl1 1894   4.796   3.054   3.707
  379M486   Cl2 1895   4.752   2.860   3.920
  380M486   Cl3 1896   1.164   2.916   3.581
  380M486    C1 1897   1.234   2.774   3.498
  380M486    Cl 1898   1.346   2.690   3.610
  380M486   Cl1 1899   1.323   2.829   3.353
  380M486   Cl2 1900   1.104   2.661   3.450
  381M486   Cl3 1901   1.385   3.258   4.090
  381M486    C1 1902   1.389   3.240   3.912
  381M486    Cl 1903   1.557   3.209   3.860
  381M486   Cl1 1904   1.329   3.390   3.835
  381M486   Cl2 1905   1.285   3.103   3.864
  382M486   Cl3 1906   2.480   1.342   1.805
  382M486    C1 1907   2.625   1.393   1.714
  382M486    Cl 1908   2.741   1.472   1.825
  382M486   Cl1 1909   2.576   1.508   1.586
  382M486   Cl2 1910   2.701   1.249   1.639
  383M486   Cl3 1911   0.576   1.922   4.388
  383M486    C1 1912   0.551   1.982   4.221
  383M486    Cl 1913   0.455   2.133   4.226
  383M486   Cl1 1914   0.463   1.859   4.125
  383M486   Cl2 1915   0.709   2.014   4.145
  384M486   Cl3 1916   0.242   1.668   1.164
  384M486    C1 1917   0.109   1.594   1.071
  384M486    Cl 1918   0.063   1.438   1.146
  384M486   Cl1 1919   0.163   1.565   0.903
  384M486   Cl2 1920   4.967   1.704   1.071
  385M486   Cl3 1921   3.014   4.796   2.188
  385M486    C1 1922   2.878   4.910   2.163
  385M486    Cl 1923   2.800   4.878   2.005
  385M486   Cl1 1924   2.939   0.078   2.166
  385M486   Cl2 1925   2.757   4.888   2.294
  386M486   Cl3 1926   0.632   0.916   0.586
  386M486    C1 1927   0.654   0.931   0.763
  386M486    Cl 1928   0.587   1.087   0.818
  386M486   Cl1 1929   0.829   0.923   0.802
  386M486   Cl2 1930   0.569   0.797   0.845
  387M486   Cl3 1931   4.873   2.668   4.189
  387M486    C1 1932   0.012   2.630   4.084
  387M486    Cl 1933   4.959   2.522   3.951
  387M486   Cl1 1934   0.139   2.548   4.181
  387M486   Cl2 1935   0.079   2.781   4.015
  388M486   Cl3 1936   4.216   4.085   0.237
  388M486    C1 1937   4.207   3.919   0.171
  388M486    Cl 1938   4.263   3.802   0.294
  388M486   Cl1 1939   4.312   3.906   0.026
  388M486   Cl2 1940   4.038   3.881   0.126
  389M486   Cl3 1941   1.636   2.402   2.066
  389M486    C1 1942   1.617   2.579   2.086
  389M486    Cl 1943   1.778   2.655   2.094
  389M486   Cl1 1944   1.527   2.613   2.238
  389M486   Cl2 1945   1.526   2.646   1.947
  390M486   Cl3 1946   0.357   0.710   3.757
  390M486    C1 1947   0.403   0.652   3.920
  390M486    Cl 1948   0.498   0.501   3.904
  390M486   Cl1 1949   0.256   0.622   4.016
  390M486   Cl2 1950   0.503   0.777   4.002
  391M486   Cl3 1951   4.463   2.482   0.501
  391M486    C1 1952   4.539   2.445   0.658
  391M486    Cl 1953   4.542   2.267   0.682
  391M486   Cl1 1954   4.445   2.521   0.790
  391M486   Cl2 1955   4.707   2.508   0.660
  392M486   Cl3 1956   0.563   2.509   2.968
  392M486    C1 1957   0.484   2.665   2.931
  392M486    Cl 1958   0.461   2.681   2.754
  392M486   Cl1 1959   0.585   2.800   2.990
  392M486   Cl2 1960   0.324   2.671   3.010
  393M486   Cl3 1961   1.000   4.379   0.100
  393M486    C1 1962   0.976   4.224   0.186
  393M486    Cl 1963   0.827   4.234   0.285
  393M486   Cl1 1964   1.117   4.193   0.292
  393M486   Cl2 1965   0.960   4.091   0.068
  394M486   Cl3 1966   2.675   4.183   1.621
  394M486    C1 1967   2.839   4.247   1.586
  394M486    Cl 1968   2.894   4.347   1.724
  394M486   Cl1 1969   2.834   4.348   1.438
  394M486   Cl2 1970   2.952   4.111   1.562
  395M486   Cl3 1971   3.726   1.481   4.875
  395M486    C1 1972   3.835   1.518   4.738
  395M486    Cl 1973   3.995   1.442   4.766
  395M486   Cl1 1974   3.854   1.695   4.723
  395M486   Cl2 1975   3.765   1.454   4.586
  396M486   Cl3 1976   4.602   3.668   4.892
  396M486    C1 1977   4.617   3.639   0.067
  396M486    Cl 1978   4.473   3.551   0.127
  396M486   Cl1 1979   4.631   3.796   0.152
  396M486   Cl2 1980   4.764   3.541   0.098
  397M486   Cl3 1981   1.342   4.335   4.032
  397M486    C1 1982   1.242   4.363   3.886
  397M486    Cl 1983   1.349   4.387   3.744
  397M486   Cl1 1984   1.142   4.510   3.909
  397M486   Cl2 1985   1.136   4.222   3.858
  398M486   Cl3 1986   2.702   4.847   0.021
  398M486    C1 1987   2.538   4.902   4.976
  398M486    Cl 1988   2.444   4.934   0.125
  398M486   Cl1 1989   2.456   4.774   4.881
  398M486   Cl2 1990   2.549   0.051   4.879
  399M486   Cl3 1991   4.894   0.158   2.508
  399M486    C1 1992   4.952   0.203   2.671
  399M486    Cl 1993   4.920   0.377   2.699
  399M486   Cl1 1994   0.127   0.171   2.683
  399M486   Cl2 1995   4.865   0.106   2.794
  400M486   Cl3 1996   4.536   0.079   4.503
  400M486    C1 1997   4.712   0.088   4.530
  400M486    Cl 1998   4.798   0.005   4.397
  400M486   Cl1 1999   4.752   0.010   4.686
  400M486   Cl2 2000   4.763   0.260   4.536
  401M486   Cl3 2001   1.791   0.442   3.252
  401M486    C1 2002   1.831   0.479   3.422
  401M486    Cl 2003   1.935   0.625   3.429
  401M486   Cl1 2004   1.917   0.340   3.495
  401M486   Cl2 2005   1.680   0.511   3.513
  402M486   Cl3 2006   2.126   2.170   2.919
  402M486    C1 2007   2.004   2.296   2.956
  402M486    Cl 2008   1.864   2.277   2.847
  402M486   Cl1 2009   2.076   2.459   2.931
  402M486   Cl2 2010   1.951   2.280   3.126
  403M486   Cl3 2011   2.811   1.503   2.250
  403M486    C1 2012   2.655   1.590   2.247
  403M486    Cl 2013   2.547   1.514   2.126
  403M486   Cl1 2014   2.683   1.761   2.203
  403M486   Cl2 2015   2.578   1.581   2.408
  404M486   Cl3 2016   0.592   1.782   3.338
  404M486    C1 2017   0.449   1.878   3.288
  404M486    Cl 2018   0.502   2.042   3.241
  404M486   Cl1 2019   0.334   1.888   3.424
  404M486   Cl2 2020   0.369   1.799   3.148
  405M486   Cl3 2021   2.091   4.132   3.889
  405M486    C1 2022   2.144   4.007   4.005
  405M486    Cl 2023   2.075   4.042   4.167
  405M486   Cl1 2024   2.322   4.007   4.014
  405M486   Cl2 2025   2.087   3.846   3.953
  406M486   Cl3 2026   0.149   2.010   2.923
  406M486    C1 2027   0.031   2.052   3.051
  406M486    Cl 2028   4.973   2.219   3.024
  406M486   Cl1 2029   0.110   2.041   3.211
  406M486   Cl2 2030   4.893   1.939   3.046
  407M486   Cl3 2031   0.484   0.323   1.615
  407M486    C1 2032   0.365   0.189   1.622
  407M486    Cl 2033   0.284   0.173   1.464
  407M486   Cl1 2034   0.243   0.225   1.748
  407M486   Cl2 2035   0.449   0.037   1.663
  408M486   Cl3 2036   1.526   0.657   4.408
  408M486    C1 2037   1.451   0.683   4.247
  408M486    Cl 2038   1.467   0.854   4.200
  408M486   Cl1 2039   1.278   0.640   4.255
  408M486   Cl2 2040   1.533   0.580   4.125
  409M486   Cl3 2041   2.056   4.578   1.730
  409M486    C1 2042   2.081   4.493   1.886
  409M486    Cl 2043   2.127   4.612   2.011
  409M486   Cl1 2044   2.212   4.373   1.867
  409M486   Cl2 2045   1.931   4.410   1.934
  410M486   Cl3 2046   2.997   0.159   1.598
  410M486    C1 2047   2.895   0.268   1.499
  410M486    Cl 2048   2.779   0.170   1.404
  410M486   Cl1 2049   2.999   0.362   1.388
  410M486   Cl2 2050   2.805   0.379   1.606
  411M486   Cl3 2051   3.296   1.291   3.191
  411M486    C1 2052   3.188   1.186   3.096
  411M486    Cl 2053   3.143   1.044   3.194
  411M486   Cl1 2054   3.272   1.132   2.948
  411M486   Cl2 2055   3.041   1.277   3.050
  412M486   Cl3 2056   4.635   4.683   4.035
  412M486    C1 2057   4.614   4.736   3.865
  412M486    Cl 2058   4.559   4.906   3.861
  412M486   Cl1 2059   4.491   4.632   3.785
  412M486   Cl2 2060   4.769   4.722   3.778
  413M486   Cl3 2061   2.533   3.873   3.247
  413M486    C1 2062   2.507   3.794   3.089
  413M486    Cl 2063   2.644   3.686   3.053
  413M486   Cl1 2064   2.496   3.919   2.961
  413M486   Cl2 2065   2.356   3.699   3.093
  414M486   Cl3 2066   2.974   2.242   1.927
  414M486    C1 2067   3.011   2.202   2.098
  414M486    Cl 2068   3.064   2.032   2.110
  414M486   Cl1 2069   2.864   2.225   2.197
  414M486   Cl2 2070   3.140   2.310   2.157
  415M486   Cl3 2071   2.026   4.084   2.014
  415M486    C1 2072   2.162   4.090   2.130
  415M486    Cl 2073   2.151   4.240   2.227
  415M486   Cl1 2074   2.317   4.087   2.041
  415M486   Cl2 2075   2.153   3.947   2.239
  416M486   Cl3 2076   1.575   0.587   2.997
  416M486    C1 2077   1.656   0.550   2.842
  416M486    Cl 2078   1.680   0.702   2.751
  416M486   Cl1 2079   1.553   0.439   2.748
  416M486   Cl2 2080   1.814   0.474   2.875
  417M486   Cl3 2081   4.596   3.064   4.801
  417M486    C1 2082   4.697   3.104   4.943
  417M486    Cl 2083   4.848   3.183   4.888
  417M486   Cl1 2084   4.737   2.954   0.032
  417M486   Cl2 2085   4.607   3.216   0.050
  418M486   Cl3 2086   2.027   2.745   1.866
  418M486    C1 2087   1.886   2.743   1.756
  418M486    Cl 2088   1.764   2.862   1.811
  418M486   Cl1 2089   1.814   2.579   1.753
  418M486   Cl2 2090   1.939   2.786   1.591
  419M486   Cl3 2091   2.502   4.212   0.155
  419M486    C1 2092   2.380   4.323   0.087
  419M486    Cl 2093   2.361   4.290   4.912
  419M486   Cl1 2094   2.433   4.493   0.110
  419M486   Cl2 2095   2.223   4.298   0.169
  420M486   Cl3 2096   2.708   2.450   1.728
  420M486    C1 2097   2.613   2.599   1.702
  420M486    Cl 2098   2.699   2.737   1.777
  420M486   Cl1 2099   2.452   2.581   1.777
  420M486   Cl2 2100   2.594   2.629   1.527
  421M486   Cl3 2101   3.654   2.654   0.470
  421M486    C1 2102   3.497   2.689   0.393
  421M486    Cl 2103   3.509   2.664   0.216
  421M486   Cl1 2104   3.451   2.859   0.426
  421M486   Cl2 2105   3.372   2.579   0.458
  422M486   Cl3 2106   1.761   1.312   0.051
  422M486    C1 2107   1.682   1.329   0.211
  422M486    Cl 2108   1.735   1.481   0.287
  422M486   Cl1 2109   1.729   1.191   0.315
  422M486   Cl2 2110   1.504   1.331   0.188
  423M486   Cl3 2111   2.316   2.380   2.691
  423M486    C1 2112   2.389   2.505   2.587
  423M486    Cl 2113   2.380   2.454   2.416
  423M486   Cl1 2114   2.560   2.529   2.635
  423M486   Cl2 2115   2.301   2.659   2.606
  424M486   Cl3 2116   4.022   3.092   3.602
  424M486    C1 2117   4.050   3.138   3.431
  424M486    Cl 2118   3.976   3.299   3.400
  424M486   Cl1 2119   3.975   3.017   3.323
  424M486   Cl2 2120   4.225   3.146   3.399
  425M486   Cl3 2121   4.614   3.127   2.649
  425M486    C1 2122   4.711   3.127   2.799
  425M486    Cl 2123   4.643   3.007   2.913
  425M486   Cl1 2124   4.707   3.290   2.873
  425M486   Cl2 2125   4.880   3.082   2.760
  426M486   Cl3 2126   3.100   4.527   4.195
  426M486    C1 2127   3.235   4.469   4.093
  426M486    Cl 2128   3.236   4.559   3.939
  426M486   Cl1 2129   3.215   4.294   4.060
  426M486   Cl2 2130   3.390   4.496   4.179
  427M486   Cl3 2131   0.443   0.838   3.452
  427M486    C1 2132   0.285   0.894   3.389
  427M486    Cl 2133   0.211   0.764   3.292
  427M486   Cl1 2134   0.311   1.038   3.286
  427M486   Cl2 2135   0.177   0.936   3.526
  428M486   Cl3 2136   2.316   0.662   2.481
  428M486    C1 2137   2.427   0.729   2.604
  428M486    Cl 2138   2.572   0.796   2.522
  428M486   Cl1 2139   2.476   0.600   2.717
  428M486   Cl2 2140   2.344   0.859   2.695
  429M486   Cl3 2141   3.033   2.582   2.357
  429M486    C1 2142   3.028   2.670   2.512
  429M486    Cl 2143   3.097   2.568   2.642
  429M486   Cl1 2144   2.858   2.710   2.554
  429M486   Cl2 2145   3.122   2.821   2.498
  430M486   Cl3 2146   3.759   0.577   1.025
  430M486    C1 2147   3.714   0.427   1.111
  430M486    Cl 2148   3.562   0.360   1.043
  430M486   Cl1 2149   3.690   0.463   1.285
  430M486   Cl2 2150   3.846   0.307   1.093
  431M486   Cl3 2151   1.177   0.277   4.992
  431M486    C1 2152   1.298   0.371   0.084
  431M486    Cl 2153   1.396   0.470   4.971
  431M486   Cl1 2154   1.404   0.259   0.174
  431M486   Cl2 2155   1.213   0.479   0.199
  432M486   Cl3 2156   2.042   0.794   4.656
  432M486    C1 2157   1.871   0.742   4.665
  432M486    Cl 2158   1.831   0.699   4.834
  432M486   Cl1 2159   1.847   0.600   4.560
  432M486   Cl2 2160   1.766   0.875   4.610
  433M486   Cl3 2161   2.739   0.126   4.279
  433M486    C1 2162   2.787   0.254   4.163
  433M486    Cl 2163   2.831   0.402   4.253
  433M486   Cl1 2164   2.650   0.290   4.054
  433M486   Cl2 2165   2.927   0.198   4.067
  434M486   Cl3 2166   4.880   3.729   0.379
  434M486    C1 2167   4.962   3.601   0.474
  434M486    Cl 2168   5.000   3.462   0.368
  434M486   Cl1 2169   4.854   3.547   0.606
  434M486   Cl2 2170   0.113   3.666   0.543
  435M486   Cl3 2171   2.478   3.875   1.568
  435M486    C1 2172   2.581   3.822   1.704
  435M486    Cl 2173   2.753   3.827   1.653
  435M486   Cl1 2174   2.538   3.655   1.750
  435M486   Cl2 2175   2.558   3.931   1.844
  436M486   Cl3 2176   2.889   0.539   3.944
  436M486    C1 2177   2.929   0.489   3.777
  436M486    Cl 2178   2.862   0.325   3.747
  436M486   Cl1 2179   3.106   0.486   3.756
  436M486   Cl2 2180   2.856   0.605   3.662
  437M486   Cl3 2181   2.133   2.784   1.298
  437M486    C1 2182   2.257   2.882   1.382
  437M486    Cl 2183   2.213   3.055   1.372
  437M486   Cl1 2184   2.417   2.857   1.304
  437M486   Cl2 2185   2.267   2.832   1.554
  438M486   Cl3 2186   3.528   0.814   3.730
  438M486    C1 2187   3.465   0.752   3.886
  438M486    Cl 2188   3.588   0.777   4.014
  438M486   Cl1 2189   3.429   0.578   3.871
  438M486   Cl2 2190   3.315   0.840   3.929
  439M486   Cl3 2191   1.799   0.794   4.239
  439M486    C1 2192   1.972   0.839   4.245
  439M486    Cl 2193   2.066   0.700   4.306
  439M486   Cl1 2194   1.993   0.979   4.354
  439M486   Cl2 2195   2.028   0.881   4.080
  440M486   Cl3 2196   2.115   3.230   2.931
  440M486    C1 2197   2.156   3.318   3.081
  440M486    Cl 2198   2.105   3.221   3.222
  440M486   Cl1 2199   2.072   3.476   3.082
  440M486   Cl2 2200   2.333   3.345   3.087
  441M486   Cl3 2201   3.245   0.411   0.694
  441M486    C1 2202   3.212   0.236   0.710
  441M486    Cl 2203   3.040   0.203   0.673
  441M486   Cl1 2204   3.247   0.185   0.878
  441M486   Cl2 2205   3.316   0.145   0.596
  442M486   Cl3 2206   2.225   3.338   4.830
  442M486    C1 2207   2.179   3.177   4.892
  442M486    Cl 2208   2.142   3.070   4.754
  442M486   Cl1 2209   2.036   3.192   4.998
  442M486   Cl2 2210   2.315   3.106   4.985
  443M486   Cl3 2211   2.627   1.222   2.322
  443M486    C1 2212   2.609   1.137   2.166
  443M486    Cl 2213   2.730   1.200   2.050
  443M486   Cl1 2214   2.445   1.164   2.103
  443M486   Cl2 2215   2.636   0.962   2.192
  444M486   Cl3 2216   4.129   1.804   1.463
  444M486    C1 2217   4.299   1.838   1.508
  444M486    Cl 2218   4.343   2.003   1.454
  444M486   Cl1 2219   4.407   1.719   1.428
  444M486   Cl2 2220   4.318   1.826   1.685
  445M486   Cl3 2221   1.738   2.621   2.872
  445M486    C1 2222   1.692   2.596   3.043
  445M486    Cl 2223   1.837   2.614   3.146
  445M486   Cl1 2224   1.624   2.431   3.063
  445M486   Cl2 2225   1.569   2.718   3.090
  446M486   Cl3 2226   4.650   3.795   1.035
  446M486    C1 2227   4.487   3.833   1.100
  446M486    Cl 2228   4.503   3.924   1.254
  446M486   Cl1 2229   4.397   3.681   1.129
  446M486   Cl2 2230   4.398   3.933   0.981
  447M486   Cl3 2231   2.071   2.670   0.234
  447M486    C1 2232   2.152   2.805   0.150
  447M486    Cl 2233   2.060   2.847   0.003
  447M486   Cl1 2234   2.318   2.757   0.104
  447M486   Cl2 2235   2.159   2.948   0.259
  448M486   Cl3 2236   2.056   2.560   2.335
  448M486    C1 2237   1.964   2.473   2.461
  448M486    Cl 2238   1.796   2.449   2.405
  448M486   Cl1 2239   1.964   2.569   2.612
  448M486   Cl2 2240   2.040   2.314   2.492
  449M486   Cl3 2241   0.205   0.382   3.773
  449M486    C1 2242   0.235   0.353   3.599
  449M486    Cl 2243   0.121   0.228   3.543
  449M486   Cl1 2244   0.403   0.299   3.575
  449M486   Cl2 2245   0.208   0.506   3.509
  450M486   Cl3 2246   0.515   1.127   2.029
  450M486    C1 2247   0.554   0.983   2.127
  450M486    Cl 2248   0.589   0.845   2.018
  450M486   Cl1 2249   0.416   0.942   2.233
  450M486   Cl2 2250   0.699   1.017   2.227
  451M486   Cl3 2251   3.177   3.901   2.024
  451M486    C1 2252   3.105   3.959   1.871
  451M486    Cl 2253   3.213   4.079   1.795
  451M486   Cl1 2254   2.946   4.035   1.906
  451M486   Cl2 2255   3.081   3.821   1.761
  452M486   Cl3 2256   0.654   0.687   2.320
  452M486    C1 2257   0.785   0.597   2.239
  452M486    Cl 2258   0.908   0.712   2.180
  452M486   Cl1 2259   0.717   0.506   2.101
  452M486   Cl2 2260   0.859   0.483   2.355
  453M486   Cl3 2261   0.046   2.435   0.728
  453M486    C1 2262   0.182   2.430   0.844
  453M486    Cl 2263   0.275   2.582   0.833
  453M486   Cl1 2264   0.289   2.292   0.805
  453M486   Cl2 2265   0.118   2.413   1.011
  454M486   Cl3 2266   4.971   3.981   2.742
  454M486    C1 2267   0.126   3.976   2.830
  454M486    Cl 2268   0.253   3.910   2.722
  454M486   Cl1 2269   0.110   3.871   2.973
  454M486   Cl2 2270   0.172   4.141   2.881
  455M486   Cl3 2271   0.788   0.004   1.207
  455M486    C1 2272   0.676   0.051   1.338
  455M486    Cl 2273   0.535   4.940   1.339
  455M486   Cl1 2274   0.621   0.219   1.310
  455M486   Cl2 2275   0.761   0.043   1.495
  456M486   Cl3 2276   0.325   2.518   4.705
  456M486    C1 2277   0.312   2.564   4.877
  456M486    Cl 2278   0.473   2.608   4.941
  456M486   Cl1 2279   0.246   2.426   4.970
  456M486   Cl2 2280   0.201   2.703   4.893
  457M486   Cl3 2281   0.546   2.257   0.551
  457M486    C1 2282   0.636   2.145   0.658
  457M486    Cl 2283   0.790   2.098   0.580
  457M486   Cl1 2284   0.537   1.999   0.689
  457M486   Cl2 2285   0.672   2.226   0.814
  458M486   Cl3 2286   2.108   4.826   3.729
  458M486    C1 2287   2.003   4.947   3.650
  458M486    Cl 2288   2.066   4.983   3.486
  458M486   Cl1 2289   2.003   0.098   3.747
  458M486   Cl2 2290   1.836   4.884   3.638
  459M486   Cl3 2291   2.727   4.583   3.115
  459M486    C1 2292   2.618   4.539   3.250
  459M486    Cl 2293   2.643   4.367   3.293
  459M486   Cl1 2294   2.448   4.564   3.200
  459M486   Cl2 2295   2.654   4.642   3.392
  460M486   Cl3 2296   2.441   2.042   2.801
  460M486    C1 2297   2.393   1.871   2.826
  460M486    Cl 2298   2.534   1.765   2.799
  460M486   Cl1 2299   2.263   1.828   2.711
  460M486   Cl2 2300   2.334   1.850   2.993
  461M486   Cl3 2301   4.747   4.027   2.462
  461M486    C1 2302   4.737   3.934   2.309
  461M486    Cl 2303   4.799   3.769   2.336
  461M486   Cl1 2304   4.836   4.015   2.184
  461M486   Cl2 2305   4.566   3.927   2.255
  462M486   Cl3 2306   0.144   0.433   2.033
  462M486    C1 2307   0.316   0.479   2.011
  462M486    Cl 2308   0.419   0.334   2.029
  462M486   Cl1 2309   0.360   0.600   2.135
  462M486   Cl2 2310   0.338   0.550   1.849
  463M486   Cl3 2311   0.958   1.550   0.173
  463M486    C1 2312   0.868   1.531   0.327
  463M486    Cl 2313   0.953   1.622   0.456
  463M486   Cl1 2314   0.860   1.358   0.371
  463M486   Cl2 2315   0.703   1.596   0.308
  464M486   Cl3 2316   0.525   0.795   3.126
  464M486    C1 2317   0.599   0.639   3.170
  464M486    Cl 2318   0.483   0.541   3.264
  464M486   Cl1 2319   0.745   0.669   3.269
  464M486   Cl2 2320   0.645   0.551   3.022
  465M486   Cl3 2321   4.223   0.334   1.127
  465M486    C1 2322   4.395   0.342   1.079
  465M486    Cl 2323   4.447   0.183   1.015
  465M486   Cl1 2324   4.495   0.385   1.221
  465M486   Cl2 2325   4.415   0.467   0.953
  466M486   Cl3 2326   0.676   4.655   1.091
  466M486    C1 2327   0.696   4.478   1.076
  466M486    Cl 2328   0.811   4.441   0.945
  466M486   Cl1 2329   0.537   4.403   1.039
  466M486   Cl2 2330   0.758   4.412   1.230
  467M486   Cl3 2331   2.661   0.872   2.841
  467M486    C1 2332   2.626   0.813   3.006
  467M486    Cl 2333   2.449   0.811   3.031
  467M486   Cl1 2334   2.703   0.921   3.126
  467M486   Cl2 2335   2.690   0.647   3.024
  468M486   Cl3 2336   3.553   2.005   1.216
  468M486    C1 2337   3.552   2.076   1.380
  468M486    Cl 2338   3.680   2.000   1.479
  468M486   Cl1 2339   3.393   2.046   1.456
  468M486   Cl2 2340   3.581   2.252   1.369
  469M486   Cl3 2341   4.862   0.973   2.937
  469M486    C1 2342   4.922   1.093   3.056
  469M486    Cl 2343   4.791   1.210   3.094
  469M486   Cl1 2344   0.062   1.181   2.988
  469M486   Cl2 2345   4.972   1.009   3.206
  470M486   Cl3 2346   2.339   3.410   0.136
  470M486    C1 2347   2.489   3.477   0.065
  470M486    Cl 2348   2.449   3.618   4.963
  470M486   Cl1 2349   2.569   3.351   4.965
  470M486   Cl2 2350   2.599   3.526   0.198
  471M486   Cl3 2351   3.060   2.259   2.495
  471M486    C1 2352   3.236   2.231   2.514
  471M486    Cl 2353   3.285   2.093   2.411
  471M486   Cl1 2354   3.272   2.195   2.686
  471M486   Cl2 2355   3.326   2.377   2.465
  472M486   Cl3 2356   3.140   0.363   0.363
  472M486    C1 2357   3.145   0.231   0.243
  472M486    Cl 2358   3.059   0.088   0.308
  472M486   Cl1 2359   3.316   0.187   0.209
  472M486   Cl2 2360   3.067   0.285   0.091
  473M486   Cl3 2361   4.155   3.175   1.777
  473M486    C1 2362   4.166   3.274   1.628
  473M486    Cl 2363   4.295   3.396   1.648
  473M486   Cl1 2364   4.010   3.356   1.600
  473M486   Cl2 2365   4.204   3.169   1.489
  474M486   Cl3 2366   1.441   1.774   3.887
  474M486    C1 2367   1.409   1.809   4.060
  474M486    Cl 2368   1.551   1.760   4.158
  474M486   Cl1 2369   1.264   1.720   4.113
  474M486   Cl2 2370   1.382   1.985   4.081
  475M486   Cl3 2371   2.518   0.500   3.797
  475M486    C1 2372   2.467   0.628   3.911
  475M486    Cl 2373   2.585   0.638   4.045
  475M486   Cl1 2374   2.305   0.590   3.977
  475M486   Cl2 2375   2.461   0.785   3.826
  476M486   Cl3 2376   2.226   4.675   3.437
  476M486    C1 2377   2.086   4.592   3.365
  476M486    Cl 2378   1.951   4.592   3.482
  476M486   Cl1 2379   2.130   4.423   3.325
  476M486   Cl2 2380   2.035   4.677   3.216
  477M486   Cl3 2381   4.966   2.662   0.140
  477M486    C1 2382   4.925   2.548   0.271
  477M486    Cl 2383   4.752   2.564   0.311
  477M486   Cl1 2384   0.023   2.586   0.416
  477M486   Cl2 2385   4.961   2.382   0.217
  478M486   Cl3 2386   4.280   1.064   2.613
  478M486    C1 2387   4.300   0.898   2.676
  478M486    Cl 2388   4.277   0.781   2.543
  478M486   Cl1 2389   4.179   0.867   2.804
  478M486   Cl2 2390   4.465   0.880   2.744
  479M486   Cl3 2391   4.604   4.314   3.943
  479M486    C1 2392   4.529   4.177   4.031
  479M486    Cl 2393   4.622   4.027   4.000
  479M486   Cl1 2394   4.361   4.155   3.976
  479M486   Cl2 2395   4.531   4.212   4.207
  480M486   Cl3 2396   0.996   4.151   1.664
  480M486    C1 2397   0.980   4.123   1.488
  480M486    Cl 2398   0.810   4.148   1.439
  480M486   Cl1 2399   1.029   3.956   1.449
  480M486   Cl2 2400   1.086   4.238   1.401
  481M486   Cl3 2401   3.238   3.148   0.520
  481M486    C1 2402   3.237   3.185   0.345
  481M486    Cl 2403   3.392   3.262   0.299
  481M486   Cl1 2404   3.103   3.296   0.308
  481M486   Cl2 2405   3.216   3.033   0.252
  482M486   Cl3 2406   3.843   3.017   1.665
  482M486    C1 2407   3.902   2.852   1.630
  482M486    Cl 2408   4.078   2.859   1.596
  482M486   Cl1 2409   3.816   2.785   1.488
  482M486   Cl2 2410   3.874   2.746   1.771
  483M486   Cl3 2411   1.148   1.585   4.725
  483M486    C1 2412   1.215   1.468   4.843
  483M486    Cl 2413   1.089   1.348   4.886
  483M486   Cl1 2414   1.267   1.555   4.990
  483M486   Cl2 2415   1.355   1.384   4.771
  484M486   Cl3 2416   4.452   4.536   4.685
  484M486    C1 2417   4.546   4.688   4.690
  484M486    Cl 2418   4.594   4.734   4.524
  484M486   Cl1 2419   4.692   4.664   4.791
  484M486   Cl2 2420   4.446   4.818   4.762
  485M486   Cl3 2421   4.052   0.591   4.883
  485M486    C1 2422   4.170   0.706   4.954
  485M486    Cl 2423   4.259   0.789   4.824
  485M486   Cl1 2424   4.286   0.617   0.057
  485M486   Cl2 2425   4.082   0.826   0.053
  486M486   Cl3 2426   1.472   1.708   4.721
  486M486    C1 2427   1.506   1.693   4.547
  486M486    Cl 2428   1.644   1.799   4.503
  486M486   Cl1 2429   1.361   1.740   4.453
  486M486   Cl2 2430   1.549   1.523   4.509
  487M486   Cl3 2431   2.146   1.128   4.671
  487M486    C1 2432   2.101   1.300   4.686
  487M486    Cl 2433   1.976   1.340   4.565
  487M486   Cl1 2434   2.246   1.402   4.660
  487M486   Cl2 2435   2.038   1.331   4.851
  488M486   Cl3 2436   3.215   3.139   2.659
  488M486    C1 2437   3.044   3.165   2.613
  488M486    Cl 2438   2.993   3.328   2.664
  488M486   Cl1 2439   2.941   3.043   2.695
  488M486   Cl2 2440   3.028   3.150   2.436
  489M486   Cl3 2441   3.825   1.262   0.239
  489M486    C1 2442   3.992   1.321   0.212
  489M486    Cl 2443   3.988   1.466   0.108
  489M486   Cl1 2444   4.089   1.193   0.132
  489M486   Cl2 2445   4.067   1.363   0.369
  490M486   Cl3 2446   2.059   0.652   1.179
  490M486    C1 2447   2.205   0.664   1.282
  490M486    Cl 2448   2.212   0.826   1.357
  490M486   Cl1 2449   2.351   0.638   1.181
  490M486   Cl2 2450   2.197   0.538   1.409
  491M486   Cl3 2451   2.046   1.608   0.361
  491M486    C1 2452   2.187   1.607   0.252
  491M486    Cl 2453   2.338   1.603   0.349
  491M486   Cl1 2454   2.185   1.755   0.152
  491M486   Cl2 2455   2.181   1.463   0.147
  492M486   Cl3 2456   2.511   1.288   0.191
  492M486    C1 2457   2.462   1.148   0.091
  492M486    Cl 2458   2.390   1.022   0.195
  492M486   Cl1 2459   2.605   1.081   0.008
  492M486   Cl2 2460   2.342   1.201   4.969
  493M486   Cl3 2461   1.112   4.607   0.984
  493M486    C1 2462   1.248   4.688   0.901
  493M486    Cl 2463   1.402   4.616   0.954
  493M486   Cl1 2464   1.245   4.863   0.940
  493M486   Cl2 2465   1.230   4.667   0.725
  494M486   Cl3 2466   3.804   2.883   3.797
  494M486    C1 2467   3.916   2.835   3.928
  494M486    Cl 2468   3.880   2.932   4.075
  494M486   Cl1 2469   4.085   2.865   3.877
  494M486   Cl2 2470   3.893   2.662   3.965
  495M486   Cl3 2471   1.765   1.866   0.213
  495M486    C1 2472   1.592   1.822   0.204
  495M486    Cl 2473   1.496   1.967   0.162
  495M486   Cl1 2474   1.537   1.759   0.362
  495M486   Cl2 2475   1.567   1.697   0.078
  496M486   Cl3 2476   0.433   4.654   0.240
  496M486    C1 2477   0.576   4.564   0.301
  496M486    Cl 2478   0.523   4.411   0.377
  496M486   Cl1 2479   0.662   4.666   0.421
  496M486   Cl2 2480   0.686   4.527   0.165
  497M486   Cl3 2481   1.567   2.157   1.313
  497M486    C1 2482   1.602   2.333   1.324
  497M486    Cl 2483   1.663   2.371   1.488
  497M486   Cl1 2484   1.451   2.425   1.294
  497M486   Cl2 2485   1.725   2.376   1.202
  498M486   Cl3 2486   4.720   0.664   3.782
  498M486    C1 2487   4.876   0.578   3.774
  498M486    Cl 2488   4.868   0.453   3.646
  498M486   Cl1 2489   4.910   0.500   3.932
  498M486   Cl2 2490   0.007   0.693   3.736
  499M486   Cl3 2491   4.569   0.338   2.739
  499M486    C1 2492   4.539   0.514   2.740
  499M486    Cl 2493   4.657   0.596   2.847
  499M486   Cl1 2494   4.373   0.546   2.799
  499M486   Cl2 2495   4.557   0.577   2.573
  500M486   Cl3 2496   0.549   3.047   3.629
  500M486    C1 2497   0.519   2.925   3.757
  500M486    Cl 2498   0.609   2.972   3.905
  500M486   Cl1 2499   0.575   2.765   3.703
  500M486   Cl2 2500   0.344   2.918   3.793
  501M486   Cl3 2501   3.541   1.226   0.046
  501M486    C1 2502   3.511   1.050   0.046
  501M486    Cl 2503   3.340   1.020   0.088
  501M486   Cl1 2504   3.618   0.971   0.166
  501M486   Cl2 2505   3.545   0.984   4.883
  502M486   Cl3 2506   1.511   1.132   3.218
  502M486    C1 2507   1.505   1.266   3.100
  502M486    Cl 2508   1.357   1.251   3.000
  502M486   Cl1 2509   1.649   1.260   2.994
  502M486   Cl2 2510   1.502   1.422   3.186
  503M486   Cl3 2511   3.883   1.135   4.611
  503M486    C1 2512   3.931   1.069   4.771
  503M486    Cl 2513   3.893   0.895   4.776
  503M486   Cl1 2514   3.840   1.154   4.899
  503M486   Cl2 2515   4.106   1.095   4.797
  504M486   Cl3 2516   3.987   0.467   0.195
  504M486    C1 2517   4.022   0.303   0.133
  504M486    Cl 2518   3.930   0.274   4.982
  504M486   Cl1 2519   3.975   0.180   0.255
  504M486   Cl2 2520   4.197   0.288   0.099
  505M486   Cl3 2521   0.006   2.062   2.241
  505M486    C1 2522   0.130   1.953   2.171
  505M486    Cl 2523   0.273   1.949   2.278
  505M486   Cl1 2524   0.176   2.013   2.009
  505M486   Cl2 2525   0.063   1.788   2.156
  506M486   Cl3 2526   1.637   4.564   1.312
  506M486    C1 2527   1.713   4.628   1.461
  506M486    Cl 2528   1.732   4.495   1.580
  506M486   Cl1 2529   1.609   4.756   1.531
  506M486   Cl2 2530   1.873   4.696   1.421
  507M486   Cl3 2531   2.473   1.512   1.229
  507M486    C1 2532   2.569   1.362   1.234
  507M486    Cl 2533   2.576   1.290   1.070
  507M486   Cl1 2534   2.491   1.246   1.346
  507M486   Cl2 2535   2.735   1.398   1.290
  508M486   Cl3 2536   3.280   1.096   4.678
  508M486    C1 2537   3.413   1.182   4.593
  508M486    Cl 2538   3.496   1.289   4.708
  508M486   Cl1 2539   3.344   1.279   4.459
  508M486   Cl2 2540   3.530   1.063   4.528
  509M486   Cl3 2541   0.025   4.630   4.002
  509M486    C1 2542   0.116   4.552   3.869
  509M486    Cl 2543   0.208   4.676   3.778
  509M486   Cl1 2544   0.001   4.470   3.759
  509M486   Cl2 2545   0.231   4.432   3.937
  510M486   Cl3 2546   2.213   2.930   2.789
  510M486    C1 2547   2.243   2.872   2.956
  510M486    Cl 2548   2.323   2.712   2.949
  510M486   Cl1 2549   2.087   2.859   3.043
  510M486   Cl2 2550   2.349   2.989   3.041
  511M486   Cl3 2551   1.990   1.766   2.977
  511M486    C1 2552   2.034   1.600   3.031
  511M486    Cl 2553   2.142   1.609   3.174
  511M486   Cl1 2554   2.119   1.515   2.898
  511M486   Cl2 2555   1.886   1.511   3.074
  512M486   Cl3 2556   2.286   3.966   0.045
  512M486    C1 2557   2.312   3.882   0.200
  512M486    Cl 2558   2.486   3.846   0.218
  512M486   Cl1 2559   2.218   3.730   0.202
  512M486   Cl2 2560   2.260   3.986   0.336
   5.00000   5.00000   5.00000
