GRA in water
21228
    1GRA     C1    1   0.117   0.101   2.993
    1GRA     C2    2   0.321   0.203   2.995
    1GRA     C3    3   0.319   0.415   2.994
    1GRA     C4    4   0.115   0.515   2.990
    2GRA     C1    5   0.113   0.724   2.994
    2GRA     C2    6   0.317   0.822   2.996
    2GRA     C3    7   0.316   1.029   3.001
    2GRA     C4    8   0.112   1.125   3.003
    3GRA     C1    9   0.111   1.331   3.006
    3GRA     C2   10   0.314   1.425   3.005
    3GRA     C3   11   0.313   1.630   3.006
    3GRA     C4   12   0.109   1.723   3.008
    4GRA     C1   13   0.108   1.925   3.010
    4GRA     C2   14   0.311   2.017   3.010
    4GRA     C3   15   0.311   2.219   3.011
    4GRA     C4   16   0.108   2.310   3.012
    5GRA     C1   17   0.108   2.511   3.008
    5GRA     C2   18   0.311   2.602   3.007
    5GRA     C3   19   0.311   2.803   3.007
    5GRA     C4   20   0.108   2.892   3.006
    6GRA     C1   21   0.109   3.092   3.010
    6GRA     C2   22   0.311   3.182   3.013
    6GRA     C3   23   0.311   3.382   3.013
    6GRA     C4   24   0.108   3.471   3.015
    7GRA     C1   25   0.109   3.672   3.016
    7GRA     C2   26   0.312   3.764   3.016
    7GRA     C3   27   0.313   3.966   3.018
    7GRA     C4   28   0.110   4.057   3.018
    8GRA     C1   29   0.111   4.261   3.016
    8GRA     C2   30   0.314   4.355   3.013
    8GRA     C3   31   0.315   4.559   3.009
    8GRA     C4   32   0.112   4.653   3.007
    9GRA     C1   33   0.113   4.860   3.003
    9GRA     C2   34   0.318   4.957   3.003
    9GRA     C3   35   0.319   5.164   2.997
    9GRA     C4   36   0.116   5.263   2.991
   10GRA     C1   37   0.117   5.474   2.986
   10GRA     C2   38   0.322   5.576   2.989
   10GRA     C3   39   0.322   5.788   2.990
   10GRA     C4   40   0.118   5.887   2.990
   11GRA     C1   41   0.525   0.104   2.999
   11GRA     C2   42   0.727   0.204   3.005
   11GRA     C3   43   0.725   0.414   3.001
   11GRA     C4   44   0.523   0.514   2.995
   12GRA     C1   45   0.521   0.723   2.995
   12GRA     C2   46   0.724   0.821   3.001
   12GRA     C3   47   0.722   1.028   3.002
   12GRA     C4   48   0.519   1.124   3.003
   13GRA     C1   49   0.517   1.330   3.004
   13GRA     C2   50   0.720   1.425   3.005
   13GRA     C3   51   0.719   1.630   3.006
   13GRA     C4   52   0.516   1.723   3.007
   14GRA     C1   53   0.515   1.926   3.010
   14GRA     C2   54   0.717   2.018   3.009
   14GRA     C3   55   0.717   2.219   3.008
   14GRA     C4   56   0.514   2.310   3.009
   15GRA     C1   57   0.514   2.512   3.010
   15GRA     C2   58   0.716   2.602   3.013
   15GRA     C3   59   0.716   2.802   3.012
   15GRA     C4   60   0.513   2.893   3.011
   16GRA     C1   61   0.514   3.092   3.013
   16GRA     C2   62   0.716   3.182   3.013
   16GRA     C3   63   0.716   3.382   3.012
   16GRA     C4   64   0.514   3.472   3.013
   17GRA     C1   65   0.515   3.673   3.014
   17GRA     C2   66   0.718   3.764   3.013
   17GRA     C3   67   0.719   3.966   3.013
   17GRA     C4   68   0.516   4.058   3.015
   18GRA     C1   69   0.517   4.262   3.013
   18GRA     C2   70   0.721   4.356   3.013
   18GRA     C3   71   0.722   4.561   3.010
   18GRA     C4   72   0.519   4.656   3.009
   19GRA     C1   73   0.521   4.862   3.007
   19GRA     C2   74   0.724   4.961   3.008
   19GRA     C3   75   0.726   5.169   3.005
   19GRA     C4   76   0.524   5.265   2.999
   20GRA     C1   77   0.526   5.477   2.998
   20GRA     C2   78   0.728   5.578   3.009
   20GRA     C3   79   0.728   5.791   3.009
   20GRA     C4   80   0.526   5.891   2.998
   21GRA     C1   81   0.930   0.104   3.011
   21GRA     C2   82   1.131   0.203   3.013
   21GRA     C3   83   1.129   0.414   3.009
   21GRA     C4   84   0.927   0.513   3.005
   22GRA     C1   85   0.926   0.722   3.002
   22GRA     C2   86   1.127   0.819   3.005
   22GRA     C3   87   1.126   1.027   3.004
   22GRA     C4   88   0.924   1.124   3.004
   23GRA     C1   89   0.922   1.330   3.005
   23GRA     C2   90   1.124   1.425   3.006
   23GRA     C3   91   1.123   1.629   3.008
   23GRA     C4   92   0.921   1.723   3.009
   24GRA     C1   93   0.920   1.925   3.009
   24GRA     C2   94   1.121   2.018   3.011
   24GRA     C3   95   1.120   2.219   3.011
   24GRA     C4   96   0.919   2.311   3.010
   25GRA     C1   97   0.918   2.511   3.012
   25GRA     C2   98   1.121   2.602   3.012
   25GRA     C3   99   1.120   2.802   3.010
   25GRA     C4  100   0.919   2.892   3.011
   26GRA     C1  101   0.918   3.092   3.011
   26GRA     C2  102   1.120   3.182   3.010
   26GRA     C3  103   1.121   3.381   3.010
   26GRA     C4  104   0.919   3.472   3.011
   27GRA     C1  105   0.920   3.673   3.012
   27GRA     C2  106   1.122   3.764   3.011
   27GRA     C3  107   1.123   3.966   3.011
   27GRA     C4  108   0.921   4.059   3.011
   28GRA     C1  109   0.923   4.262   3.012
   28GRA     C2  110   1.125   4.357   3.011
   28GRA     C3  111   1.126   4.563   3.009
   28GRA     C4  112   0.925   4.658   3.007
   29GRA     C1  113   0.926   4.865   3.008
   29GRA     C2  114   1.128   4.963   3.008
   29GRA     C3  115   1.129   5.171   3.009
   29GRA     C4  116   0.929   5.269   3.007
   30GRA     C1  117   0.930   5.480   3.012
   30GRA     C2  118   1.131   5.581   3.016
   30GRA     C3  119   1.131   5.792   3.017
   30GRA     C4  120   0.930   5.892   3.014
   31GRA     C1  121   1.332   0.103   3.016
   31GRA     C2  122   1.531   0.203   3.013
   31GRA     C3  123   1.530   0.413   3.011
   31GRA     C4  124   1.329   0.512   3.010
   32GRA     C1  125   1.328   0.721   3.007
   32GRA     C2  126   1.528   0.819   3.006
   32GRA     C3  127   1.527   1.026   3.005
   32GRA     C4  128   1.326   1.123   3.005
   33GRA     C1  129   1.325   1.329   3.005
   33GRA     C2  130   1.526   1.424   3.007
   33GRA     C3  131   1.524   1.628   3.010
   33GRA     C4  132   1.323   1.722   3.010
   34GRA     C1  133   1.322   1.925   3.011
   34GRA     C2  134   1.523   2.018   3.012
   34GRA     C3  135   1.522   2.219   3.012
   34GRA     C4  136   1.321   2.311   3.012
   35GRA     C1  137   1.321   2.511   3.012
   35GRA     C2  138   1.522   2.602   3.011
   35GRA     C3  139   1.522   2.801   3.010
   35GRA     C4  140   1.321   2.892   3.010
   36GRA     C1  141   1.321   3.091   3.010
   36GRA     C2  142   1.522   3.182   3.010
   36GRA     C3  143   1.522   3.381   3.008
   36GRA     C4  144   1.322   3.472   3.009
   37GRA     C1  145   1.322   3.672   3.009
   37GRA     C2  146   1.523   3.765   3.010
   37GRA     C3  147   1.524   3.966   3.011
   37GRA     C4  148   1.324   4.059   3.011
   38GRA     C1  149   1.325   4.263   3.011
   38GRA     C2  150   1.526   4.358   3.010
   38GRA     C3  151   1.527   4.563   3.009
   38GRA     C4  152   1.327   4.659   3.009
   39GRA     C1  153   1.328   4.866   3.009
   39GRA     C2  154   1.529   4.963   3.009
   39GRA     C3  155   1.530   5.172   3.010
   39GRA     C4  156   1.330   5.271   3.011
   40GRA     C1  157   1.331   5.481   3.015
   40GRA     C2  158   1.531   5.581   3.014
   40GRA     C3  159   1.531   5.791   3.015
   40GRA     C4  160   1.332   5.892   3.017
   41GRA     C1  161   1.729   0.102   3.011
   41GRA     C2  162   1.928   0.202   3.010
   41GRA     C3  163   1.928   0.412   3.010
   41GRA     C4  164   1.729   0.512   3.010
   42GRA     C1  165   1.728   0.721   3.008
   42GRA     C2  166   1.926   0.818   3.008
   42GRA     C3  167   1.925   1.026   3.007
   42GRA     C4  168   1.726   1.123   3.006
   43GRA     C1  169   1.725   1.329   3.007
   43GRA     C2  170   1.924   1.424   3.008
   43GRA     C3  171   1.923   1.628   3.011
   43GRA     C4  172   1.724   1.722   3.011
   44GRA     C1  173   1.723   1.925   3.012
   44GRA     C2  174   1.922   2.018   3.013
   44GRA     C3  175   1.921   2.219   3.012
   44GRA     C4  176   1.722   2.311   3.010
   45GRA     C1  177   1.722   2.511   3.010
   45GRA     C2  178   1.921   2.602   3.010
   45GRA     C3  179   1.921   2.801   3.010
   45GRA     C4  180   1.721   2.892   3.010
   46GRA     C1  181   1.722   3.091   3.009
   46GRA     C2  182   1.921   3.182   3.010
   46GRA     C3  183   1.921   3.381   3.009
   46GRA     C4  184   1.722   3.472   3.009
   47GRA     C1  185   1.723   3.673   3.010
   47GRA     C2  186   1.922   3.765   3.012
   47GRA     C3  187   1.923   3.967   3.011
   47GRA     C4  188   1.724   4.060   3.010
   48GRA     C1  189   1.725   4.263   3.010
   48GRA     C2  190   1.924   4.358   3.011
   48GRA     C3  191   1.925   4.563   3.011
   48GRA     C4  192   1.727   4.659   3.010
   49GRA     C1  193   1.728   4.866   3.009
   49GRA     C2  194   1.926   4.964   3.009
   49GRA     C3  195   1.927   5.172   3.008
   49GRA     C4  196   1.729   5.271   3.010
   50GRA     C1  197   1.730   5.481   3.011
   50GRA     C2  198   1.928   5.581   3.008
   50GRA     C3  199   1.928   5.791   3.007
   50GRA     C4  200   1.730   5.892   3.011
   51GRA     C1  201   2.126   0.102   3.006
   51GRA     C2  202   2.324   0.202   3.006
   51GRA     C3  203   2.323   0.412   3.007
   51GRA     C4  204   2.125   0.511   3.009
   52GRA     C1  205   2.124   0.720   3.009
   52GRA     C2  206   2.322   0.818   3.009
   52GRA     C3  207   2.321   1.025   3.008
   52GRA     C4  208   2.123   1.122   3.008
   53GRA     C1  209   2.123   1.328   3.009
   53GRA     C2  210   2.321   1.424   3.011
   53GRA     C3  211   2.320   1.628   3.014
   53GRA     C4  212   2.121   1.722   3.013
   54GRA     C1  213   2.121   1.925   3.014
   54GRA     C2  214   2.318   2.018   3.015
   54GRA     C3  215   2.318   2.219   3.014
   54GRA     C4  216   2.119   2.310   3.013
   55GRA     C1  217   2.119   2.510   3.012
   55GRA     C2  218   2.318   2.602   3.012
   55GRA     C3  219   2.318   2.801   3.011
   55GRA     C4  220   2.119   2.892   3.011
   56GRA     C1  221   2.120   3.091   3.011
   56GRA     C2  222   2.318   3.182   3.012
   56GRA     C3  223   2.318   3.381   3.012
   56GRA     C4  224   2.120   3.473   3.012
   57GRA     C1  225   2.120   3.673   3.012
   57GRA     C2  226   2.319   3.765   3.013
   57GRA     C3  227   2.319   3.967   3.013
   57GRA     C4  228   2.122   4.060   3.012
   58GRA     C1  229   2.122   4.263   3.012
   58GRA     C2  230   2.321   4.358   3.013
   58GRA     C3  231   2.321   4.563   3.014
   58GRA     C4  232   2.124   4.659   3.012
   59GRA     C1  233   2.124   4.866   3.011
   59GRA     C2  234   2.322   4.964   3.011
   59GRA     C3  235   2.323   5.172   3.008
   59GRA     C4  236   2.125   5.271   3.006
   60GRA     C1  237   2.126   5.481   3.004
   60GRA     C2  238   2.324   5.580   3.005
   60GRA     C3  239   2.324   5.791   3.003
   60GRA     C4  240   2.127   5.892   3.005
   61GRA     C1  241   2.521   0.102   3.006
   61GRA     C2  242   2.717   0.202   3.008
   61GRA     C3  243   2.717   0.412   3.007
   61GRA     C4  244   2.520   0.512   3.006
   62GRA     C1  245   2.519   0.720   3.009
   62GRA     C2  246   2.716   0.818   3.008
   62GRA     C3  247   2.716   1.025   3.008
   62GRA     C4  248   2.519   1.122   3.009
   63GRA     C1  249   2.518   1.328   3.011
   63GRA     C2  250   2.715   1.423   3.011
   63GRA     C3  251   2.715   1.627   3.013
   63GRA     C4  252   2.517   1.722   3.015
   64GRA     C1  253   2.516   1.925   3.014
   64GRA     C2  254   2.714   2.018   3.013
   64GRA     C3  255   2.713   2.219   3.013
   64GRA     C4  256   2.516   2.311   3.014
   65GRA     C1  257   2.515   2.510   3.013
   65GRA     C2  258   2.713   2.602   3.012
   65GRA     C3  259   2.713   2.801   3.012
   65GRA     C4  260   2.516   2.892   3.012
   66GRA     C1  261   2.516   3.091   3.014
   66GRA     C2  262   2.713   3.182   3.014
   66GRA     C3  263   2.714   3.381   3.013
   66GRA     C4  264   2.516   3.473   3.013
   67GRA     C1  265   2.516   3.673   3.013
   67GRA     C2  266   2.714   3.765   3.013
   67GRA     C3  267   2.714   3.967   3.013
   67GRA     C4  268   2.517   4.060   3.013
   68GRA     C1  269   2.518   4.263   3.013
   68GRA     C2  270   2.715   4.358   3.013
   68GRA     C3  271   2.716   4.563   3.012
   68GRA     C4  272   2.519   4.659   3.013
   69GRA     C1  273   2.519   4.866   3.013
   69GRA     C2  274   2.716   4.964   3.012
   69GRA     C3  275   2.717   5.172   3.011
   69GRA     C4  276   2.520   5.271   3.008
   70GRA     C1  277   2.520   5.480   3.008
   70GRA     C2  278   2.717   5.580   3.010
   70GRA     C3  279   2.717   5.790   3.009
   70GRA     C4  280   2.521   5.891   3.005
   71GRA     C1  281   2.914   0.101   3.012
   71GRA     C2  282   3.109   0.201   3.012
   71GRA     C3  283   3.109   0.411   3.010
   71GRA     C4  284   2.913   0.510   3.008
   72GRA     C1  285   2.913   0.719   3.008
   72GRA     C2  286   3.109   0.817   3.008
   72GRA     C3  287   3.109   1.024   3.008
   72GRA     C4  288   2.912   1.122   3.009
   73GRA     C1  289   2.912   1.327   3.009
   73GRA     C2  290   3.109   1.423   3.009
   73GRA     C3  291   3.109   1.627   3.010
   73GRA     C4  292   2.912   1.722   3.012
   74GRA     C1  293   2.911   1.924   3.011
   74GRA     C2  294   3.108   2.018   3.009
   74GRA     C3  295   3.108   2.218   3.010
   74GRA     C4  296   2.911   2.311   3.012
   75GRA     C1  297   2.910   2.510   3.012
   75GRA     C2  298   3.108   2.601   3.012
   75GRA     C3  299   3.108   2.801   3.013
   75GRA     C4  300   2.910   2.892   3.013
   76GRA     C1  301   2.911   3.091   3.013
   76GRA     C2  302   3.108   3.182   3.013
   76GRA     C3  303   3.108   3.381   3.012
   76GRA     C4  304   2.911   3.473   3.013
   77GRA     C1  305   2.911   3.673   3.012
   77GRA     C2  306   3.108   3.765   3.013
   77GRA     C3  307   3.108   3.966   3.014
   77GRA     C4  308   2.911   4.060   3.013
   78GRA     C1  309   2.912   4.263   3.013
   78GRA     C2  310   3.109   4.358   3.012
   78GRA     C3  311   3.109   4.563   3.011
   78GRA     C4  312   2.912   4.659   3.012
   79GRA     C1  313   2.913   4.866   3.011
   79GRA     C2  314   3.109   4.964   3.010
   79GRA     C3  315   3.109   5.172   3.010
   79GRA     C4  316   2.913   5.271   3.011
   80GRA     C1  317   2.913   5.480   3.013
   80GRA     C2  318   3.110   5.580   3.015
   80GRA     C3  319   3.110   5.790   3.015
   80GRA     C4  320   2.914   5.890   3.013
   81GRA     C1  321   3.305   0.101   3.013
   81GRA     C2  322   3.502   0.200   3.007
   81GRA     C3  323   3.502   0.410   3.005
   81GRA     C4  324   3.306   0.509   3.009
   82GRA     C1  325   3.306   0.718   3.007
   82GRA     C2  326   3.503   0.816   3.005
   82GRA     C3  327   3.503   1.024   3.006
   82GRA     C4  328   3.306   1.121   3.007
   83GRA     C1  329   3.306   1.327   3.008
   83GRA     C2  330   3.503   1.423   3.008
   83GRA     C3  331   3.503   1.627   3.010
   83GRA     C4  332   3.305   1.722   3.010
   84GRA     C1  333   3.305   1.924   3.010
   84GRA     C2  334   3.503   2.017   3.011
   84GRA     C3  335   3.502   2.218   3.010
   84GRA     C4  336   3.305   2.310   3.011
   85GRA     C1  337   3.305   2.510   3.011
   85GRA     C2  338   3.502   2.601   3.011
   85GRA     C3  339   3.502   2.800   3.012
   85GRA     C4  340   3.305   2.891   3.013
   86GRA     C1  341   3.305   3.091   3.013
   86GRA     C2  342   3.502   3.182   3.012
   86GRA     C3  343   3.502   3.381   3.012
   86GRA     C4  344   3.305   3.473   3.012
   87GRA     C1  345   3.305   3.673   3.013
   87GRA     C2  346   3.502   3.765   3.013
   87GRA     C3  347   3.502   3.966   3.013
   87GRA     C4  348   3.305   4.060   3.013
   88GRA     C1  349   3.305   4.263   3.012
   88GRA     C2  350   3.502   4.358   3.011
   88GRA     C3  351   3.502   4.563   3.009
   88GRA     C4  352   3.306   4.659   3.010
   89GRA     C1  353   3.306   4.866   3.009
   89GRA     C2  354   3.502   4.963   3.007
   89GRA     C3  355   3.502   5.171   3.007
   89GRA     C4  356   3.306   5.271   3.009
   90GRA     C1  357   3.306   5.480   3.012
   90GRA     C2  358   3.502   5.580   3.008
   90GRA     C3  359   3.502   5.790   3.007
   90GRA     C4  360   3.306   5.890   3.013
   91GRA     C1  361   3.699   0.100   3.001
   91GRA     C2  362   3.897   0.199   2.997
   91GRA     C3  363   3.897   0.409   2.997
   91GRA     C4  364   3.700   0.509   3.001
   92GRA     C1  365   3.700   0.717   3.003
   92GRA     C2  366   3.898   0.815   3.003
   92GRA     C3  367   3.898   1.023   3.005
   92GRA     C4  368   3.700   1.121   3.005
   93GRA     C1  369   3.700   1.327   3.007
   93GRA     C2  370   3.898   1.422   3.008
   93GRA     C3  371   3.898   1.627   3.011
   93GRA     C4  372   3.700   1.721   3.010
   94GRA     C1  373   3.700   1.924   3.012
   94GRA     C2  374   3.898   2.017   3.012
   94GRA     C3  375   3.898   2.218   3.012
   94GRA     C4  376   3.700   2.310   3.011
   95GRA     C1  377   3.700   2.510   3.011
   95GRA     C2  378   3.898   2.601   3.012
   95GRA     C3  379   3.898   2.800   3.012
   95GRA     C4  380   3.700   2.891   3.011
   96GRA     C1  381   3.700   3.091   3.011
   96GRA     C2  382   3.898   3.181   3.011
   96GRA     C3  383   3.898   3.381   3.011
   96GRA     C4  384   3.700   3.472   3.011
   97GRA     C1  385   3.700   3.673   3.012
   97GRA     C2  386   3.898   3.765   3.013
   97GRA     C3  387   3.898   3.966   3.013
   97GRA     C4  388   3.700   4.060   3.012
   98GRA     C1  389   3.700   4.263   3.011
   98GRA     C2  390   3.897   4.357   3.010
   98GRA     C3  391   3.897   4.562   3.008
   98GRA     C4  392   3.700   4.659   3.008
   99GRA     C1  393   3.699   4.865   3.006
   99GRA     C2  394   3.897   4.962   3.004
   99GRA     C3  395   3.897   5.170   3.001
   99GRA     C4  396   3.699   5.270   3.003
  100GRA     C1  397   3.699   5.479   3.002
  100GRA     C2  398   3.896   5.578   2.995
  100GRA     C3  399   3.896   5.788   2.995
  100GRA     C4  400   3.699   5.889   3.001
  101GRA     C1  401   4.095   0.099   2.992
  101GRA     C2  402   4.294   0.198   2.989
  101GRA     C3  403   4.294   0.408   2.991
  101GRA     C4  404   4.096   0.508   2.996
  102GRA     C1  405   4.096   0.717   3.001
  102GRA     C2  406   4.295   0.815   3.002
  102GRA     C3  407   4.295   1.023   3.005
  102GRA     C4  408   4.096   1.120   3.006
  103GRA     C1  409   4.096   1.326   3.008
  103GRA     C2  410   4.295   1.422   3.010
  103GRA     C3  411   4.295   1.627   3.013
  103GRA     C4  412   4.097   1.721   3.014
  104GRA     C1  413   4.097   1.924   3.014
  104GRA     C2  414   4.295   2.016   3.016
  104GRA     C3  415   4.295   2.218   3.014
  104GRA     C4  416   4.096   2.310   3.013
  105GRA     C1  417   4.096   2.510   3.012
  105GRA     C2  418   4.295   2.601   3.013
  105GRA     C3  419   4.295   2.800   3.012
  105GRA     C4  420   4.096   2.891   3.012
  106GRA     C1  421   4.096   3.091   3.012
  106GRA     C2  422   4.295   3.181   3.013
  106GRA     C3  423   4.295   3.381   3.012
  106GRA     C4  424   4.096   3.472   3.012
  107GRA     C1  425   4.096   3.672   3.013
  107GRA     C2  426   4.295   3.764   3.015
  107GRA     C3  427   4.295   3.966   3.015
  107GRA     C4  428   4.096   4.059   3.013
  108GRA     C1  429   4.096   4.262   3.011
  108GRA     C2  430   4.294   4.356   3.010
  108GRA     C3  431   4.294   4.561   3.007
  108GRA     C4  432   4.095   4.658   3.007
  109GRA     C1  433   4.095   4.864   3.005
  109GRA     C2  434   4.294   4.961   3.002
  109GRA     C3  435   4.293   5.169   2.996
  109GRA     C4  436   4.095   5.269   2.995
  110GRA     C1  437   4.095   5.478   2.991
  110GRA     C2  438   4.293   5.577   2.987
  110GRA     C3  439   4.293   5.788   2.985
  110GRA     C4  440   4.095   5.888   2.990
  111GRA     C1  441   4.493   0.098   2.985
  111GRA     C2  442   4.693   0.198   2.986
  111GRA     C3  443   4.693   0.408   2.991
  111GRA     C4  444   4.493   0.508   2.994
  112GRA     C1  445   4.493   0.717   3.002
  112GRA     C2  446   4.693   0.815   3.003
  112GRA     C3  447   4.694   1.023   3.005
  112GRA     C4  448   4.493   1.120   3.006
  113GRA     C1  449   4.493   1.326   3.009
  113GRA     C2  450   4.693   1.422   3.011
  113GRA     C3  451   4.694   1.626   3.015
  113GRA     C4  452   4.494   1.721   3.016
  114GRA     C1  453   4.494   1.924   3.016
  114GRA     C2  454   4.694   2.016   3.016
  114GRA     C3  455   4.694   2.218   3.015
  114GRA     C4  456   4.494   2.309   3.015
  115GRA     C1  457   4.494   2.510   3.013
  115GRA     C2  458   4.694   2.600   3.012
  115GRA     C3  459   4.693   2.800   3.010
  115GRA     C4  460   4.493   2.890   3.011
  116GRA     C1  461   4.493   3.090   3.012
  116GRA     C2  462   4.693   3.180   3.011
  116GRA     C3  463   4.693   3.380   3.013
  116GRA     C4  464   4.493   3.471   3.014
  117GRA     C1  465   4.493   3.672   3.015
  117GRA     C2  466   4.693   3.763   3.016
  117GRA     C3  467   4.693   3.965   3.017
  117GRA     C4  468   4.493   4.058   3.015
  118GRA     C1  469   4.493   4.261   3.012
  118GRA     C2  470   4.693   4.355   3.011
  118GRA     C3  471   4.693   4.560   3.007
  118GRA     C4  472   4.493   4.656   3.005
  119GRA     C1  473   4.492   4.863   3.001
  119GRA     C2  474   4.693   4.960   2.996
  119GRA     C3  475   4.692   5.169   2.990
  119GRA     C4  476   4.492   5.268   2.991
  120GRA     C1  477   4.492   5.477   2.987
  120GRA     C2  478   4.692   5.576   2.982
  120GRA     C3  479   4.692   5.786   2.981
  120GRA     C4  480   4.492   5.887   2.983
  121GRA     C1  481   4.894   0.098   2.983
  121GRA     C2  482   5.096   0.198   2.986
  121GRA     C3  483   5.097   0.409   2.991
  121GRA     C4  484   4.895   0.508   2.994
  122GRA     C1  485   4.895   0.717   3.000
  122GRA     C2  486   5.096   0.816   3.001
  122GRA     C3  487   5.096   1.024   3.003
  122GRA     C4  488   4.895   1.120   3.006
  123GRA     C1  489   4.894   1.327   3.010
  123GRA     C2  490   5.095   1.422   3.014
  123GRA     C3  491   5.095   1.627   3.019
  123GRA     C4  492   4.894   1.721   3.017
  124GRA     C1  493   4.894   1.924   3.017
  124GRA     C2  494   5.096   2.016   3.017
  124GRA     C3  495   5.096   2.218   3.016
  124GRA     C4  496   4.895   2.309   3.014
  125GRA     C1  497   4.894   2.510   3.012
  125GRA     C2  498   5.095   2.600   3.010
  125GRA     C3  499   5.095   2.800   3.008
  125GRA     C4  500   4.894   2.890   3.010
  126GRA     C1  501   4.894   3.089   3.011
  126GRA     C2  502   5.095   3.179   3.012
  126GRA     C3  503   5.095   3.380   3.015
  126GRA     C4  504   4.894   3.470   3.015
  127GRA     C1  505   4.894   3.671   3.017
  127GRA     C2  506   5.095   3.762   3.020
  127GRA     C3  507   5.095   3.964   3.021
  127GRA     C4  508   4.893   4.057   3.019
  128GRA     C1  509   4.893   4.260   3.015
  128GRA     C2  510   5.095   4.353   3.013
  128GRA     C3  511   5.095   4.558   3.007
  128GRA     C4  512   4.894   4.655   3.004
  129GRA     C1  513   4.893   4.862   2.997
  129GRA     C2  514   5.095   4.958   2.994
  129GRA     C3  515   5.095   5.167   2.988
  129GRA     C4  516   4.894   5.266   2.986
  130GRA     C1  517   4.894   5.476   2.980
  130GRA     C2  518   5.096   5.574   2.977
  130GRA     C3  519   5.096   5.785   2.979
  130GRA     C4  520   4.894   5.885   2.980
  131GRA     C1  521   5.298   0.098   2.985
  131GRA     C2  522   5.502   0.200   2.986
  131GRA     C3  523   5.502   0.412   2.987
  131GRA     C4  524   5.299   0.509   2.992
  132GRA     C1  525   5.298   0.719   2.997
  132GRA     C2  526   5.502   0.818   2.999
  132GRA     C3  527   5.501   1.026   3.005
  132GRA     C4  528   5.298   1.121   3.006
  133GRA     C1  529   5.298   1.328   3.011
  133GRA     C2  530   5.500   1.424   3.014
  133GRA     C3  531   5.499   1.629   3.018
  133GRA     C4  532   5.297   1.721   3.019
  134GRA     C1  533   5.297   1.924   3.019
  134GRA     C2  534   5.499   2.017   3.016
  134GRA     C3  535   5.500   2.219   3.013
  134GRA     C4  536   5.298   2.310   3.013
  135GRA     C1  537   5.298   2.510   3.009
  135GRA     C2  538   5.500   2.601   3.006
  135GRA     C3  539   5.499   2.801   3.004
  135GRA     C4  540   5.297   2.890   3.007
  136GRA     C1  541   5.296   3.089   3.009
  136GRA     C2  542   5.499   3.179   3.012
  136GRA     C3  543   5.499   3.379   3.017
  136GRA     C4  544   5.297   3.470   3.017
  137GRA     C1  545   5.297   3.671   3.019
  137GRA     C2  546   5.499   3.762   3.020
  137GRA     C3  547   5.500   3.963   3.021
  137GRA     C4  548   5.297   4.056   3.020
  138GRA     C1  549   5.298   4.258   3.016
  138GRA     C2  550   5.501   4.351   3.012
  138GRA     C3  551   5.501   4.556   3.003
  138GRA     C4  552   5.298   4.652   3.001
  139GRA     C1  553   5.297   4.860   2.995
  139GRA     C2  554   5.501   4.956   2.996
  139GRA     C3  555   5.501   5.165   2.987
  139GRA     C4  556   5.298   5.264   2.983
  140GRA     C1  557   5.298   5.474   2.979
  140GRA     C2  558   5.503   5.572   2.979
  140GRA     C3  559   5.502   5.784   2.981
  140GRA     C4  560   5.299   5.885   2.981
  141GRA     C1  561   5.707   0.100   2.986
  141GRA     C2  562   5.912   0.203   2.990
  141GRA     C3  563   5.910   0.415   2.988
  141GRA     C4  564   5.706   0.513   2.988
  142GRA     C1  565   5.705   0.722   2.995
  142GRA     C2  566   5.909   0.820   2.998
  142GRA     C3  567   5.908   1.028   3.002
  142GRA     C4  568   5.705   1.123   3.007
  143GRA     C1  569   5.704   1.330   3.009
  143GRA     C2  570   5.907   1.425   3.009
  143GRA     C3  571   5.906   1.630   3.011
  143GRA     C4  572   5.703   1.723   3.016
  144GRA     C1  573   5.702   1.926   3.015
  144GRA     C2  574   5.905   2.017   3.012
  144GRA     C3  575   5.905   2.219   3.013
  144GRA     C4  576   5.702   2.310   3.011
  145GRA     C1  577   5.702   2.511   3.007
  145GRA     C2  578   5.905   2.602   3.006
  145GRA     C3  579   5.905   2.802   3.004
  145GRA     C4  580   5.702   2.891   3.007
  146GRA     C1  581   5.702   3.090   3.010
  146GRA     C2  582   5.905   3.181   3.012
  146GRA     C3  583   5.905   3.380   3.015
  146GRA     C4  584   5.702   3.470   3.017
  147GRA     C1  585   5.702   3.671   3.019
  147GRA     C2  586   5.906   3.762   3.018
  147GRA     C3  587   5.906   3.964   3.018
  147GRA     C4  588   5.703   4.055   3.019
  148GRA     C1  589   5.704   4.258   3.017
  148GRA     C2  590   5.907   4.353   3.018
  148GRA     C3  591   5.908   4.557   3.010
  148GRA     C4  592   5.704   4.652   3.004
  149GRA     C1  593   5.705   4.859   3.001
  149GRA     C2  594   5.909   4.956   2.999
  149GRA     C3  595   5.910   5.164   2.992
  149GRA     C4  596   5.706   5.262   2.986
  150GRA     C1  597   5.707   5.471   2.980
  150GRA     C2  598   5.913   5.572   2.981
  150GRA     C3  599   5.912   5.784   2.984
  150GRA     C4  600   5.707   5.886   2.983
  151SOL     OW  601   1.409   1.508   1.912
  151SOL    HW1  602   1.326   1.467   1.933
  151SOL    HW2  603   1.410   1.515   1.816
  152SOL     OW  604   1.207   1.252   2.365
  152SOL    HW1  605   1.120   1.240   2.403
  152SOL    HW2  606   1.210   1.191   2.291
  153SOL     OW  607   2.719   2.361   2.484
  153SOL    HW1  608   2.671   2.359   2.566
  153SOL    HW2  609   2.651   2.362   2.416
  154SOL     OW  610   2.294   1.546   2.487
  154SOL    HW1  611   2.352   1.619   2.466
  154SOL    HW2  612   2.228   1.584   2.545
  155SOL     OW  613   2.944   1.470   1.995
  155SOL    HW1  614   2.900   1.479   1.911
  155SOL    HW2  615   2.909   1.389   2.032
  156SOL     OW  616   2.037   1.636   3.602
  156SOL    HW1  617   2.023   1.709   3.662
  156SOL    HW2  618   2.056   1.676   3.518
  157SOL     OW  619   1.858   1.869   2.426
  157SOL    HW1  620   1.916   1.852   2.500
  157SOL    HW2  621   1.785   1.918   2.464
  158SOL     OW  622   1.884   2.006   3.607
  158SOL    HW1  623   1.931   2.085   3.630
  158SOL    HW2  624   1.804   2.037   3.565
  159SOL     OW  625   1.467   2.328   2.736
  159SOL    HW1  626   1.411   2.361   2.666
  159SOL    HW2  627   1.549   2.378   2.726
  160SOL     OW  628   1.614   1.256   3.297
  160SOL    HW1  629   1.692   1.202   3.302
  160SOL    HW2  630   1.541   1.194   3.298
  161SOL     OW  631   2.767   1.299   2.487
  161SOL    HW1  632   2.698   1.346   2.439
  161SOL    HW2  633   2.796   1.361   2.554
  162SOL     OW  634   1.458   2.540   2.303
  162SOL    HW1  635   1.457   2.629   2.337
  162SOL    HW2  636   1.477   2.549   2.210
  163SOL     OW  637   2.314   2.190   3.464
  163SOL    HW1  638   2.360   2.184   3.549
  163SOL    HW2  639   2.257   2.113   3.462
  164SOL     OW  640   1.392   2.280   2.306
  164SOL    HW1  641   1.412   2.372   2.321
  164SOL    HW2  642   1.341   2.254   2.383
  165SOL     OW  643   1.367   1.913   2.618
  165SOL    HW1  644   1.416   1.852   2.674
  165SOL    HW2  645   1.342   1.984   2.676
  166SOL     OW  646   1.802   2.662   3.277
  166SOL    HW1  647   1.712   2.632   3.286
  166SOL    HW2  648   1.797   2.757   3.289
  167SOL     OW  649   1.726   1.858   1.942
  167SOL    HW1  650   1.790   1.863   1.870
  167SOL    HW2  651   1.774   1.891   2.018
  168SOL     OW  652   2.736   0.981   3.290
  168SOL    HW1  653   2.756   1.054   3.231
  168SOL    HW2  654   2.737   1.020   3.378
  169SOL     OW  655   1.299   1.514   2.342
  169SOL    HW1  656   1.258   1.428   2.338
  169SOL    HW2  657   1.249   1.561   2.408
  170SOL     OW  658   3.012   2.633   2.147
  170SOL    HW1  659   3.090   2.630   2.202
  170SOL    HW2  660   3.019   2.715   2.099
  171SOL     OW  661   1.089   2.418   1.878
  171SOL    HW1  662   1.138   2.381   1.951
  171SOL    HW2  663   1.121   2.508   1.871
  172SOL     OW  664   2.885   1.794   2.417
  172SOL    HW1  665   2.942   1.733   2.371
  172SOL    HW2  666   2.842   1.844   2.348
  173SOL     OW  667   2.818   1.961   2.204
  173SOL    HW1  668   2.902   1.963   2.158
  173SOL    HW2  669   2.825   2.028   2.271
  174SOL     OW  670   1.272   1.637   3.446
  174SOL    HW1  671   1.362   1.631   3.413
  174SOL    HW2  672   1.222   1.671   3.372
  175SOL     OW  673   1.790   2.239   2.506
  175SOL    HW1  674   1.751   2.151   2.508
  175SOL    HW2  675   1.774   2.269   2.417
  176SOL     OW  676   2.009   0.877   2.281
  176SOL    HW1  677   2.030   0.970   2.268
  176SOL    HW2  678   1.913   0.874   2.282
  177SOL     OW  679   2.662   1.866   1.989
  177SOL    HW1  680   2.615   1.798   2.038
  177SOL    HW2  681   2.729   1.897   2.050
  178SOL     OW  682   2.317   2.658   3.386
  178SOL    HW1  683   2.370   2.729   3.350
  178SOL    HW2  684   2.369   2.579   3.369
  179SOL     OW  685   1.510   1.112   3.574
  179SOL    HW1  686   1.556   1.186   3.614
  179SOL    HW2  687   1.423   1.113   3.614
  180SOL     OW  688   2.583   2.268   2.718
  180SOL    HW1  689   2.629   2.282   2.801
  180SOL    HW2  690   2.617   2.184   2.686
  181SOL     OW  691   2.817   2.598   2.378
  181SOL    HW1  692   2.815   2.579   2.284
  181SOL    HW2  693   2.786   2.517   2.419
  182SOL     OW  694   1.766   1.594   2.046
  182SOL    HW1  695   1.745   1.676   2.002
  182SOL    HW2  696   1.702   1.588   2.117
  183SOL     OW  697   2.452   1.218   2.736
  183SOL    HW1  698   2.364   1.190   2.713
  183SOL    HW2  699   2.487   1.146   2.789
  184SOL     OW  700   2.763   2.527   2.093
  184SOL    HW1  701   2.845   2.576   2.093
  184SOL    HW2  702   2.759   2.486   2.007
  185SOL     OW  703   1.964   1.464   3.291
  185SOL    HW1  704   1.928   1.449   3.378
  185SOL    HW2  705   1.921   1.398   3.236
  186SOL     OW  706   2.593   1.325   3.474
  186SOL    HW1  707   2.598   1.373   3.556
  186SOL    HW2  708   2.640   1.243   3.491
  187SOL     OW  709   2.116   1.762   3.359
  187SOL    HW1  710   2.165   1.682   3.342
  187SOL    HW2  711   2.091   1.794   3.272
  188SOL     OW  712   2.222   1.535   2.201
  188SOL    HW1  713   2.225   1.549   2.295
  188SOL    HW2  714   2.138   1.492   2.186
  189SOL     OW  715   1.236   1.659   2.577
  189SOL    HW1  716   1.331   1.663   2.590
  189SOL    HW2  717   1.209   1.750   2.573
  190SOL     OW  718   1.305   2.732   3.370
  190SOL    HW1  719   1.301   2.717   3.465
  190SOL    HW2  720   1.234   2.679   3.334
  191SOL     OW  721   2.050   1.212   1.987
  191SOL    HW1  722   2.087   1.270   1.921
  191SOL    HW2  723   2.052   1.125   1.947
  192SOL     OW  724   2.876   1.431   3.605
  192SOL    HW1  725   2.831   1.506   3.566
  192SOL    HW2  726   2.924   1.391   3.532
  193SOL     OW  727   2.568   1.985   2.339
  193SOL    HW1  728   2.639   1.975   2.275
  193SOL    HW2  729   2.510   2.050   2.301
  194SOL     OW  730   1.737   1.023   2.687
  194SOL    HW1  731   1.728   1.085   2.760
  194SOL    HW2  732   1.722   1.075   2.609
  195SOL     OW  733   2.141   2.268   2.251
  195SOL    HW1  734   2.125   2.360   2.233
  195SOL    HW2  735   2.145   2.262   2.347
  196SOL     OW  736   1.540   2.670   2.645
  196SOL    HW1  737   1.590   2.589   2.645
  196SOL    HW2  738   1.602   2.737   2.673
  197SOL     OW  739   2.980   1.931   2.646
  197SOL    HW1  740   2.935   1.915   2.562
  197SOL    HW2  741   2.924   1.888   2.711
  198SOL     OW  742   2.402   2.405   3.312
  198SOL    HW1  743   2.398   2.329   3.370
  198SOL    HW2  744   2.364   2.375   3.229
  199SOL     OW  745   1.468   1.793   2.015
  199SOL    HW1  746   1.554   1.817   1.980
  199SOL    HW2  747   1.453   1.704   1.984
  200SOL     OW  748   2.674   1.611   2.493
  200SOL    HW1  749   2.654   1.569   2.577
  200SOL    HW2  750   2.746   1.670   2.512
  201SOL     OW  751   1.639   2.118   3.529
  201SOL    HW1  752   1.612   2.122   3.437
  201SOL    HW2  753   1.557   2.109   3.578
  202SOL     OW  754   2.274   2.663   1.989
  202SOL    HW1  755   2.224   2.617   2.056
  202SOL    HW2  756   2.299   2.595   1.927
  203SOL     OW  757   1.371   1.117   3.308
  203SOL    HW1  758   1.298   1.173   3.283
  203SOL    HW2  759   1.364   1.110   3.404
  204SOL     OW  760   2.778   2.215   1.884
  204SOL    HW1  761   2.735   2.293   1.849
  204SOL    HW2  762   2.727   2.142   1.848
  205SOL     OW  763   1.648   2.583   2.092
  205SOL    HW1  764   1.683   2.650   2.152
  205SOL    HW2  765   1.721   2.564   2.034
  206SOL     OW  766   2.591   0.987   2.213
  206SOL    HW1  767   2.566   0.948   2.129
  206SOL    HW2  768   2.684   0.966   2.223
  207SOL     OW  769   2.095   2.591   2.666
  207SOL    HW1  770   2.155   2.531   2.710
  207SOL    HW2  771   2.053   2.537   2.598
  208SOL     OW  772   1.568   1.553   2.234
  208SOL    HW1  773   1.574   1.458   2.241
  208SOL    HW2  774   1.475   1.572   2.247
  209SOL     OW  775   2.710   1.081   3.537
  209SOL    HW1  776   2.733   1.105   3.627
  209SOL    HW2  777   2.622   1.042   3.544
  210SOL     OW  778   1.786   0.972   1.881
  210SOL    HW1  779   1.879   0.955   1.892
  210SOL    HW2  780   1.761   0.922   1.803
  211SOL     OW  781   1.942   1.130   3.550
  211SOL    HW1  782   2.020   1.074   3.556
  211SOL    HW2  783   1.896   1.116   3.632
  212SOL     OW  784   2.506   1.480   3.277
  212SOL    HW1  785   2.542   1.421   3.344
  212SOL    HW2  786   2.570   1.551   3.271
  213SOL     OW  787   2.000   2.272   2.695
  213SOL    HW1  788   2.065   2.243   2.632
  213SOL    HW2  789   1.919   2.229   2.667
  214SOL     OW  790   2.123   1.366   2.673
  214SOL    HW1  791   2.092   1.356   2.583
  214SOL    HW2  792   2.149   1.278   2.700
  215SOL     OW  793   1.743   0.925   2.270
  215SOL    HW1  794   1.659   0.922   2.315
  215SOL    HW2  795   1.737   1.001   2.213
  216SOL     OW  796   2.579   2.037   1.788
  216SOL    HW1  797   2.619   1.974   1.847
  216SOL    HW2  798   2.503   2.070   1.836
  217SOL     OW  799   1.494   0.928   1.999
  217SOL    HW1  800   1.565   0.978   1.958
  217SOL    HW2  801   1.536   0.846   2.027
  218SOL     OW  802   2.108   1.133   2.245
  218SOL    HW1  803   2.086   1.159   2.155
  218SOL    HW2  804   2.203   1.129   2.246
  219SOL     OW  805   2.239   1.538   3.298
  219SOL    HW1  806   2.173   1.470   3.286
  219SOL    HW2  807   2.323   1.494   3.282
  220SOL     OW  808   2.426   2.426   2.530
  220SOL    HW1  809   2.456   2.509   2.493
  220SOL    HW2  810   2.467   2.423   2.617
  221SOL     OW  811   1.627   2.004   2.476
  221SOL    HW1  812   1.581   1.997   2.559
  221SOL    HW2  813   1.570   1.961   2.412
  222SOL     OW  814   2.486   2.652   2.388
  222SOL    HW1  815   2.524   2.710   2.323
  222SOL    HW2  816   2.444   2.710   2.452
  223SOL     OW  817   2.180   1.428   1.847
  223SOL    HW1  818   2.188   1.508   1.795
  223SOL    HW2  819   2.252   1.432   1.910
  224SOL     OW  820   2.007   1.314   2.427
  224SOL    HW1  821   1.988   1.380   2.360
  224SOL    HW2  822   2.043   1.240   2.378
  225SOL     OW  823   2.167   0.938   2.499
  225SOL    HW1  824   2.120   0.904   2.422
  225SOL    HW2  825   2.182   0.861   2.554
  226SOL     OW  826   2.637   2.022   2.620
  226SOL    HW1  827   2.588   1.942   2.639
  226SOL    HW2  828   2.648   2.020   2.525
  227SOL     OW  829   2.644   1.442   2.722
  227SOL    HW1  830   2.581   1.370   2.726
  227SOL    HW2  831   2.726   1.405   2.756
  228SOL     OW  832   3.014   1.666   2.172
  228SOL    HW1  833   3.073   1.612   2.224
  228SOL    HW2  834   2.989   1.611   2.098
  229SOL     OW  835   1.659   2.284   1.948
  229SOL    HW1  836   1.597   2.234   2.002
  229SOL    HW2  837   1.634   2.263   1.858
  230SOL     OW  838   2.848   2.129   2.411
  230SOL    HW1  839   2.940   2.135   2.435
  230SOL    HW2  840   2.809   2.210   2.443
  231SOL     OW  841   2.573   1.443   1.873
  231SOL    HW1  842   2.509   1.412   1.936
  231SOL    HW2  843   2.650   1.389   1.888
  232SOL     OW  844   1.711   1.132   2.090
  232SOL    HW1  845   1.747   1.073   2.023
  232SOL    HW2  846   1.691   1.213   2.042
  233SOL     OW  847   2.905   2.072   3.347
  233SOL    HW1  848   2.989   2.049   3.307
  233SOL    HW2  849   2.927   2.129   3.420
  234SOL     OW  850   2.785   2.507   3.443
  234SOL    HW1  851   2.758   2.543   3.358
  234SOL    HW2  852   2.871   2.469   3.426
  235SOL     OW  853   2.159   1.972   3.519
  235SOL    HW1  854   2.068   1.997   3.535
  235SOL    HW2  855   2.153   1.900   3.456
  236SOL     OW  856   1.886   1.917   2.156
  236SOL    HW1  857   1.870   1.903   2.249
  236SOL    HW2  858   1.965   1.866   2.138
  237SOL     OW  859   1.493   1.945   2.249
  237SOL    HW1  860   1.507   2.017   2.188
  237SOL    HW2  861   1.489   1.867   2.194
  238SOL     OW  862   1.709   1.435   2.684
  238SOL    HW1  863   1.705   1.488   2.604
  238SOL    HW2  864   1.789   1.463   2.727
  239SOL     OW  865   2.420   2.181   2.229
  239SOL    HW1  866   2.467   2.264   2.224
  239SOL    HW2  867   2.328   2.205   2.217
  240SOL     OW  868   2.777   1.495   2.263
  240SOL    HW1  869   2.712   1.535   2.322
  240SOL    HW2  870   2.805   1.566   2.206
  241SOL     OW  871   1.602   1.604   3.420
  241SOL    HW1  872   1.672   1.650   3.373
  241SOL    HW2  873   1.644   1.524   3.452
  242SOL     OW  874   2.754   1.629   3.460
  242SOL    HW1  875   2.675   1.683   3.455
  242SOL    HW2  876   2.816   1.672   3.401
  243SOL     OW  877   2.174   0.963   3.521
  243SOL    HW1  878   2.208   1.050   3.497
  243SOL    HW2  879   2.238   0.902   3.486
  244SOL     OW  880   1.659   0.883   3.528
  244SOL    HW1  881   1.615   0.839   3.455
  244SOL    HW2  882   1.609   0.963   3.543
  245SOL     OW  883   2.546   1.713   2.728
  245SOL    HW1  884   2.459   1.731   2.691
  245SOL    HW2  885   2.542   1.622   2.756
  246SOL     OW  886   2.373   1.373   2.046
  246SOL    HW1  887   2.378   1.290   2.094
  246SOL    HW2  888   2.327   1.432   2.104
  247SOL     OW  889   1.937   1.562   2.728
  247SOL    HW1  890   1.999   1.493   2.705
  247SOL    HW2  891   1.964   1.637   2.675
  248SOL     OW  892   2.901   1.813   3.644
  248SOL    HW1  893   2.852   1.758   3.582
  248SOL    HW2  894   2.841   1.828   3.716
  249SOL     OW  895   1.503   0.939   2.382
  249SOL    HW1  896   1.482   1.027   2.415
  249SOL    HW2  897   1.482   0.881   2.455
  250SOL     OW  898   2.805   1.245   2.164
  250SOL    HW1  899   2.819   1.174   2.227
  250SOL    HW2  900   2.794   1.323   2.217
  251SOL     OW  901   2.218   1.619   2.743
  251SOL    HW1  902   2.220   1.617   2.839
  251SOL    HW2  903   2.199   1.529   2.718
  252SOL     OW  904   2.151   2.405   3.521
  252SOL    HW1  905   2.121   2.456   3.447
  252SOL    HW2  906   2.199   2.331   3.482
  253SOL     OW  907   3.043   2.440   3.350
  253SOL    HW1  908   3.073   2.421   3.261
  253SOL    HW2  909   3.124   2.444   3.402
  254SOL     OW  910   1.535   1.800   3.596
  254SOL    HW1  911   1.617   1.808   3.645
  254SOL    HW2  912   1.551   1.728   3.535
  255SOL     OW  913   2.681   1.161   1.941
  255SOL    HW1  914   2.647   1.074   1.963
  255SOL    HW2  915   2.731   1.188   2.018
  256SOL     OW  916   2.465   1.685   1.813
  256SOL    HW1  917   2.511   1.603   1.828
  256SOL    HW2  918   2.519   1.733   1.750
  257SOL     OW  919   2.203   2.213   2.525
  257SOL    HW1  920   2.223   2.121   2.508
  257SOL    HW2  921   2.288   2.257   2.520
  258SOL     OW  922   1.505   1.709   2.730
  258SOL    HW1  923   1.558   1.677   2.658
  258SOL    HW2  924   1.477   1.630   2.777
  259SOL     OW  925   1.463   1.331   2.717
  259SOL    HW1  926   1.448   1.289   2.802
  259SOL    HW2  927   1.553   1.362   2.721
  260SOL     OW  928   2.313   1.275   3.473
  260SOL    HW1  929   2.262   1.329   3.533
  260SOL    HW2  930   2.397   1.319   3.464
  261SOL     OW  931   2.290   1.083   3.292
  261SOL    HW1  932   2.306   1.155   3.353
  261SOL    HW2  933   2.337   1.109   3.212
  262SOL     OW  934   1.174   2.151   1.966
  262SOL    HW1  935   1.115   2.134   1.892
  262SOL    HW2  936   1.180   2.067   2.011
  263SOL     OW  937   1.286   2.604   2.719
  263SOL    HW1  938   1.243   2.662   2.655
  263SOL    HW2  939   1.379   2.622   2.708
  264SOL     OW  940   1.695   2.443   2.666
  264SOL    HW1  941   1.760   2.509   2.692
  264SOL    HW2  942   1.745   2.380   2.613
  265SOL     OW  943   1.343   1.382   3.526
  265SOL    HW1  944   1.405   1.361   3.456
  265SOL    HW2  945   1.304   1.466   3.499
  266SOL     OW  946   2.545   1.798   3.429
  266SOL    HW1  947   2.576   1.889   3.435
  266SOL    HW2  948   2.485   1.799   3.354
  267SOL     OW  949   1.979   1.434   2.143
  267SOL    HW1  950   1.983   1.354   2.090
  267SOL    HW2  951   1.904   1.482   2.109
  268SOL     OW  952   1.417   2.408   3.515
  268SOL    HW1  953   1.413   2.452   3.600
  268SOL    HW2  954   1.429   2.315   3.536
  269SOL     OW  955   2.075   2.543   3.305
  269SOL    HW1  956   2.030   2.572   3.226
  269SOL    HW2  957   2.149   2.604   3.314
  270SOL     OW  958   1.642   1.360   1.961
  270SOL    HW1  959   1.698   1.435   1.979
  270SOL    HW2  960   1.554   1.398   1.952
  271SOL     OW  961   2.467   1.694   2.092
  271SOL    HW1  962   2.380   1.717   2.123
  271SOL    HW2  963   2.461   1.696   1.997
  272SOL     OW  964   1.853   2.535   3.526
  272SOL    HW1  965   1.791   2.607   3.530
  272SOL    HW2  966   1.908   2.555   3.450
  273SOL     OW  967   2.070   0.940   1.903
  273SOL    HW1  968   2.137   0.916   1.840
  273SOL    HW2  969   2.080   0.877   1.974
  274SOL     OW  970   2.898   1.011   2.284
  274SOL    HW1  971   2.965   1.017   2.217
  274SOL    HW2  972   2.891   0.917   2.303
  275SOL     OW  973   2.555   2.426   2.244
  275SOL    HW1  974   2.625   2.457   2.187
  275SOL    HW2  975   2.526   2.504   2.291
  276SOL     OW  976   1.279   2.669   3.637
  276SOL    HW1  977   1.257   2.581   3.669
  276SOL    HW2  978   1.350   2.698   3.694
  277SOL     OW  979   2.449   1.770   2.449
  277SOL    HW1  980   2.523   1.709   2.455
  277SOL    HW2  981   2.484   1.846   2.404
  278SOL     OW  982   1.985   2.089   3.300
  278SOL    HW1  983   1.963   2.147   3.373
  278SOL    HW2  984   2.007   2.148   3.228
  279SOL     OW  985   1.848   2.475   1.925
  279SOL    HW1  986   1.827   2.494   1.834
  279SOL    HW2  987   1.800   2.395   1.945
  280SOL     OW  988   3.008   1.075   2.719
  280SOL    HW1  989   3.045   1.009   2.660
  280SOL    HW2  990   2.914   1.061   2.715
  281SOL     OW  991   1.406   1.155   2.517
  281SOL    HW1  992   1.347   1.205   2.459
  281SOL    HW2  993   1.427   1.216   2.588
  282SOL     OW  994   2.363   2.478   1.782
  282SOL    HW1  995   2.350   2.413   1.851
  282SOL    HW2  996   2.341   2.432   1.701
  283SOL     OW  997   2.108   1.763   2.088
  283SOL    HW1  998   2.165   1.804   2.023
  283SOL    HW2  999   2.147   1.676   2.101
  284SOL     OW 1000   2.645   2.433   1.776
  284SOL    HW1 1001   2.554   2.460   1.789
  284SOL    HW2 1002   2.695   2.514   1.782
  285SOL     OW 1003   1.445   2.142   3.301
  285SOL    HW1 1004   1.514   2.207   3.291
  285SOL    HW2 1005   1.449   2.090   3.221
  286SOL     OW 1006   2.225   1.943   2.470
  286SOL    HW1 1007   2.170   1.904   2.539
  286SOL    HW2 1008   2.301   1.886   2.466
  287SOL     OW 1009   2.203   1.102   2.710
  287SOL    HW1 1010   2.194   1.061   2.624
  287SOL    HW2 1011   2.174   1.034   2.771
  288SOL     OW 1012   1.819   2.409   2.248
  288SOL    HW1 1013   1.812   2.324   2.204
  288SOL    HW2 1014   1.740   2.456   2.221
  289SOL     OW 1015   1.433   2.168   2.056
  289SOL    HW1 1016   1.346   2.168   2.015
  289SOL    HW2 1017   1.419   2.204   2.143
  290SOL     OW 1018   1.277   1.891   3.580
  290SOL    HW1 1019   1.237   1.809   3.551
  290SOL    HW2 1020   1.371   1.873   3.583
  291SOL     OW 1021   1.830   1.080   3.304
  291SOL    HW1 1022   1.906   1.050   3.255
  291SOL    HW2 1023   1.863   1.098   3.391
  292SOL     OW 1024   1.250   1.192   1.774
  292SOL    HW1 1025   1.161   1.167   1.747
  292SOL    HW2 1026   1.237   1.253   1.846
  293SOL     OW 1027   1.268   1.095   2.124
  293SOL    HW1 1028   1.213   1.072   2.049
  293SOL    HW2 1029   1.353   1.054   2.105
  294SOL     OW 1030   2.339   2.145   1.892
  294SOL    HW1 1031   2.250   2.170   1.867
  294SOL    HW2 1032   2.360   2.203   1.966
  295SOL     OW 1033   1.815   1.705   3.296
  295SOL    HW1 1034   1.853   1.780   3.250
  295SOL    HW2 1035   1.881   1.636   3.286
  296SOL     OW 1036   2.672   2.599   2.701
  296SOL    HW1 1037   2.684   2.667   2.635
  296SOL    HW2 1038   2.732   2.623   2.771
  297SOL     OW 1039   1.865   1.419   3.534
  297SOL    HW1 1040   1.918   1.484   3.581
  297SOL    HW2 1041   1.901   1.335   3.560
  298SOL     OW 1042   2.634   2.053   3.405
  298SOL    HW1 1043   2.629   2.076   3.498
  298SOL    HW2 1044   2.725   2.073   3.381
  299SOL     OW 1045   1.544   2.590   3.347
  299SOL    HW1 1046   1.465   2.641   3.331
  299SOL    HW2 1047   1.514   2.512   3.393
  300SOL     OW 1048   2.387   1.170   2.231
  300SOL    HW1 1049   2.453   1.101   2.223
  300SOL    HW2 1050   2.404   1.210   2.316
  301SOL     OW 1051   1.773   1.591   2.451
  301SOL    HW1 1052   1.824   1.667   2.422
  301SOL    HW2 1053   1.698   1.588   2.391
  302SOL     OW 1054   2.968   1.144   3.458
  302SOL    HW1 1055   2.950   1.219   3.402
  302SOL    HW2 1056   2.882   1.113   3.487
  303SOL     OW 1057   2.901   1.795   3.311
  303SOL    HW1 1058   2.899   1.885   3.343
  303SOL    HW2 1059   2.914   1.804   3.217
  304SOL     OW 1060   2.076   2.225   1.821
  304SOL    HW1 1061   2.026   2.206   1.900
  304SOL    HW2 1062   2.035   2.303   1.784
  305SOL     OW 1063   1.837   2.662   2.717
  305SOL    HW1 1064   1.816   2.753   2.694
  305SOL    HW2 1065   1.932   2.656   2.705
  306SOL     OW 1066   2.049   1.817   2.640
  306SOL    HW1 1067   2.112   1.773   2.697
  306SOL    HW2 1068   2.017   1.890   2.693
  307SOL     OW 1069   2.246   1.843   1.865
  307SOL    HW1 1070   2.268   1.931   1.834
  307SOL    HW2 1071   2.319   1.789   1.837
  308SOL     OW 1072   3.015   2.413   2.635
  308SOL    HW1 1073   2.944   2.421   2.570
  308SOL    HW2 1074   3.010   2.322   2.664
  309SOL     OW 1075   1.393   2.150   3.636
  309SOL    HW1 1076   1.340   2.073   3.617
  309SOL    HW2 1077   1.389   2.160   3.731
  310SOL     OW 1078   1.234   2.070   2.423
  310SOL    HW1 1079   1.241   2.013   2.500
  310SOL    HW2 1080   1.298   2.034   2.361
  311SOL     OW 1081   1.881   2.266   3.480
  311SOL    HW1 1082   1.789   2.239   3.481
  311SOL    HW2 1083   1.879   2.359   3.503
  312SOL     OW 1084   1.561   1.283   2.272
  312SOL    HW1 1085   1.597   1.224   2.205
  312SOL    HW2 1086   1.592   1.245   2.355
  313SOL     OW 1087   1.989   2.452   2.456
  313SOL    HW1 1088   1.938   2.462   2.376
  313SOL    HW2 1089   1.951   2.375   2.499
  314SOL     OW 1090   1.956   2.176   2.069
  314SOL    HW1 1091   1.918   2.095   2.102
  314SOL    HW2 1092   2.022   2.200   2.134
  315SOL     OW 1093   2.520   0.912   1.958
  315SOL    HW1 1094   2.570   0.862   1.894
  315SOL    HW2 1095   2.429   0.887   1.943
  316SOL     OW 1096   2.458   1.276   2.471
  316SOL    HW1 1097   2.443   1.366   2.440
  316SOL    HW2 1098   2.449   1.282   2.566
  317SOL     OW 1099   2.741   1.115   2.686
  317SOL    HW1 1100   2.649   1.091   2.678
  317SOL    HW2 1101   2.760   1.165   2.606
  318SOL     OW 1102   1.222   1.913   2.084
  318SOL    HW1 1103   1.311   1.884   2.062
  318SOL    HW2 1104   1.176   1.834   2.111
  319SOL     OW 1105   2.068   2.507   2.097
  319SOL    HW1 1106   1.987   2.488   2.048
  319SOL    HW2 1107   2.041   2.567   2.166
  320SOL     OW 1108   1.403   1.499   3.773
  320SOL    HW1 1109   1.323   1.465   3.812
  320SOL    HW2 1110   1.399   1.472   3.681
  321SOL     OW 1111   2.904   1.463   3.875
  321SOL    HW1 1112   2.901   1.447   3.781
  321SOL    HW2 1113   2.900   1.375   3.914
  322SOL     OW 1114   1.484   2.523   4.162
  322SOL    HW1 1115   1.470   2.574   4.242
  322SOL    HW2 1116   1.442   2.575   4.093
  323SOL     OW 1117   1.377   2.279   4.177
  323SOL    HW1 1118   1.412   2.368   4.171
  323SOL    HW2 1119   1.341   2.274   4.266
  324SOL     OW 1120   1.751   1.839   3.781
  324SOL    HW1 1121   1.800   1.886   3.712
  324SOL    HW2 1122   1.790   1.870   3.862
  325SOL     OW 1123   3.032   2.637   3.951
  325SOL    HW1 1124   3.068   2.618   4.038
  325SOL    HW2 1125   3.045   2.731   3.940
  326SOL     OW 1126   1.117   2.434   3.734
  326SOL    HW1 1127   1.162   2.365   3.783
  326SOL    HW2 1128   1.095   2.499   3.800
  327SOL     OW 1129   2.886   1.704   4.236
  327SOL    HW1 1130   2.969   1.736   4.271
  327SOL    HW2 1131   2.838   1.783   4.211
  328SOL     OW 1132   2.837   1.967   4.071
  328SOL    HW1 1133   2.921   1.952   4.027
  328SOL    HW2 1134   2.847   2.053   4.113
  329SOL     OW 1135   1.982   0.880   4.084
  329SOL    HW1 1136   2.023   0.952   4.132
  329SOL    HW2 1137   1.899   0.865   4.129
  330SOL     OW 1138   2.702   1.848   3.849
  330SOL    HW1 1139   2.638   1.786   3.885
  330SOL    HW2 1140   2.743   1.888   3.926
  331SOL     OW 1141   1.760   1.583   3.908
  331SOL    HW1 1142   1.756   1.665   3.859
  331SOL    HW2 1143   1.698   1.594   3.979
  332SOL     OW 1144   2.744   2.523   3.940
  332SOL    HW1 1145   2.827   2.570   3.937
  332SOL    HW2 1146   2.723   2.504   3.849
  333SOL     OW 1147   2.055   1.197   3.842
  333SOL    HW1 1148   2.108   1.245   3.778
  333SOL    HW2 1149   2.096   1.110   3.848
  334SOL     OW 1150   1.483   1.793   3.892
  334SOL    HW1 1151   1.560   1.826   3.845
  334SOL    HW2 1152   1.455   1.717   3.842
  335SOL     OW 1153   2.302   2.620   3.869
  335SOL    HW1 1154   2.219   2.587   3.903
  335SOL    HW2 1155   2.317   2.570   3.788
  336SOL     OW 1156   2.792   2.218   3.742
  336SOL    HW1 1157   2.748   2.302   3.732
  336SOL    HW2 1158   2.726   2.153   3.720
  337SOL     OW 1159   1.656   2.621   3.938
  337SOL    HW1 1160   1.683   2.627   4.030
  337SOL    HW2 1161   1.729   2.576   3.895
  338SOL     OW 1162   2.596   1.012   4.046
  338SOL    HW1 1163   2.567   0.942   3.987
  338SOL    HW2 1164   2.667   0.973   4.097
  339SOL     OW 1165   1.579   1.567   4.117
  339SOL    HW1 1166   1.584   1.472   4.127
  339SOL    HW2 1167   1.486   1.585   4.103
  340SOL     OW 1168   1.797   0.979   3.750
  340SOL    HW1 1169   1.867   0.920   3.779
  340SOL    HW2 1170   1.758   0.935   3.675
  341SOL     OW 1171   2.591   2.044   3.680
  341SOL    HW1 1172   2.617   1.971   3.737
  341SOL    HW2 1173   2.506   2.073   3.714
  342SOL     OW 1174   1.495   0.926   3.831
  342SOL    HW1 1175   1.570   0.983   3.817
  342SOL    HW2 1176   1.530   0.849   3.875
  343SOL     OW 1177   2.101   1.125   4.151
  343SOL    HW1 1178   2.060   1.159   4.072
  343SOL    HW2 1179   2.195   1.134   4.135
  344SOL     OW 1180   1.665   2.012   4.338
  344SOL    HW1 1181   1.628   2.015   4.426
  344SOL    HW2 1182   1.602   1.960   4.288
  345SOL     OW 1183   2.198   1.413   3.671
  345SOL    HW1 1184   2.148   1.493   3.657
  345SOL    HW2 1185   2.245   1.429   3.753
  346SOL     OW 1186   3.050   1.659   3.992
  346SOL    HW1 1187   3.043   1.622   4.081
  346SOL    HW2 1188   2.998   1.599   3.938
  347SOL     OW 1189   1.648   2.285   3.790
  347SOL    HW1 1190   1.601   2.233   3.855
  347SOL    HW2 1191   1.646   2.231   3.711
  348SOL     OW 1192   2.569   1.431   3.725
  348SOL    HW1 1193   2.506   1.417   3.795
  348SOL    HW2 1194   2.654   1.411   3.764
  349SOL     OW 1195   1.701   1.125   3.967
  349SOL    HW1 1196   1.753   1.071   3.907
  349SOL    HW2 1197   1.679   1.203   3.916
  350SOL     OW 1198   1.885   1.917   4.010
  350SOL    HW1 1199   1.868   1.908   4.103
  350SOL    HW2 1200   1.962   1.861   3.994
  351SOL     OW 1201   1.493   1.926   4.136
  351SOL    HW1 1202   1.523   2.011   4.102
  351SOL    HW2 1203   1.495   1.869   4.060
  352SOL     OW 1204   2.439   2.176   4.104
  352SOL    HW1 1205   2.501   2.247   4.121
  352SOL    HW2 1206   2.368   2.217   4.054
  353SOL     OW 1207   2.732   1.502   4.121
  353SOL    HW1 1208   2.769   1.565   4.182
  353SOL    HW2 1209   2.778   1.519   4.038
  354SOL     OW 1210   2.368   1.381   3.910
  354SOL    HW1 1211   2.372   1.297   3.957
  354SOL    HW2 1212   2.338   1.444   3.976
  355SOL     OW 1213   2.817   1.246   4.031
  355SOL    HW1 1214   2.819   1.163   4.079
  355SOL    HW2 1215   2.763   1.304   4.085
  356SOL     OW 1216   2.705   1.163   3.797
  356SOL    HW1 1217   2.658   1.085   3.826
  356SOL    HW2 1218   2.753   1.193   3.874
  357SOL     OW 1219   2.467   1.685   3.672
  357SOL    HW1 1220   2.508   1.599   3.676
  357SOL    HW2 1221   2.498   1.723   3.590
  358SOL     OW 1222   1.156   2.154   3.828
  358SOL    HW1 1223   1.086   2.134   3.766
  358SOL    HW2 1224   1.175   2.070   3.871
  359SOL     OW 1225   2.014   1.471   3.927
  359SOL    HW1 1226   2.010   1.375   3.919
  359SOL    HW2 1227   1.923   1.498   3.935
  360SOL     OW 1228   1.635   1.349   3.821
  360SOL    HW1 1229   1.695   1.420   3.844
  360SOL    HW2 1230   1.549   1.390   3.817
  361SOL     OW 1231   2.480   1.701   3.952
  361SOL    HW1 1232   2.411   1.753   3.992
  361SOL    HW2 1233   2.456   1.695   3.860
  362SOL     OW 1234   2.886   0.993   4.130
  362SOL    HW1 1235   2.966   1.011   4.081
  362SOL    HW2 1236   2.891   0.900   4.152
  363SOL     OW 1237   2.573   2.426   4.133
  363SOL    HW1 1238   2.626   2.458   4.059
  363SOL    HW2 1239   2.526   2.504   4.164
  364SOL     OW 1240   1.848   2.474   3.797
  364SOL    HW1 1241   1.856   2.492   3.703
  364SOL    HW2 1242   1.787   2.401   3.802
  365SOL     OW 1243   2.375   2.457   3.664
  365SOL    HW1 1244   2.373   2.364   3.687
  365SOL    HW2 1245   2.303   2.468   3.602
  366SOL     OW 1246   2.096   1.746   3.948
  366SOL    HW1 1247   2.151   1.780   3.876
  366SOL    HW2 1248   2.083   1.654   3.926
  367SOL     OW 1249   2.650   2.435   3.680
  367SOL    HW1 1250   2.559   2.463   3.671
  367SOL    HW2 1251   2.692   2.463   3.599
  368SOL     OW 1252   1.805   2.417   4.113
  368SOL    HW1 1253   1.832   2.336   4.070
  368SOL    HW2 1254   1.711   2.422   4.099
  369SOL     OW 1255   1.415   2.180   3.917
  369SOL    HW1 1256   1.321   2.187   3.901
  369SOL    HW2 1257   1.425   2.198   4.010
  370SOL     OW 1258   1.252   1.156   3.646
  370SOL    HW1 1259   1.158   1.153   3.633
  370SOL    HW2 1260   1.275   1.249   3.636
  371SOL     OW 1261   1.295   1.073   3.965
  371SOL    HW1 1262   1.230   1.088   3.897
  371SOL    HW2 1263   1.369   1.031   3.919
  372SOL     OW 1264   2.346   2.177   3.743
  372SOL    HW1 1265   2.253   2.161   3.728
  372SOL    HW2 1266   2.350   2.218   3.829
  373SOL     OW 1267   2.378   1.171   4.103
  373SOL    HW1 1268   2.452   1.112   4.092
  373SOL    HW2 1269   2.408   1.235   4.168
  374SOL     OW 1270   1.792   1.599   4.309
  374SOL    HW1 1271   1.853   1.654   4.259
  374SOL    HW2 1272   1.715   1.593   4.254
  375SOL     OW 1273   2.068   2.212   3.705
  375SOL    HW1 1274   2.011   2.239   3.777
  375SOL    HW2 1275   2.071   2.288   3.647
  376SOL     OW 1276   2.246   1.833   3.740
  376SOL    HW1 1277   2.224   1.894   3.669
  376SOL    HW2 1278   2.323   1.786   3.707
  377SOL     OW 1279   1.588   1.299   4.148
  377SOL    HW1 1280   1.626   1.231   4.092
  377SOL    HW2 1281   1.605   1.270   4.237
  378SOL     OW 1282   1.934   2.192   3.954
  378SOL    HW1 1283   1.898   2.104   3.963
  378SOL    HW2 1284   2.017   2.188   4.001
  379SOL     OW 1285   2.500   0.864   3.833
  379SOL    HW1 1286   2.560   0.838   3.764
  379SOL    HW2 1287   2.419   0.887   3.788
  380SOL     OW 1288   1.222   1.919   3.947
  380SOL    HW1 1289   1.313   1.895   3.931
  380SOL    HW2 1290   1.178   1.836   3.966
  381SOL     OW 1291   2.068   2.508   3.962
  381SOL    HW1 1292   1.988   2.487   3.913
  381SOL    HW2 1293   2.037   2.563   4.034
  382SOL     OW 1294   1.411   3.369   1.912
  382SOL    HW1 1295   1.326   3.332   1.934
  382SOL    HW2 1296   1.408   3.378   1.817
  383SOL     OW 1297   1.202   3.107   2.379
  383SOL    HW1 1298   1.109   3.122   2.398
  383SOL    HW2 1299   1.202   3.064   2.294
  384SOL     OW 1300   2.727   4.227   2.481
  384SOL    HW1 1301   2.680   4.213   2.563
  384SOL    HW2 1302   2.659   4.226   2.414
  385SOL     OW 1303   2.298   3.406   2.491
  385SOL    HW1 1304   2.344   3.486   2.466
  385SOL    HW2 1305   2.235   3.435   2.558
  386SOL     OW 1306   2.943   3.332   1.996
  386SOL    HW1 1307   2.900   3.342   1.911
  386SOL    HW2 1308   2.908   3.250   2.031
  387SOL     OW 1309   1.873   3.858   2.733
  387SOL    HW1 1310   1.784   3.885   2.756
  387SOL    HW2 1311   1.924   3.939   2.735
  388SOL     OW 1312   2.040   3.497   3.602
  388SOL    HW1 1313   2.025   3.571   3.662
  388SOL    HW2 1314   2.057   3.538   3.517
  389SOL     OW 1315   1.858   3.735   2.423
  389SOL    HW1 1316   1.918   3.719   2.496
  389SOL    HW2 1317   1.784   3.782   2.462
  390SOL     OW 1318   1.885   3.868   3.607
  390SOL    HW1 1319   1.930   3.949   3.627
  390SOL    HW2 1320   1.804   3.895   3.564
  391SOL     OW 1321   1.615   3.125   3.306
  391SOL    HW1 1322   1.689   3.066   3.308
  391SOL    HW2 1323   1.538   3.068   3.315
  392SOL     OW 1324   2.764   3.161   2.493
  392SOL    HW1 1325   2.700   3.208   2.440
  392SOL    HW2 1326   2.793   3.224   2.558
  393SOL     OW 1327   1.459   4.400   2.306
  393SOL    HW1 1328   1.465   4.488   2.344
  393SOL    HW2 1329   1.459   4.414   2.211
  394SOL     OW 1330   2.310   4.056   3.468
  394SOL    HW1 1331   2.354   4.047   3.552
  394SOL    HW2 1332   2.252   3.980   3.463
  395SOL     OW 1333   1.389   4.141   2.319
  395SOL    HW1 1334   1.412   4.234   2.324
  395SOL    HW2 1335   1.344   4.123   2.402
  396SOL     OW 1336   1.386   3.817   2.669
  396SOL    HW1 1337   1.423   3.732   2.691
  396SOL    HW2 1338   1.309   3.826   2.726
  397SOL     OW 1339   1.810   4.501   3.283
  397SOL    HW1 1340   1.717   4.478   3.288
  397SOL    HW2 1341   1.811   4.596   3.284
  398SOL     OW 1342   1.726   3.720   1.941
  398SOL    HW1 1343   1.790   3.724   1.869
  398SOL    HW2 1344   1.774   3.753   2.017
  399SOL     OW 1345   2.792   2.806   3.303
  399SOL    HW1 1346   2.748   2.851   3.231
  399SOL    HW2 1347   2.763   2.853   3.381
  400SOL     OW 1348   1.309   3.372   2.355
  400SOL    HW1 1349   1.260   3.291   2.346
  400SOL    HW2 1350   1.259   3.423   2.419
  401SOL     OW 1351   3.009   4.491   2.149
  401SOL    HW1 1352   3.086   4.499   2.205
  401SOL    HW2 1353   3.010   4.571   2.095
  402SOL     OW 1354   1.089   4.280   1.879
  402SOL    HW1 1355   1.139   4.242   1.951
  402SOL    HW2 1356   1.121   4.370   1.873
  403SOL     OW 1357   2.886   3.654   2.417
  403SOL    HW1 1358   2.944   3.596   2.368
  403SOL    HW2 1359   2.843   3.707   2.350
  404SOL     OW 1360   2.818   3.821   2.203
  404SOL    HW1 1361   2.902   3.824   2.157
  404SOL    HW2 1362   2.825   3.890   2.269
  405SOL     OW 1363   1.274   3.503   3.435
  405SOL    HW1 1364   1.331   3.451   3.378
  405SOL    HW2 1365   1.190   3.506   3.388
  406SOL     OW 1366   1.792   4.107   2.503
  406SOL    HW1 1367   1.752   4.022   2.524
  406SOL    HW2 1368   1.763   4.125   2.414
  407SOL     OW 1369   1.995   2.721   2.277
  407SOL    HW1 1370   2.030   2.809   2.265
  407SOL    HW2 1371   1.901   2.733   2.285
  408SOL     OW 1372   2.662   3.728   1.989
  408SOL    HW1 1373   2.615   3.660   2.037
  408SOL    HW2 1374   2.729   3.759   2.050
  409SOL     OW 1375   2.318   4.510   3.395
  409SOL    HW1 1376   2.363   4.586   3.358
  409SOL    HW2 1377   2.368   4.435   3.365
  410SOL     OW 1378   1.513   2.965   3.596
  410SOL    HW1 1379   1.551   3.051   3.614
  410SOL    HW2 1380   1.420   2.975   3.618
  411SOL     OW 1381   2.593   4.142   2.705
  411SOL    HW1 1382   2.616   4.146   2.798
  411SOL    HW2 1383   2.613   4.052   2.679
  412SOL     OW 1384   2.807   4.469   2.374
  412SOL    HW1 1385   2.817   4.444   2.282
  412SOL    HW2 1386   2.790   4.386   2.420
  413SOL     OW 1387   1.767   3.456   2.045
  413SOL    HW1 1388   1.746   3.538   2.000
  413SOL    HW2 1389   1.702   3.450   2.116
  414SOL     OW 1390   2.460   3.076   2.738
  414SOL    HW1 1391   2.369   3.060   2.713
  414SOL    HW2 1392   2.485   2.999   2.788
  415SOL     OW 1393   2.760   4.386   2.092
  415SOL    HW1 1394   2.843   4.435   2.094
  415SOL    HW2 1395   2.758   4.346   2.005
  416SOL     OW 1396   1.964   3.326   3.289
  416SOL    HW1 1397   1.930   3.314   3.378
  416SOL    HW2 1398   1.917   3.261   3.237
  417SOL     OW 1399   2.580   3.190   3.475
  417SOL    HW1 1400   2.594   3.235   3.558
  417SOL    HW2 1401   2.628   3.108   3.483
  418SOL     OW 1402   2.119   3.625   3.359
  418SOL    HW1 1403   2.168   3.544   3.344
  418SOL    HW2 1404   2.091   3.652   3.271
  419SOL     OW 1405   2.222   3.397   2.199
  419SOL    HW1 1406   2.222   3.418   2.292
  419SOL    HW2 1407   2.137   3.355   2.183
  420SOL     OW 1408   1.241   3.528   2.577
  420SOL    HW1 1409   1.328   3.549   2.609
  420SOL    HW2 1410   1.198   3.614   2.567
  421SOL     OW 1411   1.303   4.588   3.371
  421SOL    HW1 1412   1.299   4.573   3.465
  421SOL    HW2 1413   1.236   4.530   3.334
  422SOL     OW 1414   2.050   3.076   1.992
  422SOL    HW1 1415   2.089   3.136   1.928
  422SOL    HW2 1416   2.048   2.991   1.947
  423SOL     OW 1417   2.874   3.295   3.611
  423SOL    HW1 1418   2.834   3.369   3.564
  423SOL    HW2 1419   2.920   3.246   3.542
  424SOL     OW 1420   2.569   3.847   2.340
  424SOL    HW1 1421   2.640   3.837   2.276
  424SOL    HW2 1422   2.511   3.913   2.301
  425SOL     OW 1423   1.705   2.900   2.684
  425SOL    HW1 1424   1.720   2.949   2.765
  425SOL    HW2 1425   1.702   2.967   2.615
  426SOL     OW 1426   2.143   4.131   2.248
  426SOL    HW1 1427   2.122   4.218   2.216
  426SOL    HW2 1428   2.132   4.136   2.343
  427SOL     OW 1429   1.534   4.525   2.648
  427SOL    HW1 1430   1.571   4.437   2.652
  427SOL    HW2 1431   1.606   4.583   2.674
  428SOL     OW 1432   2.976   3.796   2.657
  428SOL    HW1 1433   2.935   3.794   2.571
  428SOL    HW2 1434   2.920   3.740   2.711
  429SOL     OW 1435   2.393   4.262   3.309
  429SOL    HW1 1436   2.388   4.187   3.369
  429SOL    HW2 1437   2.379   4.223   3.223
  430SOL     OW 1438   1.469   3.656   2.016
  430SOL    HW1 1439   1.555   3.680   1.981
  430SOL    HW2 1440   1.454   3.567   1.986
  431SOL     OW 1441   2.673   3.471   2.492
  431SOL    HW1 1442   2.647   3.439   2.579
  431SOL    HW2 1443   2.742   3.535   2.511
  432SOL     OW 1444   1.641   3.985   3.530
  432SOL    HW1 1445   1.609   4.010   3.443
  432SOL    HW2 1446   1.562   3.967   3.581
  433SOL     OW 1447   2.272   4.522   1.988
  433SOL    HW1 1448   2.223   4.477   2.057
  433SOL    HW2 1449   2.296   4.451   1.927
  434SOL     OW 1450   1.364   3.011   3.328
  434SOL    HW1 1451   1.285   3.011   3.274
  434SOL    HW2 1452   1.367   2.923   3.366
  435SOL     OW 1453   2.778   4.076   1.884
  435SOL    HW1 1454   2.736   4.154   1.848
  435SOL    HW2 1455   2.728   4.003   1.848
  436SOL     OW 1456   1.646   4.448   2.088
  436SOL    HW1 1457   1.679   4.513   2.150
  436SOL    HW2 1458   1.721   4.428   2.032
  437SOL     OW 1459   2.592   2.838   2.220
  437SOL    HW1 1460   2.573   2.817   2.129
  437SOL    HW2 1461   2.688   2.841   2.225
  438SOL     OW 1462   2.110   4.377   2.673
  438SOL    HW1 1463   2.179   4.311   2.669
  438SOL    HW2 1464   2.050   4.353   2.602
  439SOL     OW 1465   1.568   3.417   2.230
  439SOL    HW1 1466   1.578   3.323   2.242
  439SOL    HW2 1467   1.476   3.434   2.249
  440SOL     OW 1468   2.702   2.954   3.519
  440SOL    HW1 1469   2.726   2.977   3.609
  440SOL    HW2 1470   2.634   2.887   3.529
  441SOL     OW 1471   1.787   2.829   1.889
  441SOL    HW1 1472   1.882   2.818   1.889
  441SOL    HW2 1473   1.758   2.785   1.809
  442SOL     OW 1474   1.938   3.001   3.551
  442SOL    HW1 1475   2.015   2.944   3.547
  442SOL    HW2 1476   1.901   2.986   3.638
  443SOL     OW 1477   2.510   3.345   3.276
  443SOL    HW1 1478   2.539   3.286   3.345
  443SOL    HW2 1479   2.578   3.412   3.271
  444SOL     OW 1480   1.978   4.105   2.710
  444SOL    HW1 1481   2.065   4.108   2.671
  444SOL    HW2 1482   1.918   4.114   2.635
  445SOL     OW 1483   2.087   3.223   2.684
  445SOL    HW1 1484   2.061   3.217   2.592
  445SOL    HW2 1485   2.129   3.138   2.702
  446SOL     OW 1486   1.729   2.781   2.265
  446SOL    HW1 1487   1.650   2.782   2.319
  446SOL    HW2 1488   1.727   2.863   2.216
  447SOL     OW 1489   2.578   3.899   1.787
  447SOL    HW1 1490   2.619   3.836   1.846
  447SOL    HW2 1491   2.502   3.932   1.836
  448SOL     OW 1492   1.505   2.792   1.968
  448SOL    HW1 1493   1.584   2.840   1.941
  448SOL    HW2 1494   1.538   2.712   2.009
  449SOL     OW 1495   2.108   2.975   2.245
  449SOL    HW1 1496   2.083   3.011   2.160
  449SOL    HW2 1497   2.204   2.981   2.246
  450SOL     OW 1498   2.243   3.399   3.307
  450SOL    HW1 1499   2.181   3.328   3.290
  450SOL    HW2 1500   2.329   3.360   3.288
  451SOL     OW 1501   2.400   4.308   2.572
  451SOL    HW1 1502   2.444   4.379   2.524
  451SOL    HW2 1503   2.468   4.273   2.630
  452SOL     OW 1504   1.627   3.864   2.484
  452SOL    HW1 1505   1.575   3.870   2.564
  452SOL    HW2 1506   1.569   3.824   2.420
  453SOL     OW 1507   2.480   4.511   2.394
  453SOL    HW1 1508   2.520   4.563   2.325
  453SOL    HW2 1509   2.457   4.574   2.462
  454SOL     OW 1510   2.181   3.289   1.849
  454SOL    HW1 1511   2.190   3.367   1.794
  454SOL    HW2 1512   2.254   3.294   1.910
  455SOL     OW 1513   2.001   3.171   2.424
  455SOL    HW1 1514   1.991   3.239   2.358
  455SOL    HW2 1515   2.040   3.097   2.377
  456SOL     OW 1516   2.179   2.793   2.510
  456SOL    HW1 1517   2.146   2.769   2.423
  456SOL    HW2 1518   2.157   2.719   2.566
  457SOL     OW 1519   2.654   3.889   2.618
  457SOL    HW1 1520   2.573   3.849   2.650
  457SOL    HW2 1521   2.652   3.875   2.523
  458SOL     OW 1522   2.639   3.301   2.727
  458SOL    HW1 1523   2.578   3.228   2.734
  458SOL    HW2 1524   2.721   3.267   2.764
  459SOL     OW 1525   3.017   3.527   2.175
  459SOL    HW1 1526   3.077   3.472   2.225
  459SOL    HW2 1527   2.991   3.472   2.100
  460SOL     OW 1528   1.658   4.145   1.950
  460SOL    HW1 1529   1.595   4.098   2.003
  460SOL    HW2 1530   1.635   4.124   1.860
  461SOL     OW 1531   2.850   3.993   2.405
  461SOL    HW1 1532   2.942   3.996   2.429
  461SOL    HW2 1533   2.812   4.072   2.443
  462SOL     OW 1534   2.574   3.307   1.874
  462SOL    HW1 1535   2.509   3.274   1.937
  462SOL    HW2 1536   2.650   3.250   1.887
  463SOL     OW 1537   1.714   2.994   2.095
  463SOL    HW1 1538   1.749   2.936   2.028
  463SOL    HW2 1539   1.690   3.074   2.048
  464SOL     OW 1540   2.955   3.916   3.351
  464SOL    HW1 1541   3.028   3.868   3.392
  464SOL    HW2 1542   2.949   3.998   3.401
  465SOL     OW 1543   2.783   4.369   3.441
  465SOL    HW1 1544   2.763   4.412   3.357
  465SOL    HW2 1545   2.868   4.328   3.427
  466SOL     OW 1546   2.159   3.834   3.520
  466SOL    HW1 1547   2.067   3.858   3.535
  466SOL    HW2 1548   2.155   3.763   3.455
  467SOL     OW 1549   1.886   3.780   2.154
  467SOL    HW1 1550   1.869   3.766   2.247
  467SOL    HW2 1551   1.965   3.729   2.136
  468SOL     OW 1552   1.495   3.807   2.253
  468SOL    HW1 1553   1.504   3.879   2.191
  468SOL    HW2 1554   1.493   3.729   2.199
  469SOL     OW 1555   1.758   3.337   2.709
  469SOL    HW1 1556   1.757   3.376   2.622
  469SOL    HW2 1557   1.850   3.317   2.726
  470SOL     OW 1558   2.420   4.042   2.228
  470SOL    HW1 1559   2.468   4.125   2.222
  470SOL    HW2 1560   2.328   4.066   2.217
  471SOL     OW 1561   2.778   3.354   2.265
  471SOL    HW1 1562   2.717   3.395   2.326
  471SOL    HW2 1563   2.806   3.425   2.207
  472SOL     OW 1564   1.612   3.467   3.420
  472SOL    HW1 1565   1.684   3.514   3.378
  472SOL    HW2 1566   1.653   3.387   3.453
  473SOL     OW 1567   2.757   3.494   3.463
  473SOL    HW1 1568   2.677   3.547   3.457
  473SOL    HW2 1569   2.818   3.535   3.403
  474SOL     OW 1570   2.161   2.843   3.526
  474SOL    HW1 1571   2.231   2.908   3.533
  474SOL    HW2 1572   2.206   2.763   3.499
  475SOL     OW 1573   1.670   2.751   3.533
  475SOL    HW1 1574   1.622   2.701   3.467
  475SOL    HW2 1575   1.615   2.829   3.548
  476SOL     OW 1576   2.544   3.575   2.727
  476SOL    HW1 1577   2.462   3.603   2.686
  476SOL    HW2 1578   2.525   3.488   2.762
  477SOL     OW 1579   2.374   3.232   2.046
  477SOL    HW1 1580   2.379   3.150   2.094
  477SOL    HW2 1581   2.328   3.293   2.105
  478SOL     OW 1582   2.900   3.678   3.640
  478SOL    HW1 1583   2.856   3.614   3.583
  478SOL    HW2 1584   2.839   3.692   3.712
  479SOL     OW 1585   1.501   2.791   2.408
  479SOL    HW1 1586   1.477   2.881   2.432
  479SOL    HW2 1587   1.518   2.747   2.491
  480SOL     OW 1588   2.803   3.104   2.162
  480SOL    HW1 1589   2.819   3.033   2.224
  480SOL    HW2 1590   2.793   3.182   2.216
  481SOL     OW 1591   2.177   3.474   2.728
  481SOL    HW1 1592   2.205   3.475   2.819
  481SOL    HW2 1593   2.145   3.385   2.714
  482SOL     OW 1594   2.148   4.286   3.487
  482SOL    HW1 1595   2.179   4.350   3.423
  482SOL    HW2 1596   2.192   4.205   3.462
  483SOL     OW 1597   3.045   4.316   3.343
  483SOL    HW1 1598   3.078   4.284   3.258
  483SOL    HW2 1599   3.118   4.303   3.403
  484SOL     OW 1600   1.535   3.664   3.597
  484SOL    HW1 1601   1.618   3.668   3.645
  484SOL    HW2 1602   1.546   3.590   3.537
  485SOL     OW 1603   2.680   3.025   1.937
  485SOL    HW1 1604   2.635   2.944   1.959
  485SOL    HW2 1605   2.730   3.046   2.016
  486SOL     OW 1606   2.465   3.548   1.813
  486SOL    HW1 1607   2.511   3.466   1.829
  486SOL    HW2 1608   2.520   3.595   1.751
  487SOL     OW 1609   2.227   4.084   2.594
  487SOL    HW1 1610   2.232   4.004   2.540
  487SOL    HW2 1611   2.296   4.141   2.558
  488SOL     OW 1612   1.489   3.566   2.720
  488SOL    HW1 1613   1.567   3.547   2.668
  488SOL    HW2 1614   1.477   3.488   2.774
  489SOL     OW 1615   1.490   3.195   2.721
  489SOL    HW1 1616   1.477   3.147   2.803
  489SOL    HW2 1617   1.581   3.225   2.726
  490SOL     OW 1618   2.305   3.126   3.456
  490SOL    HW1 1619   2.255   3.181   3.517
  490SOL    HW2 1620   2.391   3.168   3.451
  491SOL     OW 1621   2.373   2.919   3.293
  491SOL    HW1 1622   2.345   2.983   3.358
  491SOL    HW2 1623   2.354   2.960   3.209
  492SOL     OW 1624   1.176   4.013   1.965
  492SOL    HW1 1625   1.115   3.998   1.893
  492SOL    HW2 1626   1.182   3.929   2.010
  493SOL     OW 1627   1.279   4.451   2.714
  493SOL    HW1 1628   1.235   4.515   2.658
  493SOL    HW2 1629   1.372   4.474   2.709
  494SOL     OW 1630   1.668   4.280   2.683
  494SOL    HW1 1631   1.729   4.349   2.709
  494SOL    HW2 1632   1.716   4.229   2.618
  495SOL     OW 1633   1.354   3.233   3.531
  495SOL    HW1 1634   1.380   3.175   3.459
  495SOL    HW2 1635   1.310   3.306   3.489
  496SOL     OW 1636   2.545   3.661   3.429
  496SOL    HW1 1637   2.578   3.751   3.433
  496SOL    HW2 1638   2.485   3.660   3.355
  497SOL     OW 1639   1.978   3.295   2.146
  497SOL    HW1 1640   1.982   3.217   2.091
  497SOL    HW2 1641   1.904   3.345   2.111
  498SOL     OW 1642   1.414   4.277   3.519
  498SOL    HW1 1643   1.415   4.307   3.609
  498SOL    HW2 1644   1.433   4.183   3.525
  499SOL     OW 1645   1.642   3.220   1.964
  499SOL    HW1 1646   1.698   3.296   1.980
  499SOL    HW2 1647   1.554   3.257   1.954
  500SOL     OW 1648   1.339   3.800   3.280
  500SOL    HW1 1649   1.330   3.777   3.373
  500SOL    HW2 1650   1.341   3.717   3.234
  501SOL     OW 1651   2.469   3.554   2.092
  501SOL    HW1 1652   2.382   3.575   2.125
  501SOL    HW2 1653   2.461   3.557   1.997
  502SOL     OW 1654   1.844   4.398   3.534
  502SOL    HW1 1655   1.777   4.466   3.546
  502SOL    HW2 1656   1.884   4.418   3.450
  503SOL     OW 1657   2.070   2.819   1.882
  503SOL    HW1 1658   2.144   2.838   1.825
  503SOL    HW2 1659   2.106   2.762   1.951
  504SOL     OW 1660   2.870   2.866   2.283
  504SOL    HW1 1661   2.953   2.861   2.234
  504SOL    HW2 1662   2.874   2.792   2.343
  505SOL     OW 1663   2.553   4.289   2.248
  505SOL    HW1 1664   2.624   4.317   2.191
  505SOL    HW2 1665   2.528   4.368   2.295
  506SOL     OW 1666   1.274   4.532   3.640
  506SOL    HW1 1667   1.259   4.442   3.669
  506SOL    HW2 1668   1.348   4.562   3.693
  507SOL     OW 1669   2.445   3.631   2.443
  507SOL    HW1 1670   2.519   3.572   2.453
  507SOL    HW2 1671   2.482   3.709   2.402
  508SOL     OW 1672   1.994   3.964   3.302
  508SOL    HW1 1673   1.968   4.022   3.374
  508SOL    HW2 1674   1.997   4.022   3.225
  509SOL     OW 1675   1.848   4.338   1.922
  509SOL    HW1 1676   1.825   4.355   1.831
  509SOL    HW2 1677   1.799   4.258   1.944
  510SOL     OW 1678   3.011   2.913   2.722
  510SOL    HW1 1679   3.038   2.823   2.708
  510SOL    HW2 1680   2.917   2.914   2.702
  511SOL     OW 1681   1.413   3.020   2.518
  511SOL    HW1 1682   1.346   3.067   2.469
  511SOL    HW2 1683   1.439   3.080   2.587
  512SOL     OW 1684   2.358   4.339   1.780
  512SOL    HW1 1685   2.350   4.273   1.848
  512SOL    HW2 1686   2.342   4.292   1.698
  513SOL     OW 1687   2.110   3.629   2.088
  513SOL    HW1 1688   2.167   3.667   2.021
  513SOL    HW2 1689   2.146   3.542   2.104
  514SOL     OW 1690   2.646   4.295   1.774
  514SOL    HW1 1691   2.556   4.325   1.789
  514SOL    HW2 1692   2.699   4.375   1.781
  515SOL     OW 1693   1.451   4.047   3.327
  515SOL    HW1 1694   1.521   4.088   3.276
  515SOL    HW2 1695   1.432   3.966   3.279
  516SOL     OW 1696   2.229   3.833   2.478
  516SOL    HW1 1697   2.169   3.788   2.536
  516SOL    HW2 1698   2.301   3.771   2.463
  517SOL     OW 1699   2.206   2.972   2.711
  517SOL    HW1 1700   2.204   2.925   2.628
  517SOL    HW2 1701   2.175   2.909   2.775
  518SOL     OW 1702   1.815   4.273   2.236
  518SOL    HW1 1703   1.804   4.186   2.198
  518SOL    HW2 1704   1.734   4.319   2.214
  519SOL     OW 1705   1.432   4.032   2.063
  519SOL    HW1 1706   1.347   4.031   2.019
  519SOL    HW2 1707   1.415   4.068   2.150
  520SOL     OW 1708   1.284   3.757   3.553
  520SOL    HW1 1709   1.244   3.672   3.533
  520SOL    HW2 1710   1.374   3.735   3.579
  521SOL     OW 1711   1.835   2.942   3.306
  521SOL    HW1 1712   1.918   2.925   3.261
  521SOL    HW2 1713   1.859   2.960   3.396
  522SOL     OW 1714   1.246   3.049   1.783
  522SOL    HW1 1715   1.159   3.028   1.751
  522SOL    HW2 1716   1.233   3.124   1.842
  523SOL     OW 1717   1.260   2.994   2.116
  523SOL    HW1 1718   1.242   2.980   2.023
  523SOL    HW2 1719   1.301   2.912   2.145
  524SOL     OW 1720   2.339   4.007   1.892
  524SOL    HW1 1721   2.250   4.032   1.867
  524SOL    HW2 1722   2.361   4.065   1.965
  525SOL     OW 1723   1.822   3.572   3.293
  525SOL    HW1 1724   1.855   3.641   3.235
  525SOL    HW2 1725   1.886   3.501   3.284
  526SOL     OW 1726   2.659   4.479   2.712
  526SOL    HW1 1727   2.685   4.540   2.644
  526SOL    HW2 1728   2.735   4.474   2.770
  527SOL     OW 1729   1.866   3.282   3.533
  527SOL    HW1 1730   1.920   3.342   3.584
  527SOL    HW2 1731   1.896   3.195   3.558
  528SOL     OW 1732   2.643   3.915   3.407
  528SOL    HW1 1733   2.629   3.935   3.499
  528SOL    HW2 1734   2.734   3.942   3.390
  529SOL     OW 1735   1.545   4.452   3.344
  529SOL    HW1 1736   1.466   4.503   3.330
  529SOL    HW2 1737   1.515   4.374   3.391
  530SOL     OW 1738   2.385   3.027   2.232
  530SOL    HW1 1739   2.452   2.959   2.225
  530SOL    HW2 1740   2.404   3.070   2.316
  531SOL     OW 1741   1.791   3.453   2.456
  531SOL    HW1 1742   1.835   3.530   2.420
  531SOL    HW2 1743   1.710   3.446   2.407
  532SOL     OW 1744   2.964   3.018   3.464
  532SOL    HW1 1745   2.951   3.086   3.398
  532SOL    HW2 1746   2.877   2.979   3.477
  533SOL     OW 1747   2.903   3.653   3.307
  533SOL    HW1 1748   2.907   3.745   3.333
  533SOL    HW2 1749   2.914   3.655   3.212
  534SOL     OW 1750   2.077   4.088   1.822
  534SOL    HW1 1751   2.024   4.068   1.900
  534SOL    HW2 1752   2.035   4.165   1.784
  535SOL     OW 1753   1.831   4.500   2.705
  535SOL    HW1 1754   1.814   4.594   2.693
  535SOL    HW2 1755   1.927   4.494   2.708
  536SOL     OW 1756   2.050   3.691   2.620
  536SOL    HW1 1757   2.082   3.612   2.664
  536SOL    HW2 1758   1.992   3.732   2.683
  537SOL     OW 1759   2.246   3.706   1.863
  537SOL    HW1 1760   2.268   3.793   1.832
  537SOL    HW2 1761   2.320   3.651   1.836
  538SOL     OW 1762   3.015   4.284   2.637
  538SOL    HW1 1763   2.944   4.268   2.574
  538SOL    HW2 1764   3.056   4.198   2.649
  539SOL     OW 1765   1.393   4.013   3.639
  539SOL    HW1 1766   1.338   3.937   3.621
  539SOL    HW2 1767   1.389   4.024   3.734
  540SOL     OW 1768   1.220   3.914   2.402
  540SOL    HW1 1769   1.240   3.900   2.495
  540SOL    HW2 1770   1.301   3.892   2.356
  541SOL     OW 1771   1.885   4.130   3.493
  541SOL    HW1 1772   1.794   4.101   3.481
  541SOL    HW2 1773   1.878   4.224   3.509
  542SOL     OW 1774   1.568   3.148   2.278
  542SOL    HW1 1775   1.608   3.089   2.213
  542SOL    HW2 1776   1.575   3.101   2.361
  543SOL     OW 1777   1.988   4.296   2.445
  543SOL    HW1 1778   1.951   4.330   2.364
  543SOL    HW2 1779   1.926   4.229   2.474
  544SOL     OW 1780   1.955   4.037   2.068
  544SOL    HW1 1781   1.916   3.955   2.100
  544SOL    HW2 1782   2.023   4.058   2.132
  545SOL     OW 1783   2.515   2.800   1.963
  545SOL    HW1 1784   2.561   2.749   1.896
  545SOL    HW2 1785   2.428   2.759   1.968
  546SOL     OW 1786   2.452   3.137   2.472
  546SOL    HW1 1787   2.445   3.224   2.433
  546SOL    HW2 1788   2.450   3.154   2.567
  547SOL     OW 1789   2.749   2.954   2.669
  547SOL    HW1 1790   2.658   2.970   2.696
  547SOL    HW2 1791   2.763   3.014   2.596
  548SOL     OW 1792   1.223   3.775   2.080
  548SOL    HW1 1793   1.311   3.743   2.059
  548SOL    HW2 1794   1.177   3.698   2.113
  549SOL     OW 1795   2.066   4.364   2.096
  549SOL    HW1 1796   1.985   4.346   2.047
  549SOL    HW2 1797   2.039   4.426   2.164
  550SOL     OW 1798   1.404   3.364   3.773
  550SOL    HW1 1799   1.322   3.331   3.811
  550SOL    HW2 1800   1.401   3.335   3.682
  551SOL     OW 1801   2.912   3.319   3.880
  551SOL    HW1 1802   2.904   3.311   3.785
  551SOL    HW2 1803   2.895   3.231   3.912
  552SOL     OW 1804   1.484   4.386   4.161
  552SOL    HW1 1805   1.470   4.436   4.242
  552SOL    HW2 1806   1.442   4.438   4.093
  553SOL     OW 1807   1.379   4.141   4.178
  553SOL    HW1 1808   1.413   4.230   4.171
  553SOL    HW2 1809   1.342   4.136   4.266
  554SOL     OW 1810   1.752   3.702   3.781
  554SOL    HW1 1811   1.800   3.748   3.713
  554SOL    HW2 1812   1.790   3.733   3.863
  555SOL     OW 1813   3.034   4.488   3.959
  555SOL    HW1 1814   3.064   4.491   4.050
  555SOL    HW2 1815   3.035   4.579   3.930
  556SOL     OW 1816   1.113   4.298   3.740
  556SOL    HW1 1817   1.159   4.233   3.794
  556SOL    HW2 1818   1.090   4.368   3.801
  557SOL     OW 1819   2.893   3.567   4.225
  557SOL    HW1 1820   2.969   3.600   4.273
  557SOL    HW2 1821   2.837   3.644   4.212
  558SOL     OW 1822   2.838   3.830   4.071
  558SOL    HW1 1823   2.921   3.816   4.027
  558SOL    HW2 1824   2.847   3.917   4.111
  559SOL     OW 1825   1.977   2.734   4.104
  559SOL    HW1 1826   2.028   2.808   4.135
  559SOL    HW2 1827   1.893   2.741   4.151
  560SOL     OW 1828   2.702   3.711   3.849
  560SOL    HW1 1829   2.637   3.650   3.884
  560SOL    HW2 1830   2.742   3.751   3.926
  561SOL     OW 1831   1.760   3.446   3.908
  561SOL    HW1 1832   1.755   3.527   3.858
  561SOL    HW2 1833   1.697   3.457   3.979
  562SOL     OW 1834   2.742   4.387   3.939
  562SOL    HW1 1835   2.827   4.431   3.938
  562SOL    HW2 1836   2.724   4.367   3.847
  563SOL     OW 1837   2.037   3.087   3.824
  563SOL    HW1 1838   2.098   3.123   3.760
  563SOL    HW2 1839   2.075   3.002   3.848
  564SOL     OW 1840   1.483   3.654   3.892
  564SOL    HW1 1841   1.559   3.687   3.845
  564SOL    HW2 1842   1.456   3.577   3.843
  565SOL     OW 1843   2.307   4.479   3.870
  565SOL    HW1 1844   2.224   4.448   3.905
  565SOL    HW2 1845   2.318   4.429   3.789
  566SOL     OW 1846   2.790   4.081   3.748
  566SOL    HW1 1847   2.744   4.164   3.735
  566SOL    HW2 1848   2.726   4.014   3.723
  567SOL     OW 1849   1.656   4.483   3.938
  567SOL    HW1 1850   1.683   4.488   4.030
  567SOL    HW2 1851   1.728   4.439   3.894
  568SOL     OW 1852   2.595   2.866   4.077
  568SOL    HW1 1853   2.575   2.818   3.997
  568SOL    HW2 1854   2.681   2.833   4.103
  569SOL     OW 1855   1.578   3.426   4.118
  569SOL    HW1 1856   1.582   3.331   4.127
  569SOL    HW2 1857   1.486   3.445   4.099
  570SOL     OW 1858   1.807   2.844   3.754
  570SOL    HW1 1859   1.880   2.785   3.771
  570SOL    HW2 1860   1.761   2.805   3.679
  571SOL     OW 1861   2.591   3.906   3.679
  571SOL    HW1 1862   2.617   3.833   3.735
  571SOL    HW2 1863   2.507   3.935   3.713
  572SOL     OW 1864   1.460   2.774   3.819
  572SOL    HW1 1865   1.518   2.840   3.781
  572SOL    HW2 1866   1.520   2.713   3.862
  573SOL     OW 1867   2.100   2.983   4.165
  573SOL    HW1 1868   2.054   3.018   4.088
  573SOL    HW2 1869   2.192   2.986   4.141
  574SOL     OW 1870   1.665   3.874   4.338
  574SOL    HW1 1871   1.627   3.877   4.426
  574SOL    HW2 1872   1.602   3.822   4.288
  575SOL     OW 1873   2.203   3.271   3.664
  575SOL    HW1 1874   2.154   3.352   3.650
  575SOL    HW2 1875   2.251   3.287   3.745
  576SOL     OW 1876   3.056   3.517   3.998
  576SOL    HW1 1877   3.015   3.510   4.084
  576SOL    HW2 1878   3.004   3.458   3.943
  577SOL     OW 1879   1.648   4.147   3.791
  577SOL    HW1 1880   1.600   4.094   3.855
  577SOL    HW2 1881   1.648   4.094   3.711
  578SOL     OW 1882   2.571   3.294   3.727
  578SOL    HW1 1883   2.508   3.278   3.798
  578SOL    HW2 1884   2.656   3.271   3.764
  579SOL     OW 1885   1.701   2.985   3.969
  579SOL    HW1 1886   1.744   2.925   3.908
  579SOL    HW2 1887   1.680   3.062   3.915
  580SOL     OW 1888   1.886   3.779   4.010
  580SOL    HW1 1889   1.869   3.769   4.104
  580SOL    HW2 1890   1.962   3.723   3.994
  581SOL     OW 1891   1.493   3.789   4.135
  581SOL    HW1 1892   1.524   3.873   4.102
  581SOL    HW2 1893   1.495   3.730   4.059
  582SOL     OW 1894   2.440   4.038   4.105
  582SOL    HW1 1895   2.501   4.109   4.121
  582SOL    HW2 1896   2.369   4.078   4.054
  583SOL     OW 1897   2.734   3.360   4.120
  583SOL    HW1 1898   2.768   3.425   4.182
  583SOL    HW2 1899   2.777   3.382   4.037
  584SOL     OW 1900   2.369   3.244   3.912
  584SOL    HW1 1901   2.375   3.158   3.956
  584SOL    HW2 1902   2.330   3.302   3.977
  585SOL     OW 1903   2.812   3.102   4.029
  585SOL    HW1 1904   2.817   3.022   4.082
  585SOL    HW2 1905   2.761   3.163   4.083
  586SOL     OW 1906   2.703   3.018   3.788
  586SOL    HW1 1907   2.648   2.942   3.808
  586SOL    HW2 1908   2.748   3.038   3.870
  587SOL     OW 1909   2.467   3.547   3.672
  587SOL    HW1 1910   2.507   3.460   3.675
  587SOL    HW2 1911   2.498   3.585   3.590
  588SOL     OW 1912   1.156   4.015   3.825
  588SOL    HW1 1913   1.084   3.994   3.766
  588SOL    HW2 1914   1.174   3.932   3.870
  589SOL     OW 1915   2.014   3.338   3.935
  589SOL    HW1 1916   2.012   3.245   3.912
  589SOL    HW2 1917   1.921   3.363   3.939
  590SOL     OW 1918   1.633   3.210   3.826
  590SOL    HW1 1919   1.694   3.281   3.845
  590SOL    HW2 1920   1.548   3.254   3.817
  591SOL     OW 1921   2.483   3.564   3.952
  591SOL    HW1 1922   2.411   3.614   3.992
  591SOL    HW2 1923   2.458   3.555   3.860
  592SOL     OW 1924   2.882   2.845   4.138
  592SOL    HW1 1925   2.966   2.865   4.096
  592SOL    HW2 1926   2.889   2.753   4.163
  593SOL     OW 1927   2.573   4.288   4.132
  593SOL    HW1 1928   2.625   4.320   4.059
  593SOL    HW2 1929   2.527   4.366   4.165
  594SOL     OW 1930   1.848   4.334   3.800
  594SOL    HW1 1931   1.854   4.354   3.706
  594SOL    HW2 1932   1.787   4.261   3.805
  595SOL     OW 1933   2.365   4.318   3.660
  595SOL    HW1 1934   2.363   4.225   3.682
  595SOL    HW2 1935   2.296   4.330   3.596
  596SOL     OW 1936   2.097   3.610   3.948
  596SOL    HW1 1937   2.151   3.641   3.876
  596SOL    HW2 1938   2.082   3.517   3.928
  597SOL     OW 1939   2.646   4.295   3.677
  597SOL    HW1 1940   2.556   4.326   3.668
  597SOL    HW2 1941   2.689   4.323   3.597
  598SOL     OW 1942   1.804   4.280   4.113
  598SOL    HW1 1943   1.830   4.199   4.070
  598SOL    HW2 1944   1.709   4.284   4.101
  599SOL     OW 1945   1.414   4.041   3.918
  599SOL    HW1 1946   1.320   4.049   3.902
  599SOL    HW2 1947   1.423   4.060   4.012
  600SOL     OW 1948   1.248   3.025   3.666
  600SOL    HW1 1949   1.156   3.021   3.638
  600SOL    HW2 1950   1.278   3.111   3.638
  601SOL     OW 1951   1.273   2.966   3.946
  601SOL    HW1 1952   1.261   2.989   3.854
  601SOL    HW2 1953   1.347   2.905   3.946
  602SOL     OW 1954   2.348   4.039   3.744
  602SOL    HW1 1955   2.254   4.028   3.728
  602SOL    HW2 1956   2.353   4.080   3.830
  603SOL     OW 1957   2.381   3.034   4.106
  603SOL    HW1 1958   2.451   2.969   4.100
  603SOL    HW2 1959   2.413   3.097   4.170
  604SOL     OW 1960   1.791   3.463   4.309
  604SOL    HW1 1961   1.854   3.514   4.259
  604SOL    HW2 1962   1.715   3.455   4.252
  605SOL     OW 1963   2.077   4.087   3.704
  605SOL    HW1 1964   2.015   4.102   3.775
  605SOL    HW2 1965   2.055   4.153   3.638
  606SOL     OW 1966   2.247   3.695   3.740
  606SOL    HW1 1967   2.224   3.756   3.669
  606SOL    HW2 1968   2.323   3.648   3.707
  607SOL     OW 1969   1.585   3.156   4.150
  607SOL    HW1 1970   1.628   3.093   4.091
  607SOL    HW2 1971   1.613   3.130   4.237
  608SOL     OW 1972   1.937   4.052   3.948
  608SOL    HW1 1973   1.900   3.964   3.960
  608SOL    HW2 1974   2.018   4.050   3.999
  609SOL     OW 1975   2.529   2.771   3.837
  609SOL    HW1 1976   2.572   2.739   3.757
  609SOL    HW2 1977   2.447   2.722   3.841
  610SOL     OW 1978   1.223   3.781   3.945
  610SOL    HW1 1979   1.314   3.756   3.932
  610SOL    HW2 1980   1.178   3.699   3.966
  611SOL     OW 1981   2.069   4.371   3.961
  611SOL    HW1 1982   1.990   4.348   3.912
  611SOL    HW2 1983   2.038   4.426   4.032
  612SOL     OW 1984   1.199   4.971   2.376
  612SOL    HW1 1985   1.106   4.978   2.399
  612SOL    HW2 1986   1.199   4.925   2.292
  613SOL     OW 1987   2.930   5.157   2.008
  613SOL    HW1 1988   2.901   5.098   1.939
  613SOL    HW2 1989   2.919   5.107   2.089
  614SOL     OW 1990   1.606   4.993   3.312
  614SOL    HW1 1991   1.681   4.935   3.303
  614SOL    HW2 1992   1.530   4.935   3.303
  615SOL     OW 1993   2.758   4.996   2.508
  615SOL    HW1 1994   2.688   5.051   2.471
  615SOL    HW2 1995   2.797   5.051   2.577
  616SOL     OW 1996   2.779   4.665   3.290
  616SOL    HW1 1997   2.754   4.724   3.219
  616SOL    HW2 1998   2.759   4.713   3.370
  617SOL     OW 1999   1.318   5.225   2.346
  617SOL    HW1 2000   1.273   5.141   2.352
  617SOL    HW2 2001   1.259   5.286   2.391
  618SOL     OW 2002   1.990   4.573   2.276
  618SOL    HW1 2003   2.030   4.660   2.269
  618SOL    HW2 2004   1.897   4.590   2.284
  619SOL     OW 2005   1.513   4.828   3.603
  619SOL    HW1 2006   1.550   4.915   3.588
  619SOL    HW2 2007   1.420   4.843   3.617
  620SOL     OW 2008   2.450   4.931   2.739
  620SOL    HW1 2009   2.355   4.930   2.724
  620SOL    HW2 2010   2.472   4.840   2.760
  621SOL     OW 2011   2.626   5.067   3.451
  621SOL    HW1 2012   2.606   5.096   3.540
  621SOL    HW2 2013   2.637   4.972   3.459
  622SOL     OW 2014   2.058   4.932   1.996
  622SOL    HW1 2015   2.088   4.982   1.920
  622SOL    HW2 2016   2.045   4.843   1.963
  623SOL     OW 2017   2.884   5.196   3.578
  623SOL    HW1 2018   2.847   5.252   3.511
  623SOL    HW2 2019   2.920   5.121   3.530
  624SOL     OW 2020   1.718   4.755   2.685
  624SOL    HW1 2021   1.712   4.807   2.765
  624SOL    HW2 2022   1.702   4.818   2.614
  625SOL     OW 2023   1.372   4.855   3.317
  625SOL    HW1 2024   1.284   4.892   3.315
  625SOL    HW2 2025   1.359   4.763   3.342
  626SOL     OW 2026   2.588   4.696   2.221
  626SOL    HW1 2027   2.569   4.676   2.130
  626SOL    HW2 2028   2.684   4.700   2.226
  627SOL     OW 2029   2.707   4.808   3.509
  627SOL    HW1 2030   2.728   4.828   3.600
  627SOL    HW2 2031   2.624   4.760   3.513
  628SOL     OW 2032   1.784   4.692   1.884
  628SOL    HW1 2033   1.878   4.677   1.885
  628SOL    HW2 2034   1.752   4.643   1.808
  629SOL     OW 2035   1.948   4.866   3.535
  629SOL    HW1 2036   2.021   4.805   3.544
  629SOL    HW2 2037   1.911   4.872   3.624
  630SOL     OW 2038   2.473   5.217   3.293
  630SOL    HW1 2039   2.532   5.161   3.345
  630SOL    HW2 2040   2.509   5.305   3.303
  631SOL     OW 2041   1.728   4.645   2.261
  631SOL    HW1 2042   1.650   4.649   2.318
  631SOL    HW2 2043   1.728   4.729   2.216
  632SOL     OW 2044   1.507   4.659   1.967
  632SOL    HW1 2045   1.589   4.698   1.935
  632SOL    HW2 2046   1.534   4.578   2.010
  633SOL     OW 2047   2.102   4.827   2.250
  633SOL    HW1 2048   2.078   4.875   2.171
  633SOL    HW2 2049   2.196   4.841   2.260
  634SOL     OW 2050   2.137   4.667   2.506
  634SOL    HW1 2051   2.116   4.611   2.432
  634SOL    HW2 2052   2.186   4.610   2.566
  635SOL     OW 2053   2.611   5.151   2.719
  635SOL    HW1 2054   2.574   5.067   2.746
  635SOL    HW2 2055   2.693   5.158   2.768
  636SOL     OW 2056   1.727   4.865   2.091
  636SOL    HW1 2057   1.751   4.803   2.022
  636SOL    HW2 2058   1.706   4.946   2.045
  637SOL     OW 2059   1.751   5.178   2.710
  637SOL    HW1 2060   1.747   5.229   2.629
  637SOL    HW2 2061   1.839   5.191   2.743
  638SOL     OW 2062   2.179   4.715   3.531
  638SOL    HW1 2063   2.236   4.755   3.466
  638SOL    HW2 2064   2.202   4.622   3.530
  639SOL     OW 2065   1.667   4.613   3.534
  639SOL    HW1 2066   1.623   4.567   3.462
  639SOL    HW2 2067   1.613   4.691   3.549
  640SOL     OW 2068   1.502   4.653   2.411
  640SOL    HW1 2069   1.473   4.742   2.431
  640SOL    HW2 2070   1.516   4.612   2.497
  641SOL     OW 2071   2.784   4.967   2.173
  641SOL    HW1 2072   2.813   4.885   2.215
  641SOL    HW2 2073   2.803   5.035   2.238
  642SOL     OW 2074   2.698   4.855   1.932
  642SOL    HW1 2075   2.632   4.789   1.953
  642SOL    HW2 2076   2.725   4.889   2.018
  643SOL     OW 2077   1.489   5.067   2.723
  643SOL    HW1 2078   1.473   5.018   2.803
  643SOL    HW2 2079   1.579   5.098   2.731
  644SOL     OW 2080   2.365   4.783   3.303
  644SOL    HW1 2081   2.329   4.866   3.333
  644SOL    HW2 2082   2.373   4.792   3.208
  645SOL     OW 2083   1.350   5.094   3.506
  645SOL    HW1 2084   1.420   5.053   3.454
  645SOL    HW2 2085   1.337   5.180   3.466
  646SOL     OW 2086   1.967   5.189   2.060
  646SOL    HW1 2087   1.993   5.096   2.060
  646SOL    HW2 2088   1.890   5.192   2.117
  647SOL     OW 2089   2.068   4.677   1.886
  647SOL    HW1 2090   2.136   4.654   1.822
  647SOL    HW2 2091   2.095   4.634   1.967
  648SOL     OW 2092   2.877   4.730   2.277
  648SOL    HW1 2093   2.963   4.723   2.234
  648SOL    HW2 2094   2.874   4.655   2.336
  649SOL     OW 2095   3.024   4.790   2.726
  649SOL    HW1 2096   3.067   4.704   2.725
  649SOL    HW2 2097   2.933   4.771   2.703
  650SOL     OW 2098   1.394   4.874   2.532
  650SOL    HW1 2099   1.337   4.924   2.473
  650SOL    HW2 2100   1.436   4.940   2.586
  651SOL     OW 2101   2.190   4.849   2.702
  651SOL    HW1 2102   2.179   4.814   2.613
  651SOL    HW2 2103   2.200   4.771   2.757
  652SOL     OW 2104   1.832   4.785   3.301
  652SOL    HW1 2105   1.914   4.785   3.251
  652SOL    HW2 2106   1.858   4.810   3.390
  653SOL     OW 2107   1.249   4.921   1.784
  653SOL    HW1 2108   1.163   4.896   1.751
  653SOL    HW2 2109   1.232   4.994   1.843
  654SOL     OW 2110   1.260   4.851   2.113
  654SOL    HW1 2111   1.237   4.833   2.022
  654SOL    HW2 2112   1.309   4.774   2.141
  655SOL     OW 2113   1.851   5.152   3.538
  655SOL    HW1 2114   1.929   5.206   3.529
  655SOL    HW2 2115   1.881   5.063   3.520
  656SOL     OW 2116   2.377   4.891   2.239
  656SOL    HW1 2117   2.446   4.826   2.224
  656SOL    HW2 2118   2.401   4.932   2.322
  657SOL     OW 2119   1.792   5.328   2.463
  657SOL    HW1 2120   1.807   5.378   2.383
  657SOL    HW2 2121   1.699   5.305   2.460
  658SOL     OW 2122   2.966   4.874   3.467
  658SOL    HW1 2123   2.955   4.941   3.399
  658SOL    HW2 2124   2.879   4.835   3.476
  659SOL     OW 2125   1.553   4.995   2.264
  659SOL    HW1 2126   1.611   4.940   2.212
  659SOL    HW2 2127   1.581   4.980   2.355
  660SOL     OW 2128   2.508   4.658   1.964
  660SOL    HW1 2129   2.556   4.610   1.897
  660SOL    HW2 2130   2.424   4.614   1.970
  661SOL     OW 2131   2.457   5.007   2.476
  661SOL    HW1 2132   2.429   5.095   2.453
  661SOL    HW2 2133   2.458   5.005   2.571
  662SOL     OW 2134   2.753   4.778   2.668
  662SOL    HW1 2135   2.692   4.820   2.730
  662SOL    HW2 2136   2.770   4.845   2.602
  663SOL     OW 2137   2.338   5.322   4.354
  663SOL    HW1 2138   2.339   5.418   4.355
  663SOL    HW2 2139   2.247   5.299   4.375
  664SOL     OW 2140   2.932   5.156   3.871
  664SOL    HW1 2141   2.920   5.118   3.784
  664SOL    HW2 2142   2.901   5.088   3.931
  665SOL     OW 2143   1.978   4.595   4.103
  665SOL    HW1 2144   2.029   4.668   4.137
  665SOL    HW2 2145   1.896   4.598   4.152
  666SOL     OW 2146   2.024   4.927   3.815
  666SOL    HW1 2147   2.097   4.982   3.788
  666SOL    HW2 2148   2.065   4.846   3.846
  667SOL     OW 2149   2.586   4.718   4.075
  667SOL    HW1 2150   2.571   4.679   3.989
  667SOL    HW2 2151   2.676   4.694   4.097
  668SOL     OW 2152   1.519   5.274   4.150
  668SOL    HW1 2153   1.552   5.185   4.139
  668SOL    HW2 2154   1.483   5.298   4.065
  669SOL     OW 2155   1.803   4.704   3.754
  669SOL    HW1 2156   1.878   4.646   3.768
  669SOL    HW2 2157   1.759   4.668   3.677
  670SOL     OW 2158   1.459   4.636   3.818
  670SOL    HW1 2159   1.514   4.700   3.773
  670SOL    HW2 2160   1.522   4.577   3.861
  671SOL     OW 2161   2.096   4.842   4.169
  671SOL    HW1 2162   2.058   4.870   4.086
  671SOL    HW2 2163   2.191   4.849   4.156
  672SOL     OW 2164   1.711   4.858   3.963
  672SOL    HW1 2165   1.746   4.794   3.900
  672SOL    HW2 2166   1.694   4.936   3.911
  673SOL     OW 2167   2.798   4.962   4.031
  673SOL    HW1 2168   2.814   4.879   4.077
  673SOL    HW2 2169   2.795   5.027   4.102
  674SOL     OW 2170   2.726   4.858   3.788
  674SOL    HW1 2171   2.658   4.792   3.803
  674SOL    HW2 2172   2.750   4.888   3.876
  675SOL     OW 2173   2.513   5.416   3.730
  675SOL    HW1 2174   2.531   5.324   3.709
  675SOL    HW2 2175   2.473   5.451   3.650
  676SOL     OW 2176   1.993   5.176   3.922
  676SOL    HW1 2177   1.967   5.088   3.896
  676SOL    HW2 2178   1.915   5.212   3.964
  677SOL     OW 2179   2.880   4.710   4.131
  677SOL    HW1 2180   2.968   4.727   4.096
  677SOL    HW2 2181   2.884   4.620   4.162
  678SOL     OW 2182   1.249   4.897   3.661
  678SOL    HW1 2183   1.156   4.891   3.638
  678SOL    HW2 2184   1.277   4.980   3.622
  679SOL     OW 2185   1.280   4.834   3.943
  679SOL    HW1 2186   1.263   4.851   3.851
  679SOL    HW2 2187   1.346   4.765   3.944
  680SOL     OW 2188   2.371   4.876   4.137
  680SOL    HW1 2189   2.438   4.812   4.113
  680SOL    HW2 2190   2.420   4.949   4.174
  681SOL     OW 2191   1.587   5.010   4.148
  681SOL    HW1 2192   1.632   4.951   4.088
  681SOL    HW2 2193   1.615   4.982   4.235
  682SOL     OW 2194   2.519   4.647   3.825
  682SOL    HW1 2195   2.569   4.607   3.754
  682SOL    HW2 2196   2.443   4.589   3.836
  683SOL     OW 2197   3.261   1.494   1.911
  683SOL    HW1 2198   3.170   1.471   1.929
  683SOL    HW2 2199   3.262   1.519   1.819
  684SOL     OW 2200   3.026   1.257   2.403
  684SOL    HW1 2201   2.937   1.271   2.434
  684SOL    HW2 2202   3.020   1.181   2.346
  685SOL     OW 2203   4.578   2.375   2.479
  685SOL    HW1 2204   4.543   2.342   2.562
  685SOL    HW2 2205   4.516   2.345   2.413
  686SOL     OW 2206   4.162   1.547   2.497
  686SOL    HW1 2207   4.216   1.622   2.471
  686SOL    HW2 2208   4.084   1.587   2.537
  687SOL     OW 2209   4.789   1.441   1.997
  687SOL    HW1 2210   4.725   1.450   1.927
  687SOL    HW2 2211   4.752   1.375   2.055
  688SOL     OW 2212   3.899   1.636   3.602
  688SOL    HW1 2213   3.892   1.709   3.663
  688SOL    HW2 2214   3.917   1.676   3.517
  689SOL     OW 2215   3.720   1.864   2.426
  689SOL    HW1 2216   3.783   1.855   2.498
  689SOL    HW2 2217   3.647   1.913   2.463
  690SOL     OW 2218   3.750   2.006   3.607
  690SOL    HW1 2219   3.796   2.087   3.628
  690SOL    HW2 2220   3.668   2.035   3.566
  691SOL     OW 2221   3.483   1.254   3.305
  691SOL    HW1 2222   3.555   1.191   3.305
  691SOL    HW2 2223   3.404   1.200   3.298
  692SOL     OW 2224   4.614   1.296   2.492
  692SOL    HW1 2225   4.553   1.353   2.446
  692SOL    HW2 2226   4.663   1.355   2.550
  693SOL     OW 2227   3.264   2.581   2.257
  693SOL    HW1 2228   3.290   2.656   2.311
  693SOL    HW2 2229   3.335   2.570   2.195
  694SOL     OW 2230   4.172   2.197   3.468
  694SOL    HW1 2231   4.222   2.186   3.549
  694SOL    HW2 2232   4.116   2.119   3.464
  695SOL     OW 2233   3.284   2.306   2.340
  695SOL    HW1 2234   3.251   2.394   2.320
  695SOL    HW2 2235   3.213   2.265   2.390
  696SOL     OW 2236   3.252   1.961   2.682
  696SOL    HW1 2237   3.288   1.875   2.703
  696SOL    HW2 2238   3.158   1.951   2.691
  697SOL     OW 2239   3.676   2.651   3.285
  697SOL    HW1 2240   3.584   2.623   3.287
  697SOL    HW2 2241   3.673   2.746   3.290
  698SOL     OW 2242   3.591   1.858   1.941
  698SOL    HW1 2243   3.654   1.863   1.869
  698SOL    HW2 2244   3.638   1.891   2.017
  699SOL     OW 2245   4.566   0.985   3.274
  699SOL    HW1 2246   4.623   1.043   3.224
  699SOL    HW2 2247   4.592   0.998   3.365
  700SOL     OW 2248   3.150   1.506   2.344
  700SOL    HW1 2249   3.110   1.419   2.350
  700SOL    HW2 2250   3.123   1.550   2.424
  701SOL     OW 2251   4.868   2.635   2.138
  701SOL    HW1 2252   4.929   2.649   2.211
  701SOL    HW2 2253   4.893   2.700   2.073
  702SOL     OW 2254   2.962   2.443   1.879
  702SOL    HW1 2255   3.008   2.380   1.933
  702SOL    HW2 2256   3.019   2.520   1.879
  703SOL     OW 2257   4.720   1.782   2.419
  703SOL    HW1 2258   4.814   1.765   2.405
  703SOL    HW2 2259   4.695   1.838   2.346
  704SOL     OW 2260   4.690   1.972   2.218
  704SOL    HW1 2261   4.764   1.972   2.157
  704SOL    HW2 2262   4.692   2.058   2.258
  705SOL     OW 2263   3.110   1.611   3.423
  705SOL    HW1 2264   3.203   1.635   3.429
  705SOL    HW2 2265   3.064   1.694   3.418
  706SOL     OW 2266   3.654   2.236   2.502
  706SOL    HW1 2267   3.607   2.154   2.518
  706SOL    HW2 2268   3.631   2.261   2.413
  707SOL     OW 2269   3.873   0.877   2.276
  707SOL    HW1 2270   3.892   0.971   2.268
  707SOL    HW2 2271   3.777   0.873   2.279
  708SOL     OW 2272   4.530   1.879   2.000
  708SOL    HW1 2273   4.475   1.808   2.032
  708SOL    HW2 2274   4.600   1.887   2.065
  709SOL     OW 2275   4.191   2.655   3.404
  709SOL    HW1 2276   4.223   2.728   3.351
  709SOL    HW2 2277   4.231   2.577   3.366
  710SOL     OW 2278   3.354   1.110   3.578
  710SOL    HW1 2279   3.411   1.183   3.603
  710SOL    HW2 2280   3.279   1.117   3.637
  711SOL     OW 2281   4.457   2.276   2.704
  711SOL    HW1 2282   4.474   2.275   2.798
  711SOL    HW2 2283   4.477   2.187   2.674
  712SOL     OW 2284   4.693   2.593   2.376
  712SOL    HW1 2285   4.670   2.578   2.284
  712SOL    HW2 2286   4.658   2.517   2.422
  713SOL     OW 2287   3.627   1.593   2.044
  713SOL    HW1 2288   3.608   1.676   2.000
  713SOL    HW2 2289   3.563   1.587   2.115
  714SOL     OW 2290   4.321   1.214   2.744
  714SOL    HW1 2291   4.232   1.194   2.718
  714SOL    HW2 2292   4.352   1.134   2.787
  715SOL     OW 2293   4.610   2.541   2.106
  715SOL    HW1 2294   4.698   2.578   2.099
  715SOL    HW2 2295   4.597   2.496   2.023
  716SOL     OW 2296   3.823   1.463   3.288
  716SOL    HW1 2297   3.789   1.451   3.376
  716SOL    HW2 2298   3.782   1.394   3.236
  717SOL     OW 2299   4.463   1.315   3.474
  717SOL    HW1 2300   4.463   1.364   3.557
  717SOL    HW2 2301   4.512   1.235   3.494
  718SOL     OW 2302   3.976   1.759   3.357
  718SOL    HW1 2303   4.027   1.680   3.341
  718SOL    HW2 2304   3.962   1.797   3.270
  719SOL     OW 2305   4.085   1.535   2.202
  719SOL    HW1 2306   4.081   1.561   2.294
  719SOL    HW2 2307   4.002   1.491   2.185
  720SOL     OW 2308   3.107   1.654   2.571
  720SOL    HW1 2309   3.193   1.679   2.605
  720SOL    HW2 2310   3.050   1.728   2.593
  721SOL     OW 2311   3.159   2.719   3.367
  721SOL    HW1 2312   3.154   2.703   3.461
  721SOL    HW2 2313   3.069   2.710   3.336
  722SOL     OW 2314   3.911   1.212   1.986
  722SOL    HW1 2315   3.949   1.270   1.921
  722SOL    HW2 2316   3.915   1.125   1.947
  723SOL     OW 2317   4.729   1.438   3.620
  723SOL    HW1 2318   4.690   1.501   3.559
  723SOL    HW2 2319   4.752   1.363   3.566
  724SOL     OW 2320   4.433   1.990   2.341
  724SOL    HW1 2321   4.502   1.976   2.276
  724SOL    HW2 2322   4.372   2.051   2.300
  725SOL     OW 2323   3.596   1.020   2.686
  725SOL    HW1 2324   3.592   1.082   2.759
  725SOL    HW2 2325   3.583   1.074   2.608
  726SOL     OW 2326   4.003   2.269   2.246
  726SOL    HW1 2327   3.984   2.357   2.214
  726SOL    HW2 2328   3.992   2.276   2.341
  727SOL     OW 2329   3.395   2.663   2.651
  727SOL    HW1 2330   3.433   2.575   2.654
  727SOL    HW2 2331   3.468   2.721   2.674
  728SOL     OW 2332   4.830   1.946   2.653
  728SOL    HW1 2333   4.770   1.949   2.579
  728SOL    HW2 2334   4.795   1.878   2.710
  729SOL     OW 2335   4.250   2.405   3.303
  729SOL    HW1 2336   4.250   2.332   3.365
  729SOL    HW2 2337   4.239   2.363   3.217
  730SOL     OW 2338   3.332   1.802   2.017
  730SOL    HW1 2339   3.419   1.822   1.981
  730SOL    HW2 2340   3.312   1.715   1.985
  731SOL     OW 2341   4.525   1.604   2.498
  731SOL    HW1 2342   4.518   1.571   2.587
  731SOL    HW2 2343   4.596   1.668   2.501
  732SOL     OW 2344   3.507   2.115   3.527
  732SOL    HW1 2345   3.480   2.107   3.435
  732SOL    HW2 2346   3.424   2.112   3.576
  733SOL     OW 2347   4.135   2.667   1.994
  733SOL    HW1 2348   4.091   2.623   2.066
  733SOL    HW2 2349   4.156   2.597   1.932
  734SOL     OW 2350   3.231   1.133   3.313
  734SOL    HW1 2351   3.143   1.170   3.311
  734SOL    HW2 2352   3.241   1.097   3.401
  735SOL     OW 2353   3.506   2.582   2.106
  735SOL    HW1 2354   3.546   2.650   2.160
  735SOL    HW2 2355   3.573   2.561   2.041
  736SOL     OW 2356   4.452   0.989   2.213
  736SOL    HW1 2357   4.436   0.943   2.130
  736SOL    HW2 2358   4.545   0.978   2.229
  737SOL     OW 2359   3.974   2.528   2.667
  737SOL    HW1 2360   4.033   2.454   2.680
  737SOL    HW2 2361   3.910   2.496   2.602
  738SOL     OW 2362   3.427   1.553   2.228
  738SOL    HW1 2363   3.434   1.458   2.238
  738SOL    HW2 2364   3.333   1.571   2.239
  739SOL     OW 2365   4.567   1.052   3.537
  739SOL    HW1 2366   4.581   1.083   3.627
  739SOL    HW2 2367   4.474   1.029   3.534
  740SOL     OW 2368   3.647   0.973   1.881
  740SOL    HW1 2369   3.741   0.956   1.893
  740SOL    HW2 2370   3.624   0.920   1.804
  741SOL     OW 2371   3.804   1.129   3.549
  741SOL    HW1 2372   3.883   1.075   3.557
  741SOL    HW2 2373   3.760   1.119   3.633
  742SOL     OW 2374   4.373   1.481   3.289
  742SOL    HW1 2375   4.413   1.419   3.350
  742SOL    HW2 2376   4.443   1.542   3.268
  743SOL     OW 2377   3.840   2.263   2.706
  743SOL    HW1 2378   3.926   2.237   2.674
  743SOL    HW2 2379   3.778   2.227   2.643
  744SOL     OW 2380   3.974   1.365   2.678
  744SOL    HW1 2381   3.944   1.354   2.588
  744SOL    HW2 2382   4.005   1.279   2.704
  745SOL     OW 2383   3.606   0.925   2.268
  745SOL    HW1 2384   3.522   0.924   2.314
  745SOL    HW2 2385   3.602   1.002   2.212
  746SOL     OW 2386   4.437   2.024   1.779
  746SOL    HW1 2387   4.485   1.974   1.845
  746SOL    HW2 2388   4.368   2.069   1.828
  747SOL     OW 2389   3.360   0.928   1.997
  747SOL    HW1 2390   3.434   0.977   1.962
  747SOL    HW2 2391   3.397   0.845   2.026
  748SOL     OW 2392   3.969   1.135   2.245
  748SOL    HW1 2393   3.948   1.160   2.155
  748SOL    HW2 2394   4.064   1.129   2.247
  749SOL     OW 2395   4.106   1.540   3.289
  749SOL    HW1 2396   4.045   1.466   3.282
  749SOL    HW2 2397   4.192   1.500   3.283
  750SOL     OW 2398   4.264   2.442   2.571
  750SOL    HW1 2399   4.309   2.512   2.522
  750SOL    HW2 2400   4.333   2.405   2.627
  751SOL     OW 2401   3.489   1.999   2.480
  751SOL    HW1 2402   3.435   2.005   2.558
  751SOL    HW2 2403   3.431   1.959   2.414
  752SOL     OW 2404   4.341   2.648   2.394
  752SOL    HW1 2405   4.380   2.702   2.325
  752SOL    HW2 2406   4.313   2.710   2.460
  753SOL     OW 2407   4.042   1.428   1.847
  753SOL    HW1 2408   4.047   1.508   1.795
  753SOL    HW2 2409   4.114   1.434   1.909
  754SOL     OW 2410   3.866   1.313   2.430
  754SOL    HW1 2411   3.849   1.381   2.364
  754SOL    HW2 2412   3.905   1.241   2.380
  755SOL     OW 2413   4.026   0.943   2.496
  755SOL    HW1 2414   3.984   0.905   2.418
  755SOL    HW2 2415   4.044   0.868   2.553
  756SOL     OW 2416   4.514   2.026   2.605
  756SOL    HW1 2417   4.440   1.987   2.652
  756SOL    HW2 2418   4.495   2.011   2.512
  757SOL     OW 2419   4.504   1.454   2.735
  757SOL    HW1 2420   4.448   1.377   2.736
  757SOL    HW2 2421   4.590   1.422   2.764
  758SOL     OW 2422   4.881   1.695   2.161
  758SOL    HW1 2423   4.947   1.644   2.208
  758SOL    HW2 2424   4.864   1.645   2.081
  759SOL     OW 2425   3.511   2.289   1.949
  759SOL    HW1 2426   3.458   2.232   2.005
  759SOL    HW2 2427   3.505   2.249   1.862
  760SOL     OW 2428   4.435   1.441   1.873
  760SOL    HW1 2429   4.368   1.413   1.936
  760SOL    HW2 2430   4.510   1.385   1.892
  761SOL     OW 2431   3.573   1.133   2.089
  761SOL    HW1 2432   3.610   1.075   2.023
  761SOL    HW2 2433   3.554   1.214   2.041
  762SOL     OW 2434   4.794   2.083   3.339
  762SOL    HW1 2435   4.880   2.054   3.368
  762SOL    HW2 2436   4.781   2.168   3.382
  763SOL     OW 2437   4.618   2.503   3.437
  763SOL    HW1 2438   4.596   2.530   3.348
  763SOL    HW2 2439   4.704   2.462   3.429
  764SOL     OW 2440   4.020   1.972   3.515
  764SOL    HW1 2441   3.929   1.995   3.532
  764SOL    HW2 2442   4.017   1.899   3.454
  765SOL     OW 2443   3.748   1.917   2.156
  765SOL    HW1 2444   3.731   1.902   2.249
  765SOL    HW2 2445   3.827   1.866   2.138
  766SOL     OW 2446   3.351   1.947   2.254
  766SOL    HW1 2447   3.362   2.023   2.196
  766SOL    HW2 2448   3.349   1.872   2.194
  767SOL     OW 2449   3.569   1.430   2.678
  767SOL    HW1 2450   3.564   1.481   2.597
  767SOL    HW2 2451   3.647   1.464   2.723
  768SOL     OW 2452   4.278   2.175   2.222
  768SOL    HW1 2453   4.326   2.257   2.218
  768SOL    HW2 2454   4.186   2.201   2.217
  769SOL     OW 2455   4.644   1.498   2.267
  769SOL    HW1 2456   4.574   1.529   2.325
  769SOL    HW2 2457   4.668   1.574   2.215
  770SOL     OW 2458   3.469   1.603   3.427
  770SOL    HW1 2459   3.536   1.650   3.377
  770SOL    HW2 2460   3.515   1.525   3.460
  771SOL     OW 2461   4.616   1.624   3.454
  771SOL    HW1 2462   4.540   1.681   3.464
  771SOL    HW2 2463   4.678   1.675   3.402
  772SOL     OW 2464   4.038   0.966   3.521
  772SOL    HW1 2465   4.074   1.052   3.500
  772SOL    HW2 2466   4.102   0.904   3.486
  773SOL     OW 2467   3.519   0.886   3.530
  773SOL    HW1 2468   3.486   0.844   3.451
  773SOL    HW2 2469   3.461   0.962   3.543
  774SOL     OW 2470   4.399   1.714   2.735
  774SOL    HW1 2471   4.316   1.725   2.688
  774SOL    HW2 2472   4.404   1.620   2.752
  775SOL     OW 2473   4.236   1.373   2.047
  775SOL    HW1 2474   4.240   1.290   2.095
  775SOL    HW2 2475   4.187   1.432   2.104
  776SOL     OW 2476   3.787   1.563   2.743
  776SOL    HW1 2477   3.842   1.497   2.701
  776SOL    HW2 2478   3.848   1.616   2.795
  777SOL     OW 2479   3.367   0.943   2.380
  777SOL    HW1 2480   3.342   1.030   2.411
  777SOL    HW2 2481   3.358   0.886   2.456
  778SOL     OW 2482   4.673   1.245   2.171
  778SOL    HW1 2483   4.681   1.171   2.230
  778SOL    HW2 2484   4.648   1.318   2.227
  779SOL     OW 2485   4.059   1.619   2.748
  779SOL    HW1 2486   4.112   1.615   2.827
  779SOL    HW2 2487   4.050   1.528   2.720
  780SOL     OW 2488   4.010   2.423   3.491
  780SOL    HW1 2489   4.036   2.484   3.422
  780SOL    HW2 2490   4.055   2.341   3.468
  781SOL     OW 2491   4.866   2.406   3.363
  781SOL    HW1 2492   4.936   2.404   3.297
  781SOL    HW2 2493   4.911   2.394   3.446
  782SOL     OW 2494   3.392   1.783   3.613
  782SOL    HW1 2495   3.475   1.806   3.654
  782SOL    HW2 2496   3.414   1.718   3.547
  783SOL     OW 2497   4.542   1.156   1.948
  783SOL    HW1 2498   4.500   1.073   1.971
  783SOL    HW2 2499   4.595   1.177   2.025
  784SOL     OW 2500   4.328   1.685   1.811
  784SOL    HW1 2501   4.375   1.604   1.825
  784SOL    HW2 2502   4.380   1.733   1.746
  785SOL     OW 2503   4.092   2.216   2.601
  785SOL    HW1 2504   4.097   2.141   2.541
  785SOL    HW2 2505   4.156   2.278   2.567
  786SOL     OW 2506   3.348   1.707   2.717
  786SOL    HW1 2507   3.418   1.684   2.656
  786SOL    HW2 2508   3.337   1.628   2.771
  787SOL     OW 2509   3.322   1.328   2.711
  787SOL    HW1 2510   3.308   1.283   2.794
  787SOL    HW2 2511   3.413   1.358   2.715
  788SOL     OW 2512   4.174   1.265   3.473
  788SOL    HW1 2513   4.124   1.322   3.532
  788SOL    HW2 2514   4.256   1.313   3.458
  789SOL     OW 2515   4.173   1.070   3.290
  789SOL    HW1 2516   4.177   1.144   3.351
  789SOL    HW2 2517   4.211   1.105   3.209
  790SOL     OW 2518   3.036   2.155   1.956
  790SOL    HW1 2519   2.946   2.172   1.927
  790SOL    HW2 2520   3.035   2.064   1.986
  791SOL     OW 2521   3.124   2.658   2.695
  791SOL    HW1 2522   3.091   2.569   2.682
  791SOL    HW2 2523   3.219   2.648   2.695
  792SOL     OW 2524   3.531   2.420   2.680
  792SOL    HW1 2525   3.595   2.487   2.706
  792SOL    HW2 2526   3.582   2.360   2.625
  793SOL     OW 2527   3.204   1.375   3.528
  793SOL    HW1 2528   3.258   1.336   3.459
  793SOL    HW2 2529   3.163   1.451   3.486
  794SOL     OW 2530   4.407   1.801   3.441
  794SOL    HW1 2531   4.441   1.889   3.457
  794SOL    HW2 2532   4.365   1.806   3.355
  795SOL     OW 2533   3.844   1.436   2.140
  795SOL    HW1 2534   3.846   1.355   2.089
  795SOL    HW2 2535   3.767   1.483   2.108
  796SOL     OW 2536   3.266   2.406   3.515
  796SOL    HW1 2537   3.270   2.461   3.594
  796SOL    HW2 2538   3.280   2.317   3.548
  797SOL     OW 2539   3.500   1.359   1.956
  797SOL    HW1 2540   3.556   1.433   1.976
  797SOL    HW2 2541   3.412   1.396   1.952
  798SOL     OW 2542   3.146   1.968   3.284
  798SOL    HW1 2543   3.151   1.935   3.374
  798SOL    HW2 2544   3.210   1.915   3.236
  799SOL     OW 2545   4.337   1.701   2.087
  799SOL    HW1 2546   4.250   1.715   2.125
  799SOL    HW2 2547   4.320   1.697   1.993
  800SOL     OW 2548   3.706   2.536   3.536
  800SOL    HW1 2549   3.639   2.604   3.545
  800SOL    HW2 2550   3.750   2.557   3.454
  801SOL     OW 2551   3.932   0.940   1.904
  801SOL    HW1 2552   3.998   0.913   1.840
  801SOL    HW2 2553   3.941   0.877   1.975
  802SOL     OW 2554   4.728   0.991   2.275
  802SOL    HW1 2555   4.807   0.996   2.221
  802SOL    HW2 2556   4.740   0.912   2.327
  803SOL     OW 2557   4.398   2.424   2.242
  803SOL    HW1 2558   4.478   2.447   2.193
  803SOL    HW2 2559   4.380   2.501   2.295
  804SOL     OW 2560   3.149   2.670   3.638
  804SOL    HW1 2561   3.108   2.590   3.669
  804SOL    HW2 2562   3.218   2.689   3.702
  805SOL     OW 2563   4.309   1.770   2.442
  805SOL    HW1 2564   4.383   1.710   2.454
  805SOL    HW2 2565   4.348   1.849   2.403
  806SOL     OW 2566   3.844   2.092   3.300
  806SOL    HW1 2567   3.824   2.151   3.372
  806SOL    HW2 2568   3.855   2.149   3.224
  807SOL     OW 2569   3.703   2.480   1.928
  807SOL    HW1 2570   3.686   2.498   1.835
  807SOL    HW2 2571   3.654   2.399   1.945
  808SOL     OW 2572   3.257   1.156   2.507
  808SOL    HW1 2573   3.185   1.205   2.467
  808SOL    HW2 2574   3.281   1.209   2.583
  809SOL     OW 2575   4.217   2.484   1.783
  809SOL    HW1 2576   4.209   2.419   1.852
  809SOL    HW2 2577   4.203   2.435   1.702
  810SOL     OW 2578   3.970   1.765   2.090
  810SOL    HW1 2579   4.028   1.805   2.025
  810SOL    HW2 2580   4.007   1.678   2.104
  811SOL     OW 2581   4.492   2.426   1.767
  811SOL    HW1 2582   4.406   2.459   1.791
  811SOL    HW2 2583   4.552   2.499   1.783
  812SOL     OW 2584   3.373   2.118   3.289
  812SOL    HW1 2585   3.381   2.214   3.282
  812SOL    HW2 2586   3.278   2.102   3.286
  813SOL     OW 2587   4.094   1.972   2.472
  813SOL    HW1 2588   4.037   1.932   2.538
  813SOL    HW2 2589   4.166   1.910   2.461
  814SOL     OW 2590   4.065   1.105   2.708
  814SOL    HW1 2591   4.056   1.066   2.621
  814SOL    HW2 2592   4.039   1.034   2.768
  815SOL     OW 2593   3.679   2.406   2.239
  815SOL    HW1 2594   3.668   2.319   2.200
  815SOL    HW2 2595   3.602   2.454   2.211
  816SOL     OW 2596   3.290   2.169   2.067
  816SOL    HW1 2597   3.205   2.169   2.022
  816SOL    HW2 2598   3.276   2.223   2.145
  817SOL     OW 2599   3.146   1.876   3.530
  817SOL    HW1 2600   3.072   1.858   3.587
  817SOL    HW2 2601   3.223   1.849   3.581
  818SOL     OW 2602   3.694   1.072   3.305
  818SOL    HW1 2603   3.771   1.046   3.255
  818SOL    HW2 2604   3.728   1.095   3.391
  819SOL     OW 2605   3.090   1.213   1.830
  819SOL    HW1 2606   3.009   1.186   1.786
  819SOL    HW2 2607   3.148   1.241   1.759
  820SOL     OW 2608   3.119   1.063   2.114
  820SOL    HW1 2609   3.101   1.120   2.040
  820SOL    HW2 2610   3.208   1.032   2.100
  821SOL     OW 2611   4.203   2.144   1.891
  821SOL    HW1 2612   4.114   2.171   1.868
  821SOL    HW2 2613   4.227   2.200   1.965
  822SOL     OW 2614   3.677   1.704   3.297
  822SOL    HW1 2615   3.717   1.784   3.263
  822SOL    HW2 2616   3.743   1.637   3.285
  823SOL     OW 2617   4.516   2.623   2.717
  823SOL    HW1 2618   4.527   2.689   2.649
  823SOL    HW2 2619   4.593   2.633   2.774
  824SOL     OW 2620   3.726   1.423   3.533
  824SOL    HW1 2621   3.780   1.487   3.580
  824SOL    HW2 2622   3.763   1.338   3.559
  825SOL     OW 2623   4.501   2.061   3.403
  825SOL    HW1 2624   4.486   2.071   3.497
  825SOL    HW2 2625   4.596   2.072   3.393
  826SOL     OW 2626   3.408   2.597   3.345
  826SOL    HW1 2627   3.322   2.638   3.334
  826SOL    HW2 2628   3.389   2.512   3.384
  827SOL     OW 2629   4.249   1.171   2.231
  827SOL    HW1 2630   4.315   1.102   2.225
  827SOL    HW2 2631   4.263   1.209   2.318
  828SOL     OW 2632   3.638   1.585   2.441
  828SOL    HW1 2633   3.684   1.667   2.423
  828SOL    HW2 2634   3.561   1.588   2.386
  829SOL     OW 2635   4.781   1.209   3.475
  829SOL    HW1 2636   4.860   1.177   3.432
  829SOL    HW2 2637   4.730   1.130   3.493
  830SOL     OW 2638   4.750   1.813   3.300
  830SOL    HW1 2639   4.739   1.908   3.310
  830SOL    HW2 2640   4.740   1.798   3.206
  831SOL     OW 2641   3.938   2.224   1.821
  831SOL    HW1 2642   3.887   2.206   1.899
  831SOL    HW2 2643   3.899   2.304   1.784
  832SOL     OW 2644   3.696   2.640   2.704
  832SOL    HW1 2645   3.677   2.733   2.691
  832SOL    HW2 2646   3.791   2.634   2.706
  833SOL     OW 2647   3.920   1.844   2.631
  833SOL    HW1 2648   3.946   1.765   2.677
  833SOL    HW2 2649   3.848   1.880   2.683
  834SOL     OW 2650   4.109   1.844   1.866
  834SOL    HW1 2651   4.132   1.933   1.839
  834SOL    HW2 2652   4.182   1.790   1.835
  835SOL     OW 2653   3.266   2.154   3.641
  835SOL    HW1 2654   3.179   2.127   3.611
  835SOL    HW2 2655   3.257   2.164   3.735
  836SOL     OW 2656   3.121   2.100   2.444
  836SOL    HW1 2657   3.118   2.045   2.522
  836SOL    HW2 2658   3.171   2.049   2.380
  837SOL     OW 2659   3.744   2.267   3.486
  837SOL    HW1 2660   3.653   2.239   3.482
  837SOL    HW2 2661   3.739   2.361   3.505
  838SOL     OW 2662   3.420   1.283   2.270
  838SOL    HW1 2663   3.458   1.225   2.204
  838SOL    HW2 2664   3.447   1.245   2.353
  839SOL     OW 2665   3.851   2.431   2.446
  839SOL    HW1 2666   3.804   2.451   2.365
  839SOL    HW2 2667   3.796   2.365   2.489
  840SOL     OW 2668   3.815   2.174   2.067
  840SOL    HW1 2669   3.778   2.093   2.101
  840SOL    HW2 2670   3.883   2.198   2.130
  841SOL     OW 2671   4.383   0.912   1.957
  841SOL    HW1 2672   4.425   0.861   1.888
  841SOL    HW2 2673   4.290   0.890   1.949
  842SOL     OW 2674   4.307   1.275   2.476
  842SOL    HW1 2675   4.297   1.366   2.447
  842SOL    HW2 2676   4.317   1.281   2.571
  843SOL     OW 2677   4.630   1.091   2.673
  843SOL    HW1 2678   4.541   1.108   2.705
  843SOL    HW2 2679   4.641   1.151   2.599
  844SOL     OW 2680   3.077   1.921   2.097
  844SOL    HW1 2681   3.168   1.910   2.069
  844SOL    HW2 2682   3.048   1.833   2.120
  845SOL     OW 2683   3.927   2.503   2.095
  845SOL    HW1 2684   3.845   2.488   2.048
  845SOL    HW2 2685   3.903   2.565   2.164
  846SOL     OW 2686   3.264   1.488   3.774
  846SOL    HW1 2687   3.177   1.487   3.813
  846SOL    HW2 2688   3.250   1.461   3.683
  847SOL     OW 2689   4.775   1.463   3.887
  847SOL    HW1 2690   4.754   1.448   3.794
  847SOL    HW2 2691   4.757   1.379   3.929
  848SOL     OW 2692   3.272   2.568   4.126
  848SOL    HW1 2693   3.299   2.625   4.198
  848SOL    HW2 2694   3.336   2.585   4.056
  849SOL     OW 2695   3.264   2.303   4.181
  849SOL    HW1 2696   3.269   2.397   4.167
  849SOL    HW2 2697   3.225   2.294   4.268
  850SOL     OW 2698   3.616   1.840   3.780
  850SOL    HW1 2699   3.665   1.886   3.712
  850SOL    HW2 2700   3.655   1.871   3.862
  851SOL     OW 2701   4.878   2.612   3.983
  851SOL    HW1 2702   4.850   2.629   4.073
  851SOL    HW2 2703   4.895   2.699   3.947
  852SOL     OW 2704   3.008   2.454   3.751
  852SOL    HW1 2705   3.007   2.370   3.796
  852SOL    HW2 2706   3.008   2.519   3.820
  853SOL     OW 2707   4.742   1.707   4.239
  853SOL    HW1 2708   4.829   1.733   4.269
  853SOL    HW2 2709   4.704   1.786   4.202
  854SOL     OW 2710   4.709   1.961   4.081
  854SOL    HW1 2711   4.778   1.954   4.014
  854SOL    HW2 2712   4.712   2.052   4.109
  855SOL     OW 2713   3.844   0.880   4.084
  855SOL    HW1 2714   3.885   0.952   4.132
  855SOL    HW2 2715   3.761   0.865   4.130
  856SOL     OW 2716   4.533   1.868   3.872
  856SOL    HW1 2717   4.482   1.793   3.903
  856SOL    HW2 2718   4.595   1.886   3.943
  857SOL     OW 2719   3.622   1.584   3.909
  857SOL    HW1 2720   3.619   1.665   3.858
  857SOL    HW2 2721   3.557   1.597   3.979
  858SOL     OW 2722   4.598   2.528   3.946
  858SOL    HW1 2723   4.685   2.566   3.936
  858SOL    HW2 2724   4.571   2.506   3.857
  859SOL     OW 2725   3.916   1.196   3.840
  859SOL    HW1 2726   3.970   1.246   3.779
  859SOL    HW2 2727   3.959   1.110   3.846
  860SOL     OW 2728   3.357   1.798   3.901
  860SOL    HW1 2729   3.432   1.827   3.849
  860SOL    HW2 2730   3.317   1.728   3.848
  861SOL     OW 2731   4.170   2.623   3.872
  861SOL    HW1 2732   4.087   2.592   3.908
  861SOL    HW2 2733   4.181   2.572   3.792
  862SOL     OW 2734   3.511   2.606   3.974
  862SOL    HW1 2735   3.568   2.654   4.034
  862SOL    HW2 2736   3.571   2.572   3.907
  863SOL     OW 2737   4.456   1.011   4.046
  863SOL    HW1 2738   4.428   0.941   3.987
  863SOL    HW2 2739   4.530   0.975   4.093
  864SOL     OW 2740   3.436   1.561   4.119
  864SOL    HW1 2741   3.440   1.466   4.129
  864SOL    HW2 2742   3.346   1.578   4.091
  865SOL     OW 2743   3.656   0.979   3.752
  865SOL    HW1 2744   3.727   0.920   3.778
  865SOL    HW2 2745   3.617   0.937   3.675
  866SOL     OW 2746   4.445   2.041   3.669
  866SOL    HW1 2747   4.486   1.975   3.725
  866SOL    HW2 2748   4.369   2.071   3.719
  867SOL     OW 2749   3.359   0.932   3.838
  867SOL    HW1 2750   3.438   0.982   3.818
  867SOL    HW2 2751   3.392   0.852   3.879
  868SOL     OW 2752   3.963   1.125   4.151
  868SOL    HW1 2753   3.922   1.160   4.072
  868SOL    HW2 2754   4.057   1.135   4.136
  869SOL     OW 2755   3.528   2.009   4.340
  869SOL    HW1 2756   3.490   2.014   4.428
  869SOL    HW2 2757   3.465   1.959   4.289
  870SOL     OW 2758   4.059   1.410   3.669
  870SOL    HW1 2759   4.011   1.492   3.654
  870SOL    HW2 2760   4.109   1.426   3.749
  871SOL     OW 2761   4.913   1.705   3.995
  871SOL    HW1 2762   4.947   1.654   4.069
  871SOL    HW2 2763   4.857   1.644   3.948
  872SOL     OW 2764   3.514   2.277   3.794
  872SOL    HW1 2765   3.467   2.225   3.859
  872SOL    HW2 2766   3.509   2.226   3.713
  873SOL     OW 2767   4.429   1.421   3.724
  873SOL    HW1 2768   4.365   1.414   3.795
  873SOL    HW2 2769   4.514   1.423   3.767
  874SOL     OW 2770   3.569   1.128   3.970
  874SOL    HW1 2771   3.617   1.071   3.910
  874SOL    HW2 2772   3.545   1.204   3.917
  875SOL     OW 2773   3.748   1.917   4.010
  875SOL    HW1 2774   3.732   1.908   4.104
  875SOL    HW2 2775   3.824   1.861   3.994
  876SOL     OW 2776   3.349   1.928   4.141
  876SOL    HW1 2777   3.385   2.011   4.108
  876SOL    HW2 2778   3.354   1.868   4.066
  877SOL     OW 2779   4.295   2.171   4.102
  877SOL    HW1 2780   4.366   2.234   4.115
  877SOL    HW2 2781   4.228   2.221   4.056
  878SOL     OW 2782   4.595   1.502   4.123
  878SOL    HW1 2783   4.627   1.565   4.187
  878SOL    HW2 2784   4.643   1.523   4.043
  879SOL     OW 2785   4.230   1.380   3.909
  879SOL    HW1 2786   4.229   1.298   3.960
  879SOL    HW2 2787   4.210   1.448   3.973
  880SOL     OW 2788   4.675   1.244   4.030
  880SOL    HW1 2789   4.681   1.162   4.079
  880SOL    HW2 2790   4.623   1.302   4.086
  881SOL     OW 2791   4.578   1.146   3.792
  881SOL    HW1 2792   4.510   1.086   3.821
  881SOL    HW2 2793   4.617   1.178   3.874
  882SOL     OW 2794   4.326   1.681   3.676
  882SOL    HW1 2795   4.368   1.595   3.674
  882SOL    HW2 2796   4.358   1.726   3.598
  883SOL     OW 2797   3.037   2.150   3.820
  883SOL    HW1 2798   2.945   2.170   3.803
  883SOL    HW2 2799   3.036   2.062   3.858
  884SOL     OW 2800   3.875   1.469   3.929
  884SOL    HW1 2801   3.870   1.374   3.919
  884SOL    HW2 2802   3.783   1.498   3.935
  885SOL     OW 2803   3.497   1.348   3.825
  885SOL    HW1 2804   3.557   1.421   3.845
  885SOL    HW2 2805   3.411   1.390   3.816
  886SOL     OW 2806   4.328   1.685   3.957
  886SOL    HW1 2807   4.272   1.753   3.994
  886SOL    HW2 2808   4.313   1.690   3.863
  887SOL     OW 2809   4.742   0.985   4.133
  887SOL    HW1 2810   4.829   0.990   4.092
  887SOL    HW2 2811   4.736   0.896   4.167
  888SOL     OW 2812   4.430   2.425   4.137
  888SOL    HW1 2813   4.485   2.452   4.064
  888SOL    HW2 2814   4.389   2.505   4.168
  889SOL     OW 2815   3.699   2.478   3.805
  889SOL    HW1 2816   3.711   2.496   3.711
  889SOL    HW2 2817   3.645   2.399   3.808
  890SOL     OW 2818   4.228   2.454   3.664
  890SOL    HW1 2819   4.219   2.362   3.686
  890SOL    HW2 2820   4.160   2.470   3.598
  891SOL     OW 2821   3.957   1.746   3.947
  891SOL    HW1 2822   4.012   1.780   3.876
  891SOL    HW2 2823   3.946   1.654   3.927
  892SOL     OW 2824   4.503   2.447   3.693
  892SOL    HW1 2825   4.409   2.444   3.674
  892SOL    HW2 2826   4.544   2.452   3.607
  893SOL     OW 2827   3.671   2.410   4.120
  893SOL    HW1 2828   3.694   2.326   4.078
  893SOL    HW2 2829   3.591   2.437   4.076
  894SOL     OW 2830   3.279   2.191   3.924
  894SOL    HW1 2831   3.186   2.190   3.904
  894SOL    HW2 2832   3.284   2.216   4.017
  895SOL     OW 2833   3.100   1.189   3.698
  895SOL    HW1 2834   3.044   1.154   3.629
  895SOL    HW2 2835   3.138   1.268   3.661
  896SOL     OW 2836   3.115   1.062   3.958
  896SOL    HW1 2837   3.111   1.134   3.895
  896SOL    HW2 2838   3.201   1.024   3.946
  897SOL     OW 2839   4.207   2.181   3.746
  897SOL    HW1 2840   4.113   2.169   3.731
  897SOL    HW2 2841   4.212   2.217   3.834
  898SOL     OW 2842   4.239   1.171   4.105
  898SOL    HW1 2843   4.313   1.112   4.094
  898SOL    HW2 2844   4.270   1.237   4.167
  899SOL     OW 2845   3.654   1.600   4.308
  899SOL    HW1 2846   3.716   1.653   4.259
  899SOL    HW2 2847   3.577   1.594   4.251
  900SOL     OW 2848   3.935   2.223   3.702
  900SOL    HW1 2849   3.875   2.241   3.775
  900SOL    HW2 2850   3.918   2.293   3.639
  901SOL     OW 2851   4.105   1.832   3.737
  901SOL    HW1 2852   4.086   1.895   3.667
  901SOL    HW2 2853   4.184   1.786   3.708
  902SOL     OW 2854   3.441   1.288   4.151
  902SOL    HW1 2855   3.490   1.229   4.093
  902SOL    HW2 2856   3.477   1.270   4.238
  903SOL     OW 2857   3.800   2.191   3.951
  903SOL    HW1 2858   3.761   2.104   3.961
  903SOL    HW2 2859   3.883   2.186   3.998
  904SOL     OW 2860   4.362   0.864   3.833
  904SOL    HW1 2861   4.422   0.838   3.763
  904SOL    HW2 2862   4.283   0.892   3.787
  905SOL     OW 2863   3.083   1.921   3.955
  905SOL    HW1 2864   3.178   1.928   3.943
  905SOL    HW2 2865   3.067   1.827   3.962
  906SOL     OW 2866   3.929   2.515   3.959
  906SOL    HW1 2867   3.850   2.491   3.912
  906SOL    HW2 2868   3.899   2.566   4.034
  907SOL     OW 2869   3.262   3.354   1.911
  907SOL    HW1 2870   3.171   3.330   1.928
  907SOL    HW2 2871   3.263   3.380   1.819
  908SOL     OW 2872   3.267   2.989   2.731
  908SOL    HW1 2873   3.305   2.933   2.798
  908SOL    HW2 2874   3.175   2.965   2.728
  909SOL     OW 2875   3.025   3.114   2.412
  909SOL    HW1 2876   2.935   3.134   2.437
  909SOL    HW2 2877   3.020   3.028   2.371
  910SOL     OW 2878   4.579   4.236   2.478
  910SOL    HW1 2879   4.544   4.207   2.562
  910SOL    HW2 2880   4.514   4.209   2.413
  911SOL     OW 2881   4.164   3.407   2.493
  911SOL    HW1 2882   4.209   3.488   2.470
  911SOL    HW2 2883   4.096   3.435   2.556
  912SOL     OW 2884   4.791   3.299   1.996
  912SOL    HW1 2885   4.730   3.308   1.922
  912SOL    HW2 2886   4.749   3.234   2.052
  913SOL     OW 2887   3.900   3.496   3.602
  913SOL    HW1 2888   3.893   3.570   3.663
  913SOL    HW2 2889   3.919   3.537   3.518
  914SOL     OW 2890   3.719   3.732   2.426
  914SOL    HW1 2891   3.782   3.721   2.497
  914SOL    HW2 2892   3.646   3.781   2.466
  915SOL     OW 2893   3.749   3.868   3.603
  915SOL    HW1 2894   3.794   3.951   3.616
  915SOL    HW2 2895   3.665   3.892   3.563
  916SOL     OW 2896   3.484   3.121   3.315
  916SOL    HW1 2897   3.555   3.057   3.312
  916SOL    HW2 2898   3.404   3.069   3.316
  917SOL     OW 2899   4.616   3.154   2.498
  917SOL    HW1 2900   4.550   3.203   2.450
  917SOL    HW2 2901   4.660   3.219   2.553
  918SOL     OW 2902   3.264   4.443   2.260
  918SOL    HW1 2903   3.283   4.521   2.312
  918SOL    HW2 2904   3.338   4.436   2.200
  919SOL     OW 2905   4.173   4.060   3.469
  919SOL    HW1 2906   4.224   4.047   3.549
  919SOL    HW2 2907   4.114   3.984   3.466
  920SOL     OW 2908   3.285   4.169   2.338
  920SOL    HW1 2909   3.253   4.257   2.321
  920SOL    HW2 2910   3.213   4.126   2.385
  921SOL     OW 2911   3.271   3.807   2.666
  921SOL    HW1 2912   3.293   3.718   2.696
  921SOL    HW2 2913   3.179   3.818   2.688
  922SOL     OW 2914   3.676   4.505   3.284
  922SOL    HW1 2915   3.584   4.479   3.284
  922SOL    HW2 2916   3.674   4.601   3.286
  923SOL     OW 2917   3.591   3.719   1.941
  923SOL    HW1 2918   3.653   3.727   1.869
  923SOL    HW2 2919   3.638   3.752   2.017
  924SOL     OW 2920   4.677   2.870   3.297
  924SOL    HW1 2921   4.615   2.871   3.224
  924SOL    HW2 2922   4.622   2.863   3.375
  925SOL     OW 2923   3.158   3.366   2.350
  925SOL    HW1 2924   3.112   3.282   2.355
  925SOL    HW2 2925   3.128   3.415   2.427
  926SOL     OW 2926   4.871   4.497   2.138
  926SOL    HW1 2927   4.922   4.512   2.217
  926SOL    HW2 2928   4.899   4.565   2.077
  927SOL     OW 2929   2.962   4.304   1.878
  927SOL    HW1 2930   3.007   4.243   1.936
  927SOL    HW2 2931   3.019   4.381   1.876
  928SOL     OW 2932   4.720   3.644   2.419
  928SOL    HW1 2933   4.811   3.619   2.401
  928SOL    HW2 2934   4.697   3.702   2.346
  929SOL     OW 2935   4.691   3.834   2.218
  929SOL    HW1 2936   4.761   3.841   2.153
  929SOL    HW2 2937   4.689   3.921   2.259
  930SOL     OW 2938   3.111   3.472   3.435
  930SOL    HW1 2939   3.199   3.478   3.399
  930SOL    HW2 2940   3.072   3.558   3.418
  931SOL     OW 2941   3.652   4.098   2.510
  931SOL    HW1 2942   3.606   4.015   2.521
  931SOL    HW2 2943   3.633   4.125   2.420
  932SOL     OW 2944   3.860   2.718   2.279
  932SOL    HW1 2945   3.897   2.806   2.268
  932SOL    HW2 2946   3.766   2.732   2.285
  933SOL     OW 2947   4.532   3.740   2.000
  933SOL    HW1 2948   4.475   3.670   2.032
  933SOL    HW2 2949   4.599   3.750   2.067
  934SOL     OW 2950   4.191   4.516   3.402
  934SOL    HW1 2951   4.230   4.586   3.350
  934SOL    HW2 2952   4.231   4.436   3.368
  935SOL     OW 2953   3.369   2.966   3.605
  935SOL    HW1 2954   3.409   3.053   3.607
  935SOL    HW2 2955   3.279   2.980   3.634
  936SOL     OW 2956   4.458   4.138   2.704
  936SOL    HW1 2957   4.477   4.138   2.798
  936SOL    HW2 2958   4.481   4.049   2.675
  937SOL     OW 2959   4.693   4.456   2.374
  937SOL    HW1 2960   4.669   4.440   2.283
  937SOL    HW2 2961   4.660   4.380   2.422
  938SOL     OW 2962   3.630   3.455   2.042
  938SOL    HW1 2963   3.610   3.537   1.998
  938SOL    HW2 2964   3.564   3.448   2.111
  939SOL     OW 2965   4.321   3.074   2.741
  939SOL    HW1 2966   4.229   3.064   2.720
  939SOL    HW2 2967   4.346   2.989   2.777
  940SOL     OW 2968   4.614   4.400   2.108
  940SOL    HW1 2969   4.700   4.441   2.101
  940SOL    HW2 2970   4.597   4.365   2.020
  941SOL     OW 2971   3.815   3.330   3.285
  941SOL    HW1 2972   3.788   3.314   3.376
  941SOL    HW2 2973   3.776   3.258   3.236
  942SOL     OW 2974   4.468   3.178   3.471
  942SOL    HW1 2975   4.467   3.225   3.555
  942SOL    HW2 2976   4.512   3.095   3.491
  943SOL     OW 2977   3.988   3.626   3.359
  943SOL    HW1 2978   4.039   3.546   3.347
  943SOL    HW2 2979   3.930   3.629   3.283
  944SOL     OW 2980   4.085   3.396   2.204
  944SOL    HW1 2981   4.081   3.422   2.296
  944SOL    HW2 2982   4.001   3.354   2.187
  945SOL     OW 2983   3.111   3.516   2.572
  945SOL    HW1 2984   3.192   3.538   2.617
  945SOL    HW2 2985   3.054   3.591   2.588
  946SOL     OW 2986   3.163   4.587   3.366
  946SOL    HW1 2987   3.159   4.566   3.460
  946SOL    HW2 2988   3.077   4.564   3.332
  947SOL     OW 2989   3.912   3.076   1.990
  947SOL    HW1 2990   3.950   3.136   1.925
  947SOL    HW2 2991   3.909   2.992   1.945
  948SOL     OW 2992   4.730   3.301   3.621
  948SOL    HW1 2993   4.691   3.361   3.557
  948SOL    HW2 2994   4.748   3.222   3.570
  949SOL     OW 2995   4.433   3.851   2.341
  949SOL    HW1 2996   4.501   3.839   2.275
  949SOL    HW2 2997   4.372   3.914   2.300
  950SOL     OW 2998   3.573   2.890   2.688
  950SOL    HW1 2999   3.583   2.939   2.770
  950SOL    HW2 3000   3.572   2.957   2.620
  951SOL     OW 3001   4.005   4.136   2.250
  951SOL    HW1 3002   3.980   4.221   2.215
  951SOL    HW2 3003   3.993   4.144   2.345
  952SOL     OW 3004   3.394   4.521   2.650
  952SOL    HW1 3005   3.430   4.432   2.653
  952SOL    HW2 3006   3.468   4.578   2.670
  953SOL     OW 3007   4.832   3.800   2.649
  953SOL    HW1 3008   4.766   3.808   2.580
  953SOL    HW2 3009   4.794   3.737   2.710
  954SOL     OW 3010   4.254   4.266   3.308
  954SOL    HW1 3011   4.250   4.192   3.368
  954SOL    HW2 3012   4.240   4.227   3.221
  955SOL     OW 3013   3.331   3.667   2.016
  955SOL    HW1 3014   3.419   3.685   1.982
  955SOL    HW2 3015   3.313   3.577   1.990
  956SOL     OW 3016   4.530   3.460   2.497
  956SOL    HW1 3017   4.509   3.443   2.589
  956SOL    HW2 3018   4.595   3.531   2.500
  957SOL     OW 3019   3.505   3.972   3.525
  957SOL    HW1 3020   3.471   3.965   3.436
  957SOL    HW2 3021   3.426   3.970   3.581
  958SOL     OW 3022   4.126   4.522   1.991
  958SOL    HW1 3023   4.083   4.479   2.065
  958SOL    HW2 3024   4.151   4.451   1.933
  959SOL     OW 3025   3.233   3.011   3.330
  959SOL    HW1 3026   3.145   3.024   3.297
  959SOL    HW2 3027   3.230   2.925   3.372
  960SOL     OW 3028   3.507   4.443   2.109
  960SOL    HW1 3029   3.546   4.513   2.162
  960SOL    HW2 3030   3.575   4.421   2.045
  961SOL     OW 3031   4.444   2.833   2.217
  961SOL    HW1 3032   4.436   2.802   2.127
  961SOL    HW2 3033   4.539   2.840   2.232
  962SOL     OW 3034   3.977   4.423   2.679
  962SOL    HW1 3035   4.046   4.365   2.711
  962SOL    HW2 3036   3.924   4.368   2.622
  963SOL     OW 3037   3.424   3.420   2.215
  963SOL    HW1 3038   3.440   3.328   2.236
  963SOL    HW2 3039   3.332   3.434   2.238
  964SOL     OW 3040   4.544   2.907   3.529
  964SOL    HW1 3041   4.575   2.933   3.615
  964SOL    HW2 3042   4.448   2.904   3.537
  965SOL     OW 3043   3.644   2.828   1.887
  965SOL    HW1 3044   3.739   2.817   1.889
  965SOL    HW2 3045   3.615   2.778   1.811
  966SOL     OW 3046   3.801   2.999   3.552
  966SOL    HW1 3047   3.877   2.941   3.551
  966SOL    HW2 3048   3.769   2.995   3.643
  967SOL     OW 3049   4.370   3.340   3.288
  967SOL    HW1 3050   4.412   3.279   3.349
  967SOL    HW2 3051   4.439   3.401   3.264
  968SOL     OW 3052   3.848   4.151   2.703
  968SOL    HW1 3053   3.932   4.113   2.678
  968SOL    HW2 3054   3.783   4.097   2.658
  969SOL     OW 3055   3.943   3.233   2.683
  969SOL    HW1 3056   3.919   3.224   2.591
  969SOL    HW2 3057   3.983   3.149   2.706
  970SOL     OW 3058   3.598   2.783   2.265
  970SOL    HW1 3059   3.521   2.784   2.322
  970SOL    HW2 3060   3.594   2.866   2.217
  971SOL     OW 3061   4.437   3.885   1.779
  971SOL    HW1 3062   4.485   3.836   1.845
  971SOL    HW2 3063   4.368   3.930   1.829
  972SOL     OW 3064   3.362   2.796   1.996
  972SOL    HW1 3065   3.433   2.839   1.949
  972SOL    HW2 3066   3.397   2.711   2.021
  973SOL     OW 3067   3.967   2.975   2.242
  973SOL    HW1 3068   3.945   3.013   2.157
  973SOL    HW2 3069   4.063   2.980   2.247
  974SOL     OW 3070   4.104   3.395   3.310
  974SOL    HW1 3071   4.045   3.325   3.282
  974SOL    HW2 3072   4.192   3.361   3.290
  975SOL     OW 3073   4.266   4.299   2.564
  975SOL    HW1 3074   4.309   4.373   2.520
  975SOL    HW2 3075   4.332   4.266   2.625
  976SOL     OW 3076   3.486   3.860   2.485
  976SOL    HW1 3077   3.426   3.852   2.559
  976SOL    HW2 3078   3.438   3.824   2.411
  977SOL     OW 3079   4.347   4.510   2.393
  977SOL    HW1 3080   4.379   4.566   2.322
  977SOL    HW2 3081   4.322   4.571   2.462
  978SOL     OW 3082   4.042   3.288   1.848
  978SOL    HW1 3083   4.043   3.368   1.794
  978SOL    HW2 3084   4.116   3.299   1.907
  979SOL     OW 3085   3.866   3.171   2.425
  979SOL    HW1 3086   3.851   3.238   2.358
  979SOL    HW2 3087   3.902   3.097   2.376
  980SOL     OW 3088   4.017   2.800   2.503
  980SOL    HW1 3089   3.977   2.752   2.431
  980SOL    HW2 3090   4.044   2.732   2.565
  981SOL     OW 3091   4.515   3.886   2.605
  981SOL    HW1 3092   4.441   3.848   2.652
  981SOL    HW2 3093   4.494   3.875   2.513
  982SOL     OW 3094   4.501   3.309   2.742
  982SOL    HW1 3095   4.446   3.231   2.742
  982SOL    HW2 3096   4.587   3.278   2.770
  983SOL     OW 3097   4.881   3.558   2.163
  983SOL    HW1 3098   4.947   3.503   2.206
  983SOL    HW2 3099   4.867   3.515   2.079
  984SOL     OW 3100   3.514   4.149   1.950
  984SOL    HW1 3101   3.460   4.093   2.007
  984SOL    HW2 3102   3.501   4.112   1.862
  985SOL     OW 3103   4.432   3.304   1.871
  985SOL    HW1 3104   4.368   3.274   1.936
  985SOL    HW2 3105   4.516   3.269   1.901
  986SOL     OW 3106   3.578   2.996   2.095
  986SOL    HW1 3107   3.609   2.937   2.027
  986SOL    HW2 3108   3.553   3.076   2.047
  987SOL     OW 3109   4.792   3.946   3.341
  987SOL    HW1 3110   4.880   3.918   3.367
  987SOL    HW2 3111   4.779   4.030   3.385
  988SOL     OW 3112   4.619   4.368   3.438
  988SOL    HW1 3113   4.596   4.392   3.348
  988SOL    HW2 3114   4.704   4.324   3.429
  989SOL     OW 3115   4.015   3.843   3.510
  989SOL    HW1 3116   3.923   3.853   3.536
  989SOL    HW2 3117   4.014   3.767   3.451
  990SOL     OW 3118   3.748   3.780   2.156
  990SOL    HW1 3119   3.731   3.766   2.249
  990SOL    HW2 3120   3.827   3.729   2.138
  991SOL     OW 3121   3.360   3.811   2.253
  991SOL    HW1 3122   3.360   3.885   2.192
  991SOL    HW2 3123   3.356   3.734   2.196
  992SOL     OW 3124   3.633   3.347   2.707
  992SOL    HW1 3125   3.633   3.377   2.616
  992SOL    HW2 3126   3.721   3.314   2.721
  993SOL     OW 3127   4.277   4.037   2.223
  993SOL    HW1 3128   4.327   4.119   2.219
  993SOL    HW2 3129   4.186   4.064   2.220
  994SOL     OW 3130   4.648   3.358   2.265
  994SOL    HW1 3131   4.580   3.386   2.326
  994SOL    HW2 3132   4.669   3.436   2.214
  995SOL     OW 3133   3.479   3.470   3.420
  995SOL    HW1 3134   3.553   3.520   3.384
  995SOL    HW2 3135   3.519   3.390   3.454
  996SOL     OW 3136   4.618   3.486   3.453
  996SOL    HW1 3137   4.541   3.542   3.464
  996SOL    HW2 3138   4.680   3.539   3.403
  997SOL     OW 3139   4.024   2.842   3.529
  997SOL    HW1 3140   4.089   2.912   3.517
  997SOL    HW2 3141   4.070   2.762   3.503
  998SOL     OW 3142   3.527   2.754   3.536
  998SOL    HW1 3143   3.485   2.706   3.464
  998SOL    HW2 3144   3.471   2.830   3.551
  999SOL     OW 3145   4.408   3.578   2.730
  999SOL    HW1 3146   4.321   3.601   2.698
  999SOL    HW2 3147   4.398   3.490   2.766
 1000SOL     OW 3148   4.238   3.235   2.050
 1000SOL    HW1 3149   4.239   3.152   2.097
 1000SOL    HW2 3150   4.187   3.294   2.105
 1001SOL     OW 3151   3.370   2.784   2.407
 1001SOL    HW1 3152   3.353   2.877   2.424
 1001SOL    HW2 3153   3.376   2.745   2.494
 1002SOL     OW 3154   4.661   3.104   2.171
 1002SOL    HW1 3155   4.675   3.035   2.235
 1002SOL    HW2 3156   4.643   3.182   2.224
 1003SOL     OW 3157   4.032   3.483   2.727
 1003SOL    HW1 3158   4.075   3.479   2.812
 1003SOL    HW2 3159   3.998   3.395   2.712
 1004SOL     OW 3160   4.011   4.286   3.494
 1004SOL    HW1 3161   4.029   4.343   3.419
 1004SOL    HW2 3162   4.050   4.202   3.470
 1005SOL     OW 3163   4.866   4.267   3.363
 1005SOL    HW1 3164   4.934   4.267   3.296
 1005SOL    HW2 3165   4.913   4.258   3.446
 1006SOL     OW 3166   3.379   3.652   3.601
 1006SOL    HW1 3167   3.462   3.674   3.644
 1006SOL    HW2 3168   3.403   3.585   3.537
 1007SOL     OW 3169   4.554   2.998   1.945
 1007SOL    HW1 3170   4.492   2.929   1.970
 1007SOL    HW2 3171   4.596   3.023   2.027
 1008SOL     OW 3172   4.327   3.548   1.809
 1008SOL    HW1 3173   4.373   3.465   1.822
 1008SOL    HW2 3174   4.379   3.595   1.744
 1009SOL     OW 3175   4.095   4.073   2.605
 1009SOL    HW1 3176   4.098   4.002   2.540
 1009SOL    HW2 3177   4.154   4.140   2.570
 1010SOL     OW 3178   3.349   3.546   2.719
 1010SOL    HW1 3179   3.432   3.539   2.673
 1010SOL    HW2 3180   3.338   3.462   2.763
 1011SOL     OW 3181   3.353   3.252   2.735
 1011SOL    HW1 3182   3.327   3.160   2.741
 1011SOL    HW2 3183   3.448   3.251   2.737
 1012SOL     OW 3184   4.170   3.118   3.465
 1012SOL    HW1 3185   4.116   3.174   3.521
 1012SOL    HW2 3186   4.248   3.171   3.447
 1013SOL     OW 3187   4.237   2.914   3.296
 1013SOL    HW1 3188   4.211   2.983   3.357
 1013SOL    HW2 3189   4.216   2.949   3.210
 1014SOL     OW 3190   3.038   4.015   1.952
 1014SOL    HW1 3191   2.948   4.033   1.926
 1014SOL    HW2 3192   3.036   3.925   1.986
 1015SOL     OW 3193   3.123   4.526   2.703
 1015SOL    HW1 3194   3.087   4.438   2.689
 1015SOL    HW2 3195   3.218   4.514   2.698
 1016SOL     OW 3196   3.533   4.285   2.680
 1016SOL    HW1 3197   3.597   4.351   2.707
 1016SOL    HW2 3198   3.584   4.223   2.626
 1017SOL     OW 3199   3.214   3.233   3.530
 1017SOL    HW1 3200   3.240   3.178   3.456
 1017SOL    HW2 3201   3.172   3.309   3.490
 1018SOL     OW 3202   4.408   3.662   3.441
 1018SOL    HW1 3203   4.441   3.751   3.456
 1018SOL    HW2 3204   4.363   3.667   3.357
 1019SOL     OW 3205   3.843   3.297   2.144
 1019SOL    HW1 3206   3.845   3.218   2.090
 1019SOL    HW2 3207   3.767   3.346   2.111
 1020SOL     OW 3208   3.263   4.268   3.515
 1020SOL    HW1 3209   3.269   4.320   3.596
 1020SOL    HW2 3210   3.281   4.178   3.543
 1021SOL     OW 3211   3.501   3.219   1.958
 1021SOL    HW1 3212   3.557   3.294   1.977
 1021SOL    HW2 3213   3.412   3.256   1.954
 1022SOL     OW 3214   4.338   3.562   2.085
 1022SOL    HW1 3215   4.253   3.579   2.126
 1022SOL    HW2 3216   4.320   3.561   1.991
 1023SOL     OW 3217   3.704   4.392   3.533
 1023SOL    HW1 3218   3.638   4.460   3.544
 1023SOL    HW2 3219   3.746   4.412   3.449
 1024SOL     OW 3220   3.929   2.818   1.883
 1024SOL    HW1 3221   4.004   2.831   1.825
 1024SOL    HW2 3222   3.963   2.763   1.954
 1025SOL     OW 3223   4.713   2.855   2.284
 1025SOL    HW1 3224   4.786   2.845   2.223
 1025SOL    HW2 3225   4.718   2.777   2.340
 1026SOL     OW 3226   4.397   4.287   2.240
 1026SOL    HW1 3227   4.478   4.309   2.193
 1026SOL    HW2 3228   4.380   4.363   2.294
 1027SOL     OW 3229   3.154   4.531   3.635
 1027SOL    HW1 3230   3.108   4.453   3.666
 1027SOL    HW2 3231   3.221   4.548   3.701
 1028SOL     OW 3232   4.308   3.632   2.441
 1028SOL    HW1 3233   4.382   3.572   2.452
 1028SOL    HW2 3234   4.347   3.711   2.403
 1029SOL     OW 3235   3.703   4.341   1.929
 1029SOL    HW1 3236   3.687   4.358   1.837
 1029SOL    HW2 3237   3.655   4.261   1.948
 1030SOL     OW 3238   3.280   3.031   2.466
 1030SOL    HW1 3239   3.195   3.071   2.449
 1030SOL    HW2 3240   3.286   3.025   2.561
 1031SOL     OW 3241   4.210   4.344   1.781
 1031SOL    HW1 3242   4.207   4.279   1.851
 1031SOL    HW2 3243   4.206   4.294   1.700
 1032SOL     OW 3244   3.970   3.627   2.088
 1032SOL    HW1 3245   4.028   3.667   2.023
 1032SOL    HW2 3246   4.008   3.540   2.104
 1033SOL     OW 3247   4.491   4.291   1.758
 1033SOL    HW1 3248   4.409   4.324   1.792
 1033SOL    HW2 3249   4.556   4.358   1.780
 1034SOL     OW 3250   3.338   3.978   3.308
 1034SOL    HW1 3251   3.385   4.059   3.287
 1034SOL    HW2 3252   3.269   3.972   3.242
 1035SOL     OW 3253   4.092   3.830   2.473
 1035SOL    HW1 3254   4.032   3.791   2.537
 1035SOL    HW2 3255   4.163   3.766   2.465
 1036SOL     OW 3256   4.062   2.984   2.701
 1036SOL    HW1 3257   4.042   2.953   2.613
 1036SOL    HW2 3258   4.074   2.905   2.753
 1037SOL     OW 3259   3.684   4.271   2.249
 1037SOL    HW1 3260   3.672   4.183   2.211
 1037SOL    HW2 3261   3.606   4.319   2.222
 1038SOL     OW 3262   3.291   4.030   2.069
 1038SOL    HW1 3263   3.207   4.031   2.023
 1038SOL    HW2 3264   3.277   4.085   2.146
 1039SOL     OW 3265   3.131   3.766   3.508
 1039SOL    HW1 3266   3.063   3.734   3.566
 1039SOL    HW2 3267   3.212   3.729   3.544
 1040SOL     OW 3268   3.698   2.934   3.310
 1040SOL    HW1 3269   3.781   2.922   3.263
 1040SOL    HW2 3270   3.724   2.955   3.400
 1041SOL     OW 3271   3.093   3.084   1.821
 1041SOL    HW1 3272   3.011   3.055   1.781
 1041SOL    HW2 3273   3.149   3.106   1.747
 1042SOL     OW 3274   3.130   2.895   2.124
 1042SOL    HW1 3275   3.099   2.956   2.058
 1042SOL    HW2 3276   3.213   2.862   2.089
 1043SOL     OW 3277   4.204   4.005   1.891
 1043SOL    HW1 3278   4.115   4.032   1.868
 1043SOL    HW2 3279   4.227   4.061   1.965
 1044SOL     OW 3280   3.697   3.580   3.303
 1044SOL    HW1 3281   3.695   3.623   3.218
 1044SOL    HW2 3282   3.744   3.498   3.287
 1045SOL     OW 3283   4.529   4.479   2.717
 1045SOL    HW1 3284   4.540   4.553   2.657
 1045SOL    HW2 3285   4.597   4.492   2.783
 1046SOL     OW 3286   3.728   3.283   3.532
 1046SOL    HW1 3287   3.782   3.343   3.583
 1046SOL    HW2 3288   3.758   3.196   3.558
 1047SOL     OW 3289   4.501   3.921   3.403
 1047SOL    HW1 3290   4.486   3.933   3.497
 1047SOL    HW2 3291   4.595   3.935   3.393
 1048SOL     OW 3292   3.408   4.453   3.345
 1048SOL    HW1 3293   3.326   4.500   3.331
 1048SOL    HW2 3294   3.382   4.372   3.388
 1049SOL     OW 3295   4.248   3.029   2.233
 1049SOL    HW1 3296   4.312   2.958   2.228
 1049SOL    HW2 3297   4.265   3.071   2.318
 1050SOL     OW 3298   3.661   3.451   2.451
 1050SOL    HW1 3299   3.692   3.535   2.419
 1050SOL    HW2 3300   3.572   3.444   2.417
 1051SOL     OW 3301   4.774   3.067   3.485
 1051SOL    HW1 3302   4.850   3.050   3.429
 1051SOL    HW2 3303   4.720   2.989   3.476
 1052SOL     OW 3304   4.751   3.676   3.303
 1052SOL    HW1 3305   4.738   3.770   3.313
 1052SOL    HW2 3306   4.744   3.660   3.209
 1053SOL     OW 3307   3.938   4.085   1.820
 1053SOL    HW1 3308   3.887   4.067   1.899
 1053SOL    HW2 3309   3.899   4.165   1.785
 1054SOL     OW 3310   3.697   4.504   2.710
 1054SOL    HW1 3311   3.680   4.597   2.694
 1054SOL    HW2 3312   3.793   4.497   2.710
 1055SOL     OW 3313   3.910   3.708   2.629
 1055SOL    HW1 3314   3.940   3.627   2.671
 1055SOL    HW2 3315   3.852   3.749   2.694
 1056SOL     OW 3316   4.109   3.706   1.866
 1056SOL    HW1 3317   4.133   3.796   1.839
 1056SOL    HW2 3318   4.182   3.652   1.834
 1057SOL     OW 3319   3.266   4.017   3.640
 1057SOL    HW1 3320   3.194   3.967   3.600
 1057SOL    HW2 3321   3.241   4.026   3.732
 1058SOL     OW 3322   3.120   3.963   2.436
 1058SOL    HW1 3323   3.130   3.926   2.524
 1058SOL    HW2 3324   3.172   3.905   2.380
 1059SOL     OW 3325   3.747   4.123   3.473
 1059SOL    HW1 3326   3.656   4.092   3.471
 1059SOL    HW2 3327   3.739   4.216   3.498
 1060SOL     OW 3328   3.440   3.156   2.276
 1060SOL    HW1 3329   3.482   3.091   2.220
 1060SOL    HW2 3330   3.392   3.104   2.341
 1061SOL     OW 3331   3.861   4.303   2.454
 1061SOL    HW1 3332   3.806   4.317   2.377
 1061SOL    HW2 3333   3.810   4.242   2.509
 1062SOL     OW 3334   3.819   4.037   2.068
 1062SOL    HW1 3335   3.779   3.956   2.101
 1062SOL    HW2 3336   3.885   4.060   2.133
 1063SOL     OW 3337   4.380   2.783   1.956
 1063SOL    HW1 3338   4.405   2.732   1.878
 1063SOL    HW2 3339   4.291   2.756   1.975
 1064SOL     OW 3340   4.310   3.140   2.476
 1064SOL    HW1 3341   4.300   3.229   2.443
 1064SOL    HW2 3342   4.315   3.150   2.571
 1065SOL     OW 3343   4.624   2.934   2.662
 1065SOL    HW1 3344   4.565   2.980   2.722
 1065SOL    HW2 3345   4.642   2.998   2.593
 1066SOL     OW 3346   3.078   3.782   2.097
 1066SOL    HW1 3347   3.168   3.771   2.068
 1066SOL    HW2 3348   3.049   3.694   2.120
 1067SOL     OW 3349   3.926   4.362   2.100
 1067SOL    HW1 3350   3.844   4.348   2.051
 1067SOL    HW2 3351   3.903   4.425   2.168
 1068SOL     OW 3352   3.264   3.349   3.776
 1068SOL    HW1 3353   3.173   3.353   3.805
 1068SOL    HW2 3354   3.258   3.323   3.684
 1069SOL     OW 3355   4.775   3.321   3.887
 1069SOL    HW1 3356   4.755   3.308   3.794
 1069SOL    HW2 3357   4.755   3.236   3.927
 1070SOL     OW 3358   3.275   4.428   4.128
 1070SOL    HW1 3359   3.302   4.487   4.199
 1070SOL    HW2 3360   3.336   4.448   4.056
 1071SOL     OW 3361   3.264   4.164   4.182
 1071SOL    HW1 3362   3.270   4.259   4.169
 1071SOL    HW2 3363   3.224   4.156   4.269
 1072SOL     OW 3364   3.614   3.704   3.779
 1072SOL    HW1 3365   3.664   3.748   3.710
 1072SOL    HW2 3366   3.654   3.734   3.860
 1073SOL     OW 3367   4.878   4.474   3.982
 1073SOL    HW1 3368   4.851   4.491   4.072
 1073SOL    HW2 3369   4.898   4.561   3.947
 1074SOL     OW 3370   3.010   4.315   3.752
 1074SOL    HW1 3371   3.005   4.231   3.798
 1074SOL    HW2 3372   3.009   4.381   3.821
 1075SOL     OW 3373   4.742   3.568   4.239
 1075SOL    HW1 3374   4.829   3.595   4.269
 1075SOL    HW2 3375   4.704   3.648   4.202
 1076SOL     OW 3376   4.709   3.823   4.081
 1076SOL    HW1 3377   4.777   3.816   4.014
 1076SOL    HW2 3378   4.711   3.914   4.109
 1077SOL     OW 3379   3.829   2.738   4.104
 1077SOL    HW1 3380   3.885   2.810   4.134
 1077SOL    HW2 3381   3.759   2.734   4.169
 1078SOL     OW 3382   4.533   3.729   3.872
 1078SOL    HW1 3383   4.482   3.655   3.904
 1078SOL    HW2 3384   4.594   3.749   3.943
 1079SOL     OW 3385   3.622   3.448   3.908
 1079SOL    HW1 3386   3.618   3.528   3.856
 1079SOL    HW2 3387   3.558   3.462   3.978
 1080SOL     OW 3388   4.597   4.389   3.945
 1080SOL    HW1 3389   4.683   4.430   3.937
 1080SOL    HW2 3390   4.572   4.367   3.856
 1081SOL     OW 3391   3.894   3.084   3.819
 1081SOL    HW1 3392   3.959   3.126   3.762
 1081SOL    HW2 3393   3.935   3.002   3.846
 1082SOL     OW 3394   3.358   3.659   3.898
 1082SOL    HW1 3395   3.435   3.687   3.848
 1082SOL    HW2 3396   3.316   3.594   3.843
 1083SOL     OW 3397   4.168   4.481   3.870
 1083SOL    HW1 3398   4.086   4.449   3.908
 1083SOL    HW2 3399   4.181   4.429   3.792
 1084SOL     OW 3400   3.512   4.470   3.972
 1084SOL    HW1 3401   3.571   4.511   4.035
 1084SOL    HW2 3402   3.570   4.434   3.905
 1085SOL     OW 3403   4.447   2.861   4.058
 1085SOL    HW1 3404   4.444   2.801   3.983
 1085SOL    HW2 3405   4.528   2.838   4.103
 1086SOL     OW 3406   3.438   3.424   4.121
 1086SOL    HW1 3407   3.440   3.328   4.129
 1086SOL    HW2 3408   3.350   3.443   4.088
 1087SOL     OW 3409   3.661   2.833   3.762
 1087SOL    HW1 3410   3.743   2.785   3.767
 1087SOL    HW2 3411   3.621   2.805   3.680
 1088SOL     OW 3412   4.445   3.902   3.669
 1088SOL    HW1 3413   4.486   3.837   3.726
 1088SOL    HW2 3414   4.370   3.934   3.719
 1089SOL     OW 3415   3.329   2.776   3.832
 1089SOL    HW1 3416   3.389   2.833   3.785
 1089SOL    HW2 3417   3.384   2.706   3.867
 1090SOL     OW 3418   3.963   2.983   4.165
 1090SOL    HW1 3419   3.917   3.017   4.089
 1090SOL    HW2 3420   4.055   2.990   4.143
 1091SOL     OW 3421   3.528   3.872   4.340
 1091SOL    HW1 3422   3.490   3.876   4.428
 1091SOL    HW2 3423   3.465   3.821   4.289
 1092SOL     OW 3424   4.063   3.270   3.666
 1092SOL    HW1 3425   4.015   3.351   3.649
 1092SOL    HW2 3426   4.112   3.287   3.746
 1093SOL     OW 3427   4.913   3.569   3.997
 1093SOL    HW1 3428   4.945   3.516   4.070
 1093SOL    HW2 3429   4.859   3.508   3.946
 1094SOL     OW 3430   3.513   4.139   3.795
 1094SOL    HW1 3431   3.465   4.087   3.859
 1094SOL    HW2 3432   3.505   4.090   3.713
 1095SOL     OW 3433   4.431   3.278   3.726
 1095SOL    HW1 3434   4.368   3.277   3.798
 1095SOL    HW2 3435   4.515   3.293   3.768
 1096SOL     OW 3436   3.565   2.986   3.971
 1096SOL    HW1 3437   3.606   2.925   3.911
 1096SOL    HW2 3438   3.544   3.063   3.916
 1097SOL     OW 3439   3.748   3.779   4.009
 1097SOL    HW1 3440   3.732   3.770   4.103
 1097SOL    HW2 3441   3.825   3.724   3.993
 1098SOL     OW 3442   3.350   3.790   4.139
 1098SOL    HW1 3443   3.385   3.872   4.107
 1098SOL    HW2 3444   3.355   3.730   4.065
 1099SOL     OW 3445   4.296   4.033   4.103
 1099SOL    HW1 3446   4.367   4.096   4.115
 1099SOL    HW2 3447   4.228   4.082   4.056
 1100SOL     OW 3448   4.596   3.363   4.122
 1100SOL    HW1 3449   4.627   3.426   4.187
 1100SOL    HW2 3450   4.645   3.385   4.042
 1101SOL     OW 3451   4.231   3.242   3.910
 1101SOL    HW1 3452   4.230   3.161   3.960
 1101SOL    HW2 3453   4.208   3.310   3.974
 1102SOL     OW 3454   4.661   3.105   4.024
 1102SOL    HW1 3455   4.670   3.026   4.077
 1102SOL    HW2 3456   4.617   3.168   4.081
 1103SOL     OW 3457   4.592   2.971   3.789
 1103SOL    HW1 3458   4.504   2.938   3.809
 1103SOL    HW2 3459   4.619   3.017   3.868
 1104SOL     OW 3460   4.325   3.543   3.676
 1104SOL    HW1 3461   4.367   3.456   3.672
 1104SOL    HW2 3462   4.357   3.588   3.599
 1105SOL     OW 3463   3.038   4.011   3.814
 1105SOL    HW1 3464   2.946   4.032   3.801
 1105SOL    HW2 3465   3.037   3.924   3.855
 1106SOL     OW 3466   3.873   3.336   3.936
 1106SOL    HW1 3467   3.870   3.243   3.912
 1106SOL    HW2 3468   3.782   3.363   3.938
 1107SOL     OW 3469   3.497   3.211   3.830
 1107SOL    HW1 3470   3.557   3.284   3.847
 1107SOL    HW2 3471   3.411   3.252   3.818
 1108SOL     OW 3472   4.329   3.547   3.957
 1108SOL    HW1 3473   4.272   3.614   3.995
 1108SOL    HW2 3474   4.313   3.553   3.863
 1109SOL     OW 3475   4.722   2.854   4.140
 1109SOL    HW1 3476   4.799   2.859   4.085
 1109SOL    HW2 3477   4.725   2.767   4.179
 1110SOL     OW 3478   4.430   4.287   4.137
 1110SOL    HW1 3479   4.485   4.314   4.064
 1110SOL    HW2 3480   4.390   4.368   4.169
 1111SOL     OW 3481   3.699   4.340   3.802
 1111SOL    HW1 3482   3.711   4.355   3.709
 1111SOL    HW2 3483   3.644   4.261   3.807
 1112SOL     OW 3484   4.228   4.315   3.663
 1112SOL    HW1 3485   4.221   4.223   3.686
 1112SOL    HW2 3486   4.161   4.329   3.597
 1113SOL     OW 3487   3.959   3.610   3.947
 1113SOL    HW1 3488   4.012   3.642   3.874
 1113SOL    HW2 3489   3.946   3.517   3.928
 1114SOL     OW 3490   4.502   4.305   3.692
 1114SOL    HW1 3491   4.409   4.306   3.673
 1114SOL    HW2 3492   4.545   4.313   3.607
 1115SOL     OW 3493   3.671   4.272   4.118
 1115SOL    HW1 3494   3.698   4.190   4.077
 1115SOL    HW2 3495   3.587   4.293   4.077
 1116SOL     OW 3496   3.278   4.054   3.927
 1116SOL    HW1 3497   3.184   4.052   3.906
 1116SOL    HW2 3498   3.282   4.079   4.019
 1117SOL     OW 3499   3.101   3.050   3.695
 1117SOL    HW1 3500   3.047   3.023   3.620
 1117SOL    HW2 3501   3.143   3.130   3.667
 1118SOL     OW 3502   3.121   2.897   3.974
 1118SOL    HW1 3503   3.116   2.986   3.941
 1118SOL    HW2 3504   3.201   2.861   3.935
 1119SOL     OW 3505   4.207   4.043   3.746
 1119SOL    HW1 3506   4.113   4.033   3.730
 1119SOL    HW2 3507   4.213   4.078   3.835
 1120SOL     OW 3508   4.240   3.034   4.106
 1120SOL    HW1 3509   4.310   2.969   4.097
 1120SOL    HW2 3510   4.274   3.098   4.168
 1121SOL     OW 3511   3.652   3.465   4.309
 1121SOL    HW1 3512   3.718   3.513   4.260
 1121SOL    HW2 3513   3.578   3.456   4.249
 1122SOL     OW 3514   3.936   4.087   3.703
 1122SOL    HW1 3515   3.873   4.104   3.773
 1122SOL    HW2 3516   3.918   4.154   3.638
 1123SOL     OW 3517   4.102   3.695   3.732
 1123SOL    HW1 3518   4.088   3.761   3.664
 1123SOL    HW2 3519   4.181   3.649   3.705
 1124SOL     OW 3520   3.442   3.150   4.151
 1124SOL    HW1 3521   3.488   3.091   4.091
 1124SOL    HW2 3522   3.479   3.130   4.237
 1125SOL     OW 3523   3.799   4.055   3.953
 1125SOL    HW1 3524   3.760   3.968   3.961
 1125SOL    HW2 3525   3.885   4.047   3.995
 1126SOL     OW 3526   4.404   2.747   3.808
 1126SOL    HW1 3527   4.414   2.691   3.732
 1126SOL    HW2 3528   4.318   2.724   3.844
 1127SOL     OW 3529   3.083   3.783   3.954
 1127SOL    HW1 3530   3.178   3.792   3.942
 1127SOL    HW2 3531   3.069   3.688   3.960
 1128SOL     OW 3532   3.928   4.376   3.958
 1128SOL    HW1 3533   3.849   4.351   3.912
 1128SOL    HW2 3534   3.898   4.427   4.033
 1129SOL     OW 3535   3.021   4.954   2.410
 1129SOL    HW1 3536   2.935   4.990   2.430
 1129SOL    HW2 3537   3.003   4.866   2.375
 1130SOL     OW 3538   4.805   5.139   1.997
 1130SOL    HW1 3539   4.735   5.118   1.935
 1130SOL    HW2 3540   4.784   5.087   2.074
 1131SOL     OW 3541   3.469   4.991   3.318
 1131SOL    HW1 3542   3.544   4.932   3.308
 1131SOL    HW2 3543   3.393   4.934   3.308
 1132SOL     OW 3544   4.604   4.986   2.505
 1132SOL    HW1 3545   4.533   5.037   2.466
 1132SOL    HW2 3546   4.650   5.048   2.561
 1133SOL     OW 3547   4.675   4.731   3.271
 1133SOL    HW1 3548   4.602   4.748   3.212
 1133SOL    HW2 3549   4.635   4.723   3.358
 1134SOL     OW 3550   3.178   5.210   2.367
 1134SOL    HW1 3551   3.113   5.141   2.352
 1134SOL    HW2 3552   3.126   5.290   2.375
 1135SOL     OW 3553   3.857   4.577   2.270
 1135SOL    HW1 3554   3.896   4.664   2.269
 1135SOL    HW2 3555   3.763   4.593   2.281
 1136SOL     OW 3556   3.372   4.831   3.606
 1136SOL    HW1 3557   3.408   4.916   3.581
 1136SOL    HW2 3558   3.281   4.849   3.629
 1137SOL     OW 3559   4.315   4.931   2.728
 1137SOL    HW1 3560   4.221   4.918   2.717
 1137SOL    HW2 3561   4.349   4.844   2.752
 1138SOL     OW 3562   4.488   5.055   3.450
 1138SOL    HW1 3563   4.466   5.099   3.532
 1138SOL    HW2 3564   4.492   4.962   3.473
 1139SOL     OW 3565   3.925   4.927   2.001
 1139SOL    HW1 3566   3.928   4.983   1.924
 1139SOL    HW2 3567   3.910   4.839   1.967
 1140SOL     OW 3568   4.729   5.167   3.609
 1140SOL    HW1 3569   4.738   5.236   3.544
 1140SOL    HW2 3570   4.751   5.087   3.562
 1141SOL     OW 3571   3.588   4.758   2.686
 1141SOL    HW1 3572   3.566   4.805   2.767
 1141SOL    HW2 3573   3.567   4.820   2.617
 1142SOL     OW 3574   3.228   4.864   3.327
 1142SOL    HW1 3575   3.138   4.886   3.303
 1142SOL    HW2 3576   3.223   4.772   3.354
 1143SOL     OW 3577   4.441   4.699   2.214
 1143SOL    HW1 3578   4.429   4.675   2.122
 1143SOL    HW2 3579   4.536   4.706   2.225
 1144SOL     OW 3580   4.562   4.770   3.519
 1144SOL    HW1 3581   4.586   4.795   3.608
 1144SOL    HW2 3582   4.467   4.763   3.520
 1145SOL     OW 3583   3.641   4.691   1.881
 1145SOL    HW1 3584   3.735   4.675   1.884
 1145SOL    HW2 3585   3.609   4.636   1.810
 1146SOL     OW 3586   3.811   4.866   3.538
 1146SOL    HW1 3587   3.884   4.804   3.545
 1146SOL    HW2 3588   3.779   4.875   3.628
 1147SOL     OW 3589   4.345   5.208   3.283
 1147SOL    HW1 3590   4.409   5.157   3.332
 1147SOL    HW2 3591   4.378   5.298   3.285
 1148SOL     OW 3592   3.598   4.649   2.261
 1148SOL    HW1 3593   3.523   4.652   2.320
 1148SOL    HW2 3594   3.594   4.733   2.214
 1149SOL     OW 3595   3.365   4.659   1.996
 1149SOL    HW1 3596   3.436   4.695   1.941
 1149SOL    HW2 3597   3.398   4.573   2.023
 1150SOL     OW 3598   3.968   4.830   2.261
 1150SOL    HW1 3599   3.940   4.873   2.180
 1150SOL    HW2 3600   4.062   4.843   2.263
 1151SOL     OW 3601   4.019   4.643   2.524
 1151SOL    HW1 3602   4.002   4.614   2.434
 1151SOL    HW2 3603   4.011   4.563   2.576
 1152SOL     OW 3604   4.479   5.149   2.715
 1152SOL    HW1 3605   4.443   5.064   2.738
 1152SOL    HW2 3606   4.560   5.155   2.766
 1153SOL     OW 3607   3.592   4.866   2.089
 1153SOL    HW1 3608   3.610   4.803   2.019
 1153SOL    HW2 3609   3.568   4.946   2.043
 1154SOL     OW 3610   3.626   5.185   2.710
 1154SOL    HW1 3611   3.613   5.230   2.626
 1154SOL    HW2 3612   3.719   5.197   2.730
 1155SOL     OW 3613   4.043   4.716   3.531
 1155SOL    HW1 3614   4.095   4.753   3.460
 1155SOL    HW2 3615   4.068   4.624   3.535
 1156SOL     OW 3616   3.528   4.615   3.534
 1156SOL    HW1 3617   3.485   4.568   3.462
 1156SOL    HW2 3618   3.471   4.691   3.550
 1157SOL     OW 3619   3.376   4.650   2.408
 1157SOL    HW1 3620   3.335   4.735   2.428
 1157SOL    HW2 3621   3.371   4.601   2.490
 1158SOL     OW 3622   4.649   4.967   2.172
 1158SOL    HW1 3623   4.670   4.884   2.215
 1158SOL    HW2 3624   4.661   5.033   2.240
 1159SOL     OW 3625   4.603   4.794   1.951
 1159SOL    HW1 3626   4.510   4.792   1.928
 1159SOL    HW2 3627   4.610   4.864   2.015
 1160SOL     OW 3628   3.348   5.082   2.734
 1160SOL    HW1 3629   3.336   5.013   2.799
 1160SOL    HW2 3630   3.442   5.102   2.736
 1161SOL     OW 3631   4.231   4.785   3.297
 1161SOL    HW1 3632   4.192   4.867   3.328
 1161SOL    HW2 3633   4.237   4.796   3.202
 1162SOL     OW 3634   3.220   5.092   3.517
 1162SOL    HW1 3635   3.250   5.025   3.456
 1162SOL    HW2 3636   3.232   5.174   3.470
 1163SOL     OW 3637   3.827   5.185   2.051
 1163SOL    HW1 3638   3.855   5.094   2.067
 1163SOL    HW2 3639   3.763   5.202   2.120
 1164SOL     OW 3640   3.927   4.676   1.885
 1164SOL    HW1 3641   3.995   4.652   1.822
 1164SOL    HW2 3642   3.953   4.632   1.966
 1165SOL     OW 3643   4.713   4.719   2.276
 1165SOL    HW1 3644   4.792   4.713   2.222
 1165SOL    HW2 3645   4.717   4.642   2.333
 1166SOL     OW 3646   3.258   4.874   2.512
 1166SOL    HW1 3647   3.188   4.920   2.467
 1166SOL    HW2 3648   3.281   4.931   2.586
 1167SOL     OW 3649   4.062   4.831   2.709
 1167SOL    HW1 3650   4.058   4.778   2.630
 1167SOL    HW2 3651   4.036   4.772   2.779
 1168SOL     OW 3652   3.693   4.789   3.305
 1168SOL    HW1 3653   3.775   4.781   3.255
 1168SOL    HW2 3654   3.721   4.812   3.394
 1169SOL     OW 3655   3.101   4.940   1.823
 1169SOL    HW1 3656   3.023   4.906   1.779
 1169SOL    HW2 3657   3.135   5.006   1.763
 1170SOL     OW 3658   3.132   4.753   2.127
 1170SOL    HW1 3659   3.100   4.811   2.058
 1170SOL    HW2 3660   3.218   4.724   2.096
 1171SOL     OW 3661   3.715   5.155   3.525
 1171SOL    HW1 3662   3.796   5.206   3.534
 1171SOL    HW2 3663   3.746   5.064   3.522
 1172SOL     OW 3664   4.239   4.895   2.236
 1172SOL    HW1 3665   4.306   4.828   2.220
 1172SOL    HW2 3666   4.264   4.933   2.320
 1173SOL     OW 3667   3.653   5.326   2.458
 1173SOL    HW1 3668   3.666   5.380   2.380
 1173SOL    HW2 3669   3.560   5.304   2.457
 1174SOL     OW 3670   4.781   4.936   3.470
 1174SOL    HW1 3671   4.845   4.894   3.411
 1174SOL    HW2 3672   4.711   4.871   3.479
 1175SOL     OW 3673   3.423   5.004   2.259
 1175SOL    HW1 3674   3.480   4.940   2.216
 1175SOL    HW2 3675   3.420   4.976   2.351
 1176SOL     OW 3676   4.368   4.637   1.958
 1176SOL    HW1 3677   4.394   4.591   1.878
 1176SOL    HW2 3678   4.279   4.605   1.976
 1177SOL     OW 3679   4.313   5.011   2.471
 1177SOL    HW1 3680   4.278   5.099   2.456
 1177SOL    HW2 3681   4.317   5.003   2.567
 1178SOL     OW 3682   4.628   4.771   2.670
 1178SOL    HW1 3683   4.574   4.819   2.733
 1178SOL    HW2 3684   4.644   4.835   2.600
 1179SOL     OW 3685   4.198   5.323   4.352
 1179SOL    HW1 3686   4.208   5.418   4.360
 1179SOL    HW2 3687   4.111   5.305   4.387
 1180SOL     OW 3688   4.799   5.159   3.874
 1180SOL    HW1 3689   4.768   5.139   3.786
 1180SOL    HW2 3690   4.766   5.087   3.928
 1181SOL     OW 3691   3.827   4.598   4.103
 1181SOL    HW1 3692   3.885   4.668   4.135
 1181SOL    HW2 3693   3.762   4.588   4.172
 1182SOL     OW 3694   3.886   4.924   3.809
 1182SOL    HW1 3695   3.959   4.984   3.795
 1182SOL    HW2 3696   3.926   4.845   3.844
 1183SOL     OW 3697   4.440   4.716   4.060
 1183SOL    HW1 3698   4.440   4.664   3.979
 1183SOL    HW2 3699   4.526   4.700   4.098
 1184SOL     OW 3700   3.388   5.274   4.151
 1184SOL    HW1 3701   3.418   5.184   4.136
 1184SOL    HW2 3702   3.343   5.298   4.069
 1185SOL     OW 3703   3.657   4.695   3.761
 1185SOL    HW1 3704   3.739   4.646   3.769
 1185SOL    HW2 3705   3.620   4.666   3.678
 1186SOL     OW 3706   3.329   4.639   3.832
 1186SOL    HW1 3707   3.387   4.694   3.780
 1186SOL    HW2 3708   3.386   4.571   3.868
 1187SOL     OW 3709   3.959   4.840   4.171
 1187SOL    HW1 3710   3.920   4.868   4.088
 1187SOL    HW2 3711   4.053   4.849   4.158
 1188SOL     OW 3712   3.575   4.860   3.964
 1188SOL    HW1 3713   3.608   4.794   3.902
 1188SOL    HW2 3714   3.559   4.937   3.910
 1189SOL     OW 3715   4.653   4.964   4.022
 1189SOL    HW1 3716   4.666   4.881   4.067
 1189SOL    HW2 3717   4.658   5.030   4.090
 1190SOL     OW 3718   4.600   4.812   3.792
 1190SOL    HW1 3719   4.509   4.786   3.803
 1190SOL    HW2 3720   4.619   4.867   3.868
 1191SOL     OW 3721   4.376   5.411   3.737
 1191SOL    HW1 3722   4.391   5.323   3.702
 1191SOL    HW2 3723   4.347   5.463   3.661
 1192SOL     OW 3724   3.855   5.176   3.915
 1192SOL    HW1 3725   3.825   5.087   3.895
 1192SOL    HW2 3726   3.783   5.214   3.966
 1193SOL     OW 3727   4.719   4.714   4.132
 1193SOL    HW1 3728   4.804   4.724   4.090
 1193SOL    HW2 3729   4.723   4.629   4.175
 1194SOL     OW 3730   3.104   4.923   3.693
 1194SOL    HW1 3731   3.052   4.888   3.621
 1194SOL    HW2 3732   3.143   5.003   3.658
 1195SOL     OW 3733   3.122   4.756   3.979
 1195SOL    HW1 3734   3.115   4.845   3.945
 1195SOL    HW2 3735   3.200   4.720   3.936
 1196SOL     OW 3736   4.232   4.875   4.136
 1196SOL    HW1 3737   4.299   4.812   4.109
 1196SOL    HW2 3738   4.281   4.949   4.172
 1197SOL     OW 3739   3.442   5.005   4.148
 1197SOL    HW1 3740   3.491   4.950   4.087
 1197SOL    HW2 3741   3.478   4.985   4.234
 1198SOL     OW 3742   4.391   4.621   3.804
 1198SOL    HW1 3743   4.422   4.553   3.744
 1198SOL    HW2 3744   4.307   4.588   3.835
 1199SOL     OW 3745   0.241   0.639   0.123
 1199SOL    HW1 3746   0.153   0.625   0.158
 1199SOL    HW2 3747   0.242   0.591   0.040
 1200SOL     OW 3748   0.208   0.307   1.000
 1200SOL    HW1 3749   0.249   0.252   1.067
 1200SOL    HW2 3750   0.124   0.264   0.983
 1201SOL     OW 3751   0.011   0.388   0.617
 1201SOL    HW1 3752   5.951   0.406   0.690
 1201SOL    HW2 3753   5.968   0.318   0.568
 1202SOL     OW 3754   0.567   1.292   1.179
 1202SOL    HW1 3755   0.478   1.295   1.142
 1202SOL    HW2 3756   0.582   1.381   1.213
 1203SOL     OW 3757   1.565   1.514   0.708
 1203SOL    HW1 3758   1.522   1.491   0.791
 1203SOL    HW2 3759   1.494   1.518   0.644
 1204SOL     OW 3760   1.132   0.697   0.698
 1204SOL    HW1 3761   1.181   0.779   0.687
 1204SOL    HW2 3762   1.084   0.709   0.780
 1205SOL     OW 3763   1.784   0.597   0.247
 1205SOL    HW1 3764   1.737   0.611   0.165
 1205SOL    HW2 3765   1.743   0.520   0.285
 1206SOL     OW 3766   0.751   1.140   1.044
 1206SOL    HW1 3767   0.684   1.177   1.101
 1206SOL    HW2 3768   0.789   1.215   0.999
 1207SOL     OW 3769   0.865   0.775   1.822
 1207SOL    HW1 3770   0.862   0.844   1.888
 1207SOL    HW2 3771   0.890   0.819   1.741
 1208SOL     OW 3772   0.687   0.999   0.645
 1208SOL    HW1 3773   0.753   0.988   0.714
 1208SOL    HW2 3774   0.621   1.056   0.684
 1209SOL     OW 3775   0.713   1.150   1.813
 1209SOL    HW1 3776   0.760   1.227   1.844
 1209SOL    HW2 3777   0.631   1.184   1.778
 1210SOL     OW 3778   0.330   1.421   1.066
 1210SOL    HW1 3779   0.258   1.384   1.015
 1210SOL    HW2 3780   0.381   1.472   1.003
 1211SOL     OW 3781   1.461   1.504   1.354
 1211SOL    HW1 3782   1.517   1.582   1.359
 1211SOL    HW2 3783   1.405   1.511   1.431
 1212SOL     OW 3784   0.445   0.397   1.493
 1212SOL    HW1 3785   0.526   0.347   1.494
 1212SOL    HW2 3786   0.375   0.332   1.501
 1213SOL     OW 3787   1.610   0.456   0.736
 1213SOL    HW1 3788   1.536   0.476   0.679
 1213SOL    HW2 3789   1.628   0.537   0.783
 1214SOL     OW 3790   0.238   1.712   0.489
 1214SOL    HW1 3791   0.256   1.792   0.539
 1214SOL    HW2 3792   0.316   1.700   0.434
 1215SOL     OW 3793   0.236   1.440   0.533
 1215SOL    HW1 3794   0.211   1.532   0.543
 1215SOL    HW2 3795   0.172   1.392   0.587
 1216SOL     OW 3796   0.261   1.093   0.909
 1216SOL    HW1 3797   0.260   1.018   0.968
 1216SOL    HW2 3798   0.202   1.156   0.949
 1217SOL     OW 3799   0.610   1.792   1.429
 1217SOL    HW1 3800   0.528   1.773   1.474
 1217SOL    HW2 3801   0.633   1.881   1.455
 1218SOL     OW 3802   0.610   0.968   0.130
 1218SOL    HW1 3803   0.559   1.038   0.088
 1218SOL    HW2 3804   0.653   1.010   0.204
 1219SOL     OW 3805   1.656   0.101   1.502
 1219SOL    HW1 3806   1.591   0.127   1.437
 1219SOL    HW2 3807   1.630   0.146   1.582
 1220SOL     OW 3808   0.132   0.644   0.574
 1220SOL    HW1 3809   0.089   0.559   0.573
 1220SOL    HW2 3810   0.070   0.702   0.619
 1221SOL     OW 3811   1.847   1.761   0.335
 1221SOL    HW1 3812   1.913   1.730   0.397
 1221SOL    HW2 3813   1.866   1.854   0.325
 1222SOL     OW 3814   5.987   1.568   0.103
 1222SOL    HW1 3815   0.004   1.475   0.122
 1222SOL    HW2 3816   5.989   1.610   0.188
 1223SOL     OW 3817   1.693   0.902   0.654
 1223SOL    HW1 3818   1.777   0.860   0.634
 1223SOL    HW2 3819   1.672   0.952   0.575
 1224SOL     OW 3820   1.639   1.090   0.458
 1224SOL    HW1 3821   1.672   1.149   0.390
 1224SOL    HW2 3822   1.643   1.141   0.539
 1225SOL     OW 3823   0.088   0.740   1.655
 1225SOL    HW1 3824   0.171   0.763   1.698
 1225SOL    HW2 3825   0.079   0.804   1.585
 1226SOL     OW 3826   0.619   1.392   0.734
 1226SOL    HW1 3827   0.576   1.307   0.744
 1226SOL    HW2 3828   0.601   1.417   0.643
 1227SOL     OW 3829   1.286   1.241   1.430
 1227SOL    HW1 3830   1.313   1.175   1.366
 1227SOL    HW2 3831   1.353   1.236   1.499
 1228SOL     OW 3832   0.817   0.004   0.563
 1228SOL    HW1 3833   0.848   0.086   0.525
 1228SOL    HW2 3834   0.722   0.008   0.555
 1229SOL     OW 3835   0.200   0.980   1.182
 1229SOL    HW1 3836   0.288   0.945   1.192
 1229SOL    HW2 3837   0.142   0.910   1.214
 1230SOL     OW 3838   1.463   1.038   0.228
 1230SOL    HW1 3839   1.408   0.964   0.255
 1230SOL    HW2 3840   1.542   1.030   0.280
 1231SOL     OW 3841   1.177   1.813   1.623
 1231SOL    HW1 3842   1.193   1.868   1.546
 1231SOL    HW2 3843   1.195   1.724   1.593
 1232SOL     OW 3844   0.324   0.252   1.817
 1232SOL    HW1 3845   0.373   0.334   1.829
 1232SOL    HW2 3846   0.236   0.272   1.848
 1233SOL     OW 3847   1.467   1.419   0.950
 1233SOL    HW1 3848   1.399   1.435   1.015
 1233SOL    HW2 3849   1.455   1.328   0.924
 1234SOL     OW 3850   1.657   1.745   0.579
 1234SOL    HW1 3851   1.639   1.713   0.490
 1234SOL    HW2 3852   1.635   1.670   0.635
 1235SOL     OW 3853   0.599   0.733   0.277
 1235SOL    HW1 3854   0.609   0.813   0.225
 1235SOL    HW2 3855   0.531   0.755   0.341
 1236SOL     OW 3856   1.299   0.367   0.935
 1236SOL    HW1 3857   1.210   0.334   0.934
 1236SOL    HW2 3858   1.347   0.305   0.992
 1237SOL     OW 3859   1.583   1.672   0.310
 1237SOL    HW1 3860   1.676   1.692   0.305
 1237SOL    HW2 3861   1.557   1.653   0.220
 1238SOL     OW 3862   0.799   0.617   1.457
 1238SOL    HW1 3863   0.769   0.594   1.545
 1238SOL    HW2 3864   0.756   0.554   1.399
 1239SOL     OW 3865   1.395   0.473   1.680
 1239SOL    HW1 3866   1.396   0.522   1.762
 1239SOL    HW2 3867   1.465   0.408   1.690
 1240SOL     OW 3868   0.953   0.889   1.583
 1240SOL    HW1 3869   1.010   0.820   1.549
 1240SOL    HW2 3870   0.904   0.921   1.507
 1241SOL     OW 3871   0.984   0.399   1.238
 1241SOL    HW1 3872   0.907   0.435   1.282
 1241SOL    HW2 3873   0.947   0.348   1.165
 1242SOL     OW 3874   1.055   0.692   0.427
 1242SOL    HW1 3875   1.074   0.690   0.521
 1242SOL    HW2 3876   0.971   0.646   0.419
 1243SOL     OW 3877   0.073   0.823   0.800
 1243SOL    HW1 3878   0.158   0.816   0.844
 1243SOL    HW2 3879   0.085   0.892   0.736
 1244SOL     OW 3880   0.120   1.867   1.575
 1244SOL    HW1 3881   0.125   1.841   1.667
 1244SOL    HW2 3882   0.035   1.834   1.546
 1245SOL     OW 3883   0.847   0.396   0.175
 1245SOL    HW1 3884   0.920   0.427   0.122
 1245SOL    HW2 3885   0.869   0.305   0.194
 1246SOL     OW 3886   1.716   0.569   1.826
 1246SOL    HW1 3887   1.675   0.643   1.782
 1246SOL    HW2 3888   1.741   0.510   1.755
 1247SOL     OW 3889   1.374   1.142   0.540
 1247SOL    HW1 3890   1.452   1.123   0.488
 1247SOL    HW2 3891   1.325   1.205   0.488
 1248SOL     OW 3892   0.555   0.212   0.888
 1248SOL    HW1 3893   0.542   0.233   0.981
 1248SOL    HW2 3894   0.552   0.297   0.844
 1249SOL     OW 3895   1.011   1.451   0.476
 1249SOL    HW1 3896   0.970   1.520   0.424
 1249SOL    HW2 3897   0.982   1.468   0.566
 1250SOL     OW 3898   0.352   1.810   0.872
 1250SOL    HW1 3899   0.397   1.726   0.875
 1250SOL    HW2 3900   0.420   1.875   0.888
 1251SOL     OW 3901   1.804   1.055   0.872
 1251SOL    HW1 3902   1.751   1.036   0.794
 1251SOL    HW2 3903   1.740   1.060   0.943
 1252SOL     OW 3904   1.223   1.539   1.514
 1252SOL    HW1 3905   1.234   1.449   1.545
 1252SOL    HW2 3906   1.158   1.532   1.444
 1253SOL     OW 3907   0.306   0.946   0.261
 1253SOL    HW1 3908   0.355   0.993   0.194
 1253SOL    HW2 3909   0.306   0.855   0.231
 1254SOL     OW 3910   1.477   0.745   0.728
 1254SOL    HW1 3911   1.473   0.704   0.814
 1254SOL    HW2 3912   1.557   0.797   0.730
 1255SOL     OW 3913   0.467   1.262   1.742
 1255SOL    HW1 3914   0.442   1.269   1.649
 1255SOL    HW2 3915   0.383   1.263   1.788
 1256SOL     OW 3916   1.108   1.780   0.220
 1256SOL    HW1 3917   1.050   1.732   0.279
 1256SOL    HW2 3918   1.150   1.713   0.167
 1257SOL     OW 3919   0.190   0.278   1.502
 1257SOL    HW1 3920   0.122   0.344   1.484
 1257SOL    HW2 3921   0.169   0.245   1.590
 1258SOL     OW 3922   1.616   1.372   0.050
 1258SOL    HW1 3923   1.601   1.466   0.044
 1258SOL    HW2 3924   1.533   1.333   0.021
 1259SOL     OW 3925   0.471   1.738   0.334
 1259SOL    HW1 3926   0.520   1.793   0.395
 1259SOL    HW2 3927   0.535   1.715   0.266
 1260SOL     OW 3928   1.426   0.136   0.413
 1260SOL    HW1 3929   1.415   0.099   0.326
 1260SOL    HW2 3930   1.520   0.127   0.431
 1261SOL     OW 3931   0.250   1.784   1.234
 1261SOL    HW1 3932   0.301   1.716   1.278
 1261SOL    HW2 3933   0.254   1.762   1.142
 1262SOL     OW 3934   0.939   1.699   0.900
 1262SOL    HW1 3935   1.018   1.650   0.920
 1262SOL    HW2 3936   0.896   1.649   0.831
 1263SOL     OW 3937   0.393   0.696   0.477
 1263SOL    HW1 3938   0.416   0.603   0.485
 1263SOL    HW2 3939   0.300   0.699   0.500
 1264SOL     OW 3940   1.547   0.220   1.732
 1264SOL    HW1 3941   1.544   0.252   1.822
 1264SOL    HW2 3942   1.473   0.159   1.726
 1265SOL     OW 3943   0.611   0.097   0.112
 1265SOL    HW1 3944   0.700   0.072   0.086
 1265SOL    HW2 3945   0.579   0.150   0.039
 1266SOL     OW 3946   0.761   0.264   1.759
 1266SOL    HW1 3947   0.840   0.210   1.768
 1266SOL    HW2 3948   0.746   0.300   1.846
 1267SOL     OW 3949   0.877   1.524   1.193
 1267SOL    HW1 3950   0.861   1.487   1.107
 1267SOL    HW2 3951   0.947   1.470   1.230
 1268SOL     OW 3952   1.341   0.591   1.435
 1268SOL    HW1 3953   1.373   0.561   1.520
 1268SOL    HW2 3954   1.376   0.680   1.426
 1269SOL     OW 3955   0.817   1.394   0.943
 1269SOL    HW1 3956   0.902   1.382   0.899
 1269SOL    HW2 3957   0.754   1.398   0.871
 1270SOL     OW 3958   0.930   0.513   0.906
 1270SOL    HW1 3959   0.903   0.506   0.814
 1270SOL    HW2 3960   0.964   0.426   0.927
 1271SOL     OW 3961   0.547   0.046   0.493
 1271SOL    HW1 3962   0.473   0.039   0.553
 1271SOL    HW2 3963   0.536   0.131   0.451
 1272SOL     OW 3964   1.394   1.213   0.026
 1272SOL    HW1 3965   1.421   1.147   0.089
 1272SOL    HW2 3966   1.316   1.253   0.065
 1273SOL     OW 3967   0.318   0.067   0.215
 1273SOL    HW1 3968   0.397   0.118   0.230
 1273SOL    HW2 3969   0.346   5.976   0.227
 1274SOL     OW 3970   0.966   0.259   0.515
 1274SOL    HW1 3971   0.920   0.241   0.432
 1274SOL    HW2 3972   1.056   0.276   0.489
 1275SOL     OW 3973   1.080   0.684   1.456
 1275SOL    HW1 3974   1.012   0.619   1.469
 1275SOL    HW2 3975   1.162   0.634   1.457
 1276SOL     OW 3976   1.220   1.574   0.797
 1276SOL    HW1 3977   1.236   1.636   0.727
 1276SOL    HW2 3978   1.292   1.587   0.859
 1277SOL     OW 3979   0.476   1.157   0.735
 1277SOL    HW1 3980   0.404   1.143   0.796
 1277SOL    HW2 3981   0.436   1.153   0.648
 1278SOL     OW 3982   1.266   1.796   0.609
 1278SOL    HW1 3983   1.314   1.859   0.555
 1278SOL    HW2 3984   1.199   1.849   0.652
 1279SOL     OW 3985   1.041   0.548   0.044
 1279SOL    HW1 3986   0.959   0.588   0.016
 1279SOL    HW2 3987   1.064   0.594   0.124
 1280SOL     OW 3988   0.086   0.543   1.412
 1280SOL    HW1 3989   0.172   0.551   1.371
 1280SOL    HW2 3990   0.070   0.628   1.452
 1281SOL     OW 3991   0.550   0.243   1.170
 1281SOL    HW1 3992   0.583   0.166   1.216
 1281SOL    HW2 3993   0.456   0.244   1.190
 1282SOL     OW 3994   0.860   0.476   0.645
 1282SOL    HW1 3995   0.818   0.520   0.571
 1282SOL    HW2 3996   0.897   0.396   0.607
 1283SOL     OW 3997   0.998   0.042   0.774
 1283SOL    HW1 3998   0.940   0.036   0.698
 1283SOL    HW2 3999   0.993   5.956   0.815
 1284SOL     OW 4000   1.438   1.160   0.859
 1284SOL    HW1 4001   1.368   1.095   0.850
 1284SOL    HW2 4002   1.469   1.173   0.769
 1285SOL     OW 4003   1.464   0.607   0.974
 1285SOL    HW1 4004   1.411   0.527   0.973
 1285SOL    HW2 4005   1.521   0.598   1.050
 1286SOL     OW 4006   1.867   0.819   0.396
 1286SOL    HW1 4007   1.922   0.763   0.451
 1286SOL    HW2 4008   1.827   0.758   0.334
 1287SOL     OW 4009   0.488   1.415   0.159
 1287SOL    HW1 4010   0.415   1.386   0.214
 1287SOL    HW2 4011   0.480   1.363   0.079
 1288SOL     OW 4012   1.669   1.258   0.668
 1288SOL    HW1 4013   1.765   1.263   0.664
 1288SOL    HW2 4014   1.640   1.350   0.670
 1289SOL     OW 4015   1.416   0.585   0.096
 1289SOL    HW1 4016   1.359   0.574   0.172
 1289SOL    HW2 4017   1.465   0.503   0.091
 1290SOL     OW 4018   0.530   0.259   0.313
 1290SOL    HW1 4019   0.560   0.214   0.235
 1290SOL    HW2 4020   0.513   0.349   0.285
 1291SOL     OW 4021   1.763   1.234   1.569
 1291SOL    HW1 4022   1.851   1.201   1.551
 1291SOL    HW2 4023   1.776   1.324   1.600
 1292SOL     OW 4024   1.056   1.355   1.335
 1292SOL    HW1 4025   0.979   1.323   1.382
 1292SOL    HW2 4026   1.130   1.310   1.374
 1293SOL     OW 4027   1.592   1.612   1.642
 1293SOL    HW1 4028   1.598   1.654   1.556
 1293SOL    HW2 4029   1.674   1.563   1.651
 1294SOL     OW 4030   1.130   1.209   1.104
 1294SOL    HW1 4031   1.065   1.246   1.165
 1294SOL    HW2 4032   1.102   1.241   1.018
 1295SOL     OW 4033   1.625   1.095   1.077
 1295SOL    HW1 4034   1.618   1.158   1.149
 1295SOL    HW2 4035   1.549   1.113   1.022
 1296SOL     OW 4036   0.896   0.095   1.402
 1296SOL    HW1 4037   0.922   0.063   1.315
 1296SOL    HW2 4038   0.975   0.136   1.436
 1297SOL     OW 4039   0.988   1.120   1.721
 1297SOL    HW1 4040   0.898   1.144   1.742
 1297SOL    HW2 4041   0.980   1.044   1.663
 1298SOL     OW 4042   0.713   1.065   0.371
 1298SOL    HW1 4043   0.690   1.051   0.462
 1298SOL    HW2 4044   0.781   0.999   0.353
 1299SOL     OW 4045   0.430   0.823   1.240
 1299SOL    HW1 4046   0.497   0.829   1.308
 1299SOL    HW2 4047   0.389   0.738   1.253
 1300SOL     OW 4048   1.261   0.379   1.281
 1300SOL    HW1 4049   1.291   0.460   1.321
 1300SOL    HW2 4050   1.173   0.398   1.249
 1301SOL     OW 4051   0.066   1.592   1.337
 1301SOL    HW1 4052   0.092   1.674   1.294
 1301SOL    HW2 4053   0.148   1.555   1.369
 1302SOL     OW 4054   0.396   1.133   0.467
 1302SOL    HW1 4055   0.366   1.203   0.408
 1302SOL    HW2 4056   0.371   1.052   0.422
 1303SOL     OW 4057   0.561   0.522   0.855
 1303SOL    HW1 4058   0.569   0.582   0.781
 1303SOL    HW2 4059   0.624   0.555   0.919
 1304SOL     OW 4060   1.256   1.351   0.394
 1304SOL    HW1 4061   1.305   1.426   0.429
 1304SOL    HW2 4062   1.166   1.364   0.424
 1305SOL     OW 4063   1.281   1.459   1.147
 1305SOL    HW1 4064   1.337   1.462   1.225
 1305SOL    HW2 4065   1.228   1.381   1.159
 1306SOL     OW 4066   1.579   0.629   0.485
 1306SOL    HW1 4067   1.531   0.684   0.547
 1306SOL    HW2 4068   1.609   0.690   0.418
 1307SOL     OW 4069   0.344   1.527   1.316
 1307SOL    HW1 4070   0.330   1.483   1.232
 1307SOL    HW2 4071   0.439   1.538   1.322
 1308SOL     OW 4072   0.422   0.729   1.596
 1308SOL    HW1 4073   0.489   0.775   1.545
 1308SOL    HW2 4074   0.462   0.645   1.617
 1309SOL     OW 4075   1.610   0.777   1.684
 1309SOL    HW1 4076   1.526   0.822   1.689
 1309SOL    HW2 4077   1.658   0.824   1.616
 1310SOL     OW 4078   1.002   0.122   1.778
 1310SOL    HW1 4079   1.055   0.197   1.750
 1310SOL    HW2 4080   0.994   0.068   1.700
 1311SOL     OW 4081   0.474   0.038   1.747
 1311SOL    HW1 4082   0.487   0.027   1.653
 1311SOL    HW2 4083   0.422   0.118   1.756
 1312SOL     OW 4084   0.591   0.880   1.023
 1312SOL    HW1 4085   0.625   0.970   1.028
 1312SOL    HW2 4086   0.536   0.872   1.101
 1313SOL     OW 4087   1.353   0.859   1.029
 1313SOL    HW1 4088   1.271   0.848   0.982
 1313SOL    HW2 4089   1.397   0.774   1.021
 1314SOL     OW 4090   1.219   0.524   0.278
 1314SOL    HW1 4091   1.225   0.445   0.332
 1314SOL    HW2 4092   1.174   0.588   0.334
 1315SOL     OW 4093   0.289   0.208   1.256
 1315SOL    HW1 4094   0.254   0.232   1.342
 1315SOL    HW2 4095   0.307   0.114   1.263
 1316SOL     OW 4096   0.061   1.312   1.269
 1316SOL    HW1 4097   0.083   1.272   1.353
 1316SOL    HW2 4098   0.048   1.405   1.289
 1317SOL     OW 4099   0.722   0.632   1.053
 1317SOL    HW1 4100   0.801   0.614   1.001
 1317SOL    HW2 4101   0.698   0.722   1.030
 1318SOL     OW 4102   0.314   0.049   0.648
 1318SOL    HW1 4103   0.300   0.141   0.672
 1318SOL    HW2 4104   0.230   0.007   0.665
 1319SOL     OW 4105   1.637   0.390   0.369
 1319SOL    HW1 4106   1.648   0.315   0.427
 1319SOL    HW2 4107   1.607   0.460   0.425
 1320SOL     OW 4108   1.032   0.760   0.960
 1320SOL    HW1 4109   1.026   0.779   1.054
 1320SOL    HW2 4110   1.005   0.669   0.952
 1321SOL     OW 4111   0.962   1.556   1.711
 1321SOL    HW1 4112   0.964   1.610   1.632
 1321SOL    HW2 4113   1.005   1.475   1.685
 1322SOL     OW 4114   1.849   1.501   1.604
 1322SOL    HW1 4115   1.869   1.531   1.516
 1322SOL    HW2 4116   1.913   1.545   1.660
 1323SOL     OW 4117   0.353   0.909   1.798
 1323SOL    HW1 4118   0.428   0.935   1.851
 1323SOL    HW2 4119   0.389   0.848   1.734
 1324SOL     OW 4120   1.525   0.336   0.130
 1324SOL    HW1 4121   1.510   0.242   0.125
 1324SOL    HW2 4122   1.567   0.350   0.214
 1325SOL     OW 4123   1.293   0.816   0.024
 1325SOL    HW1 4124   1.343   0.737   0.046
 1325SOL    HW2 4125   1.337   0.852   5.947
 1326SOL     OW 4126   1.069   1.336   0.855
 1326SOL    HW1 4127   1.072   1.266   0.791
 1326SOL    HW2 4128   1.128   1.403   0.820
 1327SOL     OW 4129   0.322   0.804   0.936
 1327SOL    HW1 4130   0.414   0.830   0.930
 1327SOL    HW2 4131   0.323   0.726   0.991
 1328SOL     OW 4132   0.351   0.534   1.026
 1328SOL    HW1 4133   0.302   0.452   1.014
 1328SOL    HW2 4134   0.424   0.528   0.964
 1329SOL     OW 4135   1.134   0.378   1.690
 1329SOL    HW1 4136   1.088   0.436   1.750
 1329SOL    HW2 4137   1.223   0.413   1.685
 1330SOL     OW 4138   1.136   0.206   1.481
 1330SOL    HW1 4139   1.128   0.271   1.551
 1330SOL    HW2 4140   1.150   0.257   1.402
 1331SOL     OW 4141   0.001   1.306   0.192
 1331SOL    HW1 4142   5.906   1.317   0.203
 1331SOL    HW2 4143   0.019   1.218   0.225
 1332SOL     OW 4144   0.072   1.800   0.898
 1332SOL    HW1 4145   0.058   1.705   0.901
 1332SOL    HW2 4146   0.167   1.810   0.892
 1333SOL     OW 4147   0.496   1.574   0.906
 1333SOL    HW1 4148   0.564   1.636   0.931
 1333SOL    HW2 4149   0.540   1.512   0.847
 1334SOL     OW 4150   0.977   0.793   1.226
 1334SOL    HW1 4151   1.036   0.772   1.298
 1334SOL    HW2 4152   0.894   0.753   1.250
 1335SOL     OW 4153   0.013   0.587   1.129
 1335SOL    HW1 4154   0.039   0.525   1.060
 1335SOL    HW2 4155   0.036   0.543   1.211
 1336SOL     OW 4156   0.190   0.501   1.724
 1336SOL    HW1 4157   0.254   0.482   1.656
 1336SOL    HW2 4158   0.137   0.572   1.688
 1337SOL     OW 4159   1.382   0.936   1.664
 1337SOL    HW1 4160   1.356   1.028   1.674
 1337SOL    HW2 4161   1.384   0.922   1.570
 1338SOL     OW 4162   0.811   0.578   0.372
 1338SOL    HW1 4163   0.814   0.510   0.305
 1338SOL    HW2 4164   0.739   0.636   0.345
 1339SOL     OW 4165   1.639   0.603   1.187
 1339SOL    HW1 4166   1.632   0.544   1.261
 1339SOL    HW2 4167   1.726   0.587   1.150
 1340SOL     OW 4168   0.278   1.557   1.736
 1340SOL    HW1 4169   0.219   1.615   1.784
 1340SOL    HW2 4170   0.257   1.469   1.768
 1341SOL     OW 4171   0.698   0.461   1.264
 1341SOL    HW1 4172   0.636   0.390   1.245
 1341SOL    HW2 4173   0.693   0.518   1.187
 1342SOL     OW 4174   0.930   1.679   1.461
 1342SOL    HW1 4175   0.900   1.644   1.377
 1342SOL    HW2 4176   0.922   1.774   1.452
 1343SOL     OW 4177   0.477   0.500   0.205
 1343SOL    HW1 4178   0.533   0.575   0.225
 1343SOL    HW2 4179   0.391   0.538   0.186
 1344SOL     OW 4180   0.184   1.124   1.455
 1344SOL    HW1 4181   0.139   1.099   1.536
 1344SOL    HW2 4182   0.139   1.076   1.386
 1345SOL     OW 4183   1.322   1.051   1.223
 1345SOL    HW1 4184   1.347   0.987   1.156
 1345SOL    HW2 4185   1.254   1.103   1.181
 1346SOL     OW 4186   1.289   0.840   0.312
 1346SOL    HW1 4187   1.213   0.804   0.359
 1346SOL    HW2 4188   1.271   0.822   0.220
 1347SOL     OW 4189   1.774   1.743   1.150
 1347SOL    HW1 4190   1.836   1.768   1.081
 1347SOL    HW2 4191   1.750   1.653   1.128
 1348SOL     OW 4192   1.241   1.734   1.110
 1348SOL    HW1 4193   1.323   1.756   1.067
 1348SOL    HW2 4194   1.247   1.640   1.129
 1349SOL     OW 4195   0.071   1.271   1.003
 1349SOL    HW1 4196   0.069   1.271   1.099
 1349SOL    HW2 4197   0.001   1.212   0.977
 1350SOL     OW 4198   0.677   1.669   1.735
 1350SOL    HW1 4199   0.621   1.746   1.723
 1350SOL    HW2 4200   0.746   1.678   1.669
 1351SOL     OW 4201   0.910   5.986   0.135
 1351SOL    HW1 4202   0.946   0.059   0.085
 1351SOL    HW2 4203   0.967   5.979   0.212
 1352SOL     OW 4204   1.704   0.147   0.481
 1352SOL    HW1 4205   1.784   0.136   0.430
 1352SOL    HW2 4206   1.710   0.081   0.550
 1353SOL     OW 4207   1.392   1.573   0.492
 1353SOL    HW1 4208   1.452   1.604   0.424
 1353SOL    HW2 4209   1.344   1.651   0.519
 1354SOL     OW 4210   0.135   1.789   1.836
 1354SOL    HW1 4211   0.080   1.725   1.880
 1354SOL    HW2 4212   0.183   1.833   1.907
 1355SOL     OW 4213   1.276   0.928   0.675
 1355SOL    HW1 4214   1.350   0.868   0.682
 1355SOL    HW2 4215   1.309   1.000   0.620
 1356SOL     OW 4216   0.809   1.275   1.426
 1356SOL    HW1 4217   0.781   1.314   1.509
 1356SOL    HW2 4218   0.738   1.296   1.365
 1357SOL     OW 4219   0.671   1.612   0.161
 1357SOL    HW1 4220   0.673   1.613   0.066
 1357SOL    HW2 4221   0.617   1.537   0.184
 1358SOL     OW 4222   1.626   1.729   1.388
 1358SOL    HW1 4223   1.676   1.737   1.307
 1358SOL    HW2 4224   1.611   1.819   1.416
 1359SOL     OW 4225   1.848   0.142   0.964
 1359SOL    HW1 4226   1.865   0.067   0.906
 1359SOL    HW2 4227   1.762   0.175   0.936
 1360SOL     OW 4228   0.261   0.312   0.718
 1360SOL    HW1 4229   0.182   0.353   0.682
 1360SOL    HW2 4230   0.253   0.323   0.812
 1361SOL     OW 4231   1.224   1.601   0.042
 1361SOL    HW1 4232   1.202   1.510   0.066
 1361SOL    HW2 4233   1.168   1.620   5.967
 1362SOL     OW 4234   0.822   1.006   1.371
 1362SOL    HW1 4235   0.869   1.000   1.287
 1362SOL    HW2 4236   0.821   1.099   1.391
 1363SOL     OW 4237   0.911   0.895   0.298
 1363SOL    HW1 4238   0.959   0.912   0.217
 1363SOL    HW2 4239   0.958   0.823   0.340
 1364SOL     OW 4240   1.497   1.637   0.043
 1364SOL    HW1 4241   1.403   1.620   0.037
 1364SOL    HW2 4242   1.525   1.656   5.954
 1365SOL     OW 4243   0.383   1.307   1.491
 1365SOL    HW1 4244   0.359   1.384   1.439
 1365SOL    HW2 4245   0.314   1.243   1.471
 1366SOL     OW 4246   1.610   1.284   1.280
 1366SOL    HW1 4247   1.666   1.269   1.356
 1366SOL    HW2 4248   1.549   1.352   1.309
 1367SOL     OW 4249   1.054   1.108   0.706
 1367SOL    HW1 4250   0.984   1.055   0.746
 1367SOL    HW2 4251   1.120   1.044   0.680
 1368SOL     OW 4252   1.058   0.242   0.947
 1368SOL    HW1 4253   1.046   0.181   0.875
 1368SOL    HW2 4254   0.988   0.222   1.008
 1369SOL     OW 4255   0.610   1.493   0.477
 1369SOL    HW1 4256   0.653   1.438   0.412
 1369SOL    HW2 4257   0.534   1.529   0.432
 1370SOL     OW 4258   1.716   0.402   1.372
 1370SOL    HW1 4259   1.795   0.455   1.374
 1370SOL    HW2 4260   1.741   0.323   1.323
 1371SOL     OW 4261   0.266   1.332   0.291
 1371SOL    HW1 4262   0.176   1.327   0.257
 1371SOL    HW2 4263   0.257   1.373   0.377
 1372SOL     OW 4264   0.116   1.028   1.720
 1372SOL    HW1 4265   0.056   0.993   1.785
 1372SOL    HW2 4266   0.203   0.998   1.748
 1373SOL     OW 4267   0.668   0.231   1.498
 1373SOL    HW1 4268   0.735   0.176   1.458
 1373SOL    HW2 4269   0.695   0.239   1.589
 1374SOL     OW 4270   0.037   0.405   0.044
 1374SOL    HW1 4271   5.986   0.326   0.028
 1374SOL    HW2 4272   0.128   0.379   0.032
 1375SOL     OW 4273   1.428   0.862   1.399
 1375SOL    HW1 4274   1.379   0.923   1.344
 1375SOL    HW2 4275   1.517   0.862   1.362
 1376SOL     OW 4276   0.084   0.192   0.296
 1376SOL    HW1 4277   0.110   0.284   0.285
 1376SOL    HW2 4278   0.165   0.143   0.287
 1377SOL     OW 4279   1.172   1.344   0.128
 1377SOL    HW1 4280   1.083   1.311   0.130
 1377SOL    HW2 4281   1.203   1.337   0.219
 1378SOL     OW 4282   0.622   0.829   1.435
 1378SOL    HW1 4283   0.677   0.906   1.420
 1378SOL    HW2 4284   0.684   0.757   1.444
 1379SOL     OW 4285   1.484   1.780   0.980
 1379SOL    HW1 4286   1.506   1.843   0.911
 1379SOL    HW2 4287   1.568   1.758   1.021
 1380SOL     OW 4288   0.714   0.567   1.709
 1380SOL    HW1 4289   0.756   0.632   1.765
 1380SOL    HW2 4290   0.742   0.483   1.745
 1381SOL     OW 4291   1.486   1.221   1.615
 1381SOL    HW1 4292   1.457   1.217   1.706
 1381SOL    HW2 4293   1.582   1.223   1.621
 1382SOL     OW 4294   0.375   1.744   1.562
 1382SOL    HW1 4295   0.289   1.782   1.545
 1382SOL    HW2 4296   0.357   1.664   1.612
 1383SOL     OW 4297   1.671   0.880   1.261
 1383SOL    HW1 4298   1.664   0.795   1.219
 1383SOL    HW2 4299   1.660   0.943   1.189
 1384SOL     OW 4300   1.228   0.317   0.458
 1384SOL    HW1 4301   1.297   0.251   0.447
 1384SOL    HW2 4302   1.256   0.367   0.535
 1385SOL     OW 4303   0.584   0.738   0.675
 1385SOL    HW1 4304   0.627   0.821   0.658
 1385SOL    HW2 4305   0.522   0.727   0.603
 1386SOL     OW 4306   1.763   0.368   1.641
 1386SOL    HW1 4307   1.738   0.379   1.550
 1386SOL    HW2 4308   1.697   0.309   1.678
 1387SOL     OW 4309   1.763   0.940   1.517
 1387SOL    HW1 4310   1.742   1.033   1.529
 1387SOL    HW2 4311   1.740   0.921   1.426
 1388SOL     OW 4312   0.883   1.376   0.031
 1388SOL    HW1 4313   0.834   1.369   0.113
 1388SOL    HW2 4314   0.884   1.470   0.013
 1389SOL     OW 4315   0.662   1.789   0.943
 1389SOL    HW1 4316   0.643   1.880   0.920
 1389SOL    HW2 4317   0.757   1.782   0.937
 1390SOL     OW 4318   0.869   0.966   0.855
 1390SOL    HW1 4319   0.920   0.895   0.893
 1390SOL    HW2 4320   0.833   1.013   0.930
 1391SOL     OW 4321   1.075   0.967   0.087
 1391SOL    HW1 4322   1.051   1.020   0.011
 1391SOL    HW2 4323   1.155   0.922   0.060
 1392SOL     OW 4324   1.850   1.552   0.843
 1392SOL    HW1 4325   1.771   1.539   0.790
 1392SOL    HW2 4326   1.844   1.485   0.911
 1393SOL     OW 4327   0.220   1.304   1.851
 1393SOL    HW1 4328   0.151   1.254   1.806
 1393SOL    HW2 4329   0.192   1.306   1.942
 1394SOL     OW 4330   0.092   1.244   0.663
 1394SOL    HW1 4331   0.055   1.208   0.744
 1394SOL    HW2 4332   0.137   1.170   0.622
 1395SOL     OW 4333   0.681   1.405   1.629
 1395SOL    HW1 4334   0.600   1.363   1.658
 1395SOL    HW2 4335   0.679   1.491   1.669
 1396SOL     OW 4336   1.805   0.183   1.235
 1396SOL    HW1 4337   1.816   0.095   1.270
 1396SOL    HW2 4338   1.827   0.175   1.142
 1397SOL     OW 4339   0.430   0.430   0.527
 1397SOL    HW1 4340   0.460   0.358   0.472
 1397SOL    HW2 4341   0.382   0.388   0.598
 1398SOL     OW 4342   1.699   1.486   1.095
 1398SOL    HW1 4343   1.620   1.466   1.045
 1398SOL    HW2 4344   1.706   1.416   1.160
 1399SOL     OW 4345   0.336   0.568   1.302
 1399SOL    HW1 4346   0.387   0.506   1.354
 1399SOL    HW2 4347   0.349   0.538   1.211
 1400SOL     OW 4348   0.830   1.578   0.677
 1400SOL    HW1 4349   0.811   1.635   0.602
 1400SOL    HW2 4350   0.756   1.518   0.681
 1401SOL     OW 4351   1.434   0.224   1.123
 1401SOL    HW1 4352   1.479   0.165   1.184
 1401SOL    HW2 4353   1.373   0.274   1.177
 1402SOL     OW 4354   1.018   0.009   1.164
 1402SOL    HW1 4355   0.959   5.963   1.105
 1402SOL    HW2 4356   1.097   0.024   1.111
 1403SOL     OW 4357   0.778   1.332   0.308
 1403SOL    HW1 4358   0.743   1.244   0.319
 1403SOL    HW2 4359   0.867   1.327   0.344
 1404SOL     OW 4360   0.619   1.555   1.284
 1404SOL    HW1 4361   0.621   1.636   1.335
 1404SOL    HW2 4362   0.706   1.548   1.246
 1405SOL     OW 4363   1.340   0.084   0.143
 1405SOL    HW1 4364   1.397   0.008   0.133
 1405SOL    HW2 4365   1.259   0.048   0.180
 1406SOL     OW 4366   1.297   0.464   0.678
 1406SOL    HW1 4367   1.244   0.544   0.684
 1406SOL    HW2 4368   1.300   0.430   0.767
 1407SOL     OW 4369   1.600   0.228   0.892
 1407SOL    HW1 4370   1.537   0.236   0.964
 1407SOL    HW2 4371   1.591   0.310   0.843
 1408SOL     OW 4372   0.051   1.055   0.288
 1408SOL    HW1 4373   0.144   1.031   0.282
 1408SOL    HW2 4374   0.012   0.987   0.343
 1409SOL     OW 4375   0.886   1.658   0.340
 1409SOL    HW1 4376   0.811   1.635   0.286
 1409SOL    HW2 4377   0.855   1.729   0.396
 1410SOL     OW 4378   0.225   0.623   1.980
 1410SOL    HW1 4379   0.135   0.633   2.012
 1410SOL    HW2 4380   0.216   0.589   1.891
 1411SOL     OW 4381   0.142   0.266   2.746
 1411SOL    HW1 4382   0.158   0.197   2.810
 1411SOL    HW2 4383   0.050   0.257   2.723
 1412SOL     OW 4384   5.993   0.389   2.462
 1412SOL    HW1 4385   5.952   0.397   2.548
 1412SOL    HW2 4386   5.961   0.305   2.429
 1413SOL     OW 4387   0.460   1.258   3.292
 1413SOL    HW1 4388   0.427   1.204   3.220
 1413SOL    HW2 4389   0.519   1.321   3.250
 1414SOL     OW 4390   1.496   1.528   2.526
 1414SOL    HW1 4391   1.469   1.454   2.580
 1414SOL    HW2 4392   1.447   1.517   2.444
 1415SOL     OW 4393   1.160   0.679   2.511
 1415SOL    HW1 4394   1.193   0.767   2.494
 1415SOL    HW2 4395   1.106   0.688   2.589
 1416SOL     OW 4396   1.759   0.594   2.094
 1416SOL    HW1 4397   1.741   0.592   2.000
 1416SOL    HW2 4398   1.716   0.515   2.128
 1417SOL     OW 4399   0.682   1.136   2.747
 1417SOL    HW1 4400   0.635   1.166   2.825
 1417SOL    HW2 4401   0.739   1.210   2.724
 1418SOL     OW 4402   0.860   0.774   3.700
 1418SOL    HW1 4403   0.856   0.839   3.770
 1418SOL    HW2 4404   0.894   0.822   3.624
 1419SOL     OW 4405   0.677   0.995   2.492
 1419SOL    HW1 4406   0.755   0.989   2.547
 1419SOL    HW2 4407   0.623   1.062   2.535
 1420SOL     OW 4408   0.719   1.147   3.676
 1420SOL    HW1 4409   0.760   1.225   3.712
 1420SOL    HW2 4410   0.633   1.176   3.646
 1421SOL     OW 4411   0.240   1.457   2.721
 1421SOL    HW1 4412   0.245   1.370   2.760
 1421SOL    HW2 4413   0.331   1.489   2.721
 1422SOL     OW 4414   1.422   1.447   3.274
 1422SOL    HW1 4415   1.459   1.532   3.249
 1422SOL    HW2 4416   1.496   1.387   3.272
 1423SOL     OW 4417   0.409   0.363   3.476
 1423SOL    HW1 4418   0.481   0.366   3.413
 1423SOL    HW2 4419   0.345   0.303   3.437
 1424SOL     OW 4420   1.606   0.424   2.540
 1424SOL    HW1 4421   1.527   0.462   2.499
 1424SOL    HW2 4422   1.630   0.487   2.608
 1425SOL     OW 4423   0.251   1.699   2.345
 1425SOL    HW1 4424   0.266   1.780   2.395
 1425SOL    HW2 4425   0.323   1.696   2.283
 1426SOL     OW 4426   0.228   1.434   2.405
 1426SOL    HW1 4427   0.227   1.530   2.403
 1426SOL    HW2 4428   0.141   1.410   2.436
 1427SOL     OW 4429   0.246   1.092   2.721
 1427SOL    HW1 4430   0.248   1.012   2.772
 1427SOL    HW2 4431   0.163   1.134   2.744
 1428SOL     OW 4432   0.622   1.811   3.317
 1428SOL    HW1 4433   0.540   1.791   3.364
 1428SOL    HW2 4434   0.633   1.905   3.328
 1429SOL     OW 4435   0.578   0.985   1.997
 1429SOL    HW1 4436   0.627   1.028   1.927
 1429SOL    HW2 4437   0.617   1.018   2.078
 1430SOL     OW 4438   1.554   0.081   3.396
 1430SOL    HW1 4439   1.637   0.068   3.350
 1430SOL    HW2 4440   1.577   0.127   3.476
 1431SOL     OW 4441   0.132   0.633   2.424
 1431SOL    HW1 4442   0.070   0.561   2.416
 1431SOL    HW2 4443   0.079   0.706   2.457
 1432SOL     OW 4444   0.017   1.581   1.969
 1432SOL    HW1 4445   0.020   1.487   1.987
 1432SOL    HW2 4446   5.988   1.620   2.051
 1433SOL     OW 4447   0.023   0.749   3.551
 1433SOL    HW1 4448   0.105   0.727   3.597
 1433SOL    HW2 4449   0.050   0.810   3.483
 1434SOL     OW 4450   0.608   1.391   2.563
 1434SOL    HW1 4451   0.563   1.307   2.576
 1434SOL    HW2 4452   0.588   1.416   2.473
 1435SOL     OW 4453   0.811   0.006   2.398
 1435SOL    HW1 4454   0.844   0.093   2.373
 1435SOL    HW2 4455   0.716   0.015   2.394
 1436SOL     OW 4456   0.036   0.928   3.232
 1436SOL    HW1 4457   0.114   0.972   3.197
 1436SOL    HW2 4458   0.066   0.841   3.256
 1437SOL     OW 4459   0.313   0.244   3.706
 1437SOL    HW1 4460   0.354   0.314   3.656
 1437SOL    HW2 4461   0.226   0.277   3.728
 1438SOL     OW 4462   0.594   0.724   2.126
 1438SOL    HW1 4463   0.602   0.807   2.079
 1438SOL    HW2 4464   0.525   0.738   2.190
 1439SOL     OW 4465   1.293   0.359   2.757
 1439SOL    HW1 4466   1.203   0.328   2.747
 1439SOL    HW2 4467   1.335   0.291   2.810
 1440SOL     OW 4468   0.740   0.603   3.337
 1440SOL    HW1 4469   0.725   0.595   3.431
 1440SOL    HW2 4470   0.791   0.525   3.314
 1441SOL     OW 4471   1.397   0.472   3.544
 1441SOL    HW1 4472   1.393   0.521   3.626
 1441SOL    HW2 4473   1.452   0.396   3.564
 1442SOL     OW 4474   0.984   0.894   3.488
 1442SOL    HW1 4475   1.042   0.819   3.478
 1442SOL    HW2 4476   0.925   0.890   3.413
 1443SOL     OW 4477   0.884   0.388   3.269
 1443SOL    HW1 4478   0.841   0.320   3.321
 1443SOL    HW2 4479   0.893   0.350   3.182
 1444SOL     OW 4480   1.027   0.704   2.279
 1444SOL    HW1 4481   1.064   0.682   2.364
 1444SOL    HW2 4482   0.953   0.644   2.269
 1445SOL     OW 4483   0.056   0.840   2.597
 1445SOL    HW1 4484   0.137   0.813   2.640
 1445SOL    HW2 4485   0.081   0.913   2.541
 1446SOL     OW 4486   0.097   1.897   3.491
 1446SOL    HW1 4487   0.108   1.846   3.571
 1446SOL    HW2 4488   0.055   1.838   3.430
 1447SOL     OW 4489   0.844   0.389   1.997
 1447SOL    HW1 4490   0.926   0.426   1.966
 1447SOL    HW2 4491   0.871   0.313   2.049
 1448SOL     OW 4492   1.717   0.598   3.688
 1448SOL    HW1 4493   1.691   0.670   3.630
 1448SOL    HW2 4494   1.735   0.525   3.629
 1449SOL     OW 4495   0.480   0.257   2.705
 1449SOL    HW1 4496   0.565   0.214   2.703
 1449SOL    HW2 4497   0.496   0.343   2.665
 1450SOL     OW 4498   0.985   1.438   2.338
 1450SOL    HW1 4499   0.962   1.511   2.281
 1450SOL    HW2 4500   0.965   1.468   2.427
 1451SOL     OW 4501   0.326   1.765   2.699
 1451SOL    HW1 4502   0.362   1.678   2.718
 1451SOL    HW2 4503   0.400   1.813   2.661
 1452SOL     OW 4504   0.312   0.958   2.106
 1452SOL    HW1 4505   0.398   0.981   2.069
 1452SOL    HW2 4506   0.297   0.868   2.078
 1453SOL     OW 4507   1.476   0.790   2.605
 1453SOL    HW1 4508   1.460   0.703   2.640
 1453SOL    HW2 4509   1.570   0.805   2.620
 1454SOL     OW 4510   0.470   1.257   3.621
 1454SOL    HW1 4511   0.434   1.261   3.532
 1454SOL    HW2 4512   0.393   1.250   3.678
 1455SOL     OW 4513   0.119   0.304   3.452
 1455SOL    HW1 4514   0.070   0.310   3.370
 1455SOL    HW2 4515   0.123   0.210   3.470
 1456SOL     OW 4516   0.470   1.737   2.179
 1456SOL    HW1 4517   0.517   1.792   2.242
 1456SOL    HW2 4518   0.539   1.703   2.122
 1457SOL     OW 4519   1.435   0.126   2.286
 1457SOL    HW1 4520   1.404   0.093   2.202
 1457SOL    HW2 4521   1.528   0.145   2.271
 1458SOL     OW 4522   0.224   1.766   3.269
 1458SOL    HW1 4523   0.264   1.681   3.250
 1458SOL    HW2 4524   0.131   1.754   3.247
 1459SOL     OW 4525   0.934   1.684   2.723
 1459SOL    HW1 4526   0.999   1.622   2.757
 1459SOL    HW2 4527   0.891   1.638   2.651
 1460SOL     OW 4528   0.384   0.696   2.313
 1460SOL    HW1 4529   0.415   0.607   2.330
 1460SOL    HW2 4530   0.293   0.695   2.345
 1461SOL     OW 4531   1.530   0.235   3.618
 1461SOL    HW1 4532   1.530   0.267   3.709
 1461SOL    HW2 4533   1.468   0.163   3.618
 1462SOL     OW 4534   0.610   0.094   1.976
 1462SOL    HW1 4535   0.697   0.054   1.970
 1462SOL    HW2 4536   0.570   0.078   1.891
 1463SOL     OW 4537   0.764   0.264   3.619
 1463SOL    HW1 4538   0.841   0.211   3.640
 1463SOL    HW2 4539   0.724   0.284   3.703
 1464SOL     OW 4540   0.860   1.505   3.250
 1464SOL    HW1 4541   0.851   1.488   3.157
 1464SOL    HW2 4542   0.940   1.459   3.275
 1465SOL     OW 4543   1.341   0.629   3.325
 1465SOL    HW1 4544   1.387   0.583   3.395
 1465SOL    HW2 4545   1.397   0.705   3.306
 1466SOL     OW 4546   0.816   1.366   2.734
 1466SOL    HW1 4547   0.907   1.378   2.708
 1466SOL    HW2 4548   0.765   1.399   2.660
 1467SOL     OW 4549   0.918   0.492   2.726
 1467SOL    HW1 4550   0.888   0.492   2.635
 1467SOL    HW2 4551   0.961   0.407   2.736
 1468SOL     OW 4552   0.549   0.057   2.356
 1468SOL    HW1 4553   0.471   0.046   2.410
 1468SOL    HW2 4554   0.534   0.139   2.309
 1469SOL     OW 4555   0.296   0.038   2.061
 1469SOL    HW1 4556   0.350   0.093   2.004
 1469SOL    HW2 4557   0.357   5.971   2.094
 1470SOL     OW 4558   0.966   0.253   2.369
 1470SOL    HW1 4559   0.923   0.239   2.285
 1470SOL    HW2 4560   1.057   0.272   2.346
 1471SOL     OW 4561   1.081   0.650   3.390
 1471SOL    HW1 4562   1.054   0.559   3.404
 1471SOL    HW2 4563   1.176   0.645   3.376
 1472SOL     OW 4564   0.462   1.169   2.573
 1472SOL    HW1 4565   0.390   1.138   2.627
 1472SOL    HW2 4566   0.431   1.158   2.483
 1473SOL     OW 4567   1.035   0.551   1.878
 1473SOL    HW1 4568   0.993   0.635   1.865
 1473SOL    HW2 4569   1.095   0.565   1.952
 1474SOL     OW 4570   0.012   0.585   3.286
 1474SOL    HW1 4571   0.100   0.550   3.278
 1474SOL    HW2 4572   0.017   0.645   3.360
 1475SOL     OW 4573   0.530   0.013   3.261
 1475SOL    HW1 4574   0.592   0.082   3.236
 1475SOL    HW2 4575   0.444   0.055   3.254
 1476SOL     OW 4576   0.853   0.480   2.472
 1476SOL    HW1 4577   0.813   0.518   2.394
 1476SOL    HW2 4578   0.886   0.395   2.443
 1477SOL     OW 4579   0.975   0.046   2.606
 1477SOL    HW1 4580   0.917   0.036   2.531
 1477SOL    HW2 4581   0.984   5.958   2.642
 1478SOL     OW 4582   1.473   0.565   2.747
 1478SOL    HW1 4583   1.408   0.495   2.752
 1478SOL    HW2 4584   1.497   0.582   2.838
 1479SOL     OW 4585   0.489   1.422   2.016
 1479SOL    HW1 4586   0.416   1.389   2.068
 1479SOL    HW2 4587   0.477   1.384   1.929
 1480SOL     OW 4588   1.712   1.225   2.499
 1480SOL    HW1 4589   1.801   1.244   2.469
 1480SOL    HW2 4590   1.687   1.304   2.547
 1481SOL     OW 4591   1.397   0.578   1.936
 1481SOL    HW1 4592   1.329   0.558   2.000
 1481SOL    HW2 4593   1.471   0.523   1.961
 1482SOL     OW 4594   0.536   0.266   2.174
 1482SOL    HW1 4595   0.549   0.208   2.099
 1482SOL    HW2 4596   0.513   0.350   2.135
 1483SOL     OW 4597   1.084   1.353   3.296
 1483SOL    HW1 4598   1.019   1.295   3.338
 1483SOL    HW2 4599   1.165   1.335   3.343
 1484SOL     OW 4600   0.880   0.037   3.288
 1484SOL    HW1 4601   0.916   0.023   3.201
 1484SOL    HW2 4602   0.949   0.083   3.336
 1485SOL     OW 4603   0.990   1.136   3.593
 1485SOL    HW1 4604   0.899   1.155   3.615
 1485SOL    HW2 4605   0.987   1.055   3.543
 1486SOL     OW 4606   0.707   1.069   2.227
 1486SOL    HW1 4607   0.685   1.048   2.317
 1486SOL    HW2 4608   0.783   1.013   2.207
 1487SOL     OW 4609   0.402   0.724   3.235
 1487SOL    HW1 4610   0.487   0.754   3.266
 1487SOL    HW2 4611   0.399   0.631   3.257
 1488SOL     OW 4612   1.197   0.413   3.286
 1488SOL    HW1 4613   1.254   0.489   3.290
 1488SOL    HW2 4614   1.136   0.432   3.215
 1489SOL     OW 4615   0.052   1.502   3.289
 1489SOL    HW1 4616   0.017   1.590   3.307
 1489SOL    HW2 4617   0.143   1.506   3.319
 1490SOL     OW 4618   0.399   1.148   2.311
 1490SOL    HW1 4619   0.365   1.208   2.245
 1490SOL    HW2 4620   0.365   1.062   2.285
 1491SOL     OW 4621   0.557   0.520   2.668
 1491SOL    HW1 4622   0.542   0.570   2.589
 1491SOL    HW2 4623   0.641   0.551   2.702
 1492SOL     OW 4624   1.586   0.638   2.335
 1492SOL    HW1 4625   1.522   0.709   2.338
 1492SOL    HW2 4626   1.657   0.673   2.282
 1493SOL     OW 4627   0.329   1.518   3.278
 1493SOL    HW1 4628   0.326   1.472   3.194
 1493SOL    HW2 4629   0.422   1.534   3.295
 1494SOL     OW 4630   0.455   0.706   3.521
 1494SOL    HW1 4631   0.506   0.759   3.459
 1494SOL    HW2 4632   0.510   0.630   3.539
 1495SOL     OW 4633   1.003   0.120   3.661
 1495SOL    HW1 4634   1.057   0.194   3.634
 1495SOL    HW2 4635   0.996   0.065   3.583
 1496SOL     OW 4636   0.499   0.065   3.634
 1496SOL    HW1 4637   0.479   0.010   3.558
 1496SOL    HW2 4638   0.427   0.127   3.639
 1497SOL     OW 4639   0.503   0.922   2.750
 1497SOL    HW1 4640   0.569   0.985   2.721
 1497SOL    HW2 4641   0.527   0.903   2.841
 1498SOL     OW 4642   1.191   0.516   2.111
 1498SOL    HW1 4643   1.200   0.448   2.178
 1498SOL    HW2 4644   1.201   0.599   2.159
 1499SOL     OW 4645   0.283   0.135   3.278
 1499SOL    HW1 4646   0.210   0.194   3.260
 1499SOL    HW2 4647   0.252   0.049   3.251
 1500SOL     OW 4648   0.023   1.238   3.263
 1500SOL    HW1 4649   0.091   1.238   3.329
 1500SOL    HW2 4650   0.015   1.330   3.237
 1501SOL     OW 4651   0.750   0.701   2.753
 1501SOL    HW1 4652   0.805   0.622   2.757
 1501SOL    HW2 4653   0.693   0.695   2.829
 1502SOL     OW 4654   0.316   0.042   2.501
 1502SOL    HW1 4655   0.293   0.135   2.495
 1502SOL    HW2 4656   0.237   0.001   2.536
 1503SOL     OW 4657   1.601   0.386   2.225
 1503SOL    HW1 4658   1.641   0.326   2.287
 1503SOL    HW2 4659   1.584   0.465   2.275
 1504SOL     OW 4660   1.040   0.731   2.736
 1504SOL    HW1 4661   1.043   0.764   2.826
 1504SOL    HW2 4662   0.991   0.649   2.743
 1505SOL     OW 4663   0.971   1.555   3.579
 1505SOL    HW1 4664   0.982   1.616   3.506
 1505SOL    HW2 4665   1.039   1.489   3.566
 1506SOL     OW 4666   0.356   0.916   3.665
 1506SOL    HW1 4667   0.434   0.935   3.717
 1506SOL    HW2 4668   0.380   0.838   3.614
 1507SOL     OW 4669   1.483   0.306   1.981
 1507SOL    HW1 4670   1.426   0.235   2.008
 1507SOL    HW2 4671   1.541   0.322   2.056
 1508SOL     OW 4672   1.250   0.801   1.864
 1508SOL    HW1 4673   1.307   0.728   1.891
 1508SOL    HW2 4674   1.303   0.851   1.802
 1509SOL     OW 4675   1.078   1.364   2.674
 1509SOL    HW1 4676   1.070   1.274   2.642
 1509SOL    HW2 4677   1.164   1.393   2.645
 1510SOL     OW 4678   0.282   0.773   2.715
 1510SOL    HW1 4679   0.372   0.807   2.714
 1510SOL    HW2 4680   0.292   0.679   2.730
 1511SOL     OW 4681   0.298   0.503   2.726
 1511SOL    HW1 4682   0.279   0.410   2.741
 1511SOL    HW2 4683   0.392   0.505   2.704
 1512SOL     OW 4684   1.130   0.369   3.572
 1512SOL    HW1 4685   1.092   0.435   3.631
 1512SOL    HW2 4686   1.215   0.405   3.549
 1513SOL     OW 4687   1.081   0.173   3.387
 1513SOL    HW1 4688   1.083   0.255   3.436
 1513SOL    HW2 4689   1.165   0.172   3.340
 1514SOL     OW 4690   0.012   1.314   2.053
 1514SOL    HW1 4691   5.934   1.311   1.998
 1514SOL    HW2 4692   0.013   1.229   2.097
 1515SOL     OW 4693   0.045   1.790   2.700
 1515SOL    HW1 4694   0.012   1.701   2.713
 1515SOL    HW2 4695   0.139   1.783   2.712
 1516SOL     OW 4696   0.505   1.566   2.739
 1516SOL    HW1 4697   0.568   1.638   2.746
 1516SOL    HW2 4698   0.548   1.502   2.683
 1517SOL     OW 4699   0.906   0.796   3.260
 1517SOL    HW1 4700   0.988   0.754   3.285
 1517SOL    HW2 4701   0.840   0.728   3.268
 1518SOL     OW 4702   0.112   0.325   3.179
 1518SOL    HW1 4703   0.141   0.311   3.089
 1518SOL    HW2 4704   0.040   0.387   3.172
 1519SOL     OW 4705   0.195   0.526   3.605
 1519SOL    HW1 4706   0.254   0.478   3.547
 1519SOL    HW2 4707   0.123   0.554   3.548
 1520SOL     OW 4708   0.801   0.560   2.215
 1520SOL    HW1 4709   0.809   0.503   2.138
 1520SOL    HW2 4710   0.734   0.624   2.190
 1521SOL     OW 4711   1.619   0.590   3.290
 1521SOL    HW1 4712   1.625   0.495   3.295
 1521SOL    HW2 4713   1.663   0.612   3.208
 1522SOL     OW 4714   0.285   1.558   3.620
 1522SOL    HW1 4715   0.217   1.608   3.666
 1522SOL    HW2 4716   0.257   1.467   3.628
 1523SOL     OW 4717   0.542   0.398   3.248
 1523SOL    HW1 4718   0.608   0.334   3.275
 1523SOL    HW2 4719   0.588   0.454   3.185
 1524SOL     OW 4720   0.974   1.718   3.361
 1524SOL    HW1 4721   0.921   1.655   3.314
 1524SOL    HW2 4722   0.931   1.802   3.345
 1525SOL     OW 4723   0.462   0.494   2.045
 1525SOL    HW1 4724   0.524   0.564   2.064
 1525SOL    HW2 4725   0.378   0.538   2.034
 1526SOL     OW 4726   0.218   1.079   3.366
 1526SOL    HW1 4727   0.204   1.069   3.460
 1526SOL    HW2 4728   0.130   1.071   3.328
 1527SOL     OW 4729   1.295   0.771   2.170
 1527SOL    HW1 4730   1.226   0.821   2.214
 1527SOL    HW2 4731   1.321   0.826   2.097
 1528SOL     OW 4732   0.019   1.244   2.746
 1528SOL    HW1 4733   0.002   1.256   2.840
 1528SOL    HW2 4734   5.960   1.173   2.719
 1529SOL     OW 4735   0.679   1.669   3.604
 1529SOL    HW1 4736   0.615   1.737   3.580
 1529SOL    HW2 4737   0.749   1.678   3.540
 1530SOL     OW 4738   1.719   0.146   2.329
 1530SOL    HW1 4739   1.811   0.136   2.304
 1530SOL    HW2 4740   1.708   0.090   2.405
 1531SOL     OW 4741   0.135   1.777   3.722
 1531SOL    HW1 4742   0.078   1.715   3.768
 1531SOL    HW2 4743   0.181   1.822   3.792
 1532SOL     OW 4744   1.253   0.932   2.534
 1532SOL    HW1 4745   1.318   0.877   2.577
 1532SOL    HW2 4746   1.300   1.011   2.509
 1533SOL     OW 4747   0.843   1.259   3.370
 1533SOL    HW1 4748   0.799   1.291   3.448
 1533SOL    HW2 4749   0.800   1.304   3.297
 1534SOL     OW 4750   0.668   1.627   2.013
 1534SOL    HW1 4751   0.681   1.639   1.919
 1534SOL    HW2 4752   0.616   1.547   2.021
 1535SOL     OW 4753   1.851   0.092   2.732
 1535SOL    HW1 4754   1.855   0.017   2.673
 1535SOL    HW2 4755   1.786   0.150   2.692
 1536SOL     OW 4756   0.253   0.310   2.504
 1536SOL    HW1 4757   0.177   0.358   2.472
 1536SOL    HW2 4758   0.235   0.294   2.597
 1537SOL     OW 4759   0.774   1.026   3.278
 1537SOL    HW1 4760   0.847   0.974   3.246
 1537SOL    HW2 4761   0.815   1.104   3.316
 1538SOL     OW 4762   0.912   0.913   2.155
 1538SOL    HW1 4763   0.974   0.940   2.087
 1538SOL    HW2 4764   0.956   0.841   2.200
 1539SOL     OW 4765   0.243   1.330   3.450
 1539SOL    HW1 4766   0.297   1.397   3.407
 1539SOL    HW2 4767   0.274   1.247   3.414
 1540SOL     OW 4768   1.051   1.115   2.564
 1540SOL    HW1 4769   0.980   1.068   2.606
 1540SOL    HW2 4770   1.117   1.048   2.546
 1541SOL     OW 4771   1.047   0.250   2.749
 1541SOL    HW1 4772   1.025   0.202   2.670
 1541SOL    HW2 4773   0.986   0.219   2.815
 1542SOL     OW 4774   0.598   1.498   2.319
 1542SOL    HW1 4775   0.648   1.444   2.258
 1542SOL    HW2 4776   0.526   1.533   2.267
 1543SOL     OW 4777   1.746   0.343   3.269
 1543SOL    HW1 4778   1.801   0.421   3.270
 1543SOL    HW2 4779   1.805   0.272   3.244
 1544SOL     OW 4780   0.265   1.341   2.157
 1544SOL    HW1 4781   0.173   1.338   2.133
 1544SOL    HW2 4782   0.266   1.376   2.246
 1545SOL     OW 4783   0.118   1.033   3.615
 1545SOL    HW1 4784   0.050   0.981   3.657
 1545SOL    HW2 4785   0.201   0.993   3.643
 1546SOL     OW 4786   0.695   0.215   3.362
 1546SOL    HW1 4787   0.738   0.130   3.351
 1546SOL    HW2 4788   0.692   0.229   3.456
 1547SOL     OW 4789   0.061   0.322   1.887
 1547SOL    HW1 4790   5.967   0.335   1.894
 1547SOL    HW2 4791   0.091   0.396   1.834
 1548SOL     OW 4792   1.472   0.865   3.296
 1548SOL    HW1 4793   1.420   0.945   3.287
 1548SOL    HW2 4794   1.550   0.880   3.242
 1549SOL     OW 4795   0.075   0.175   2.158
 1549SOL    HW1 4796   0.093   0.267   2.135
 1549SOL    HW2 4797   0.159   0.130   2.142
 1550SOL     OW 4798   1.178   1.361   1.983
 1550SOL    HW1 4799   1.082   1.354   1.981
 1550SOL    HW2 4800   1.203   1.332   2.071
 1551SOL     OW 4801   0.608   0.836   3.340
 1551SOL    HW1 4802   0.656   0.916   3.317
 1551SOL    HW2 4803   0.673   0.766   3.332
 1552SOL     OW 4804   0.711   0.562   3.599
 1552SOL    HW1 4805   0.753   0.629   3.654
 1552SOL    HW2 4806   0.741   0.479   3.635
 1553SOL     OW 4807   0.407   1.738   3.463
 1553SOL    HW1 4808   0.334   1.761   3.405
 1553SOL    HW2 4809   0.372   1.667   3.518
 1554SOL     OW 4810   1.225   0.313   2.303
 1554SOL    HW1 4811   1.297   0.252   2.287
 1554SOL    HW2 4812   1.256   0.369   2.374
 1555SOL     OW 4813   0.568   0.738   2.507
 1555SOL    HW1 4814   0.618   0.819   2.502
 1555SOL    HW2 4815   0.512   0.738   2.430
 1556SOL     OW 4816   1.759   0.365   3.542
 1556SOL    HW1 4817   1.747   0.356   3.448
 1556SOL    HW2 4818   1.688   0.313   3.580
 1557SOL     OW 4819   0.866   1.366   1.901
 1557SOL    HW1 4820   0.826   1.391   1.985
 1557SOL    HW2 4821   0.881   1.449   1.856
 1558SOL     OW 4822   0.666   1.805   2.730
 1558SOL    HW1 4823   0.674   1.899   2.715
 1558SOL    HW2 4824   0.756   1.774   2.739
 1559SOL     OW 4825   0.876   0.958   2.688
 1559SOL    HW1 4826   0.876   0.863   2.704
 1559SOL    HW2 4827   0.807   0.992   2.745
 1560SOL     OW 4828   1.070   0.983   1.946
 1560SOL    HW1 4829   1.045   1.033   1.869
 1560SOL    HW2 4830   1.128   0.914   1.913
 1561SOL     OW 4831   0.227   1.292   3.737
 1561SOL    HW1 4832   0.164   1.244   3.683
 1561SOL    HW2 4833   0.183   1.301   3.822
 1562SOL     OW 4834   0.069   1.208   2.479
 1562SOL    HW1 4835   0.069   1.239   2.569
 1562SOL    HW2 4836   0.161   1.200   2.456
 1563SOL     OW 4837   0.669   1.407   3.509
 1563SOL    HW1 4838   0.597   1.360   3.551
 1563SOL    HW2 4839   0.668   1.494   3.550
 1564SOL     OW 4840   1.798   0.044   3.285
 1564SOL    HW1 4841   1.887   0.019   3.263
 1564SOL    HW2 4842   1.758   0.069   3.202
 1565SOL     OW 4843   0.456   0.443   2.382
 1565SOL    HW1 4844   0.491   0.377   2.322
 1565SOL    HW2 4845   0.388   0.397   2.431
 1566SOL     OW 4846   0.277   0.503   3.282
 1566SOL    HW1 4847   0.347   0.459   3.329
 1566SOL    HW2 4848   0.256   0.444   3.209
 1567SOL     OW 4849   0.813   1.578   2.512
 1567SOL    HW1 4850   0.814   1.631   2.432
 1567SOL    HW2 4851   0.733   1.527   2.505
 1568SOL     OW 4852   1.226   0.023   2.778
 1568SOL    HW1 4853   1.305   0.029   2.832
 1568SOL    HW2 4854   1.181   0.107   2.791
 1569SOL     OW 4855   0.768   5.995   2.797
 1569SOL    HW1 4856   0.823   5.925   2.763
 1569SOL    HW2 4857   0.791   0.001   2.890
 1570SOL     OW 4858   0.772   1.336   2.173
 1570SOL    HW1 4859   0.743   1.245   2.183
 1570SOL    HW2 4860   0.850   1.342   2.229
 1571SOL     OW 4861   0.590   1.547   3.263
 1571SOL    HW1 4862   0.599   1.642   3.265
 1571SOL    HW2 4863   0.676   1.514   3.289
 1572SOL     OW 4864   1.344   0.064   2.032
 1572SOL    HW1 4865   1.395   5.991   1.997
 1572SOL    HW2 4866   1.260   0.026   2.056
 1573SOL     OW 4867   1.317   0.462   2.505
 1573SOL    HW1 4868   1.263   0.541   2.506
 1573SOL    HW2 4869   1.309   0.426   2.593
 1574SOL     OW 4870   1.545   0.227   2.721
 1574SOL    HW1 4871   1.467   0.222   2.667
 1574SOL    HW2 4872   1.593   0.302   2.687
 1575SOL     OW 4873   0.053   1.058   2.142
 1575SOL    HW1 4874   0.145   1.035   2.130
 1575SOL    HW2 4875   0.023   1.002   2.214
 1576SOL     OW 4876   0.870   1.649   2.211
 1576SOL    HW1 4877   0.804   1.639   2.143
 1576SOL    HW2 4878   0.851   1.734   2.252
 1577SOL     OW 4879   0.229   0.637   3.850
 1577SOL    HW1 4880   0.137   0.630   3.878
 1577SOL    HW2 4881   0.231   0.599   3.763
 1578SOL     OW 4882   0.206   0.308   4.724
 1578SOL    HW1 4883   0.250   0.249   4.785
 1578SOL    HW2 4884   0.122   0.266   4.706
 1579SOL     OW 4885   0.011   0.390   4.343
 1579SOL    HW1 4886   5.946   0.400   4.413
 1579SOL    HW2 4887   5.974   0.321   4.287
 1580SOL     OW 4888   0.566   1.293   4.903
 1580SOL    HW1 4889   0.478   1.296   4.866
 1580SOL    HW2 4890   0.581   1.381   4.937
 1581SOL     OW 4891   1.535   1.494   4.433
 1581SOL    HW1 4892   1.512   1.484   4.526
 1581SOL    HW2 4893   1.463   1.544   4.396
 1582SOL     OW 4894   1.132   0.693   4.426
 1582SOL    HW1 4895   1.179   0.775   4.409
 1582SOL    HW2 4896   1.084   0.710   4.507
 1583SOL     OW 4897   1.737   0.615   3.963
 1583SOL    HW1 4898   1.731   0.606   3.868
 1583SOL    HW2 4899   1.716   0.528   3.997
 1584SOL     OW 4900   0.751   1.140   4.769
 1584SOL    HW1 4901   0.683   1.178   4.825
 1584SOL    HW2 4902   0.788   1.215   4.723
 1585SOL     OW 4903   0.868   0.773   5.550
 1585SOL    HW1 4904   0.856   0.842   5.614
 1585SOL    HW2 4905   0.891   0.818   5.469
 1586SOL     OW 4906   0.687   0.999   4.368
 1586SOL    HW1 4907   0.753   0.988   4.437
 1586SOL    HW2 4908   0.621   1.056   4.408
 1587SOL     OW 4909   0.713   1.153   5.538
 1587SOL    HW1 4910   0.761   1.232   5.566
 1587SOL    HW2 4911   0.631   1.187   5.501
 1588SOL     OW 4912   0.330   1.421   4.789
 1588SOL    HW1 4913   0.259   1.383   4.738
 1588SOL    HW2 4914   0.381   1.472   4.726
 1589SOL     OW 4915   1.459   1.501   5.082
 1589SOL    HW1 4916   1.514   1.579   5.089
 1589SOL    HW2 4917   1.396   1.509   5.153
 1590SOL     OW 4918   0.444   0.399   5.222
 1590SOL    HW1 4919   0.525   0.348   5.220
 1590SOL    HW2 4920   0.374   0.333   5.225
 1591SOL     OW 4921   1.607   0.453   4.461
 1591SOL    HW1 4922   1.537   0.476   4.400
 1591SOL    HW2 4923   1.631   0.536   4.503
 1592SOL     OW 4924   0.245   1.712   4.213
 1592SOL    HW1 4925   0.264   1.792   4.263
 1592SOL    HW2 4926   0.319   1.703   4.153
 1593SOL     OW 4927   1.139   1.341   5.418
 1593SOL    HW1 4928   1.182   1.334   5.503
 1593SOL    HW2 4929   1.087   1.261   5.410
 1594SOL     OW 4930   0.242   1.442   4.272
 1594SOL    HW1 4931   0.216   1.534   4.272
 1594SOL    HW2 4932   0.171   1.397   4.316
 1595SOL     OW 4933   0.261   1.093   4.631
 1595SOL    HW1 4934   0.260   1.016   4.688
 1595SOL    HW2 4935   0.202   1.155   4.674
 1596SOL     OW 4936   0.610   1.791   5.153
 1596SOL    HW1 4937   0.527   1.773   5.198
 1596SOL    HW2 4938   0.632   1.881   5.179
 1597SOL     OW 4939   0.579   0.984   3.861
 1597SOL    HW1 4940   0.631   1.026   3.791
 1597SOL    HW2 4941   0.618   1.017   3.942
 1598SOL     OW 4942   1.656   0.101   5.228
 1598SOL    HW1 4943   1.594   0.127   5.160
 1598SOL    HW2 4944   1.625   0.146   5.307
 1599SOL     OW 4945   0.134   0.644   4.308
 1599SOL    HW1 4946   0.090   0.559   4.297
 1599SOL    HW2 4947   0.068   0.701   4.346
 1600SOL     OW 4948   0.003   1.575   3.841
 1600SOL    HW1 4949   0.011   1.481   3.858
 1600SOL    HW2 4950   5.981   1.613   3.926
 1601SOL     OW 4951   1.690   0.910   4.353
 1601SOL    HW1 4952   1.779   0.882   4.373
 1601SOL    HW2 4953   1.700   0.981   4.290
 1602SOL     OW 4954   0.091   0.741   5.387
 1602SOL    HW1 4955   0.180   0.759   5.416
 1602SOL    HW2 4956   0.077   0.801   5.313
 1603SOL     OW 4957   0.619   1.392   4.458
 1603SOL    HW1 4958   0.576   1.307   4.468
 1603SOL    HW2 4959   0.600   1.418   4.367
 1604SOL     OW 4960   1.287   1.238   5.147
 1604SOL    HW1 4961   1.319   1.171   5.086
 1604SOL    HW2 4962   1.347   1.232   5.221
 1605SOL     OW 4963   0.820   0.010   4.281
 1605SOL    HW1 4964   0.853   0.094   4.250
 1605SOL    HW2 4965   0.725   0.016   4.270
 1606SOL     OW 4966   0.198   0.982   4.911
 1606SOL    HW1 4967   0.286   0.946   4.917
 1606SOL    HW2 4968   0.140   0.909   4.933
 1607SOL     OW 4969   1.180   1.807   5.347
 1607SOL    HW1 4970   1.193   1.868   5.274
 1607SOL    HW2 4971   1.200   1.721   5.309
 1608SOL     OW 4972   0.326   0.252   5.545
 1608SOL    HW1 4973   0.374   0.335   5.548
 1608SOL    HW2 4974   0.238   0.274   5.576
 1609SOL     OW 4975   1.466   1.417   4.685
 1609SOL    HW1 4976   1.395   1.432   4.748
 1609SOL    HW2 4977   1.453   1.327   4.655
 1610SOL     OW 4978   0.596   0.726   3.994
 1610SOL    HW1 4979   0.598   0.807   3.944
 1610SOL    HW2 4980   0.528   0.740   4.060
 1611SOL     OW 4981   1.299   0.368   4.661
 1611SOL    HW1 4982   1.209   0.334   4.658
 1611SOL    HW2 4983   1.346   0.305   4.716
 1612SOL     OW 4984   0.799   0.617   5.181
 1612SOL    HW1 4985   0.768   0.594   5.268
 1612SOL    HW2 4986   0.756   0.554   5.123
 1613SOL     OW 4987   1.393   0.472   5.399
 1613SOL    HW1 4988   1.401   0.523   5.480
 1613SOL    HW2 4989   1.462   0.405   5.407
 1614SOL     OW 4990   0.951   0.887   5.308
 1614SOL    HW1 4991   1.007   0.817   5.272
 1614SOL    HW2 4992   0.904   0.921   5.233
 1615SOL     OW 4993   0.983   0.399   4.963
 1615SOL    HW1 4994   0.904   0.434   5.005
 1615SOL    HW2 4995   0.950   0.350   4.888
 1616SOL     OW 4996   1.043   0.702   4.157
 1616SOL    HW1 4997   1.062   0.687   4.249
 1616SOL    HW2 4998   0.966   0.648   4.139
 1617SOL     OW 4999   0.068   0.830   4.526
 1617SOL    HW1 5000   0.152   0.814   4.567
 1617SOL    HW2 5001   0.086   0.895   4.458
 1618SOL     OW 5002   0.119   1.867   5.299
 1618SOL    HW1 5003   0.126   1.841   5.391
 1618SOL    HW2 5004   0.034   1.833   5.271
 1619SOL     OW 5005   0.848   0.390   3.867
 1619SOL    HW1 5006   0.932   0.420   3.832
 1619SOL    HW2 5007   0.870   0.312   3.918
 1620SOL     OW 5008   1.709   0.569   5.550
 1620SOL    HW1 5009   1.669   0.645   5.506
 1620SOL    HW2 5010   1.737   0.512   5.479
 1621SOL     OW 5011   1.365   1.139   4.262
 1621SOL    HW1 5012   1.429   1.118   4.193
 1621SOL    HW2 5013   1.302   1.197   4.220
 1622SOL     OW 5014   0.555   0.211   4.614
 1622SOL    HW1 5015   0.542   0.238   4.704
 1622SOL    HW2 5016   0.552   0.292   4.564
 1623SOL     OW 5017   0.999   1.447   4.207
 1623SOL    HW1 5018   0.963   1.516   4.152
 1623SOL    HW2 5019   0.970   1.469   4.295
 1624SOL     OW 5020   0.352   1.811   4.599
 1624SOL    HW1 5021   0.397   1.726   4.600
 1624SOL    HW2 5022   0.421   1.875   4.612
 1625SOL     OW 5023   1.797   1.051   4.598
 1625SOL    HW1 5024   1.745   1.076   4.522
 1625SOL    HW2 5025   1.737   1.054   4.672
 1626SOL     OW 5026   1.226   1.540   5.237
 1626SOL    HW1 5027   1.215   1.465   5.297
 1626SOL    HW2 5028   1.164   1.523   5.166
 1627SOL     OW 5029   0.314   0.953   3.973
 1627SOL    HW1 5030   0.396   0.979   3.931
 1627SOL    HW2 5031   0.295   0.866   3.938
 1628SOL     OW 5032   1.474   0.751   4.456
 1628SOL    HW1 5033   1.474   0.704   4.540
 1628SOL    HW2 5034   1.557   0.798   4.455
 1629SOL     OW 5035   0.463   1.259   5.468
 1629SOL    HW1 5036   0.440   1.268   5.375
 1629SOL    HW2 5037   0.380   1.261   5.514
 1630SOL     OW 5038   0.190   0.279   5.226
 1630SOL    HW1 5039   0.123   0.345   5.206
 1630SOL    HW2 5040   0.162   0.242   5.310
 1631SOL     OW 5041   0.470   1.738   4.044
 1631SOL    HW1 5042   0.517   1.791   4.108
 1631SOL    HW2 5043   0.538   1.700   3.989
 1632SOL     OW 5044   1.427   0.134   4.144
 1632SOL    HW1 5045   1.405   0.101   4.057
 1632SOL    HW2 5046   1.523   0.130   4.148
 1633SOL     OW 5047   0.250   1.784   4.958
 1633SOL    HW1 5048   0.301   1.717   5.002
 1633SOL    HW2 5049   0.255   1.762   4.865
 1634SOL     OW 5050   0.937   1.700   4.623
 1634SOL    HW1 5051   1.012   1.646   4.649
 1634SOL    HW2 5052   0.895   1.651   4.553
 1635SOL     OW 5053   0.394   0.696   4.199
 1635SOL    HW1 5054   0.417   0.604   4.208
 1635SOL    HW2 5055   0.301   0.700   4.222
 1636SOL     OW 5056   1.540   0.219   5.458
 1636SOL    HW1 5057   1.533   0.257   5.545
 1636SOL    HW2 5058   1.473   0.151   5.456
 1637SOL     OW 5059   0.628   0.097   3.860
 1637SOL    HW1 5060   0.709   0.048   3.848
 1637SOL    HW2 5061   0.582   0.088   3.776
 1638SOL     OW 5062   0.762   0.267   5.483
 1638SOL    HW1 5063   0.839   0.210   5.486
 1638SOL    HW2 5064   0.753   0.301   5.572
 1639SOL     OW 5065   0.877   1.524   4.917
 1639SOL    HW1 5066   0.860   1.486   4.831
 1639SOL    HW2 5067   0.947   1.470   4.954
 1640SOL     OW 5068   1.340   0.591   5.155
 1640SOL    HW1 5069   1.373   0.561   5.240
 1640SOL    HW2 5070   1.377   0.679   5.145
 1641SOL     OW 5071   0.817   1.394   4.667
 1641SOL    HW1 5072   0.902   1.382   4.623
 1641SOL    HW2 5073   0.754   1.398   4.595
 1642SOL     OW 5074   0.929   0.512   4.629
 1642SOL    HW1 5075   0.903   0.507   4.538
 1642SOL    HW2 5076   0.965   0.425   4.649
 1643SOL     OW 5077   0.552   0.055   4.221
 1643SOL    HW1 5078   0.475   0.046   4.276
 1643SOL    HW2 5079   0.538   0.137   4.173
 1644SOL     OW 5080   0.297   0.047   3.930
 1644SOL    HW1 5081   0.338   0.100   3.862
 1644SOL    HW2 5082   0.360   5.977   3.946
 1645SOL     OW 5083   0.971   0.259   4.243
 1645SOL    HW1 5084   0.925   0.243   4.161
 1645SOL    HW2 5085   1.061   0.278   4.217
 1646SOL     OW 5086   1.080   0.683   5.183
 1646SOL    HW1 5087   1.012   0.616   5.189
 1646SOL    HW2 5088   1.162   0.633   5.177
 1647SOL     OW 5089   1.231   1.568   4.511
 1647SOL    HW1 5090   1.240   1.642   4.451
 1647SOL    HW2 5091   1.290   1.588   4.583
 1648SOL     OW 5092   0.477   1.157   4.460
 1648SOL    HW1 5093   0.403   1.144   4.520
 1648SOL    HW2 5094   0.437   1.155   4.373
 1649SOL     OW 5095   1.275   1.793   4.347
 1649SOL    HW1 5096   1.325   1.840   4.281
 1649SOL    HW2 5097   1.206   1.854   4.373
 1650SOL     OW 5098   1.039   0.557   3.743
 1650SOL    HW1 5099   0.989   0.638   3.736
 1650SOL    HW2 5100   1.091   0.568   3.823
 1651SOL     OW 5101   0.089   0.541   5.139
 1651SOL    HW1 5102   0.174   0.549   5.095
 1651SOL    HW2 5103   0.070   0.630   5.170
 1652SOL     OW 5104   0.550   0.245   4.895
 1652SOL    HW1 5105   0.583   0.164   4.935
 1652SOL    HW2 5106   0.456   0.245   4.915
 1653SOL     OW 5107   0.859   0.476   4.368
 1653SOL    HW1 5108   0.817   0.518   4.293
 1653SOL    HW2 5109   0.897   0.396   4.332
 1654SOL     OW 5110   0.997   0.043   4.497
 1654SOL    HW1 5111   0.941   0.039   4.419
 1654SOL    HW2 5112   0.991   5.955   4.535
 1655SOL     OW 5113   1.438   1.160   4.587
 1655SOL    HW1 5114   1.368   1.097   4.572
 1655SOL    HW2 5115   1.476   1.175   4.500
 1656SOL     OW 5116   1.464   0.607   4.698
 1656SOL    HW1 5117   1.412   0.527   4.695
 1656SOL    HW2 5118   1.521   0.596   4.775
 1657SOL     OW 5119   0.488   1.423   3.882
 1657SOL    HW1 5120   0.416   1.389   3.935
 1657SOL    HW2 5121   0.467   1.395   3.793
 1658SOL     OW 5122   1.669   1.253   4.409
 1658SOL    HW1 5123   1.763   1.261   4.396
 1658SOL    HW2 5124   1.638   1.344   4.417
 1659SOL     OW 5125   1.391   0.576   3.800
 1659SOL    HW1 5126   1.323   0.560   3.866
 1659SOL    HW2 5127   1.463   0.518   3.824
 1660SOL     OW 5128   0.531   0.270   4.046
 1660SOL    HW1 5129   0.547   0.211   3.973
 1660SOL    HW2 5130   0.508   0.353   4.006
 1661SOL     OW 5131   1.752   1.240   5.293
 1661SOL    HW1 5132   1.840   1.203   5.285
 1661SOL    HW2 5133   1.767   1.330   5.323
 1662SOL     OW 5134   1.056   1.356   5.059
 1662SOL    HW1 5135   0.981   1.324   5.109
 1662SOL    HW2 5136   1.131   1.312   5.099
 1663SOL     OW 5137   1.606   1.625   5.377
 1663SOL    HW1 5138   1.602   1.659   5.288
 1663SOL    HW2 5139   1.689   1.577   5.381
 1664SOL     OW 5140   1.131   1.208   4.829
 1664SOL    HW1 5141   1.068   1.245   4.891
 1664SOL    HW2 5142   1.101   1.240   4.743
 1665SOL     OW 5143   1.623   1.096   4.802
 1665SOL    HW1 5144   1.616   1.158   4.874
 1665SOL    HW2 5145   1.547   1.114   4.747
 1666SOL     OW 5146   0.896   0.094   5.126
 1666SOL    HW1 5147   0.920   0.063   5.039
 1666SOL    HW2 5148   0.975   0.135   5.160
 1667SOL     OW 5149   0.986   1.114   5.452
 1667SOL    HW1 5150   0.893   1.129   5.473
 1667SOL    HW2 5151   0.984   1.037   5.394
 1668SOL     OW 5152   0.708   1.066   4.093
 1668SOL    HW1 5153   0.690   1.049   4.185
 1668SOL    HW2 5154   0.783   1.009   4.072
 1669SOL     OW 5155   0.429   0.824   4.966
 1669SOL    HW1 5156   0.496   0.829   5.033
 1669SOL    HW2 5157   0.391   0.737   4.977
 1670SOL     OW 5158   1.260   0.376   5.005
 1670SOL    HW1 5159   1.291   0.459   5.043
 1670SOL    HW2 5160   1.173   0.396   4.972
 1671SOL     OW 5161   0.066   1.593   5.060
 1671SOL    HW1 5162   0.093   1.674   5.017
 1671SOL    HW2 5163   0.147   1.554   5.092
 1672SOL     OW 5164   0.395   1.135   4.192
 1672SOL    HW1 5165   0.366   1.205   4.133
 1672SOL    HW2 5166   0.369   1.054   4.148
 1673SOL     OW 5167   0.561   0.524   4.581
 1673SOL    HW1 5168   0.567   0.582   4.505
 1673SOL    HW2 5169   0.626   0.557   4.642
 1674SOL     OW 5170   1.238   1.352   4.126
 1674SOL    HW1 5171   1.297   1.411   4.173
 1674SOL    HW2 5172   1.151   1.375   4.158
 1675SOL     OW 5173   1.277   1.460   4.877
 1675SOL    HW1 5174   1.336   1.461   4.953
 1675SOL    HW2 5175   1.225   1.380   4.888
 1676SOL     OW 5176   1.587   0.622   4.218
 1676SOL    HW1 5177   1.533   0.688   4.260
 1676SOL    HW2 5178   1.626   0.667   4.143
 1677SOL     OW 5179   0.344   1.527   5.039
 1677SOL    HW1 5180   0.330   1.483   4.955
 1677SOL    HW2 5181   0.439   1.538   5.045
 1678SOL     OW 5182   0.422   0.730   5.322
 1678SOL    HW1 5183   0.488   0.777   5.271
 1678SOL    HW2 5184   0.461   0.644   5.339
 1679SOL     OW 5185   1.602   0.778   5.407
 1679SOL    HW1 5186   1.516   0.820   5.400
 1679SOL    HW2 5187   1.655   0.819   5.339
 1680SOL     OW 5188   1.000   0.121   5.502
 1680SOL    HW1 5189   1.055   0.196   5.477
 1680SOL    HW2 5190   0.997   0.067   5.424
 1681SOL     OW 5191   0.474   0.038   5.472
 1681SOL    HW1 5192   0.485   0.026   5.378
 1681SOL    HW2 5193   0.422   0.118   5.480
 1682SOL     OW 5194   0.592   0.880   4.749
 1682SOL    HW1 5195   0.626   0.969   4.751
 1682SOL    HW2 5196   0.536   0.874   4.826
 1683SOL     OW 5197   1.353   0.856   4.753
 1683SOL    HW1 5198   1.273   0.849   4.700
 1683SOL    HW2 5199   1.396   0.772   4.743
 1684SOL     OW 5200   1.188   0.520   3.980
 1684SOL    HW1 5201   1.203   0.447   4.040
 1684SOL    HW2 5202   1.182   0.597   4.037
 1685SOL     OW 5203   0.290   0.207   4.981
 1685SOL    HW1 5204   0.254   0.229   5.067
 1685SOL    HW2 5205   0.305   0.113   4.985
 1686SOL     OW 5206   0.063   1.313   4.993
 1686SOL    HW1 5207   0.078   1.275   5.079
 1686SOL    HW2 5208   0.047   1.405   5.010
 1687SOL     OW 5209   0.724   0.633   4.779
 1687SOL    HW1 5210   0.801   0.614   4.725
 1687SOL    HW2 5211   0.699   0.722   4.754
 1688SOL     OW 5212   1.742   0.959   5.573
 1688SOL    HW1 5213   1.692   0.895   5.521
 1688SOL    HW2 5214   1.684   0.981   5.646
 1689SOL     OW 5215   0.316   0.049   4.377
 1689SOL    HW1 5216   0.302   0.141   4.396
 1689SOL    HW2 5217   0.231   0.008   4.391
 1690SOL     OW 5218   1.622   0.385   4.089
 1690SOL    HW1 5219   1.642   0.313   4.148
 1690SOL    HW2 5220   1.596   0.457   4.146
 1691SOL     OW 5221   1.029   0.761   4.684
 1691SOL    HW1 5222   1.025   0.778   4.778
 1691SOL    HW2 5223   1.003   0.669   4.676
 1692SOL     OW 5224   0.980   1.563   5.440
 1692SOL    HW1 5225   0.964   1.610   5.358
 1692SOL    HW2 5226   1.028   1.485   5.415
 1693SOL     OW 5227   1.853   1.503   5.329
 1693SOL    HW1 5228   1.872   1.531   5.240
 1693SOL    HW2 5229   1.934   1.521   5.378
 1694SOL     OW 5230   0.352   0.904   5.527
 1694SOL    HW1 5231   0.431   0.938   5.569
 1694SOL    HW2 5232   0.384   0.845   5.459
 1695SOL     OW 5233   1.479   0.317   3.865
 1695SOL    HW1 5234   1.426   0.240   3.887
 1695SOL    HW2 5235   1.537   0.328   3.940
 1696SOL     OW 5236   1.264   0.810   3.723
 1696SOL    HW1 5237   1.299   0.723   3.743
 1696SOL    HW2 5238   1.340   0.867   3.726
 1697SOL     OW 5239   1.069   1.339   4.579
 1697SOL    HW1 5240   1.071   1.265   4.517
 1697SOL    HW2 5241   1.131   1.402   4.542
 1698SOL     OW 5242   0.321   0.806   4.662
 1698SOL    HW1 5243   0.413   0.830   4.653
 1698SOL    HW2 5244   0.322   0.726   4.714
 1699SOL     OW 5245   0.350   0.535   4.750
 1699SOL    HW1 5246   0.302   0.453   4.738
 1699SOL    HW2 5247   0.424   0.528   4.689
 1700SOL     OW 5248   1.132   0.376   5.416
 1700SOL    HW1 5249   1.087   0.436   5.476
 1700SOL    HW2 5250   1.220   0.413   5.408
 1701SOL     OW 5251   1.136   0.205   5.206
 1701SOL    HW1 5252   1.127   0.270   5.276
 1701SOL    HW2 5253   1.150   0.256   5.127
 1702SOL     OW 5254   0.013   1.310   3.920
 1702SOL    HW1 5255   5.936   1.307   3.863
 1702SOL    HW2 5256   0.014   1.225   3.964
 1703SOL     OW 5257   0.072   1.800   4.622
 1703SOL    HW1 5258   0.058   1.705   4.624
 1703SOL    HW2 5259   0.167   1.810   4.617
 1704SOL     OW 5260   0.496   1.574   4.630
 1704SOL    HW1 5261   0.565   1.636   4.655
 1704SOL    HW2 5262   0.539   1.513   4.570
 1705SOL     OW 5263   0.978   0.792   4.951
 1705SOL    HW1 5264   1.036   0.772   5.025
 1705SOL    HW2 5265   0.895   0.750   4.974
 1706SOL     OW 5266   0.011   0.587   4.855
 1706SOL    HW1 5267   0.039   0.533   4.781
 1706SOL    HW2 5268   0.036   0.537   4.932
 1707SOL     OW 5269   0.192   0.499   5.450
 1707SOL    HW1 5270   0.251   0.478   5.378
 1707SOL    HW2 5271   0.137   0.570   5.417
 1708SOL     OW 5272   1.377   0.938   5.382
 1708SOL    HW1 5273   1.399   1.031   5.379
 1708SOL    HW2 5274   1.373   0.912   5.290
 1709SOL     OW 5275   0.811   0.567   4.084
 1709SOL    HW1 5276   0.815   0.504   4.012
 1709SOL    HW2 5277   0.740   0.626   4.059
 1710SOL     OW 5278   1.639   0.601   4.911
 1710SOL    HW1 5279   1.633   0.541   4.986
 1710SOL    HW2 5280   1.726   0.585   4.875
 1711SOL     OW 5281   0.280   1.557   5.464
 1711SOL    HW1 5282   0.221   1.618   5.508
 1711SOL    HW2 5283   0.253   1.471   5.496
 1712SOL     OW 5284   0.696   0.462   4.989
 1712SOL    HW1 5285   0.636   0.390   4.968
 1712SOL    HW2 5286   0.693   0.518   4.911
 1713SOL     OW 5287   0.923   1.679   5.192
 1713SOL    HW1 5288   0.901   1.642   5.107
 1713SOL    HW2 5289   0.918   1.774   5.180
 1714SOL     OW 5290   0.463   0.497   3.915
 1714SOL    HW1 5291   0.524   0.569   3.931
 1714SOL    HW2 5292   0.379   0.540   3.898
 1715SOL     OW 5293   0.190   1.121   5.180
 1715SOL    HW1 5294   0.138   1.098   5.257
 1715SOL    HW2 5295   0.143   1.081   5.106
 1716SOL     OW 5296   1.324   1.046   4.946
 1716SOL    HW1 5297   1.347   0.983   4.879
 1716SOL    HW2 5298   1.255   1.100   4.906
 1717SOL     OW 5299   1.307   0.781   4.043
 1717SOL    HW1 5300   1.231   0.810   4.094
 1717SOL    HW2 5301   1.303   0.833   3.963
 1718SOL     OW 5302   1.778   1.743   4.878
 1718SOL    HW1 5303   1.837   1.768   4.807
 1718SOL    HW2 5304   1.752   1.653   4.856
 1719SOL     OW 5305   1.238   1.733   4.833
 1719SOL    HW1 5306   1.323   1.755   4.794
 1719SOL    HW2 5307   1.245   1.640   4.855
 1720SOL     OW 5308   0.071   1.271   4.727
 1720SOL    HW1 5309   0.069   1.271   4.822
 1720SOL    HW2 5310   0.001   1.212   4.701
 1721SOL     OW 5311   0.679   1.670   5.460
 1721SOL    HW1 5312   0.620   1.745   5.453
 1721SOL    HW2 5313   0.743   1.683   5.390
 1722SOL     OW 5314   1.712   0.144   4.203
 1722SOL    HW1 5315   1.803   0.128   4.179
 1722SOL    HW2 5316   1.696   0.086   4.278
 1723SOL     OW 5317   0.138   1.787   5.559
 1723SOL    HW1 5318   0.078   1.727   5.603
 1723SOL    HW2 5319   0.185   1.831   5.630
 1724SOL     OW 5320   1.273   0.927   4.401
 1724SOL    HW1 5321   1.347   0.866   4.410
 1724SOL    HW2 5322   1.307   0.998   4.346
 1725SOL     OW 5323   0.809   1.276   5.152
 1725SOL    HW1 5324   0.782   1.314   5.235
 1725SOL    HW2 5325   0.738   1.297   5.091
 1726SOL     OW 5326   0.669   1.626   3.879
 1726SOL    HW1 5327   0.681   1.638   3.785
 1726SOL    HW2 5328   0.616   1.547   3.887
 1727SOL     OW 5329   1.623   1.727   5.114
 1727SOL    HW1 5330   1.675   1.732   5.034
 1727SOL    HW2 5331   1.609   1.818   5.140
 1728SOL     OW 5332   1.848   0.142   4.689
 1728SOL    HW1 5333   1.866   0.069   4.629
 1728SOL    HW2 5334   1.762   0.175   4.661
 1729SOL     OW 5335   0.260   0.312   4.442
 1729SOL    HW1 5336   0.181   0.352   4.405
 1729SOL    HW2 5337   0.250   0.323   4.537
 1730SOL     OW 5338   0.823   1.006   5.095
 1730SOL    HW1 5339   0.869   0.999   5.012
 1730SOL    HW2 5340   0.822   1.100   5.114
 1731SOL     OW 5341   0.912   0.905   4.019
 1731SOL    HW1 5342   0.972   0.935   3.951
 1731SOL    HW2 5343   0.960   0.839   4.067
 1732SOL     OW 5344   0.382   1.310   5.217
 1732SOL    HW1 5345   0.360   1.385   5.162
 1732SOL    HW2 5346   0.316   1.244   5.196
 1733SOL     OW 5347   1.607   1.280   5.008
 1733SOL    HW1 5348   1.670   1.270   5.080
 1733SOL    HW2 5349   1.548   1.349   5.036
 1734SOL     OW 5350   1.054   1.109   4.433
 1734SOL    HW1 5351   0.983   1.057   4.469
 1734SOL    HW2 5352   1.118   1.044   4.402
 1735SOL     OW 5353   1.058   0.241   4.672
 1735SOL    HW1 5354   1.046   0.181   4.599
 1735SOL    HW2 5355   0.987   0.221   4.732
 1736SOL     OW 5356   0.606   1.492   4.202
 1736SOL    HW1 5357   0.653   1.440   4.137
 1736SOL    HW2 5358   0.528   1.524   4.156
 1737SOL     OW 5359   1.718   0.401   5.102
 1737SOL    HW1 5360   1.797   0.456   5.100
 1737SOL    HW2 5361   1.742   0.324   5.051
 1738SOL     OW 5362   0.268   1.338   4.029
 1738SOL    HW1 5363   0.175   1.334   4.004
 1738SOL    HW2 5364   0.268   1.378   4.116
 1739SOL     OW 5365   0.118   1.033   5.448
 1739SOL    HW1 5366   0.054   0.992   5.505
 1739SOL    HW2 5367   0.202   0.996   5.476
 1740SOL     OW 5368   0.667   0.231   5.222
 1740SOL    HW1 5369   0.734   0.177   5.181
 1740SOL    HW2 5370   0.694   0.239   5.313
 1741SOL     OW 5371   0.055   0.335   3.759
 1741SOL    HW1 5372   5.960   0.341   3.749
 1741SOL    HW2 5373   0.089   0.403   3.700
 1742SOL     OW 5374   1.429   0.858   5.123
 1742SOL    HW1 5375   1.380   0.919   5.068
 1742SOL    HW2 5376   1.518   0.860   5.087
 1743SOL     OW 5377   0.077   0.181   4.026
 1743SOL    HW1 5378   0.093   0.266   3.984
 1743SOL    HW2 5379   0.156   0.131   4.008
 1744SOL     OW 5380   1.174   1.371   3.856
 1744SOL    HW1 5381   1.084   1.340   3.846
 1744SOL    HW2 5382   1.200   1.344   3.944
 1745SOL     OW 5383   0.622   0.829   5.160
 1745SOL    HW1 5384   0.677   0.906   5.144
 1745SOL    HW2 5385   0.684   0.757   5.168
 1746SOL     OW 5386   1.484   1.777   4.712
 1746SOL    HW1 5387   1.511   1.833   4.639
 1746SOL    HW2 5388   1.565   1.742   4.747
 1747SOL     OW 5389   0.713   0.568   5.433
 1747SOL    HW1 5390   0.759   0.630   5.490
 1747SOL    HW2 5391   0.742   0.482   5.466
 1748SOL     OW 5392   1.475   1.199   5.353
 1748SOL    HW1 5393   1.462   1.215   5.447
 1748SOL    HW2 5394   1.568   1.215   5.338
 1749SOL     OW 5395   0.373   1.741   5.283
 1749SOL    HW1 5396   0.287   1.781   5.269
 1749SOL    HW2 5397   0.355   1.663   5.335
 1750SOL     OW 5398   1.668   0.880   4.979
 1750SOL    HW1 5399   1.661   0.795   4.936
 1750SOL    HW2 5400   1.657   0.943   4.908
 1751SOL     OW 5401   1.230   0.323   4.178
 1751SOL    HW1 5402   1.297   0.255   4.170
 1751SOL    HW2 5403   1.256   0.374   4.255
 1752SOL     OW 5404   0.581   0.740   4.401
 1752SOL    HW1 5405   0.627   0.821   4.381
 1752SOL    HW2 5406   0.522   0.727   4.327
 1753SOL     OW 5407   1.759   0.366   5.372
 1753SOL    HW1 5408   1.741   0.379   5.279
 1753SOL    HW2 5409   1.690   0.307   5.401
 1754SOL     OW 5410   1.749   0.935   5.237
 1754SOL    HW1 5411   1.739   1.030   5.250
 1754SOL    HW2 5412   1.732   0.922   5.144
 1755SOL     OW 5413   0.859   1.367   3.762
 1755SOL    HW1 5414   0.827   1.396   3.848
 1755SOL    HW2 5415   0.883   1.448   3.717
 1756SOL     OW 5416   0.662   1.790   4.668
 1756SOL    HW1 5417   0.643   1.880   4.644
 1756SOL    HW2 5418   0.757   1.782   4.659
 1757SOL     OW 5419   0.868   0.967   4.579
 1757SOL    HW1 5420   0.920   0.895   4.616
 1757SOL    HW2 5421   0.833   1.013   4.655
 1758SOL     OW 5422   1.061   0.972   3.805
 1758SOL    HW1 5423   1.042   1.033   3.734
 1758SOL    HW2 5424   1.127   0.913   3.769
 1759SOL     OW 5425   1.852   1.566   4.576
 1759SOL    HW1 5426   1.821   1.564   4.485
 1759SOL    HW2 5427   1.833   1.478   4.609
 1760SOL     OW 5428   0.215   1.301   5.577
 1760SOL    HW1 5429   0.159   1.249   5.520
 1760SOL    HW2 5430   0.164   1.311   5.658
 1761SOL     OW 5431   0.090   1.243   4.387
 1761SOL    HW1 5432   0.059   1.205   4.469
 1761SOL    HW2 5433   0.137   1.172   4.343
 1762SOL     OW 5434   0.682   1.405   5.358
 1762SOL    HW1 5435   0.598   1.365   5.381
 1762SOL    HW2 5436   0.677   1.494   5.393
 1763SOL     OW 5437   1.804   0.183   4.960
 1763SOL    HW1 5438   1.816   0.094   4.993
 1763SOL    HW2 5439   1.826   0.177   4.867
 1764SOL     OW 5440   0.432   0.434   4.255
 1764SOL    HW1 5441   0.465   0.366   4.195
 1764SOL    HW2 5442   0.382   0.385   4.321
 1765SOL     OW 5443   1.692   1.490   4.830
 1765SOL    HW1 5444   1.617   1.466   4.776
 1765SOL    HW2 5445   1.703   1.416   4.890
 1766SOL     OW 5446   0.337   0.567   5.025
 1766SOL    HW1 5447   0.389   0.505   5.077
 1766SOL    HW2 5448   0.349   0.538   4.935
 1767SOL     OW 5449   0.829   1.579   4.400
 1767SOL    HW1 5450   0.814   1.630   4.320
 1767SOL    HW2 5451   0.754   1.520   4.404
 1768SOL     OW 5452   1.434   0.223   4.847
 1768SOL    HW1 5453   1.478   0.164   4.908
 1768SOL    HW2 5454   1.373   0.273   4.901
 1769SOL     OW 5455   1.019   0.009   4.888
 1769SOL    HW1 5456   0.960   5.963   4.829
 1769SOL    HW2 5457   1.098   0.024   4.835
 1770SOL     OW 5458   0.773   1.334   4.039
 1770SOL    HW1 5459   0.740   1.244   4.046
 1770SOL    HW2 5460   0.855   1.333   4.090
 1771SOL     OW 5461   0.619   1.555   5.009
 1771SOL    HW1 5462   0.621   1.636   5.059
 1771SOL    HW2 5463   0.707   1.548   4.971
 1772SOL     OW 5464   1.346   0.068   3.888
 1772SOL    HW1 5465   1.399   5.993   3.862
 1772SOL    HW2 5466   1.260   0.030   3.908
 1773SOL     OW 5467   1.297   0.464   4.402
 1773SOL    HW1 5468   1.244   0.543   4.408
 1773SOL    HW2 5469   1.300   0.431   4.492
 1774SOL     OW 5470   1.599   0.227   4.617
 1774SOL    HW1 5471   1.536   0.235   4.688
 1774SOL    HW2 5472   1.590   0.309   4.568
 1775SOL     OW 5473   0.056   1.058   4.012
 1775SOL    HW1 5474   0.147   1.035   3.998
 1775SOL    HW2 5475   0.022   0.986   4.066
 1776SOL     OW 5476   0.873   1.648   4.075
 1776SOL    HW1 5477   0.804   1.636   4.010
 1776SOL    HW2 5478   0.849   1.729   4.120
 1777SOL     OW 5479   0.219   0.616   5.710
 1777SOL    HW1 5480   0.127   0.630   5.732
 1777SOL    HW2 5481   0.218   0.587   5.619
 1778SOL     OW 5482   1.780   0.598   5.810
 1778SOL    HW1 5483   1.748   0.591   5.720
 1778SOL    HW2 5484   1.738   0.525   5.856
 1779SOL     OW 5485   0.259   1.724   0.079
 1779SOL    HW1 5486   0.273   1.808   0.122
 1779SOL    HW2 5487   0.337   1.712   0.024
 1780SOL     OW 5488   0.603   0.982   5.728
 1780SOL    HW1 5489   0.632   1.038   5.656
 1780SOL    HW2 5490   0.676   0.981   5.789
 1781SOL     OW 5491   1.823   1.767   5.918
 1781SOL    HW1 5492   1.851   1.709   5.988
 1781SOL    HW2 5493   1.893   1.833   5.913
 1782SOL     OW 5494   0.014   1.577   5.687
 1782SOL    HW1 5495   0.014   1.487   5.719
 1782SOL    HW2 5496   0.005   1.630   5.766
 1783SOL     OW 5497   1.706   0.876   0.168
 1783SOL    HW1 5498   1.783   0.912   0.211
 1783SOL    HW2 5499   1.679   0.944   0.106
 1784SOL     OW 5500   1.677   1.093   0.000
 1784SOL    HW1 5501   1.766   1.110   5.966
 1784SOL    HW2 5502   1.649   1.178   0.035
 1785SOL     OW 5503   1.544   1.003   5.770
 1785SOL    HW1 5504   1.492   0.924   5.785
 1785SOL    HW2 5505   1.578   1.026   5.857
 1786SOL     OW 5506   0.578   0.728   5.851
 1786SOL    HW1 5507   0.596   0.802   5.793
 1786SOL    HW2 5508   0.553   0.768   5.934
 1787SOL     OW 5509   0.847   0.373   5.725
 1787SOL    HW1 5510   0.924   0.419   5.692
 1787SOL    HW2 5511   0.883   0.303   5.779
 1788SOL     OW 5512   0.323   0.950   5.829
 1788SOL    HW1 5513   0.408   0.974   5.792
 1788SOL    HW2 5514   0.298   0.870   5.784
 1789SOL     OW 5515   1.116   1.772   5.822
 1789SOL    HW1 5516   1.031   1.735   5.846
 1789SOL    HW2 5517   1.142   1.723   5.743
 1790SOL     OW 5518   1.633   1.385   5.676
 1790SOL    HW1 5519   1.592   1.471   5.664
 1790SOL    HW2 5520   1.564   1.323   5.655
 1791SOL     OW 5521   0.484   1.757   5.916
 1791SOL    HW1 5522   0.535   1.813   5.975
 1791SOL    HW2 5523   0.548   1.722   5.854
 1792SOL     OW 5524   0.619   0.083   5.697
 1792SOL    HW1 5525   0.707   0.048   5.686
 1792SOL    HW2 5526   0.578   0.075   5.611
 1793SOL     OW 5527   1.427   1.206   5.625
 1793SOL    HW1 5528   1.463   1.133   5.675
 1793SOL    HW2 5529   1.341   1.222   5.665
 1794SOL     OW 5530   0.312   0.049   5.786
 1794SOL    HW1 5531   0.363   0.088   5.715
 1794SOL    HW2 5532   0.359   5.968   5.807
 1795SOL     OW 5533   1.031   0.548   5.607
 1795SOL    HW1 5534   0.985   0.631   5.594
 1795SOL    HW2 5535   1.094   0.566   5.676
 1796SOL     OW 5536   1.887   0.814   5.934
 1796SOL    HW1 5537   1.908   0.780   0.020
 1796SOL    HW2 5538   1.837   0.745   5.891
 1797SOL     OW 5539   0.487   1.415   5.745
 1797SOL    HW1 5540   0.415   1.387   5.801
 1797SOL    HW2 5541   0.465   1.383   5.658
 1798SOL     OW 5542   1.707   1.298   0.297
 1798SOL    HW1 5543   1.779   1.258   0.249
 1798SOL    HW2 5544   1.654   1.340   0.229
 1799SOL     OW 5545   1.406   0.582   5.652
 1799SOL    HW1 5546   1.336   0.564   5.715
 1799SOL    HW2 5547   1.475   0.520   5.674
 1800SOL     OW 5548   0.535   0.253   5.897
 1800SOL    HW1 5549   0.543   0.205   5.815
 1800SOL    HW2 5550   0.514   0.343   5.871
 1801SOL     OW 5551   0.386   1.115   0.039
 1801SOL    HW1 5552   0.338   1.195   0.015
 1801SOL    HW2 5553   0.360   1.052   5.973
 1802SOL     OW 5554   1.208   0.526   5.829
 1802SOL    HW1 5555   1.247   0.450   5.872
 1802SOL    HW2 5556   1.152   0.566   5.896
 1803SOL     OW 5557   1.493   0.313   5.709
 1803SOL    HW1 5558   1.429   0.244   5.729
 1803SOL    HW2 5559   1.570   0.290   5.761
 1804SOL     OW 5560   1.310   0.841   5.631
 1804SOL    HW1 5561   1.345   0.752   5.633
 1804SOL    HW2 5562   1.332   0.874   5.544
 1805SOL     OW 5563   0.019   1.312   5.777
 1805SOL    HW1 5564   5.941   1.312   5.722
 1805SOL    HW2 5565   0.019   1.226   5.820
 1806SOL     OW 5566   0.816   0.597   5.900
 1806SOL    HW1 5567   0.809   0.518   5.847
 1806SOL    HW2 5568   0.731   0.640   5.889
 1807SOL     OW 5569   0.459   0.489   5.778
 1807SOL    HW1 5570   0.514   0.564   5.798
 1807SOL    HW2 5571   0.372   0.526   5.762
 1808SOL     OW 5572   1.728   0.122   0.064
 1808SOL    HW1 5573   1.812   0.077   0.067
 1808SOL    HW2 5574   1.676   0.083   0.134
 1809SOL     OW 5575   0.675   1.614   5.743
 1809SOL    HW1 5576   0.680   1.634   5.649
 1809SOL    HW2 5577   0.612   1.543   5.749
 1810SOL     OW 5578   1.200   1.607   5.617
 1810SOL    HW1 5579   1.193   1.514   5.641
 1810SOL    HW2 5580   1.138   1.618   5.546
 1811SOL     OW 5581   0.869   0.914   5.830
 1811SOL    HW1 5582   0.949   0.946   5.789
 1811SOL    HW2 5583   0.899   0.846   5.891
 1812SOL     OW 5584   1.482   1.623   5.626
 1812SOL    HW1 5585   1.388   1.619   5.608
 1812SOL    HW2 5586   1.523   1.631   5.539
 1813SOL     OW 5587   1.034   1.154   0.298
 1813SOL    HW1 5588   0.984   1.094   0.354
 1813SOL    HW2 5589   1.080   1.096   0.237
 1814SOL     OW 5590   0.263   1.354   5.920
 1814SOL    HW1 5591   0.178   1.341   5.878
 1814SOL    HW2 5592   0.248   1.425   5.983
 1815SOL     OW 5593   0.062   0.325   5.622
 1815SOL    HW1 5594   5.966   0.334   5.621
 1815SOL    HW2 5595   0.093   0.398   5.569
 1816SOL     OW 5596   0.083   0.171   5.865
 1816SOL    HW1 5597   0.086   0.250   5.811
 1816SOL    HW2 5598   0.168   0.129   5.850
 1817SOL     OW 5599   1.171   1.338   5.705
 1817SOL    HW1 5600   1.079   1.313   5.701
 1817SOL    HW2 5601   1.194   1.330   5.798
 1818SOL     OW 5602   1.263   0.332   0.016
 1818SOL    HW1 5603   1.303   0.253   0.053
 1818SOL    HW2 5604   1.270   0.397   0.086
 1819SOL     OW 5605   0.867   1.374   5.624
 1819SOL    HW1 5606   0.822   1.421   5.695
 1819SOL    HW2 5607   0.888   1.443   5.560
 1820SOL     OW 5608   1.086   0.993   5.686
 1820SOL    HW1 5609   1.066   1.038   5.604
 1820SOL    HW2 5610   1.164   0.941   5.666
 1821SOL     OW 5611   1.348   0.074   5.718
 1821SOL    HW1 5612   1.403   5.997   5.714
 1821SOL    HW2 5613   1.278   0.051   5.779
 1822SOL     OW 5614   0.053   1.058   5.873
 1822SOL    HW1 5615   0.144   1.028   5.862
 1822SOL    HW2 5616   0.016   0.997   5.937
 1823SOL     OW 5617   0.882   1.653   5.924
 1823SOL    HW1 5618   0.813   1.642   5.859
 1823SOL    HW2 5619   0.849   1.719   5.984
 1824SOL     OW 5620   0.235   2.505   0.124
 1824SOL    HW1 5621   0.151   2.479   0.161
 1824SOL    HW2 5622   0.230   2.481   0.032
 1825SOL     OW 5623   0.222   2.131   0.996
 1825SOL    HW1 5624   0.246   2.100   1.083
 1825SOL    HW2 5625   0.131   2.103   0.984
 1826SOL     OW 5626   0.015   2.252   0.615
 1826SOL    HW1 5627   5.938   2.262   0.672
 1826SOL    HW2 5628   5.986   2.192   0.546
 1827SOL     OW 5629   0.567   3.154   1.179
 1827SOL    HW1 5630   0.478   3.158   1.142
 1827SOL    HW2 5631   0.582   3.243   1.213
 1828SOL     OW 5632   1.565   3.376   0.708
 1828SOL    HW1 5633   1.522   3.353   0.791
 1828SOL    HW2 5634   1.494   3.380   0.644
 1829SOL     OW 5635   1.130   2.560   0.698
 1829SOL    HW1 5636   1.180   2.641   0.686
 1829SOL    HW2 5637   1.084   2.572   0.781
 1830SOL     OW 5638   1.787   2.455   0.245
 1830SOL    HW1 5639   1.739   2.469   0.163
 1830SOL    HW2 5640   1.745   2.379   0.284
 1831SOL     OW 5641   0.750   3.002   1.043
 1831SOL    HW1 5642   0.684   3.039   1.101
 1831SOL    HW2 5643   0.789   3.077   0.999
 1832SOL     OW 5644   0.832   2.652   1.814
 1832SOL    HW1 5645   0.861   2.710   1.884
 1832SOL    HW2 5646   0.874   2.686   1.735
 1833SOL     OW 5647   0.687   2.861   0.645
 1833SOL    HW1 5648   0.753   2.851   0.714
 1833SOL    HW2 5649   0.621   2.918   0.684
 1834SOL     OW 5650   0.714   3.013   1.812
 1834SOL    HW1 5651   0.759   3.091   1.844
 1834SOL    HW2 5652   0.630   3.046   1.779
 1835SOL     OW 5653   0.330   3.283   1.066
 1835SOL    HW1 5654   0.258   3.246   1.015
 1835SOL    HW2 5655   0.381   3.334   1.003
 1836SOL     OW 5656   1.461   3.366   1.355
 1836SOL    HW1 5657   1.517   3.444   1.359
 1836SOL    HW2 5658   1.404   3.374   1.431
 1837SOL     OW 5659   0.449   2.258   1.489
 1837SOL    HW1 5660   0.525   2.200   1.492
 1837SOL    HW2 5661   0.374   2.200   1.501
 1838SOL     OW 5662   1.608   2.308   0.741
 1838SOL    HW1 5663   1.535   2.332   0.684
 1838SOL    HW2 5664   1.623   2.387   0.795
 1839SOL     OW 5665   0.238   3.574   0.489
 1839SOL    HW1 5666   0.256   3.653   0.539
 1839SOL    HW2 5667   0.316   3.562   0.434
 1840SOL     OW 5668   0.235   3.302   0.533
 1840SOL    HW1 5669   0.212   3.394   0.543
 1840SOL    HW2 5670   0.171   3.255   0.587
 1841SOL     OW 5671   0.261   2.955   0.909
 1841SOL    HW1 5672   0.259   2.881   0.970
 1841SOL    HW2 5673   0.202   3.019   0.949
 1842SOL     OW 5674   0.611   3.654   1.429
 1842SOL    HW1 5675   0.528   3.635   1.474
 1842SOL    HW2 5676   0.633   3.743   1.455
 1843SOL     OW 5677   0.608   2.825   0.133
 1843SOL    HW1 5678   0.560   2.895   0.089
 1843SOL    HW2 5679   0.651   2.866   0.207
 1844SOL     OW 5680   1.593   1.990   1.468
 1844SOL    HW1 5681   1.611   2.070   1.418
 1844SOL    HW2 5682   1.583   2.020   1.559
 1845SOL     OW 5683   0.135   2.505   0.574
 1845SOL    HW1 5684   0.092   2.420   0.575
 1845SOL    HW2 5685   0.076   2.562   0.623
 1846SOL     OW 5686   1.847   3.623   0.335
 1846SOL    HW1 5687   1.913   3.592   0.397
 1846SOL    HW2 5688   1.866   3.716   0.325
 1847SOL     OW 5689   5.988   3.429   0.103
 1847SOL    HW1 5690   0.005   3.337   0.122
 1847SOL    HW2 5691   5.989   3.472   0.188
 1848SOL     OW 5692   1.693   2.764   0.654
 1848SOL    HW1 5693   1.777   2.722   0.635
 1848SOL    HW2 5694   1.673   2.813   0.575
 1849SOL     OW 5695   1.638   2.952   0.457
 1849SOL    HW1 5696   1.672   3.012   0.390
 1849SOL    HW2 5697   1.643   3.002   0.538
 1850SOL     OW 5698   0.090   2.598   1.654
 1850SOL    HW1 5699   0.173   2.620   1.697
 1850SOL    HW2 5700   0.081   2.664   1.585
 1851SOL     OW 5701   0.619   3.254   0.734
 1851SOL    HW1 5702   0.576   3.169   0.744
 1851SOL    HW2 5703   0.601   3.279   0.643
 1852SOL     OW 5704   1.287   3.103   1.431
 1852SOL    HW1 5705   1.313   3.037   1.367
 1852SOL    HW2 5706   1.353   3.097   1.500
 1853SOL     OW 5707   0.821   1.864   0.514
 1853SOL    HW1 5708   0.861   1.949   0.491
 1853SOL    HW2 5709   0.728   1.884   0.524
 1854SOL     OW 5710   0.200   2.840   1.180
 1854SOL    HW1 5711   0.289   2.806   1.192
 1854SOL    HW2 5712   0.143   2.773   1.217
 1855SOL     OW 5713   1.465   2.898   0.227
 1855SOL    HW1 5714   1.409   2.826   0.255
 1855SOL    HW2 5715   1.541   2.894   0.286
 1856SOL     OW 5716   1.178   3.675   1.623
 1856SOL    HW1 5717   1.193   3.730   1.546
 1856SOL    HW2 5718   1.195   3.586   1.593
 1857SOL     OW 5719   0.337   2.105   1.834
 1857SOL    HW1 5720   0.375   2.193   1.835
 1857SOL    HW2 5721   0.243   2.120   1.846
 1858SOL     OW 5722   1.467   3.281   0.950
 1858SOL    HW1 5723   1.399   3.297   1.015
 1858SOL    HW2 5724   1.455   3.190   0.924
 1859SOL     OW 5725   1.657   3.607   0.579
 1859SOL    HW1 5726   1.639   3.575   0.490
 1859SOL    HW2 5727   1.635   3.532   0.635
 1860SOL     OW 5728   0.598   2.582   0.269
 1860SOL    HW1 5729   0.609   2.664   0.221
 1860SOL    HW2 5730   0.533   2.602   0.337
 1861SOL     OW 5731   1.279   2.220   0.934
 1861SOL    HW1 5732   1.189   2.187   0.943
 1861SOL    HW2 5733   1.330   2.165   0.993
 1862SOL     OW 5734   1.583   3.533   0.310
 1862SOL    HW1 5735   1.676   3.555   0.305
 1862SOL    HW2 5736   1.557   3.515   0.220
 1863SOL     OW 5737   0.793   2.479   1.450
 1863SOL    HW1 5738   0.766   2.456   1.539
 1863SOL    HW2 5739   0.755   2.411   1.395
 1864SOL     OW 5740   1.394   2.334   1.681
 1864SOL    HW1 5741   1.401   2.387   1.760
 1864SOL    HW2 5742   1.452   2.260   1.696
 1865SOL     OW 5743   0.957   2.751   1.584
 1865SOL    HW1 5744   1.011   2.680   1.550
 1865SOL    HW2 5745   0.907   2.782   1.508
 1866SOL     OW 5746   0.991   2.274   1.236
 1866SOL    HW1 5747   0.904   2.294   1.270
 1866SOL    HW2 5748   0.975   2.228   1.154
 1867SOL     OW 5749   1.055   2.556   0.428
 1867SOL    HW1 5750   1.073   2.553   0.522
 1867SOL    HW2 5751   0.972   2.508   0.417
 1868SOL     OW 5752   0.074   2.678   0.799
 1868SOL    HW1 5753   0.159   2.673   0.843
 1868SOL    HW2 5754   0.084   2.749   0.736
 1869SOL     OW 5755   0.120   3.728   1.575
 1869SOL    HW1 5756   0.125   3.702   1.667
 1869SOL    HW2 5757   0.034   3.697   1.546
 1870SOL     OW 5758   0.888   2.212   0.203
 1870SOL    HW1 5759   0.942   2.264   0.143
 1870SOL    HW2 5760   0.884   2.125   0.163
 1871SOL     OW 5761   1.374   3.004   0.541
 1871SOL    HW1 5762   1.452   2.986   0.489
 1871SOL    HW2 5763   1.325   3.067   0.488
 1872SOL     OW 5764   0.549   2.042   0.893
 1872SOL    HW1 5765   0.552   2.072   0.983
 1872SOL    HW2 5766   0.549   2.122   0.840
 1873SOL     OW 5767   1.011   3.312   0.476
 1873SOL    HW1 5768   0.970   3.381   0.424
 1873SOL    HW2 5769   0.982   3.330   0.566
 1874SOL     OW 5770   0.352   3.672   0.872
 1874SOL    HW1 5771   0.398   3.588   0.876
 1874SOL    HW2 5772   0.420   3.738   0.888
 1875SOL     OW 5773   1.803   2.917   0.872
 1875SOL    HW1 5774   1.750   2.898   0.794
 1875SOL    HW2 5775   1.740   2.922   0.943
 1876SOL     OW 5776   1.224   3.401   1.513
 1876SOL    HW1 5777   1.234   3.310   1.543
 1876SOL    HW2 5778   1.157   3.396   1.444
 1877SOL     OW 5779   0.305   2.809   0.262
 1877SOL    HW1 5780   0.356   2.855   0.195
 1877SOL    HW2 5781   0.307   2.718   0.235
 1878SOL     OW 5782   1.478   2.605   0.726
 1878SOL    HW1 5783   1.474   2.564   0.813
 1878SOL    HW2 5784   1.558   2.657   0.727
 1879SOL     OW 5785   0.467   3.125   1.742
 1879SOL    HW1 5786   0.443   3.131   1.649
 1879SOL    HW2 5787   0.384   3.125   1.788
 1880SOL     OW 5788   1.108   3.642   0.220
 1880SOL    HW1 5789   1.050   3.594   0.279
 1880SOL    HW2 5790   1.150   3.575   0.167
 1881SOL     OW 5791   0.198   2.139   1.501
 1881SOL    HW1 5792   0.119   2.190   1.482
 1881SOL    HW2 5793   0.165   2.057   1.539
 1882SOL     OW 5794   1.616   3.234   0.050
 1882SOL    HW1 5795   1.601   3.328   0.043
 1882SOL    HW2 5796   1.533   3.195   0.021
 1883SOL     OW 5797   0.471   3.600   0.334
 1883SOL    HW1 5798   0.520   3.655   0.395
 1883SOL    HW2 5799   0.535   3.577   0.266
 1884SOL     OW 5800   1.405   1.970   0.433
 1884SOL    HW1 5801   1.400   1.948   0.340
 1884SOL    HW2 5802   1.498   1.979   0.451
 1885SOL     OW 5803   0.250   3.646   1.235
 1885SOL    HW1 5804   0.301   3.578   1.278
 1885SOL    HW2 5805   0.254   3.624   1.142
 1886SOL     OW 5806   0.939   3.561   0.900
 1886SOL    HW1 5807   1.018   3.511   0.919
 1886SOL    HW2 5808   0.896   3.511   0.831
 1887SOL     OW 5809   0.395   2.556   0.475
 1887SOL    HW1 5810   0.419   2.464   0.485
 1887SOL    HW2 5811   0.302   2.560   0.498
 1888SOL     OW 5812   1.531   2.086   1.745
 1888SOL    HW1 5813   1.545   2.071   1.838
 1888SOL    HW2 5814   1.461   2.025   1.721
 1889SOL     OW 5815   0.619   1.945   0.104
 1889SOL    HW1 5816   0.714   1.952   0.106
 1889SOL    HW2 5817   0.591   2.010   0.040
 1890SOL     OW 5818   0.768   2.142   1.759
 1890SOL    HW1 5819   0.846   2.086   1.759
 1890SOL    HW2 5820   0.715   2.107   1.830
 1891SOL     OW 5821   0.877   3.386   1.193
 1891SOL    HW1 5822   0.861   3.349   1.107
 1891SOL    HW2 5823   0.947   3.332   1.230
 1892SOL     OW 5824   1.342   2.453   1.433
 1892SOL    HW1 5825   1.374   2.422   1.518
 1892SOL    HW2 5826   1.377   2.542   1.425
 1893SOL     OW 5827   0.817   3.255   0.943
 1893SOL    HW1 5828   0.902   3.244   0.899
 1893SOL    HW2 5829   0.754   3.260   0.871
 1894SOL     OW 5830   0.927   2.370   0.903
 1894SOL    HW1 5831   0.904   2.363   0.810
 1894SOL    HW2 5832   0.958   2.283   0.927
 1895SOL     OW 5833   0.557   1.931   0.508
 1895SOL    HW1 5834   0.477   1.930   0.562
 1895SOL    HW2 5835   0.546   2.007   0.451
 1896SOL     OW 5836   1.394   3.074   0.026
 1896SOL    HW1 5837   1.421   3.008   0.090
 1896SOL    HW2 5838   1.316   3.114   0.065
 1897SOL     OW 5839   0.941   2.110   0.458
 1897SOL    HW1 5840   0.916   2.151   0.375
 1897SOL    HW2 5841   1.035   2.124   0.465
 1898SOL     OW 5842   1.081   2.544   1.457
 1898SOL    HW1 5843   1.014   2.476   1.464
 1898SOL    HW2 5844   1.163   2.496   1.453
 1899SOL     OW 5845   1.220   3.436   0.797
 1899SOL    HW1 5846   1.236   3.498   0.727
 1899SOL    HW2 5847   1.292   3.449   0.859
 1900SOL     OW 5848   0.476   3.019   0.735
 1900SOL    HW1 5849   0.403   3.005   0.796
 1900SOL    HW2 5850   0.436   3.015   0.648
 1901SOL     OW 5851   1.266   3.658   0.609
 1901SOL    HW1 5852   1.314   3.721   0.555
 1901SOL    HW2 5853   1.198   3.711   0.652
 1902SOL     OW 5854   1.036   2.405   0.055
 1902SOL    HW1 5855   0.956   2.441   0.016
 1902SOL    HW2 5856   1.055   2.462   0.129
 1903SOL     OW 5857   0.083   2.408   1.405
 1903SOL    HW1 5858   0.171   2.416   1.368
 1903SOL    HW2 5859   0.070   2.490   1.454
 1904SOL     OW 5860   0.559   2.088   1.167
 1904SOL    HW1 5861   0.600   2.012   1.208
 1904SOL    HW2 5862   0.468   2.085   1.197
 1905SOL     OW 5863   0.867   2.321   0.637
 1905SOL    HW1 5864   0.822   2.375   0.572
 1905SOL    HW2 5865   0.889   2.241   0.590
 1906SOL     OW 5866   1.016   1.915   0.748
 1906SOL    HW1 5867   0.957   1.907   0.673
 1906SOL    HW2 5868   0.995   1.841   0.804
 1907SOL     OW 5869   1.438   3.022   0.859
 1907SOL    HW1 5870   1.368   2.957   0.851
 1907SOL    HW2 5871   1.469   3.035   0.769
 1908SOL     OW 5872   1.465   2.468   0.974
 1908SOL    HW1 5873   1.412   2.388   0.977
 1908SOL    HW2 5874   1.523   2.461   1.049
 1909SOL     OW 5875   1.866   2.679   0.396
 1909SOL    HW1 5876   1.921   2.624   0.452
 1909SOL    HW2 5877   1.828   2.619   0.332
 1910SOL     OW 5878   0.488   3.278   0.159
 1910SOL    HW1 5879   0.415   3.248   0.214
 1910SOL    HW2 5880   0.480   3.226   0.079
 1911SOL     OW 5881   1.669   3.120   0.668
 1911SOL    HW1 5882   1.765   3.125   0.664
 1911SOL    HW2 5883   1.640   3.211   0.670
 1912SOL     OW 5884   1.409   2.437   0.095
 1912SOL    HW1 5885   1.347   2.427   0.167
 1912SOL    HW2 5886   1.454   2.353   0.089
 1913SOL     OW 5887   0.511   2.114   0.308
 1913SOL    HW1 5888   0.561   2.065   0.242
 1913SOL    HW2 5889   0.500   2.201   0.269
 1914SOL     OW 5890   1.761   3.096   1.570
 1914SOL    HW1 5891   1.849   3.064   1.549
 1914SOL    HW2 5892   1.776   3.186   1.600
 1915SOL     OW 5893   1.056   3.217   1.335
 1915SOL    HW1 5894   0.979   3.185   1.382
 1915SOL    HW2 5895   1.130   3.172   1.374
 1916SOL     OW 5896   1.592   3.473   1.642
 1916SOL    HW1 5897   1.598   3.516   1.556
 1916SOL    HW2 5898   1.675   3.426   1.651
 1917SOL     OW 5899   1.130   3.072   1.103
 1917SOL    HW1 5900   1.065   3.107   1.164
 1917SOL    HW2 5901   1.102   3.103   1.018
 1918SOL     OW 5902   1.625   2.956   1.077
 1918SOL    HW1 5903   1.618   3.020   1.149
 1918SOL    HW2 5904   1.549   2.974   1.022
 1919SOL     OW 5905   0.917   1.959   1.395
 1919SOL    HW1 5906   0.937   1.939   1.303
 1919SOL    HW2 5907   0.998   1.997   1.430
 1920SOL     OW 5908   0.986   2.983   1.720
 1920SOL    HW1 5909   0.896   3.005   1.742
 1920SOL    HW2 5910   0.980   2.906   1.663
 1921SOL     OW 5911   0.713   2.927   0.371
 1921SOL    HW1 5912   0.690   2.913   0.463
 1921SOL    HW2 5913   0.781   2.861   0.353
 1922SOL     OW 5914   0.430   2.683   1.239
 1922SOL    HW1 5915   0.496   2.691   1.307
 1922SOL    HW2 5916   0.389   2.599   1.254
 1923SOL     OW 5917   1.265   2.240   1.276
 1923SOL    HW1 5918   1.298   2.317   1.321
 1923SOL    HW2 5919   1.174   2.262   1.254
 1924SOL     OW 5920   0.067   3.453   1.337
 1924SOL    HW1 5921   0.092   3.536   1.295
 1924SOL    HW2 5922   0.149   3.417   1.369
 1925SOL     OW 5923   0.395   2.995   0.467
 1925SOL    HW1 5924   0.366   3.065   0.409
 1925SOL    HW2 5925   0.370   2.914   0.423
 1926SOL     OW 5926   0.558   2.392   0.857
 1926SOL    HW1 5927   0.567   2.452   0.783
 1926SOL    HW2 5928   0.623   2.422   0.921
 1927SOL     OW 5929   1.256   3.213   0.394
 1927SOL    HW1 5930   1.305   3.288   0.429
 1927SOL    HW2 5931   1.166   3.226   0.424
 1928SOL     OW 5932   1.281   3.321   1.147
 1928SOL    HW1 5933   1.337   3.324   1.225
 1928SOL    HW2 5934   1.228   3.243   1.159
 1929SOL     OW 5935   1.580   2.486   0.481
 1929SOL    HW1 5936   1.532   2.538   0.546
 1929SOL    HW2 5937   1.611   2.551   0.417
 1930SOL     OW 5938   0.344   3.389   1.316
 1930SOL    HW1 5939   0.331   3.345   1.232
 1930SOL    HW2 5940   0.439   3.400   1.323
 1931SOL     OW 5941   0.421   2.592   1.594
 1931SOL    HW1 5942   0.489   2.637   1.545
 1931SOL    HW2 5943   0.460   2.508   1.617
 1932SOL     OW 5944   1.612   2.635   1.689
 1932SOL    HW1 5945   1.526   2.678   1.694
 1932SOL    HW2 5946   1.657   2.680   1.618
 1933SOL     OW 5947   1.007   1.999   1.763
 1933SOL    HW1 5948   1.053   2.062   1.708
 1933SOL    HW2 5949   1.046   1.914   1.740
 1934SOL     OW 5950   0.499   1.902   1.747
 1934SOL    HW1 5951   0.454   1.848   1.682
 1934SOL    HW2 5952   0.440   1.975   1.764
 1935SOL     OW 5953   0.591   2.742   1.023
 1935SOL    HW1 5954   0.626   2.831   1.027
 1935SOL    HW2 5955   0.537   2.733   1.101
 1936SOL     OW 5956   1.354   2.721   1.029
 1936SOL    HW1 5957   1.271   2.710   0.982
 1936SOL    HW2 5958   1.398   2.636   1.021
 1937SOL     OW 5959   1.217   2.383   0.283
 1937SOL    HW1 5960   1.221   2.304   0.337
 1937SOL    HW2 5961   1.173   2.448   0.338
 1938SOL     OW 5962   0.298   2.056   1.251
 1938SOL    HW1 5963   0.263   2.091   1.333
 1938SOL    HW2 5964   0.277   1.962   1.254
 1939SOL     OW 5965   0.060   3.174   1.269
 1939SOL    HW1 5966   0.084   3.134   1.353
 1939SOL    HW2 5967   0.048   3.267   1.289
 1940SOL     OW 5968   0.724   2.496   1.055
 1940SOL    HW1 5969   0.801   2.478   1.001
 1940SOL    HW2 5970   0.698   2.585   1.032
 1941SOL     OW 5971   0.310   1.931   0.629
 1941SOL    HW1 5972   0.285   2.021   0.649
 1941SOL    HW2 5973   0.312   1.887   0.714
 1942SOL     OW 5974   1.627   2.241   0.366
 1942SOL    HW1 5975   1.646   2.173   0.430
 1942SOL    HW2 5976   1.600   2.317   0.418
 1943SOL     OW 5977   1.030   2.620   0.960
 1943SOL    HW1 5978   1.025   2.639   1.053
 1943SOL    HW2 5979   1.004   2.528   0.952
 1944SOL     OW 5980   0.962   3.419   1.711
 1944SOL    HW1 5981   0.964   3.473   1.632
 1944SOL    HW2 5982   1.002   3.336   1.684
 1945SOL     OW 5983   1.849   3.363   1.604
 1945SOL    HW1 5984   1.868   3.392   1.516
 1945SOL    HW2 5985   1.914   3.407   1.659
 1946SOL     OW 5986   0.353   2.772   1.796
 1946SOL    HW1 5987   0.426   2.797   1.852
 1946SOL    HW2 5988   0.391   2.711   1.733
 1947SOL     OW 5989   1.496   2.173   0.130
 1947SOL    HW1 5990   1.487   2.078   0.136
 1947SOL    HW2 5991   1.549   2.196   0.206
 1948SOL     OW 5992   1.293   2.674   0.025
 1948SOL    HW1 5993   1.341   2.594   0.045
 1948SOL    HW2 5994   1.338   2.711   5.949
 1949SOL     OW 5995   1.069   3.198   0.855
 1949SOL    HW1 5996   1.072   3.128   0.791
 1949SOL    HW2 5997   1.128   3.265   0.820
 1950SOL     OW 5998   0.322   2.663   0.935
 1950SOL    HW1 5999   0.414   2.689   0.930
 1950SOL    HW2 6000   0.322   2.590   0.997
 1951SOL     OW 6001   0.350   2.375   1.028
 1951SOL    HW1 6002   0.310   2.289   1.013
 1951SOL    HW2 6003   0.424   2.378   0.967
 1952SOL     OW 6004   1.133   2.243   1.671
 1952SOL    HW1 6005   1.092   2.305   1.731
 1952SOL    HW2 6006   1.225   2.272   1.666
 1953SOL     OW 6007   1.162   2.063   1.466
 1953SOL    HW1 6008   1.150   2.130   1.534
 1953SOL    HW2 6009   1.203   2.110   1.394
 1954SOL     OW 6010   0.001   3.168   0.192
 1954SOL    HW1 6011   5.906   3.179   0.202
 1954SOL    HW2 6012   0.018   3.080   0.225
 1955SOL     OW 6013   0.072   3.662   0.899
 1955SOL    HW1 6014   0.058   3.567   0.901
 1955SOL    HW2 6015   0.167   3.672   0.892
 1956SOL     OW 6016   0.496   3.435   0.906
 1956SOL    HW1 6017   0.564   3.498   0.931
 1956SOL    HW2 6018   0.540   3.374   0.847
 1957SOL     OW 6019   0.977   2.655   1.226
 1957SOL    HW1 6020   1.037   2.633   1.298
 1957SOL    HW2 6021   0.894   2.615   1.251
 1958SOL     OW 6022   0.000   2.452   1.129
 1958SOL    HW1 6023   0.037   2.396   1.060
 1958SOL    HW2 6024   0.031   2.413   1.211
 1959SOL     OW 6025   0.191   2.358   1.729
 1959SOL    HW1 6026   0.240   2.324   1.654
 1959SOL    HW2 6027   0.138   2.429   1.693
 1960SOL     OW 6028   1.376   2.794   1.662
 1960SOL    HW1 6029   1.362   2.889   1.671
 1960SOL    HW2 6030   1.383   2.780   1.568
 1961SOL     OW 6031   0.817   2.433   0.364
 1961SOL    HW1 6032   0.821   2.358   0.305
 1961SOL    HW2 6033   0.743   2.484   0.333
 1962SOL     OW 6034   1.642   2.466   1.186
 1962SOL    HW1 6035   1.632   2.405   1.259
 1962SOL    HW2 6036   1.729   2.446   1.150
 1963SOL     OW 6037   0.278   3.419   1.735
 1963SOL    HW1 6038   0.220   3.478   1.783
 1963SOL    HW2 6039   0.257   3.332   1.768
 1964SOL     OW 6040   0.706   2.310   1.256
 1964SOL    HW1 6041   0.651   2.237   1.228
 1964SOL    HW2 6042   0.699   2.374   1.186
 1965SOL     OW 6043   0.931   3.541   1.461
 1965SOL    HW1 6044   0.900   3.506   1.377
 1965SOL    HW2 6045   0.922   3.636   1.452
 1966SOL     OW 6046   0.463   2.356   0.195
 1966SOL    HW1 6047   0.525   2.426   0.215
 1966SOL    HW2 6048   0.379   2.400   0.181
 1967SOL     OW 6049   0.183   2.987   1.456
 1967SOL    HW1 6050   0.139   2.962   1.537
 1967SOL    HW2 6051   0.137   2.938   1.388
 1968SOL     OW 6052   1.322   2.913   1.222
 1968SOL    HW1 6053   1.347   2.849   1.156
 1968SOL    HW2 6054   1.254   2.966   1.181
 1969SOL     OW 6055   1.289   2.703   0.312
 1969SOL    HW1 6056   1.215   2.666   0.359
 1969SOL    HW2 6057   1.272   2.683   0.220
 1970SOL     OW 6058   1.774   3.605   1.150
 1970SOL    HW1 6059   1.836   3.630   1.081
 1970SOL    HW2 6060   1.750   3.515   1.128
 1971SOL     OW 6061   1.241   3.596   1.110
 1971SOL    HW1 6062   1.323   3.618   1.067
 1971SOL    HW2 6063   1.247   3.502   1.129
 1972SOL     OW 6064   0.071   3.133   1.003
 1972SOL    HW1 6065   0.068   3.133   1.099
 1972SOL    HW2 6066   0.001   3.074   0.977
 1973SOL     OW 6067   0.677   3.531   1.735
 1973SOL    HW1 6068   0.621   3.608   1.723
 1973SOL    HW2 6069   0.745   3.541   1.669
 1974SOL     OW 6070   0.908   1.946   0.106
 1974SOL    HW1 6071   0.973   1.964   0.038
 1974SOL    HW2 6072   0.955   1.896   0.172
 1975SOL     OW 6073   1.706   2.010   0.511
 1975SOL    HW1 6074   1.784   2.002   0.457
 1975SOL    HW2 6075   1.695   1.924   0.551
 1976SOL     OW 6076   1.392   3.435   0.492
 1976SOL    HW1 6077   1.452   3.466   0.424
 1976SOL    HW2 6078   1.344   3.513   0.519
 1977SOL     OW 6079   0.136   3.650   1.835
 1977SOL    HW1 6080   0.080   3.587   1.880
 1977SOL    HW2 6081   0.182   3.695   1.906
 1978SOL     OW 6082   1.277   2.789   0.674
 1978SOL    HW1 6083   1.351   2.729   0.681
 1978SOL    HW2 6084   1.309   2.861   0.620
 1979SOL     OW 6085   0.809   3.137   1.426
 1979SOL    HW1 6086   0.782   3.176   1.509
 1979SOL    HW2 6087   0.738   3.158   1.365
 1980SOL     OW 6088   0.672   3.474   0.161
 1980SOL    HW1 6089   0.672   3.476   0.066
 1980SOL    HW2 6090   0.617   3.398   0.184
 1981SOL     OW 6091   1.626   3.591   1.388
 1981SOL    HW1 6092   1.676   3.599   1.307
 1981SOL    HW2 6093   1.611   3.681   1.416
 1982SOL     OW 6094   1.840   2.034   0.965
 1982SOL    HW1 6095   1.869   1.947   0.939
 1982SOL    HW2 6096   1.753   2.043   0.924
 1983SOL     OW 6097   0.265   2.181   0.718
 1983SOL    HW1 6098   0.183   2.223   0.691
 1983SOL    HW2 6099   0.258   2.175   0.813
 1984SOL     OW 6100   1.224   3.463   0.042
 1984SOL    HW1 6101   1.202   3.372   0.066
 1984SOL    HW2 6102   1.168   3.482   5.967
 1985SOL     OW 6103   0.823   2.867   1.372
 1985SOL    HW1 6104   0.870   2.861   1.289
 1985SOL    HW2 6105   0.822   2.961   1.391
 1986SOL     OW 6106   0.910   2.756   0.298
 1986SOL    HW1 6107   0.959   2.774   0.217
 1986SOL    HW2 6108   0.958   2.686   0.340
 1987SOL     OW 6109   1.497   3.498   0.043
 1987SOL    HW1 6110   1.403   3.482   0.037
 1987SOL    HW2 6111   1.525   3.518   5.954
 1988SOL     OW 6112   0.383   3.169   1.490
 1988SOL    HW1 6113   0.359   3.246   1.439
 1988SOL    HW2 6114   0.314   3.105   1.471
 1989SOL     OW 6115   1.609   3.146   1.280
 1989SOL    HW1 6116   1.667   3.132   1.354
 1989SOL    HW2 6117   1.549   3.214   1.309
 1990SOL     OW 6118   1.054   2.969   0.706
 1990SOL    HW1 6119   0.984   2.917   0.746
 1990SOL    HW2 6120   1.120   2.905   0.680
 1991SOL     OW 6121   1.021   2.103   0.966
 1991SOL    HW1 6122   1.018   2.056   0.883
 1991SOL    HW2 6123   1.016   2.034   1.033
 1992SOL     OW 6124   0.610   3.355   0.478
 1992SOL    HW1 6125   0.653   3.300   0.412
 1992SOL    HW2 6126   0.534   3.392   0.432
 1993SOL     OW 6127   1.715   2.254   1.375
 1993SOL    HW1 6128   1.788   2.316   1.380
 1993SOL    HW2 6129   1.747   2.183   1.321
 1994SOL     OW 6130   0.266   3.194   0.291
 1994SOL    HW1 6131   0.176   3.189   0.257
 1994SOL    HW2 6132   0.257   3.235   0.377
 1995SOL     OW 6133   0.116   2.889   1.719
 1995SOL    HW1 6134   0.057   2.852   1.784
 1995SOL    HW2 6135   0.203   2.859   1.747
 1996SOL     OW 6136   0.675   2.061   1.501
 1996SOL    HW1 6137   0.758   2.040   1.459
 1996SOL    HW2 6138   0.699   2.094   1.587
 1997SOL     OW 6139   0.053   2.255   0.068
 1997SOL    HW1 6140   0.009   2.175   0.041
 1997SOL    HW2 6141   0.117   2.273   5.999
 1998SOL     OW 6142   1.429   2.724   1.399
 1998SOL    HW1 6143   1.380   2.785   1.344
 1998SOL    HW2 6144   1.517   2.725   1.362
 1999SOL     OW 6145   0.071   2.092   0.316
 1999SOL    HW1 6146   0.088   2.166   0.257
 1999SOL    HW2 6147   0.145   2.033   0.301
 2000SOL     OW 6148   1.173   3.206   0.128
 2000SOL    HW1 6149   1.083   3.173   0.129
 2000SOL    HW2 6150   1.202   3.199   0.219
 2001SOL     OW 6151   0.621   2.693   1.434
 2001SOL    HW1 6152   0.677   2.769   1.421
 2001SOL    HW2 6153   0.682   2.619   1.442
 2002SOL     OW 6154   1.484   3.642   0.980
 2002SOL    HW1 6155   1.506   3.705   0.911
 2002SOL    HW2 6156   1.569   3.620   1.020
 2003SOL     OW 6157   0.710   2.427   1.703
 2003SOL    HW1 6158   0.749   2.495   1.758
 2003SOL    HW2 6159   0.740   2.345   1.742
 2004SOL     OW 6160   1.484   3.078   1.620
 2004SOL    HW1 6161   1.459   3.076   1.712
 2004SOL    HW2 6162   1.580   3.084   1.621
 2005SOL     OW 6163   0.375   3.606   1.561
 2005SOL    HW1 6164   0.289   3.645   1.545
 2005SOL    HW2 6165   0.357   3.526   1.611
 2006SOL     OW 6166   1.672   2.742   1.262
 2006SOL    HW1 6167   1.665   2.656   1.220
 2006SOL    HW2 6168   1.661   2.805   1.190
 2007SOL     OW 6169   1.215   2.173   0.463
 2007SOL    HW1 6170   1.281   2.104   0.453
 2007SOL    HW2 6171   1.244   2.224   0.539
 2008SOL     OW 6172   0.587   2.600   0.673
 2008SOL    HW1 6173   0.628   2.685   0.656
 2008SOL    HW2 6174   0.524   2.590   0.602
 2009SOL     OW 6175   1.775   2.203   1.643
 2009SOL    HW1 6176   1.745   2.232   1.557
 2009SOL    HW2 6177   1.701   2.156   1.680
 2010SOL     OW 6178   1.762   2.799   1.520
 2010SOL    HW1 6179   1.742   2.892   1.530
 2010SOL    HW2 6180   1.740   2.780   1.429
 2011SOL     OW 6181   0.884   3.239   0.031
 2011SOL    HW1 6182   0.834   3.231   0.113
 2011SOL    HW2 6183   0.884   3.333   0.012
 2012SOL     OW 6184   0.662   3.651   0.943
 2012SOL    HW1 6185   0.643   3.742   0.920
 2012SOL    HW2 6186   0.757   3.644   0.937
 2013SOL     OW 6187   0.869   2.828   0.855
 2013SOL    HW1 6188   0.920   2.756   0.894
 2013SOL    HW2 6189   0.833   2.875   0.930
 2014SOL     OW 6190   1.076   2.829   0.088
 2014SOL    HW1 6191   1.049   2.879   0.011
 2014SOL    HW2 6192   1.156   2.784   0.061
 2015SOL     OW 6193   1.850   3.414   0.843
 2015SOL    HW1 6194   1.771   3.401   0.790
 2015SOL    HW2 6195   1.845   3.346   0.910
 2016SOL     OW 6196   0.221   3.166   1.851
 2016SOL    HW1 6197   0.151   3.116   1.809
 2016SOL    HW2 6198   0.197   3.166   1.944
 2017SOL     OW 6199   0.092   3.106   0.663
 2017SOL    HW1 6200   0.055   3.070   0.744
 2017SOL    HW2 6201   0.137   3.032   0.622
 2018SOL     OW 6202   0.682   3.267   1.629
 2018SOL    HW1 6203   0.601   3.224   1.658
 2018SOL    HW2 6204   0.679   3.354   1.669
 2019SOL     OW 6205   1.810   2.041   1.237
 2019SOL    HW1 6206   1.823   1.947   1.248
 2019SOL    HW2 6207   1.820   2.057   1.143
 2020SOL     OW 6208   0.437   2.293   0.526
 2020SOL    HW1 6209   0.454   2.220   0.465
 2020SOL    HW2 6210   0.384   2.254   0.596
 2021SOL     OW 6211   1.699   3.348   1.095
 2021SOL    HW1 6212   1.619   3.328   1.046
 2021SOL    HW2 6213   1.706   3.278   1.159
 2022SOL     OW 6214   0.336   2.428   1.299
 2022SOL    HW1 6215   0.389   2.369   1.354
 2022SOL    HW2 6216   0.348   2.395   1.210
 2023SOL     OW 6217   0.830   3.440   0.677
 2023SOL    HW1 6218   0.811   3.497   0.602
 2023SOL    HW2 6219   0.756   3.380   0.680
 2024SOL     OW 6220   1.433   2.087   1.118
 2024SOL    HW1 6221   1.457   2.007   1.164
 2024SOL    HW2 6222   1.382   2.137   1.182
 2025SOL     OW 6223   1.007   1.879   1.139
 2025SOL    HW1 6224   0.955   1.811   1.096
 2025SOL    HW2 6225   1.096   1.842   1.143
 2026SOL     OW 6226   0.778   3.194   0.308
 2026SOL    HW1 6227   0.743   3.105   0.318
 2026SOL    HW2 6228   0.867   3.189   0.344
 2027SOL     OW 6229   0.619   3.417   1.284
 2027SOL    HW1 6230   0.621   3.498   1.335
 2027SOL    HW2 6231   0.706   3.410   1.246
 2028SOL     OW 6232   1.357   1.915   0.161
 2028SOL    HW1 6233   1.386   1.850   0.097
 2028SOL    HW2 6234   1.268   1.889   0.184
 2029SOL     OW 6235   1.296   2.324   0.679
 2029SOL    HW1 6236   1.245   2.405   0.686
 2029SOL    HW2 6237   1.293   2.286   0.767
 2030SOL     OW 6238   1.582   2.060   0.878
 2030SOL    HW1 6239   1.526   2.083   0.952
 2030SOL    HW2 6240   1.582   2.138   0.822
 2031SOL     OW 6241   0.051   2.917   0.288
 2031SOL    HW1 6242   0.143   2.893   0.282
 2031SOL    HW2 6243   0.012   2.850   0.344
 2032SOL     OW 6244   0.886   3.520   0.340
 2032SOL    HW1 6245   0.811   3.497   0.286
 2032SOL    HW2 6246   0.855   3.591   0.396
 2033SOL     OW 6247   0.229   2.487   1.980
 2033SOL    HW1 6248   0.139   2.491   2.014
 2033SOL    HW2 6249   0.220   2.450   1.892
 2034SOL     OW 6250   0.146   2.060   2.735
 2034SOL    HW1 6251   0.101   2.129   2.784
 2034SOL    HW2 6252   0.079   1.993   2.722
 2035SOL     OW 6253   5.992   2.249   2.465
 2035SOL    HW1 6254   5.923   2.242   2.531
 2035SOL    HW2 6255   5.979   2.173   2.409
 2036SOL     OW 6256   0.368   3.164   2.737
 2036SOL    HW1 6257   0.320   3.165   2.820
 2036SOL    HW2 6258   0.447   3.215   2.755
 2037SOL     OW 6259   1.528   3.361   2.516
 2037SOL    HW1 6260   1.488   3.309   2.585
 2037SOL    HW2 6261   1.462   3.364   2.446
 2038SOL     OW 6262   0.703   3.014   2.766
 2038SOL    HW1 6263   0.624   3.033   2.716
 2038SOL    HW2 6264   0.750   3.097   2.769
 2039SOL     OW 6265   0.827   2.643   3.702
 2039SOL    HW1 6266   0.843   2.697   3.780
 2039SOL    HW2 6267   0.879   2.684   3.633
 2040SOL     OW 6268   0.687   2.846   2.473
 2040SOL    HW1 6269   0.752   2.830   2.542
 2040SOL    HW2 6270   0.623   2.904   2.514
 2041SOL     OW 6271   0.714   3.012   3.680
 2041SOL    HW1 6272   0.758   3.091   3.712
 2041SOL    HW2 6273   0.630   3.043   3.647
 2042SOL     OW 6274   0.221   3.403   2.705
 2042SOL    HW1 6275   0.145   3.345   2.699
 2042SOL    HW2 6276   0.296   3.347   2.686
 2043SOL     OW 6277   1.425   3.334   3.277
 2043SOL    HW1 6278   1.489   3.402   3.299
 2043SOL    HW2 6279   1.476   3.253   3.273
 2044SOL     OW 6280   0.429   2.227   3.430
 2044SOL    HW1 6281   0.507   2.172   3.416
 2044SOL    HW2 6282   0.357   2.164   3.432
 2045SOL     OW 6283   0.247   3.564   2.346
 2045SOL    HW1 6284   0.262   3.644   2.397
 2045SOL    HW2 6285   0.321   3.560   2.285
 2046SOL     OW 6286   0.241   3.299   2.401
 2046SOL    HW1 6287   0.227   3.394   2.403
 2046SOL    HW2 6288   0.168   3.263   2.452
 2047SOL     OW 6289   0.213   2.912   2.694
 2047SOL    HW1 6290   0.252   2.843   2.748
 2047SOL    HW2 6291   0.153   2.957   2.754
 2048SOL     OW 6292   0.629   3.677   3.342
 2048SOL    HW1 6293   0.543   3.674   3.383
 2048SOL    HW2 6294   0.658   3.768   3.353
 2049SOL     OW 6295   0.576   2.846   1.996
 2049SOL    HW1 6296   0.626   2.886   1.925
 2049SOL    HW2 6297   0.615   2.882   2.076
 2050SOL     OW 6298   0.136   2.481   2.393
 2050SOL    HW1 6299   0.068   2.414   2.403
 2050SOL    HW2 6300   0.094   2.562   2.423
 2051SOL     OW 6301   0.015   3.442   1.967
 2051SOL    HW1 6302   0.019   3.348   1.986
 2051SOL    HW2 6303   5.990   3.482   2.050
 2052SOL     OW 6304   5.991   2.616   3.586
 2052SOL    HW1 6305   0.050   2.591   3.657
 2052SOL    HW2 6306   0.048   2.639   3.513
 2053SOL     OW 6307   0.602   3.245   2.552
 2053SOL    HW1 6308   0.562   3.159   2.551
 2053SOL    HW2 6309   0.584   3.281   2.465
 2054SOL     OW 6310   0.819   1.867   2.371
 2054SOL    HW1 6311   0.854   1.954   2.352
 2054SOL    HW2 6312   0.725   1.882   2.384
 2055SOL     OW 6313   0.040   2.789   3.256
 2055SOL    HW1 6314   0.126   2.808   3.219
 2055SOL    HW2 6315   0.053   2.709   3.307
 2056SOL     OW 6316   0.345   2.108   3.729
 2056SOL    HW1 6317   0.381   2.196   3.721
 2056SOL    HW2 6318   0.254   2.116   3.700
 2057SOL     OW 6319   0.597   2.586   2.124
 2057SOL    HW1 6320   0.602   2.668   2.074
 2057SOL    HW2 6321   0.527   2.601   2.187
 2058SOL     OW 6322   1.278   2.127   2.751
 2058SOL    HW1 6323   1.184   2.136   2.761
 2058SOL    HW2 6324   1.314   2.211   2.779
 2059SOL     OW 6325   0.816   2.491   3.370
 2059SOL    HW1 6326   0.794   2.481   3.463
 2059SOL    HW2 6327   0.752   2.436   3.324
 2060SOL     OW 6328   0.986   2.743   3.501
 2060SOL    HW1 6329   1.049   2.671   3.502
 2060SOL    HW2 6330   0.953   2.745   3.411
 2061SOL     OW 6331   0.966   2.277   3.294
 2061SOL    HW1 6332   0.883   2.320   3.314
 2061SOL    HW2 6333   0.948   2.227   3.214
 2062SOL     OW 6334   1.045   2.557   2.286
 2062SOL    HW1 6335   1.039   2.579   2.379
 2062SOL    HW2 6336   0.964   2.509   2.268
 2063SOL     OW 6337   0.088   2.697   2.545
 2063SOL    HW1 6338   0.168   2.711   2.596
 2063SOL    HW2 6339   0.049   2.785   2.538
 2064SOL     OW 6340   0.114   3.762   3.497
 2064SOL    HW1 6341   0.125   3.712   3.578
 2064SOL    HW2 6342   0.055   3.708   3.443
 2065SOL     OW 6343   0.886   2.213   2.066
 2065SOL    HW1 6344   0.937   2.271   2.010
 2065SOL    HW2 6345   0.871   2.134   2.014
 2066SOL     OW 6346   0.670   2.091   2.708
 2066SOL    HW1 6347   0.579   2.067   2.729
 2066SOL    HW2 6348   0.664   2.179   2.672
 2067SOL     OW 6349   0.992   3.300   2.342
 2067SOL    HW1 6350   0.968   3.369   2.280
 2067SOL    HW2 6351   0.962   3.332   2.427
 2068SOL     OW 6352   0.369   3.662   2.721
 2068SOL    HW1 6353   0.353   3.568   2.729
 2068SOL    HW2 6354   0.462   3.669   2.701
 2069SOL     OW 6355   0.303   2.819   2.096
 2069SOL    HW1 6356   0.392   2.845   2.072
 2069SOL    HW2 6357   0.296   2.728   2.067
 2070SOL     OW 6358   0.463   3.122   3.616
 2070SOL    HW1 6359   0.451   3.106   3.523
 2070SOL    HW2 6360   0.374   3.125   3.652
 2071SOL     OW 6361   0.163   2.152   3.512
 2071SOL    HW1 6362   0.111   2.201   3.448
 2071SOL    HW2 6363   0.137   2.061   3.499
 2072SOL     OW 6364   0.470   3.599   2.180
 2072SOL    HW1 6365   0.516   3.654   2.243
 2072SOL    HW2 6366   0.539   3.566   2.122
 2073SOL     OW 6367   0.254   3.643   3.276
 2073SOL    HW1 6368   0.269   3.552   3.248
 2073SOL    HW2 6369   0.159   3.653   3.274
 2074SOL     OW 6370   0.924   3.549   2.722
 2074SOL    HW1 6371   0.980   3.484   2.763
 2074SOL    HW2 6372   0.882   3.502   2.650
 2075SOL     OW 6373   0.389   2.557   2.308
 2075SOL    HW1 6374   0.419   2.468   2.325
 2075SOL    HW2 6375   0.295   2.555   2.328
 2076SOL     OW 6376   0.649   1.981   1.961
 2076SOL    HW1 6377   0.701   1.904   1.983
 2076SOL    HW2 6378   0.593   1.952   1.890
 2077SOL     OW 6379   0.765   2.152   3.635
 2077SOL    HW1 6380   0.843   2.098   3.626
 2077SOL    HW2 6381   0.711   2.107   3.700
 2078SOL     OW 6382   0.831   3.419   3.284
 2078SOL    HW1 6383   0.804   3.399   3.195
 2078SOL    HW2 6384   0.853   3.334   3.323
 2079SOL     OW 6385   0.807   3.262   2.736
 2079SOL    HW1 6386   0.898   3.258   2.707
 2079SOL    HW2 6387   0.757   3.274   2.655
 2080SOL     OW 6388   0.949   2.356   2.715
 2080SOL    HW1 6389   0.907   2.350   2.629
 2080SOL    HW2 6390   0.961   2.264   2.742
 2081SOL     OW 6391   0.554   1.925   2.360
 2081SOL    HW1 6392   0.475   1.925   2.413
 2081SOL    HW2 6393   0.546   2.004   2.306
 2082SOL     OW 6394   0.282   1.899   2.048
 2082SOL    HW1 6395   0.332   1.966   2.001
 2082SOL    HW2 6396   0.349   1.845   2.090
 2083SOL     OW 6397   0.942   2.106   2.323
 2083SOL    HW1 6398   0.933   2.146   2.236
 2083SOL    HW2 6399   1.037   2.099   2.336
 2084SOL     OW 6400   1.121   2.508   3.349
 2084SOL    HW1 6401   1.049   2.445   3.349
 2084SOL    HW2 6402   1.200   2.455   3.363
 2085SOL     OW 6403   0.491   3.003   2.565
 2085SOL    HW1 6404   0.416   3.029   2.619
 2085SOL    HW2 6405   0.456   3.004   2.476
 2086SOL     OW 6406   0.090   2.344   3.343
 2086SOL    HW1 6407   0.172   2.388   3.321
 2086SOL    HW2 6408   0.023   2.411   3.333
 2087SOL     OW 6409   0.416   2.017   2.744
 2087SOL    HW1 6410   0.419   1.934   2.792
 2087SOL    HW2 6411   0.328   2.051   2.759
 2088SOL     OW 6412   0.866   2.329   2.467
 2088SOL    HW1 6413   0.819   2.377   2.399
 2088SOL    HW2 6414   0.883   2.243   2.429
 2089SOL     OW 6415   1.019   1.889   2.570
 2089SOL    HW1 6416   0.958   1.880   2.497
 2089SOL    HW2 6417   0.996   1.817   2.629
 2090SOL     OW 6418   0.491   3.284   2.016
 2090SOL    HW1 6419   0.417   3.251   2.067
 2090SOL    HW2 6420   0.478   3.246   1.928
 2091SOL     OW 6421   1.712   3.120   2.520
 2091SOL    HW1 6422   1.801   3.138   2.488
 2091SOL    HW2 6423   1.666   3.203   2.510
 2092SOL     OW 6424   1.413   2.449   1.935
 2092SOL    HW1 6425   1.354   2.427   2.008
 2092SOL    HW2 6426   1.501   2.446   1.974
 2093SOL     OW 6427   0.527   2.123   2.171
 2093SOL    HW1 6428   0.576   2.077   2.103
 2093SOL    HW2 6429   0.501   2.206   2.130
 2094SOL     OW 6430   1.094   3.253   3.322
 2094SOL    HW1 6431   1.015   3.199   3.320
 2094SOL    HW2 6432   1.148   3.220   3.250
 2095SOL     OW 6433   0.910   1.974   3.296
 2095SOL    HW1 6434   0.921   1.943   3.206
 2095SOL    HW2 6435   0.995   2.010   3.320
 2096SOL     OW 6436   0.986   2.996   3.594
 2096SOL    HW1 6437   0.896   3.017   3.618
 2096SOL    HW2 6438   0.981   2.910   3.553
 2097SOL     OW 6439   0.715   2.934   2.216
 2097SOL    HW1 6440   0.688   2.912   2.306
 2097SOL    HW2 6441   0.790   2.877   2.199
 2098SOL     OW 6442   0.393   2.709   3.259
 2098SOL    HW1 6443   0.488   2.715   3.264
 2098SOL    HW2 6444   0.376   2.615   3.249
 2099SOL     OW 6445   0.023   3.378   3.325
 2099SOL    HW1 6446   5.996   3.469   3.330
 2099SOL    HW2 6447   0.118   3.380   3.337
 2100SOL     OW 6448   0.427   3.027   2.296
 2100SOL    HW1 6449   0.378   3.078   2.232
 2100SOL    HW2 6450   0.375   2.947   2.308
 2101SOL     OW 6451   0.575   2.344   2.641
 2101SOL    HW1 6452   0.560   2.389   2.558
 2101SOL    HW2 6453   0.631   2.403   2.691
 2102SOL     OW 6454   0.289   3.364   3.296
 2102SOL    HW1 6455   0.303   3.323   3.211
 2102SOL    HW2 6456   0.376   3.395   3.322
 2103SOL     OW 6457   0.455   2.576   3.508
 2103SOL    HW1 6458   0.504   2.623   3.440
 2103SOL    HW2 6459   0.515   2.506   3.537
 2104SOL     OW 6460   0.996   2.007   3.627
 2104SOL    HW1 6461   1.057   2.064   3.579
 2104SOL    HW2 6462   1.032   1.919   3.614
 2105SOL     OW 6463   0.511   1.926   3.618
 2105SOL    HW1 6464   0.464   1.863   3.562
 2105SOL    HW2 6465   0.444   1.990   3.642
 2106SOL     OW 6466   0.558   2.771   2.752
 2106SOL    HW1 6467   0.633   2.819   2.719
 2106SOL    HW2 6468   0.555   2.792   2.845
 2107SOL     OW 6469   1.217   2.408   2.130
 2107SOL    HW1 6470   1.251   2.342   2.191
 2107SOL    HW2 6471   1.161   2.464   2.184
 2108SOL     OW 6472   0.276   2.038   3.291
 2108SOL    HW1 6473   0.203   2.094   3.317
 2108SOL    HW2 6474   0.240   1.949   3.290
 2109SOL     OW 6475   0.011   3.119   3.273
 2109SOL    HW1 6476   0.095   3.109   3.318
 2109SOL    HW2 6477   5.997   3.214   3.270
 2110SOL     OW 6478   0.731   2.517   2.754
 2110SOL    HW1 6479   0.821   2.484   2.754
 2110SOL    HW2 6480   0.740   2.611   2.769
 2111SOL     OW 6481   0.307   1.925   2.476
 2111SOL    HW1 6482   0.292   2.019   2.480
 2111SOL    HW2 6483   0.278   1.893   2.562
 2112SOL     OW 6484   1.647   2.190   2.268
 2112SOL    HW1 6485   1.643   2.113   2.323
 2112SOL    HW2 6486   1.563   2.234   2.280
 2113SOL     OW 6487   1.021   2.609   2.738
 2113SOL    HW1 6488   1.112   2.609   2.767
 2113SOL    HW2 6489   1.000   2.516   2.727
 2114SOL     OW 6490   0.974   3.414   3.572
 2114SOL    HW1 6491   0.992   3.478   3.504
 2114SOL    HW2 6492   1.034   3.342   3.554
 2115SOL     OW 6493   0.357   2.781   3.669
 2115SOL    HW1 6494   0.435   2.803   3.721
 2115SOL    HW2 6495   0.383   2.705   3.618
 2116SOL     OW 6496   1.255   2.661   1.870
 2116SOL    HW1 6497   1.321   2.595   1.890
 2116SOL    HW2 6498   1.296   2.718   1.806
 2117SOL     OW 6499   1.067   3.225   2.676
 2117SOL    HW1 6500   1.060   3.133   2.650
 2117SOL    HW2 6501   1.155   3.251   2.649
 2118SOL     OW 6502   0.321   2.662   2.707
 2118SOL    HW1 6503   0.413   2.691   2.703
 2118SOL    HW2 6504   0.325   2.574   2.745
 2119SOL     OW 6505   0.334   2.331   2.744
 2119SOL    HW1 6506   0.314   2.253   2.693
 2119SOL    HW2 6507   0.426   2.350   2.725
 2120SOL     OW 6508   1.140   2.242   3.538
 2120SOL    HW1 6509   1.106   2.318   3.586
 2120SOL    HW2 6510   1.235   2.248   3.549
 2121SOL     OW 6511   1.159   2.071   3.325
 2121SOL    HW1 6512   1.138   2.131   3.397
 2121SOL    HW2 6513   1.237   2.110   3.284
 2122SOL     OW 6514   0.009   3.176   2.055
 2122SOL    HW1 6515   5.933   3.172   1.997
 2122SOL    HW2 6516   0.011   3.091   2.098
 2123SOL     OW 6517   0.087   3.694   2.715
 2123SOL    HW1 6518   0.030   3.619   2.731
 2123SOL    HW2 6519   0.176   3.661   2.726
 2124SOL     OW 6520   0.513   3.425   2.727
 2124SOL    HW1 6521   0.574   3.498   2.734
 2124SOL    HW2 6522   0.551   3.368   2.659
 2125SOL     OW 6523   0.957   2.697   3.241
 2125SOL    HW1 6524   1.026   2.636   3.264
 2125SOL    HW2 6525   0.881   2.642   3.219
 2126SOL     OW 6526   5.969   2.283   2.753
 2126SOL    HW1 6527   0.023   2.343   2.700
 2126SOL    HW2 6528   5.985   2.310   2.843
 2127SOL     OW 6529   0.188   2.397   3.619
 2127SOL    HW1 6530   0.226   2.323   3.572
 2127SOL    HW2 6531   0.124   2.435   3.558
 2128SOL     OW 6532   0.808   2.435   2.221
 2128SOL    HW1 6533   0.810   2.358   2.164
 2128SOL    HW2 6534   0.736   2.488   2.186
 2129SOL     OW 6535   0.264   3.404   3.599
 2129SOL    HW1 6536   0.217   3.472   3.648
 2129SOL    HW2 6537   0.239   3.322   3.642
 2130SOL     OW 6538   0.656   2.314   3.267
 2130SOL    HW1 6539   0.648   2.224   3.298
 2130SOL    HW2 6540   0.604   2.316   3.186
 2131SOL     OW 6541   1.023   3.582   3.357
 2131SOL    HW1 6542   0.960   3.519   3.321
 2131SOL    HW2 6543   0.981   3.667   3.345
 2132SOL     OW 6544   0.463   2.356   2.046
 2132SOL    HW1 6545   0.524   2.427   2.065
 2132SOL    HW2 6546   0.379   2.399   2.034
 2133SOL     OW 6547   0.202   2.969   3.380
 2133SOL    HW1 6548   0.182   2.955   3.472
 2133SOL    HW2 6549   0.121   2.944   3.334
 2134SOL     OW 6550   1.271   2.718   2.160
 2134SOL    HW1 6551   1.192   2.672   2.190
 2134SOL    HW2 6552   1.272   2.702   2.065
 2135SOL     OW 6553   5.978   3.037   2.761
 2135SOL    HW1 6554   0.003   3.074   2.845
 2135SOL    HW2 6555   5.975   3.112   2.702
 2136SOL     OW 6556   0.683   3.531   3.603
 2136SOL    HW1 6557   0.616   3.594   3.577
 2136SOL    HW2 6558   0.748   3.536   3.533
 2137SOL     OW 6559   0.149   3.625   3.719
 2137SOL    HW1 6560   0.086   3.569   3.764
 2137SOL    HW2 6561   0.187   3.679   3.788
 2138SOL     OW 6562   1.235   2.784   2.514
 2138SOL    HW1 6563   1.290   2.717   2.475
 2138SOL    HW2 6564   1.279   2.867   2.494
 2139SOL     OW 6565   0.834   3.156   3.334
 2139SOL    HW1 6566   0.802   3.183   3.420
 2139SOL    HW2 6567   0.755   3.141   3.282
 2140SOL     OW 6568   0.669   3.490   2.013
 2140SOL    HW1 6569   0.682   3.501   1.919
 2140SOL    HW2 6570   0.616   3.410   2.020
 2141SOL     OW 6571   1.852   1.990   2.725
 2141SOL    HW1 6572   1.843   1.927   2.797
 2141SOL    HW2 6573   1.766   2.032   2.719
 2142SOL     OW 6574   0.251   2.185   2.522
 2142SOL    HW1 6575   0.179   2.231   2.479
 2142SOL    HW2 6576   0.209   2.135   2.593
 2143SOL     OW 6577   0.790   2.900   3.295
 2143SOL    HW1 6578   0.864   2.856   3.254
 2143SOL    HW2 6579   0.825   2.984   3.324
 2144SOL     OW 6580   0.920   2.773   2.164
 2144SOL    HW1 6581   0.972   2.800   2.088
 2144SOL    HW2 6582   0.965   2.696   2.198
 2145SOL     OW 6583   0.418   3.125   3.346
 2145SOL    HW1 6584   0.371   3.208   3.356
 2145SOL    HW2 6585   0.348   3.059   3.346
 2146SOL     OW 6586   1.038   2.968   2.586
 2146SOL    HW1 6587   0.959   2.916   2.598
 2146SOL    HW2 6588   1.104   2.905   2.558
 2147SOL     OW 6589   1.006   2.096   2.744
 2147SOL    HW1 6590   1.011   2.040   2.666
 2147SOL    HW2 6591   0.954   2.045   2.806
 2148SOL     OW 6592   0.599   3.366   2.316
 2148SOL    HW1 6593   0.648   3.310   2.255
 2148SOL    HW2 6594   0.527   3.401   2.263
 2149SOL     OW 6595   1.681   2.276   3.288
 2149SOL    HW1 6596   1.724   2.361   3.294
 2149SOL    HW2 6597   1.738   2.224   3.232
 2150SOL     OW 6598   0.263   3.203   2.152
 2150SOL    HW1 6599   0.170   3.201   2.131
 2150SOL    HW2 6600   0.266   3.241   2.240
 2151SOL     OW 6601   0.117   2.902   3.624
 2151SOL    HW1 6602   0.049   2.840   3.652
 2151SOL    HW2 6603   0.199   2.859   3.650
 2152SOL     OW 6604   0.676   2.073   3.383
 2152SOL    HW1 6605   0.759   2.038   3.351
 2152SOL    HW2 6606   0.694   2.099   3.474
 2153SOL     OW 6607   0.066   2.188   1.903
 2153SOL    HW1 6608   5.972   2.188   1.884
 2153SOL    HW2 6609   0.102   2.256   1.846
 2154SOL     OW 6610   0.087   2.072   2.165
 2154SOL    HW1 6611   0.094   2.136   2.095
 2154SOL    HW2 6612   0.157   2.008   2.147
 2155SOL     OW 6613   1.176   3.230   1.982
 2155SOL    HW1 6614   1.081   3.222   1.983
 2155SOL    HW2 6615   1.205   3.180   2.058
 2156SOL     OW 6616   0.644   2.682   3.313
 2156SOL    HW1 6617   0.688   2.767   3.310
 2156SOL    HW2 6618   0.713   2.621   3.340
 2157SOL     OW 6619   0.692   2.428   3.599
 2157SOL    HW1 6620   0.736   2.490   3.657
 2157SOL    HW2 6621   0.725   2.342   3.628
 2158SOL     OW 6622   0.407   3.602   3.488
 2158SOL    HW1 6623   0.344   3.629   3.421
 2158SOL    HW2 6624   0.370   3.523   3.526
 2159SOL     OW 6625   0.572   2.594   2.503
 2159SOL    HW1 6626   0.624   2.674   2.494
 2159SOL    HW2 6627   0.513   2.595   2.427
 2160SOL     OW 6628   0.868   3.229   1.903
 2160SOL    HW1 6629   0.825   3.254   1.985
 2160SOL    HW2 6630   0.881   3.312   1.856
 2161SOL     OW 6631   0.661   3.664   2.723
 2161SOL    HW1 6632   0.672   3.759   2.711
 2161SOL    HW2 6633   0.750   3.632   2.739
 2162SOL     OW 6634   0.845   2.797   2.684
 2162SOL    HW1 6635   0.913   2.733   2.708
 2162SOL    HW2 6636   0.844   2.859   2.757
 2163SOL     OW 6637   1.053   2.831   1.939
 2163SOL    HW1 6638   1.037   2.893   1.867
 2163SOL    HW2 6639   1.124   2.775   1.907
 2164SOL     OW 6640   0.210   3.158   3.713
 2164SOL    HW1 6641   0.148   3.092   3.681
 2164SOL    HW2 6642   0.190   3.167   3.806
 2165SOL     OW 6643   0.091   3.101   2.514
 2165SOL    HW1 6644   0.078   3.029   2.575
 2165SOL    HW2 6645   0.147   3.065   2.446
 2166SOL     OW 6646   0.677   3.264   3.519
 2166SOL    HW1 6647   0.594   3.227   3.548
 2166SOL    HW2 6648   0.674   3.356   3.546
 2167SOL     OW 6649   0.454   2.303   2.377
 2167SOL    HW1 6650   0.483   2.234   2.317
 2167SOL    HW2 6651   0.392   2.260   2.436
 2168SOL     OW 6652   0.336   2.429   3.265
 2168SOL    HW1 6653   0.382   2.379   3.333
 2168SOL    HW2 6654   0.335   2.371   3.189
 2169SOL     OW 6655   0.811   3.445   2.502
 2169SOL    HW1 6656   0.824   3.506   2.428
 2169SOL    HW2 6657   0.728   3.401   2.481
 2170SOL     OW 6658   0.772   3.201   2.173
 2170SOL    HW1 6659   0.741   3.111   2.178
 2170SOL    HW2 6660   0.851   3.202   2.227
 2171SOL     OW 6661   0.544   3.425   3.294
 2171SOL    HW1 6662   0.588   3.504   3.327
 2171SOL    HW2 6663   0.589   3.405   3.212
 2172SOL     OW 6664   1.269   2.341   2.550
 2172SOL    HW1 6665   1.189   2.389   2.568
 2172SOL    HW2 6666   1.251   2.251   2.578
 2173SOL     OW 6667   1.598   2.085   2.734
 2173SOL    HW1 6668   1.526   2.079   2.796
 2173SOL    HW2 6669   1.590   2.172   2.695
 2174SOL     OW 6670   0.054   2.924   2.151
 2174SOL    HW1 6671   0.144   2.898   2.131
 2174SOL    HW2 6672   0.022   2.856   2.211
 2175SOL     OW 6673   0.872   3.510   2.212
 2175SOL    HW1 6674   0.806   3.499   2.144
 2175SOL    HW2 6675   0.853   3.595   2.250
 2176SOL     OW 6676   0.232   2.508   3.863
 2176SOL    HW1 6677   0.143   2.491   3.895
 2176SOL    HW2 6678   0.232   2.473   3.774
 2177SOL     OW 6679   0.221   2.132   4.720
 2177SOL    HW1 6680   0.246   2.100   4.807
 2177SOL    HW2 6681   0.131   2.102   4.709
 2178SOL     OW 6682   0.014   2.252   4.341
 2178SOL    HW1 6683   5.937   2.259   4.397
 2178SOL    HW2 6684   5.987   2.192   4.271
 2179SOL     OW 6685   0.566   3.155   4.903
 2179SOL    HW1 6686   0.478   3.158   4.866
 2179SOL    HW2 6687   0.582   3.243   4.937
 2180SOL     OW 6688   1.535   3.351   4.433
 2180SOL    HW1 6689   1.511   3.345   4.525
 2180SOL    HW2 6690   1.468   3.407   4.394
 2181SOL     OW 6691   1.126   2.558   4.426
 2181SOL    HW1 6692   1.175   2.639   4.410
 2181SOL    HW2 6693   1.080   2.575   4.509
 2182SOL     OW 6694   0.750   3.002   4.767
 2182SOL    HW1 6695   0.683   3.039   4.825
 2182SOL    HW2 6696   0.788   3.077   4.723
 2183SOL     OW 6697   0.869   2.633   5.550
 2183SOL    HW1 6698   0.856   2.704   5.613
 2183SOL    HW2 6699   0.891   2.678   5.468
 2184SOL     OW 6700   0.687   2.861   4.368
 2184SOL    HW1 6701   0.753   2.850   4.437
 2184SOL    HW2 6702   0.621   2.918   4.407
 2185SOL     OW 6703   0.714   3.015   5.537
 2185SOL    HW1 6704   0.761   3.094   5.566
 2185SOL    HW2 6705   0.632   3.049   5.501
 2186SOL     OW 6706   0.331   3.283   4.789
 2186SOL    HW1 6707   0.259   3.246   4.738
 2186SOL    HW2 6708   0.382   3.334   4.726
 2187SOL     OW 6709   1.459   3.363   5.082
 2187SOL    HW1 6710   1.514   3.441   5.089
 2187SOL    HW2 6711   1.396   3.371   5.153
 2188SOL     OW 6712   0.450   2.259   5.214
 2188SOL    HW1 6713   0.526   2.201   5.216
 2188SOL    HW2 6714   0.375   2.201   5.227
 2189SOL     OW 6715   1.603   2.316   4.467
 2189SOL    HW1 6716   1.520   2.343   4.429
 2189SOL    HW2 6717   1.632   2.392   4.519
 2190SOL     OW 6718   0.246   3.573   4.214
 2190SOL    HW1 6719   0.263   3.653   4.263
 2190SOL    HW2 6720   0.320   3.565   4.153
 2191SOL     OW 6721   1.139   3.203   5.418
 2191SOL    HW1 6722   1.182   3.196   5.503
 2191SOL    HW2 6723   1.087   3.123   5.410
 2192SOL     OW 6724   0.241   3.302   4.264
 2192SOL    HW1 6725   0.217   3.395   4.269
 2192SOL    HW2 6726   0.171   3.257   4.312
 2193SOL     OW 6727   0.260   2.955   4.632
 2193SOL    HW1 6728   0.259   2.880   4.691
 2193SOL    HW2 6729   0.202   3.018   4.673
 2194SOL     OW 6730   0.610   3.653   5.153
 2194SOL    HW1 6731   0.527   3.635   5.198
 2194SOL    HW2 6732   0.632   3.742   5.179
 2195SOL     OW 6733   0.578   2.846   3.861
 2195SOL    HW1 6734   0.629   2.887   3.792
 2195SOL    HW2 6735   0.617   2.879   3.942
 2196SOL     OW 6736   1.593   1.989   5.191
 2196SOL    HW1 6737   1.611   2.071   5.143
 2196SOL    HW2 6738   1.577   2.017   5.281
 2197SOL     OW 6739   0.137   2.505   4.305
 2197SOL    HW1 6740   0.092   2.420   4.299
 2197SOL    HW2 6741   0.075   2.562   4.350
 2198SOL     OW 6742   0.002   3.437   3.841
 2198SOL    HW1 6743   0.009   3.344   3.860
 2198SOL    HW2 6744   5.980   3.477   3.925
 2199SOL     OW 6745   1.692   2.764   4.342
 2199SOL    HW1 6746   1.779   2.748   4.379
 2199SOL    HW2 6747   1.700   2.848   4.298
 2200SOL     OW 6748   0.089   2.601   5.381
 2200SOL    HW1 6749   0.177   2.618   5.414
 2200SOL    HW2 6750   0.078   2.663   5.309
 2201SOL     OW 6751   0.619   3.254   4.458
 2201SOL    HW1 6752   0.576   3.169   4.469
 2201SOL    HW2 6753   0.600   3.279   4.368
 2202SOL     OW 6754   1.288   3.100   5.147
 2202SOL    HW1 6755   1.319   3.033   5.086
 2202SOL    HW2 6756   1.347   3.095   5.222
 2203SOL     OW 6757   0.817   1.866   4.240
 2203SOL    HW1 6758   0.853   1.952   4.218
 2203SOL    HW2 6759   0.723   1.880   4.248
 2204SOL     OW 6760   0.198   2.841   4.905
 2204SOL    HW1 6761   0.287   2.807   4.916
 2204SOL    HW2 6762   0.142   2.772   4.940
 2205SOL     OW 6763   1.180   3.669   5.347
 2205SOL    HW1 6764   1.193   3.731   5.274
 2205SOL    HW2 6765   1.200   3.584   5.309
 2206SOL     OW 6766   0.338   2.104   5.553
 2206SOL    HW1 6767   0.380   2.189   5.559
 2206SOL    HW2 6768   0.245   2.122   5.565
 2207SOL     OW 6769   1.466   3.280   4.686
 2207SOL    HW1 6770   1.395   3.295   4.749
 2207SOL    HW2 6771   1.453   3.190   4.657
 2208SOL     OW 6772   0.596   2.585   3.992
 2208SOL    HW1 6773   0.599   2.666   3.942
 2208SOL    HW2 6774   0.530   2.601   4.059
 2209SOL     OW 6775   1.274   2.217   4.671
 2209SOL    HW1 6776   1.186   2.182   4.678
 2209SOL    HW2 6777   1.327   2.161   4.728
 2210SOL     OW 6778   0.793   2.479   5.175
 2210SOL    HW1 6779   0.766   2.455   5.263
 2210SOL    HW2 6780   0.754   2.411   5.119
 2211SOL     OW 6781   1.394   2.334   5.398
 2211SOL    HW1 6782   1.400   2.383   5.480
 2211SOL    HW2 6783   1.451   2.258   5.411
 2212SOL     OW 6784   0.952   2.748   5.308
 2212SOL    HW1 6785   1.007   2.678   5.272
 2212SOL    HW2 6786   0.904   2.782   5.232
 2213SOL     OW 6787   0.990   2.274   4.961
 2213SOL    HW1 6788   0.903   2.293   4.994
 2213SOL    HW2 6789   0.975   2.228   4.878
 2214SOL     OW 6790   1.039   2.566   4.157
 2214SOL    HW1 6791   1.059   2.557   4.251
 2214SOL    HW2 6792   0.959   2.516   4.144
 2215SOL     OW 6793   0.071   2.683   4.524
 2215SOL    HW1 6794   0.156   2.672   4.567
 2215SOL    HW2 6795   0.085   2.752   4.459
 2216SOL     OW 6796   0.119   3.728   5.299
 2216SOL    HW1 6797   0.126   3.703   5.391
 2216SOL    HW2 6798   0.034   3.696   5.271
 2217SOL     OW 6799   0.871   2.208   3.932
 2217SOL    HW1 6800   0.920   2.264   3.872
 2217SOL    HW2 6801   0.841   2.135   3.877
 2218SOL     OW 6802   1.703   2.431   5.552
 2218SOL    HW1 6803   1.668   2.506   5.504
 2218SOL    HW2 6804   1.735   2.372   5.484
 2219SOL     OW 6805   1.367   2.997   4.260
 2219SOL    HW1 6806   1.443   3.003   4.202
 2219SOL    HW2 6807   1.303   3.058   4.222
 2220SOL     OW 6808   0.550   2.041   4.617
 2220SOL    HW1 6809   0.552   2.072   4.707
 2220SOL    HW2 6810   0.548   2.121   4.564
 2221SOL     OW 6811   0.997   3.308   4.206
 2221SOL    HW1 6812   0.961   3.377   4.150
 2221SOL    HW2 6813   0.969   3.331   4.294
 2222SOL     OW 6814   0.351   3.673   4.598
 2222SOL    HW1 6815   0.397   3.588   4.600
 2222SOL    HW2 6816   0.420   3.738   4.612
 2223SOL     OW 6817   1.793   2.913   4.596
 2223SOL    HW1 6818   1.742   2.953   4.525
 2223SOL    HW2 6819   1.734   2.915   4.671
 2224SOL     OW 6820   1.226   3.401   5.237
 2224SOL    HW1 6821   1.215   3.327   5.297
 2224SOL    HW2 6822   1.163   3.385   5.167
 2225SOL     OW 6823   0.314   2.815   3.974
 2225SOL    HW1 6824   0.396   2.839   3.932
 2225SOL    HW2 6825   0.295   2.727   3.941
 2226SOL     OW 6826   1.472   2.610   4.452
 2226SOL    HW1 6827   1.474   2.568   4.538
 2226SOL    HW2 6828   1.557   2.653   4.443
 2227SOL     OW 6829   0.464   3.121   5.467
 2227SOL    HW1 6830   0.440   3.130   5.375
 2227SOL    HW2 6831   0.380   3.123   5.514
 2228SOL     OW 6832   0.198   2.140   5.227
 2228SOL    HW1 6833   0.118   2.189   5.206
 2228SOL    HW2 6834   0.166   2.057   5.264
 2229SOL     OW 6835   0.469   3.600   4.043
 2229SOL    HW1 6836   0.516   3.654   4.107
 2229SOL    HW2 6837   0.538   3.563   3.988
 2230SOL     OW 6838   0.249   3.646   4.958
 2230SOL    HW1 6839   0.301   3.578   5.002
 2230SOL    HW2 6840   0.255   3.624   4.865
 2231SOL     OW 6841   0.937   3.562   4.623
 2231SOL    HW1 6842   1.012   3.508   4.648
 2231SOL    HW2 6843   0.895   3.513   4.553
 2232SOL     OW 6844   0.396   2.558   4.199
 2232SOL    HW1 6845   0.419   2.465   4.209
 2232SOL    HW2 6846   0.303   2.562   4.222
 2233SOL     OW 6847   1.531   2.088   5.455
 2233SOL    HW1 6848   1.542   2.109   5.548
 2233SOL    HW2 6849   1.466   2.018   5.454
 2234SOL     OW 6850   0.661   1.983   3.833
 2234SOL    HW1 6851   0.703   1.899   3.854
 2234SOL    HW2 6852   0.600   1.961   3.762
 2235SOL     OW 6853   0.764   2.139   5.477
 2235SOL    HW1 6854   0.843   2.084   5.476
 2235SOL    HW2 6855   0.737   2.141   5.568
 2236SOL     OW 6856   0.877   3.386   4.917
 2236SOL    HW1 6857   0.860   3.348   4.831
 2236SOL    HW2 6858   0.947   3.331   4.954
 2237SOL     OW 6859   1.341   2.452   5.154
 2237SOL    HW1 6860   1.373   2.420   5.239
 2237SOL    HW2 6861   1.378   2.540   5.147
 2238SOL     OW 6862   0.818   3.256   4.667
 2238SOL    HW1 6863   0.902   3.244   4.623
 2238SOL    HW2 6864   0.754   3.260   4.595
 2239SOL     OW 6865   0.928   2.370   4.628
 2239SOL    HW1 6866   0.904   2.363   4.535
 2239SOL    HW2 6867   0.957   2.282   4.651
 2240SOL     OW 6868   0.552   1.926   4.226
 2240SOL    HW1 6869   0.473   1.927   4.280
 2240SOL    HW2 6870   0.544   2.003   4.170
 2241SOL     OW 6871   0.282   1.901   3.917
 2241SOL    HW1 6872   0.325   1.971   3.868
 2241SOL    HW2 6873   0.353   1.850   3.956
 2242SOL     OW 6874   0.933   2.110   4.184
 2242SOL    HW1 6875   0.907   2.148   4.100
 2242SOL    HW2 6876   1.029   2.108   4.181
 2243SOL     OW 6877   1.080   2.542   5.183
 2243SOL    HW1 6878   1.014   2.473   5.186
 2243SOL    HW2 6879   1.163   2.495   5.176
 2244SOL     OW 6880   1.229   3.431   4.512
 2244SOL    HW1 6881   1.239   3.504   4.451
 2244SOL    HW2 6882   1.289   3.451   4.584
 2245SOL     OW 6883   0.477   3.018   4.460
 2245SOL    HW1 6884   0.403   3.005   4.520
 2245SOL    HW2 6885   0.437   3.016   4.373
 2246SOL     OW 6886   1.275   3.655   4.347
 2246SOL    HW1 6887   1.325   3.702   4.281
 2246SOL    HW2 6888   1.206   3.716   4.374
 2247SOL     OW 6889   0.084   2.408   5.130
 2247SOL    HW1 6890   0.172   2.415   5.092
 2247SOL    HW2 6891   0.069   2.492   5.173
 2248SOL     OW 6892   0.559   2.089   4.891
 2248SOL    HW1 6893   0.601   2.013   4.932
 2248SOL    HW2 6894   0.468   2.085   4.921
 2249SOL     OW 6895   0.867   2.323   4.363
 2249SOL    HW1 6896   0.820   2.378   4.300
 2249SOL    HW2 6897   0.885   2.242   4.315
 2250SOL     OW 6898   1.014   1.916   4.468
 2250SOL    HW1 6899   0.952   1.904   4.396
 2250SOL    HW2 6900   0.997   1.841   4.526
 2251SOL     OW 6901   1.439   3.022   4.588
 2251SOL    HW1 6902   1.367   2.960   4.574
 2251SOL    HW2 6903   1.474   3.038   4.500
 2252SOL     OW 6904   1.465   2.467   4.700
 2252SOL    HW1 6905   1.411   2.388   4.705
 2252SOL    HW2 6906   1.524   2.460   4.775
 2253SOL     OW 6907   0.490   3.283   3.876
 2253SOL    HW1 6908   0.418   3.252   3.930
 2253SOL    HW2 6909   0.481   3.237   3.793
 2254SOL     OW 6910   1.671   3.112   4.409
 2254SOL    HW1 6911   1.765   3.123   4.396
 2254SOL    HW2 6912   1.637   3.201   4.417
 2255SOL     OW 6913   1.409   2.456   3.792
 2255SOL    HW1 6914   1.357   2.445   3.871
 2255SOL    HW2 6915   1.496   2.422   3.815
 2256SOL     OW 6916   0.527   2.124   4.038
 2256SOL    HW1 6917   0.575   2.079   3.969
 2256SOL    HW2 6918   0.500   2.207   3.999
 2257SOL     OW 6919   1.752   3.102   5.293
 2257SOL    HW1 6920   1.840   3.065   5.285
 2257SOL    HW2 6921   1.767   3.192   5.323
 2258SOL     OW 6922   1.056   3.217   5.058
 2258SOL    HW1 6923   0.981   3.185   5.108
 2258SOL    HW2 6924   1.131   3.174   5.099
 2259SOL     OW 6925   1.606   3.487   5.377
 2259SOL    HW1 6926   1.603   3.521   5.288
 2259SOL    HW2 6927   1.689   3.439   5.381
 2260SOL     OW 6928   1.130   3.069   4.828
 2260SOL    HW1 6929   1.068   3.107   4.891
 2260SOL    HW2 6930   1.101   3.102   4.743
 2261SOL     OW 6931   1.623   2.958   4.803
 2261SOL    HW1 6932   1.617   3.020   4.875
 2261SOL    HW2 6933   1.547   2.977   4.748
 2262SOL     OW 6934   0.917   1.958   5.119
 2262SOL    HW1 6935   0.940   1.939   5.028
 2262SOL    HW2 6936   0.996   1.996   5.156
 2263SOL     OW 6937   0.986   2.975   5.451
 2263SOL    HW1 6938   0.893   2.991   5.472
 2263SOL    HW2 6939   0.984   2.899   5.394
 2264SOL     OW 6940   0.710   2.926   4.092
 2264SOL    HW1 6941   0.694   2.908   4.184
 2264SOL    HW2 6942   0.786   2.872   4.070
 2265SOL     OW 6943   0.430   2.684   4.963
 2265SOL    HW1 6944   0.496   2.692   5.032
 2265SOL    HW2 6945   0.390   2.598   4.978
 2266SOL     OW 6946   1.264   2.237   5.001
 2266SOL    HW1 6947   1.297   2.315   5.045
 2266SOL    HW2 6948   1.173   2.260   4.979
 2267SOL     OW 6949   0.066   3.456   5.059
 2267SOL    HW1 6950   0.093   3.537   5.018
 2267SOL    HW2 6951   0.147   3.416   5.091
 2268SOL     OW 6952   0.394   2.996   4.192
 2268SOL    HW1 6953   0.367   3.067   4.134
 2268SOL    HW2 6954   0.368   2.916   4.148
 2269SOL     OW 6955   0.558   2.393   4.582
 2269SOL    HW1 6956   0.567   2.452   4.507
 2269SOL    HW2 6957   0.623   2.423   4.645
 2270SOL     OW 6958   1.241   3.214   4.142
 2270SOL    HW1 6959   1.291   3.290   4.171
 2270SOL    HW2 6960   1.150   3.235   4.163
 2271SOL     OW 6961   1.277   3.322   4.877
 2271SOL    HW1 6962   1.336   3.324   4.953
 2271SOL    HW2 6963   1.224   3.243   4.890
 2272SOL     OW 6964   0.344   3.389   5.039
 2272SOL    HW1 6965   0.330   3.345   4.955
 2272SOL    HW2 6966   0.439   3.400   5.045
 2273SOL     OW 6967   0.420   2.595   5.321
 2273SOL    HW1 6968   0.489   2.639   5.270
 2273SOL    HW2 6969   0.456   2.508   5.339
 2274SOL     OW 6970   1.603   2.641   5.407
 2274SOL    HW1 6971   1.516   2.682   5.400
 2274SOL    HW2 6972   1.655   2.683   5.339
 2275SOL     OW 6973   0.998   1.988   5.478
 2275SOL    HW1 6974   1.054   2.061   5.455
 2275SOL    HW2 6975   1.047   1.910   5.449
 2276SOL     OW 6976   0.501   1.898   5.466
 2276SOL    HW1 6977   0.453   1.846   5.402
 2276SOL    HW2 6978   0.443   1.973   5.484
 2277SOL     OW 6979   0.591   2.742   4.747
 2277SOL    HW1 6980   0.625   2.831   4.750
 2277SOL    HW2 6981   0.536   2.735   4.825
 2278SOL     OW 6982   1.354   2.718   4.752
 2278SOL    HW1 6983   1.272   2.709   4.703
 2278SOL    HW2 6984   1.396   2.633   4.744
 2279SOL     OW 6985   1.204   2.401   3.999
 2279SOL    HW1 6986   1.246   2.345   4.065
 2279SOL    HW2 6987   1.163   2.470   4.050
 2280SOL     OW 6988   0.298   2.056   4.976
 2280SOL    HW1 6989   0.263   2.090   5.058
 2280SOL    HW2 6990   0.277   1.963   4.978
 2281SOL     OW 6991   0.067   3.175   4.993
 2281SOL    HW1 6992   0.074   3.139   5.081
 2281SOL    HW2 6993   0.047   3.268   5.007
 2282SOL     OW 6994   0.725   2.496   4.780
 2282SOL    HW1 6995   0.801   2.478   4.725
 2282SOL    HW2 6996   0.698   2.585   4.756
 2283SOL     OW 6997   1.742   2.822   5.573
 2283SOL    HW1 6998   1.693   2.757   5.522
 2283SOL    HW2 6999   1.684   2.844   5.646
 2284SOL     OW 7000   0.310   1.931   4.355
 2284SOL    HW1 7001   0.286   2.022   4.374
 2284SOL    HW2 7002   0.312   1.888   4.441
 2285SOL     OW 7003   1.631   2.178   4.121
 2285SOL    HW1 7004   1.661   2.134   4.200
 2285SOL    HW2 7005   1.564   2.240   4.153
 2286SOL     OW 7006   1.029   2.620   4.685
 2286SOL    HW1 7007   1.025   2.639   4.779
 2286SOL    HW2 7008   1.004   2.528   4.678
 2287SOL     OW 7009   0.980   3.425   5.440
 2287SOL    HW1 7010   0.964   3.472   5.358
 2287SOL    HW2 7011   1.028   3.347   5.415
 2288SOL     OW 7012   1.853   3.365   5.329
 2288SOL    HW1 7013   1.872   3.393   5.240
 2288SOL    HW2 7014   1.934   3.383   5.378
 2289SOL     OW 7015   0.352   2.766   5.528
 2289SOL    HW1 7016   0.432   2.800   5.569
 2289SOL    HW2 7017   0.383   2.708   5.459
 2290SOL     OW 7018   1.070   3.201   4.579
 2290SOL    HW1 7019   1.071   3.128   4.517
 2290SOL    HW2 7020   1.131   3.265   4.542
 2291SOL     OW 7021   0.322   2.664   4.660
 2291SOL    HW1 7022   0.414   2.689   4.654
 2291SOL    HW2 7023   0.321   2.589   4.720
 2292SOL     OW 7024   0.349   2.376   4.752
 2292SOL    HW1 7025   0.310   2.290   4.737
 2292SOL    HW2 7026   0.423   2.379   4.691
 2293SOL     OW 7027   1.133   2.235   5.408
 2293SOL    HW1 7028   1.086   2.291   5.469
 2293SOL    HW2 7029   1.220   2.274   5.402
 2294SOL     OW 7030   1.162   2.060   5.194
 2294SOL    HW1 7031   1.151   2.123   5.266
 2294SOL    HW2 7032   1.203   2.111   5.124
 2295SOL     OW 7033   0.017   3.174   3.925
 2295SOL    HW1 7034   5.938   3.172   3.871
 2295SOL    HW2 7035   0.018   3.088   3.968
 2296SOL     OW 7036   0.072   3.662   4.622
 2296SOL    HW1 7037   0.059   3.567   4.623
 2296SOL    HW2 7038   0.167   3.672   4.617
 2297SOL     OW 7039   0.496   3.436   4.630
 2297SOL    HW1 7040   0.565   3.498   4.655
 2297SOL    HW2 7041   0.540   3.375   4.571
 2298SOL     OW 7042   0.978   2.654   4.952
 2298SOL    HW1 7043   1.037   2.632   5.024
 2298SOL    HW2 7044   0.895   2.612   4.975
 2299SOL     OW 7045   5.999   2.452   4.853
 2299SOL    HW1 7046   0.037   2.399   4.783
 2299SOL    HW2 7047   0.031   2.411   4.934
 2300SOL     OW 7048   0.196   2.362   5.454
 2300SOL    HW1 7049   0.238   2.322   5.378
 2300SOL    HW2 7050   0.140   2.430   5.416
 2301SOL     OW 7051   1.376   2.800   5.382
 2301SOL    HW1 7052   1.399   2.893   5.379
 2301SOL    HW2 7053   1.373   2.773   5.291
 2302SOL     OW 7054   0.808   2.432   4.094
 2302SOL    HW1 7055   0.808   2.354   4.038
 2302SOL    HW2 7056   0.738   2.487   4.059
 2303SOL     OW 7057   1.641   2.463   4.910
 2303SOL    HW1 7058   1.632   2.404   4.985
 2303SOL    HW2 7059   1.729   2.444   4.876
 2304SOL     OW 7060   0.280   3.419   5.464
 2304SOL    HW1 7061   0.222   3.480   5.508
 2304SOL    HW2 7062   0.253   3.333   5.496
 2305SOL     OW 7063   0.706   2.310   4.981
 2305SOL    HW1 7064   0.651   2.237   4.953
 2305SOL    HW2 7065   0.699   2.374   4.909
 2306SOL     OW 7066   0.924   3.541   5.192
 2306SOL    HW1 7067   0.900   3.504   5.106
 2306SOL    HW2 7068   0.919   3.635   5.180
 2307SOL     OW 7069   0.464   2.357   3.910
 2307SOL    HW1 7070   0.525   2.428   3.930
 2307SOL    HW2 7071   0.379   2.400   3.905
 2308SOL     OW 7072   0.193   2.978   5.181
 2308SOL    HW1 7073   0.139   2.961   5.259
 2308SOL    HW2 7074   0.139   2.946   5.108
 2309SOL     OW 7075   1.324   2.908   4.946
 2309SOL    HW1 7076   1.347   2.845   4.878
 2309SOL    HW2 7077   1.255   2.962   4.906
 2310SOL     OW 7078   1.291   2.676   4.032
 2310SOL    HW1 7079   1.207   2.703   4.067
 2310SOL    HW2 7080   1.295   2.716   3.946
 2311SOL     OW 7081   1.778   3.605   4.877
 2311SOL    HW1 7082   1.837   3.631   4.807
 2311SOL    HW2 7083   1.752   3.515   4.855
 2312SOL     OW 7084   1.238   3.595   4.833
 2312SOL    HW1 7085   1.323   3.616   4.793
 2312SOL    HW2 7086   1.245   3.502   4.855
 2313SOL     OW 7087   0.071   3.133   4.726
 2313SOL    HW1 7088   0.070   3.133   4.822
 2313SOL    HW2 7089   0.000   3.074   4.701
 2314SOL     OW 7090   0.679   3.532   5.460
 2314SOL    HW1 7091   0.620   3.607   5.453
 2314SOL    HW2 7092   0.743   3.546   5.390
 2315SOL     OW 7093   0.139   3.649   5.559
 2315SOL    HW1 7094   0.078   3.589   5.603
 2315SOL    HW2 7095   0.185   3.693   5.630
 2316SOL     OW 7096   1.271   2.789   4.402
 2316SOL    HW1 7097   1.346   2.731   4.415
 2316SOL    HW2 7098   1.305   2.858   4.344
 2317SOL     OW 7099   0.809   3.138   5.152
 2317SOL    HW1 7100   0.782   3.176   5.236
 2317SOL    HW2 7101   0.738   3.160   5.092
 2318SOL     OW 7102   0.669   3.489   3.879
 2318SOL    HW1 7103   0.683   3.501   3.785
 2318SOL    HW2 7104   0.616   3.410   3.885
 2319SOL     OW 7105   1.623   3.589   5.114
 2319SOL    HW1 7106   1.675   3.594   5.034
 2319SOL    HW2 7107   1.609   3.680   5.140
 2320SOL     OW 7108   1.836   2.037   4.692
 2320SOL    HW1 7109   1.869   1.951   4.665
 2320SOL    HW2 7110   1.752   2.045   4.647
 2321SOL     OW 7111   0.265   2.182   4.443
 2321SOL    HW1 7112   0.183   2.222   4.414
 2321SOL    HW2 7113   0.256   2.176   4.539
 2322SOL     OW 7114   0.823   2.868   5.095
 2322SOL    HW1 7115   0.870   2.861   5.012
 2322SOL    HW2 7116   0.822   2.962   5.114
 2323SOL     OW 7117   0.917   2.770   4.008
 2323SOL    HW1 7118   0.981   2.790   3.940
 2323SOL    HW2 7119   0.960   2.704   4.062
 2324SOL     OW 7120   0.382   3.171   5.217
 2324SOL    HW1 7121   0.359   3.246   5.162
 2324SOL    HW2 7122   0.317   3.105   5.195
 2325SOL     OW 7123   1.608   3.142   5.008
 2325SOL    HW1 7124   1.669   3.132   5.081
 2325SOL    HW2 7125   1.548   3.211   5.037
 2326SOL     OW 7126   1.053   2.971   4.433
 2326SOL    HW1 7127   0.983   2.919   4.470
 2326SOL    HW2 7128   1.118   2.907   4.403
 2327SOL     OW 7129   1.019   2.101   4.690
 2327SOL    HW1 7130   1.014   2.055   4.607
 2327SOL    HW2 7131   1.013   2.032   4.756
 2328SOL     OW 7132   0.605   3.354   4.203
 2328SOL    HW1 7133   0.653   3.302   4.138
 2328SOL    HW2 7134   0.529   3.388   4.156
 2329SOL     OW 7135   1.721   2.253   5.105
 2329SOL    HW1 7136   1.793   2.317   5.104
 2329SOL    HW2 7137   1.752   2.182   5.049
 2330SOL     OW 7138   0.270   3.201   4.020
 2330SOL    HW1 7139   0.178   3.196   3.996
 2330SOL    HW2 7140   0.270   3.240   4.107
 2331SOL     OW 7141   0.118   2.893   5.447
 2331SOL    HW1 7142   0.053   2.852   5.505
 2331SOL    HW2 7143   0.202   2.858   5.476
 2332SOL     OW 7144   0.673   2.060   5.222
 2332SOL    HW1 7145   0.757   2.039   5.182
 2332SOL    HW2 7146   0.694   2.087   5.311
 2333SOL     OW 7147   0.060   2.200   3.781
 2333SOL    HW1 7148   5.975   2.188   3.739
 2333SOL    HW2 7149   0.104   2.266   3.728
 2334SOL     OW 7150   1.429   2.721   5.124
 2334SOL    HW1 7151   1.380   2.781   5.068
 2334SOL    HW2 7152   1.518   2.723   5.088
 2335SOL     OW 7153   0.085   2.070   4.031
 2335SOL    HW1 7154   0.088   2.135   3.961
 2335SOL    HW2 7155   0.158   2.011   4.012
 2336SOL     OW 7156   1.174   3.245   3.866
 2336SOL    HW1 7157   1.088   3.208   3.846
 2336SOL    HW2 7158   1.201   3.200   3.946
 2337SOL     OW 7159   0.621   2.693   5.160
 2337SOL    HW1 7160   0.677   2.769   5.144
 2337SOL    HW2 7161   0.682   2.620   5.166
 2338SOL     OW 7162   1.484   3.638   4.711
 2338SOL    HW1 7163   1.511   3.696   4.640
 2338SOL    HW2 7164   1.566   3.605   4.747
 2339SOL     OW 7165   0.715   2.426   5.430
 2339SOL    HW1 7166   0.761   2.486   5.489
 2339SOL    HW2 7167   0.740   2.339   5.460
 2340SOL     OW 7168   1.475   3.061   5.353
 2340SOL    HW1 7169   1.462   3.077   5.447
 2340SOL    HW2 7170   1.568   3.077   5.338
 2341SOL     OW 7171   0.373   3.603   5.283
 2341SOL    HW1 7172   0.287   3.643   5.268
 2341SOL    HW2 7173   0.355   3.525   5.335
 2342SOL     OW 7174   1.669   2.742   4.979
 2342SOL    HW1 7175   1.662   2.657   4.936
 2342SOL    HW2 7176   1.657   2.806   4.908
 2343SOL     OW 7177   0.587   2.600   4.397
 2343SOL    HW1 7178   0.629   2.684   4.380
 2343SOL    HW2 7179   0.525   2.589   4.325
 2344SOL     OW 7180   1.762   2.221   5.377
 2344SOL    HW1 7181   1.745   2.239   5.285
 2344SOL    HW2 7182   1.689   2.166   5.405
 2345SOL     OW 7183   1.749   2.798   5.237
 2345SOL    HW1 7184   1.739   2.892   5.250
 2345SOL    HW2 7185   1.732   2.785   5.143
 2346SOL     OW 7186   0.863   3.229   3.764
 2346SOL    HW1 7187   0.828   3.261   3.847
 2346SOL    HW2 7188   0.883   3.308   3.714
 2347SOL     OW 7189   0.662   3.651   4.668
 2347SOL    HW1 7190   0.642   3.742   4.644
 2347SOL    HW2 7191   0.757   3.644   4.659
 2348SOL     OW 7192   0.868   2.828   4.579
 2348SOL    HW1 7193   0.920   2.757   4.618
 2348SOL    HW2 7194   0.832   2.875   4.654
 2349SOL     OW 7195   1.075   2.802   3.787
 2349SOL    HW1 7196   1.045   2.884   3.747
 2349SOL    HW2 7197   1.149   2.775   3.732
 2350SOL     OW 7198   1.851   3.429   4.576
 2350SOL    HW1 7199   1.821   3.427   4.485
 2350SOL    HW2 7200   1.831   3.341   4.609
 2351SOL     OW 7201   0.215   3.163   5.578
 2351SOL    HW1 7202   0.158   3.111   5.520
 2351SOL    HW2 7203   0.165   3.174   5.658
 2352SOL     OW 7204   0.091   3.105   4.387
 2352SOL    HW1 7205   0.059   3.067   4.469
 2352SOL    HW2 7206   0.137   3.033   4.344
 2353SOL     OW 7207   0.683   3.267   5.358
 2353SOL    HW1 7208   0.599   3.227   5.381
 2353SOL    HW2 7209   0.677   3.356   5.393
 2354SOL     OW 7210   1.814   2.042   4.964
 2354SOL    HW1 7211   1.821   1.947   4.974
 2354SOL    HW2 7212   1.822   2.056   4.869
 2355SOL     OW 7213   0.437   2.295   4.251
 2355SOL    HW1 7214   0.461   2.223   4.193
 2355SOL    HW2 7215   0.384   2.254   4.320
 2356SOL     OW 7216   1.693   3.351   4.830
 2356SOL    HW1 7217   1.617   3.328   4.777
 2356SOL    HW2 7218   1.703   3.278   4.890
 2357SOL     OW 7219   0.337   2.428   5.024
 2357SOL    HW1 7220   0.389   2.368   5.077
 2357SOL    HW2 7221   0.348   2.396   4.934
 2358SOL     OW 7222   0.829   3.441   4.400
 2358SOL    HW1 7223   0.815   3.493   4.321
 2358SOL    HW2 7224   0.754   3.382   4.404
 2359SOL     OW 7225   1.436   2.084   4.848
 2359SOL    HW1 7226   1.456   2.001   4.892
 2359SOL    HW2 7227   1.385   2.134   4.911
 2360SOL     OW 7228   1.007   1.879   4.863
 2360SOL    HW1 7229   0.953   1.812   4.822
 2360SOL    HW2 7230   1.095   1.841   4.866
 2361SOL     OW 7231   0.771   3.197   4.041
 2361SOL    HW1 7232   0.741   3.106   4.047
 2361SOL    HW2 7233   0.854   3.197   4.089
 2362SOL     OW 7234   0.619   3.416   5.009
 2362SOL    HW1 7235   0.621   3.498   5.059
 2362SOL    HW2 7236   0.707   3.410   4.971
 2363SOL     OW 7237   1.296   2.332   4.427
 2363SOL    HW1 7238   1.236   2.406   4.428
 2363SOL    HW2 7239   1.285   2.290   4.512
 2364SOL     OW 7240   1.575   2.069   4.599
 2364SOL    HW1 7241   1.527   2.079   4.680
 2364SOL    HW2 7242   1.577   2.156   4.561
 2365SOL     OW 7243   0.056   2.919   4.013
 2365SOL    HW1 7244   0.148   2.896   3.999
 2365SOL    HW2 7245   0.020   2.848   4.066
 2366SOL     OW 7246   0.872   3.510   4.076
 2366SOL    HW1 7247   0.804   3.499   4.009
 2366SOL    HW2 7248   0.849   3.592   4.120
 2367SOL     OW 7249   0.215   2.481   5.712
 2367SOL    HW1 7250   0.121   2.494   5.726
 2367SOL    HW2 7251   0.221   2.450   5.622
 2368SOL     OW 7252   1.774   2.467   5.812
 2368SOL    HW1 7253   1.746   2.453   5.721
 2368SOL    HW2 7254   1.752   2.384   5.856
 2369SOL     OW 7255   0.259   3.586   0.079
 2369SOL    HW1 7256   0.273   3.670   0.122
 2369SOL    HW2 7257   0.337   3.575   0.024
 2370SOL     OW 7258   0.603   2.844   5.728
 2370SOL    HW1 7259   0.632   2.900   5.656
 2370SOL    HW2 7260   0.676   2.844   5.789
 2371SOL     OW 7261   1.823   3.629   5.918
 2371SOL    HW1 7262   1.851   3.571   5.988
 2371SOL    HW2 7263   1.893   3.695   5.913
 2372SOL     OW 7264   0.014   3.439   5.687
 2372SOL    HW1 7265   0.014   3.349   5.719
 2372SOL    HW2 7266   0.005   3.493   5.766
 2373SOL     OW 7267   1.714   2.735   0.161
 2373SOL    HW1 7268   1.781   2.777   0.215
 2373SOL    HW2 7269   1.680   2.805   0.106
 2374SOL     OW 7270   1.677   2.956   0.000
 2374SOL    HW1 7271   1.765   2.972   5.967
 2374SOL    HW2 7272   1.649   3.040   0.035
 2375SOL     OW 7273   1.544   2.866   5.770
 2375SOL    HW1 7274   1.491   2.788   5.785
 2375SOL    HW2 7275   1.578   2.888   5.857
 2376SOL     OW 7276   0.578   2.590   5.850
 2376SOL    HW1 7277   0.597   2.664   5.792
 2376SOL    HW2 7278   0.556   2.630   5.934
 2377SOL     OW 7279   0.870   2.216   5.749
 2377SOL    HW1 7280   0.924   2.277   5.700
 2377SOL    HW2 7281   0.925   2.139   5.764
 2378SOL     OW 7282   0.322   2.811   5.829
 2378SOL    HW1 7283   0.407   2.835   5.792
 2378SOL    HW2 7284   0.297   2.731   5.782
 2379SOL     OW 7285   1.117   3.633   5.822
 2379SOL    HW1 7286   1.031   3.597   5.846
 2379SOL    HW2 7287   1.142   3.585   5.743
 2380SOL     OW 7288   1.633   3.247   5.676
 2380SOL    HW1 7289   1.592   3.333   5.664
 2380SOL    HW2 7290   1.564   3.185   5.655
 2381SOL     OW 7291   0.484   3.619   5.916
 2381SOL    HW1 7292   0.535   3.675   5.974
 2381SOL    HW2 7293   0.548   3.585   5.854
 2382SOL     OW 7294   0.632   1.970   5.696
 2382SOL    HW1 7295   0.720   1.934   5.685
 2382SOL    HW2 7296   0.586   1.946   5.615
 2383SOL     OW 7297   1.426   3.068   5.624
 2383SOL    HW1 7298   1.463   2.995   5.675
 2383SOL    HW2 7299   1.341   3.084   5.665
 2384SOL     OW 7300   0.291   1.897   5.771
 2384SOL    HW1 7301   0.337   1.965   5.721
 2384SOL    HW2 7302   0.359   1.850   5.817
 2385SOL     OW 7303   1.025   2.402   5.607
 2385SOL    HW1 7304   0.982   2.487   5.593
 2385SOL    HW2 7305   1.090   2.420   5.675
 2386SOL     OW 7306   1.891   2.676   5.934
 2386SOL    HW1 7307   1.886   2.653   0.027
 2386SOL    HW2 7308   1.838   2.609   5.889
 2387SOL     OW 7309   0.488   3.277   5.745
 2387SOL    HW1 7310   0.415   3.249   5.801
 2387SOL    HW2 7311   0.465   3.245   5.658
 2388SOL     OW 7312   1.707   3.160   0.297
 2388SOL    HW1 7313   1.779   3.120   0.249
 2388SOL    HW2 7314   1.654   3.202   0.229
 2389SOL     OW 7315   1.403   2.440   5.651
 2389SOL    HW1 7316   1.340   2.413   5.719
 2389SOL    HW2 7317   1.485   2.401   5.679
 2390SOL     OW 7318   0.535   2.113   5.909
 2390SOL    HW1 7319   0.569   2.072   5.830
 2390SOL    HW2 7320   0.505   2.200   5.880
 2391SOL     OW 7321   0.386   2.976   0.039
 2391SOL    HW1 7322   0.339   3.056   0.015
 2391SOL    HW2 7323   0.360   2.913   5.972
 2392SOL     OW 7324   1.208   2.375   5.834
 2392SOL    HW1 7325   1.224   2.289   5.873
 2392SOL    HW2 7326   1.163   2.424   5.903
 2393SOL     OW 7327   0.299   1.941   0.242
 2393SOL    HW1 7328   0.356   2.018   0.245
 2393SOL    HW2 7329   0.352   1.871   0.281
 2394SOL     OW 7330   1.522   2.138   5.726
 2394SOL    HW1 7331   1.460   2.066   5.736
 2394SOL    HW2 7332   1.555   2.154   5.815
 2395SOL     OW 7333   1.311   2.702   5.632
 2395SOL    HW1 7334   1.342   2.611   5.633
 2395SOL    HW2 7335   1.333   2.734   5.545
 2396SOL     OW 7336   0.019   3.174   5.777
 2396SOL    HW1 7337   5.941   3.174   5.722
 2396SOL    HW2 7338   0.019   3.088   5.820
 2397SOL     OW 7339   0.815   2.454   5.905
 2397SOL    HW1 7340   0.812   2.369   5.862
 2397SOL    HW2 7341   0.730   2.494   5.886
 2398SOL     OW 7342   0.454   2.351   5.779
 2398SOL    HW1 7343   0.512   2.424   5.799
 2398SOL    HW2 7344   0.370   2.392   5.761
 2399SOL     OW 7345   1.757   1.995   0.099
 2399SOL    HW1 7346   1.799   1.980   0.014
 2399SOL    HW2 7347   1.719   1.910   0.122
 2400SOL     OW 7348   0.675   3.476   5.743
 2400SOL    HW1 7349   0.680   3.496   5.649
 2400SOL    HW2 7350   0.612   3.405   5.749
 2401SOL     OW 7351   1.200   3.469   5.617
 2401SOL    HW1 7352   1.193   3.376   5.641
 2401SOL    HW2 7353   1.138   3.480   5.546
 2402SOL     OW 7354   0.870   2.777   5.833
 2402SOL    HW1 7355   0.950   2.808   5.790
 2402SOL    HW2 7356   0.899   2.705   5.889
 2403SOL     OW 7357   1.482   3.485   5.626
 2403SOL    HW1 7358   1.388   3.481   5.608
 2403SOL    HW2 7359   1.523   3.493   5.539
 2404SOL     OW 7360   1.034   3.015   0.298
 2404SOL    HW1 7361   0.985   2.956   0.354
 2404SOL    HW2 7362   1.079   2.958   0.236
 2405SOL     OW 7363   0.263   3.216   5.920
 2405SOL    HW1 7364   0.178   3.203   5.878
 2405SOL    HW2 7365   0.248   3.287   5.983
 2406SOL     OW 7366   0.070   2.188   5.620
 2406SOL    HW1 7367   5.976   2.187   5.604
 2406SOL    HW2 7368   0.103   2.260   5.566
 2407SOL     OW 7369   0.086   2.068   5.863
 2407SOL    HW1 7370   0.094   2.117   5.781
 2407SOL    HW2 7371   0.154   2.000   5.857
 2408SOL     OW 7372   1.171   3.200   5.705
 2408SOL    HW1 7373   1.079   3.175   5.701
 2408SOL    HW2 7374   1.194   3.192   5.798
 2409SOL     OW 7375   1.223   2.166   0.024
 2409SOL    HW1 7376   1.304   2.129   0.058
 2409SOL    HW2 7377   1.202   2.236   0.086
 2410SOL     OW 7378   0.867   3.237   5.624
 2410SOL    HW1 7379   0.822   3.283   5.695
 2410SOL    HW2 7380   0.888   3.305   5.561
 2411SOL     OW 7381   1.086   2.854   5.685
 2411SOL    HW1 7382   1.067   2.899   5.604
 2411SOL    HW2 7383   1.164   2.802   5.666
 2412SOL     OW 7384   1.356   1.918   5.740
 2412SOL    HW1 7385   1.385   1.837   5.698
 2412SOL    HW2 7386   1.272   1.895   5.780
 2413SOL     OW 7387   0.053   2.920   5.872
 2413SOL    HW1 7388   0.144   2.890   5.862
 2413SOL    HW2 7389   0.015   2.860   5.937
 2414SOL     OW 7390   0.883   3.515   5.924
 2414SOL    HW1 7391   0.813   3.504   5.859
 2414SOL    HW2 7392   0.849   3.581   5.984
 2415SOL     OW 7393   0.236   4.367   0.124
 2415SOL    HW1 7394   0.151   4.341   0.161
 2415SOL    HW2 7395   0.229   4.343   0.031
 2416SOL     OW 7396   0.222   3.993   0.995
 2416SOL    HW1 7397   0.246   3.962   1.083
 2416SOL    HW2 7398   0.131   3.965   0.985
 2417SOL     OW 7399   0.015   4.114   0.615
 2417SOL    HW1 7400   5.938   4.124   0.672
 2417SOL    HW2 7401   5.986   4.055   0.546
 2418SOL     OW 7402   0.567   5.016   1.179
 2418SOL    HW1 7403   0.479   5.020   1.142
 2418SOL    HW2 7404   0.582   5.104   1.214
 2419SOL     OW 7405   1.564   5.237   0.708
 2419SOL    HW1 7406   1.521   5.214   0.791
 2419SOL    HW2 7407   1.493   5.242   0.644
 2420SOL     OW 7408   1.130   4.422   0.698
 2420SOL    HW1 7409   1.180   4.503   0.686
 2420SOL    HW2 7410   1.084   4.434   0.781
 2421SOL     OW 7411   1.787   4.317   0.245
 2421SOL    HW1 7412   1.739   4.331   0.163
 2421SOL    HW2 7413   1.745   4.241   0.284
 2422SOL     OW 7414   0.751   4.864   1.043
 2422SOL    HW1 7415   0.684   4.901   1.101
 2422SOL    HW2 7416   0.789   4.940   0.999
 2423SOL     OW 7417   0.832   4.513   1.814
 2423SOL    HW1 7418   0.859   4.572   1.885
 2423SOL    HW2 7419   0.875   4.549   1.736
 2424SOL     OW 7420   0.687   4.723   0.645
 2424SOL    HW1 7421   0.753   4.713   0.714
 2424SOL    HW2 7422   0.621   4.780   0.684
 2425SOL     OW 7423   0.714   4.875   1.812
 2425SOL    HW1 7424   0.758   4.954   1.842
 2425SOL    HW2 7425   0.629   4.906   1.778
 2426SOL     OW 7426   0.331   5.142   1.066
 2426SOL    HW1 7427   0.258   5.108   1.015
 2426SOL    HW2 7428   0.381   5.195   1.003
 2427SOL     OW 7429   1.463   5.226   1.354
 2427SOL    HW1 7430   1.517   5.304   1.361
 2427SOL    HW2 7431   1.397   5.236   1.422
 2428SOL     OW 7432   0.450   4.120   1.488
 2428SOL    HW1 7433   0.525   4.061   1.492
 2428SOL    HW2 7434   0.374   4.063   1.501
 2429SOL     OW 7435   1.608   4.170   0.741
 2429SOL    HW1 7436   1.535   4.193   0.684
 2429SOL    HW2 7437   1.623   4.249   0.794
 2430SOL     OW 7438   0.240   5.441   0.494
 2430SOL    HW1 7439   0.259   5.520   0.543
 2430SOL    HW2 7440   0.319   5.427   0.441
 2431SOL     OW 7441   0.233   5.166   0.532
 2431SOL    HW1 7442   0.211   5.258   0.546
 2431SOL    HW2 7443   0.170   5.118   0.586
 2432SOL     OW 7444   0.260   4.817   0.909
 2432SOL    HW1 7445   0.259   4.743   0.970
 2432SOL    HW2 7446   0.202   4.882   0.948
 2433SOL     OW 7447   0.616   5.509   1.436
 2433SOL    HW1 7448   0.530   5.493   1.476
 2433SOL    HW2 7449   0.635   5.601   1.455
 2434SOL     OW 7450   0.608   4.687   0.133
 2434SOL    HW1 7451   0.560   4.757   0.090
 2434SOL    HW2 7452   0.651   4.729   0.207
 2435SOL     OW 7453   1.593   3.852   1.468
 2435SOL    HW1 7454   1.611   3.932   1.418
 2435SOL    HW2 7455   1.582   3.882   1.559
 2436SOL     OW 7456   0.135   4.367   0.573
 2436SOL    HW1 7457   0.092   4.282   0.575
 2436SOL    HW2 7458   0.077   4.424   0.623
 2437SOL     OW 7459   1.848   5.489   0.333
 2437SOL    HW1 7460   1.913   5.459   0.396
 2437SOL    HW2 7461   1.866   5.582   0.321
 2438SOL     OW 7462   5.990   5.292   0.104
 2438SOL    HW1 7463   0.006   5.199   0.123
 2438SOL    HW2 7464   5.989   5.334   0.191
 2439SOL     OW 7465   1.693   4.626   0.654
 2439SOL    HW1 7466   1.777   4.584   0.635
 2439SOL    HW2 7467   1.673   4.676   0.575
 2440SOL     OW 7468   1.638   4.814   0.457
 2440SOL    HW1 7469   1.672   4.873   0.390
 2440SOL    HW2 7470   1.643   4.864   0.538
 2441SOL     OW 7471   0.090   4.459   1.652
 2441SOL    HW1 7472   0.172   4.482   1.696
 2441SOL    HW2 7473   0.079   4.527   1.585
 2442SOL     OW 7474   0.620   5.115   0.734
 2442SOL    HW1 7475   0.576   5.031   0.744
 2442SOL    HW2 7476   0.601   5.141   0.643
 2443SOL     OW 7477   1.286   4.962   1.428
 2443SOL    HW1 7478   1.312   4.896   1.364
 2443SOL    HW2 7479   1.352   4.957   1.497
 2444SOL     OW 7480   0.821   3.726   0.514
 2444SOL    HW1 7481   0.861   3.810   0.491
 2444SOL    HW2 7482   0.728   3.746   0.524
 2445SOL     OW 7483   0.200   4.701   1.178
 2445SOL    HW1 7484   0.289   4.668   1.192
 2445SOL    HW2 7485   0.144   4.635   1.219
 2446SOL     OW 7486   1.466   4.760   0.227
 2446SOL    HW1 7487   1.410   4.688   0.255
 2446SOL    HW2 7488   1.541   4.757   0.286
 2447SOL     OW 7489   1.186   5.530   1.618
 2447SOL    HW1 7490   1.201   5.583   1.539
 2447SOL    HW2 7491   1.202   5.440   1.589
 2448SOL     OW 7492   0.336   3.967   1.834
 2448SOL    HW1 7493   0.374   4.055   1.835
 2448SOL    HW2 7494   0.242   3.981   1.847
 2449SOL     OW 7495   1.466   5.144   0.950
 2449SOL    HW1 7496   1.398   5.159   1.015
 2449SOL    HW2 7497   1.454   5.052   0.924
 2450SOL     OW 7498   1.661   5.463   0.578
 2450SOL    HW1 7499   1.638   5.434   0.489
 2450SOL    HW2 7500   1.636   5.390   0.634
 2451SOL     OW 7501   0.598   4.444   0.269
 2451SOL    HW1 7502   0.609   4.526   0.221
 2451SOL    HW2 7503   0.533   4.464   0.337
 2452SOL     OW 7504   1.279   4.082   0.934
 2452SOL    HW1 7505   1.189   4.049   0.943
 2452SOL    HW2 7506   1.330   4.027   0.993
 2453SOL     OW 7507   1.583   5.394   0.311
 2453SOL    HW1 7508   1.676   5.417   0.305
 2453SOL    HW2 7509   1.557   5.376   0.220
 2454SOL     OW 7510   0.794   4.341   1.450
 2454SOL    HW1 7511   0.767   4.318   1.539
 2454SOL    HW2 7512   0.755   4.273   1.395
 2455SOL     OW 7513   1.395   4.197   1.681
 2455SOL    HW1 7514   1.400   4.248   1.761
 2455SOL    HW2 7515   1.452   4.122   1.696
 2456SOL     OW 7516   0.957   4.614   1.584
 2456SOL    HW1 7517   1.012   4.543   1.550
 2456SOL    HW2 7518   0.907   4.645   1.509
 2457SOL     OW 7519   0.991   4.135   1.237
 2457SOL    HW1 7520   0.904   4.156   1.270
 2457SOL    HW2 7521   0.975   4.090   1.154
 2458SOL     OW 7522   1.055   4.417   0.428
 2458SOL    HW1 7523   1.073   4.415   0.522
 2458SOL    HW2 7524   0.972   4.370   0.417
 2459SOL     OW 7525   0.075   4.539   0.799
 2459SOL    HW1 7526   0.160   4.535   0.843
 2459SOL    HW2 7527   0.083   4.611   0.737
 2460SOL     OW 7528   0.123   5.583   1.574
 2460SOL    HW1 7529   0.125   5.559   1.667
 2460SOL    HW2 7530   0.034   5.562   1.547
 2461SOL     OW 7531   0.888   4.074   0.203
 2461SOL    HW1 7532   0.942   4.126   0.143
 2461SOL    HW2 7533   0.884   3.987   0.163
 2462SOL     OW 7534   1.374   4.866   0.541
 2462SOL    HW1 7535   1.452   4.848   0.489
 2462SOL    HW2 7536   1.325   4.930   0.489
 2463SOL     OW 7537   0.550   3.904   0.893
 2463SOL    HW1 7538   0.552   3.934   0.983
 2463SOL    HW2 7539   0.549   3.984   0.840
 2464SOL     OW 7540   1.010   5.175   0.476
 2464SOL    HW1 7541   0.971   5.244   0.422
 2464SOL    HW2 7542   0.979   5.194   0.565
 2465SOL     OW 7543   0.350   5.532   0.868
 2465SOL    HW1 7544   0.398   5.449   0.873
 2465SOL    HW2 7545   0.415   5.599   0.888
 2466SOL     OW 7546   1.803   4.778   0.871
 2466SOL    HW1 7547   1.750   4.760   0.794
 2466SOL    HW2 7548   1.740   4.783   0.943
 2467SOL     OW 7549   1.232   5.268   1.504
 2467SOL    HW1 7550   1.230   5.192   1.562
 2467SOL    HW2 7551   1.160   5.252   1.442
 2468SOL     OW 7552   0.305   4.672   0.262
 2468SOL    HW1 7553   0.356   4.717   0.195
 2468SOL    HW2 7554   0.308   4.580   0.235
 2469SOL     OW 7555   1.478   4.467   0.726
 2469SOL    HW1 7556   1.474   4.426   0.813
 2469SOL    HW2 7557   1.558   4.519   0.727
 2470SOL     OW 7558   0.468   4.986   1.740
 2470SOL    HW1 7559   0.443   4.994   1.648
 2470SOL    HW2 7560   0.384   4.987   1.788
 2471SOL     OW 7561   1.118   5.501   0.225
 2471SOL    HW1 7562   1.053   5.456   0.278
 2471SOL    HW2 7563   1.154   5.433   0.168
 2472SOL     OW 7564   0.198   4.001   1.501
 2472SOL    HW1 7565   0.119   4.053   1.482
 2472SOL    HW2 7566   0.165   3.921   1.540
 2473SOL     OW 7567   1.616   5.095   0.049
 2473SOL    HW1 7568   1.601   5.190   0.043
 2473SOL    HW2 7569   1.533   5.057   0.021
 2474SOL     OW 7570   0.474   5.460   0.337
 2474SOL    HW1 7571   0.521   5.520   0.395
 2474SOL    HW2 7572   0.538   5.437   0.269
 2475SOL     OW 7573   1.405   3.832   0.433
 2475SOL    HW1 7574   1.400   3.810   0.340
 2475SOL    HW2 7575   1.498   3.841   0.451
 2476SOL     OW 7576   0.248   5.509   1.235
 2476SOL    HW1 7577   0.300   5.440   1.276
 2476SOL    HW2 7578   0.250   5.489   1.142
 2477SOL     OW 7579   0.940   5.421   0.900
 2477SOL    HW1 7580   1.020   5.372   0.918
 2477SOL    HW2 7581   0.896   5.371   0.832
 2478SOL     OW 7582   0.395   4.418   0.475
 2478SOL    HW1 7583   0.419   4.326   0.485
 2478SOL    HW2 7584   0.302   4.422   0.498
 2479SOL     OW 7585   1.531   3.947   1.745
 2479SOL    HW1 7586   1.546   3.931   1.838
 2479SOL    HW2 7587   1.460   3.887   1.721
 2480SOL     OW 7588   0.619   3.806   0.103
 2480SOL    HW1 7589   0.714   3.813   0.106
 2480SOL    HW2 7590   0.591   3.872   0.040
 2481SOL     OW 7591   0.768   4.004   1.759
 2481SOL    HW1 7592   0.846   3.948   1.759
 2481SOL    HW2 7593   0.714   3.969   1.831
 2482SOL     OW 7594   0.878   5.249   1.194
 2482SOL    HW1 7595   0.861   5.212   1.107
 2482SOL    HW2 7596   0.948   5.195   1.230
 2483SOL     OW 7597   1.342   4.314   1.433
 2483SOL    HW1 7598   1.374   4.284   1.518
 2483SOL    HW2 7599   1.376   4.403   1.425
 2484SOL     OW 7600   0.818   5.118   0.943
 2484SOL    HW1 7601   0.902   5.106   0.899
 2484SOL    HW2 7602   0.754   5.123   0.872
 2485SOL     OW 7603   0.928   4.232   0.902
 2485SOL    HW1 7604   0.904   4.225   0.810
 2485SOL    HW2 7605   0.958   4.145   0.927
 2486SOL     OW 7606   0.556   3.793   0.508
 2486SOL    HW1 7607   0.477   3.792   0.562
 2486SOL    HW2 7608   0.546   3.869   0.451
 2487SOL     OW 7609   1.394   4.936   0.026
 2487SOL    HW1 7610   1.421   4.870   0.090
 2487SOL    HW2 7611   1.316   4.976   0.065
 2488SOL     OW 7612   0.941   3.972   0.458
 2488SOL    HW1 7613   0.916   4.013   0.375
 2488SOL    HW2 7614   1.035   3.986   0.465
 2489SOL     OW 7615   1.081   4.406   1.457
 2489SOL    HW1 7616   1.013   4.339   1.464
 2489SOL    HW2 7617   1.163   4.357   1.453
 2490SOL     OW 7618   1.220   5.298   0.797
 2490SOL    HW1 7619   1.236   5.361   0.727
 2490SOL    HW2 7620   1.293   5.311   0.858
 2491SOL     OW 7621   0.476   4.880   0.735
 2491SOL    HW1 7622   0.403   4.867   0.796
 2491SOL    HW2 7623   0.436   4.877   0.648
 2492SOL     OW 7624   1.266   5.521   0.609
 2492SOL    HW1 7625   1.315   5.583   0.556
 2492SOL    HW2 7626   1.197   5.573   0.649
 2493SOL     OW 7627   1.036   4.267   0.055
 2493SOL    HW1 7628   0.956   4.303   0.016
 2493SOL    HW2 7629   1.055   4.324   0.129
 2494SOL     OW 7630   0.083   4.271   1.405
 2494SOL    HW1 7631   0.171   4.279   1.368
 2494SOL    HW2 7632   0.069   4.351   1.455
 2495SOL     OW 7633   0.559   3.950   1.167
 2495SOL    HW1 7634   0.600   3.874   1.208
 2495SOL    HW2 7635   0.468   3.947   1.197
 2496SOL     OW 7636   0.868   4.183   0.637
 2496SOL    HW1 7637   0.821   4.237   0.573
 2496SOL    HW2 7638   0.889   4.103   0.590
 2497SOL     OW 7639   1.017   3.777   0.748
 2497SOL    HW1 7640   0.957   3.769   0.673
 2497SOL    HW2 7641   0.995   3.703   0.804
 2498SOL     OW 7642   1.438   4.884   0.859
 2498SOL    HW1 7643   1.368   4.819   0.851
 2498SOL    HW2 7644   1.469   4.897   0.769
 2499SOL     OW 7645   1.465   4.330   0.974
 2499SOL    HW1 7646   1.412   4.250   0.977
 2499SOL    HW2 7647   1.523   4.323   1.049
 2500SOL     OW 7648   1.866   4.541   0.396
 2500SOL    HW1 7649   1.921   4.486   0.452
 2500SOL    HW2 7650   1.828   4.481   0.332
 2501SOL     OW 7651   0.487   5.139   0.158
 2501SOL    HW1 7652   0.415   5.109   0.214
 2501SOL    HW2 7653   0.478   5.087   0.078
 2502SOL     OW 7654   1.669   4.982   0.668
 2502SOL    HW1 7655   1.765   4.987   0.664
 2502SOL    HW2 7656   1.640   5.073   0.670
 2503SOL     OW 7657   1.409   4.299   0.095
 2503SOL    HW1 7658   1.348   4.289   0.167
 2503SOL    HW2 7659   1.454   4.215   0.089
 2504SOL     OW 7660   0.511   3.976   0.308
 2504SOL    HW1 7661   0.561   3.927   0.242
 2504SOL    HW2 7662   0.500   4.063   0.269
 2505SOL     OW 7663   1.763   4.959   1.573
 2505SOL    HW1 7664   1.850   4.929   1.547
 2505SOL    HW2 7665   1.776   5.049   1.603
 2506SOL     OW 7666   1.056   5.081   1.336
 2506SOL    HW1 7667   0.980   5.047   1.383
 2506SOL    HW2 7668   1.130   5.035   1.375
 2507SOL     OW 7669   1.609   5.348   1.652
 2507SOL    HW1 7670   1.602   5.383   1.563
 2507SOL    HW2 7671   1.690   5.298   1.651
 2508SOL     OW 7672   1.130   4.934   1.104
 2508SOL    HW1 7673   1.064   4.969   1.164
 2508SOL    HW2 7674   1.102   4.966   1.018
 2509SOL     OW 7675   1.625   4.818   1.077
 2509SOL    HW1 7676   1.618   4.881   1.148
 2509SOL    HW2 7677   1.549   4.836   1.022
 2510SOL     OW 7678   0.917   3.820   1.395
 2510SOL    HW1 7679   0.938   3.801   1.304
 2510SOL    HW2 7680   0.998   3.859   1.430
 2511SOL     OW 7681   0.988   4.846   1.721
 2511SOL    HW1 7682   0.897   4.867   1.742
 2511SOL    HW2 7683   0.983   4.770   1.664
 2512SOL     OW 7684   0.714   4.789   0.371
 2512SOL    HW1 7685   0.690   4.775   0.463
 2512SOL    HW2 7686   0.781   4.724   0.353
 2513SOL     OW 7687   0.431   4.545   1.238
 2513SOL    HW1 7688   0.496   4.553   1.307
 2513SOL    HW2 7689   0.388   4.461   1.255
 2514SOL     OW 7690   1.265   4.101   1.276
 2514SOL    HW1 7691   1.298   4.179   1.321
 2514SOL    HW2 7692   1.174   4.124   1.254
 2515SOL     OW 7693   0.067   5.314   1.337
 2515SOL    HW1 7694   0.090   5.397   1.296
 2515SOL    HW2 7695   0.151   5.278   1.368
 2516SOL     OW 7696   0.395   4.857   0.467
 2516SOL    HW1 7697   0.365   4.927   0.409
 2516SOL    HW2 7698   0.370   4.777   0.423
 2517SOL     OW 7699   0.558   4.254   0.857
 2517SOL    HW1 7700   0.567   4.314   0.783
 2517SOL    HW2 7701   0.623   4.284   0.921
 2518SOL     OW 7702   1.256   5.075   0.395
 2518SOL    HW1 7703   1.304   5.150   0.430
 2518SOL    HW2 7704   1.166   5.088   0.425
 2519SOL     OW 7705   1.281   5.183   1.147
 2519SOL    HW1 7706   1.337   5.185   1.225
 2519SOL    HW2 7707   1.227   5.105   1.158
 2520SOL     OW 7708   1.580   4.348   0.480
 2520SOL    HW1 7709   1.532   4.400   0.546
 2520SOL    HW2 7710   1.611   4.413   0.417
 2521SOL     OW 7711   0.344   5.250   1.315
 2521SOL    HW1 7712   0.331   5.206   1.231
 2521SOL    HW2 7713   0.439   5.262   1.321
 2522SOL     OW 7714   0.420   4.455   1.595
 2522SOL    HW1 7715   0.489   4.500   1.545
 2522SOL    HW2 7716   0.459   4.371   1.618
 2523SOL     OW 7717   1.615   4.503   1.693
 2523SOL    HW1 7718   1.528   4.542   1.696
 2523SOL    HW2 7719   1.657   4.544   1.617
 2524SOL     OW 7720   1.006   3.861   1.763
 2524SOL    HW1 7721   1.053   3.924   1.708
 2524SOL    HW2 7722   1.046   3.776   1.740
 2525SOL     OW 7723   0.499   3.764   1.747
 2525SOL    HW1 7724   0.454   3.710   1.682
 2525SOL    HW2 7725   0.440   3.837   1.764
 2526SOL     OW 7726   0.591   4.604   1.023
 2526SOL    HW1 7727   0.625   4.694   1.027
 2526SOL    HW2 7728   0.537   4.595   1.101
 2527SOL     OW 7729   1.354   4.582   1.028
 2527SOL    HW1 7730   1.271   4.571   0.981
 2527SOL    HW2 7731   1.397   4.498   1.021
 2528SOL     OW 7732   1.217   4.245   0.283
 2528SOL    HW1 7733   1.220   4.166   0.337
 2528SOL    HW2 7734   1.173   4.310   0.338
 2529SOL     OW 7735   0.298   3.918   1.251
 2529SOL    HW1 7736   0.263   3.953   1.333
 2529SOL    HW2 7737   0.277   3.824   1.254
 2530SOL     OW 7738   0.061   5.035   1.269
 2530SOL    HW1 7739   0.082   4.998   1.354
 2530SOL    HW2 7740   0.048   5.129   1.286
 2531SOL     OW 7741   0.724   4.358   1.055
 2531SOL    HW1 7742   0.801   4.340   1.000
 2531SOL    HW2 7743   0.698   4.447   1.032
 2532SOL     OW 7744   0.310   3.792   0.629
 2532SOL    HW1 7745   0.285   3.883   0.648
 2532SOL    HW2 7746   0.312   3.749   0.714
 2533SOL     OW 7747   1.626   4.103   0.366
 2533SOL    HW1 7748   1.646   4.035   0.430
 2533SOL    HW2 7749   1.600   4.179   0.417
 2534SOL     OW 7750   1.031   4.482   0.960
 2534SOL    HW1 7751   1.025   4.501   1.053
 2534SOL    HW2 7752   1.004   4.390   0.952
 2535SOL     OW 7753   1.000   5.277   1.709
 2535SOL    HW1 7754   0.979   5.333   1.634
 2535SOL    HW2 7755   0.967   5.191   1.685
 2536SOL     OW 7756   1.855   5.225   1.604
 2536SOL    HW1 7757   1.872   5.256   1.515
 2536SOL    HW2 7758   1.936   5.241   1.651
 2537SOL     OW 7759   0.353   4.634   1.799
 2537SOL    HW1 7760   0.429   4.659   1.852
 2537SOL    HW2 7761   0.389   4.573   1.734
 2538SOL     OW 7762   1.496   4.035   0.130
 2538SOL    HW1 7763   1.487   3.940   0.136
 2538SOL    HW2 7764   1.549   4.058   0.206
 2539SOL     OW 7765   1.293   4.536   0.025
 2539SOL    HW1 7766   1.341   4.456   0.045
 2539SOL    HW2 7767   1.338   4.573   5.949
 2540SOL     OW 7768   1.070   5.060   0.855
 2540SOL    HW1 7769   1.072   4.990   0.791
 2540SOL    HW2 7770   1.128   5.127   0.820
 2541SOL     OW 7771   0.323   4.524   0.934
 2541SOL    HW1 7772   0.415   4.551   0.930
 2541SOL    HW2 7773   0.322   4.453   0.998
 2542SOL     OW 7774   0.350   4.237   1.028
 2542SOL    HW1 7775   0.310   4.151   1.013
 2542SOL    HW2 7776   0.424   4.240   0.967
 2543SOL     OW 7777   1.134   4.106   1.670
 2543SOL    HW1 7778   1.092   4.167   1.731
 2543SOL    HW2 7779   1.225   4.135   1.666
 2544SOL     OW 7780   1.162   3.925   1.467
 2544SOL    HW1 7781   1.149   3.992   1.534
 2544SOL    HW2 7782   1.203   3.972   1.394
 2545SOL     OW 7783   0.000   5.029   0.192
 2545SOL    HW1 7784   5.906   5.040   0.203
 2545SOL    HW2 7785   0.018   4.941   0.225
 2546SOL     OW 7786   0.071   5.517   0.905
 2546SOL    HW1 7787   0.065   5.422   0.896
 2546SOL    HW2 7788   0.165   5.535   0.898
 2547SOL     OW 7789   0.496   5.296   0.906
 2547SOL    HW1 7790   0.563   5.359   0.931
 2547SOL    HW2 7791   0.540   5.235   0.847
 2548SOL     OW 7792   0.978   4.516   1.226
 2548SOL    HW1 7793   1.036   4.495   1.298
 2548SOL    HW2 7794   0.894   4.477   1.251
 2549SOL     OW 7795   6.000   4.313   1.129
 2549SOL    HW1 7796   0.037   4.257   1.061
 2549SOL    HW2 7797   0.031   4.275   1.211
 2550SOL     OW 7798   0.192   4.221   1.728
 2550SOL    HW1 7799   0.241   4.187   1.653
 2550SOL    HW2 7800   0.139   4.292   1.692
 2551SOL     OW 7801   1.375   4.655   1.661
 2551SOL    HW1 7802   1.368   4.751   1.669
 2551SOL    HW2 7803   1.383   4.640   1.567
 2552SOL     OW 7804   0.817   4.295   0.364
 2552SOL    HW1 7805   0.820   4.220   0.305
 2552SOL    HW2 7806   0.743   4.347   0.333
 2553SOL     OW 7807   1.642   4.328   1.186
 2553SOL    HW1 7808   1.632   4.267   1.259
 2553SOL    HW2 7809   1.729   4.308   1.150
 2554SOL     OW 7810   0.281   5.281   1.737
 2554SOL    HW1 7811   0.223   5.342   1.781
 2554SOL    HW2 7812   0.256   5.195   1.771
 2555SOL     OW 7813   0.706   4.172   1.256
 2555SOL    HW1 7814   0.651   4.099   1.228
 2555SOL    HW2 7815   0.699   4.236   1.186
 2556SOL     OW 7816   0.926   5.399   1.468
 2556SOL    HW1 7817   0.898   5.363   1.383
 2556SOL    HW2 7818   0.917   5.494   1.457
 2557SOL     OW 7819   0.463   4.217   0.195
 2557SOL    HW1 7820   0.525   4.288   0.215
 2557SOL    HW2 7821   0.380   4.262   0.181
 2558SOL     OW 7822   0.186   4.846   1.456
 2558SOL    HW1 7823   0.139   4.824   1.537
 2558SOL    HW2 7824   0.136   4.803   1.387
 2559SOL     OW 7825   1.323   4.774   1.222
 2559SOL    HW1 7826   1.347   4.710   1.155
 2559SOL    HW2 7827   1.254   4.827   1.181
 2560SOL     OW 7828   1.289   4.565   0.312
 2560SOL    HW1 7829   1.215   4.528   0.360
 2560SOL    HW2 7830   1.272   4.545   0.220
 2561SOL     OW 7831   1.772   5.465   1.151
 2561SOL    HW1 7832   1.833   5.493   1.083
 2561SOL    HW2 7833   1.750   5.375   1.127
 2562SOL     OW 7834   1.242   5.458   1.112
 2562SOL    HW1 7835   1.325   5.480   1.069
 2562SOL    HW2 7836   1.248   5.364   1.130
 2563SOL     OW 7837   0.071   4.995   1.002
 2563SOL    HW1 7838   0.069   4.995   1.098
 2563SOL    HW2 7839   0.000   4.936   0.977
 2564SOL     OW 7840   0.683   5.396   1.729
 2564SOL    HW1 7841   0.621   5.469   1.733
 2564SOL    HW2 7842   0.733   5.412   1.649
 2565SOL     OW 7843   0.908   3.808   0.106
 2565SOL    HW1 7844   0.973   3.826   0.038
 2565SOL    HW2 7845   0.955   3.758   0.172
 2566SOL     OW 7846   1.706   3.872   0.511
 2566SOL    HW1 7847   1.784   3.864   0.457
 2566SOL    HW2 7848   1.695   3.786   0.551
 2567SOL     OW 7849   1.392   5.297   0.492
 2567SOL    HW1 7850   1.451   5.328   0.424
 2567SOL    HW2 7851   1.344   5.375   0.519
 2568SOL     OW 7852   0.136   5.508   1.835
 2568SOL    HW1 7853   0.080   5.446   1.882
 2568SOL    HW2 7854   0.183   5.555   1.905
 2569SOL     OW 7855   1.277   4.651   0.674
 2569SOL    HW1 7856   1.351   4.591   0.681
 2569SOL    HW2 7857   1.309   4.723   0.620
 2570SOL     OW 7858   0.808   4.999   1.425
 2570SOL    HW1 7859   0.779   5.037   1.508
 2570SOL    HW2 7860   0.738   5.020   1.364
 2571SOL     OW 7861   0.669   5.337   0.161
 2571SOL    HW1 7862   0.687   5.330   0.068
 2571SOL    HW2 7863   0.611   5.263   0.180
 2572SOL     OW 7864   1.624   5.451   1.389
 2572SOL    HW1 7865   1.675   5.457   1.309
 2572SOL    HW2 7866   1.605   5.542   1.413
 2573SOL     OW 7867   1.840   3.896   0.965
 2573SOL    HW1 7868   1.869   3.809   0.939
 2573SOL    HW2 7869   1.753   3.905   0.924
 2574SOL     OW 7870   0.265   4.043   0.718
 2574SOL    HW1 7871   0.183   4.085   0.690
 2574SOL    HW2 7872   0.258   4.037   0.813
 2575SOL     OW 7873   1.223   5.322   0.039
 2575SOL    HW1 7874   1.203   5.232   0.066
 2575SOL    HW2 7875   1.162   5.339   5.967
 2576SOL     OW 7876   0.824   4.729   1.372
 2576SOL    HW1 7877   0.869   4.723   1.288
 2576SOL    HW2 7878   0.822   4.823   1.391
 2577SOL     OW 7879   0.910   4.618   0.298
 2577SOL    HW1 7880   0.959   4.636   0.217
 2577SOL    HW2 7881   0.958   4.548   0.340
 2578SOL     OW 7882   1.497   5.359   0.044
 2578SOL    HW1 7883   1.403   5.344   0.036
 2578SOL    HW2 7884   1.526   5.381   5.955
 2579SOL     OW 7885   0.384   5.031   1.490
 2579SOL    HW1 7886   0.360   5.108   1.438
 2579SOL    HW2 7887   0.315   4.967   1.471
 2580SOL     OW 7888   1.609   5.007   1.279
 2580SOL    HW1 7889   1.669   4.994   1.353
 2580SOL    HW2 7890   1.549   5.075   1.308
 2581SOL     OW 7891   1.054   4.831   0.706
 2581SOL    HW1 7892   0.984   4.779   0.746
 2581SOL    HW2 7893   1.120   4.767   0.679
 2582SOL     OW 7894   1.021   3.965   0.966
 2582SOL    HW1 7895   1.018   3.918   0.883
 2582SOL    HW2 7896   1.016   3.897   1.033
 2583SOL     OW 7897   0.609   5.216   0.478
 2583SOL    HW1 7898   0.651   5.162   0.411
 2583SOL    HW2 7899   0.535   5.257   0.433
 2584SOL     OW 7900   1.715   4.116   1.376
 2584SOL    HW1 7901   1.788   4.177   1.380
 2584SOL    HW2 7902   1.747   4.044   1.321
 2585SOL     OW 7903   0.266   5.055   0.291
 2585SOL    HW1 7904   0.176   5.051   0.257
 2585SOL    HW2 7905   0.256   5.097   0.377
 2586SOL     OW 7906   0.116   4.749   1.719
 2586SOL    HW1 7907   0.056   4.715   1.785
 2586SOL    HW2 7908   0.202   4.720   1.748
 2587SOL     OW 7909   0.675   3.923   1.501
 2587SOL    HW1 7910   0.758   3.902   1.459
 2587SOL    HW2 7911   0.699   3.957   1.587
 2588SOL     OW 7912   0.053   4.117   0.068
 2588SOL    HW1 7913   0.010   4.036   0.040
 2588SOL    HW2 7914   0.117   4.136   5.999
 2589SOL     OW 7915   1.429   4.585   1.398
 2589SOL    HW1 7916   1.379   4.646   1.344
 2589SOL    HW2 7917   1.518   4.587   1.361
 2590SOL     OW 7918   0.071   3.954   0.316
 2590SOL    HW1 7919   0.087   4.028   0.257
 2590SOL    HW2 7920   0.146   3.895   0.301
 2591SOL     OW 7921   1.172   5.067   0.129
 2591SOL    HW1 7922   1.083   5.033   0.132
 2591SOL    HW2 7923   1.203   5.062   0.220
 2592SOL     OW 7924   0.621   4.554   1.434
 2592SOL    HW1 7925   0.677   4.631   1.421
 2592SOL    HW2 7926   0.682   4.481   1.442
 2593SOL     OW 7927   1.486   5.507   0.984
 2593SOL    HW1 7928   1.508   5.566   0.912
 2593SOL    HW2 7929   1.570   5.481   1.020
 2594SOL     OW 7930   0.711   4.289   1.703
 2594SOL    HW1 7931   0.749   4.357   1.758
 2594SOL    HW2 7932   0.740   4.207   1.742
 2595SOL     OW 7933   1.484   4.931   1.616
 2595SOL    HW1 7934   1.452   4.942   1.706
 2595SOL    HW2 7935   1.579   4.944   1.622
 2596SOL     OW 7936   0.376   5.465   1.559
 2596SOL    HW1 7937   0.290   5.505   1.543
 2596SOL    HW2 7938   0.356   5.386   1.610
 2597SOL     OW 7939   1.672   4.604   1.262
 2597SOL    HW1 7940   1.665   4.518   1.220
 2597SOL    HW2 7941   1.660   4.667   1.190
 2598SOL     OW 7942   1.215   4.035   0.463
 2598SOL    HW1 7943   1.281   3.966   0.453
 2598SOL    HW2 7944   1.244   4.086   0.539
 2599SOL     OW 7945   0.587   4.462   0.673
 2599SOL    HW1 7946   0.628   4.547   0.657
 2599SOL    HW2 7947   0.524   4.452   0.602
 2600SOL     OW 7948   1.774   4.067   1.643
 2600SOL    HW1 7949   1.744   4.094   1.557
 2600SOL    HW2 7950   1.700   4.018   1.680
 2601SOL     OW 7951   1.766   4.662   1.519
 2601SOL    HW1 7952   1.741   4.754   1.531
 2601SOL    HW2 7953   1.742   4.643   1.428
 2602SOL     OW 7954   0.880   5.101   0.029
 2602SOL    HW1 7955   0.834   5.093   0.113
 2602SOL    HW2 7956   0.886   5.195   0.014
 2603SOL     OW 7957   0.663   5.508   0.941
 2603SOL    HW1 7958   0.640   5.599   0.921
 2603SOL    HW2 7959   0.759   5.506   0.937
 2604SOL     OW 7960   0.869   4.690   0.855
 2604SOL    HW1 7961   0.920   4.619   0.894
 2604SOL    HW2 7962   0.833   4.737   0.930
 2605SOL     OW 7963   1.076   4.691   0.088
 2605SOL    HW1 7964   1.048   4.740   0.011
 2605SOL    HW2 7965   1.156   4.646   0.060
 2606SOL     OW 7966   1.851   5.277   0.843
 2606SOL    HW1 7967   1.772   5.264   0.789
 2606SOL    HW2 7968   1.844   5.210   0.911
 2607SOL     OW 7969   0.221   5.028   1.851
 2607SOL    HW1 7970   0.152   4.979   1.808
 2607SOL    HW2 7971   0.194   5.030   1.943
 2608SOL     OW 7972   0.093   4.968   0.663
 2608SOL    HW1 7973   0.057   4.933   0.744
 2608SOL    HW2 7974   0.137   4.894   0.622
 2609SOL     OW 7975   0.686   5.131   1.631
 2609SOL    HW1 7976   0.605   5.086   1.657
 2609SOL    HW2 7977   0.678   5.219   1.669
 2610SOL     OW 7978   1.810   3.903   1.237
 2610SOL    HW1 7979   1.823   3.809   1.248
 2610SOL    HW2 7980   1.820   3.919   1.144
 2611SOL     OW 7981   0.437   4.155   0.526
 2611SOL    HW1 7982   0.454   4.082   0.465
 2611SOL    HW2 7983   0.384   4.116   0.596
 2612SOL     OW 7984   1.700   5.209   1.093
 2612SOL    HW1 7985   1.619   5.188   1.045
 2612SOL    HW2 7986   1.706   5.140   1.159
 2613SOL     OW 7987   0.336   4.290   1.299
 2613SOL    HW1 7988   0.389   4.231   1.354
 2613SOL    HW2 7989   0.348   4.257   1.210
 2614SOL     OW 7990   0.831   5.303   0.676
 2614SOL    HW1 7991   0.810   5.367   0.608
 2614SOL    HW2 7992   0.757   5.243   0.677
 2615SOL     OW 7993   1.433   3.949   1.118
 2615SOL    HW1 7994   1.456   3.868   1.164
 2615SOL    HW2 7995   1.382   3.999   1.182
 2616SOL     OW 7996   1.007   3.741   1.139
 2616SOL    HW1 7997   0.955   3.673   1.096
 2616SOL    HW2 7998   1.096   3.704   1.143
 2617SOL     OW 7999   0.779   5.056   0.306
 2617SOL    HW1 8000   0.743   4.968   0.317
 2617SOL    HW2 8001   0.866   5.052   0.345
 2618SOL     OW 8002   0.619   5.278   1.285
 2618SOL    HW1 8003   0.621   5.358   1.337
 2618SOL    HW2 8004   0.706   5.272   1.245
 2619SOL     OW 8005   1.357   3.777   0.161
 2619SOL    HW1 8006   1.385   3.712   0.097
 2619SOL    HW2 8007   1.268   3.751   0.184
 2620SOL     OW 8008   1.296   4.186   0.679
 2620SOL    HW1 8009   1.245   4.267   0.686
 2620SOL    HW2 8010   1.293   4.149   0.767
 2621SOL     OW 8011   1.582   3.922   0.878
 2621SOL    HW1 8012   1.526   3.945   0.952
 2621SOL    HW2 8013   1.582   4.000   0.822
 2622SOL     OW 8014   0.051   4.778   0.288
 2622SOL    HW1 8015   0.143   4.754   0.282
 2622SOL    HW2 8016   0.012   4.712   0.345
 2623SOL     OW 8017   0.888   5.381   0.334
 2623SOL    HW1 8018   0.812   5.358   0.281
 2623SOL    HW2 8019   0.855   5.446   0.396
 2624SOL     OW 8020   0.230   4.349   1.981
 2624SOL    HW1 8021   0.142   4.353   2.019
 2624SOL    HW2 8022   0.216   4.313   1.894
 2625SOL     OW 8023   0.108   3.971   2.743
 2625SOL    HW1 8024   0.197   3.954   2.773
 2625SOL    HW2 8025   0.072   3.885   2.724
 2626SOL     OW 8026   5.996   4.066   2.446
 2626SOL    HW1 8027   5.937   4.110   2.507
 2626SOL    HW2 8028   5.939   4.030   2.378
 2627SOL     OW 8029   0.338   5.363   3.178
 2627SOL    HW1 8030   0.341   5.345   3.084
 2627SOL    HW2 8031   0.425   5.338   3.210
 2628SOL     OW 8032   1.540   5.233   2.505
 2628SOL    HW1 8033   1.493   5.201   2.582
 2628SOL    HW2 8034   1.474   5.237   2.436
 2629SOL     OW 8035   0.682   4.887   2.746
 2629SOL    HW1 8036   0.626   4.909   2.821
 2629SOL    HW2 8037   0.733   4.967   2.731
 2630SOL     OW 8038   0.829   4.502   3.700
 2630SOL    HW1 8039   0.838   4.558   3.778
 2630SOL    HW2 8040   0.880   4.547   3.633
 2631SOL     OW 8041   0.676   4.728   2.487
 2631SOL    HW1 8042   0.738   4.712   2.558
 2631SOL    HW2 8043   0.614   4.791   2.523
 2632SOL     OW 8044   0.709   4.871   3.676
 2632SOL    HW1 8045   0.753   4.948   3.712
 2632SOL    HW2 8046   0.626   4.903   3.641
 2633SOL     OW 8047   0.263   5.218   2.721
 2633SOL    HW1 8048   0.268   5.147   2.785
 2633SOL    HW2 8049   0.354   5.245   2.707
 2634SOL     OW 8050   1.444   5.244   3.295
 2634SOL    HW1 8051   1.497   5.323   3.291
 2634SOL    HW2 8052   1.507   5.172   3.287
 2635SOL     OW 8053   0.446   4.079   3.378
 2635SOL    HW1 8054   0.515   4.014   3.393
 2635SOL    HW2 8055   0.365   4.033   3.399
 2636SOL     OW 8056   0.249   5.435   2.354
 2636SOL    HW1 8057   0.259   5.520   2.398
 2636SOL    HW2 8058   0.324   5.430   2.296
 2637SOL     OW 8059   0.233   5.165   2.401
 2637SOL    HW1 8060   0.225   5.260   2.408
 2637SOL    HW2 8061   0.151   5.131   2.436
 2638SOL     OW 8062   0.260   4.812   2.731
 2638SOL    HW1 8063   0.254   4.734   2.786
 2638SOL    HW2 8064   0.187   4.867   2.758
 2639SOL     OW 8065   0.628   5.523   3.358
 2639SOL    HW1 8066   0.533   5.520   3.361
 2639SOL    HW2 8067   0.649   5.617   3.359
 2640SOL     OW 8068   0.576   4.709   1.997
 2640SOL    HW1 8069   0.627   4.749   1.926
 2640SOL    HW2 8070   0.615   4.744   2.077
 2641SOL     OW 8071   0.111   4.381   2.347
 2641SOL    HW1 8072   0.101   4.294   2.384
 2641SOL    HW2 8073   0.084   4.441   2.417
 2642SOL     OW 8074   1.845   5.488   2.225
 2642SOL    HW1 8075   1.931   5.457   2.253
 2642SOL    HW2 8076   1.861   5.574   2.188
 2643SOL     OW 8077   0.012   5.305   1.971
 2643SOL    HW1 8078   0.018   5.212   1.990
 2643SOL    HW2 8079   5.990   5.345   2.056
 2644SOL     OW 8080   0.074   4.494   3.637
 2644SOL    HW1 8081   0.170   4.500   3.643
 2644SOL    HW2 8082   0.055   4.510   3.545
 2645SOL     OW 8083   0.623   5.105   2.552
 2645SOL    HW1 8084   0.575   5.024   2.568
 2645SOL    HW2 8085   0.595   5.133   2.465
 2646SOL     OW 8086   0.819   3.728   2.374
 2646SOL    HW1 8087   0.855   3.814   2.354
 2646SOL    HW2 8088   0.725   3.743   2.385
 2647SOL     OW 8089   0.007   4.740   3.253
 2647SOL    HW1 8090   0.064   4.794   3.198
 2647SOL    HW2 8091   0.060   4.666   3.278
 2648SOL     OW 8092   1.237   5.561   3.494
 2648SOL    HW1 8093   1.249   5.594   3.405
 2648SOL    HW2 8094   1.186   5.481   3.483
 2649SOL     OW 8095   0.332   3.978   3.706
 2649SOL    HW1 8096   0.364   4.069   3.704
 2649SOL    HW2 8097   0.237   3.986   3.711
 2650SOL     OW 8098   0.595   4.447   2.125
 2650SOL    HW1 8099   0.602   4.529   2.076
 2650SOL    HW2 8100   0.529   4.464   2.192
 2651SOL     OW 8101   1.574   5.452   2.165
 2651SOL    HW1 8102   1.668   5.441   2.176
 2651SOL    HW2 8103   1.550   5.391   2.096
 2652SOL     OW 8104   0.838   4.337   3.391
 2652SOL    HW1 8105   0.810   4.332   3.482
 2652SOL    HW2 8106   0.762   4.310   3.341
 2653SOL     OW 8107   0.988   4.610   3.508
 2653SOL    HW1 8108   1.058   4.544   3.506
 2653SOL    HW2 8109   0.951   4.609   3.420
 2654SOL     OW 8110   0.879   4.093   3.286
 2654SOL    HW1 8111   0.881   4.186   3.310
 2654SOL    HW2 8112   0.971   4.071   3.270
 2655SOL     OW 8113   1.044   4.421   2.285
 2655SOL    HW1 8114   1.040   4.438   2.379
 2655SOL    HW2 8115   0.964   4.373   2.266
 2656SOL     OW 8116   0.074   4.545   2.579
 2656SOL    HW1 8117   0.150   4.532   2.635
 2656SOL    HW2 8118   0.099   4.616   2.520
 2657SOL     OW 8119   0.116   5.631   3.484
 2657SOL    HW1 8120   0.101   5.571   3.556
 2657SOL    HW2 8121   0.060   5.598   3.413
 2658SOL     OW 8122   0.887   4.073   2.067
 2658SOL    HW1 8123   0.935   4.133   2.010
 2658SOL    HW2 8124   0.872   3.995   2.014
 2659SOL     OW 8125   0.652   3.937   2.698
 2659SOL    HW1 8126   0.557   3.934   2.696
 2659SOL    HW2 8127   0.675   4.025   2.668
 2660SOL     OW 8128   0.981   5.160   2.334
 2660SOL    HW1 8129   0.967   5.232   2.274
 2660SOL    HW2 8130   0.959   5.195   2.420
 2661SOL     OW 8131   0.342   5.531   2.698
 2661SOL    HW1 8132   0.386   5.446   2.695
 2661SOL    HW2 8133   0.413   5.595   2.704
 2662SOL     OW 8134   0.313   4.681   2.107
 2662SOL    HW1 8135   0.397   4.704   2.068
 2662SOL    HW2 8136   0.295   4.592   2.076
 2663SOL     OW 8137   0.466   4.989   3.604
 2663SOL    HW1 8138   0.452   4.976   3.511
 2663SOL    HW2 8139   0.378   4.991   3.642
 2664SOL     OW 8140   1.122   5.506   2.089
 2664SOL    HW1 8141   1.049   5.464   2.134
 2664SOL    HW2 8142   1.149   5.443   2.022
 2665SOL     OW 8143   0.194   4.002   3.419
 2665SOL    HW1 8144   0.101   4.011   3.398
 2665SOL    HW2 8145   0.203   3.912   3.449
 2666SOL     OW 8146   1.617   5.080   1.949
 2666SOL    HW1 8147   1.602   5.173   1.931
 2666SOL    HW2 8148   1.536   5.050   1.992
 2667SOL     OW 8149   0.473   5.458   2.185
 2667SOL    HW1 8150   0.515   5.522   2.243
 2667SOL    HW2 8151   0.542   5.430   2.125
 2668SOL     OW 8152   0.212   5.585   3.236
 2668SOL    HW1 8153   0.279   5.518   3.244
 2668SOL    HW2 8154   0.191   5.586   3.142
 2669SOL     OW 8155   0.905   5.425   2.724
 2669SOL    HW1 8156   0.993   5.395   2.745
 2669SOL    HW2 8157   0.870   5.358   2.665
 2670SOL     OW 8158   0.385   4.424   2.318
 2670SOL    HW1 8159   0.413   4.334   2.334
 2670SOL    HW2 8160   0.290   4.420   2.320
 2671SOL     OW 8161   0.649   3.843   1.961
 2671SOL    HW1 8162   0.702   3.766   1.983
 2671SOL    HW2 8163   0.592   3.814   1.890
 2672SOL     OW 8164   0.771   4.021   3.645
 2672SOL    HW1 8165   0.845   3.962   3.632
 2672SOL    HW2 8166   0.711   3.973   3.702
 2673SOL     OW 8167   0.831   5.330   3.259
 2673SOL    HW1 8168   0.790   5.383   3.190
 2673SOL    HW2 8169   0.891   5.272   3.213
 2674SOL     OW 8170   0.819   5.123   2.735
 2674SOL    HW1 8171   0.912   5.108   2.717
 2674SOL    HW2 8172   0.778   5.130   2.649
 2675SOL     OW 8173   0.934   4.225   2.719
 2675SOL    HW1 8174   0.903   4.216   2.629
 2675SOL    HW2 8175   0.972   4.140   2.740
 2676SOL     OW 8176   0.554   3.788   2.360
 2676SOL    HW1 8177   0.473   3.787   2.412
 2676SOL    HW2 8178   0.546   3.867   2.306
 2677SOL     OW 8179   0.283   3.760   2.047
 2677SOL    HW1 8180   0.332   3.827   2.001
 2677SOL    HW2 8181   0.350   3.706   2.089
 2678SOL     OW 8182   0.945   3.966   2.326
 2678SOL    HW1 8183   0.937   4.006   2.239
 2678SOL    HW2 8184   1.039   3.957   2.340
 2679SOL     OW 8185   1.115   4.373   3.343
 2679SOL    HW1 8186   1.032   4.337   3.375
 2679SOL    HW2 8187   1.180   4.305   3.360
 2680SOL     OW 8188   1.247   5.264   2.622
 2680SOL    HW1 8189   1.247   5.349   2.578
 2680SOL    HW2 8190   1.315   5.272   2.688
 2681SOL     OW 8191   0.463   4.894   2.567
 2681SOL    HW1 8192   0.393   4.867   2.626
 2681SOL    HW2 8193   0.425   4.886   2.479
 2682SOL     OW 8194   1.261   5.510   2.478
 2682SOL    HW1 8195   1.307   5.557   2.409
 2682SOL    HW2 8196   1.188   5.567   2.503
 2683SOL     OW 8197   5.981   4.401   3.386
 2683SOL    HW1 8198   0.008   4.320   3.344
 2683SOL    HW2 8199   0.054   4.461   3.371
 2684SOL     OW 8200   0.383   3.934   2.753
 2684SOL    HW1 8201   0.377   3.839   2.759
 2684SOL    HW2 8202   0.430   3.960   2.832
 2685SOL     OW 8203   0.863   4.191   2.468
 2685SOL    HW1 8204   0.819   4.239   2.399
 2685SOL    HW2 8205   0.885   4.106   2.429
 2686SOL     OW 8206   1.031   3.746   2.577
 2686SOL    HW1 8207   0.973   3.750   2.502
 2686SOL    HW2 8208   0.993   3.679   2.634
 2687SOL     OW 8209   0.491   5.143   2.016
 2687SOL    HW1 8210   0.417   5.112   2.068
 2687SOL    HW2 8211   0.475   5.109   1.928
 2688SOL     OW 8212   1.681   4.972   2.510
 2688SOL    HW1 8213   1.776   4.982   2.503
 2688SOL    HW2 8214   1.648   5.061   2.519
 2689SOL     OW 8215   1.412   4.310   1.935
 2689SOL    HW1 8216   1.354   4.288   2.008
 2689SOL    HW2 8217   1.500   4.310   1.974
 2690SOL     OW 8218   0.527   3.986   2.171
 2690SOL    HW1 8219   0.576   3.939   2.103
 2690SOL    HW2 8220   0.501   4.068   2.130
 2691SOL     OW 8221   1.066   5.136   3.314
 2691SOL    HW1 8222   0.984   5.086   3.305
 2691SOL    HW2 8223   1.132   5.082   3.272
 2692SOL     OW 8224   1.625   5.321   3.545
 2692SOL    HW1 8225   1.619   5.361   3.459
 2692SOL    HW2 8226   1.697   5.258   3.538
 2693SOL     OW 8227   0.912   3.812   3.292
 2693SOL    HW1 8228   0.903   3.808   3.196
 2693SOL    HW2 8229   0.977   3.880   3.307
 2694SOL     OW 8230   0.986   4.862   3.597
 2694SOL    HW1 8231   0.895   4.884   3.617
 2694SOL    HW2 8232   0.982   4.777   3.554
 2695SOL     OW 8233   0.709   4.795   2.223
 2695SOL    HW1 8234   0.685   4.776   2.314
 2695SOL    HW2 8235   0.785   4.739   2.206
 2696SOL     OW 8236   0.402   4.571   3.270
 2696SOL    HW1 8237   0.497   4.580   3.274
 2696SOL    HW2 8238   0.387   4.478   3.253
 2697SOL     OW 8239   0.032   5.326   3.270
 2697SOL    HW1 8240   0.071   5.403   3.228
 2697SOL    HW2 8241   0.103   5.289   3.322
 2698SOL     OW 8242   0.399   4.870   2.305
 2698SOL    HW1 8243   0.364   4.935   2.244
 2698SOL    HW2 8244   0.366   4.786   2.273
 2699SOL     OW 8245   0.590   4.199   2.639
 2699SOL    HW1 8246   0.578   4.229   2.549
 2699SOL    HW2 8247   0.638   4.270   2.682
 2700SOL     OW 8248   0.253   5.193   3.350
 2700SOL    HW1 8249   0.276   5.239   3.269
 2700SOL    HW2 8250   0.298   5.243   3.419
 2701SOL     OW 8251   0.451   4.442   3.515
 2701SOL    HW1 8252   0.493   4.489   3.442
 2701SOL    HW2 8253   0.510   4.368   3.532
 2702SOL     OW 8254   0.997   3.868   3.627
 2702SOL    HW1 8255   1.058   3.915   3.570
 2702SOL    HW2 8256   1.017   3.775   3.612
 2703SOL     OW 8257   0.513   3.798   3.627
 2703SOL    HW1 8258   0.468   3.728   3.579
 2703SOL    HW2 8259   0.445   3.864   3.642
 2704SOL     OW 8260   0.528   4.652   2.726
 2704SOL    HW1 8261   0.587   4.726   2.710
 2704SOL    HW2 8262   0.558   4.616   2.810
 2705SOL     OW 8263   1.219   4.268   2.132
 2705SOL    HW1 8264   1.243   4.199   2.194
 2705SOL    HW2 8265   1.163   4.327   2.182
 2706SOL     OW 8266   0.027   4.171   3.274
 2706SOL    HW1 8267   0.111   4.126   3.289
 2706SOL    HW2 8268   5.982   4.117   3.210
 2707SOL     OW 8269   0.036   5.050   3.245
 2707SOL    HW1 8270   0.121   5.048   3.290
 2707SOL    HW2 8271   0.021   5.142   3.225
 2708SOL     OW 8272   0.719   4.406   2.744
 2708SOL    HW1 8273   0.802   4.358   2.745
 2708SOL    HW2 8274   0.744   4.497   2.727
 2709SOL     OW 8275   0.311   3.782   2.481
 2709SOL    HW1 8276   0.285   3.874   2.483
 2709SOL    HW2 8277   0.300   3.752   2.571
 2710SOL     OW 8278   1.646   4.055   2.275
 2710SOL    HW1 8279   1.641   3.973   2.324
 2710SOL    HW2 8280   1.560   4.096   2.287
 2711SOL     OW 8281   1.012   4.477   2.748
 2711SOL    HW1 8282   1.103   4.475   2.779
 2711SOL    HW2 8283   0.989   4.386   2.733
 2712SOL     OW 8284   1.000   5.250   3.594
 2712SOL    HW1 8285   0.984   5.329   3.542
 2712SOL    HW2 8286   1.019   5.182   3.530
 2713SOL     OW 8287   0.357   4.641   3.671
 2713SOL    HW1 8288   0.433   4.667   3.722
 2713SOL    HW2 8289   0.388   4.571   3.614
 2714SOL     OW 8290   1.255   4.523   1.870
 2714SOL    HW1 8291   1.321   4.457   1.889
 2714SOL    HW2 8292   1.296   4.579   1.804
 2715SOL     OW 8293   1.074   5.068   2.694
 2715SOL    HW1 8294   1.080   4.984   2.648
 2715SOL    HW2 8295   1.144   5.121   2.656
 2716SOL     OW 8296   0.298   4.515   2.722
 2716SOL    HW1 8297   0.381   4.561   2.711
 2716SOL    HW2 8298   0.322   4.426   2.746
 2717SOL     OW 8299   0.351   4.242   2.746
 2717SOL    HW1 8300   0.325   4.150   2.752
 2717SOL    HW2 8301   0.438   4.240   2.707
 2718SOL     OW 8302   1.146   4.134   3.528
 2718SOL    HW1 8303   1.112   4.193   3.595
 2718SOL    HW2 8304   1.241   4.135   3.541
 2719SOL     OW 8305   1.125   3.977   3.314
 2719SOL    HW1 8306   1.142   4.032   3.390
 2719SOL    HW2 8307   1.208   3.930   3.299
 2720SOL     OW 8308   0.011   5.038   2.053
 2720SOL    HW1 8309   5.934   5.034   1.997
 2720SOL    HW2 8310   0.013   4.953   2.098
 2721SOL     OW 8311   0.064   5.542   2.701
 2721SOL    HW1 8312   0.033   5.453   2.720
 2721SOL    HW2 8313   0.159   5.534   2.704
 2722SOL     OW 8314   0.521   5.296   2.713
 2722SOL    HW1 8315   0.564   5.369   2.668
 2722SOL    HW2 8316   0.565   5.218   2.679
 2723SOL     OW 8317   0.935   4.555   3.258
 2723SOL    HW1 8318   1.007   4.493   3.269
 2723SOL    HW2 8319   0.866   4.504   3.216
 2724SOL     OW 8320   5.963   4.346   2.759
 2724SOL    HW1 8321   5.972   4.266   2.707
 2724SOL    HW2 8322   0.012   4.328   2.840
 2725SOL     OW 8323   0.184   4.230   3.594
 2725SOL    HW1 8324   0.226   4.189   3.519
 2725SOL    HW2 8325   0.130   4.300   3.556
 2726SOL     OW 8326   0.809   4.296   2.221
 2726SOL    HW1 8327   0.809   4.219   2.164
 2726SOL    HW2 8328   0.736   4.349   2.189
 2727SOL     OW 8329   0.282   5.285   3.611
 2727SOL    HW1 8330   0.226   5.347   3.657
 2727SOL    HW2 8331   0.255   5.199   3.643
 2728SOL     OW 8332   0.616   4.259   3.279
 2728SOL    HW1 8333   0.570   4.182   3.313
 2728SOL    HW2 8334   0.611   4.249   3.183
 2729SOL     OW 8335   0.982   5.462   3.428
 2729SOL    HW1 8336   0.932   5.403   3.371
 2729SOL    HW2 8337   0.947   5.549   3.408
 2730SOL     OW 8338   0.463   4.218   2.046
 2730SOL    HW1 8339   0.523   4.289   2.067
 2730SOL    HW2 8340   0.378   4.260   2.033
 2731SOL     OW 8341   0.191   4.876   3.399
 2731SOL    HW1 8342   0.177   4.864   3.493
 2731SOL    HW2 8343   0.104   4.865   3.361
 2732SOL     OW 8344   1.276   4.571   2.157
 2732SOL    HW1 8345   1.192   4.539   2.190
 2732SOL    HW2 8346   1.269   4.563   2.062
 2733SOL     OW 8347   1.696   5.553   2.735
 2733SOL    HW1 8348   1.790   5.545   2.752
 2733SOL    HW2 8349   1.671   5.636   2.775
 2734SOL     OW 8350   1.175   5.491   2.761
 2734SOL    HW1 8351   1.265   5.489   2.730
 2734SOL    HW2 8352   1.175   5.436   2.839
 2735SOL     OW 8353   0.050   4.983   2.748
 2735SOL    HW1 8354   0.018   5.032   2.824
 2735SOL    HW2 8355   5.973   4.935   2.717
 2736SOL     OW 8356   0.680   5.398   3.601
 2736SOL    HW1 8357   0.615   5.468   3.614
 2736SOL    HW2 8358   0.719   5.418   3.516
 2737SOL     OW 8359   0.135   5.494   3.710
 2737SOL    HW1 8360   0.077   5.437   3.759
 2737SOL    HW2 8361   0.179   5.547   3.776
 2738SOL     OW 8362   1.234   4.643   2.520
 2738SOL    HW1 8363   1.293   4.585   2.471
 2738SOL    HW2 8364   1.280   4.727   2.521
 2739SOL     OW 8365   0.815   5.035   3.301
 2739SOL    HW1 8366   0.787   5.068   3.386
 2739SOL    HW2 8367   0.733   5.022   3.253
 2740SOL     OW 8368   0.671   5.347   2.013
 2740SOL    HW1 8369   0.682   5.361   1.919
 2740SOL    HW2 8370   0.617   5.269   2.020
 2741SOL     OW 8371   1.622   5.451   3.300
 2741SOL    HW1 8372   1.713   5.460   3.270
 2741SOL    HW2 8373   1.590   5.541   3.306
 2742SOL     OW 8374   0.265   4.040   2.513
 2742SOL    HW1 8375   0.181   4.078   2.485
 2742SOL    HW2 8376   0.253   4.022   2.606
 2743SOL     OW 8377   1.213   5.336   1.888
 2743SOL    HW1 8378   1.201   5.250   1.929
 2743SOL    HW2 8379   1.149   5.338   1.818
 2744SOL     OW 8380   0.773   4.773   3.279
 2744SOL    HW1 8381   0.851   4.723   3.252
 2744SOL    HW2 8382   0.806   4.860   3.298
 2745SOL     OW 8383   0.917   4.637   2.163
 2745SOL    HW1 8384   0.970   4.664   2.088
 2745SOL    HW2 8385   0.961   4.560   2.198
 2746SOL     OW 8386   1.496   5.341   1.906
 2746SOL    HW1 8387   1.401   5.338   1.896
 2746SOL    HW2 8388   1.529   5.350   1.816
 2747SOL     OW 8389   0.430   4.988   3.332
 2747SOL    HW1 8390   0.401   5.080   3.329
 2747SOL    HW2 8391   0.349   4.938   3.342
 2748SOL     OW 8392   1.034   4.825   2.574
 2748SOL    HW1 8393   0.954   4.777   2.596
 2748SOL    HW2 8394   1.097   4.757   2.549
 2749SOL     OW 8395   1.027   3.970   2.731
 2749SOL    HW1 8396   1.030   3.907   2.659
 2749SOL    HW2 8397   0.989   3.921   2.804
 2750SOL     OW 8398   0.603   5.224   2.315
 2750SOL    HW1 8399   0.642   5.169   2.247
 2750SOL    HW2 8400   0.530   5.269   2.271
 2751SOL     OW 8401   1.703   4.150   3.284
 2751SOL    HW1 8402   1.751   4.232   3.277
 2751SOL    HW2 8403   1.744   4.092   3.219
 2752SOL     OW 8404   0.265   5.065   2.156
 2752SOL    HW1 8405   0.172   5.061   2.133
 2752SOL    HW2 8406   0.267   5.103   2.243
 2753SOL     OW 8407   0.121   4.774   3.638
 2753SOL    HW1 8408   0.056   4.707   3.658
 2753SOL    HW2 8409   0.205   4.733   3.656
 2754SOL     OW 8410   0.675   3.940   3.394
 2754SOL    HW1 8411   0.753   3.951   3.338
 2754SOL    HW2 8412   0.702   3.977   3.478
 2755SOL     OW 8413   0.066   4.050   1.899
 2755SOL    HW1 8414   5.971   4.053   1.885
 2755SOL    HW2 8415   0.101   4.119   1.842
 2756SOL     OW 8416   0.079   3.922   2.161
 2756SOL    HW1 8417   0.093   4.000   2.107
 2756SOL    HW2 8418   0.157   3.869   2.144
 2757SOL     OW 8419   1.166   5.089   1.993
 2757SOL    HW1 8420   1.075   5.058   2.000
 2757SOL    HW2 8421   1.212   5.047   2.065
 2758SOL     OW 8422   0.652   4.545   3.333
 2758SOL    HW1 8423   0.689   4.633   3.322
 2758SOL    HW2 8424   0.725   4.493   3.367
 2759SOL     OW 8425   1.440   5.473   2.731
 2759SOL    HW1 8426   1.473   5.530   2.662
 2759SOL    HW2 8427   1.515   5.457   2.788
 2760SOL     OW 8428   0.686   4.288   3.607
 2760SOL    HW1 8429   0.730   4.352   3.663
 2760SOL    HW2 8430   0.722   4.204   3.634
 2761SOL     OW 8431   0.367   5.474   3.438
 2761SOL    HW1 8432   0.290   5.530   3.431
 2761SOL    HW2 8433   0.345   5.410   3.506
 2762SOL     OW 8434   0.595   4.452   2.488
 2762SOL    HW1 8435   0.623   4.543   2.499
 2762SOL    HW2 8436   0.520   4.457   2.428
 2763SOL     OW 8437   0.859   5.094   1.900
 2763SOL    HW1 8438   0.824   5.103   1.989
 2763SOL    HW2 8439   0.881   5.184   1.874
 2764SOL     OW 8440   0.621   5.499   2.580
 2764SOL    HW1 8441   0.616   5.587   2.617
 2764SOL    HW2 8442   0.715   5.479   2.577
 2765SOL     OW 8443   0.839   4.669   2.699
 2765SOL    HW1 8444   0.910   4.608   2.723
 2765SOL    HW2 8445   0.842   4.736   2.768
 2766SOL     OW 8446   1.056   4.695   1.940
 2766SOL    HW1 8447   1.038   4.755   1.868
 2766SOL    HW2 8448   1.125   4.637   1.906
 2767SOL     OW 8449   0.216   5.029   3.711
 2767SOL    HW1 8450   0.154   4.962   3.683
 2767SOL    HW2 8451   0.199   5.039   3.805
 2768SOL     OW 8452   0.071   4.948   2.479
 2768SOL    HW1 8453   0.080   4.963   2.573
 2768SOL    HW2 8454   0.155   4.909   2.453
 2769SOL     OW 8455   0.684   5.133   3.511
 2769SOL    HW1 8456   0.606   5.089   3.543
 2769SOL    HW2 8457   0.681   5.220   3.551
 2770SOL     OW 8458   0.459   4.168   2.378
 2770SOL    HW1 8459   0.485   4.101   2.315
 2770SOL    HW2 8460   0.393   4.125   2.433
 2771SOL     OW 8461   0.300   4.299   3.299
 2771SOL    HW1 8462   0.366   4.246   3.344
 2771SOL    HW2 8463   0.291   4.258   3.213
 2772SOL     OW 8464   0.815   5.308   2.501
 2772SOL    HW1 8465   0.808   5.375   2.433
 2772SOL    HW2 8466   0.739   5.251   2.487
 2773SOL     OW 8467   0.778   5.059   2.166
 2773SOL    HW1 8468   0.746   4.969   2.179
 2773SOL    HW2 8469   0.849   5.069   2.229
 2774SOL     OW 8470   0.566   5.272   3.284
 2774SOL    HW1 8471   0.584   5.358   3.322
 2774SOL    HW2 8472   0.651   5.228   3.282
 2775SOL     OW 8473   1.291   4.180   2.580
 2775SOL    HW1 8474   1.236   4.258   2.572
 2775SOL    HW2 8475   1.316   4.177   2.672
 2776SOL     OW 8476   1.618   3.993   2.730
 2776SOL    HW1 8477   1.528   3.971   2.755
 2776SOL    HW2 8478   1.615   4.087   2.713
 2777SOL     OW 8479   0.053   4.783   2.144
 2777SOL    HW1 8480   0.145   4.760   2.131
 2777SOL    HW2 8481   0.021   4.719   2.207
 2778SOL     OW 8482   0.888   5.380   2.191
 2778SOL    HW1 8483   0.815   5.361   2.133
 2778SOL    HW2 8484   0.857   5.452   2.246
 2779SOL     OW 8485   0.229   4.342   3.847
 2779SOL    HW1 8486   0.139   4.363   3.872
 2779SOL    HW2 8487   0.222   4.313   3.756
 2780SOL     OW 8488   0.221   3.994   4.720
 2780SOL    HW1 8489   0.246   3.962   4.807
 2780SOL    HW2 8490   0.131   3.965   4.709
 2781SOL     OW 8491   0.013   4.114   4.341
 2781SOL    HW1 8492   5.937   4.122   4.398
 2781SOL    HW2 8493   5.985   4.055   4.271
 2782SOL     OW 8494   0.566   5.016   4.904
 2782SOL    HW1 8495   0.479   5.021   4.864
 2782SOL    HW2 8496   0.582   5.104   4.937
 2783SOL     OW 8497   1.580   5.239   4.444
 2783SOL    HW1 8498   1.525   5.220   4.520
 2783SOL    HW2 8499   1.518   5.248   4.372
 2784SOL     OW 8500   1.126   4.420   4.426
 2784SOL    HW1 8501   1.175   4.501   4.409
 2784SOL    HW2 8502   1.080   4.437   4.508
 2785SOL     OW 8503   0.750   4.864   4.768
 2785SOL    HW1 8504   0.683   4.901   4.825
 2785SOL    HW2 8505   0.788   4.939   4.722
 2786SOL     OW 8506   0.869   4.495   5.550
 2786SOL    HW1 8507   0.855   4.566   5.613
 2786SOL    HW2 8508   0.891   4.540   5.468
 2787SOL     OW 8509   0.688   4.722   4.368
 2787SOL    HW1 8510   0.753   4.713   4.437
 2787SOL    HW2 8511   0.621   4.780   4.406
 2788SOL     OW 8512   0.714   4.877   5.537
 2788SOL    HW1 8513   0.761   4.956   5.565
 2788SOL    HW2 8514   0.632   4.910   5.501
 2789SOL     OW 8515   0.332   5.142   4.789
 2789SOL    HW1 8516   0.258   5.109   4.739
 2789SOL    HW2 8517   0.382   5.195   4.727
 2790SOL     OW 8518   1.460   5.225   5.082
 2790SOL    HW1 8519   1.513   5.304   5.090
 2790SOL    HW2 8520   1.395   5.232   5.153
 2791SOL     OW 8521   0.450   4.121   5.214
 2791SOL    HW1 8522   0.526   4.063   5.217
 2791SOL    HW2 8523   0.375   4.063   5.227
 2792SOL     OW 8524   1.603   4.178   4.468
 2792SOL    HW1 8525   1.520   4.205   4.429
 2792SOL    HW2 8526   1.631   4.254   4.519
 2793SOL     OW 8527   0.247   5.439   4.218
 2793SOL    HW1 8528   0.265   5.519   4.267
 2793SOL    HW2 8529   0.321   5.430   4.158
 2794SOL     OW 8530   1.139   5.064   5.418
 2794SOL    HW1 8531   1.181   5.058   5.504
 2794SOL    HW2 8532   1.087   4.984   5.410
 2795SOL     OW 8533   0.238   5.166   4.263
 2795SOL    HW1 8534   0.217   5.259   4.270
 2795SOL    HW2 8535   0.167   5.122   4.311
 2796SOL     OW 8536   0.259   4.817   4.631
 2796SOL    HW1 8537   0.258   4.742   4.691
 2796SOL    HW2 8538   0.202   4.881   4.672
 2797SOL     OW 8539   0.615   5.509   5.160
 2797SOL    HW1 8540   0.529   5.494   5.199
 2797SOL    HW2 8541   0.634   5.601   5.179
 2798SOL     OW 8542   0.578   4.708   3.861
 2798SOL    HW1 8543   0.628   4.750   3.791
 2798SOL    HW2 8544   0.618   4.741   3.942
 2799SOL     OW 8545   1.594   3.851   5.191
 2799SOL    HW1 8546   1.611   3.933   5.143
 2799SOL    HW2 8547   1.577   3.879   5.281
 2800SOL     OW 8548   0.138   4.366   4.305
 2800SOL    HW1 8549   0.092   4.282   4.299
 2800SOL    HW2 8550   0.076   4.425   4.348
 2801SOL     OW 8551   1.849   5.483   4.053
 2801SOL    HW1 8552   1.916   5.453   4.115
 2801SOL    HW2 8553   1.870   5.575   4.038
 2802SOL     OW 8554   0.002   5.301   3.838
 2802SOL    HW1 8555   0.010   5.208   3.856
 2802SOL    HW2 8556   5.986   5.341   3.924
 2803SOL     OW 8557   1.691   4.627   4.346
 2803SOL    HW1 8558   1.779   4.610   4.380
 2803SOL    HW2 8559   1.700   4.708   4.296
 2804SOL     OW 8560   0.089   4.463   5.381
 2804SOL    HW1 8561   0.177   4.480   5.414
 2804SOL    HW2 8562   0.077   4.525   5.309
 2805SOL     OW 8563   0.619   5.115   4.458
 2805SOL    HW1 8564   0.575   5.030   4.468
 2805SOL    HW2 8565   0.600   5.142   4.368
 2806SOL     OW 8566   1.288   4.962   5.147
 2806SOL    HW1 8567   1.319   4.895   5.086
 2806SOL    HW2 8568   1.348   4.956   5.222
 2807SOL     OW 8569   0.817   3.728   4.241
 2807SOL    HW1 8570   0.852   3.814   4.218
 2807SOL    HW2 8571   0.723   3.742   4.248
 2808SOL     OW 8572   0.198   4.702   4.904
 2808SOL    HW1 8573   0.287   4.670   4.917
 2808SOL    HW2 8574   0.142   4.634   4.941
 2809SOL     OW 8575   1.186   5.527   5.346
 2809SOL    HW1 8576   1.200   5.582   5.269
 2809SOL    HW2 8577   1.201   5.438   5.314
 2810SOL     OW 8578   0.338   3.965   5.553
 2810SOL    HW1 8579   0.380   4.051   5.559
 2810SOL    HW2 8580   0.245   3.984   5.565
 2811SOL     OW 8581   1.466   5.142   4.678
 2811SOL    HW1 8582   1.397   5.159   4.742
 2811SOL    HW2 8583   1.452   5.051   4.652
 2812SOL     OW 8584   1.670   5.470   4.306
 2812SOL    HW1 8585   1.657   5.430   4.221
 2812SOL    HW2 8586   1.644   5.403   4.369
 2813SOL     OW 8587   0.596   4.447   3.992
 2813SOL    HW1 8588   0.598   4.529   3.942
 2813SOL    HW2 8589   0.529   4.463   4.059
 2814SOL     OW 8590   1.275   4.079   4.671
 2814SOL    HW1 8591   1.186   4.044   4.678
 2814SOL    HW2 8592   1.327   4.023   4.728
 2815SOL     OW 8593   0.793   4.341   5.175
 2815SOL    HW1 8594   0.767   4.317   5.263
 2815SOL    HW2 8595   0.755   4.273   5.119
 2816SOL     OW 8596   1.394   4.196   5.398
 2816SOL    HW1 8597   1.400   4.245   5.480
 2816SOL    HW2 8598   1.451   4.120   5.411
 2817SOL     OW 8599   0.952   4.610   5.308
 2817SOL    HW1 8600   1.007   4.540   5.272
 2817SOL    HW2 8601   0.905   4.644   5.232
 2818SOL     OW 8602   0.990   4.136   4.961
 2818SOL    HW1 8603   0.903   4.155   4.994
 2818SOL    HW2 8604   0.975   4.091   4.878
 2819SOL     OW 8605   1.040   4.428   4.156
 2819SOL    HW1 8606   1.059   4.420   4.250
 2819SOL    HW2 8607   0.959   4.379   4.144
 2820SOL     OW 8608   0.071   4.543   4.524
 2820SOL    HW1 8609   0.156   4.535   4.566
 2820SOL    HW2 8610   0.082   4.613   4.460
 2821SOL     OW 8611   0.123   5.585   5.298
 2821SOL    HW1 8612   0.124   5.560   5.391
 2821SOL    HW2 8613   0.035   5.562   5.268
 2822SOL     OW 8614   0.873   4.069   3.933
 2822SOL    HW1 8615   0.918   4.127   3.871
 2822SOL    HW2 8616   0.838   3.998   3.878
 2823SOL     OW 8617   1.703   4.293   5.552
 2823SOL    HW1 8618   1.668   4.368   5.504
 2823SOL    HW2 8619   1.735   4.234   5.484
 2824SOL     OW 8620   1.368   4.860   4.263
 2824SOL    HW1 8621   1.439   4.862   4.198
 2824SOL    HW2 8622   1.306   4.926   4.233
 2825SOL     OW 8623   0.550   3.903   4.617
 2825SOL    HW1 8624   0.552   3.934   4.707
 2825SOL    HW2 8625   0.548   3.983   4.564
 2826SOL     OW 8626   0.992   5.170   4.201
 2826SOL    HW1 8627   0.964   5.242   4.144
 2826SOL    HW2 8628   0.966   5.198   4.289
 2827SOL     OW 8629   0.350   5.533   4.595
 2827SOL    HW1 8630   0.399   5.450   4.598
 2827SOL    HW2 8631   0.417   5.600   4.611
 2828SOL     OW 8632   1.793   4.775   4.597
 2828SOL    HW1 8633   1.739   4.809   4.525
 2828SOL    HW2 8634   1.736   4.777   4.673
 2829SOL     OW 8635   1.226   5.263   5.238
 2829SOL    HW1 8636   1.215   5.188   5.296
 2829SOL    HW2 8637   1.163   5.248   5.167
 2830SOL     OW 8638   0.315   4.680   3.974
 2830SOL    HW1 8639   0.398   4.705   3.934
 2830SOL    HW2 8640   0.294   4.595   3.935
 2831SOL     OW 8641   1.472   4.471   4.451
 2831SOL    HW1 8642   1.474   4.430   4.538
 2831SOL    HW2 8643   1.556   4.516   4.444
 2832SOL     OW 8644   0.463   4.982   5.468
 2832SOL    HW1 8645   0.439   4.992   5.376
 2832SOL    HW2 8646   0.380   4.985   5.515
 2833SOL     OW 8647   1.124   5.502   3.954
 2833SOL    HW1 8648   1.049   5.464   3.998
 2833SOL    HW2 8649   1.147   5.439   3.886
 2834SOL     OW 8650   0.198   4.002   5.226
 2834SOL    HW1 8651   0.119   4.052   5.206
 2834SOL    HW2 8652   0.166   3.920   5.264
 2835SOL     OW 8653   1.617   5.083   3.826
 2835SOL    HW1 8654   1.615   5.177   3.810
 2835SOL    HW2 8655   1.526   5.055   3.818
 2836SOL     OW 8656   0.472   5.458   4.049
 2836SOL    HW1 8657   0.516   5.521   4.106
 2836SOL    HW2 8658   0.541   5.428   3.990
 2837SOL     OW 8659   0.248   5.509   4.958
 2837SOL    HW1 8660   0.301   5.438   4.996
 2837SOL    HW2 8661   0.248   5.492   4.864
 2838SOL     OW 8662   0.939   5.422   4.624
 2838SOL    HW1 8663   1.018   5.371   4.643
 2838SOL    HW2 8664   0.895   5.372   4.555
 2839SOL     OW 8665   0.397   4.419   4.198
 2839SOL    HW1 8666   0.419   4.327   4.209
 2839SOL    HW2 8667   0.304   4.424   4.221
 2840SOL     OW 8668   1.532   3.950   5.455
 2840SOL    HW1 8669   1.542   3.971   5.548
 2840SOL    HW2 8670   1.466   3.880   5.454
 2841SOL     OW 8671   0.665   3.845   3.840
 2841SOL    HW1 8672   0.707   3.761   3.858
 2841SOL    HW2 8673   0.605   3.827   3.768
 2842SOL     OW 8674   0.764   4.000   5.477
 2842SOL    HW1 8675   0.843   3.946   5.476
 2842SOL    HW2 8676   0.738   4.004   5.569
 2843SOL     OW 8677   0.877   5.247   4.918
 2843SOL    HW1 8678   0.861   5.212   4.831
 2843SOL    HW2 8679   0.948   5.193   4.953
 2844SOL     OW 8680   1.341   4.314   5.154
 2844SOL    HW1 8681   1.373   4.282   5.239
 2844SOL    HW2 8682   1.377   4.402   5.147
 2845SOL     OW 8683   0.818   5.117   4.666
 2845SOL    HW1 8684   0.902   5.107   4.622
 2845SOL    HW2 8685   0.754   5.124   4.595
 2846SOL     OW 8686   0.928   4.232   4.628
 2846SOL    HW1 8687   0.904   4.226   4.535
 2846SOL    HW2 8688   0.957   4.144   4.651
 2847SOL     OW 8689   0.551   3.787   4.226
 2847SOL    HW1 8690   0.473   3.789   4.280
 2847SOL    HW2 8691   0.544   3.865   4.170
 2848SOL     OW 8692   0.282   3.764   3.914
 2848SOL    HW1 8693   0.328   3.832   3.866
 2848SOL    HW2 8694   0.351   3.712   3.955
 2849SOL     OW 8695   0.933   3.972   4.184
 2849SOL    HW1 8696   0.907   4.010   4.100
 2849SOL    HW2 8697   1.029   3.971   4.182
 2850SOL     OW 8698   1.081   4.404   5.183
 2850SOL    HW1 8699   1.013   4.336   5.186
 2850SOL    HW2 8700   1.163   4.356   5.176
 2851SOL     OW 8701   1.227   5.294   4.515
 2851SOL    HW1 8702   1.236   5.363   4.449
 2851SOL    HW2 8703   1.293   5.315   4.581
 2852SOL     OW 8704   0.477   4.879   4.459
 2852SOL    HW1 8705   0.403   4.867   4.519
 2852SOL    HW2 8706   0.437   4.878   4.372
 2853SOL     OW 8707   1.265   5.519   4.353
 2853SOL    HW1 8708   1.314   5.565   4.285
 2853SOL    HW2 8709   1.195   5.580   4.378
 2854SOL     OW 8710   0.084   4.270   5.130
 2854SOL    HW1 8711   0.172   4.277   5.092
 2854SOL    HW2 8712   0.069   4.355   5.172
 2855SOL     OW 8713   0.559   3.950   4.891
 2855SOL    HW1 8714   0.600   3.875   4.933
 2855SOL    HW2 8715   0.468   3.947   4.921
 2856SOL     OW 8716   0.867   4.185   4.363
 2856SOL    HW1 8717   0.820   4.240   4.301
 2856SOL    HW2 8718   0.884   4.104   4.314
 2857SOL     OW 8719   1.014   3.777   4.468
 2857SOL    HW1 8720   0.952   3.767   4.396
 2857SOL    HW2 8721   0.997   3.703   4.526
 2858SOL     OW 8722   1.438   4.882   4.586
 2858SOL    HW1 8723   1.364   4.822   4.577
 2858SOL    HW2 8724   1.470   4.895   4.497
 2859SOL     OW 8725   1.465   4.329   4.700
 2859SOL    HW1 8726   1.410   4.250   4.705
 2859SOL    HW2 8727   1.524   4.322   4.775
 2860SOL     OW 8728   0.491   5.143   3.877
 2860SOL    HW1 8729   0.419   5.112   3.931
 2860SOL    HW2 8730   0.473   5.106   3.790
 2861SOL     OW 8731   1.671   4.974   4.409
 2861SOL    HW1 8732   1.767   4.978   4.399
 2861SOL    HW2 8733   1.645   5.065   4.422
 2862SOL     OW 8734   1.409   4.317   3.793
 2862SOL    HW1 8735   1.358   4.307   3.873
 2862SOL    HW2 8736   1.496   4.284   3.815
 2863SOL     OW 8737   0.525   3.985   4.039
 2863SOL    HW1 8738   0.577   3.941   3.972
 2863SOL    HW2 8739   0.500   4.069   4.000
 2864SOL     OW 8740   1.752   4.964   5.292
 2864SOL    HW1 8741   1.840   4.926   5.285
 2864SOL    HW2 8742   1.767   5.054   5.322
 2865SOL     OW 8743   1.057   5.079   5.058
 2865SOL    HW1 8744   0.981   5.048   5.108
 2865SOL    HW2 8745   1.132   5.036   5.099
 2866SOL     OW 8746   1.606   5.349   5.378
 2866SOL    HW1 8747   1.603   5.383   5.288
 2866SOL    HW2 8748   1.689   5.301   5.382
 2867SOL     OW 8749   1.131   4.931   4.828
 2867SOL    HW1 8750   1.068   4.969   4.890
 2867SOL    HW2 8751   1.102   4.965   4.743
 2868SOL     OW 8752   1.623   4.820   4.803
 2868SOL    HW1 8753   1.617   4.883   4.875
 2868SOL    HW2 8754   1.547   4.839   4.748
 2869SOL     OW 8755   0.917   3.819   5.119
 2869SOL    HW1 8756   0.940   3.801   5.028
 2869SOL    HW2 8757   0.996   3.858   5.156
 2870SOL     OW 8758   0.986   4.837   5.451
 2870SOL    HW1 8759   0.894   4.853   5.472
 2870SOL    HW2 8760   0.984   4.760   5.394
 2871SOL     OW 8761   0.710   4.788   4.092
 2871SOL    HW1 8762   0.694   4.770   4.184
 2871SOL    HW2 8763   0.786   4.734   4.070
 2872SOL     OW 8764   0.430   4.546   4.963
 2872SOL    HW1 8765   0.496   4.553   5.032
 2872SOL    HW2 8766   0.389   4.460   4.978
 2873SOL     OW 8767   1.264   4.099   5.001
 2873SOL    HW1 8768   1.297   4.177   5.045
 2873SOL    HW2 8769   1.173   4.121   4.979
 2874SOL     OW 8770   0.067   5.315   5.059
 2874SOL    HW1 8771   0.092   5.397   5.017
 2874SOL    HW2 8772   0.149   5.278   5.091
 2875SOL     OW 8773   0.394   4.859   4.193
 2875SOL    HW1 8774   0.367   4.930   4.135
 2875SOL    HW2 8775   0.367   4.779   4.147
 2876SOL     OW 8776   0.558   4.255   4.582
 2876SOL    HW1 8777   0.567   4.314   4.507
 2876SOL    HW2 8778   0.623   4.285   4.645
 2877SOL     OW 8779   1.244   5.079   4.156
 2877SOL    HW1 8780   1.290   5.163   4.163
 2877SOL    HW2 8781   1.152   5.101   4.168
 2878SOL     OW 8782   1.280   5.183   4.874
 2878SOL    HW1 8783   1.337   5.185   4.951
 2878SOL    HW2 8784   1.226   5.106   4.886
 2879SOL     OW 8785   0.345   5.250   5.038
 2879SOL    HW1 8786   0.331   5.206   4.955
 2879SOL    HW2 8787   0.439   5.262   5.044
 2880SOL     OW 8788   0.420   4.457   5.321
 2880SOL    HW1 8789   0.488   4.501   5.270
 2880SOL    HW2 8790   0.456   4.370   5.338
 2881SOL     OW 8791   1.603   4.503   5.407
 2881SOL    HW1 8792   1.517   4.544   5.400
 2881SOL    HW2 8793   1.655   4.545   5.339
 2882SOL     OW 8794   0.998   3.850   5.478
 2882SOL    HW1 8795   1.054   3.924   5.456
 2882SOL    HW2 8796   1.047   3.773   5.449
 2883SOL     OW 8797   0.500   3.760   5.466
 2883SOL    HW1 8798   0.453   3.708   5.402
 2883SOL    HW2 8799   0.443   3.834   5.485
 2884SOL     OW 8800   0.592   4.604   4.748
 2884SOL    HW1 8801   0.625   4.693   4.749
 2884SOL    HW2 8802   0.536   4.597   4.825
 2885SOL     OW 8803   1.354   4.580   4.752
 2885SOL    HW1 8804   1.272   4.571   4.704
 2885SOL    HW2 8805   1.396   4.495   4.744
 2886SOL     OW 8806   1.206   4.262   4.001
 2886SOL    HW1 8807   1.248   4.206   4.067
 2886SOL    HW2 8808   1.163   4.331   4.051
 2887SOL     OW 8809   0.298   3.918   4.976
 2887SOL    HW1 8810   0.263   3.953   5.058
 2887SOL    HW2 8811   0.277   3.825   4.978
 2888SOL     OW 8812   0.067   5.037   4.993
 2888SOL    HW1 8813   0.071   5.004   5.083
 2888SOL    HW2 8814   0.048   5.130   5.003
 2889SOL     OW 8815   0.725   4.358   4.780
 2889SOL    HW1 8816   0.801   4.341   4.724
 2889SOL    HW2 8817   0.698   4.447   4.757
 2890SOL     OW 8818   1.742   4.684   5.573
 2890SOL    HW1 8819   1.692   4.619   5.522
 2890SOL    HW2 8820   1.684   4.706   5.646
 2891SOL     OW 8821   0.310   3.793   4.355
 2891SOL    HW1 8822   0.286   3.884   4.373
 2891SOL    HW2 8823   0.312   3.750   4.441
 2892SOL     OW 8824   1.632   4.041   4.122
 2892SOL    HW1 8825   1.662   3.996   4.201
 2892SOL    HW2 8826   1.563   4.100   4.153
 2893SOL     OW 8827   1.030   4.482   4.685
 2893SOL    HW1 8828   1.025   4.501   4.779
 2893SOL    HW2 8829   1.004   4.390   4.678
 2894SOL     OW 8830   0.982   5.288   5.440
 2894SOL    HW1 8831   0.964   5.333   5.358
 2894SOL    HW2 8832   1.028   5.209   5.415
 2895SOL     OW 8833   1.854   5.227   5.329
 2895SOL    HW1 8834   1.872   5.255   5.240
 2895SOL    HW2 8835   1.934   5.245   5.377
 2896SOL     OW 8836   0.352   4.628   5.528
 2896SOL    HW1 8837   0.432   4.662   5.568
 2896SOL    HW2 8838   0.383   4.570   5.459
 2897SOL     OW 8839   1.072   5.062   4.580
 2897SOL    HW1 8840   1.072   4.991   4.516
 2897SOL    HW2 8841   1.130   5.129   4.542
 2898SOL     OW 8842   0.322   4.525   4.659
 2898SOL    HW1 8843   0.414   4.551   4.653
 2898SOL    HW2 8844   0.322   4.452   4.721
 2899SOL     OW 8845   0.350   4.237   4.752
 2899SOL    HW1 8846   0.310   4.152   4.737
 2899SOL    HW2 8847   0.424   4.241   4.691
 2900SOL     OW 8848   1.133   4.097   5.408
 2900SOL    HW1 8849   1.086   4.153   5.469
 2900SOL    HW2 8850   1.220   4.136   5.402
 2901SOL     OW 8851   1.163   3.922   5.194
 2901SOL    HW1 8852   1.151   3.985   5.266
 2901SOL    HW2 8853   1.203   3.973   5.124
 2902SOL     OW 8854   0.016   5.037   3.921
 2902SOL    HW1 8855   5.939   5.034   3.865
 2902SOL    HW2 8856   0.017   4.952   3.965
 2903SOL     OW 8857   0.074   5.515   4.638
 2903SOL    HW1 8858   0.067   5.422   4.616
 2903SOL    HW2 8859   0.167   5.535   4.626
 2904SOL     OW 8860   0.496   5.296   4.631
 2904SOL    HW1 8861   0.564   5.360   4.655
 2904SOL    HW2 8862   0.540   5.236   4.571
 2905SOL     OW 8863   0.978   4.515   4.951
 2905SOL    HW1 8864   1.037   4.494   5.024
 2905SOL    HW2 8865   0.894   4.475   4.975
 2906SOL     OW 8866   5.999   4.312   4.853
 2906SOL    HW1 8867   0.037   4.260   4.783
 2906SOL    HW2 8868   0.032   4.273   4.934
 2907SOL     OW 8869   0.196   4.224   5.453
 2907SOL    HW1 8870   0.239   4.185   5.377
 2907SOL    HW2 8871   0.140   4.292   5.417
 2908SOL     OW 8872   1.377   4.662   5.383
 2908SOL    HW1 8873   1.399   4.755   5.379
 2908SOL    HW2 8874   1.373   4.635   5.291
 2909SOL     OW 8875   0.809   4.294   4.094
 2909SOL    HW1 8876   0.807   4.216   4.038
 2909SOL    HW2 8877   0.738   4.349   4.059
 2910SOL     OW 8878   1.641   4.325   4.910
 2910SOL    HW1 8879   1.632   4.266   4.985
 2910SOL    HW2 8880   1.729   4.306   4.876
 2911SOL     OW 8881   0.283   5.281   5.466
 2911SOL    HW1 8882   0.224   5.344   5.506
 2911SOL    HW2 8883   0.253   5.195   5.497
 2912SOL     OW 8884   0.706   4.172   4.980
 2912SOL    HW1 8885   0.651   4.099   4.952
 2912SOL    HW2 8886   0.699   4.236   4.909
 2913SOL     OW 8887   0.925   5.400   5.190
 2913SOL    HW1 8888   0.900   5.362   5.106
 2913SOL    HW2 8889   0.916   5.494   5.178
 2914SOL     OW 8890   0.466   4.217   3.911
 2914SOL    HW1 8891   0.523   4.291   3.931
 2914SOL    HW2 8892   0.380   4.256   3.898
 2915SOL     OW 8893   0.195   4.836   5.182
 2915SOL    HW1 8894   0.139   4.824   5.258
 2915SOL    HW2 8895   0.140   4.813   5.107
 2916SOL     OW 8896   1.324   4.771   4.946
 2916SOL    HW1 8897   1.347   4.707   4.878
 2916SOL    HW2 8898   1.255   4.824   4.906
 2917SOL     OW 8899   1.292   4.539   4.033
 2917SOL    HW1 8900   1.205   4.564   4.067
 2917SOL    HW2 8901   1.294   4.575   3.945
 2918SOL     OW 8902   1.773   5.465   4.876
 2918SOL    HW1 8903   1.834   5.494   4.808
 2918SOL    HW2 8904   1.751   5.375   4.852
 2919SOL     OW 8905   1.242   5.458   4.837
 2919SOL    HW1 8906   1.324   5.480   4.793
 2919SOL    HW2 8907   1.248   5.364   4.854
 2920SOL     OW 8908   0.071   4.995   4.726
 2920SOL    HW1 8909   0.070   4.995   4.822
 2920SOL    HW2 8910   6.000   4.936   4.701
 2921SOL     OW 8911   0.680   5.395   5.460
 2921SOL    HW1 8912   0.618   5.468   5.455
 2921SOL    HW2 8913   0.738   5.408   5.385
 2922SOL     OW 8914   0.136   5.507   5.558
 2922SOL    HW1 8915   0.077   5.446   5.603
 2922SOL    HW2 8916   0.183   5.551   5.629
 2923SOL     OW 8917   1.271   4.650   4.401
 2923SOL    HW1 8918   1.346   4.592   4.414
 2923SOL    HW2 8919   1.304   4.720   4.345
 2924SOL     OW 8920   0.809   5.000   5.152
 2924SOL    HW1 8921   0.781   5.039   5.236
 2924SOL    HW2 8922   0.739   5.023   5.091
 2925SOL     OW 8923   0.671   5.347   3.879
 2925SOL    HW1 8924   0.685   5.359   3.785
 2925SOL    HW2 8925   0.617   5.268   3.885
 2926SOL     OW 8926   1.623   5.451   5.115
 2926SOL    HW1 8927   1.674   5.457   5.034
 2926SOL    HW2 8928   1.603   5.541   5.138
 2927SOL     OW 8929   1.836   3.899   4.691
 2927SOL    HW1 8930   1.869   3.813   4.665
 2927SOL    HW2 8931   1.751   3.907   4.647
 2928SOL     OW 8932   0.264   4.044   4.443
 2928SOL    HW1 8933   0.183   4.085   4.414
 2928SOL    HW2 8934   0.256   4.038   4.538
 2929SOL     OW 8935   1.208   5.331   3.754
 2929SOL    HW1 8936   1.206   5.249   3.803
 2929SOL    HW2 8937   1.140   5.322   3.688
 2930SOL     OW 8938   0.824   4.730   5.095
 2930SOL    HW1 8939   0.868   4.724   5.011
 2930SOL    HW2 8940   0.821   4.824   5.115
 2931SOL     OW 8941   0.917   4.632   4.007
 2931SOL    HW1 8942   0.982   4.653   3.940
 2931SOL    HW2 8943   0.960   4.566   4.061
 2932SOL     OW 8944   1.484   5.350   3.778
 2932SOL    HW1 8945   1.392   5.339   3.755
 2932SOL    HW2 8946   1.530   5.346   3.694
 2933SOL     OW 8947   0.382   5.033   5.217
 2933SOL    HW1 8948   0.360   5.108   5.161
 2933SOL    HW2 8949   0.318   4.966   5.194
 2934SOL     OW 8950   1.610   5.007   5.006
 2934SOL    HW1 8951   1.670   4.995   5.079
 2934SOL    HW2 8952   1.549   5.075   5.035
 2935SOL     OW 8953   1.054   4.833   4.433
 2935SOL    HW1 8954   0.982   4.781   4.470
 2935SOL    HW2 8955   1.117   4.769   4.402
 2936SOL     OW 8956   1.019   3.963   4.690
 2936SOL    HW1 8957   1.015   3.917   4.607
 2936SOL    HW2 8958   1.013   3.894   4.756
 2937SOL     OW 8959   0.606   5.217   4.204
 2937SOL    HW1 8960   0.651   5.165   4.138
 2937SOL    HW2 8961   0.534   5.260   4.156
 2938SOL     OW 8962   1.721   4.115   5.105
 2938SOL    HW1 8963   1.793   4.179   5.104
 2938SOL    HW2 8964   1.752   4.044   5.049
 2939SOL     OW 8965   0.269   5.063   4.020
 2939SOL    HW1 8966   0.177   5.058   3.996
 2939SOL    HW2 8967   0.269   5.103   4.107
 2940SOL     OW 8968   0.117   4.755   5.448
 2940SOL    HW1 8969   0.053   4.714   5.506
 2940SOL    HW2 8970   0.201   4.720   5.476
 2941SOL     OW 8971   0.673   3.922   5.222
 2941SOL    HW1 8972   0.757   3.901   5.182
 2941SOL    HW2 8973   0.694   3.949   5.311
 2942SOL     OW 8974   0.065   4.050   3.763
 2942SOL    HW1 8975   5.971   4.050   3.743
 2942SOL    HW2 8976   0.100   4.124   3.714
 2943SOL     OW 8977   1.429   4.583   5.123
 2943SOL    HW1 8978   1.380   4.643   5.068
 2943SOL    HW2 8979   1.518   4.585   5.088
 2944SOL     OW 8980   0.083   3.930   4.029
 2944SOL    HW1 8981   0.090   4.000   3.964
 2944SOL    HW2 8982   0.156   3.872   4.010
 2945SOL     OW 8983   1.163   5.099   3.880
 2945SOL    HW1 8984   1.087   5.046   3.855
 2945SOL    HW2 8985   1.204   5.050   3.951
 2946SOL     OW 8986   0.621   4.555   5.160
 2946SOL    HW1 8987   0.676   4.631   5.144
 2946SOL    HW2 8988   0.683   4.482   5.166
 2947SOL     OW 8989   1.485   5.506   4.709
 2947SOL    HW1 8990   1.504   5.561   4.633
 2947SOL    HW2 8991   1.572   5.482   4.743
 2948SOL     OW 8992   0.715   4.288   5.430
 2948SOL    HW1 8993   0.761   4.349   5.489
 2948SOL    HW2 8994   0.740   4.201   5.460
 2949SOL     OW 8995   1.475   4.922   5.353
 2949SOL    HW1 8996   1.462   4.939   5.447
 2949SOL    HW2 8997   1.568   4.939   5.339
 2950SOL     OW 8998   0.376   5.465   5.285
 2950SOL    HW1 8999   0.290   5.504   5.267
 2950SOL    HW2 9000   0.356   5.386   5.336
 2951SOL     OW 9001   1.669   4.604   4.979
 2951SOL    HW1 9002   1.662   4.519   4.936
 2951SOL    HW2 9003   1.656   4.668   4.908
 2952SOL     OW 9004   0.587   4.462   4.397
 2952SOL    HW1 9005   0.629   4.546   4.380
 2952SOL    HW2 9006   0.525   4.451   4.325
 2953SOL     OW 9007   1.762   4.083   5.377
 2953SOL    HW1 9008   1.745   4.101   5.285
 2953SOL    HW2 9009   1.689   4.028   5.405
 2954SOL     OW 9010   1.749   4.660   5.237
 2954SOL    HW1 9011   1.739   4.754   5.250
 2954SOL    HW2 9012   1.732   4.647   5.143
 2955SOL     OW 9013   0.853   5.082   3.769
 2955SOL    HW1 9014   0.826   5.115   3.854
 2955SOL    HW2 9015   0.895   5.156   3.726
 2956SOL     OW 9016   0.664   5.508   4.668
 2956SOL    HW1 9017   0.640   5.598   4.646
 2956SOL    HW2 9018   0.759   5.506   4.659
 2957SOL     OW 9019   0.868   4.690   4.580
 2957SOL    HW1 9020   0.920   4.619   4.619
 2957SOL    HW2 9021   0.833   4.738   4.654
 2958SOL     OW 9022   1.078   4.669   3.789
 2958SOL    HW1 9023   1.045   4.747   3.746
 2958SOL    HW2 9024   1.148   4.637   3.732
 2959SOL     OW 9025   1.851   5.277   4.568
 2959SOL    HW1 9026   1.773   5.267   4.513
 2959SOL    HW2 9027   1.838   5.213   4.639
 2960SOL     OW 9028   0.215   5.025   5.578
 2960SOL    HW1 9029   0.158   4.973   5.520
 2960SOL    HW2 9030   0.164   5.035   5.658
 2961SOL     OW 9031   0.090   4.968   4.387
 2961SOL    HW1 9032   0.064   4.929   4.471
 2961SOL    HW2 9033   0.137   4.898   4.342
 2962SOL     OW 9034   0.683   5.129   5.360
 2962SOL    HW1 9035   0.599   5.089   5.380
 2962SOL    HW2 9036   0.677   5.218   5.394
 2963SOL     OW 9037   1.814   3.904   4.964
 2963SOL    HW1 9038   1.821   3.809   4.974
 2963SOL    HW2 9039   1.822   3.918   4.869
 2964SOL     OW 9040   0.438   4.157   4.252
 2964SOL    HW1 9041   0.460   4.085   4.193
 2964SOL    HW2 9042   0.384   4.116   4.321
 2965SOL     OW 9043   1.701   5.208   4.817
 2965SOL    HW1 9044   1.620   5.188   4.771
 2965SOL    HW2 9045   1.709   5.140   4.884
 2966SOL     OW 9046   0.337   4.290   5.024
 2966SOL    HW1 9047   0.389   4.230   5.077
 2966SOL    HW2 9048   0.349   4.258   4.934
 2967SOL     OW 9049   0.830   5.305   4.399
 2967SOL    HW1 9050   0.812   5.372   4.334
 2967SOL    HW2 9051   0.755   5.246   4.396
 2968SOL     OW 9052   1.436   3.946   4.848
 2968SOL    HW1 9053   1.456   3.864   4.893
 2968SOL    HW2 9054   1.385   3.996   4.911
 2969SOL     OW 9055   1.007   3.741   4.863
 2969SOL    HW1 9056   0.953   3.674   4.822
 2969SOL    HW2 9057   1.095   3.703   4.866
 2970SOL     OW 9058   0.772   5.060   4.044
 2970SOL    HW1 9059   0.742   4.969   4.049
 2970SOL    HW2 9060   0.854   5.061   4.093
 2971SOL     OW 9061   0.620   5.277   5.010
 2971SOL    HW1 9062   0.622   5.358   5.061
 2971SOL    HW2 9063   0.706   5.272   4.970
 2972SOL     OW 9064   1.296   4.194   4.426
 2972SOL    HW1 9065   1.235   4.268   4.428
 2972SOL    HW2 9066   1.285   4.152   4.512
 2973SOL     OW 9067   1.575   3.931   4.599
 2973SOL    HW1 9068   1.526   3.941   4.681
 2973SOL    HW2 9069   1.577   4.018   4.561
 2974SOL     OW 9070   0.056   4.785   4.014
 2974SOL    HW1 9071   0.148   4.761   4.000
 2974SOL    HW2 9072   0.020   4.712   4.065
 2975SOL     OW 9073   0.888   5.380   4.058
 2975SOL    HW1 9074   0.814   5.361   4.000
 2975SOL    HW2 9075   0.854   5.448   4.117
 2976SOL     OW 9076   0.215   4.342   5.713
 2976SOL    HW1 9077   0.121   4.357   5.726
 2976SOL    HW2 9078   0.221   4.312   5.622
 2977SOL     OW 9079   1.774   4.329   5.811
 2977SOL    HW1 9080   1.746   4.315   5.721
 2977SOL    HW2 9081   1.752   4.246   5.856
 2978SOL     OW 9082   0.262   5.444   0.074
 2978SOL    HW1 9083   0.273   5.528   0.120
 2978SOL    HW2 9084   0.339   5.438   0.017
 2979SOL     OW 9085   0.603   4.706   5.728
 2979SOL    HW1 9086   0.632   4.762   5.656
 2979SOL    HW2 9087   0.676   4.706   5.790
 2980SOL     OW 9088   1.823   5.488   5.915
 2980SOL    HW1 9089   1.854   5.432   5.986
 2980SOL    HW2 9090   1.886   5.559   5.911
 2981SOL     OW 9091   0.012   5.300   5.689
 2981SOL    HW1 9092   0.013   5.210   5.721
 2981SOL    HW2 9093   0.004   5.354   5.768
 2982SOL     OW 9094   1.715   4.597   0.160
 2982SOL    HW1 9095   1.781   4.639   0.215
 2982SOL    HW2 9096   1.680   4.667   0.106
 2983SOL     OW 9097   1.677   4.817   0.000
 2983SOL    HW1 9098   1.765   4.834   5.967
 2983SOL    HW2 9099   1.649   4.902   0.035
 2984SOL     OW 9100   1.544   4.728   5.770
 2984SOL    HW1 9101   1.490   4.650   5.785
 2984SOL    HW2 9102   1.578   4.751   5.857
 2985SOL     OW 9103   0.578   4.452   5.850
 2985SOL    HW1 9104   0.596   4.526   5.792
 2985SOL    HW2 9105   0.555   4.492   5.934
 2986SOL     OW 9106   0.869   4.077   5.749
 2986SOL    HW1 9107   0.924   4.139   5.700
 2986SOL    HW2 9108   0.926   4.001   5.764
 2987SOL     OW 9109   0.322   4.673   5.829
 2987SOL    HW1 9110   0.407   4.697   5.792
 2987SOL    HW2 9111   0.297   4.594   5.781
 2988SOL     OW 9112   1.116   5.501   5.817
 2988SOL    HW1 9113   1.033   5.464   5.847
 2988SOL    HW2 9114   1.140   5.447   5.742
 2989SOL     OW 9115   1.633   5.110   5.675
 2989SOL    HW1 9116   1.592   5.196   5.664
 2989SOL    HW2 9117   1.563   5.048   5.655
 2990SOL     OW 9118   0.487   5.484   5.913
 2990SOL    HW1 9119   0.539   5.527   5.980
 2990SOL    HW2 9120   0.551   5.439   5.858
 2991SOL     OW 9121   0.631   3.832   5.696
 2991SOL    HW1 9122   0.720   3.797   5.685
 2991SOL    HW2 9123   0.586   3.808   5.615
 2992SOL     OW 9124   1.426   4.930   5.625
 2992SOL    HW1 9125   1.463   4.857   5.675
 2992SOL    HW2 9126   1.341   4.946   5.665
 2993SOL     OW 9127   0.290   3.759   5.771
 2993SOL    HW1 9128   0.337   3.827   5.721
 2993SOL    HW2 9129   0.359   3.712   5.817
 2994SOL     OW 9130   1.025   4.264   5.607
 2994SOL    HW1 9131   0.982   4.349   5.592
 2994SOL    HW2 9132   1.090   4.282   5.675
 2995SOL     OW 9133   1.892   4.537   5.934
 2995SOL    HW1 9134   1.884   4.516   0.027
 2995SOL    HW2 9135   1.839   4.471   5.889
 2996SOL     OW 9136   0.488   5.140   5.745
 2996SOL    HW1 9137   0.416   5.112   5.801
 2996SOL    HW2 9138   0.464   5.110   5.658
 2997SOL     OW 9139   1.706   5.021   0.296
 2997SOL    HW1 9140   1.779   4.983   0.248
 2997SOL    HW2 9141   1.653   5.065   0.230
 2998SOL     OW 9142   1.402   4.302   5.651
 2998SOL    HW1 9143   1.340   4.275   5.719
 2998SOL    HW2 9144   1.485   4.263   5.679
 2999SOL     OW 9145   0.535   3.975   5.909
 2999SOL    HW1 9146   0.569   3.934   5.830
 2999SOL    HW2 9147   0.505   4.062   5.881
 3000SOL     OW 9148   0.387   4.838   0.039
 3000SOL    HW1 9149   0.339   4.918   0.016
 3000SOL    HW2 9150   0.360   4.775   5.972
 3001SOL     OW 9151   1.208   4.237   5.834
 3001SOL    HW1 9152   1.224   4.151   5.873
 3001SOL    HW2 9153   1.163   4.286   5.903
 3002SOL     OW 9154   0.299   3.803   0.242
 3002SOL    HW1 9155   0.356   3.880   0.245
 3002SOL    HW2 9156   0.352   3.733   0.281
 3003SOL     OW 9157   1.523   4.000   5.726
 3003SOL    HW1 9158   1.460   3.928   5.736
 3003SOL    HW2 9159   1.555   4.016   5.815
 3004SOL     OW 9160   1.311   4.564   5.632
 3004SOL    HW1 9161   1.342   4.473   5.633
 3004SOL    HW2 9162   1.333   4.596   5.545
 3005SOL     OW 9163   0.019   5.035   5.778
 3005SOL    HW1 9164   5.941   5.035   5.723
 3005SOL    HW2 9165   0.019   4.950   5.820
 3006SOL     OW 9166   0.815   4.316   5.905
 3006SOL    HW1 9167   0.811   4.231   5.862
 3006SOL    HW2 9168   0.731   4.356   5.886
 3007SOL     OW 9169   0.455   4.213   5.779
 3007SOL    HW1 9170   0.513   4.286   5.799
 3007SOL    HW2 9171   0.370   4.253   5.761
 3008SOL     OW 9172   1.757   3.857   0.099
 3008SOL    HW1 9173   1.799   3.842   0.014
 3008SOL    HW2 9174   1.719   3.772   0.122
 3009SOL     OW 9175   0.674   5.341   5.744
 3009SOL    HW1 9176   0.682   5.358   5.650
 3009SOL    HW2 9177   0.613   5.268   5.750
 3010SOL     OW 9178   1.199   5.330   5.618
 3010SOL    HW1 9179   1.194   5.237   5.643
 3010SOL    HW2 9180   1.136   5.338   5.547
 3011SOL     OW 9181   0.871   4.639   5.833
 3011SOL    HW1 9182   0.951   4.670   5.791
 3011SOL    HW2 9183   0.899   4.566   5.888
 3012SOL     OW 9184   1.481   5.350   5.626
 3012SOL    HW1 9185   1.388   5.343   5.607
 3012SOL    HW2 9186   1.522   5.356   5.540
 3013SOL     OW 9187   1.034   4.877   0.298
 3013SOL    HW1 9188   0.985   4.818   0.354
 3013SOL    HW2 9189   1.079   4.819   0.236
 3014SOL     OW 9190   0.263   5.079   5.921
 3014SOL    HW1 9191   0.178   5.065   5.879
 3014SOL    HW2 9192   0.248   5.150   5.983
 3015SOL     OW 9193   0.070   4.050   5.619
 3015SOL    HW1 9194   5.975   4.050   5.604
 3015SOL    HW2 9195   0.103   4.122   5.566
 3016SOL     OW 9196   0.086   3.930   5.863
 3016SOL    HW1 9197   0.094   3.979   5.781
 3016SOL    HW2 9198   0.154   3.863   5.857
 3017SOL     OW 9199   1.171   5.062   5.706
 3017SOL    HW1 9200   1.079   5.038   5.701
 3017SOL    HW2 9201   1.194   5.053   5.798
 3018SOL     OW 9202   1.223   4.029   0.024
 3018SOL    HW1 9203   1.305   3.992   0.058
 3018SOL    HW2 9204   1.201   4.099   0.086
 3019SOL     OW 9205   0.869   5.098   5.625
 3019SOL    HW1 9206   0.823   5.143   5.696
 3019SOL    HW2 9207   0.888   5.168   5.561
 3020SOL     OW 9208   1.087   4.716   5.686
 3020SOL    HW1 9209   1.066   4.761   5.604
 3020SOL    HW2 9210   1.164   4.664   5.666
 3021SOL     OW 9211   1.356   3.780   5.740
 3021SOL    HW1 9212   1.385   3.699   5.698
 3021SOL    HW2 9213   1.272   3.757   5.780
 3022SOL     OW 9214   0.053   4.781   5.872
 3022SOL    HW1 9215   0.144   4.752   5.862
 3022SOL    HW2 9216   0.015   4.722   5.937
 3023SOL     OW 9217   0.885   5.378   5.929
 3023SOL    HW1 9218   0.814   5.372   5.865
 3023SOL    HW2 9219   0.861   5.452   5.984
 3024SOL     OW 9220   0.215   5.820   0.979
 3024SOL    HW1 9221   0.234   5.805   1.072
 3024SOL    HW2 9222   0.120   5.822   0.974
 3025SOL     OW 9223   0.033   5.929   0.647
 3025SOL    HW1 9224   5.958   5.967   0.692
 3025SOL    HW2 9225   0.005   5.923   0.555
 3026SOL     OW 9226   0.454   5.970   1.482
 3026SOL    HW1 9227   0.520   5.901   1.471
 3026SOL    HW2 9228   0.371   5.923   1.486
 3027SOL     OW 9229   1.596   0.017   0.721
 3027SOL    HW1 9230   1.509   0.021   0.683
 3027SOL    HW2 9231   1.600   0.092   0.781
 3028SOL     OW 9232   1.587   5.715   1.454
 3028SOL    HW1 9233   1.647   5.774   1.408
 3028SOL    HW2 9234   1.581   5.752   1.542
 3029SOL     OW 9235   0.811   5.574   0.516
 3029SOL    HW1 9236   0.860   5.649   0.483
 3029SOL    HW2 9237   0.721   5.605   0.524
 3030SOL     OW 9238   0.332   5.814   1.829
 3030SOL    HW1 9239   0.381   5.892   1.804
 3030SOL    HW2 9240   0.240   5.843   1.829
 3031SOL     OW 9241   1.266   5.930   0.940
 3031SOL    HW1 9242   1.182   5.884   0.939
 3031SOL    HW2 9243   1.319   5.881   1.002
 3032SOL     OW 9244   0.551   5.756   0.886
 3032SOL    HW1 9245   0.551   5.781   0.978
 3032SOL    HW2 9246   0.547   5.839   0.838
 3033SOL     OW 9247   0.195   5.859   1.496
 3033SOL    HW1 9248   0.110   5.902   1.494
 3033SOL    HW2 9249   0.182   5.780   1.549
 3034SOL     OW 9250   1.408   5.694   0.436
 3034SOL    HW1 9251   1.406   5.672   0.343
 3034SOL    HW2 9252   1.501   5.709   0.455
 3035SOL     OW 9253   1.543   5.802   1.722
 3035SOL    HW1 9254   1.546   5.831   1.813
 3035SOL    HW2 9255   1.474   5.735   1.721
 3036SOL     OW 9256   0.613   5.676   0.101
 3036SOL    HW1 9257   0.709   5.674   0.101
 3036SOL    HW2 9258   0.591   5.739   0.033
 3037SOL     OW 9259   0.769   5.841   1.741
 3037SOL    HW1 9260   0.844   5.787   1.765
 3037SOL    HW2 9261   0.721   5.853   1.824
 3038SOL     OW 9262   1.407   0.179   1.414
 3038SOL    HW1 9263   1.329   0.153   1.464
 3038SOL    HW2 9264   1.385   0.265   1.378
 3039SOL     OW 9265   0.549   5.665   0.504
 3039SOL    HW1 9266   0.475   5.661   0.566
 3039SOL    HW2 9267   0.530   5.742   0.449
 3040SOL     OW 9268   0.953   5.796   0.441
 3040SOL    HW1 9269   0.906   5.868   0.483
 3040SOL    HW2 9270   1.045   5.823   0.443
 3041SOL     OW 9271   0.556   5.798   1.155
 3041SOL    HW1 9272   0.599   5.745   1.222
 3041SOL    HW2 9273   0.467   5.811   1.187
 3042SOL     OW 9274   1.016   5.631   0.740
 3042SOL    HW1 9275   0.956   5.624   0.665
 3042SOL    HW2 9276   0.993   5.556   0.795
 3043SOL     OW 9277   0.488   5.846   0.293
 3043SOL    HW1 9278   0.552   5.805   0.233
 3043SOL    HW2 9279   0.537   5.917   0.335
 3044SOL     OW 9280   0.920   5.677   1.398
 3044SOL    HW1 9281   0.941   5.659   1.306
 3044SOL    HW2 9282   0.996   5.722   1.433
 3045SOL     OW 9283   1.006   5.700   1.758
 3045SOL    HW1 9284   1.020   5.744   1.674
 3045SOL    HW2 9285   1.059   5.621   1.752
 3046SOL     OW 9286   0.502   5.616   1.748
 3046SOL    HW1 9287   0.457   5.567   1.680
 3046SOL    HW2 9288   0.442   5.688   1.769
 3047SOL     OW 9289   0.294   5.782   1.248
 3047SOL    HW1 9290   0.257   5.816   1.329
 3047SOL    HW2 9291   0.276   5.689   1.250
 3048SOL     OW 9292   0.805   0.246   1.049
 3048SOL    HW1 9293   0.772   0.214   0.965
 3048SOL    HW2 9294   0.727   0.266   1.100
 3049SOL     OW 9295   0.303   5.668   0.634
 3049SOL    HW1 9296   0.252   5.748   0.650
 3049SOL    HW2 9297   0.308   5.625   0.719
 3050SOL     OW 9298   1.509   5.872   0.147
 3050SOL    HW1 9299   1.451   5.796   0.148
 3050SOL    HW2 9300   1.597   5.835   0.143
 3051SOL     OW 9301   0.346   0.056   1.012
 3051SOL    HW1 9302   0.313   5.973   0.979
 3051SOL    HW2 9303   0.406   0.086   0.943
 3052SOL     OW 9304   1.149   5.810   1.478
 3052SOL    HW1 9305   1.182   5.872   1.543
 3052SOL    HW2 9306   1.164   5.853   1.394
 3053SOL     OW 9307   0.066   0.079   1.093
 3053SOL    HW1 9308   0.161   0.064   1.086
 3053SOL    HW2 9309   0.057   0.139   1.167
 3054SOL     OW 9310   0.802   0.163   0.325
 3054SOL    HW1 9311   0.792   0.086   0.268
 3054SOL    HW2 9312   0.715   0.201   0.329
 3055SOL     OW 9313   0.890   5.641   0.097
 3055SOL    HW1 9314   0.954   5.699   0.055
 3055SOL    HW2 9315   0.930   5.618   0.181
 3056SOL     OW 9316   1.716   5.730   0.517
 3056SOL    HW1 9317   1.784   5.726   0.449
 3056SOL    HW2 9318   1.707   5.639   0.547
 3057SOL     OW 9319   1.832   5.758   0.974
 3057SOL    HW1 9320   1.865   5.672   0.946
 3057SOL    HW2 9321   1.747   5.765   0.931
 3058SOL     OW 9322   1.018   5.807   0.951
 3058SOL    HW1 9323   1.018   5.751   0.874
 3058SOL    HW2 9324   1.010   5.747   1.025
 3059SOL     OW 9325   0.671   5.778   1.490
 3059SOL    HW1 9326   0.756   5.763   1.450
 3059SOL    HW2 9327   0.690   5.808   1.579
 3060SOL     OW 9328   0.083   5.939   0.045
 3060SOL    HW1 9329   5.990   5.918   0.048
 3060SOL    HW2 9330   0.087   0.032   0.025
 3061SOL     OW 9331   0.074   5.824   0.301
 3061SOL    HW1 9332   0.106   5.878   0.228
 3061SOL    HW2 9333   0.138   5.754   0.310
 3062SOL     OW 9334   1.214   5.896   0.457
 3062SOL    HW1 9335   1.281   5.828   0.450
 3062SOL    HW2 9336   1.251   5.959   0.520
 3063SOL     OW 9337   1.789   5.914   1.645
 3063SOL    HW1 9338   1.758   5.983   1.586
 3063SOL    HW2 9339   1.709   5.870   1.675
 3064SOL     OW 9340   1.794   5.776   1.250
 3064SOL    HW1 9341   1.826   5.687   1.264
 3064SOL    HW2 9342   1.805   5.792   1.156
 3065SOL     OW 9343   1.426   5.805   1.124
 3065SOL    HW1 9344   1.465   5.720   1.146
 3065SOL    HW2 9345   1.420   5.850   1.208
 3066SOL     OW 9346   1.009   5.601   1.143
 3066SOL    HW1 9347   0.953   5.534   1.103
 3066SOL    HW2 9348   1.097   5.562   1.142
 3067SOL     OW 9349   1.353   5.640   0.162
 3067SOL    HW1 9350   1.385   5.575   0.100
 3067SOL    HW2 9351   1.268   5.607   0.191
 3068SOL     OW 9352   1.312   0.041   0.694
 3068SOL    HW1 9353   1.243   0.106   0.687
 3068SOL    HW2 9354   1.299   0.002   0.781
 3069SOL     OW 9355   1.578   5.782   0.879
 3069SOL    HW1 9356   1.515   5.811   0.945
 3069SOL    HW2 9357   1.577   5.852   0.813
 3070SOL     OW 9358   0.161   5.892   2.700
 3070SOL    HW1 9359   0.189   5.817   2.753
 3070SOL    HW2 9360   0.088   5.858   2.648
 3071SOL     OW 9361   5.995   5.943   2.486
 3071SOL    HW1 9362   5.914   5.950   2.535
 3071SOL    HW2 9363   5.967   5.922   2.397
 3072SOL     OW 9364   1.733   0.164   2.027
 3072SOL    HW1 9365   1.767   0.088   1.981
 3072SOL    HW2 9366   1.749   0.145   2.120
 3073SOL     OW 9367   0.440   5.869   3.469
 3073SOL    HW1 9368   0.525   5.852   3.428
 3073SOL    HW2 9369   0.386   5.905   3.399
 3074SOL     OW 9370   1.606   0.019   2.565
 3074SOL    HW1 9371   1.525   0.029   2.514
 3074SOL    HW2 9372   1.599   0.084   2.634
 3075SOL     OW 9373   1.534   5.713   3.330
 3075SOL    HW1 9374   1.624   5.736   3.307
 3075SOL    HW2 9375   1.525   5.741   3.421
 3076SOL     OW 9376   0.810   5.575   2.372
 3076SOL    HW1 9377   0.855   5.651   2.335
 3076SOL    HW2 9378   0.719   5.601   2.378
 3077SOL     OW 9379   0.333   5.815   3.722
 3077SOL    HW1 9380   0.376   5.873   3.659
 3077SOL    HW2 9381   0.240   5.838   3.717
 3078SOL     OW 9382   1.218   5.902   2.545
 3078SOL    HW1 9383   1.210   5.813   2.579
 3078SOL    HW2 9384   1.228   5.957   2.623
 3079SOL     OW 9385   0.860   5.940   2.023
 3079SOL    HW1 9386   0.933   5.967   1.966
 3079SOL    HW2 9387   0.891   5.860   2.065
 3080SOL     OW 9388   0.469   5.794   2.663
 3080SOL    HW1 9389   0.527   5.778   2.738
 3080SOL    HW2 9390   0.481   5.886   2.642
 3081SOL     OW 9391   0.123   5.900   3.467
 3081SOL    HW1 9392   0.059   5.906   3.396
 3081SOL    HW2 9393   0.127   5.806   3.489
 3082SOL     OW 9394   1.406   5.693   2.290
 3082SOL    HW1 9395   1.395   5.649   2.206
 3082SOL    HW2 9396   1.499   5.681   2.311
 3083SOL     OW 9397   1.519   5.788   3.594
 3083SOL    HW1 9398   1.532   5.823   3.683
 3083SOL    HW2 9399   1.456   5.716   3.606
 3084SOL     OW 9400   0.636   5.707   1.972
 3084SOL    HW1 9401   0.710   5.647   1.981
 3084SOL    HW2 9402   0.590   5.677   1.894
 3085SOL     OW 9403   0.794   5.873   3.640
 3085SOL    HW1 9404   0.858   5.804   3.656
 3085SOL    HW2 9405   0.727   5.860   3.707
 3086SOL     OW 9406   1.331   0.177   3.296
 3086SOL    HW1 9407   1.414   0.146   3.333
 3086SOL    HW2 9408   1.331   0.271   3.314
 3087SOL     OW 9409   0.546   5.666   2.349
 3087SOL    HW1 9410   0.478   5.663   2.416
 3087SOL    HW2 9411   0.521   5.740   2.293
 3088SOL     OW 9412   0.279   5.616   2.050
 3088SOL    HW1 9413   0.324   5.686   2.002
 3088SOL    HW2 9414   0.350   5.566   2.091
 3089SOL     OW 9415   0.947   5.795   2.289
 3089SOL    HW1 9416   0.903   5.871   2.328
 3089SOL    HW2 9417   1.039   5.821   2.286
 3090SOL     OW 9418   0.507   5.716   3.214
 3090SOL    HW1 9419   0.598   5.746   3.205
 3090SOL    HW2 9420   0.457   5.795   3.233
 3091SOL     OW 9421   1.015   5.620   2.558
 3091SOL    HW1 9422   0.949   5.599   2.491
 3091SOL    HW2 9423   1.008   5.549   2.621
 3092SOL     OW 9424   0.490   5.857   2.156
 3092SOL    HW1 9425   0.549   5.819   2.091
 3092SOL    HW2 9426   0.541   5.925   2.199
 3093SOL     OW 9427   0.932   5.695   3.286
 3093SOL    HW1 9428   0.949   5.651   3.203
 3093SOL    HW2 9429   1.011   5.745   3.304
 3094SOL     OW 9430   1.003   5.695   3.625
 3094SOL    HW1 9431   1.026   5.745   3.546
 3094SOL    HW2 9432   1.062   5.620   3.624
 3095SOL     OW 9433   0.498   5.616   3.624
 3095SOL    HW1 9434   0.460   5.575   3.546
 3095SOL    HW2 9435   0.442   5.693   3.639
 3096SOL     OW 9436   0.274   5.862   3.253
 3096SOL    HW1 9437   0.217   5.865   3.330
 3096SOL    HW2 9438   0.267   5.772   3.222
 3097SOL     OW 9439   0.756   0.250   2.713
 3097SOL    HW1 9440   0.769   0.156   2.726
 3097SOL    HW2 9441   0.727   0.281   2.799
 3098SOL     OW 9442   0.288   5.674   2.474
 3098SOL    HW1 9443   0.271   5.765   2.498
 3098SOL    HW2 9444   0.300   5.629   2.557
 3099SOL     OW 9445   1.518   5.853   1.993
 3099SOL    HW1 9446   1.465   5.775   2.008
 3099SOL    HW2 9447   1.568   5.865   2.073
 3100SOL     OW 9448   0.376   0.022   2.781
 3100SOL    HW1 9449   0.307   5.991   2.723
 3100SOL    HW2 9450   0.398   0.109   2.747
 3101SOL     OW 9451   1.165   5.823   3.342
 3101SOL    HW1 9452   1.192   5.858   3.427
 3101SOL    HW2 9453   1.234   5.851   3.282
 3102SOL     OW 9454   5.929   0.002   2.818
 3102SOL    HW1 9455   0.019   5.970   2.816
 3102SOL    HW2 9456   5.907   0.005   2.912
 3103SOL     OW 9457   0.819   0.171   2.163
 3103SOL    HW1 9458   0.822   0.082   2.130
 3103SOL    HW2 9459   0.725   0.193   2.166
 3104SOL     OW 9460   1.728   5.727   2.377
 3104SOL    HW1 9461   1.791   5.722   2.305
 3104SOL    HW2 9462   1.717   5.636   2.404
 3105SOL     OW 9463   1.825   5.797   2.717
 3105SOL    HW1 9464   1.839   5.711   2.677
 3105SOL    HW2 9465   1.730   5.807   2.720
 3106SOL     OW 9466   0.964   5.805   2.741
 3106SOL    HW1 9467   0.969   5.753   2.660
 3106SOL    HW2 9468   0.985   5.742   2.810
 3107SOL     OW 9469   0.705   5.789   3.401
 3107SOL    HW1 9470   0.790   5.768   3.363
 3107SOL    HW2 9471   0.725   5.833   3.484
 3108SOL     OW 9472   0.081   5.932   1.844
 3108SOL    HW1 9473   5.990   5.929   1.874
 3108SOL    HW2 9474   0.115   0.014   1.880
 3109SOL     OW 9475   0.079   5.809   2.136
 3109SOL    HW1 9476   0.138   5.883   2.124
 3109SOL    HW2 9477   0.138   5.734   2.147
 3110SOL     OW 9478   1.212   5.893   2.281
 3110SOL    HW1 9479   1.280   5.825   2.278
 3110SOL    HW2 9480   1.208   5.919   2.373
 3111SOL     OW 9481   1.750   5.935   3.541
 3111SOL    HW1 9482   1.748   5.961   3.449
 3111SOL    HW2 9483   1.670   5.884   3.553
 3112SOL     OW 9484   1.795   5.747   3.274
 3112SOL    HW1 9485   1.887   5.734   3.299
 3112SOL    HW2 9486   1.799   5.801   3.195
 3113SOL     OW 9487   1.282   5.743   2.760
 3113SOL    HW1 9488   1.233   5.662   2.771
 3113SOL    HW2 9489   1.225   5.811   2.796
 3114SOL     OW 9490   0.680   5.668   2.764
 3114SOL    HW1 9491   0.728   5.586   2.773
 3114SOL    HW2 9492   0.657   5.693   2.854
 3115SOL     OW 9493   1.353   5.637   2.017
 3115SOL    HW1 9494   1.388   5.557   1.978
 3115SOL    HW2 9495   1.264   5.614   2.044
 3116SOL     OW 9496   1.353   0.152   2.542
 3116SOL    HW1 9497   1.265   0.114   2.539
 3116SOL    HW2 9498   1.381   0.154   2.450
 3117SOL     OW 9499   1.552   5.803   2.722
 3117SOL    HW1 9500   1.458   5.785   2.731
 3117SOL    HW2 9501   1.556   5.877   2.661
 3118SOL     OW 9502   0.215   5.822   4.704
 3118SOL    HW1 9503   0.233   5.805   4.797
 3118SOL    HW2 9504   0.120   5.821   4.698
 3119SOL     OW 9505   0.026   5.921   4.373
 3119SOL    HW1 9506   5.953   5.968   4.413
 3119SOL    HW2 9507   0.008   5.924   4.279
 3120SOL     OW 9508   1.727   0.146   3.887
 3120SOL    HW1 9509   1.784   0.079   3.849
 3120SOL    HW2 9510   1.751   0.148   3.980
 3121SOL     OW 9511   0.453   5.968   5.209
 3121SOL    HW1 9512   0.518   5.901   5.193
 3121SOL    HW2 9513   0.369   5.922   5.209
 3122SOL     OW 9514   1.598   0.023   4.438
 3122SOL    HW1 9515   1.508   0.024   4.405
 3122SOL    HW2 9516   1.600   0.095   4.501
 3123SOL     OW 9517   1.586   5.716   5.179
 3123SOL    HW1 9518   1.647   5.773   5.132
 3123SOL    HW2 9519   1.582   5.753   5.267
 3124SOL     OW 9520   0.810   5.573   4.242
 3124SOL    HW1 9521   0.859   5.647   4.207
 3124SOL    HW2 9522   0.720   5.603   4.246
 3125SOL     OW 9523   0.336   5.818   5.564
 3125SOL    HW1 9524   0.385   5.893   5.531
 3125SOL    HW2 9525   0.244   5.844   5.555
 3126SOL     OW 9526   1.263   5.932   4.668
 3126SOL    HW1 9527   1.180   5.885   4.665
 3126SOL    HW2 9528   1.317   5.881   4.728
 3127SOL     OW 9529   0.871   5.946   3.906
 3127SOL    HW1 9530   0.928   5.965   3.831
 3127SOL    HW2 9531   0.901   5.861   3.937
 3128SOL     OW 9532   0.550   5.754   4.611
 3128SOL    HW1 9533   0.551   5.784   4.702
 3128SOL    HW2 9534   0.547   5.835   4.559
 3129SOL     OW 9535   0.194   5.857   5.218
 3129SOL    HW1 9536   0.109   5.902   5.218
 3129SOL    HW2 9537   0.179   5.777   5.269
 3130SOL     OW 9538   1.405   5.691   4.161
 3130SOL    HW1 9539   1.398   5.660   4.071
 3130SOL    HW2 9540   1.499   5.691   4.180
 3131SOL     OW 9541   1.543   5.805   5.451
 3131SOL    HW1 9542   1.545   5.834   5.542
 3131SOL    HW2 9543   1.479   5.735   5.449
 3132SOL     OW 9544   0.648   5.714   3.828
 3132SOL    HW1 9545   0.709   5.642   3.844
 3132SOL    HW2 9546   0.590   5.682   3.759
 3133SOL     OW 9547   0.770   5.845   5.465
 3133SOL    HW1 9548   0.843   5.787   5.485
 3133SOL    HW2 9549   0.716   5.846   5.544
 3134SOL     OW 9550   1.407   0.179   5.139
 3134SOL    HW1 9551   1.329   0.153   5.189
 3134SOL    HW2 9552   1.383   0.264   5.101
 3135SOL     OW 9553   0.546   5.659   4.221
 3135SOL    HW1 9554   0.472   5.661   4.282
 3135SOL    HW2 9555   0.530   5.733   4.162
 3136SOL     OW 9556   0.276   5.616   3.914
 3136SOL    HW1 9557   0.315   5.687   3.862
 3136SOL    HW2 9558   0.351   5.571   3.953
 3137SOL     OW 9559   0.953   5.795   4.167
 3137SOL    HW1 9560   0.905   5.870   4.203
 3137SOL    HW2 9561   1.044   5.823   4.168
 3138SOL     OW 9562   0.557   5.803   4.879
 3138SOL    HW1 9563   0.598   5.742   4.941
 3138SOL    HW2 9564   0.467   5.812   4.911
 3139SOL     OW 9565   1.012   5.635   4.465
 3139SOL    HW1 9566   0.956   5.629   4.388
 3139SOL    HW2 9567   0.990   5.557   4.517
 3140SOL     OW 9568   0.499   5.849   4.024
 3140SOL    HW1 9569   0.557   5.821   3.953
 3140SOL    HW2 9570   0.542   5.925   4.062
 3141SOL     OW 9571   0.919   5.677   5.122
 3141SOL    HW1 9572   0.941   5.660   5.031
 3141SOL    HW2 9573   0.996   5.723   5.157
 3142SOL     OW 9574   1.003   5.697   5.483
 3142SOL    HW1 9575   1.022   5.748   5.404
 3142SOL    HW2 9576   1.055   5.617   5.474
 3143SOL     OW 9577   0.500   5.618   5.472
 3143SOL    HW1 9578   0.456   5.568   5.403
 3143SOL    HW2 9579   0.439   5.690   5.492
 3144SOL     OW 9580   0.296   5.781   4.973
 3144SOL    HW1 9581   0.255   5.815   5.053
 3144SOL    HW2 9582   0.276   5.688   4.974
 3145SOL     OW 9583   0.805   0.245   4.773
 3145SOL    HW1 9584   0.774   0.213   4.689
 3145SOL    HW2 9585   0.725   0.266   4.822
 3146SOL     OW 9586   0.303   5.667   4.358
 3146SOL    HW1 9587   0.257   5.750   4.372
 3146SOL    HW2 9588   0.307   5.627   4.445
 3147SOL     OW 9589   1.515   5.855   3.859
 3147SOL    HW1 9590   1.469   5.774   3.881
 3147SOL    HW2 9591   1.579   5.866   3.930
 3148SOL     OW 9592   0.344   0.059   4.735
 3148SOL    HW1 9593   0.312   5.974   4.703
 3148SOL    HW2 9594   0.407   0.087   4.668
 3149SOL     OW 9595   1.149   5.809   5.205
 3149SOL    HW1 9596   1.184   5.875   5.265
 3149SOL    HW2 9597   1.165   5.845   5.118
 3150SOL     OW 9598   0.066   0.078   4.821
 3150SOL    HW1 9599   0.159   0.063   4.807
 3150SOL    HW2 9600   0.062   0.142   4.891
 3151SOL     OW 9601   0.825   0.177   4.039
 3151SOL    HW1 9602   0.837   0.089   4.004
 3151SOL    HW2 9603   0.731   0.194   4.029
 3152SOL     OW 9604   1.731   5.731   4.238
 3152SOL    HW1 9605   1.795   5.720   4.168
 3152SOL    HW2 9606   1.715   5.643   4.271
 3153SOL     OW 9607   1.832   5.757   4.700
 3153SOL    HW1 9608   1.865   5.672   4.670
 3153SOL    HW2 9609   1.748   5.767   4.656
 3154SOL     OW 9610   1.018   5.807   4.677
 3154SOL    HW1 9611   1.016   5.752   4.599
 3154SOL    HW2 9612   1.009   5.746   4.750
 3155SOL     OW 9613   0.670   5.778   5.214
 3155SOL    HW1 9614   0.755   5.762   5.173
 3155SOL    HW2 9615   0.692   5.811   5.301
 3156SOL     OW 9616   0.074   5.914   3.752
 3156SOL    HW1 9617   5.984   5.917   3.719
 3156SOL    HW2 9618   0.113   5.996   3.721
 3157SOL     OW 9619   0.085   5.803   4.018
 3157SOL    HW1 9620   0.122   5.873   3.964
 3157SOL    HW2 9621   0.151   5.733   4.015
 3158SOL     OW 9622   1.215   5.895   4.183
 3158SOL    HW1 9623   1.280   5.824   4.178
 3158SOL    HW2 9624   1.254   5.959   4.243
 3159SOL     OW 9625   1.789   5.914   5.371
 3159SOL    HW1 9626   1.758   5.982   5.311
 3159SOL    HW2 9627   1.708   5.870   5.400
 3160SOL     OW 9628   1.793   5.775   4.975
 3160SOL    HW1 9629   1.827   5.687   4.988
 3160SOL    HW2 9630   1.805   5.792   4.882
 3161SOL     OW 9631   1.426   5.804   4.847
 3161SOL    HW1 9632   1.466   5.719   4.868
 3161SOL    HW2 9633   1.421   5.849   4.932
 3162SOL     OW 9634   1.009   5.600   4.868
 3162SOL    HW1 9635   0.953   5.535   4.825
 3162SOL    HW2 9636   1.096   5.561   4.867
 3163SOL     OW 9637   1.362   5.628   3.890
 3163SOL    HW1 9638   1.393   5.553   3.840
 3163SOL    HW2 9639   1.272   5.606   3.913
 3164SOL     OW 9640   1.316   0.042   4.423
 3164SOL    HW1 9641   1.246   0.106   4.410
 3164SOL    HW2 9642   1.298   0.004   4.509
 3165SOL     OW 9643   1.580   5.787   4.602
 3165SOL    HW1 9644   1.515   5.814   4.667
 3165SOL    HW2 9645   1.576   5.856   4.535
 3166SOL     OW 9646   1.726   0.199   5.801
 3166SOL    HW1 9647   1.741   0.116   5.754
 3166SOL    HW2 9648   1.718   0.173   5.893
 3167SOL     OW 9649   1.027   0.213   0.047
 3167SOL    HW1 9650   1.095   0.275   0.022
 3167SOL    HW2 9651   0.955   0.231   5.986
 3168SOL     OW 9652   0.868   5.953   5.739
 3168SOL    HW1 9653   0.935   5.988   5.681
 3168SOL    HW2 9654   0.894   5.861   5.753
 3169SOL     OW 9655   0.290   0.293   0.046
 3169SOL    HW1 9656   0.376   0.285   0.005
 3169SOL    HW2 9657   0.277   0.210   0.092
 3170SOL     OW 9658   0.643   5.706   5.688
 3170SOL    HW1 9659   0.712   5.640   5.693
 3170SOL    HW2 9660   0.588   5.678   5.614
 3171SOL     OW 9661   0.286   5.614   5.768
 3171SOL    HW1 9662   0.325   5.682   5.713
 3171SOL    HW2 9663   0.360   5.574   5.813
 3172SOL     OW 9664   0.530   5.848   5.894
 3172SOL    HW1 9665   0.563   5.801   5.818
 3172SOL    HW2 9666   0.562   5.938   5.883
 3173SOL     OW 9667   0.296   5.655   0.246
 3173SOL    HW1 9668   0.352   5.733   0.249
 3173SOL    HW2 9669   0.350   5.585   0.283
 3174SOL     OW 9670   1.518   5.858   5.726
 3174SOL    HW1 9671   1.466   5.779   5.738
 3174SOL    HW2 9672   1.572   5.862   5.806
 3175SOL     OW 9673   0.805   0.162   5.906
 3175SOL    HW1 9674   0.811   0.079   5.858
 3175SOL    HW2 9675   0.718   0.195   5.885
 3176SOL     OW 9676   1.714   5.697   0.099
 3176SOL    HW1 9677   1.781   5.701   0.030
 3176SOL    HW2 9678   1.712   5.605   0.124
 3177SOL     OW 9679   0.088   5.935   5.541
 3177SOL    HW1 9680   0.006   5.904   5.580
 3177SOL    HW2 9681   0.100   0.023   5.578
 3178SOL     OW 9682   0.077   5.794   5.816
 3178SOL    HW1 9683   0.108   5.849   5.888
 3178SOL    HW2 9684   0.141   5.722   5.813
 3179SOL     OW 9685   1.356   5.638   5.741
 3179SOL    HW1 9686   1.389   5.558   5.700
 3179SOL    HW2 9687   1.271   5.612   5.777
 3180SOL     OW 9688   2.076   0.645   0.128
 3180SOL    HW1 9689   1.999   0.607   0.170
 3180SOL    HW2 9690   2.084   0.596   0.046
 3181SOL     OW 9691   2.060   0.312   0.994
 3181SOL    HW1 9692   2.109   0.263   1.060
 3181SOL    HW2 9693   1.981   0.261   0.979
 3182SOL     OW 9694   1.866   0.387   0.636
 3182SOL    HW1 9695   1.781   0.408   0.674
 3182SOL    HW2 9696   1.848   0.317   0.573
 3183SOL     OW 9697   2.427   1.294   1.179
 3183SOL    HW1 9698   2.342   1.300   1.136
 3183SOL    HW2 9699   2.445   1.383   1.210
 3184SOL     OW 9700   3.427   1.514   0.708
 3184SOL    HW1 9701   3.384   1.491   0.791
 3184SOL    HW2 9702   3.356   1.518   0.644
 3185SOL     OW 9703   2.994   0.697   0.697
 3185SOL    HW1 9704   3.043   0.779   0.687
 3185SOL    HW2 9705   2.946   0.709   0.779
 3186SOL     OW 9706   3.646   0.597   0.247
 3186SOL    HW1 9707   3.599   0.612   0.165
 3186SOL    HW2 9708   3.605   0.520   0.285
 3187SOL     OW 9709   2.614   1.140   1.046
 3187SOL    HW1 9710   2.546   1.177   1.103
 3187SOL    HW2 9711   2.650   1.216   1.000
 3188SOL     OW 9712   2.720   0.783   1.813
 3188SOL    HW1 9713   2.774   0.835   1.873
 3188SOL    HW2 9714   2.743   0.815   1.726
 3189SOL     OW 9715   2.548   1.000   0.646
 3189SOL    HW1 9716   2.614   0.990   0.715
 3189SOL    HW2 9717   2.479   1.053   0.686
 3190SOL     OW 9718   2.554   1.165   1.705
 3190SOL    HW1 9719   2.591   1.169   1.793
 3190SOL    HW2 9720   2.460   1.154   1.719
 3191SOL     OW 9721   2.191   1.421   1.069
 3191SOL    HW1 9722   2.117   1.383   1.021
 3191SOL    HW2 9723   2.238   1.472   1.003
 3192SOL     OW 9724   3.325   1.503   1.356
 3192SOL    HW1 9725   3.381   1.581   1.360
 3192SOL    HW2 9726   3.259   1.518   1.425
 3193SOL     OW 9727   2.305   0.396   1.492
 3193SOL    HW1 9728   2.386   0.345   1.493
 3193SOL    HW2 9729   2.235   0.331   1.498
 3194SOL     OW 9730   3.472   0.456   0.736
 3194SOL    HW1 9731   3.398   0.476   0.679
 3194SOL    HW2 9732   3.490   0.538   0.781
 3195SOL     OW 9733   2.081   1.712   0.474
 3195SOL    HW1 9734   2.101   1.790   0.526
 3195SOL    HW2 9735   2.157   1.701   0.417
 3196SOL     OW 9736   2.088   1.440   0.532
 3196SOL    HW1 9737   2.071   1.534   0.539
 3196SOL    HW2 9738   2.032   1.400   0.599
 3197SOL     OW 9739   2.123   1.089   0.893
 3197SOL    HW1 9740   2.119   1.001   0.931
 3197SOL    HW2 9741   2.063   1.141   0.946
 3198SOL     OW 9742   2.475   1.798   1.422
 3198SOL    HW1 9743   2.398   1.782   1.476
 3198SOL    HW2 9744   2.507   1.884   1.451
 3199SOL     OW 9745   2.474   0.969   0.128
 3199SOL    HW1 9746   2.423   1.039   0.087
 3199SOL    HW2 9747   2.514   1.011   0.204
 3200SOL     OW 9748   3.518   0.101   1.502
 3200SOL    HW1 9749   3.453   0.127   1.437
 3200SOL    HW2 9750   3.491   0.147   1.582
 3201SOL     OW 9751   1.988   0.644   0.569
 3201SOL    HW1 9752   1.950   0.558   0.588
 3201SOL    HW2 9753   1.975   0.694   0.649
 3202SOL     OW 9754   3.709   1.761   0.335
 3202SOL    HW1 9755   3.775   1.730   0.397
 3202SOL    HW2 9756   3.728   1.854   0.325
 3203SOL     OW 9757   1.836   1.585   0.126
 3203SOL    HW1 9758   1.858   1.497   0.157
 3203SOL    HW2 9759   1.860   1.642   0.199
 3204SOL     OW 9760   3.556   0.902   0.654
 3204SOL    HW1 9761   3.639   0.860   0.633
 3204SOL    HW2 9762   3.534   0.952   0.576
 3205SOL     OW 9763   3.501   1.090   0.458
 3205SOL    HW1 9764   3.534   1.149   0.391
 3205SOL    HW2 9765   3.505   1.142   0.539
 3206SOL     OW 9766   1.981   0.744   1.584
 3206SOL    HW1 9767   2.072   0.773   1.587
 3206SOL    HW2 9768   1.931   0.824   1.571
 3207SOL     OW 9769   2.477   1.388   0.734
 3207SOL    HW1 9770   2.432   1.304   0.744
 3207SOL    HW2 9771   2.460   1.414   0.644
 3208SOL     OW 9772   3.151   1.239   1.439
 3208SOL    HW1 9773   3.175   1.176   1.371
 3208SOL    HW2 9774   3.219   1.229   1.505
 3209SOL     OW 9775   2.679   0.004   0.562
 3209SOL    HW1 9776   2.710   0.087   0.525
 3209SOL    HW2 9777   2.584   0.008   0.554
 3210SOL     OW 9778   2.048   0.962   1.270
 3210SOL    HW1 9779   2.134   0.923   1.256
 3210SOL    HW2 9780   1.989   0.911   1.214
 3211SOL     OW 9781   3.325   1.038   0.228
 3211SOL    HW1 9782   3.270   0.964   0.255
 3211SOL    HW2 9783   3.405   1.029   0.280
 3212SOL     OW 9784   3.063   1.808   1.614
 3212SOL    HW1 9785   3.061   1.865   1.537
 3212SOL    HW2 9786   3.070   1.719   1.578
 3213SOL     OW 9787   2.192   0.258   1.808
 3213SOL    HW1 9788   2.239   0.341   1.818
 3213SOL    HW2 9789   2.106   0.274   1.845
 3214SOL     OW 9790   3.330   1.418   0.950
 3214SOL    HW1 9791   3.261   1.435   1.015
 3214SOL    HW2 9792   3.317   1.327   0.924
 3215SOL     OW 9793   3.519   1.744   0.579
 3215SOL    HW1 9794   3.501   1.713   0.490
 3215SOL    HW2 9795   3.497   1.670   0.635
 3216SOL     OW 9796   2.460   0.735   0.278
 3216SOL    HW1 9797   2.469   0.815   0.225
 3216SOL    HW2 9798   2.392   0.757   0.342
 3217SOL     OW 9799   3.161   0.367   0.936
 3217SOL    HW1 9800   3.072   0.334   0.934
 3217SOL    HW2 9801   3.209   0.305   0.991
 3218SOL     OW 9802   3.445   1.672   0.310
 3218SOL    HW1 9803   3.538   1.692   0.305
 3218SOL    HW2 9804   3.419   1.653   0.220
 3219SOL     OW 9805   2.660   0.618   1.459
 3219SOL    HW1 9806   2.628   0.593   1.546
 3219SOL    HW2 9807   2.618   0.555   1.399
 3220SOL     OW 9808   3.257   0.472   1.680
 3220SOL    HW1 9809   3.260   0.521   1.763
 3220SOL    HW2 9810   3.327   0.407   1.688
 3221SOL     OW 9811   2.818   0.889   1.580
 3221SOL    HW1 9812   2.873   0.820   1.543
 3221SOL    HW2 9813   2.767   0.922   1.506
 3222SOL     OW 9814   2.846   0.399   1.240
 3222SOL    HW1 9815   2.768   0.435   1.281
 3222SOL    HW2 9816   2.812   0.348   1.165
 3223SOL     OW 9817   2.917   0.692   0.427
 3223SOL    HW1 9818   2.936   0.690   0.521
 3223SOL    HW2 9819   2.833   0.647   0.418
 3224SOL     OW 9820   1.951   0.820   0.778
 3224SOL    HW1 9821   2.032   0.814   0.829
 3224SOL    HW2 9822   1.907   0.898   0.813
 3225SOL     OW 9823   1.981   1.806   1.559
 3225SOL    HW1 9824   1.970   1.802   1.654
 3225SOL    HW2 9825   1.912   1.864   1.529
 3226SOL     OW 9826   2.712   0.397   0.175
 3226SOL    HW1 9827   2.786   0.426   0.123
 3226SOL    HW2 9828   2.730   0.305   0.194
 3227SOL     OW 9829   3.578   0.569   1.825
 3227SOL    HW1 9830   3.537   0.644   1.781
 3227SOL    HW2 9831   3.603   0.509   1.755
 3228SOL     OW 9832   3.236   1.142   0.540
 3228SOL    HW1 9833   3.314   1.123   0.488
 3228SOL    HW2 9834   3.187   1.205   0.488
 3229SOL     OW 9835   2.427   0.220   0.885
 3229SOL    HW1 9836   2.407   0.236   0.978
 3229SOL    HW2 9837   2.421   0.305   0.844
 3230SOL     OW 9838   2.873   1.451   0.476
 3230SOL    HW1 9839   2.832   1.520   0.424
 3230SOL    HW2 9840   2.844   1.468   0.566
 3231SOL     OW 9841   2.218   1.812   0.866
 3231SOL    HW1 9842   2.263   1.727   0.873
 3231SOL    HW2 9843   2.287   1.876   0.884
 3232SOL     OW 9844   3.666   1.055   0.872
 3232SOL    HW1 9845   3.614   1.036   0.794
 3232SOL    HW2 9846   3.602   1.060   0.943
 3233SOL     OW 9847   3.090   1.537   1.505
 3233SOL    HW1 9848   3.091   1.445   1.530
 3233SOL    HW2 9849   3.014   1.546   1.448
 3234SOL     OW 9850   2.173   0.947   0.261
 3234SOL    HW1 9851   2.220   0.990   0.189
 3234SOL    HW2 9852   2.161   0.857   0.231
 3235SOL     OW 9853   3.339   0.746   0.728
 3235SOL    HW1 9854   3.335   0.704   0.814
 3235SOL    HW2 9855   3.420   0.797   0.730
 3236SOL     OW 9856   2.284   1.202   1.728
 3236SOL    HW1 9857   2.270   1.233   1.639
 3236SOL    HW2 9858   2.251   1.272   1.784
 3237SOL     OW 9859   2.970   1.780   0.220
 3237SOL    HW1 9860   2.912   1.732   0.279
 3237SOL    HW2 9861   3.012   1.713   0.167
 3238SOL     OW 9862   2.051   0.274   1.509
 3238SOL    HW1 9863   1.976   0.334   1.498
 3238SOL    HW2 9864   2.043   0.241   1.598
 3239SOL     OW 9865   3.478   1.371   0.050
 3239SOL    HW1 9866   3.463   1.466   0.044
 3239SOL    HW2 9867   3.395   1.333   0.022
 3240SOL     OW 9868   2.328   1.735   0.333
 3240SOL    HW1 9869   2.374   1.791   0.395
 3240SOL    HW2 9870   2.394   1.715   0.266
 3241SOL     OW 9871   3.288   0.135   0.414
 3241SOL    HW1 9872   3.276   0.100   0.326
 3241SOL    HW2 9873   3.382   0.127   0.431
 3242SOL     OW 9874   2.115   1.790   1.227
 3242SOL    HW1 9875   2.170   1.725   1.270
 3242SOL    HW2 9876   2.106   1.759   1.137
 3243SOL     OW 9877   2.800   1.699   0.900
 3243SOL    HW1 9878   2.880   1.649   0.919
 3243SOL    HW2 9879   2.757   1.648   0.831
 3244SOL     OW 9880   2.255   0.695   0.476
 3244SOL    HW1 9881   2.277   0.602   0.486
 3244SOL    HW2 9882   2.161   0.700   0.498
 3245SOL     OW 9883   3.408   0.220   1.731
 3245SOL    HW1 9884   3.406   0.253   1.821
 3245SOL    HW2 9885   3.335   0.159   1.726
 3246SOL     OW 9886   2.470   0.087   0.110
 3246SOL    HW1 9887   2.562   0.079   0.084
 3246SOL    HW2 9888   2.433   0.148   0.046
 3247SOL     OW 9889   2.626   0.268   1.758
 3247SOL    HW1 9890   2.703   0.213   1.769
 3247SOL    HW2 9891   2.603   0.295   1.847
 3248SOL     OW 9892   2.738   1.522   1.192
 3248SOL    HW1 9893   2.723   1.485   1.105
 3248SOL    HW2 9894   2.810   1.470   1.228
 3249SOL     OW 9895   3.204   0.590   1.434
 3249SOL    HW1 9896   3.236   0.561   1.520
 3249SOL    HW2 9897   3.239   0.679   1.425
 3250SOL     OW 9898   2.679   1.393   0.942
 3250SOL    HW1 9899   2.763   1.382   0.898
 3250SOL    HW2 9900   2.615   1.397   0.870
 3251SOL     OW 9901   2.793   0.513   0.905
 3251SOL    HW1 9902   2.765   0.506   0.814
 3251SOL    HW2 9903   2.827   0.426   0.926
 3252SOL     OW 9904   2.411   0.046   0.494
 3252SOL    HW1 9905   2.335   0.041   0.552
 3252SOL    HW2 9906   2.402   0.131   0.450
 3253SOL     OW 9907   3.256   1.213   0.026
 3253SOL    HW1 9908   3.283   1.147   0.089
 3253SOL    HW2 9909   3.178   1.253   0.064
 3254SOL     OW 9910   2.153   0.026   0.223
 3254SOL    HW1 9911   2.191   0.106   0.186
 3254SOL    HW2 9912   2.228   5.970   0.241
 3255SOL     OW 9913   2.826   0.257   0.513
 3255SOL    HW1 9914   2.781   0.241   0.430
 3255SOL    HW2 9915   2.917   0.275   0.488
 3256SOL     OW 9916   2.942   0.682   1.455
 3256SOL    HW1 9917   2.873   0.616   1.466
 3256SOL    HW2 9918   3.024   0.631   1.455
 3257SOL     OW 9919   3.083   1.573   0.797
 3257SOL    HW1 9920   3.098   1.636   0.727
 3257SOL    HW2 9921   3.154   1.589   0.859
 3258SOL     OW 9922   2.332   1.152   0.732
 3258SOL    HW1 9923   2.265   1.131   0.796
 3258SOL    HW2 9924   2.291   1.135   0.647
 3259SOL     OW 9925   3.127   1.796   0.609
 3259SOL    HW1 9926   3.176   1.859   0.555
 3259SOL    HW2 9927   3.060   1.849   0.652
 3260SOL     OW 9928   2.903   0.549   0.043
 3260SOL    HW1 9929   2.820   0.588   0.016
 3260SOL    HW2 9930   2.925   0.594   0.125
 3261SOL     OW 9931   1.945   0.548   1.394
 3261SOL    HW1 9932   2.037   0.551   1.367
 3261SOL    HW2 9933   1.938   0.618   1.460
 3262SOL     OW 9934   2.416   0.245   1.172
 3262SOL    HW1 9935   2.446   0.164   1.214
 3262SOL    HW2 9936   2.322   0.248   1.190
 3263SOL     OW 9937   2.723   0.476   0.645
 3263SOL    HW1 9938   2.679   0.520   0.572
 3263SOL    HW2 9939   2.758   0.395   0.606
 3264SOL     OW 9940   2.861   0.043   0.773
 3264SOL    HW1 9941   2.802   0.037   0.697
 3264SOL    HW2 9942   2.854   5.957   0.814
 3265SOL     OW 9943   3.300   1.159   0.859
 3265SOL    HW1 9944   3.229   1.096   0.849
 3265SOL    HW2 9945   3.332   1.173   0.770
 3266SOL     OW 9946   3.326   0.608   0.974
 3266SOL    HW1 9947   3.273   0.528   0.973
 3266SOL    HW2 9948   3.383   0.598   1.050
 3267SOL     OW 9949   3.729   0.819   0.396
 3267SOL    HW1 9950   3.784   0.763   0.451
 3267SOL    HW2 9951   3.688   0.759   0.334
 3268SOL     OW 9952   2.348   1.414   0.161
 3268SOL    HW1 9953   2.271   1.388   0.211
 3268SOL    HW2 9954   2.340   1.366   0.079
 3269SOL     OW 9955   3.531   1.258   0.669
 3269SOL    HW1 9956   3.627   1.263   0.664
 3269SOL    HW2 9957   3.502   1.349   0.670
 3270SOL     OW 9958   3.278   0.586   0.096
 3270SOL    HW1 9959   3.221   0.574   0.172
 3270SOL    HW2 9960   3.327   0.503   0.091
 3271SOL     OW 9961   2.401   0.264   0.320
 3271SOL    HW1 9962   2.394   0.206   0.243
 3271SOL    HW2 9963   2.383   0.351   0.285
 3272SOL     OW 9964   3.614   1.236   1.566
 3272SOL    HW1 9965   3.702   1.202   1.550
 3272SOL    HW2 9966   3.629   1.325   1.599
 3273SOL     OW 9967   2.920   1.353   1.333
 3273SOL    HW1 9968   2.842   1.320   1.378
 3273SOL    HW2 9969   2.993   1.307   1.375
 3274SOL     OW 9970   3.453   1.606   1.643
 3274SOL    HW1 9971   3.457   1.652   1.559
 3274SOL    HW2 9972   3.538   1.563   1.651
 3275SOL     OW 9973   2.992   1.209   1.103
 3275SOL    HW1 9974   2.927   1.244   1.163
 3275SOL    HW2 9975   2.964   1.240   1.017
 3276SOL     OW 9976   3.486   1.094   1.077
 3276SOL    HW1 9977   3.478   1.157   1.149
 3276SOL    HW2 9978   3.411   1.112   1.021
 3277SOL     OW 9979   2.759   0.093   1.403
 3277SOL    HW1 9980   2.784   0.061   1.316
 3277SOL    HW2 9981   2.838   0.135   1.437
 3278SOL     OW 9982   2.866   1.129   1.704
 3278SOL    HW1 9983   2.775   1.148   1.730
 3278SOL    HW2 9984   2.860   1.046   1.655
 3279SOL     OW 9985   2.573   1.065   0.374
 3279SOL    HW1 9986   2.553   1.049   0.466
 3279SOL    HW2 9987   2.640   1.001   0.352
 3280SOL     OW 9988   2.283   0.818   1.252
 3280SOL    HW1 9989   2.350   0.826   1.320
 3280SOL    HW2 9990   2.248   0.730   1.263
 3281SOL     OW 9991   3.123   0.378   1.281
 3281SOL    HW1 9992   3.153   0.460   1.320
 3281SOL    HW2 9993   3.035   0.398   1.248
 3282SOL     OW 9994   1.932   1.572   1.351
 3282SOL    HW1 9995   1.896   1.647   1.303
 3282SOL    HW2 9996   2.027   1.583   1.346
 3283SOL     OW 9997   2.208   1.110   0.490
 3283SOL    HW1 9998   2.218   1.181   0.427
 3283SOL    HW2 9999   2.204   1.031   0.436
 3284SOL     OW10000   2.422   0.522   0.854
 3284SOL    HW110001   2.432   0.582   0.781
 3284SOL    HW210002   2.483   0.555   0.920
 3285SOL     OW10003   3.118   1.351   0.394
 3285SOL    HW110004   3.167   1.426   0.429
 3285SOL    HW210005   3.028   1.364   0.424
 3286SOL     OW10006   3.144   1.459   1.147
 3286SOL    HW110007   3.198   1.461   1.226
 3286SOL    HW210008   3.088   1.382   1.159
 3287SOL     OW10009   3.441   0.629   0.485
 3287SOL    HW110010   3.392   0.684   0.547
 3287SOL    HW210011   3.471   0.689   0.418
 3288SOL     OW10012   2.212   1.533   1.314
 3288SOL    HW110013   2.195   1.490   1.231
 3288SOL    HW210014   2.307   1.545   1.317
 3289SOL     OW10015   2.263   0.758   1.604
 3289SOL    HW110016   2.330   0.802   1.552
 3289SOL    HW210017   2.301   0.673   1.626
 3290SOL     OW10018   3.472   0.777   1.684
 3290SOL    HW110019   3.387   0.821   1.688
 3290SOL    HW210020   3.520   0.824   1.616
 3291SOL     OW10021   2.864   0.123   1.778
 3291SOL    HW110022   2.917   0.197   1.749
 3291SOL    HW210023   2.856   0.068   1.700
 3292SOL     OW10024   2.335   0.038   1.750
 3292SOL    HW110025   2.349   0.025   1.656
 3292SOL    HW210026   2.287   0.120   1.756
 3293SOL     OW10027   2.447   0.875   1.031
 3293SOL    HW110028   2.478   0.965   1.032
 3293SOL    HW210029   2.390   0.868   1.108
 3294SOL     OW10030   3.215   0.859   1.032
 3294SOL    HW110031   3.134   0.849   0.983
 3294SOL    HW210032   3.259   0.774   1.022
 3295SOL     OW10033   3.081   0.524   0.278
 3295SOL    HW110034   3.086   0.445   0.333
 3295SOL    HW210035   3.036   0.588   0.334
 3296SOL     OW10036   2.154   0.225   1.252
 3296SOL    HW110037   2.113   0.233   1.338
 3296SOL    HW210038   2.151   0.131   1.233
 3297SOL     OW10039   1.908   1.309   1.276
 3297SOL    HW110040   1.937   1.257   1.351
 3297SOL    HW210041   1.913   1.400   1.306
 3298SOL     OW10042   2.583   0.631   1.053
 3298SOL    HW110043   2.661   0.616   1.000
 3298SOL    HW210044   2.557   0.720   1.032
 3299SOL     OW10045   2.178   0.051   0.652
 3299SOL    HW110046   2.167   0.145   0.671
 3299SOL    HW210047   2.091   0.013   0.666
 3300SOL     OW10048   3.498   0.389   0.368
 3300SOL    HW110049   3.510   0.315   0.427
 3300SOL    HW210050   3.469   0.460   0.425
 3301SOL     OW10051   2.894   0.761   0.959
 3301SOL    HW110052   2.888   0.779   1.053
 3301SOL    HW210053   2.867   0.669   0.951
 3302SOL     OW10054   2.841   1.528   1.718
 3302SOL    HW110055   2.826   1.607   1.667
 3302SOL    HW210056   2.863   1.461   1.653
 3303SOL     OW10057   3.711   1.501   1.604
 3303SOL    HW110058   3.731   1.531   1.515
 3303SOL    HW210059   3.775   1.545   1.659
 3304SOL     OW10060   3.387   0.336   0.129
 3304SOL    HW110061   3.372   0.242   0.125
 3304SOL    HW210062   3.429   0.350   0.214
 3305SOL     OW10063   3.155   0.816   0.024
 3305SOL    HW110064   3.205   0.737   0.046
 3305SOL    HW210065   3.198   0.851   5.946
 3306SOL     OW10066   2.931   1.337   0.856
 3306SOL    HW110067   2.934   1.266   0.791
 3306SOL    HW210068   2.990   1.403   0.820
 3307SOL     OW10069   2.171   0.812   0.949
 3307SOL    HW110070   2.264   0.832   0.941
 3307SOL    HW210071   2.169   0.722   0.982
 3308SOL     OW10072   2.204   0.539   1.016
 3308SOL    HW110073   2.155   0.459   0.998
 3308SOL    HW210074   2.278   0.536   0.955
 3309SOL     OW10075   2.996   0.377   1.690
 3309SOL    HW110076   2.951   0.436   1.751
 3309SOL    HW210077   3.085   0.413   1.684
 3310SOL     OW10078   2.998   0.205   1.482
 3310SOL    HW110079   2.990   0.270   1.551
 3310SOL    HW210080   3.011   0.257   1.402
 3311SOL     OW10081   1.953   1.785   0.939
 3311SOL    HW110082   1.923   1.706   0.894
 3311SOL    HW210083   2.043   1.798   0.908
 3312SOL     OW10084   2.357   1.573   0.906
 3312SOL    HW110085   2.426   1.635   0.931
 3312SOL    HW210086   2.401   1.511   0.848
 3313SOL     OW10087   2.841   0.792   1.225
 3313SOL    HW110088   2.898   0.769   1.298
 3313SOL    HW210089   2.755   0.756   1.249
 3314SOL     OW10090   1.895   0.548   1.116
 3314SOL    HW110091   1.965   0.507   1.065
 3314SOL    HW210092   1.928   0.546   1.206
 3315SOL     OW10093   2.056   0.518   1.721
 3315SOL    HW110094   2.118   0.487   1.655
 3315SOL    HW210095   2.013   0.593   1.681
 3316SOL     OW10096   3.246   0.937   1.660
 3316SOL    HW110097   3.260   1.032   1.660
 3316SOL    HW210098   3.244   0.913   1.567
 3317SOL     OW10099   2.673   0.580   0.372
 3317SOL    HW110100   2.675   0.511   0.305
 3317SOL    HW210101   2.600   0.636   0.346
 3318SOL     OW10102   3.501   0.604   1.187
 3318SOL    HW110103   3.495   0.543   1.261
 3318SOL    HW210104   3.588   0.587   1.150
 3319SOL     OW10105   2.563   0.461   1.265
 3319SOL    HW110106   2.501   0.390   1.247
 3319SOL    HW210107   2.557   0.518   1.188
 3320SOL     OW10108   2.811   1.674   1.457
 3320SOL    HW110109   2.765   1.642   1.379
 3320SOL    HW210110   2.792   1.767   1.460
 3321SOL     OW10111   2.341   0.503   0.201
 3321SOL    HW110112   2.394   0.580   0.222
 3321SOL    HW210113   2.252   0.536   0.195
 3322SOL     OW10114   2.007   1.135   1.473
 3322SOL    HW110115   2.051   1.089   1.545
 3322SOL    HW210116   2.014   1.076   1.398
 3323SOL     OW10117   3.184   1.052   1.224
 3323SOL    HW110118   3.209   0.988   1.158
 3323SOL    HW210119   3.115   1.104   1.182
 3324SOL     OW10120   3.151   0.840   0.312
 3324SOL    HW110121   3.075   0.804   0.359
 3324SOL    HW210122   3.132   0.823   0.220
 3325SOL     OW10123   3.636   1.743   1.151
 3325SOL    HW110124   3.698   1.769   1.082
 3325SOL    HW210125   3.612   1.653   1.128
 3326SOL     OW10126   3.103   1.734   1.110
 3326SOL    HW110127   3.186   1.755   1.066
 3326SOL    HW210128   3.110   1.640   1.128
 3327SOL     OW10129   1.946   1.269   1.009
 3327SOL    HW110130   1.928   1.281   1.102
 3327SOL    HW210131   1.874   1.214   0.978
 3328SOL     OW10132   2.778   5.982   0.132
 3328SOL    HW110133   2.812   0.058   0.084
 3328SOL    HW210134   2.829   5.981   0.213
 3329SOL     OW10135   3.566   0.147   0.481
 3329SOL    HW110136   3.647   0.136   0.430
 3329SOL    HW210137   3.572   0.081   0.550
 3330SOL     OW10138   3.254   1.573   0.492
 3330SOL    HW110139   3.314   1.604   0.424
 3330SOL    HW210140   3.206   1.651   0.519
 3331SOL     OW10141   1.977   1.775   1.828
 3331SOL    HW110142   1.959   1.724   1.907
 3331SOL    HW210143   2.066   1.808   1.841
 3332SOL     OW10144   3.138   0.929   0.675
 3332SOL    HW110145   3.212   0.868   0.682
 3332SOL    HW210146   3.171   1.000   0.620
 3333SOL     OW10147   2.674   1.273   1.421
 3333SOL    HW110148   2.647   1.301   1.508
 3333SOL    HW210149   2.604   1.303   1.363
 3334SOL     OW10150   2.533   1.610   0.162
 3334SOL    HW110151   2.529   1.616   0.066
 3334SOL    HW210152   2.480   1.534   0.184
 3335SOL     OW10153   3.488   1.728   1.389
 3335SOL    HW110154   3.539   1.737   1.308
 3335SOL    HW210155   3.473   1.818   1.418
 3336SOL     OW10156   3.710   0.141   0.964
 3336SOL    HW110157   3.727   0.068   0.905
 3336SOL    HW210158   3.624   0.174   0.936
 3337SOL     OW10159   2.122   0.314   0.720
 3337SOL    HW110160   2.038   0.349   0.689
 3337SOL    HW210161   2.115   0.316   0.815
 3338SOL     OW10162   3.086   1.601   0.042
 3338SOL    HW110163   3.064   1.511   0.066
 3338SOL    HW210164   3.030   1.620   5.967
 3339SOL     OW10165   2.684   1.003   1.370
 3339SOL    HW110166   2.728   1.000   1.285
 3339SOL    HW210167   2.681   1.097   1.391
 3340SOL     OW10168   2.772   0.897   0.299
 3340SOL    HW110169   2.820   0.913   0.217
 3340SOL    HW210170   2.817   0.824   0.340
 3341SOL     OW10171   3.359   1.636   0.043
 3341SOL    HW110172   3.265   1.620   0.037
 3341SOL    HW210173   3.387   1.656   5.954
 3342SOL     OW10174   2.216   1.315   1.493
 3342SOL    HW110175   2.221   1.388   1.430
 3342SOL    HW210176   2.144   1.261   1.461
 3343SOL     OW10177   3.468   1.281   1.282
 3343SOL    HW110178   3.536   1.276   1.349
 3343SOL    HW210179   3.412   1.353   1.310
 3344SOL     OW10180   2.916   1.108   0.707
 3344SOL    HW110181   2.846   1.055   0.746
 3344SOL    HW210182   2.981   1.044   0.680
 3345SOL     OW10183   2.921   0.241   0.948
 3345SOL    HW110184   2.909   0.180   0.875
 3345SOL    HW210185   2.846   0.224   1.006
 3346SOL     OW10186   2.469   1.490   0.478
 3346SOL    HW110187   2.514   1.438   0.412
 3346SOL    HW210188   2.398   1.533   0.431
 3347SOL     OW10189   3.578   0.402   1.372
 3347SOL    HW110190   3.657   0.455   1.374
 3347SOL    HW210191   3.602   0.323   1.323
 3348SOL     OW10192   2.115   1.337   0.285
 3348SOL    HW110193   2.038   1.280   0.282
 3348SOL    HW210194   2.110   1.380   0.370
 3349SOL     OW10195   2.530   0.230   1.498
 3349SOL    HW110196   2.597   0.175   1.458
 3349SOL    HW210197   2.558   0.240   1.589
 3350SOL     OW10198   1.896   0.408   0.038
 3350SOL    HW110199   1.839   0.332   0.050
 3350SOL    HW210200   1.957   0.382   5.969
 3351SOL     OW10201   3.290   0.861   1.399
 3351SOL    HW110202   3.240   0.921   1.343
 3351SOL    HW210203   3.378   0.861   1.361
 3352SOL     OW10204   1.929   0.161   0.323
 3352SOL    HW110205   1.943   0.244   0.277
 3352SOL    HW210206   2.003   0.106   0.298
 3353SOL     OW10207   3.035   1.344   0.128
 3353SOL    HW110208   2.945   1.311   0.129
 3353SOL    HW210209   3.064   1.337   0.219
 3354SOL     OW10210   2.481   0.830   1.441
 3354SOL    HW110211   2.537   0.906   1.424
 3354SOL    HW210212   2.541   0.757   1.449
 3355SOL     OW10213   3.347   1.780   0.980
 3355SOL    HW110214   3.368   1.843   0.911
 3355SOL    HW210215   3.431   1.759   1.020
 3356SOL     OW10216   2.579   0.564   1.712
 3356SOL    HW110217   2.627   0.627   1.766
 3356SOL    HW210218   2.608   0.478   1.743
 3357SOL     OW10219   3.337   1.209   1.655
 3357SOL    HW110220   3.351   1.221   1.749
 3357SOL    HW210221   3.424   1.220   1.617
 3358SOL     OW10222   2.249   1.742   1.560
 3358SOL    HW110223   2.159   1.773   1.552
 3358SOL    HW210224   2.241   1.646   1.558
 3359SOL     OW10225   3.532   0.880   1.261
 3359SOL    HW110226   3.526   0.794   1.219
 3359SOL    HW210227   3.521   0.942   1.189
 3360SOL     OW10228   3.090   0.317   0.459
 3360SOL    HW110229   3.159   0.251   0.447
 3360SOL    HW210230   3.117   0.367   0.535
 3361SOL     OW10231   2.449   0.736   0.673
 3361SOL    HW110232   2.490   0.821   0.658
 3361SOL    HW210233   2.383   0.728   0.605
 3362SOL     OW10234   3.625   0.370   1.641
 3362SOL    HW110235   3.599   0.379   1.549
 3362SOL    HW210236   3.560   0.310   1.678
 3363SOL     OW10237   3.622   0.940   1.517
 3363SOL    HW110238   3.604   1.034   1.526
 3363SOL    HW210239   3.600   0.920   1.426
 3364SOL     OW10240   2.745   1.377   0.031
 3364SOL    HW110241   2.695   1.369   0.112
 3364SOL    HW210242   2.746   1.471   0.012
 3365SOL     OW10243   2.524   1.789   0.940
 3365SOL    HW110244   2.506   1.881   0.920
 3365SOL    HW210245   2.619   1.782   0.937
 3366SOL     OW10246   2.730   0.967   0.856
 3366SOL    HW110247   2.781   0.895   0.894
 3366SOL    HW210248   2.694   1.013   0.931
 3367SOL     OW10249   2.938   0.968   0.088
 3367SOL    HW110250   2.910   1.017   0.011
 3367SOL    HW210251   3.017   0.923   0.061
 3368SOL     OW10252   3.712   1.552   0.843
 3368SOL    HW110253   3.633   1.540   0.789
 3368SOL    HW210254   3.706   1.484   0.910
 3369SOL     OW10255   1.948   1.231   0.666
 3369SOL    HW110256   1.953   1.183   0.749
 3369SOL    HW210257   2.014   1.190   0.610
 3370SOL     OW10258   2.516   1.422   1.600
 3370SOL    HW110259   2.487   1.334   1.623
 3370SOL    HW210260   2.551   1.458   1.682
 3371SOL     OW10261   3.667   0.183   1.235
 3371SOL    HW110262   3.678   0.094   1.270
 3371SOL    HW210263   3.689   0.175   1.142
 3372SOL     OW10264   2.291   0.431   0.527
 3372SOL    HW110265   2.323   0.360   0.471
 3372SOL    HW210266   2.243   0.386   0.597
 3373SOL     OW10267   3.561   1.486   1.095
 3373SOL    HW110268   3.482   1.466   1.046
 3373SOL    HW210269   3.569   1.415   1.158
 3374SOL     OW10270   2.197   0.559   1.295
 3374SOL    HW110271   2.248   0.499   1.349
 3374SOL    HW210272   2.214   0.531   1.205
 3375SOL     OW10273   2.691   1.577   0.677
 3375SOL    HW110274   2.673   1.635   0.603
 3375SOL    HW210275   2.616   1.517   0.679
 3376SOL     OW10276   3.296   0.223   1.123
 3376SOL    HW110277   3.341   0.165   1.184
 3376SOL    HW210278   3.235   0.273   1.177
 3377SOL     OW10279   2.882   0.007   1.165
 3377SOL    HW110280   2.821   5.964   1.106
 3377SOL    HW210281   2.959   0.026   1.112
 3378SOL     OW10282   2.640   1.332   0.309
 3378SOL    HW110283   2.606   1.243   0.320
 3378SOL    HW210284   2.729   1.327   0.344
 3379SOL     OW10285   2.482   1.559   1.280
 3379SOL    HW110286   2.485   1.639   1.332
 3379SOL    HW210287   2.570   1.551   1.244
 3380SOL     OW10288   3.202   0.084   0.144
 3380SOL    HW110289   3.259   0.008   0.134
 3380SOL    HW210290   3.121   0.048   0.179
 3381SOL     OW10291   3.159   0.464   0.678
 3381SOL    HW110292   3.106   0.544   0.684
 3381SOL    HW210293   3.162   0.430   0.767
 3382SOL     OW10294   3.462   0.228   0.892
 3382SOL    HW110295   3.399   0.236   0.964
 3382SOL    HW210296   3.453   0.310   0.843
 3383SOL     OW10297   1.927   1.078   0.296
 3383SOL    HW110298   2.015   1.046   0.278
 3383SOL    HW210299   1.888   1.012   0.353
 3384SOL     OW10300   2.748   1.658   0.341
 3384SOL    HW110301   2.673   1.635   0.286
 3384SOL    HW210302   2.717   1.729   0.396
 3385SOL     OW10303   2.093   0.638   1.975
 3385SOL    HW110304   2.013   0.635   2.028
 3385SOL    HW210305   2.069   0.596   1.893
 3386SOL     OW10306   2.065   0.251   2.747
 3386SOL    HW110307   2.130   0.203   2.798
 3386SOL    HW210308   1.990   0.191   2.741
 3387SOL     OW10309   1.865   0.382   2.462
 3387SOL    HW110310   1.784   0.401   2.510
 3387SOL    HW210311   1.845   0.304   2.410
 3388SOL     OW10312   3.364   1.516   2.514
 3388SOL    HW110313   3.332   1.449   2.574
 3388SOL    HW210314   3.312   1.504   2.434
 3389SOL     OW10315   3.015   0.666   2.517
 3389SOL    HW110316   3.057   0.751   2.500
 3389SOL    HW210317   2.950   0.685   2.585
 3390SOL     OW10318   3.620   0.597   2.093
 3390SOL    HW110319   3.605   0.593   1.998
 3390SOL    HW210320   3.581   0.516   2.127
 3391SOL     OW10321   2.713   0.795   3.664
 3391SOL    HW110322   2.774   0.844   3.720
 3391SOL    HW210323   2.752   0.800   3.577
 3392SOL     OW10324   2.528   0.997   2.554
 3392SOL    HW110325   2.616   0.978   2.521
 3392SOL    HW210326   2.497   1.069   2.500
 3393SOL     OW10327   2.459   1.124   3.659
 3393SOL    HW110328   2.512   1.186   3.709
 3393SOL    HW210329   2.395   1.179   3.614
 3394SOL     OW10330   3.297   1.450   3.271
 3394SOL    HW110331   3.336   1.537   3.277
 3394SOL    HW210332   3.371   1.390   3.280
 3395SOL     OW10333   2.304   0.359   3.418
 3395SOL    HW110334   2.385   0.309   3.429
 3395SOL    HW210335   2.236   0.303   3.454
 3396SOL     OW10336   3.480   0.453   2.538
 3396SOL    HW110337   3.404   0.471   2.483
 3396SOL    HW210338   3.481   0.524   2.602
 3397SOL     OW10339   2.094   1.723   2.360
 3397SOL    HW110340   2.111   1.811   2.392
 3397SOL    HW210341   2.086   1.732   2.265
 3398SOL     OW10342   3.476   0.073   3.394
 3398SOL    HW110343   3.412   0.100   3.328
 3398SOL    HW210344   3.466   0.137   3.464
 3399SOL     OW10345   2.008   0.623   2.454
 3399SOL    HW110346   1.949   0.547   2.449
 3399SOL    HW210347   1.964   0.683   2.515
 3400SOL     OW10348   1.972   0.763   3.467
 3400SOL    HW110349   2.059   0.795   3.489
 3400SOL    HW210350   1.919   0.842   3.456
 3401SOL     OW10351   2.672   0.011   2.402
 3401SOL    HW110352   2.701   0.100   2.380
 3401SOL    HW210353   2.576   0.015   2.400
 3402SOL     OW10354   2.176   0.269   3.659
 3402SOL    HW110355   2.231   0.344   3.681
 3402SOL    HW210356   2.098   0.279   3.713
 3403SOL     OW10357   3.180   0.322   2.745
 3403SOL    HW110358   3.089   0.301   2.725
 3403SOL    HW210359   3.188   0.303   2.839
 3404SOL     OW10360   2.625   0.627   3.374
 3404SOL    HW110361   2.605   0.615   3.467
 3404SOL    HW210362   2.592   0.548   3.332
 3405SOL     OW10363   3.281   0.482   3.543
 3405SOL    HW110364   3.263   0.518   3.630
 3405SOL    HW210365   3.319   0.396   3.560
 3406SOL     OW10366   2.842   0.417   3.287
 3406SOL    HW110367   2.792   0.497   3.303
 3406SOL    HW210368   2.775   0.351   3.269
 3407SOL     OW10369   2.885   0.735   2.288
 3407SOL    HW110370   2.922   0.692   2.365
 3407SOL    HW210371   2.816   0.675   2.259
 3408SOL     OW10372   1.911   0.794   2.656
 3408SOL    HW110373   2.001   0.814   2.681
 3408SOL    HW210374   1.867   0.879   2.657
 3409SOL     OW10375   2.707   0.392   2.003
 3409SOL    HW110376   2.788   0.426   1.967
 3409SOL    HW210377   2.732   0.313   2.050
 3410SOL     OW10378   3.581   0.598   3.688
 3410SOL    HW110379   3.552   0.668   3.629
 3410SOL    HW210380   3.596   0.523   3.631
 3411SOL     OW10381   2.349   0.267   2.695
 3411SOL    HW110382   2.435   0.230   2.678
 3411SOL    HW210383   2.361   0.361   2.680
 3412SOL     OW10384   3.351   0.792   2.600
 3412SOL    HW110385   3.332   0.706   2.637
 3412SOL    HW210386   3.442   0.809   2.625
 3413SOL     OW10387   2.016   0.297   3.401
 3413SOL    HW110388   1.965   0.377   3.414
 3413SOL    HW210389   2.020   0.257   3.488
 3414SOL     OW10390   3.289   0.133   2.272
 3414SOL    HW110391   3.270   0.099   2.184
 3414SOL    HW210392   3.384   0.130   2.279
 3415SOL     OW10393   2.836   1.701   2.722
 3415SOL    HW110394   2.861   1.609   2.731
 3415SOL    HW210395   2.741   1.702   2.734
 3416SOL     OW10396   2.245   0.690   2.309
 3416SOL    HW110397   2.272   0.602   2.335
 3416SOL    HW210398   2.152   0.694   2.332
 3417SOL     OW10399   3.387   0.223   3.609
 3417SOL    HW110400   3.389   0.260   3.697
 3417SOL    HW210401   3.335   0.143   3.619
 3418SOL     OW10402   2.475   0.095   1.973
 3418SOL    HW110403   2.560   0.050   1.968
 3418SOL    HW210404   2.434   0.077   1.889
 3419SOL     OW10405   2.624   0.262   3.631
 3419SOL    HW110406   2.703   0.208   3.643
 3419SOL    HW210407   2.604   0.294   3.720
 3420SOL     OW10408   3.221   0.629   3.326
 3420SOL    HW110409   3.261   0.589   3.403
 3420SOL    HW210410   3.266   0.714   3.317
 3421SOL     OW10411   2.823   0.504   2.722
 3421SOL    HW110412   2.780   0.496   2.636
 3421SOL    HW210413   2.857   0.417   2.740
 3422SOL     OW10414   2.410   0.057   2.351
 3422SOL    HW110415   2.331   0.047   2.406
 3422SOL    HW210416   2.397   0.141   2.307
 3423SOL     OW10417   2.165   0.043   2.056
 3423SOL    HW110418   2.223   0.099   2.006
 3423SOL    HW210419   2.222   5.975   2.093
 3424SOL     OW10420   2.826   0.254   2.367
 3424SOL    HW110421   2.784   0.237   2.283
 3424SOL    HW210422   2.917   0.274   2.345
 3425SOL     OW10423   2.991   0.618   3.482
 3425SOL    HW110424   2.926   0.646   3.418
 3425SOL    HW210425   3.075   0.630   3.438
 3426SOL     OW10426   2.900   0.550   1.880
 3426SOL    HW110427   2.869   0.639   1.863
 3426SOL    HW210428   2.958   0.558   1.955
 3427SOL     OW10429   1.914   0.551   3.297
 3427SOL    HW110430   2.008   0.548   3.282
 3427SOL    HW210431   1.900   0.631   3.349
 3428SOL     OW10432   2.375   0.001   3.228
 3428SOL    HW110433   2.468   0.024   3.238
 3428SOL    HW210434   2.328   0.079   3.259
 3429SOL     OW10435   2.714   0.473   2.484
 3429SOL    HW110436   2.673   0.520   2.411
 3429SOL    HW210437   2.745   0.391   2.445
 3430SOL     OW10438   2.895   0.026   2.552
 3430SOL    HW110439   2.831   0.027   2.481
 3430SOL    HW210440   2.848   5.986   2.626
 3431SOL     OW10441   3.338   0.566   2.739
 3431SOL    HW110442   3.281   0.490   2.746
 3431SOL    HW210443   3.364   0.585   2.829
 3432SOL     OW10444   3.572   1.220   2.496
 3432SOL    HW110445   3.661   1.239   2.467
 3432SOL    HW210446   3.545   1.299   2.543
 3433SOL     OW10447   3.262   0.575   1.936
 3433SOL    HW110448   3.194   0.554   2.000
 3433SOL    HW210449   3.337   0.522   1.963
 3434SOL     OW10450   2.402   0.268   2.169
 3434SOL    HW110451   2.414   0.211   2.093
 3434SOL    HW210452   2.374   0.352   2.132
 3435SOL     OW10453   2.924   1.357   3.304
 3435SOL    HW110454   2.849   1.385   3.250
 3435SOL    HW210455   2.996   1.412   3.275
 3436SOL     OW10456   2.743   0.162   3.295
 3436SOL    HW110457   2.746   0.068   3.280
 3436SOL    HW210458   2.827   0.183   3.336
 3437SOL     OW10459   3.107   0.390   3.298
 3437SOL    HW110460   3.149   0.476   3.296
 3437SOL    HW210461   3.013   0.408   3.290
 3438SOL     OW10462   2.399   0.530   2.671
 3438SOL    HW110463   2.396   0.571   2.585
 3438SOL    HW210464   2.475   0.570   2.714
 3439SOL     OW10465   3.444   0.642   2.326
 3439SOL    HW110466   3.385   0.716   2.335
 3439SOL    HW210467   3.517   0.675   2.274
 3440SOL     OW10468   2.863   0.117   3.660
 3440SOL    HW110469   2.918   0.194   3.652
 3440SOL    HW210470   2.872   0.072   3.576
 3441SOL     OW10471   2.359   0.077   3.653
 3441SOL    HW110472   2.353   0.023   3.575
 3441SOL    HW210473   2.289   0.142   3.644
 3442SOL     OW10474   3.052   0.513   2.113
 3442SOL    HW110475   3.061   0.446   2.181
 3442SOL    HW210476   3.076   0.595   2.156
 3443SOL     OW10477   2.106   0.074   3.292
 3443SOL    HW110478   2.081   0.165   3.309
 3443SOL    HW210479   2.125   0.071   3.198
 3444SOL     OW10480   2.608   0.673   2.748
 3444SOL    HW110481   2.687   0.624   2.724
 3444SOL    HW210482   2.638   0.742   2.807
 3445SOL     OW10483   2.172   0.044   2.490
 3445SOL    HW110484   2.153   0.137   2.475
 3445SOL    HW210485   2.089   0.006   2.518
 3446SOL     OW10486   3.467   0.389   2.217
 3446SOL    HW110487   3.504   0.325   2.278
 3446SOL    HW210488   3.451   0.467   2.271
 3447SOL     OW10489   2.882   0.770   2.727
 3447SOL    HW110490   2.919   0.807   2.807
 3447SOL    HW210491   2.869   0.677   2.748
 3448SOL     OW10492   3.352   0.302   1.981
 3448SOL    HW110493   3.290   0.235   2.010
 3448SOL    HW210494   3.402   0.324   2.060
 3449SOL     OW10495   3.116   0.800   1.865
 3449SOL    HW110496   3.176   0.729   1.888
 3449SOL    HW210497   3.165   0.853   1.801
 3450SOL     OW10498   2.939   1.363   2.702
 3450SOL    HW110499   2.955   1.270   2.716
 3450SOL    HW210500   3.022   1.396   2.668
 3451SOL     OW10501   2.191   0.786   2.726
 3451SOL    HW110502   2.286   0.779   2.728
 3451SOL    HW210503   2.160   0.695   2.731
 3452SOL     OW10504   2.136   0.514   2.722
 3452SOL    HW110505   2.112   0.422   2.728
 3452SOL    HW210506   2.228   0.515   2.699
 3453SOL     OW10507   3.003   0.350   3.585
 3453SOL    HW110508   2.952   0.415   3.634
 3453SOL    HW210509   3.064   0.402   3.532
 3454SOL     OW10510   2.990   0.151   3.402
 3454SOL    HW110511   2.988   0.225   3.462
 3454SOL    HW210512   3.042   0.183   3.327
 3455SOL     OW10513   2.860   0.738   3.286
 3455SOL    HW110514   2.868   0.833   3.289
 3455SOL    HW210515   2.767   0.721   3.273
 3456SOL     OW10516   1.789   0.379   2.752
 3456SOL    HW110517   1.876   0.418   2.760
 3456SOL    HW210518   1.779   0.326   2.831
 3457SOL     OW10519   2.045   0.526   3.588
 3457SOL    HW110520   2.113   0.498   3.527
 3457SOL    HW210521   2.005   0.602   3.545
 3458SOL     OW10522   2.674   0.567   2.218
 3458SOL    HW110523   2.679   0.508   2.143
 3458SOL    HW210524   2.583   0.598   2.218
 3459SOL     OW10525   3.510   0.643   3.274
 3459SOL    HW110526   3.460   0.561   3.267
 3459SOL    HW210527   3.598   0.619   3.245
 3460SOL     OW10528   2.553   0.402   3.259
 3460SOL    HW110529   2.516   0.318   3.286
 3460SOL    HW210530   2.528   0.410   3.167
 3461SOL     OW10531   2.326   0.503   2.050
 3461SOL    HW110532   2.381   0.580   2.067
 3461SOL    HW210533   2.238   0.539   2.040
 3462SOL     OW10534   3.152   0.762   2.171
 3462SOL    HW110535   3.074   0.801   2.210
 3462SOL    HW210536   3.177   0.823   2.102
 3463SOL     OW10537   3.581   0.140   2.302
 3463SOL    HW110538   3.676   0.124   2.300
 3463SOL    HW210539   3.552   0.096   2.382
 3464SOL     OW10540   3.119   0.913   2.528
 3464SOL    HW110541   3.197   0.869   2.562
 3464SOL    HW210542   3.152   0.993   2.487
 3465SOL     OW10543   3.694   0.113   2.693
 3465SOL    HW110544   3.716   0.048   2.760
 3465SOL    HW210545   3.626   0.167   2.733
 3466SOL     OW10546   2.126   0.312   2.489
 3466SOL    HW110547   2.046   0.361   2.473
 3466SOL    HW210548   2.125   0.295   2.584
 3467SOL     OW10549   2.917   0.247   2.726
 3467SOL    HW110550   2.906   0.206   2.640
 3467SOL    HW210551   2.871   0.188   2.786
 3468SOL     OW10552   2.495   1.482   2.291
 3468SOL    HW110553   2.525   1.437   2.212
 3468SOL    HW210554   2.443   1.556   2.258
 3469SOL     OW10555   3.536   0.346   3.292
 3469SOL    HW110556   3.600   0.411   3.265
 3469SOL    HW210557   3.575   0.262   3.269
 3470SOL     OW10558   2.505   0.178   3.403
 3470SOL    HW110559   2.590   0.169   3.361
 3470SOL    HW210560   2.526   0.198   3.495
 3471SOL     OW10561   1.943   0.325   1.890
 3471SOL    HW110562   1.849   0.324   1.910
 3471SOL    HW210563   1.954   0.399   1.830
 3472SOL     OW10564   3.335   0.876   3.300
 3472SOL    HW110565   3.291   0.955   3.268
 3472SOL    HW210566   3.409   0.864   3.241
 3473SOL     OW10567   1.959   0.159   2.205
 3473SOL    HW110568   1.946   0.233   2.145
 3473SOL    HW210569   2.037   0.115   2.172
 3474SOL     OW10570   2.473   0.838   3.305
 3474SOL    HW110571   2.539   0.904   3.288
 3474SOL    HW210572   2.523   0.760   3.330
 3475SOL     OW10573   2.574   0.555   3.627
 3475SOL    HW110574   2.629   0.619   3.672
 3475SOL    HW210575   2.618   0.472   3.641
 3476SOL     OW10576   3.086   0.310   2.309
 3476SOL    HW110577   3.156   0.247   2.294
 3476SOL    HW210578   3.121   0.368   2.377
 3477SOL     OW10579   2.430   0.741   2.502
 3477SOL    HW110580   2.461   0.830   2.517
 3477SOL    HW210581   2.370   0.749   2.427
 3478SOL     OW10582   3.616   0.362   3.549
 3478SOL    HW110583   3.602   0.361   3.454
 3478SOL    HW210584   3.545   0.309   3.584
 3479SOL     OW10585   2.896   0.942   1.937
 3479SOL    HW110586   2.908   1.026   1.893
 3479SOL    HW210587   2.979   0.896   1.923
 3480SOL     OW10588   3.736   0.050   3.275
 3480SOL    HW110589   3.815   0.005   3.304
 3480SOL    HW210590   3.765   0.141   3.260
 3481SOL     OW10591   2.336   0.442   2.380
 3481SOL    HW110592   2.361   0.375   2.317
 3481SOL    HW210593   2.262   0.404   2.428
 3482SOL     OW10594   2.182   0.559   3.296
 3482SOL    HW110595   2.240   0.499   3.343
 3482SOL    HW210596   2.224   0.570   3.210
 3483SOL     OW10597   3.346   0.015   2.759
 3483SOL    HW110598   3.388   0.073   2.823
 3483SOL    HW210599   3.257   0.049   2.750
 3484SOL     OW10600   2.766   0.005   2.790
 3484SOL    HW110601   2.705   5.948   2.838
 3484SOL    HW210602   2.853   5.972   2.814
 3485SOL     OW10603   3.206   0.061   2.021
 3485SOL    HW110604   3.258   5.986   1.994
 3485SOL    HW210605   3.121   0.024   2.047
 3486SOL     OW10606   3.186   0.459   2.507
 3486SOL    HW110607   3.127   0.534   2.512
 3486SOL    HW210608   3.180   0.417   2.593
 3487SOL     OW10609   3.466   0.261   2.722
 3487SOL    HW110610   3.372   0.248   2.708
 3487SOL    HW210611   3.489   0.332   2.663
 3488SOL     OW10612   2.097   0.629   3.847
 3488SOL    HW110613   2.015   0.636   3.895
 3488SOL    HW210614   2.072   0.600   3.760
 3489SOL     OW10615   2.060   0.312   4.717
 3489SOL    HW110616   2.109   0.262   4.782
 3489SOL    HW210617   1.981   0.261   4.702
 3490SOL     OW10618   1.862   0.381   4.365
 3490SOL    HW110619   1.774   0.401   4.399
 3490SOL    HW210620   1.847   0.316   4.297
 3491SOL     OW10621   2.429   1.295   4.902
 3491SOL    HW110622   2.342   1.298   4.861
 3491SOL    HW210623   2.443   1.383   4.936
 3492SOL     OW10624   3.399   1.491   4.434
 3492SOL    HW110625   3.374   1.484   4.526
 3492SOL    HW210626   3.332   1.546   4.395
 3493SOL     OW10627   2.995   0.692   4.429
 3493SOL    HW110628   3.042   0.774   4.413
 3493SOL    HW210629   2.947   0.708   4.510
 3494SOL     OW10630   3.598   0.615   3.962
 3494SOL    HW110631   3.594   0.607   3.867
 3494SOL    HW210632   3.578   0.527   3.994
 3495SOL     OW10633   2.617   1.147   4.769
 3495SOL    HW110634   2.548   1.182   4.825
 3495SOL    HW210635   2.650   1.223   4.720
 3496SOL     OW10636   2.732   0.773   5.550
 3496SOL    HW110637   2.716   0.843   5.614
 3496SOL    HW210638   2.754   0.818   5.469
 3497SOL     OW10639   2.546   0.994   4.383
 3497SOL    HW110640   2.613   0.989   4.451
 3497SOL    HW210641   2.480   1.054   4.419
 3498SOL     OW10642   2.576   1.154   5.537
 3498SOL    HW110643   2.622   1.232   5.566
 3498SOL    HW210644   2.494   1.187   5.500
 3499SOL     OW10645   2.192   1.418   4.790
 3499SOL    HW110646   2.117   1.383   4.743
 3499SOL    HW210647   2.238   1.471   4.724
 3500SOL     OW10648   3.321   1.501   5.082
 3500SOL    HW110649   3.376   1.579   5.089
 3500SOL    HW210650   3.258   1.509   5.153
 3501SOL     OW10651   2.305   0.397   5.220
 3501SOL    HW110652   2.386   0.346   5.219
 3501SOL    HW210653   2.235   0.332   5.223
 3502SOL     OW10654   3.469   0.453   4.461
 3502SOL    HW110655   3.400   0.477   4.399
 3502SOL    HW210656   3.491   0.535   4.505
 3503SOL     OW10657   2.061   1.712   4.216
 3503SOL    HW110658   2.100   1.786   4.262
 3503SOL    HW210659   2.089   1.722   4.125
 3504SOL     OW10660   3.001   1.341   5.418
 3504SOL    HW110661   3.044   1.334   5.503
 3504SOL    HW210662   2.949   1.261   5.410
 3505SOL     OW10663   2.108   1.440   4.274
 3505SOL    HW110664   2.087   1.532   4.257
 3505SOL    HW210665   2.027   1.403   4.311
 3506SOL     OW10666   2.117   1.089   4.610
 3506SOL    HW110667   2.116   1.001   4.649
 3506SOL    HW210668   2.061   1.141   4.667
 3507SOL     OW10669   2.472   1.791   5.154
 3507SOL    HW110670   2.390   1.773   5.199
 3507SOL    HW210671   2.494   1.881   5.179
 3508SOL     OW10672   3.518   0.101   5.228
 3508SOL    HW110673   3.456   0.127   5.160
 3508SOL    HW210674   3.487   0.146   5.307
 3509SOL     OW10675   2.000   0.626   4.309
 3509SOL    HW110676   1.946   0.548   4.325
 3509SOL    HW210677   1.969   0.690   4.373
 3510SOL     OW10678   3.553   0.913   4.353
 3510SOL    HW110679   3.641   0.882   4.374
 3510SOL    HW210680   3.566   0.981   4.287
 3511SOL     OW10681   1.985   0.745   5.311
 3511SOL    HW110682   2.076   0.774   5.313
 3511SOL    HW210683   1.934   0.826   5.314
 3512SOL     OW10684   2.477   1.383   4.466
 3512SOL    HW110685   2.424   1.303   4.469
 3512SOL    HW210686   2.471   1.412   4.375
 3513SOL     OW10687   3.150   1.238   5.147
 3513SOL    HW110688   3.181   1.171   5.086
 3513SOL    HW210689   3.209   1.233   5.221
 3514SOL     OW10690   2.681   0.009   4.283
 3514SOL    HW110691   2.715   0.093   4.252
 3514SOL    HW210692   2.586   0.015   4.273
 3515SOL     OW10693   2.049   0.963   4.997
 3515SOL    HW110694   2.135   0.923   4.981
 3515SOL    HW210695   1.989   0.913   4.942
 3516SOL     OW10696   3.042   1.807   5.347
 3516SOL    HW110697   3.055   1.869   5.274
 3516SOL    HW210698   3.062   1.721   5.309
 3517SOL     OW10699   2.193   0.259   5.535
 3517SOL    HW110700   2.239   0.342   5.545
 3517SOL    HW210701   2.106   0.275   5.572
 3518SOL     OW10702   3.327   1.418   4.686
 3518SOL    HW110703   3.257   1.432   4.750
 3518SOL    HW210704   3.314   1.328   4.657
 3519SOL     OW10705   3.161   0.367   4.661
 3519SOL    HW110706   3.071   0.334   4.658
 3519SOL    HW210707   3.208   0.304   4.716
 3520SOL     OW10708   2.662   0.617   5.181
 3520SOL    HW110709   2.631   0.595   5.268
 3520SOL    HW210710   2.619   0.554   5.123
 3521SOL     OW10711   3.255   0.472   5.399
 3521SOL    HW110712   3.262   0.523   5.480
 3521SOL    HW210713   3.324   0.405   5.407
 3522SOL     OW10714   2.814   0.887   5.309
 3522SOL    HW110715   2.869   0.818   5.273
 3522SOL    HW210716   2.765   0.921   5.233
 3523SOL     OW10717   2.845   0.399   4.964
 3523SOL    HW110718   2.767   0.435   5.005
 3523SOL    HW210719   2.813   0.349   4.889
 3524SOL     OW10720   2.913   0.714   4.161
 3524SOL    HW110721   2.927   0.689   4.253
 3524SOL    HW210722   2.835   0.666   4.135
 3525SOL     OW10723   1.938   0.831   4.493
 3525SOL    HW110724   2.020   0.816   4.538
 3525SOL    HW210725   1.898   0.905   4.539
 3526SOL     OW10726   1.986   1.861   5.302
 3526SOL    HW110727   1.989   1.837   5.395
 3526SOL    HW210728   1.899   1.835   5.273
 3527SOL     OW10729   2.704   0.386   3.871
 3527SOL    HW110730   2.781   0.428   3.835
 3527SOL    HW210731   2.738   0.312   3.921
 3528SOL     OW10732   3.571   0.569   5.550
 3528SOL    HW110733   3.531   0.644   5.507
 3528SOL    HW210734   3.599   0.512   5.479
 3529SOL     OW10735   3.222   1.138   4.255
 3529SOL    HW110736   3.309   1.145   4.215
 3529SOL    HW210737   3.166   1.190   4.199
 3530SOL     OW10738   2.427   0.218   4.610
 3530SOL    HW110739   2.407   0.238   4.701
 3530SOL    HW210740   2.420   0.302   4.565
 3531SOL     OW10741   2.219   1.813   4.587
 3531SOL    HW110742   2.261   1.727   4.593
 3531SOL    HW210743   2.289   1.876   4.603
 3532SOL     OW10744   3.659   1.051   4.599
 3532SOL    HW110745   3.606   1.074   4.522
 3532SOL    HW210746   3.598   1.055   4.672
 3533SOL     OW10747   3.088   1.539   5.237
 3533SOL    HW110748   3.077   1.466   5.297
 3533SOL    HW210749   3.024   1.523   5.167
 3534SOL     OW10750   2.190   0.956   3.892
 3534SOL    HW110751   2.269   0.962   3.946
 3534SOL    HW210752   2.139   0.886   3.932
 3535SOL     OW10753   3.339   0.748   4.455
 3535SOL    HW110754   3.336   0.704   4.540
 3535SOL    HW210755   3.420   0.798   4.457
 3536SOL     OW10756   2.326   1.265   5.466
 3536SOL    HW110757   2.300   1.270   5.374
 3536SOL    HW210758   2.244   1.262   5.514
 3537SOL     OW10759   2.051   0.275   5.231
 3537SOL    HW110760   1.980   0.338   5.217
 3537SOL    HW210761   2.037   0.243   5.320
 3538SOL     OW10762   3.289   0.132   4.143
 3538SOL    HW110763   3.269   0.103   4.054
 3538SOL    HW210764   3.385   0.131   4.148
 3539SOL     OW10765   2.118   1.790   4.954
 3539SOL    HW110766   2.168   1.719   4.995
 3539SOL    HW210767   2.105   1.761   4.864
 3540SOL     OW10768   2.805   1.699   4.625
 3540SOL    HW110769   2.881   1.649   4.653
 3540SOL    HW210770   2.748   1.635   4.582
 3541SOL     OW10771   2.254   0.696   4.201
 3541SOL    HW110772   2.276   0.603   4.213
 3541SOL    HW210773   2.159   0.700   4.216
 3542SOL     OW10774   3.402   0.219   5.458
 3542SOL    HW110775   3.395   0.257   5.545
 3542SOL    HW210776   3.334   0.152   5.455
 3543SOL     OW10777   2.495   0.097   3.871
 3543SOL    HW110778   2.574   0.044   3.860
 3543SOL    HW210779   2.451   0.092   3.787
 3544SOL     OW10780   2.624   0.264   5.483
 3544SOL    HW110781   2.702   0.209   5.487
 3544SOL    HW210782   2.615   0.300   5.571
 3545SOL     OW10783   2.740   1.525   4.916
 3545SOL    HW110784   2.723   1.487   4.830
 3545SOL    HW210785   2.809   1.470   4.953
 3546SOL     OW10786   3.202   0.591   5.155
 3546SOL    HW110787   3.235   0.561   5.240
 3546SOL    HW210788   3.238   0.679   5.145
 3547SOL     OW10789   2.679   1.409   4.659
 3547SOL    HW110790   2.761   1.384   4.617
 3547SOL    HW210791   2.613   1.399   4.590
 3548SOL     OW10792   2.793   0.512   4.632
 3548SOL    HW110793   2.766   0.507   4.540
 3548SOL    HW210794   2.827   0.425   4.652
 3549SOL     OW10795   2.415   0.055   4.221
 3549SOL    HW110796   2.338   0.047   4.278
 3549SOL    HW210797   2.401   0.138   4.174
 3550SOL     OW10798   2.166   0.054   3.926
 3550SOL    HW110799   2.227   0.100   3.868
 3550SOL    HW210800   2.211   5.973   3.949
 3551SOL     OW10801   2.834   0.261   4.245
 3551SOL    HW110802   2.790   0.240   4.162
 3551SOL    HW210803   2.924   0.279   4.219
 3552SOL     OW10804   2.942   0.683   5.183
 3552SOL    HW110805   2.872   0.618   5.189
 3552SOL    HW210806   3.023   0.631   5.177
 3553SOL     OW10807   3.099   1.565   4.507
 3553SOL    HW110808   3.105   1.645   4.453
 3553SOL    HW210809   3.154   1.584   4.583
 3554SOL     OW10810   2.324   1.152   4.447
 3554SOL    HW110811   2.258   1.134   4.514
 3554SOL    HW210812   2.282   1.128   4.365
 3555SOL     OW10813   3.132   1.803   4.331
 3555SOL    HW110814   3.195   1.840   4.270
 3555SOL    HW210815   3.097   1.879   4.378
 3556SOL     OW10816   2.894   0.542   3.754
 3556SOL    HW110817   2.907   0.620   3.700
 3556SOL    HW210818   2.956   0.552   3.826
 3557SOL     OW10819   1.947   0.549   5.121
 3557SOL    HW110820   2.038   0.552   5.092
 3557SOL    HW210821   1.939   0.622   5.183
 3558SOL     OW10822   2.416   0.245   4.896
 3558SOL    HW110823   2.445   0.163   4.935
 3558SOL    HW210824   2.322   0.249   4.914
 3559SOL     OW10825   2.725   0.476   4.372
 3559SOL    HW110826   2.679   0.520   4.300
 3559SOL    HW210827   2.761   0.397   4.333
 3560SOL     OW10828   2.861   0.042   4.496
 3560SOL    HW110829   2.803   0.037   4.420
 3560SOL    HW210830   2.853   5.956   4.537
 3561SOL     OW10831   3.299   1.161   4.588
 3561SOL    HW110832   3.230   1.096   4.573
 3561SOL    HW210833   3.339   1.173   4.502
 3562SOL     OW10834   3.325   0.607   4.698
 3562SOL    HW110835   3.273   0.527   4.696
 3562SOL    HW210836   3.382   0.596   4.774
 3563SOL     OW10837   3.531   1.252   4.407
 3563SOL    HW110838   3.626   1.259   4.398
 3563SOL    HW210839   3.501   1.342   4.418
 3564SOL     OW10840   3.255   0.572   3.803
 3564SOL    HW110841   3.189   0.556   3.870
 3564SOL    HW210842   3.326   0.510   3.824
 3565SOL     OW10843   2.392   0.273   4.050
 3565SOL    HW110844   2.416   0.216   3.976
 3565SOL    HW210845   2.371   0.357   4.009
 3566SOL     OW10846   3.614   1.240   5.293
 3566SOL    HW110847   3.702   1.203   5.285
 3566SOL    HW210848   3.629   1.330   5.323
 3567SOL     OW10849   2.918   1.356   5.059
 3567SOL    HW110850   2.843   1.324   5.109
 3567SOL    HW210851   2.993   1.313   5.099
 3568SOL     OW10852   3.468   1.625   5.377
 3568SOL    HW110853   3.465   1.659   5.288
 3568SOL    HW210854   3.551   1.577   5.381
 3569SOL     OW10855   2.993   1.208   4.830
 3569SOL    HW110856   2.930   1.243   4.893
 3569SOL    HW210857   2.962   1.239   4.745
 3570SOL     OW10858   3.485   1.096   4.802
 3570SOL    HW110859   3.479   1.158   4.875
 3570SOL    HW210860   3.408   1.114   4.749
 3571SOL     OW10861   2.758   0.092   5.128
 3571SOL    HW110862   2.783   0.061   5.041
 3571SOL    HW210863   2.837   0.135   5.161
 3572SOL     OW10864   2.847   1.114   5.451
 3572SOL    HW110865   2.755   1.129   5.473
 3572SOL    HW210866   2.846   1.037   5.394
 3573SOL     OW10867   2.283   0.818   4.974
 3573SOL    HW110868   2.351   0.825   5.042
 3573SOL    HW210869   2.248   0.729   4.986
 3574SOL     OW10870   3.122   0.377   5.004
 3574SOL    HW110871   3.153   0.459   5.043
 3574SOL    HW210872   3.035   0.396   4.972
 3575SOL     OW10873   1.933   1.577   5.079
 3575SOL    HW110874   1.902   1.644   5.019
 3575SOL    HW210875   2.028   1.578   5.070
 3576SOL     OW10876   2.422   0.525   4.579
 3576SOL    HW110877   2.431   0.582   4.503
 3576SOL    HW210878   2.484   0.559   4.642
 3577SOL     OW10879   3.099   1.372   4.126
 3577SOL    HW110880   3.130   1.400   4.212
 3577SOL    HW210881   3.009   1.344   4.141
 3578SOL     OW10882   3.139   1.460   4.877
 3578SOL    HW110883   3.197   1.462   4.953
 3578SOL    HW210884   3.087   1.380   4.889
 3579SOL     OW10885   3.449   0.620   4.216
 3579SOL    HW110886   3.396   0.687   4.261
 3579SOL    HW210887   3.488   0.667   4.142
 3580SOL     OW10888   2.207   1.530   5.036
 3580SOL    HW110889   2.195   1.485   4.952
 3580SOL    HW210890   2.302   1.541   5.044
 3581SOL     OW10891   2.276   0.744   5.326
 3581SOL    HW110892   2.339   0.788   5.269
 3581SOL    HW210893   2.314   0.656   5.339
 3582SOL     OW10894   3.464   0.778   5.407
 3582SOL    HW110895   3.378   0.820   5.400
 3582SOL    HW210896   3.517   0.819   5.339
 3583SOL     OW10897   2.863   0.121   5.502
 3583SOL    HW110898   2.918   0.196   5.478
 3583SOL    HW210899   2.859   0.068   5.423
 3584SOL     OW10900   2.336   0.041   5.474
 3584SOL    HW110901   2.348   0.026   5.380
 3584SOL    HW210902   2.287   0.123   5.479
 3585SOL     OW10903   2.447   0.875   4.755
 3585SOL    HW110904   2.475   0.966   4.757
 3585SOL    HW210905   2.389   0.866   4.830
 3586SOL     OW10906   3.215   0.857   4.751
 3586SOL    HW110907   3.133   0.848   4.702
 3586SOL    HW210908   3.258   0.772   4.742
 3587SOL     OW10909   3.053   0.518   3.983
 3587SOL    HW110910   3.067   0.444   4.042
 3587SOL    HW210911   3.048   0.594   4.041
 3588SOL     OW10912   2.154   0.224   4.976
 3588SOL    HW110913   2.113   0.231   5.062
 3588SOL    HW210914   2.150   0.131   4.955
 3589SOL     OW10915   1.904   1.312   5.001
 3589SOL    HW110916   1.939   1.258   5.072
 3589SOL    HW210917   1.911   1.402   5.034
 3590SOL     OW10918   2.585   0.632   4.779
 3590SOL    HW110919   2.662   0.616   4.724
 3590SOL    HW210920   2.557   0.721   4.757
 3591SOL     OW10921   3.604   0.959   5.572
 3591SOL    HW110922   3.554   0.895   5.521
 3591SOL    HW210923   3.546   0.981   5.646
 3592SOL     OW10924   2.178   0.050   4.378
 3592SOL    HW110925   2.168   0.144   4.394
 3592SOL    HW210926   2.091   0.014   4.389
 3593SOL     OW10927   3.480   0.383   4.086
 3593SOL    HW110928   3.502   0.313   4.147
 3593SOL    HW210929   3.455   0.457   4.142
 3594SOL     OW10930   2.893   0.760   4.686
 3594SOL    HW110931   2.888   0.778   4.780
 3594SOL    HW210932   2.866   0.669   4.678
 3595SOL     OW10933   2.841   1.563   5.440
 3595SOL    HW110934   2.826   1.610   5.358
 3595SOL    HW210935   2.890   1.485   5.415
 3596SOL     OW10936   3.715   1.503   5.329
 3596SOL    HW110937   3.735   1.531   5.240
 3596SOL    HW210938   3.796   1.521   5.378
 3597SOL     OW10939   2.218   0.911   5.538
 3597SOL    HW110940   2.303   0.935   5.574
 3597SOL    HW210941   2.238   0.849   5.468
 3598SOL     OW10942   3.346   0.314   3.856
 3598SOL    HW110943   3.290   0.240   3.879
 3598SOL    HW210944   3.404   0.325   3.931
 3599SOL     OW10945   3.134   0.805   3.735
 3599SOL    HW110946   3.171   0.718   3.745
 3599SOL    HW210947   3.210   0.864   3.731
 3600SOL     OW10948   2.931   1.342   4.581
 3600SOL    HW110949   2.932   1.267   4.522
 3600SOL    HW210950   2.995   1.403   4.544
 3601SOL     OW10951   2.167   0.813   4.668
 3601SOL    HW110952   2.260   0.831   4.660
 3601SOL    HW210953   2.164   0.723   4.702
 3602SOL     OW10954   2.204   0.539   4.740
 3602SOL    HW110955   2.155   0.459   4.721
 3602SOL    HW210956   2.277   0.537   4.679
 3603SOL     OW10957   2.994   0.376   5.417
 3603SOL    HW110958   2.949   0.436   5.476
 3603SOL    HW210959   3.082   0.413   5.409
 3604SOL     OW10960   2.998   0.205   5.206
 3604SOL    HW110961   2.989   0.270   5.276
 3604SOL    HW210962   3.011   0.256   5.127
 3605SOL     OW10963   1.956   1.793   4.668
 3605SOL    HW110964   1.923   1.713   4.627
 3605SOL    HW210965   2.045   1.803   4.633
 3606SOL     OW10966   2.359   1.575   4.631
 3606SOL    HW110967   2.429   1.637   4.654
 3606SOL    HW210968   2.401   1.511   4.573
 3607SOL     OW10969   2.839   0.793   4.952
 3607SOL    HW110970   2.897   0.771   5.025
 3607SOL    HW210971   2.756   0.752   4.974
 3608SOL     OW10972   1.895   0.547   4.841
 3608SOL    HW110973   1.964   0.506   4.788
 3608SOL    HW210974   1.931   0.547   4.930
 3609SOL     OW10975   2.060   0.521   5.448
 3609SOL    HW110976   2.121   0.489   5.382
 3609SOL    HW210977   2.016   0.595   5.407
 3610SOL     OW10978   3.239   0.938   5.382
 3610SOL    HW110979   3.261   1.031   5.379
 3610SOL    HW210980   3.235   0.912   5.290
 3611SOL     OW10981   2.681   0.572   4.084
 3611SOL    HW110982   2.686   0.510   4.011
 3611SOL    HW210983   2.590   0.601   4.084
 3612SOL     OW10984   3.501   0.601   4.911
 3612SOL    HW110985   3.495   0.542   4.986
 3612SOL    HW210986   3.588   0.585   4.875
 3613SOL     OW10987   2.103   1.551   5.453
 3613SOL    HW110988   2.079   1.617   5.518
 3613SOL    HW210989   2.106   1.469   5.502
 3614SOL     OW10990   2.562   0.461   4.989
 3614SOL    HW110991   2.501   0.390   4.970
 3614SOL    HW210992   2.557   0.518   4.912
 3615SOL     OW10993   2.786   1.679   5.192
 3615SOL    HW110994   2.762   1.643   5.107
 3615SOL    HW210995   2.780   1.774   5.180
 3616SOL     OW10996   2.331   0.504   3.917
 3616SOL    HW110997   2.390   0.577   3.903
 3616SOL    HW210998   2.243   0.541   3.910
 3617SOL     OW10999   2.005   1.142   5.198
 3617SOL    HW111000   2.008   1.091   5.280
 3617SOL    HW211001   2.021   1.077   5.129
 3618SOL     OW11002   3.187   1.046   4.946
 3618SOL    HW111003   3.209   0.983   4.878
 3618SOL    HW211004   3.118   1.100   4.906
 3619SOL     OW11005   3.172   0.781   4.048
 3619SOL    HW111006   3.086   0.788   4.091
 3619SOL    HW211007   3.158   0.821   3.962
 3620SOL     OW11008   3.639   1.743   4.877
 3620SOL    HW111009   3.699   1.769   4.807
 3620SOL    HW211010   3.613   1.653   4.855
 3621SOL     OW11011   3.099   1.731   4.829
 3621SOL    HW111012   3.185   1.754   4.792
 3621SOL    HW211013   3.107   1.640   4.855
 3622SOL     OW11014   1.946   1.266   4.735
 3622SOL    HW111015   1.928   1.281   4.828
 3622SOL    HW211016   1.873   1.212   4.705
 3623SOL     OW11017   2.539   1.670   5.459
 3623SOL    HW111018   2.482   1.747   5.452
 3623SOL    HW211019   2.604   1.683   5.390
 3624SOL     OW11020   3.574   0.143   4.201
 3624SOL    HW111021   3.666   0.126   4.180
 3624SOL    HW211022   3.557   0.087   4.277
 3625SOL     OW11023   2.001   1.797   5.567
 3625SOL    HW111024   1.949   1.735   5.617
 3625SOL    HW211025   2.053   1.843   5.633
 3626SOL     OW11026   3.137   0.923   4.397
 3626SOL    HW111027   3.211   0.864   4.406
 3626SOL    HW211028   3.169   0.995   4.342
 3627SOL     OW11029   2.671   1.276   5.151
 3627SOL    HW111030   2.643   1.315   5.234
 3627SOL    HW211031   2.599   1.296   5.090
 3628SOL     OW11032   3.485   1.727   5.114
 3628SOL    HW111033   3.538   1.732   5.034
 3628SOL    HW211034   3.471   1.818   5.140
 3629SOL     OW11035   3.710   0.142   4.689
 3629SOL    HW111036   3.727   0.069   4.630
 3629SOL    HW211037   3.624   0.175   4.661
 3630SOL     OW11038   2.122   0.314   4.442
 3630SOL    HW111039   2.041   0.352   4.410
 3630SOL    HW211040   2.115   0.317   4.538
 3631SOL     OW11041   2.685   1.006   5.096
 3631SOL    HW111042   2.730   0.998   5.012
 3631SOL    HW211043   2.684   1.100   5.114
 3632SOL     OW11044   2.230   1.306   5.217
 3632SOL    HW111045   2.217   1.382   5.160
 3632SOL    HW211046   2.155   1.250   5.199
 3633SOL     OW11047   3.469   1.280   5.008
 3633SOL    HW111048   3.532   1.270   5.080
 3633SOL    HW211049   3.410   1.349   5.037
 3634SOL     OW11050   2.914   1.116   4.433
 3634SOL    HW111051   2.845   1.063   4.474
 3634SOL    HW211052   2.968   1.052   4.386
 3635SOL     OW11053   2.921   0.240   4.673
 3635SOL    HW111054   2.909   0.180   4.599
 3635SOL    HW211055   2.845   0.223   4.729
 3636SOL     OW11056   2.465   1.463   4.198
 3636SOL    HW111057   2.550   1.477   4.156
 3636SOL    HW211058   2.421   1.548   4.192
 3637SOL     OW11059   3.580   0.401   5.101
 3637SOL    HW111060   3.659   0.456   5.100
 3637SOL    HW211061   3.604   0.324   5.051
 3638SOL     OW11062   1.980   1.029   5.449
 3638SOL    HW111063   1.901   1.003   5.495
 3638SOL    HW211064   2.051   0.984   5.495
 3639SOL     OW11065   2.529   0.230   5.222
 3639SOL    HW111066   2.597   0.175   5.182
 3639SOL    HW211067   2.556   0.239   5.314
 3640SOL     OW11068   1.944   0.340   3.772
 3640SOL    HW111069   1.850   0.322   3.763
 3640SOL    HW211070   1.959   0.414   3.713
 3641SOL     OW11071   3.291   0.858   5.123
 3641SOL    HW111072   3.242   0.919   5.068
 3641SOL    HW211073   3.380   0.860   5.088
 3642SOL     OW11074   1.953   0.165   4.068
 3642SOL    HW111075   1.946   0.241   4.009
 3642SOL    HW211076   2.031   0.119   4.038
 3643SOL     OW11077   2.483   0.829   5.161
 3643SOL    HW111078   2.538   0.905   5.143
 3643SOL    HW211079   2.545   0.756   5.170
 3644SOL     OW11080   3.346   1.776   4.708
 3644SOL    HW111081   3.377   1.838   4.642
 3644SOL    HW211082   3.426   1.740   4.747
 3645SOL     OW11083   2.579   0.567   5.433
 3645SOL    HW111084   2.622   0.630   5.491
 3645SOL    HW211085   2.606   0.482   5.467
 3646SOL     OW11086   3.336   1.199   5.353
 3646SOL    HW111087   3.324   1.215   5.447
 3646SOL    HW211088   3.430   1.215   5.338
 3647SOL     OW11089   2.236   1.736   5.286
 3647SOL    HW111090   2.153   1.781   5.269
 3647SOL    HW211091   2.211   1.655   5.330
 3648SOL     OW11092   3.530   0.880   4.979
 3648SOL    HW111093   3.523   0.795   4.937
 3648SOL    HW211094   3.519   0.943   4.908
 3649SOL     OW11095   3.093   0.322   4.179
 3649SOL    HW111096   3.160   0.254   4.171
 3649SOL    HW211097   3.118   0.373   4.255
 3650SOL     OW11098   2.453   0.733   4.391
 3650SOL    HW111099   2.490   0.820   4.380
 3650SOL    HW211100   2.385   0.727   4.324
 3651SOL     OW11101   3.621   0.366   5.371
 3651SOL    HW111102   3.603   0.379   5.278
 3651SOL    HW211103   3.552   0.307   5.401
 3652SOL     OW11104   3.611   0.935   5.237
 3652SOL    HW111105   3.601   1.030   5.250
 3652SOL    HW211106   3.594   0.922   5.144
 3653SOL     OW11107   2.529   1.791   4.665
 3653SOL    HW111108   2.502   1.880   4.643
 3653SOL    HW211109   2.624   1.793   4.659
 3654SOL     OW11110   2.735   0.970   4.585
 3654SOL    HW111111   2.784   0.897   4.621
 3654SOL    HW211112   2.698   1.014   4.662
 3655SOL     OW11113   2.906   0.944   3.773
 3655SOL    HW111114   2.937   1.029   3.804
 3655SOL    HW211115   2.986   0.892   3.763
 3656SOL     OW11116   3.713   1.566   4.575
 3656SOL    HW111117   3.683   1.564   4.485
 3656SOL    HW211118   3.695   1.479   4.609
 3657SOL     OW11119   2.079   1.299   5.582
 3657SOL    HW111120   2.030   1.231   5.536
 3657SOL    HW211121   2.025   1.321   5.658
 3658SOL     OW11122   1.942   1.222   4.377
 3658SOL    HW111123   1.978   1.181   4.456
 3658SOL    HW211124   2.001   1.196   4.307
 3659SOL     OW11125   2.544   1.405   5.356
 3659SOL    HW111126   2.463   1.364   5.385
 3659SOL    HW211127   2.540   1.494   5.392
 3660SOL     OW11128   3.666   0.183   4.960
 3660SOL    HW111129   3.679   0.095   4.994
 3660SOL    HW211130   3.688   0.177   4.867
 3661SOL     OW11131   2.301   0.434   4.259
 3661SOL    HW111132   2.325   0.363   4.199
 3661SOL    HW211133   2.245   0.392   4.324
 3662SOL     OW11134   3.554   1.490   4.830
 3662SOL    HW111135   3.479   1.466   4.777
 3662SOL    HW211136   3.566   1.416   4.890
 3663SOL     OW11137   2.197   0.558   5.018
 3663SOL    HW111138   2.249   0.498   5.071
 3663SOL    HW211139   2.213   0.531   4.928
 3664SOL     OW11140   3.297   0.222   4.847
 3664SOL    HW111141   3.341   0.164   4.909
 3664SOL    HW211142   3.235   0.273   4.900
 3665SOL     OW11143   2.882   0.007   4.890
 3665SOL    HW111144   2.821   5.964   4.830
 3665SOL    HW211145   2.958   0.027   4.836
 3666SOL     OW11146   2.483   1.555   5.010
 3666SOL    HW111147   2.484   1.636   5.060
 3666SOL    HW211148   2.570   1.549   4.971
 3667SOL     OW11149   3.206   0.068   3.885
 3667SOL    HW111150   3.261   5.993   3.864
 3667SOL    HW211151   3.123   0.030   3.912
 3668SOL     OW11152   3.158   0.463   4.402
 3668SOL    HW111153   3.105   0.543   4.409
 3668SOL    HW211154   3.163   0.430   4.492
 3669SOL     OW11155   3.461   0.227   4.617
 3669SOL    HW111156   3.398   0.234   4.689
 3669SOL    HW211157   3.452   0.308   4.568
 3670SOL     OW11158   2.083   0.612   5.716
 3670SOL    HW111159   1.993   0.631   5.745
 3670SOL    HW211160   2.076   0.597   5.622
 3671SOL     OW11161   3.642   0.598   5.810
 3671SOL    HW111162   3.610   0.591   5.720
 3671SOL    HW211163   3.601   0.525   5.857
 3672SOL     OW11164   2.097   1.729   0.041
 3672SOL    HW111165   2.109   1.799   0.105
 3672SOL    HW211166   2.181   1.724   5.995
 3673SOL     OW11167   2.467   0.980   5.725
 3673SOL    HW111168   2.498   1.037   5.654
 3673SOL    HW211169   2.538   0.980   5.788
 3674SOL     OW11170   3.686   1.767   5.918
 3674SOL    HW111171   3.713   1.709   5.988
 3674SOL    HW211172   3.755   1.833   5.913
 3675SOL     OW11173   1.895   1.598   5.713
 3675SOL    HW111174   1.875   1.506   5.735
 3675SOL    HW211175   1.856   1.648   5.784
 3676SOL     OW11176   3.568   0.877   0.168
 3676SOL    HW111177   3.646   0.913   0.210
 3676SOL    HW211178   3.541   0.944   0.106
 3677SOL     OW11179   3.539   1.093   6.000
 3677SOL    HW111180   3.628   1.110   5.966
 3677SOL    HW211181   3.511   1.178   0.034
 3678SOL     OW11182   3.406   1.003   5.770
 3678SOL    HW111183   3.354   0.924   5.785
 3678SOL    HW211184   3.440   1.026   5.857
 3679SOL     OW11185   2.441   0.728   5.850
 3679SOL    HW111186   2.457   0.802   5.792
 3679SOL    HW211187   2.410   0.768   5.932
 3680SOL     OW11188   2.709   0.372   5.723
 3680SOL    HW111189   2.786   0.420   5.692
 3680SOL    HW211190   2.745   0.303   5.779
 3681SOL     OW11191   2.190   0.956   5.833
 3681SOL    HW111192   2.272   0.968   5.784
 3681SOL    HW211193   2.150   0.879   5.793
 3682SOL     OW11194   2.979   1.772   5.822
 3682SOL    HW111195   2.894   1.735   5.846
 3682SOL    HW211196   3.004   1.723   5.743
 3683SOL     OW11197   3.495   1.385   5.675
 3683SOL    HW111198   3.454   1.471   5.664
 3683SOL    HW211199   3.425   1.323   5.655
 3684SOL     OW11200   2.343   1.758   5.915
 3684SOL    HW111201   2.392   1.813   5.976
 3684SOL    HW211202   2.409   1.726   5.854
 3685SOL     OW11203   2.480   0.084   5.697
 3685SOL    HW111204   2.569   0.050   5.686
 3685SOL    HW211205   2.441   0.076   5.610
 3686SOL     OW11206   3.288   1.205   5.624
 3686SOL    HW111207   3.325   1.133   5.675
 3686SOL    HW211208   3.203   1.222   5.665
 3687SOL     OW11209   2.180   0.036   5.766
 3687SOL    HW111210   2.241   0.085   5.711
 3687SOL    HW211211   2.234   5.968   5.808
 3688SOL     OW11212   2.893   0.548   5.607
 3688SOL    HW111213   2.847   0.631   5.594
 3688SOL    HW211214   2.956   0.566   5.676
 3689SOL     OW11215   3.749   0.815   5.934
 3689SOL    HW111216   3.771   0.779   0.020
 3689SOL    HW211217   3.699   0.745   5.892
 3690SOL     OW11218   2.350   1.414   5.743
 3690SOL    HW111219   2.278   1.388   5.800
 3690SOL    HW211220   2.333   1.371   5.659
 3691SOL     OW11221   3.569   1.298   0.297
 3691SOL    HW111222   3.641   1.257   0.250
 3691SOL    HW211223   3.516   1.340   0.229
 3692SOL     OW11224   3.268   0.582   5.651
 3692SOL    HW111225   3.198   0.564   5.715
 3692SOL    HW211226   3.337   0.520   5.675
 3693SOL     OW11227   2.396   0.253   5.895
 3693SOL    HW111228   2.408   0.206   5.812
 3693SOL    HW211229   2.377   0.344   5.869
 3694SOL     OW11230   2.247   1.118   0.042
 3694SOL    HW111231   2.199   1.196   0.018
 3694SOL    HW211232   2.225   1.053   5.975
 3695SOL     OW11233   3.070   0.526   5.829
 3695SOL    HW111234   3.109   0.450   5.872
 3695SOL    HW211235   3.014   0.566   5.896
 3696SOL     OW11236   3.355   0.313   5.708
 3696SOL    HW111237   3.291   0.245   5.729
 3696SOL    HW211238   3.432   0.290   5.761
 3697SOL     OW11239   3.172   0.841   5.631
 3697SOL    HW111240   3.208   0.752   5.633
 3697SOL    HW211241   3.195   0.874   5.544
 3698SOL     OW11242   1.880   1.321   5.775
 3698SOL    HW111243   1.790   1.336   5.744
 3698SOL    HW211244   1.879   1.232   5.809
 3699SOL     OW11245   2.679   0.598   5.899
 3699SOL    HW111246   2.669   0.518   5.847
 3699SOL    HW211247   2.594   0.641   5.890
 3700SOL     OW11248   2.322   0.489   5.780
 3700SOL    HW111249   2.376   0.565   5.801
 3700SOL    HW211250   2.235   0.526   5.761
 3701SOL     OW11251   3.590   0.122   0.064
 3701SOL    HW111252   3.674   0.077   0.067
 3701SOL    HW211253   3.538   0.083   0.134
 3702SOL     OW11254   2.538   1.614   5.743
 3702SOL    HW111255   2.543   1.633   5.649
 3702SOL    HW211256   2.474   1.543   5.749
 3703SOL     OW11257   3.062   1.607   5.617
 3703SOL    HW111258   3.055   1.514   5.641
 3703SOL    HW211259   3.000   1.618   5.546
 3704SOL     OW11260   2.733   0.916   5.832
 3704SOL    HW111261   2.814   0.946   5.790
 3704SOL    HW211262   2.761   0.844   5.889
 3705SOL     OW11263   3.344   1.623   5.626
 3705SOL    HW111264   3.250   1.619   5.608
 3705SOL    HW211265   3.385   1.631   5.539
 3706SOL     OW11266   2.896   1.154   0.299
 3706SOL    HW111267   2.847   1.093   0.354
 3706SOL    HW211268   2.942   1.098   0.236
 3707SOL     OW11269   2.126   1.357   5.916
 3707SOL    HW111270   2.041   1.342   5.875
 3707SOL    HW211271   2.113   1.436   5.969
 3708SOL     OW11272   1.940   0.328   5.609
 3708SOL    HW111273   1.845   0.331   5.601
 3708SOL    HW211274   1.971   0.406   5.563
 3709SOL     OW11275   1.995   0.176   5.906
 3709SOL    HW111276   1.928   0.203   5.844
 3709SOL    HW211277   2.055   0.122   5.855
 3710SOL     OW11278   3.033   1.339   5.706
 3710SOL    HW111279   2.941   1.311   5.702
 3710SOL    HW211280   3.057   1.330   5.798
 3711SOL     OW11281   3.125   0.332   0.017
 3711SOL    HW111282   3.165   0.254   0.054
 3711SOL    HW211283   3.131   0.398   0.086
 3712SOL     OW11284   2.727   1.375   5.623
 3712SOL    HW111285   2.685   1.422   5.696
 3712SOL    HW211286   2.750   1.444   5.561
 3713SOL     OW11287   2.949   0.994   5.686
 3713SOL    HW111288   2.929   1.038   5.603
 3713SOL    HW211289   3.026   0.941   5.666
 3714SOL     OW11290   3.209   0.074   5.718
 3714SOL    HW111291   3.265   5.997   5.714
 3714SOL    HW211292   3.140   0.051   5.780
 3715SOL     OW11293   1.930   1.075   5.881
 3715SOL    HW111294   2.023   1.061   5.863
 3715SOL    HW211295   1.896   0.987   5.898
 3716SOL     OW11296   2.745   1.653   5.924
 3716SOL    HW111297   2.675   1.642   5.859
 3716SOL    HW211298   2.711   1.718   5.985
 3717SOL     OW11299   2.081   2.497   0.131
 3717SOL    HW111300   2.000   2.466   0.171
 3717SOL    HW211301   2.075   2.469   0.040
 3718SOL     OW11302   2.088   2.142   0.993
 3718SOL    HW111303   2.115   2.108   1.078
 3718SOL    HW211304   1.998   2.111   0.982
 3719SOL     OW11305   1.864   2.247   0.639
 3719SOL    HW111306   1.780   2.269   0.680
 3719SOL    HW211307   1.845   2.169   0.586
 3720SOL     OW11308   2.428   3.157   1.178
 3720SOL    HW111309   2.342   3.162   1.136
 3720SOL    HW211310   2.445   3.245   1.209
 3721SOL     OW11311   3.427   3.376   0.708
 3721SOL    HW111312   3.384   3.353   0.791
 3721SOL    HW211313   3.356   3.380   0.644
 3722SOL     OW11314   2.993   2.560   0.697
 3722SOL    HW111315   3.042   2.641   0.686
 3722SOL    HW211316   2.946   2.571   0.780
 3723SOL     OW11317   3.649   2.455   0.245
 3723SOL    HW111318   3.601   2.469   0.163
 3723SOL    HW211319   3.607   2.379   0.285
 3724SOL     OW11320   2.615   3.002   1.045
 3724SOL    HW111321   2.547   3.038   1.103
 3724SOL    HW211322   2.650   3.079   1.000
 3725SOL     OW11323   2.714   2.694   1.807
 3725SOL    HW111324   2.779   2.730   1.867
 3725SOL    HW211325   2.747   2.715   1.720
 3726SOL     OW11326   2.548   2.863   0.646
 3726SOL    HW111327   2.613   2.852   0.716
 3726SOL    HW211328   2.479   2.915   0.687
 3727SOL     OW11329   2.550   3.035   1.703
 3727SOL    HW111330   2.589   3.034   1.790
 3727SOL    HW211331   2.458   3.013   1.718
 3728SOL     OW11332   2.191   3.283   1.069
 3728SOL    HW111333   2.117   3.245   1.021
 3728SOL    HW211334   2.238   3.334   1.003
 3729SOL     OW11335   3.325   3.365   1.356
 3729SOL    HW111336   3.381   3.443   1.360
 3729SOL    HW211337   3.259   3.380   1.424
 3730SOL     OW11338   2.320   2.255   1.485
 3730SOL    HW111339   2.391   2.192   1.495
 3730SOL    HW211340   2.241   2.205   1.504
 3731SOL     OW11341   3.470   2.308   0.741
 3731SOL    HW111342   3.396   2.331   0.685
 3731SOL    HW211343   3.484   2.386   0.795
 3732SOL     OW11344   2.081   3.574   0.474
 3732SOL    HW111345   2.101   3.652   0.526
 3732SOL    HW211346   2.157   3.563   0.417
 3733SOL     OW11347   2.088   3.302   0.532
 3733SOL    HW111348   2.071   3.396   0.539
 3733SOL    HW211349   2.032   3.262   0.599
 3734SOL     OW11350   2.122   2.950   0.893
 3734SOL    HW111351   2.119   2.863   0.931
 3734SOL    HW211352   2.063   3.003   0.947
 3735SOL     OW11353   2.476   3.660   1.422
 3735SOL    HW111354   2.398   3.644   1.476
 3735SOL    HW211355   2.508   3.746   1.451
 3736SOL     OW11356   2.472   2.825   0.132
 3736SOL    HW111357   2.424   2.896   0.088
 3736SOL    HW211358   2.512   2.867   0.208
 3737SOL     OW11359   3.457   1.989   1.469
 3737SOL    HW111360   3.471   2.069   1.420
 3737SOL    HW211361   3.442   2.018   1.559
 3738SOL     OW11362   1.988   2.505   0.568
 3738SOL    HW111363   1.950   2.419   0.586
 3738SOL    HW211364   1.974   2.554   0.649
 3739SOL     OW11365   3.709   3.623   0.335
 3739SOL    HW111366   3.775   3.592   0.397
 3739SOL    HW211367   3.728   3.716   0.325
 3740SOL     OW11368   1.836   3.447   0.126
 3740SOL    HW111369   1.858   3.359   0.157
 3740SOL    HW211370   1.860   3.504   0.199
 3741SOL     OW11371   3.555   2.764   0.654
 3741SOL    HW111372   3.639   2.722   0.635
 3741SOL    HW211373   3.535   2.814   0.575
 3742SOL     OW11374   3.500   2.952   0.457
 3742SOL    HW111375   3.534   3.012   0.390
 3742SOL    HW211376   3.505   3.002   0.538
 3743SOL     OW11377   1.972   2.595   1.592
 3743SOL    HW111378   2.047   2.625   1.642
 3743SOL    HW211379   1.918   2.673   1.580
 3744SOL     OW11380   2.477   3.250   0.734
 3744SOL    HW111381   2.432   3.166   0.744
 3744SOL    HW211382   2.461   3.276   0.644
 3745SOL     OW11383   3.151   3.100   1.438
 3745SOL    HW111384   3.174   3.038   1.370
 3745SOL    HW211385   3.220   3.092   1.504
 3746SOL     OW11386   2.682   1.864   0.514
 3746SOL    HW111387   2.721   1.948   0.491
 3746SOL    HW211388   2.589   1.883   0.524
 3747SOL     OW11389   2.048   2.827   1.267
 3747SOL    HW111390   2.133   2.786   1.256
 3747SOL    HW211391   1.988   2.772   1.217
 3748SOL     OW11392   3.327   2.898   0.227
 3748SOL    HW111393   3.271   2.826   0.255
 3748SOL    HW211394   3.403   2.894   0.286
 3749SOL     OW11395   3.064   3.670   1.614
 3749SOL    HW111396   3.061   3.727   1.537
 3749SOL    HW211397   3.070   3.582   1.578
 3750SOL     OW11398   3.330   3.281   0.950
 3750SOL    HW111399   3.261   3.297   1.015
 3750SOL    HW211400   3.317   3.189   0.924
 3751SOL     OW11401   3.519   3.606   0.579
 3751SOL    HW111402   3.501   3.575   0.490
 3751SOL    HW211403   3.497   3.532   0.635
 3752SOL     OW11404   2.459   2.582   0.269
 3752SOL    HW111405   2.469   2.664   0.220
 3752SOL    HW211406   2.394   2.603   0.336
 3753SOL     OW11407   3.141   2.220   0.934
 3753SOL    HW111408   3.051   2.187   0.943
 3753SOL    HW211409   3.192   2.165   0.993
 3754SOL     OW11410   3.445   3.534   0.310
 3754SOL    HW111411   3.538   3.554   0.305
 3754SOL    HW211412   3.419   3.515   0.220
 3755SOL     OW11413   2.647   2.471   1.475
 3755SOL    HW111414   2.635   2.429   1.561
 3755SOL    HW211415   2.612   2.408   1.412
 3756SOL     OW11416   3.258   2.342   1.684
 3756SOL    HW111417   3.263   2.392   1.766
 3756SOL    HW211418   3.310   2.264   1.701
 3757SOL     OW11419   2.833   2.758   1.570
 3757SOL    HW111420   2.880   2.681   1.537
 3757SOL    HW211421   2.778   2.786   1.497
 3758SOL     OW11422   2.854   2.273   1.235
 3758SOL    HW111423   2.767   2.292   1.270
 3758SOL    HW211424   2.837   2.227   1.153
 3759SOL     OW11425   2.917   2.556   0.427
 3759SOL    HW111426   2.934   2.553   0.521
 3759SOL    HW211427   2.834   2.509   0.417
 3760SOL     OW11428   1.951   2.682   0.777
 3760SOL    HW111429   2.032   2.676   0.827
 3760SOL    HW211430   1.907   2.760   0.813
 3761SOL     OW11431   1.982   3.668   1.559
 3761SOL    HW111432   1.970   3.664   1.654
 3761SOL    HW211433   1.911   3.725   1.529
 3762SOL     OW11434   2.750   2.212   0.203
 3762SOL    HW111435   2.804   2.264   0.143
 3762SOL    HW211436   2.746   2.125   0.162
 3763SOL     OW11437   3.236   3.004   0.541
 3763SOL    HW111438   3.314   2.985   0.489
 3763SOL    HW211439   3.187   3.067   0.488
 3764SOL     OW11440   2.412   2.043   0.894
 3764SOL    HW111441   2.414   2.072   0.985
 3764SOL    HW211442   2.412   2.124   0.843
 3765SOL     OW11443   2.873   3.313   0.476
 3765SOL    HW111444   2.832   3.382   0.424
 3765SOL    HW211445   2.844   3.330   0.566
 3766SOL     OW11446   2.218   3.674   0.866
 3766SOL    HW111447   2.263   3.589   0.873
 3766SOL    HW211448   2.287   3.738   0.884
 3767SOL     OW11449   3.666   2.917   0.872
 3767SOL    HW111450   3.613   2.898   0.794
 3767SOL    HW211451   3.602   2.922   0.943
 3768SOL     OW11452   3.090   3.400   1.505
 3768SOL    HW111453   3.091   3.308   1.531
 3768SOL    HW211454   3.014   3.408   1.448
 3769SOL     OW11455   2.172   2.810   0.261
 3769SOL    HW111456   2.220   2.852   0.190
 3769SOL    HW211457   2.163   2.719   0.233
 3770SOL     OW11458   3.340   2.605   0.726
 3770SOL    HW111459   3.336   2.564   0.812
 3770SOL    HW211460   3.420   2.657   0.728
 3771SOL     OW11461   2.274   3.057   1.729
 3771SOL    HW111462   2.267   3.091   1.640
 3771SOL    HW211463   2.248   3.130   1.785
 3772SOL     OW11464   2.970   3.642   0.220
 3772SOL    HW111465   2.912   3.594   0.279
 3772SOL    HW211466   3.012   3.575   0.167
 3773SOL     OW11467   2.060   2.146   1.505
 3773SOL    HW111468   1.990   2.208   1.487
 3773SOL    HW211469   2.047   2.120   1.597
 3774SOL     OW11470   3.478   3.234   0.050
 3774SOL    HW111471   3.463   3.328   0.044
 3774SOL    HW211472   3.395   3.195   0.022
 3775SOL     OW11473   2.328   3.597   0.333
 3775SOL    HW111474   2.374   3.653   0.396
 3775SOL    HW211475   2.394   3.577   0.266
 3776SOL     OW11476   3.267   1.970   0.433
 3776SOL    HW111477   3.262   1.948   0.340
 3776SOL    HW211478   3.360   1.979   0.451
 3777SOL     OW11479   2.115   3.653   1.227
 3777SOL    HW111480   2.170   3.588   1.270
 3777SOL    HW211481   2.107   3.621   1.137
 3778SOL     OW11482   2.800   3.561   0.900
 3778SOL    HW111483   2.880   3.511   0.920
 3778SOL    HW211484   2.757   3.510   0.831
 3779SOL     OW11485   2.256   2.556   0.475
 3779SOL    HW111486   2.279   2.463   0.486
 3779SOL    HW211487   2.163   2.561   0.497
 3780SOL     OW11488   3.389   2.086   1.746
 3780SOL    HW111489   3.398   2.066   1.839
 3780SOL    HW211490   3.315   2.032   1.717
 3781SOL     OW11491   2.481   1.944   0.104
 3781SOL    HW111492   2.577   1.951   0.106
 3781SOL    HW211493   2.453   2.010   0.041
 3782SOL     OW11494   2.738   3.384   1.192
 3782SOL    HW111495   2.723   3.347   1.105
 3782SOL    HW211496   2.810   3.332   1.228
 3783SOL     OW11497   3.206   2.452   1.433
 3783SOL    HW111498   3.236   2.422   1.519
 3783SOL    HW211499   3.240   2.540   1.425
 3784SOL     OW11500   2.679   3.255   0.942
 3784SOL    HW111501   2.763   3.244   0.898
 3784SOL    HW211502   2.615   3.259   0.870
 3785SOL     OW11503   2.790   2.371   0.902
 3785SOL    HW111504   2.766   2.362   0.809
 3785SOL    HW211505   2.820   2.283   0.927
 3786SOL     OW11506   2.416   1.929   0.507
 3786SOL    HW111507   2.335   1.927   0.559
 3786SOL    HW211508   2.406   2.005   0.450
 3787SOL     OW11509   3.256   3.075   0.026
 3787SOL    HW111510   3.283   3.008   0.089
 3787SOL    HW211511   3.178   3.114   0.065
 3788SOL     OW11512   2.803   2.110   0.458
 3788SOL    HW111513   2.778   2.151   0.375
 3788SOL    HW211514   2.897   2.124   0.465
 3789SOL     OW11515   2.941   2.536   1.453
 3789SOL    HW111516   2.877   2.468   1.472
 3789SOL    HW211517   3.025   2.491   1.453
 3790SOL     OW11518   3.083   3.435   0.797
 3790SOL    HW111519   3.098   3.498   0.727
 3790SOL    HW211520   3.154   3.451   0.859
 3791SOL     OW11521   2.332   3.014   0.732
 3791SOL    HW111522   2.265   2.993   0.796
 3791SOL    HW211523   2.290   2.997   0.647
 3792SOL     OW11524   3.127   3.658   0.609
 3792SOL    HW111525   3.176   3.721   0.555
 3792SOL    HW211526   3.060   3.711   0.652
 3793SOL     OW11527   2.898   2.405   0.054
 3793SOL    HW111528   2.818   2.441   0.016
 3793SOL    HW211529   2.916   2.462   0.129
 3794SOL     OW11530   1.943   2.407   1.395
 3794SOL    HW111531   2.034   2.410   1.367
 3794SOL    HW211532   1.938   2.471   1.466
 3795SOL     OW11533   2.421   2.090   1.170
 3795SOL    HW111534   2.463   2.014   1.212
 3795SOL    HW211535   2.330   2.086   1.200
 3796SOL     OW11536   2.729   2.321   0.637
 3796SOL    HW111537   2.683   2.375   0.574
 3796SOL    HW211538   2.750   2.241   0.589
 3797SOL     OW11539   2.879   1.915   0.748
 3797SOL    HW111540   2.819   1.907   0.674
 3797SOL    HW211541   2.857   1.841   0.804
 3798SOL     OW11542   3.300   3.021   0.859
 3798SOL    HW111543   3.230   2.957   0.850
 3798SOL    HW211544   3.331   3.035   0.769
 3799SOL     OW11545   3.327   2.468   0.974
 3799SOL    HW111546   3.274   2.389   0.977
 3799SOL    HW211547   3.385   2.461   1.050
 3800SOL     OW11548   3.728   2.679   0.396
 3800SOL    HW111549   3.783   2.624   0.452
 3800SOL    HW211550   3.690   2.619   0.333
 3801SOL     OW11551   2.348   3.276   0.161
 3801SOL    HW111552   2.271   3.250   0.211
 3801SOL    HW211553   2.340   3.227   0.079
 3802SOL     OW11554   3.531   3.120   0.668
 3802SOL    HW111555   3.627   3.125   0.664
 3802SOL    HW211556   3.502   3.211   0.670
 3803SOL     OW11557   3.271   2.437   0.095
 3803SOL    HW111558   3.209   2.427   0.167
 3803SOL    HW211559   3.316   2.353   0.089
 3804SOL     OW11560   2.372   2.113   0.308
 3804SOL    HW111561   2.422   2.065   0.242
 3804SOL    HW211562   2.359   2.200   0.269
 3805SOL     OW11563   3.615   3.098   1.567
 3805SOL    HW111564   3.702   3.064   1.548
 3805SOL    HW211565   3.630   3.187   1.600
 3806SOL     OW11566   2.920   3.215   1.333
 3806SOL    HW111567   2.842   3.183   1.378
 3806SOL    HW211568   2.992   3.169   1.375
 3807SOL     OW11569   3.453   3.468   1.643
 3807SOL    HW111570   3.457   3.513   1.559
 3807SOL    HW211571   3.538   3.425   1.650
 3808SOL     OW11572   2.992   3.071   1.103
 3808SOL    HW111573   2.926   3.106   1.163
 3808SOL    HW211574   2.964   3.102   1.016
 3809SOL     OW11575   3.486   2.956   1.077
 3809SOL    HW111576   3.478   3.019   1.149
 3809SOL    HW211577   3.411   2.974   1.021
 3810SOL     OW11578   2.778   1.959   1.396
 3810SOL    HW111579   2.799   1.939   1.305
 3810SOL    HW211580   2.858   1.997   1.432
 3811SOL     OW11581   2.866   2.992   1.705
 3811SOL    HW111582   2.775   3.008   1.730
 3811SOL    HW211583   2.863   2.914   1.650
 3812SOL     OW11584   2.573   2.926   0.374
 3812SOL    HW111585   2.554   2.911   0.467
 3812SOL    HW211586   2.641   2.863   0.352
 3813SOL     OW11587   2.278   2.678   1.252
 3813SOL    HW111588   2.347   2.688   1.318
 3813SOL    HW211589   2.245   2.589   1.265
 3814SOL     OW11590   3.127   2.240   1.275
 3814SOL    HW111591   3.159   2.316   1.322
 3814SOL    HW211592   3.036   2.261   1.254
 3815SOL     OW11593   1.932   3.434   1.351
 3815SOL    HW111594   1.897   3.509   1.302
 3815SOL    HW211595   2.027   3.445   1.346
 3816SOL     OW11596   2.208   2.972   0.490
 3816SOL    HW111597   2.218   3.043   0.427
 3816SOL    HW211598   2.203   2.893   0.436
 3817SOL     OW11599   2.415   2.395   0.859
 3817SOL    HW111600   2.429   2.453   0.784
 3817SOL    HW211601   2.480   2.421   0.923
 3818SOL     OW11602   3.119   3.213   0.394
 3818SOL    HW111603   3.167   3.288   0.429
 3818SOL    HW211604   3.029   3.226   0.424
 3819SOL     OW11605   3.144   3.321   1.147
 3819SOL    HW111606   3.198   3.323   1.226
 3819SOL    HW211607   3.088   3.244   1.158
 3820SOL     OW11608   3.442   2.486   0.480
 3820SOL    HW111609   3.394   2.538   0.546
 3820SOL    HW211610   3.472   2.551   0.417
 3821SOL     OW11611   2.212   3.395   1.315
 3821SOL    HW111612   2.195   3.352   1.231
 3821SOL    HW211613   2.307   3.407   1.317
 3822SOL     OW11614   3.480   2.646   1.698
 3822SOL    HW111615   3.391   2.681   1.693
 3822SOL    HW211616   3.524   2.682   1.621
 3823SOL     OW11617   2.890   1.963   1.763
 3823SOL    HW111618   2.914   2.047   1.723
 3823SOL    HW211619   2.947   1.899   1.721
 3824SOL     OW11620   2.444   2.736   1.032
 3824SOL    HW111621   2.477   2.826   1.034
 3824SOL    HW211622   2.390   2.729   1.110
 3825SOL     OW11623   3.216   2.721   1.031
 3825SOL    HW111624   3.134   2.711   0.984
 3825SOL    HW211625   3.260   2.636   1.022
 3826SOL     OW11626   3.079   2.383   0.283
 3826SOL    HW111627   3.082   2.304   0.337
 3826SOL    HW211628   3.035   2.448   0.338
 3827SOL     OW11629   2.158   2.060   1.251
 3827SOL    HW111630   2.123   2.091   1.334
 3827SOL    HW211631   2.140   1.966   1.250
 3828SOL     OW11632   1.906   3.172   1.276
 3828SOL    HW111633   1.937   3.120   1.349
 3828SOL    HW211634   1.912   3.263   1.306
 3829SOL     OW11635   2.585   2.494   1.056
 3829SOL    HW111636   2.661   2.479   0.999
 3829SOL    HW211637   2.557   2.583   1.035
 3830SOL     OW11638   2.166   1.926   0.623
 3830SOL    HW111639   2.144   2.017   0.644
 3830SOL    HW211640   2.173   1.882   0.708
 3831SOL     OW11641   3.489   2.241   0.366
 3831SOL    HW111642   3.508   2.173   0.430
 3831SOL    HW211643   3.462   2.317   0.418
 3832SOL     OW11644   2.893   2.620   0.959
 3832SOL    HW111645   2.888   2.638   1.052
 3832SOL    HW211646   2.866   2.528   0.951
 3833SOL     OW11647   2.840   3.390   1.718
 3833SOL    HW111648   2.826   3.469   1.666
 3833SOL    HW211649   2.864   3.323   1.653
 3834SOL     OW11650   3.711   3.363   1.604
 3834SOL    HW111651   3.731   3.392   1.515
 3834SOL    HW211652   3.774   3.410   1.659
 3835SOL     OW11653   3.358   2.173   0.130
 3835SOL    HW111654   3.349   2.078   0.136
 3835SOL    HW211655   3.411   2.196   0.206
 3836SOL     OW11656   3.155   2.674   0.025
 3836SOL    HW111657   3.203   2.594   0.045
 3836SOL    HW211658   3.200   2.711   5.949
 3837SOL     OW11659   2.931   3.199   0.855
 3837SOL    HW111660   2.934   3.128   0.791
 3837SOL    HW211661   2.990   3.265   0.820
 3838SOL     OW11662   2.171   2.672   0.948
 3838SOL    HW111663   2.264   2.693   0.944
 3838SOL    HW211664   2.168   2.581   0.980
 3839SOL     OW11665   2.190   2.392   1.011
 3839SOL    HW111666   2.156   2.303   0.998
 3839SOL    HW211667   2.267   2.396   0.954
 3840SOL     OW11668   2.995   2.251   1.658
 3840SOL    HW111669   2.945   2.293   1.728
 3840SOL    HW211670   3.083   2.288   1.666
 3841SOL     OW11671   3.026   2.059   1.466
 3841SOL    HW111672   3.012   2.124   1.535
 3841SOL    HW211673   3.064   2.109   1.393
 3842SOL     OW11674   1.953   3.647   0.939
 3842SOL    HW111675   1.923   3.568   0.894
 3842SOL    HW211676   2.043   3.660   0.908
 3843SOL     OW11677   2.357   3.435   0.906
 3843SOL    HW111678   2.426   3.497   0.931
 3843SOL    HW211679   2.401   3.373   0.848
 3844SOL     OW11680   2.842   2.654   1.224
 3844SOL    HW111681   2.898   2.626   1.297
 3844SOL    HW211682   2.755   2.621   1.247
 3845SOL     OW11683   1.900   2.408   1.116
 3845SOL    HW111684   1.981   2.399   1.066
 3845SOL    HW211685   1.928   2.407   1.208
 3846SOL     OW11686   3.249   2.803   1.657
 3846SOL    HW111687   3.264   2.897   1.655
 3846SOL    HW211688   3.247   2.777   1.564
 3847SOL     OW11689   2.679   2.434   0.363
 3847SOL    HW111690   2.682   2.358   0.304
 3847SOL    HW211691   2.604   2.485   0.333
 3848SOL     OW11692   3.504   2.466   1.186
 3848SOL    HW111693   3.493   2.404   1.259
 3848SOL    HW211694   3.591   2.446   1.150
 3849SOL     OW11695   2.573   2.313   1.261
 3849SOL    HW111696   2.516   2.240   1.235
 3849SOL    HW211697   2.565   2.376   1.190
 3850SOL     OW11698   2.811   3.535   1.457
 3850SOL    HW111699   2.765   3.504   1.379
 3850SOL    HW211700   2.792   3.629   1.460
 3851SOL     OW11701   2.321   2.356   0.195
 3851SOL    HW111702   2.382   2.427   0.215
 3851SOL    HW211703   2.237   2.399   0.183
 3852SOL     OW11704   2.005   2.998   1.472
 3852SOL    HW111705   2.050   2.952   1.543
 3852SOL    HW211706   2.013   2.939   1.397
 3853SOL     OW11707   3.184   2.914   1.224
 3853SOL    HW111708   3.209   2.850   1.158
 3853SOL    HW211709   3.115   2.966   1.182
 3854SOL     OW11710   3.151   2.703   0.312
 3854SOL    HW111711   3.076   2.667   0.359
 3854SOL    HW211712   3.133   2.683   0.220
 3855SOL     OW11713   3.636   3.605   1.151
 3855SOL    HW111714   3.698   3.631   1.082
 3855SOL    HW211715   3.612   3.515   1.128
 3856SOL     OW11716   3.103   3.596   1.110
 3856SOL    HW111717   3.186   3.617   1.066
 3856SOL    HW211718   3.110   3.502   1.128
 3857SOL     OW11719   1.945   3.132   1.009
 3857SOL    HW111720   1.928   3.143   1.102
 3857SOL    HW211721   1.875   3.075   0.978
 3858SOL     OW11722   2.770   1.946   0.106
 3858SOL    HW111723   2.835   1.964   0.038
 3858SOL    HW211724   2.817   1.896   0.172
 3859SOL     OW11725   3.568   2.010   0.511
 3859SOL    HW111726   3.646   2.002   0.457
 3859SOL    HW211727   3.557   1.924   0.551
 3860SOL     OW11728   3.254   3.435   0.492
 3860SOL    HW111729   3.314   3.466   0.423
 3860SOL    HW211730   3.206   3.513   0.519
 3861SOL     OW11731   1.977   3.638   1.828
 3861SOL    HW111732   1.960   3.586   1.907
 3861SOL    HW211733   2.066   3.671   1.841
 3862SOL     OW11734   3.139   2.790   0.675
 3862SOL    HW111735   3.213   2.729   0.681
 3862SOL    HW211736   3.171   2.861   0.620
 3863SOL     OW11737   2.675   3.137   1.422
 3863SOL    HW111738   2.647   3.161   1.510
 3863SOL    HW211739   2.603   3.166   1.366
 3864SOL     OW11740   2.534   3.472   0.162
 3864SOL    HW111741   2.529   3.478   0.066
 3864SOL    HW211742   2.480   3.396   0.184
 3865SOL     OW11743   3.489   3.590   1.389
 3865SOL    HW111744   3.539   3.599   1.308
 3865SOL    HW211745   3.474   3.680   1.418
 3866SOL     OW11746   3.702   2.034   0.965
 3866SOL    HW111747   3.731   1.947   0.938
 3866SOL    HW211748   3.615   2.043   0.924
 3867SOL     OW11749   2.123   2.179   0.716
 3867SOL    HW111750   2.037   2.215   0.694
 3867SOL    HW211751   2.122   2.171   0.811
 3868SOL     OW11752   3.086   3.463   0.042
 3868SOL    HW111753   3.064   3.373   0.066
 3868SOL    HW211754   3.030   3.482   5.967
 3869SOL     OW11755   2.688   2.868   1.367
 3869SOL    HW111756   2.730   2.866   1.281
 3869SOL    HW211757   2.683   2.961   1.388
 3870SOL     OW11758   2.771   2.759   0.298
 3870SOL    HW111759   2.820   2.775   0.217
 3870SOL    HW211760   2.818   2.687   0.340
 3871SOL     OW11761   3.359   3.498   0.043
 3871SOL    HW111762   3.265   3.482   0.037
 3871SOL    HW211763   3.387   3.518   5.954
 3872SOL     OW11764   2.215   3.178   1.495
 3872SOL    HW111765   2.223   3.250   1.432
 3872SOL    HW211766   2.144   3.124   1.461
 3873SOL     OW11767   3.468   3.143   1.282
 3873SOL    HW111768   3.536   3.138   1.348
 3873SOL    HW211769   3.412   3.215   1.310
 3874SOL     OW11770   2.916   2.969   0.707
 3874SOL    HW111771   2.846   2.917   0.746
 3874SOL    HW211772   2.982   2.905   0.680
 3875SOL     OW11773   2.883   2.103   0.965
 3875SOL    HW111774   2.880   2.055   0.883
 3875SOL    HW211775   2.878   2.035   1.033
 3876SOL     OW11776   2.469   3.352   0.478
 3876SOL    HW111777   2.514   3.300   0.412
 3876SOL    HW211778   2.398   3.395   0.431
 3877SOL     OW11779   3.578   2.254   1.376
 3877SOL    HW111780   3.651   2.316   1.380
 3877SOL    HW211781   3.609   2.182   1.321
 3878SOL     OW11782   2.115   3.199   0.285
 3878SOL    HW111783   2.038   3.142   0.282
 3878SOL    HW211784   2.110   3.242   0.370
 3879SOL     OW11785   2.539   2.060   1.514
 3879SOL    HW111786   2.624   2.043   1.474
 3879SOL    HW211787   2.555   2.057   1.608
 3880SOL     OW11788   1.900   2.266   0.026
 3880SOL    HW111789   1.857   2.185   0.050
 3880SOL    HW211790   1.971   2.239   5.968
 3881SOL     OW11791   3.292   2.723   1.398
 3881SOL    HW111792   3.241   2.782   1.342
 3881SOL    HW211793   3.379   2.724   1.359
 3882SOL     OW11794   1.922   2.026   0.339
 3882SOL    HW111795   1.882   2.080   0.270
 3882SOL    HW211796   2.008   2.003   0.304
 3883SOL     OW11797   3.035   3.206   0.128
 3883SOL    HW111798   2.945   3.173   0.129
 3883SOL    HW211799   3.064   3.199   0.219
 3884SOL     OW11800   2.485   2.692   1.425
 3884SOL    HW111801   2.547   2.764   1.415
 3884SOL    HW211802   2.539   2.617   1.451
 3885SOL     OW11803   3.347   3.642   0.980
 3885SOL    HW111804   3.368   3.705   0.911
 3885SOL    HW211805   3.431   3.621   1.020
 3886SOL     OW11806   3.338   3.073   1.653
 3886SOL    HW111807   3.348   3.086   1.748
 3886SOL    HW211808   3.426   3.084   1.618
 3887SOL     OW11809   2.249   3.604   1.560
 3887SOL    HW111810   2.158   3.635   1.551
 3887SOL    HW211811   2.242   3.509   1.558
 3888SOL     OW11812   3.533   2.742   1.261
 3888SOL    HW111813   3.527   2.656   1.219
 3888SOL    HW211814   3.522   2.804   1.189
 3889SOL     OW11815   3.077   2.173   0.463
 3889SOL    HW111816   3.143   2.104   0.453
 3889SOL    HW211817   3.106   2.224   0.539
 3890SOL     OW11818   2.453   2.598   0.670
 3890SOL    HW111819   2.491   2.684   0.656
 3890SOL    HW211820   2.385   2.590   0.603
 3891SOL     OW11821   3.632   2.205   1.646
 3891SOL    HW111822   3.607   2.233   1.558
 3891SOL    HW211823   3.557   2.155   1.678
 3892SOL     OW11824   3.624   2.800   1.517
 3892SOL    HW111825   3.604   2.893   1.527
 3892SOL    HW211826   3.603   2.779   1.426
 3893SOL     OW11827   2.745   3.239   0.031
 3893SOL    HW111828   2.695   3.231   0.112
 3893SOL    HW211829   2.746   3.333   0.013
 3894SOL     OW11830   2.524   3.651   0.940
 3894SOL    HW111831   2.506   3.743   0.920
 3894SOL    HW211832   2.619   3.644   0.937
 3895SOL     OW11833   2.730   2.828   0.856
 3895SOL    HW111834   2.781   2.757   0.894
 3895SOL    HW211835   2.694   2.875   0.931
 3896SOL     OW11836   2.939   2.830   0.089
 3896SOL    HW111837   2.908   2.875   0.010
 3896SOL    HW211838   3.018   2.785   0.061
 3897SOL     OW11839   3.712   3.414   0.843
 3897SOL    HW111840   3.633   3.402   0.790
 3897SOL    HW211841   3.706   3.346   0.910
 3898SOL     OW11842   1.948   3.093   0.666
 3898SOL    HW111843   1.953   3.045   0.749
 3898SOL    HW211844   2.015   3.052   0.611
 3899SOL     OW11845   2.513   3.287   1.600
 3899SOL    HW111846   2.492   3.197   1.624
 3899SOL    HW211847   2.549   3.325   1.680
 3900SOL     OW11848   3.673   2.042   1.237
 3900SOL    HW111849   3.685   1.947   1.248
 3900SOL    HW211850   3.683   2.057   1.143
 3901SOL     OW11851   2.297   2.292   0.525
 3901SOL    HW111852   2.315   2.221   0.465
 3901SOL    HW211853   2.244   2.252   0.595
 3902SOL     OW11854   3.561   3.348   1.095
 3902SOL    HW111855   3.482   3.328   1.046
 3902SOL    HW211856   3.569   3.277   1.158
 3903SOL     OW11857   2.195   2.416   1.293
 3903SOL    HW111858   2.252   2.362   1.348
 3903SOL    HW211859   2.215   2.388   1.203
 3904SOL     OW11860   2.691   3.439   0.677
 3904SOL    HW111861   2.673   3.497   0.603
 3904SOL    HW211862   2.616   3.379   0.679
 3905SOL     OW11863   3.295   2.088   1.119
 3905SOL    HW111864   3.317   2.006   1.164
 3905SOL    HW211865   3.244   2.138   1.182
 3906SOL     OW11866   2.870   1.880   1.139
 3906SOL    HW111867   2.817   1.811   1.099
 3906SOL    HW211868   2.958   1.843   1.143
 3907SOL     OW11869   2.640   3.194   0.309
 3907SOL    HW111870   2.606   3.105   0.320
 3907SOL    HW211871   2.729   3.189   0.345
 3908SOL     OW11872   2.482   3.422   1.280
 3908SOL    HW111873   2.485   3.502   1.332
 3908SOL    HW211874   2.570   3.413   1.244
 3909SOL     OW11875   3.219   1.915   0.161
 3909SOL    HW111876   3.247   1.850   0.097
 3909SOL    HW211877   3.130   1.889   0.184
 3910SOL     OW11878   3.158   2.324   0.679
 3910SOL    HW111879   3.107   2.405   0.685
 3910SOL    HW211880   3.155   2.286   0.767
 3911SOL     OW11881   3.444   2.060   0.878
 3911SOL    HW111882   3.388   2.083   0.952
 3911SOL    HW211883   3.443   2.138   0.822
 3912SOL     OW11884   1.926   2.939   0.296
 3912SOL    HW111885   2.014   2.908   0.277
 3912SOL    HW211886   1.889   2.873   0.354
 3913SOL     OW11887   2.748   3.520   0.341
 3913SOL    HW111888   2.673   3.497   0.286
 3913SOL    HW211889   2.717   3.591   0.396
 3914SOL     OW11890   3.396   3.367   2.497
 3914SOL    HW111891   3.363   3.331   2.579
 3914SOL    HW211892   3.322   3.362   2.437
 3915SOL     OW11893   2.711   2.708   3.642
 3915SOL    HW111894   2.784   2.744   3.693
 3915SOL    HW211895   2.753   2.654   3.576
 3916SOL     OW11896   2.510   2.868   2.553
 3916SOL    HW111897   2.603   2.864   2.531
 3916SOL    HW211898   2.479   2.950   2.514
 3917SOL     OW11899   2.445   3.004   3.666
 3917SOL    HW111900   2.511   3.061   3.705
 3917SOL    HW211901   2.390   3.062   3.614
 3918SOL     OW11902   3.300   3.324   3.271
 3918SOL    HW111903   3.354   3.400   3.290
 3918SOL    HW211904   3.359   3.249   3.279
 3919SOL     OW11905   2.100   3.584   2.358
 3919SOL    HW111906   2.093   3.664   2.411
 3919SOL    HW211907   2.096   3.616   2.268
 3920SOL     OW11908   2.368   2.036   2.726
 3920SOL    HW111909   2.410   2.032   2.812
 3920SOL    HW211910   2.421   2.099   2.676
 3921SOL     OW11911   2.831   3.567   2.727
 3921SOL    HW111912   2.854   3.474   2.734
 3921SOL    HW211913   2.736   3.569   2.732
 3922SOL     OW11914   2.229   2.527   2.332
 3922SOL    HW111915   2.298   2.500   2.393
 3922SOL    HW211916   2.149   2.524   2.384
 3923SOL     OW11917   3.574   3.116   2.533
 3923SOL    HW111918   3.661   3.135   2.497
 3923SOL    HW211919   3.518   3.184   2.498
 3924SOL     OW11920   3.274   2.451   1.945
 3924SOL    HW111921   3.219   2.420   2.017
 3924SOL    HW211922   3.363   2.428   1.971
 3925SOL     OW11923   2.929   3.217   3.290
 3925SOL    HW111924   2.857   3.238   3.230
 3925SOL    HW211925   3.001   3.272   3.259
 3926SOL     OW11926   3.086   2.370   2.140
 3926SOL    HW111927   3.017   2.307   2.160
 3926SOL    HW211928   3.045   2.456   2.152
 3927SOL     OW11929   3.513   2.186   2.268
 3927SOL    HW111930   3.507   2.108   2.322
 3927SOL    HW211931   3.435   2.237   2.291
 3928SOL     OW11932   3.126   2.668   1.859
 3928SOL    HW111933   3.196   2.614   1.895
 3928SOL    HW211934   3.169   2.721   1.791
 3929SOL     OW11935   2.936   3.223   2.710
 3929SOL    HW111936   2.958   3.130   2.717
 3929SOL    HW211937   3.018   3.265   2.681
 3930SOL     OW11938   2.251   2.391   2.761
 3930SOL    HW111939   2.171   2.338   2.755
 3930SOL    HW211940   2.322   2.328   2.747
 3931SOL     OW11941   3.001   2.228   3.542
 3931SOL    HW111942   2.945   2.242   3.618
 3931SOL    HW211943   3.044   2.312   3.527
 3932SOL     OW11944   2.326   2.386   2.043
 3932SOL    HW111945   2.381   2.429   2.108
 3932SOL    HW211946   2.236   2.402   2.073
 3933SOL     OW11947   3.085   2.799   2.458
 3933SOL    HW111948   3.104   2.735   2.527
 3933SOL    HW211949   3.169   2.840   2.439
 3934SOL     OW11950   3.695   1.978   2.720
 3934SOL    HW111951   3.694   1.960   2.814
 3934SOL    HW211952   3.625   2.041   2.707
 3935SOL     OW11953   2.495   3.337   2.290
 3935SOL    HW111954   2.527   3.307   2.204
 3935SOL    HW211955   2.441   3.413   2.270
 3936SOL     OW11956   3.554   2.323   3.285
 3936SOL    HW111957   3.629   2.380   3.269
 3936SOL    HW211958   3.575   2.242   3.239
 3937SOL     OW11959   2.915   2.821   1.935
 3937SOL    HW111960   2.914   2.899   1.879
 3937SOL    HW211961   2.992   2.772   1.906
 3938SOL     OW11962   3.467   2.138   2.719
 3938SOL    HW111963   3.379   2.102   2.731
 3938SOL    HW211964   3.453   2.233   2.713
 3939SOL     OW11965   2.084   2.146   4.721
 3939SOL    HW111966   2.112   2.109   4.804
 3939SOL    HW211967   1.995   2.114   4.708
 3940SOL     OW11968   1.859   2.225   4.376
 3940SOL    HW111969   1.777   2.265   4.406
 3940SOL    HW211970   1.833   2.139   4.343
 3941SOL     OW11971   2.428   3.157   4.902
 3941SOL    HW111972   2.342   3.161   4.861
 3941SOL    HW211973   2.443   3.245   4.936
 3942SOL     OW11974   3.399   3.344   4.433
 3942SOL    HW111975   3.373   3.343   4.525
 3942SOL    HW211976   3.342   3.409   4.392
 3943SOL     OW11977   2.997   2.552   4.448
 3943SOL    HW111978   3.042   2.632   4.421
 3943SOL    HW211979   2.952   2.576   4.529
 3944SOL     OW11980   2.616   3.009   4.768
 3944SOL    HW111981   2.548   3.044   4.825
 3944SOL    HW211982   2.649   3.085   4.721
 3945SOL     OW11983   2.732   2.633   5.550
 3945SOL    HW111984   2.716   2.704   5.613
 3945SOL    HW211985   2.754   2.678   5.468
 3946SOL     OW11986   2.541   2.852   4.394
 3946SOL    HW111987   2.611   2.855   4.459
 3946SOL    HW211988   2.478   2.918   4.424
 3947SOL     OW11989   2.576   3.016   5.537
 3947SOL    HW111990   2.622   3.094   5.566
 3947SOL    HW211991   2.494   3.049   5.500
 3948SOL     OW11992   2.193   3.280   4.790
 3948SOL    HW111993   2.117   3.246   4.743
 3948SOL    HW211994   2.239   3.333   4.725
 3949SOL     OW11995   3.321   3.363   5.082
 3949SOL    HW111996   3.376   3.441   5.090
 3949SOL    HW211997   3.258   3.371   5.153
 3950SOL     OW11998   2.314   2.259   5.209
 3950SOL    HW111999   2.389   2.200   5.215
 3950SOL    HW212000   2.238   2.204   5.226
 3951SOL     OW12001   3.466   2.314   4.470
 3951SOL    HW112002   3.384   2.342   4.429
 3951SOL    HW212003   3.494   2.390   4.521
 3952SOL     OW12004   2.060   3.573   4.216
 3952SOL    HW112005   2.099   3.647   4.262
 3952SOL    HW212006   2.088   3.583   4.125
 3953SOL     OW12007   3.001   3.203   5.418
 3953SOL    HW112008   3.044   3.196   5.503
 3953SOL    HW212009   2.949   3.123   5.410
 3954SOL     OW12010   2.110   3.303   4.280
 3954SOL    HW112011   2.088   3.394   4.258
 3954SOL    HW212012   2.028   3.266   4.311
 3955SOL     OW12013   2.115   2.950   4.609
 3955SOL    HW112014   2.115   2.863   4.649
 3955SOL    HW212015   2.061   3.004   4.667
 3956SOL     OW12016   2.472   3.653   5.154
 3956SOL    HW112017   2.390   3.635   5.199
 3956SOL    HW212018   2.494   3.743   5.179
 3957SOL     OW12019   3.455   1.989   5.190
 3957SOL    HW112020   3.473   2.071   5.144
 3957SOL    HW212021   3.439   2.017   5.281
 3958SOL     OW12022   2.012   2.489   4.314
 3958SOL    HW112023   1.940   2.441   4.274
 3958SOL    HW212024   1.969   2.552   4.372
 3959SOL     OW12025   3.567   2.763   4.320
 3959SOL    HW112026   3.643   2.749   4.377
 3959SOL    HW212027   3.569   2.856   4.299
 3960SOL     OW12028   1.985   2.606   5.311
 3960SOL    HW112029   2.077   2.633   5.314
 3960SOL    HW212030   1.935   2.687   5.316
 3961SOL     OW12031   2.477   3.245   4.467
 3961SOL    HW112032   2.423   3.166   4.469
 3961SOL    HW212033   2.472   3.275   4.376
 3962SOL     OW12034   3.150   3.100   5.146
 3962SOL    HW112035   3.182   3.033   5.086
 3962SOL    HW212036   3.209   3.095   5.221
 3963SOL     OW12037   2.662   1.905   4.279
 3963SOL    HW112038   2.691   1.927   4.190
 3963SOL    HW212039   2.567   1.899   4.271
 3964SOL     OW12040   2.050   2.825   4.997
 3964SOL    HW112041   2.135   2.785   4.981
 3964SOL    HW212042   1.989   2.774   4.944
 3965SOL     OW12043   3.042   3.669   5.347
 3965SOL    HW112044   3.055   3.731   5.274
 3965SOL    HW212045   3.062   3.584   5.309
 3966SOL     OW12046   2.199   2.113   5.537
 3966SOL    HW112047   2.241   2.196   5.559
 3966SOL    HW212048   2.109   2.124   5.567
 3967SOL     OW12049   3.327   3.280   4.687
 3967SOL    HW112050   3.257   3.294   4.751
 3967SOL    HW212051   3.314   3.190   4.657
 3968SOL     OW12052   3.137   2.214   4.670
 3968SOL    HW112053   3.048   2.182   4.679
 3968SOL    HW212054   3.189   2.160   4.729
 3969SOL     OW12055   2.656   2.480   5.174
 3969SOL    HW112056   2.630   2.456   5.263
 3969SOL    HW212057   2.617   2.412   5.119
 3970SOL     OW12058   3.256   2.334   5.398
 3970SOL    HW112059   3.262   2.383   5.480
 3970SOL    HW212060   3.314   2.258   5.411
 3971SOL     OW12061   2.814   2.748   5.308
 3971SOL    HW112062   2.869   2.678   5.273
 3971SOL    HW212063   2.766   2.782   5.233
 3972SOL     OW12064   2.853   2.274   4.961
 3972SOL    HW112065   2.766   2.294   4.995
 3972SOL    HW212066   2.836   2.229   4.878
 3973SOL     OW12067   2.901   2.560   4.192
 3973SOL    HW112068   2.918   2.540   4.284
 3973SOL    HW212069   2.819   2.515   4.172
 3974SOL     OW12070   1.935   2.697   4.492
 3974SOL    HW112071   2.018   2.680   4.536
 3974SOL    HW212072   1.897   2.771   4.539
 3975SOL     OW12073   1.986   3.722   5.302
 3975SOL    HW112074   1.989   3.699   5.395
 3975SOL    HW212075   1.898   3.697   5.274
 3976SOL     OW12076   3.565   2.431   5.552
 3976SOL    HW112077   3.530   2.506   5.504
 3976SOL    HW212078   3.597   2.372   5.484
 3977SOL     OW12079   3.234   2.994   4.265
 3977SOL    HW112080   3.312   3.013   4.214
 3977SOL    HW212081   3.167   3.052   4.228
 3978SOL     OW12082   2.412   2.039   4.618
 3978SOL    HW112083   2.414   2.073   4.707
 3978SOL    HW212084   2.399   2.115   4.562
 3979SOL     OW12085   2.219   3.675   4.587
 3979SOL    HW112086   2.261   3.590   4.593
 3979SOL    HW212087   2.289   3.738   4.603
 3980SOL     OW12088   3.649   2.911   4.591
 3980SOL    HW112089   3.602   2.963   4.526
 3980SOL    HW212090   3.594   2.914   4.669
 3981SOL     OW12091   3.088   3.401   5.237
 3981SOL    HW112092   3.077   3.328   5.297
 3981SOL    HW212093   3.024   3.385   5.167
 3982SOL     OW12094   2.167   2.866   3.904
 3982SOL    HW112095   2.262   2.857   3.900
 3982SOL    HW212096   2.136   2.780   3.933
 3983SOL     OW12097   3.337   2.607   4.453
 3983SOL    HW112098   3.335   2.564   4.539
 3983SOL    HW212099   3.425   2.646   4.448
 3984SOL     OW12100   2.327   3.128   5.466
 3984SOL    HW112101   2.300   3.132   5.374
 3984SOL    HW212102   2.244   3.124   5.514
 3985SOL     OW12103   2.063   2.141   5.229
 3985SOL    HW112104   1.980   2.189   5.225
 3985SOL    HW212105   2.042   2.062   5.278
 3986SOL     OW12106   2.118   3.652   4.954
 3986SOL    HW112107   2.168   3.581   4.995
 3986SOL    HW212108   2.105   3.624   4.864
 3987SOL     OW12109   2.805   3.561   4.624
 3987SOL    HW112110   2.882   3.512   4.651
 3987SOL    HW212111   2.748   3.496   4.583
 3988SOL     OW12112   2.259   2.545   4.213
 3988SOL    HW112113   2.274   2.452   4.194
 3988SOL    HW212114   2.169   2.548   4.246
 3989SOL     OW12115   3.393   2.087   5.455
 3989SOL    HW112116   3.404   2.109   5.548
 3989SOL    HW212117   3.328   2.018   5.454
 3990SOL     OW12118   2.626   2.138   5.477
 3990SOL    HW112119   2.705   2.083   5.477
 3990SOL    HW212120   2.600   2.143   5.569
 3991SOL     OW12121   2.740   3.387   4.916
 3991SOL    HW112122   2.723   3.349   4.829
 3991SOL    HW212123   2.809   3.331   4.953
 3992SOL     OW12124   3.204   2.452   5.154
 3992SOL    HW112125   3.235   2.420   5.239
 3992SOL    HW212126   3.239   2.540   5.147
 3993SOL     OW12127   2.679   3.270   4.659
 3993SOL    HW112128   2.762   3.245   4.617
 3993SOL    HW212129   2.613   3.261   4.590
 3994SOL     OW12130   2.789   2.372   4.626
 3994SOL    HW112131   2.770   2.368   4.532
 3994SOL    HW212132   2.817   2.283   4.648
 3995SOL     OW12133   2.396   1.922   4.203
 3995SOL    HW112134   2.313   1.926   4.252
 3995SOL    HW212135   2.406   2.010   4.168
 3996SOL     OW12136   2.943   2.542   5.184
 3996SOL    HW112137   2.875   2.474   5.188
 3996SOL    HW212138   3.025   2.493   5.177
 3997SOL     OW12139   3.095   3.431   4.511
 3997SOL    HW112140   3.105   3.507   4.454
 3997SOL    HW212141   3.154   3.447   4.584
 3998SOL     OW12142   2.323   3.016   4.447
 3998SOL    HW112143   2.256   2.997   4.513
 3998SOL    HW212144   2.280   2.998   4.364
 3999SOL     OW12145   3.132   3.666   4.332
 3999SOL    HW112146   3.195   3.703   4.270
 3999SOL    HW212147   3.098   3.742   4.379
 4000SOL     OW12148   1.942   2.415   5.118
 4000SOL    HW112149   2.034   2.414   5.092
 4000SOL    HW212150   1.937   2.486   5.183
 4001SOL     OW12151   2.421   2.089   4.892
 4001SOL    HW112152   2.461   2.013   4.932
 4001SOL    HW212153   2.330   2.086   4.922
 4002SOL     OW12154   2.727   2.332   4.356
 4002SOL    HW112155   2.662   2.378   4.303
 4002SOL    HW212156   2.723   2.242   4.325
 4003SOL     OW12157   2.863   1.925   4.474
 4003SOL    HW112158   2.794   1.920   4.408
 4003SOL    HW212159   2.853   1.845   4.526
 4004SOL     OW12160   3.299   3.023   4.588
 4004SOL    HW112161   3.227   2.960   4.578
 4004SOL    HW212162   3.331   3.037   4.499
 4005SOL     OW12163   3.327   2.467   4.700
 4005SOL    HW112164   3.272   2.388   4.705
 4005SOL    HW212165   3.385   2.460   4.775
 4006SOL     OW12166   3.536   3.107   4.408
 4006SOL    HW112167   3.630   3.121   4.396
 4006SOL    HW212168   3.500   3.196   4.418
 4007SOL     OW12169   3.297   2.465   3.795
 4007SOL    HW112170   3.226   2.441   3.855
 4007SOL    HW212171   3.367   2.403   3.816
 4008SOL     OW12172   3.614   3.102   5.292
 4008SOL    HW112173   3.702   3.064   5.285
 4008SOL    HW212174   3.629   3.192   5.323
 4009SOL     OW12175   2.918   3.217   5.058
 4009SOL    HW112176   2.843   3.185   5.108
 4009SOL    HW212177   2.993   3.174   5.099
 4010SOL     OW12178   3.468   3.487   5.377
 4010SOL    HW112179   3.465   3.521   5.287
 4010SOL    HW212180   3.551   3.439   5.381
 4011SOL     OW12181   2.993   3.069   4.829
 4011SOL    HW112182   2.931   3.105   4.893
 4011SOL    HW212183   2.962   3.102   4.745
 4012SOL     OW12184   3.486   2.959   4.803
 4012SOL    HW112185   3.480   3.021   4.876
 4012SOL    HW212186   3.409   2.977   4.750
 4013SOL     OW12187   2.779   1.957   5.120
 4013SOL    HW112188   2.802   1.940   5.028
 4013SOL    HW212189   2.858   1.996   5.157
 4014SOL     OW12190   2.847   2.976   5.451
 4014SOL    HW112191   2.755   2.991   5.473
 4014SOL    HW212192   2.846   2.899   5.394
 4015SOL     OW12193   2.282   2.678   4.974
 4015SOL    HW112194   2.349   2.687   5.042
 4015SOL    HW212195   2.247   2.590   4.987
 4016SOL     OW12196   3.126   2.238   5.000
 4016SOL    HW112197   3.159   2.315   5.045
 4016SOL    HW212198   3.035   2.260   4.979
 4017SOL     OW12199   1.933   3.439   5.079
 4017SOL    HW112200   1.903   3.507   5.019
 4017SOL    HW212201   2.028   3.440   5.071
 4018SOL     OW12202   2.418   2.402   4.580
 4018SOL    HW112203   2.435   2.460   4.506
 4018SOL    HW212204   2.481   2.427   4.646
 4019SOL     OW12205   3.092   3.193   4.142
 4019SOL    HW112206   3.132   3.276   4.168
 4019SOL    HW212207   2.999   3.213   4.131
 4020SOL     OW12208   3.139   3.322   4.878
 4020SOL    HW112209   3.197   3.324   4.954
 4020SOL    HW212210   3.086   3.243   4.891
 4021SOL     OW12211   2.207   3.392   5.036
 4021SOL    HW112212   2.195   3.346   4.952
 4021SOL    HW212213   2.302   3.403   5.044
 4022SOL     OW12214   2.276   2.606   5.326
 4022SOL    HW112215   2.339   2.650   5.269
 4022SOL    HW212216   2.312   2.519   5.340
 4023SOL     OW12217   3.465   2.640   5.407
 4023SOL    HW112218   3.378   2.682   5.400
 4023SOL    HW212219   3.517   2.683   5.339
 4024SOL     OW12220   2.860   1.987   5.478
 4024SOL    HW112221   2.916   2.061   5.456
 4024SOL    HW212222   2.909   1.910   5.450
 4025SOL     OW12223   2.360   1.899   5.466
 4025SOL    HW112224   2.313   1.846   5.402
 4025SOL    HW212225   2.304   1.975   5.481
 4026SOL     OW12226   2.445   2.736   4.754
 4026SOL    HW112227   2.475   2.827   4.755
 4026SOL    HW212228   2.389   2.728   4.831
 4027SOL     OW12229   3.216   2.719   4.750
 4027SOL    HW112230   3.132   2.709   4.705
 4027SOL    HW212231   3.258   2.634   4.743
 4028SOL     OW12232   3.038   2.357   4.028
 4028SOL    HW112233   3.103   2.328   4.092
 4028SOL    HW212234   3.001   2.436   4.064
 4029SOL     OW12235   2.160   2.060   4.974
 4029SOL    HW112236   2.122   2.091   5.056
 4029SOL    HW212237   2.141   1.966   4.974
 4030SOL     OW12238   1.905   3.174   5.001
 4030SOL    HW112239   1.939   3.120   5.072
 4030SOL    HW212240   1.912   3.264   5.034
 4031SOL     OW12241   2.586   2.495   4.781
 4031SOL    HW112242   2.661   2.480   4.723
 4031SOL    HW212243   2.557   2.584   4.760
 4032SOL     OW12244   3.604   2.822   5.572
 4032SOL    HW112245   3.554   2.757   5.522
 4032SOL    HW212246   3.546   2.844   5.646
 4033SOL     OW12247   2.159   1.933   4.347
 4033SOL    HW112248   2.147   2.025   4.370
 4033SOL    HW212249   2.170   1.888   4.431
 4034SOL     OW12250   3.497   2.170   4.121
 4034SOL    HW112251   3.528   2.131   4.202
 4034SOL    HW212252   3.430   2.233   4.149
 4035SOL     OW12253   2.890   2.620   4.692
 4035SOL    HW112254   2.884   2.638   4.786
 4035SOL    HW212255   2.863   2.529   4.683
 4036SOL     OW12256   2.841   3.425   5.440
 4036SOL    HW112257   2.827   3.472   5.358
 4036SOL    HW212258   2.890   3.346   5.415
 4037SOL     OW12259   3.715   3.365   5.329
 4037SOL    HW112260   3.735   3.393   5.240
 4037SOL    HW212261   3.796   3.383   5.378
 4038SOL     OW12262   2.218   2.775   5.537
 4038SOL    HW112263   2.304   2.797   5.575
 4038SOL    HW212264   2.238   2.712   5.467
 4039SOL     OW12265   2.931   3.204   4.581
 4039SOL    HW112266   2.933   3.129   4.521
 4039SOL    HW212267   2.994   3.266   4.544
 4040SOL     OW12268   2.166   2.672   4.669
 4040SOL    HW112269   2.260   2.692   4.664
 4040SOL    HW212270   2.163   2.581   4.698
 4041SOL     OW12271   2.194   2.392   4.735
 4041SOL    HW112272   2.158   2.305   4.721
 4041SOL    HW212273   2.269   2.397   4.676
 4042SOL     OW12274   2.995   2.235   5.408
 4042SOL    HW112275   2.947   2.291   5.469
 4042SOL    HW212276   3.082   2.274   5.403
 4043SOL     OW12277   3.025   2.060   5.194
 4043SOL    HW112278   3.013   2.123   5.266
 4043SOL    HW212279   3.065   2.112   5.124
 4044SOL     OW12280   1.957   3.655   4.669
 4044SOL    HW112281   1.923   3.576   4.627
 4044SOL    HW212282   2.045   3.665   4.633
 4045SOL     OW12283   2.359   3.437   4.632
 4045SOL    HW112284   2.429   3.499   4.654
 4045SOL    HW212285   2.400   3.374   4.573
 4046SOL     OW12286   2.838   2.655   4.956
 4046SOL    HW112287   2.897   2.632   5.027
 4046SOL    HW212288   2.755   2.614   4.979
 4047SOL     OW12289   1.899   2.408   4.840
 4047SOL    HW112290   1.977   2.393   4.787
 4047SOL    HW212291   1.930   2.409   4.930
 4048SOL     OW12292   2.054   2.381   5.456
 4048SOL    HW112293   2.105   2.336   5.389
 4048SOL    HW212294   2.015   2.455   5.410
 4049SOL     OW12295   3.239   2.800   5.383
 4049SOL    HW112296   3.261   2.893   5.379
 4049SOL    HW212297   3.235   2.773   5.291
 4050SOL     OW12298   3.503   2.463   4.910
 4050SOL    HW112299   3.494   2.404   4.985
 4050SOL    HW212300   3.591   2.444   4.875
 4051SOL     OW12301   2.103   3.413   5.452
 4051SOL    HW112302   2.079   3.479   5.518
 4051SOL    HW212303   2.106   3.331   5.502
 4052SOL     OW12304   2.569   2.309   4.981
 4052SOL    HW112305   2.513   2.237   4.954
 4052SOL    HW212306   2.562   2.373   4.910
 4053SOL     OW12307   2.787   3.540   5.192
 4053SOL    HW112308   2.762   3.505   5.106
 4053SOL    HW212309   2.781   3.635   5.180
 4054SOL     OW12310   2.292   2.349   3.955
 4054SOL    HW112311   2.351   2.424   3.947
 4054SOL    HW212312   2.204   2.388   3.960
 4055SOL     OW12313   2.006   3.004   5.198
 4055SOL    HW112314   2.008   2.953   5.280
 4055SOL    HW212315   2.022   2.939   5.129
 4056SOL     OW12316   3.187   2.908   4.945
 4056SOL    HW112317   3.210   2.845   4.877
 4056SOL    HW212318   3.118   2.962   4.906
 4057SOL     OW12319   3.638   3.605   4.876
 4057SOL    HW112320   3.699   3.631   4.807
 4057SOL    HW212321   3.614   3.515   4.854
 4058SOL     OW12322   3.100   3.594   4.829
 4058SOL    HW112323   3.185   3.615   4.791
 4058SOL    HW212324   3.107   3.502   4.854
 4059SOL     OW12325   1.945   3.127   4.735
 4059SOL    HW112326   1.929   3.143   4.828
 4059SOL    HW212327   1.871   3.074   4.707
 4060SOL     OW12328   2.539   3.532   5.459
 4060SOL    HW112329   2.482   3.609   5.453
 4060SOL    HW212330   2.604   3.546   5.390
 4061SOL     OW12331   2.001   3.659   5.567
 4061SOL    HW112332   1.949   3.597   5.617
 4061SOL    HW212333   2.053   3.705   5.633
 4062SOL     OW12334   3.135   2.779   4.394
 4062SOL    HW112335   3.211   2.723   4.410
 4062SOL    HW212336   3.170   2.854   4.344
 4063SOL     OW12337   2.671   3.138   5.151
 4063SOL    HW112338   2.644   3.177   5.234
 4063SOL    HW212339   2.599   3.159   5.091
 4064SOL     OW12340   3.485   3.589   5.114
 4064SOL    HW112341   3.538   3.594   5.034
 4064SOL    HW212342   3.471   3.680   5.140
 4065SOL     OW12343   3.697   2.037   4.692
 4065SOL    HW112344   3.731   1.952   4.665
 4065SOL    HW212345   3.613   2.044   4.646
 4066SOL     OW12346   2.128   2.182   4.447
 4066SOL    HW112347   2.049   2.227   4.416
 4066SOL    HW212348   2.118   2.177   4.541
 4067SOL     OW12349   2.685   2.868   5.096
 4067SOL    HW112350   2.731   2.860   5.013
 4067SOL    HW212351   2.684   2.962   5.115
 4068SOL     OW12352   2.230   3.168   5.216
 4068SOL    HW112353   2.217   3.244   5.160
 4068SOL    HW212354   2.155   3.112   5.199
 4069SOL     OW12355   3.470   3.142   5.009
 4069SOL    HW112356   3.531   3.132   5.081
 4069SOL    HW212357   3.410   3.212   5.037
 4070SOL     OW12358   2.915   2.977   4.435
 4070SOL    HW112359   2.846   2.924   4.475
 4070SOL    HW212360   2.964   2.914   4.381
 4071SOL     OW12361   2.879   2.104   4.692
 4071SOL    HW112362   2.872   2.057   4.609
 4071SOL    HW212363   2.875   2.035   4.759
 4072SOL     OW12364   2.465   3.327   4.202
 4072SOL    HW112365   2.546   3.338   4.153
 4072SOL    HW212366   2.420   3.411   4.192
 4073SOL     OW12367   3.583   2.254   5.105
 4073SOL    HW112368   3.655   2.317   5.104
 4073SOL    HW212369   3.614   2.182   5.048
 4074SOL     OW12370   1.980   2.891   5.448
 4074SOL    HW112371   1.901   2.865   5.495
 4074SOL    HW212372   2.051   2.847   5.494
 4075SOL     OW12373   2.535   2.059   5.222
 4075SOL    HW112374   2.620   2.039   5.183
 4075SOL    HW212375   2.556   2.087   5.311
 4076SOL     OW12376   3.291   2.721   5.124
 4076SOL    HW112377   3.242   2.782   5.068
 4076SOL    HW212378   3.380   2.723   5.089
 4077SOL     OW12379   2.482   2.693   5.160
 4077SOL    HW112380   2.538   2.768   5.144
 4077SOL    HW212381   2.542   2.619   5.168
 4078SOL     OW12382   3.346   3.637   4.707
 4078SOL    HW112383   3.377   3.702   4.643
 4078SOL    HW212384   3.426   3.603   4.747
 4079SOL     OW12385   2.580   2.426   5.429
 4079SOL    HW112386   2.623   2.486   5.490
 4079SOL    HW212387   2.603   2.338   5.461
 4080SOL     OW12388   3.336   3.061   5.353
 4080SOL    HW112389   3.324   3.077   5.447
 4080SOL    HW212390   3.430   3.077   5.338
 4081SOL     OW12391   2.236   3.598   5.286
 4081SOL    HW112392   2.153   3.642   5.269
 4081SOL    HW212393   2.211   3.517   5.330
 4082SOL     OW12394   3.530   2.742   4.979
 4082SOL    HW112395   3.524   2.657   4.936
 4082SOL    HW212396   3.519   2.805   4.908
 4083SOL     OW12397   2.468   2.590   4.380
 4083SOL    HW112398   2.498   2.681   4.380
 4083SOL    HW212399   2.389   2.591   4.326
 4084SOL     OW12400   3.624   2.221   5.377
 4084SOL    HW112401   3.607   2.239   5.285
 4084SOL    HW212402   3.551   2.166   5.405
 4085SOL     OW12403   3.610   2.798   5.237
 4085SOL    HW112404   3.601   2.892   5.250
 4085SOL    HW212405   3.594   2.785   5.143
 4086SOL     OW12406   2.529   3.653   4.665
 4086SOL    HW112407   2.501   3.742   4.644
 4086SOL    HW212408   2.625   3.655   4.660
 4087SOL     OW12409   2.736   2.833   4.588
 4087SOL    HW112410   2.785   2.759   4.625
 4087SOL    HW212411   2.700   2.878   4.664
 4088SOL     OW12412   2.933   2.822   3.747
 4088SOL    HW112413   2.957   2.913   3.764
 4088SOL    HW212414   3.015   2.780   3.722
 4089SOL     OW12415   3.713   3.429   4.576
 4089SOL    HW112416   3.683   3.428   4.485
 4089SOL    HW212417   3.693   3.342   4.609
 4090SOL     OW12418   2.079   3.161   5.582
 4090SOL    HW112419   2.030   3.093   5.537
 4090SOL    HW212420   2.026   3.183   5.658
 4091SOL     OW12421   1.943   3.083   4.379
 4091SOL    HW112422   1.982   3.044   4.458
 4091SOL    HW212423   2.001   3.056   4.308
 4092SOL     OW12424   2.544   3.268   5.356
 4092SOL    HW112425   2.463   3.226   5.385
 4092SOL    HW212426   2.540   3.356   5.392
 4093SOL     OW12427   3.675   2.042   4.963
 4093SOL    HW112428   3.684   1.948   4.975
 4093SOL    HW212429   3.684   2.056   4.869
 4094SOL     OW12430   3.555   3.351   4.830
 4094SOL    HW112431   3.479   3.328   4.777
 4094SOL    HW212432   3.566   3.278   4.890
 4095SOL     OW12433   2.194   2.418   5.015
 4095SOL    HW112434   2.249   2.362   5.070
 4095SOL    HW212435   2.213   2.390   4.926
 4096SOL     OW12436   3.298   2.083   4.848
 4096SOL    HW112437   3.321   2.003   4.896
 4096SOL    HW212438   3.247   2.134   4.911
 4097SOL     OW12439   2.870   1.881   4.864
 4097SOL    HW112440   2.815   1.813   4.825
 4097SOL    HW212441   2.958   1.842   4.866
 4098SOL     OW12442   2.483   3.416   5.010
 4098SOL    HW112443   2.484   3.498   5.060
 4098SOL    HW212444   2.570   3.411   4.971
 4099SOL     OW12445   3.158   2.328   4.425
 4099SOL    HW112446   3.100   2.404   4.430
 4099SOL    HW212447   3.148   2.284   4.509
 4100SOL     OW12448   3.435   2.067   4.599
 4100SOL    HW112449   3.388   2.078   4.681
 4100SOL    HW212450   3.439   2.154   4.561
 4101SOL     OW12451   2.082   2.478   5.717
 4101SOL    HW112452   1.992   2.498   5.744
 4101SOL    HW212453   2.076   2.459   5.624
 4102SOL     OW12454   3.636   2.467   5.811
 4102SOL    HW112455   3.608   2.453   5.721
 4102SOL    HW212456   3.615   2.384   5.856
 4103SOL     OW12457   2.097   3.591   0.041
 4103SOL    HW112458   2.109   3.661   0.105
 4103SOL    HW212459   2.181   3.586   5.995
 4104SOL     OW12460   2.467   2.842   5.724
 4104SOL    HW112461   2.498   2.899   5.654
 4104SOL    HW212462   2.538   2.843   5.789
 4105SOL     OW12463   3.685   3.629   5.918
 4105SOL    HW112464   3.713   3.571   5.988
 4105SOL    HW212465   3.755   3.695   5.912
 4106SOL     OW12466   1.895   3.460   5.713
 4106SOL    HW112467   1.875   3.369   5.735
 4106SOL    HW212468   1.856   3.510   5.784
 4107SOL     OW12469   3.576   2.735   0.161
 4107SOL    HW112470   3.644   2.777   0.214
 4107SOL    HW212471   3.542   2.805   0.106
 4108SOL     OW12472   3.539   2.955   6.000
 4108SOL    HW112473   3.627   2.972   5.967
 4108SOL    HW212474   3.511   3.040   0.035
 4109SOL     OW12475   3.406   2.866   5.770
 4109SOL    HW112476   3.353   2.788   5.785
 4109SOL    HW212477   3.440   2.888   5.857
 4110SOL     OW12478   2.442   2.589   5.850
 4110SOL    HW112479   2.457   2.663   5.791
 4110SOL    HW212480   2.410   2.628   5.931
 4111SOL     OW12481   2.731   2.214   5.748
 4111SOL    HW112482   2.786   2.277   5.700
 4111SOL    HW212483   2.789   2.139   5.764
 4112SOL     OW12484   2.190   2.818   5.832
 4112SOL    HW112485   2.272   2.829   5.783
 4112SOL    HW212486   2.150   2.740   5.794
 4113SOL     OW12487   2.979   3.634   5.822
 4113SOL    HW112488   2.894   3.598   5.846
 4113SOL    HW212489   3.004   3.585   5.743
 4114SOL     OW12490   3.495   3.247   5.675
 4114SOL    HW112491   3.454   3.333   5.664
 4114SOL    HW212492   3.425   3.185   5.655
 4115SOL     OW12493   2.343   3.620   5.915
 4115SOL    HW112494   2.392   3.675   5.976
 4115SOL    HW212495   2.410   3.588   5.854
 4116SOL     OW12496   2.491   1.970   5.696
 4116SOL    HW112497   2.580   1.937   5.686
 4116SOL    HW212498   2.447   1.946   5.614
 4117SOL     OW12499   3.288   3.067   5.624
 4117SOL    HW112500   3.325   2.995   5.674
 4117SOL    HW212501   3.203   3.084   5.665
 4118SOL     OW12502   2.163   1.911   5.763
 4118SOL    HW112503   2.224   1.975   5.727
 4118SOL    HW212504   2.218   1.852   5.815
 4119SOL     OW12505   2.887   2.402   5.607
 4119SOL    HW112506   2.844   2.486   5.592
 4119SOL    HW212507   2.952   2.420   5.675
 4120SOL     OW12508   3.753   2.676   5.934
 4120SOL    HW112509   3.749   2.652   0.027
 4120SOL    HW212510   3.700   2.609   5.890
 4121SOL     OW12511   2.350   3.277   5.743
 4121SOL    HW112512   2.278   3.250   5.800
 4121SOL    HW212513   2.333   3.233   5.659
 4122SOL     OW12514   3.569   3.160   0.297
 4122SOL    HW112515   3.641   3.120   0.249
 4122SOL    HW212516   3.516   3.202   0.229
 4123SOL     OW12517   3.264   2.440   5.651
 4123SOL    HW112518   3.202   2.413   5.719
 4123SOL    HW212519   3.347   2.401   5.679
 4124SOL     OW12520   2.398   2.114   5.910
 4124SOL    HW112521   2.433   2.074   5.831
 4124SOL    HW212522   2.368   2.200   5.882
 4125SOL     OW12523   2.248   2.979   0.042
 4125SOL    HW112524   2.199   3.058   0.017
 4125SOL    HW212525   2.226   2.915   5.975
 4126SOL     OW12526   3.070   2.375   5.834
 4126SOL    HW112527   3.086   2.289   5.873
 4126SOL    HW212528   3.025   2.424   5.903
 4127SOL     OW12529   2.160   1.935   0.229
 4127SOL    HW112530   2.217   2.011   0.233
 4127SOL    HW212531   2.213   1.864   0.267
 4128SOL     OW12532   3.385   2.138   5.726
 4128SOL    HW112533   3.322   2.066   5.736
 4128SOL    HW212534   3.417   2.154   5.815
 4129SOL     OW12535   3.173   2.702   5.632
 4129SOL    HW112536   3.204   2.611   5.633
 4129SOL    HW212537   3.195   2.734   5.545
 4130SOL     OW12538   1.880   3.184   5.775
 4130SOL    HW112539   1.790   3.198   5.744
 4130SOL    HW212540   1.879   3.094   5.809
 4131SOL     OW12541   2.678   2.454   5.904
 4131SOL    HW112542   2.672   2.369   5.862
 4131SOL    HW212543   2.593   2.495   5.888
 4132SOL     OW12544   2.319   2.349   5.777
 4132SOL    HW112545   2.375   2.423   5.799
 4132SOL    HW212546   2.233   2.388   5.761
 4133SOL     OW12547   3.619   1.995   0.099
 4133SOL    HW112548   3.661   1.980   0.015
 4133SOL    HW212549   3.581   1.910   0.122
 4134SOL     OW12550   2.538   3.476   5.743
 4134SOL    HW112551   2.543   3.495   5.649
 4134SOL    HW212552   2.474   3.405   5.749
 4135SOL     OW12553   3.062   3.469   5.617
 4135SOL    HW112554   3.055   3.376   5.641
 4135SOL    HW212555   3.000   3.480   5.546
 4136SOL     OW12556   2.734   2.779   5.835
 4136SOL    HW112557   2.815   2.808   5.791
 4136SOL    HW212558   2.761   2.703   5.886
 4137SOL     OW12559   3.344   3.485   5.626
 4137SOL    HW112560   3.250   3.481   5.608
 4137SOL    HW212561   3.385   3.493   5.539
 4138SOL     OW12562   2.896   3.016   0.299
 4138SOL    HW112563   2.847   2.955   0.355
 4138SOL    HW212564   2.941   2.960   0.236
 4139SOL     OW12565   2.126   3.219   5.916
 4139SOL    HW112566   2.041   3.204   5.875
 4139SOL    HW212567   2.113   3.298   5.969
 4140SOL     OW12568   1.936   2.190   5.625
 4140SOL    HW112569   1.856   2.171   5.576
 4140SOL    HW212570   1.970   2.269   5.583
 4141SOL     OW12571   1.941   2.028   5.872
 4141SOL    HW112572   1.923   2.082   5.795
 4141SOL    HW212573   2.025   1.986   5.851
 4142SOL     OW12574   3.033   3.201   5.706
 4142SOL    HW112575   2.941   3.173   5.702
 4142SOL    HW212576   3.057   3.192   5.798
 4143SOL     OW12577   3.085   2.167   0.024
 4143SOL    HW112578   3.167   2.130   0.058
 4143SOL    HW212579   3.063   2.237   0.086
 4144SOL     OW12580   2.726   3.237   5.623
 4144SOL    HW112581   2.685   3.283   5.696
 4144SOL    HW212582   2.749   3.306   5.561
 4145SOL     OW12583   2.949   2.855   5.685
 4145SOL    HW112584   2.929   2.899   5.603
 4145SOL    HW212585   3.027   2.802   5.665
 4146SOL     OW12586   3.218   1.918   5.740
 4146SOL    HW112587   3.247   1.837   5.698
 4146SOL    HW212588   3.134   1.895   5.780
 4147SOL     OW12589   1.931   2.937   5.881
 4147SOL    HW112590   2.024   2.924   5.863
 4147SOL    HW212591   1.897   2.849   5.898
 4148SOL     OW12592   2.745   3.515   5.924
 4148SOL    HW112593   2.675   3.504   5.859
 4148SOL    HW212594   2.711   3.580   5.985
 4149SOL     OW12595   2.082   4.358   0.131
 4149SOL    HW112596   2.000   4.328   0.171
 4149SOL    HW212597   2.075   4.331   0.040
 4150SOL     OW12598   2.088   4.005   0.993
 4150SOL    HW112599   2.115   3.970   1.078
 4150SOL    HW212600   1.998   3.974   0.982
 4151SOL     OW12601   1.864   4.109   0.639
 4151SOL    HW112602   1.780   4.131   0.680
 4151SOL    HW212603   1.845   4.031   0.586
 4152SOL     OW12604   2.428   5.018   1.179
 4152SOL    HW112605   2.343   5.024   1.136
 4152SOL    HW212606   2.445   5.107   1.210
 4153SOL     OW12607   3.426   5.237   0.708
 4153SOL    HW112608   3.383   5.214   0.790
 4153SOL    HW212609   3.355   5.242   0.644
 4154SOL     OW12610   2.993   4.422   0.697
 4154SOL    HW112611   3.042   4.503   0.686
 4154SOL    HW212612   2.946   4.433   0.780
 4155SOL     OW12613   3.649   4.317   0.245
 4155SOL    HW112614   3.601   4.331   0.163
 4155SOL    HW212615   3.606   4.241   0.285
 4156SOL     OW12616   2.615   4.865   1.046
 4156SOL    HW112617   2.547   4.900   1.102
 4156SOL    HW212618   2.650   4.941   1.000
 4157SOL     OW12619   2.714   4.557   1.812
 4157SOL    HW112620   2.779   4.593   1.873
 4157SOL    HW212621   2.748   4.579   1.725
 4158SOL     OW12622   2.548   4.725   0.646
 4158SOL    HW112623   2.613   4.714   0.716
 4158SOL    HW212624   2.479   4.777   0.686
 4159SOL     OW12625   2.523   4.915   1.729
 4159SOL    HW112626   2.595   4.913   1.792
 4159SOL    HW212627   2.447   4.942   1.780
 4160SOL     OW12628   2.192   5.143   1.067
 4160SOL    HW112629   2.117   5.106   1.020
 4160SOL    HW212630   2.239   5.195   1.002
 4161SOL     OW12631   3.326   5.225   1.355
 4161SOL    HW112632   3.380   5.304   1.360
 4161SOL    HW212633   3.257   5.239   1.420
 4162SOL     OW12634   2.320   4.118   1.487
 4162SOL    HW112635   2.392   4.055   1.495
 4162SOL    HW212636   2.241   4.068   1.505
 4163SOL     OW12637   3.470   4.170   0.741
 4163SOL    HW112638   3.396   4.193   0.685
 4163SOL    HW212639   3.484   4.248   0.795
 4164SOL     OW12640   2.081   5.439   0.475
 4164SOL    HW112641   2.102   5.516   0.528
 4164SOL    HW212642   2.158   5.426   0.420
 4165SOL     OW12643   2.087   5.165   0.532
 4165SOL    HW112644   2.070   5.259   0.540
 4165SOL    HW212645   2.031   5.125   0.599
 4166SOL     OW12646   2.122   4.812   0.892
 4166SOL    HW112647   2.119   4.725   0.931
 4166SOL    HW212648   2.063   4.865   0.946
 4167SOL     OW12649   2.478   5.509   1.436
 4167SOL    HW112650   2.393   5.494   1.477
 4167SOL    HW212651   2.498   5.601   1.455
 4168SOL     OW12652   2.472   4.687   0.132
 4168SOL    HW112653   2.424   4.758   0.089
 4168SOL    HW212654   2.512   4.729   0.208
 4169SOL     OW12655   3.457   3.851   1.470
 4169SOL    HW112656   3.471   3.931   1.420
 4169SOL    HW212657   3.442   3.880   1.559
 4170SOL     OW12658   1.988   4.366   0.568
 4170SOL    HW112659   1.949   4.281   0.587
 4170SOL    HW212660   1.974   4.416   0.649
 4171SOL     OW12661   3.710   5.489   0.333
 4171SOL    HW112662   3.775   5.459   0.396
 4171SOL    HW212663   3.728   5.582   0.321
 4172SOL     OW12664   1.837   5.308   0.128
 4172SOL    HW112665   1.860   5.221   0.158
 4172SOL    HW212666   1.861   5.366   0.201
 4173SOL     OW12667   3.555   4.626   0.654
 4173SOL    HW112668   3.639   4.584   0.635
 4173SOL    HW212669   3.534   4.676   0.575
 4174SOL     OW12670   3.500   4.814   0.457
 4174SOL    HW112671   3.534   4.873   0.390
 4174SOL    HW212672   3.505   4.864   0.538
 4175SOL     OW12673   1.969   4.453   1.593
 4175SOL    HW112674   2.050   4.484   1.634
 4175SOL    HW212675   1.917   4.533   1.579
 4176SOL     OW12676   2.478   5.112   0.735
 4176SOL    HW112677   2.432   5.028   0.744
 4176SOL    HW212678   2.461   5.138   0.644
 4177SOL     OW12679   3.151   4.962   1.433
 4177SOL    HW112680   3.176   4.898   1.367
 4177SOL    HW212681   3.219   4.954   1.500
 4178SOL     OW12682   2.682   3.726   0.514
 4178SOL    HW112683   2.721   3.810   0.491
 4178SOL    HW212684   2.589   3.745   0.523
 4179SOL     OW12685   2.047   4.688   1.267
 4179SOL    HW112686   2.133   4.648   1.255
 4179SOL    HW212687   1.988   4.635   1.214
 4180SOL     OW12688   3.327   4.760   0.227
 4180SOL    HW112689   3.271   4.688   0.255
 4180SOL    HW212690   3.403   4.756   0.285
 4181SOL     OW12691   3.047   5.528   1.618
 4181SOL    HW112692   3.061   5.586   1.542
 4181SOL    HW212693   3.063   5.440   1.584
 4182SOL     OW12694   3.329   5.143   0.950
 4182SOL    HW112695   3.260   5.159   1.015
 4182SOL    HW212696   3.316   5.052   0.924
 4183SOL     OW12697   3.523   5.463   0.578
 4183SOL    HW112698   3.500   5.435   0.489
 4183SOL    HW212699   3.498   5.390   0.634
 4184SOL     OW12700   2.459   4.444   0.269
 4184SOL    HW112701   2.469   4.526   0.220
 4184SOL    HW212702   2.394   4.465   0.336
 4185SOL     OW12703   3.141   4.082   0.934
 4185SOL    HW112704   3.051   4.049   0.943
 4185SOL    HW212705   3.192   4.027   0.993
 4186SOL     OW12706   3.446   5.394   0.311
 4186SOL    HW112707   3.538   5.417   0.305
 4186SOL    HW212708   3.419   5.376   0.221
 4187SOL     OW12709   2.646   4.333   1.475
 4187SOL    HW112710   2.636   4.291   1.561
 4187SOL    HW212711   2.612   4.270   1.413
 4188SOL     OW12712   3.259   4.204   1.684
 4188SOL    HW112713   3.263   4.253   1.767
 4188SOL    HW212714   3.309   4.124   1.701
 4189SOL     OW12715   2.830   4.621   1.575
 4189SOL    HW112716   2.879   4.545   1.541
 4189SOL    HW212717   2.777   4.649   1.500
 4190SOL     OW12718   2.854   4.135   1.235
 4190SOL    HW112719   2.767   4.155   1.270
 4190SOL    HW212720   2.837   4.089   1.153
 4191SOL     OW12721   2.917   4.418   0.427
 4191SOL    HW112722   2.934   4.415   0.521
 4191SOL    HW212723   2.834   4.371   0.417
 4192SOL     OW12724   1.951   4.544   0.777
 4192SOL    HW112725   2.032   4.538   0.828
 4192SOL    HW212726   1.907   4.622   0.812
 4193SOL     OW12727   1.987   5.567   1.588
 4193SOL    HW112728   1.982   5.543   1.680
 4193SOL    HW212729   1.896   5.572   1.559
 4194SOL     OW12730   2.750   4.074   0.203
 4194SOL    HW112731   2.804   4.126   0.143
 4194SOL    HW212732   2.746   3.987   0.162
 4195SOL     OW12733   3.236   4.866   0.541
 4195SOL    HW112734   3.314   4.848   0.489
 4195SOL    HW212735   3.187   4.930   0.489
 4196SOL     OW12736   2.412   3.905   0.894
 4196SOL    HW112737   2.414   3.934   0.985
 4196SOL    HW212738   2.412   3.986   0.843
 4197SOL     OW12739   2.872   5.175   0.476
 4197SOL    HW112740   2.833   5.244   0.422
 4197SOL    HW212741   2.841   5.194   0.565
 4198SOL     OW12742   2.217   5.535   0.865
 4198SOL    HW112743   2.263   5.451   0.873
 4198SOL    HW212744   2.284   5.600   0.884
 4199SOL     OW12745   3.666   4.779   0.872
 4199SOL    HW112746   3.614   4.760   0.794
 4199SOL    HW212747   3.602   4.783   0.943
 4200SOL     OW12748   3.094   5.269   1.499
 4200SOL    HW112749   3.089   5.195   1.559
 4200SOL    HW212750   3.023   5.255   1.437
 4201SOL     OW12751   2.172   4.672   0.261
 4201SOL    HW112752   2.220   4.714   0.190
 4201SOL    HW212753   2.163   4.581   0.233
 4202SOL     OW12754   3.340   4.467   0.726
 4202SOL    HW112755   3.336   4.426   0.812
 4202SOL    HW212756   3.420   4.519   0.728
 4203SOL     OW12757   2.260   5.012   1.783
 4203SOL    HW112758   2.257   5.041   1.692
 4203SOL    HW212759   2.257   4.916   1.778
 4204SOL     OW12760   2.981   5.501   0.226
 4204SOL    HW112761   2.915   5.456   0.279
 4204SOL    HW212762   3.016   5.433   0.168
 4205SOL     OW12763   2.060   4.008   1.505
 4205SOL    HW112764   1.989   4.070   1.487
 4205SOL    HW212765   2.047   3.982   1.596
 4206SOL     OW12766   3.478   5.095   0.049
 4206SOL    HW112767   3.463   5.190   0.044
 4206SOL    HW212768   3.395   5.057   0.021
 4207SOL     OW12769   2.332   5.457   0.336
 4207SOL    HW112770   2.375   5.518   0.395
 4207SOL    HW212771   2.397   5.437   0.269
 4208SOL     OW12772   3.267   3.832   0.433
 4208SOL    HW112773   3.262   3.810   0.340
 4208SOL    HW212774   3.360   3.841   0.451
 4209SOL     OW12775   2.114   5.512   1.232
 4209SOL    HW112776   2.170   5.446   1.273
 4209SOL    HW212777   2.109   5.486   1.141
 4210SOL     OW12778   2.802   5.421   0.900
 4210SOL    HW112779   2.882   5.372   0.917
 4210SOL    HW212780   2.757   5.370   0.832
 4211SOL     OW12781   2.256   4.418   0.475
 4211SOL    HW112782   2.279   4.325   0.486
 4211SOL    HW212783   2.163   4.423   0.496
 4212SOL     OW12784   3.388   3.948   1.746
 4212SOL    HW112785   3.399   3.928   1.839
 4212SOL    HW212786   3.314   3.894   1.718
 4213SOL     OW12787   2.481   3.806   0.104
 4213SOL    HW112788   2.577   3.813   0.106
 4213SOL    HW212789   2.453   3.872   0.041
 4214SOL     OW12790   2.740   5.248   1.194
 4214SOL    HW112791   2.724   5.211   1.107
 4214SOL    HW212792   2.810   5.194   1.230
 4215SOL     OW12793   3.205   4.313   1.433
 4215SOL    HW112794   3.235   4.284   1.519
 4215SOL    HW212795   3.240   4.402   1.425
 4216SOL     OW12796   2.679   5.118   0.942
 4216SOL    HW112797   2.763   5.106   0.898
 4216SOL    HW212798   2.615   5.122   0.871
 4217SOL     OW12799   2.790   4.233   0.902
 4217SOL    HW112800   2.766   4.224   0.809
 4217SOL    HW212801   2.820   4.145   0.927
 4218SOL     OW12802   2.416   3.791   0.507
 4218SOL    HW112803   2.335   3.789   0.559
 4218SOL    HW212804   2.406   3.867   0.450
 4219SOL     OW12805   3.255   4.937   0.026
 4219SOL    HW112806   3.283   4.870   0.089
 4219SOL    HW212807   3.178   4.976   0.065
 4220SOL     OW12808   2.803   3.972   0.458
 4220SOL    HW112809   2.778   4.013   0.375
 4220SOL    HW212810   2.897   3.986   0.465
 4221SOL     OW12811   2.941   4.400   1.454
 4221SOL    HW112812   2.877   4.332   1.473
 4221SOL    HW212813   3.025   4.355   1.453
 4222SOL     OW12814   3.081   5.299   0.798
 4222SOL    HW112815   3.097   5.361   0.727
 4222SOL    HW212816   3.155   5.311   0.858
 4223SOL     OW12817   2.332   4.875   0.732
 4223SOL    HW112818   2.265   4.855   0.796
 4223SOL    HW212819   2.291   4.859   0.647
 4224SOL     OW12820   3.128   5.521   0.610
 4224SOL    HW112821   3.177   5.583   0.556
 4224SOL    HW212822   3.058   5.573   0.649
 4225SOL     OW12823   2.898   4.267   0.054
 4225SOL    HW112824   2.818   4.303   0.016
 4225SOL    HW212825   2.916   4.324   0.129
 4226SOL     OW12826   1.943   4.268   1.395
 4226SOL    HW112827   2.034   4.271   1.367
 4226SOL    HW212828   1.937   4.331   1.466
 4227SOL     OW12829   2.421   3.951   1.170
 4227SOL    HW112830   2.463   3.876   1.212
 4227SOL    HW212831   2.331   3.948   1.200
 4228SOL     OW12832   2.729   4.183   0.637
 4228SOL    HW112833   2.683   4.237   0.574
 4228SOL    HW212834   2.750   4.103   0.589
 4229SOL     OW12835   2.879   3.777   0.748
 4229SOL    HW112836   2.819   3.769   0.674
 4229SOL    HW212837   2.857   3.703   0.804
 4230SOL     OW12838   3.300   4.883   0.859
 4230SOL    HW112839   3.230   4.819   0.850
 4230SOL    HW212840   3.331   4.897   0.769
 4231SOL     OW12841   3.327   4.330   0.974
 4231SOL    HW112842   3.274   4.251   0.977
 4231SOL    HW212843   3.385   4.323   1.050
 4232SOL     OW12844   3.728   4.541   0.396
 4232SOL    HW112845   3.783   4.486   0.452
 4232SOL    HW212846   3.690   4.481   0.333
 4233SOL     OW12847   2.347   5.138   0.159
 4233SOL    HW112848   2.271   5.112   0.211
 4233SOL    HW212849   2.339   5.088   0.078
 4234SOL     OW12850   3.531   4.982   0.668
 4234SOL    HW112851   3.627   4.987   0.664
 4234SOL    HW212852   3.502   5.073   0.670
 4235SOL     OW12853   3.271   4.299   0.095
 4235SOL    HW112854   3.209   4.289   0.167
 4235SOL    HW212855   3.316   4.215   0.089
 4236SOL     OW12856   2.372   3.975   0.308
 4236SOL    HW112857   2.422   3.927   0.242
 4236SOL    HW212858   2.359   4.062   0.269
 4237SOL     OW12859   3.617   4.960   1.569
 4237SOL    HW112860   3.704   4.929   1.545
 4237SOL    HW212861   3.631   5.049   1.602
 4238SOL     OW12862   2.921   5.083   1.340
 4238SOL    HW112863   2.843   5.047   1.383
 4238SOL    HW212864   2.994   5.035   1.378
 4239SOL     OW12865   3.471   5.346   1.650
 4239SOL    HW112866   3.465   5.382   1.561
 4239SOL    HW212867   3.554   5.297   1.649
 4240SOL     OW12868   2.993   4.937   1.104
 4240SOL    HW112869   2.923   4.967   1.163
 4240SOL    HW212870   2.965   4.965   1.017
 4241SOL     OW12871   3.486   4.817   1.077
 4241SOL    HW112872   3.478   4.880   1.149
 4241SOL    HW212873   3.411   4.835   1.021
 4242SOL     OW12874   2.777   3.821   1.396
 4242SOL    HW112875   2.799   3.801   1.305
 4242SOL    HW212876   2.857   3.859   1.433
 4243SOL     OW12877   2.871   4.856   1.711
 4243SOL    HW112878   2.791   4.862   1.763
 4243SOL    HW212879   2.858   4.779   1.655
 4244SOL     OW12880   2.573   4.789   0.374
 4244SOL    HW112881   2.554   4.773   0.466
 4244SOL    HW212882   2.641   4.725   0.352
 4245SOL     OW12883   2.279   4.540   1.253
 4245SOL    HW112884   2.347   4.550   1.318
 4245SOL    HW212885   2.246   4.451   1.265
 4246SOL     OW12886   3.127   4.102   1.275
 4246SOL    HW112887   3.159   4.178   1.322
 4246SOL    HW212888   3.036   4.123   1.254
 4247SOL     OW12889   1.933   5.300   1.352
 4247SOL    HW112890   1.904   5.373   1.297
 4247SOL    HW212891   2.028   5.303   1.348
 4248SOL     OW12892   2.208   4.834   0.490
 4248SOL    HW112893   2.218   4.906   0.427
 4248SOL    HW212894   2.203   4.755   0.436
 4249SOL     OW12895   2.415   4.257   0.859
 4249SOL    HW112896   2.429   4.315   0.784
 4249SOL    HW212897   2.480   4.283   0.923
 4250SOL     OW12898   3.118   5.075   0.394
 4250SOL    HW112899   3.166   5.150   0.430
 4250SOL    HW212900   3.028   5.088   0.424
 4251SOL     OW12901   3.143   5.183   1.147
 4251SOL    HW112902   3.198   5.183   1.225
 4251SOL    HW212903   3.089   5.105   1.156
 4252SOL     OW12904   3.442   4.348   0.480
 4252SOL    HW112905   3.394   4.400   0.545
 4252SOL    HW212906   3.473   4.413   0.417
 4253SOL     OW12907   2.210   5.249   1.316
 4253SOL    HW112908   2.196   5.205   1.232
 4253SOL    HW212909   2.304   5.263   1.321
 4254SOL     OW12910   3.485   4.514   1.701
 4254SOL    HW112911   3.395   4.545   1.694
 4254SOL    HW212912   3.527   4.544   1.621
 4255SOL     OW12913   2.887   3.825   1.760
 4255SOL    HW112914   2.916   3.909   1.724
 4255SOL    HW212915   2.946   3.761   1.720
 4256SOL     OW12916   2.445   4.598   1.032
 4256SOL    HW112917   2.477   4.688   1.034
 4256SOL    HW212918   2.390   4.591   1.110
 4257SOL     OW12919   3.216   4.583   1.030
 4257SOL    HW112920   3.133   4.572   0.983
 4257SOL    HW212921   3.260   4.498   1.021
 4258SOL     OW12922   3.079   4.245   0.283
 4258SOL    HW112923   3.082   4.166   0.337
 4258SOL    HW212924   3.035   4.310   0.338
 4259SOL     OW12925   2.158   3.922   1.251
 4259SOL    HW112926   2.123   3.953   1.334
 4259SOL    HW212927   2.140   3.828   1.250
 4260SOL     OW12928   1.906   5.037   1.277
 4260SOL    HW112929   1.941   4.985   1.350
 4260SOL    HW212930   1.912   5.127   1.306
 4261SOL     OW12931   2.586   4.356   1.056
 4261SOL    HW112932   2.661   4.341   0.999
 4261SOL    HW212933   2.557   4.444   1.035
 4262SOL     OW12934   2.166   3.788   0.623
 4262SOL    HW112935   2.144   3.879   0.644
 4262SOL    HW212936   2.173   3.744   0.708
 4263SOL     OW12937   3.489   4.103   0.366
 4263SOL    HW112938   3.508   4.035   0.430
 4263SOL    HW212939   3.462   4.179   0.418
 4264SOL     OW12940   2.893   4.482   0.959
 4264SOL    HW112941   2.888   4.500   1.053
 4264SOL    HW212942   2.866   4.390   0.951
 4265SOL     OW12943   2.868   5.274   1.702
 4265SOL    HW112944   2.845   5.336   1.632
 4265SOL    HW212945   2.833   5.190   1.672
 4266SOL     OW12946   3.718   5.224   1.603
 4266SOL    HW112947   3.735   5.256   1.515
 4266SOL    HW212948   3.799   5.242   1.651
 4267SOL     OW12949   3.358   4.035   0.130
 4267SOL    HW112950   3.349   3.940   0.136
 4267SOL    HW212951   3.411   4.059   0.206
 4268SOL     OW12952   3.155   4.536   0.025
 4268SOL    HW112953   3.203   4.456   0.045
 4268SOL    HW212954   3.200   4.573   5.949
 4269SOL     OW12955   2.931   5.060   0.856
 4269SOL    HW112956   2.933   4.990   0.791
 4269SOL    HW212957   2.989   5.127   0.819
 4270SOL     OW12958   2.171   4.534   0.949
 4270SOL    HW112959   2.264   4.555   0.944
 4270SOL    HW212960   2.168   4.443   0.980
 4271SOL     OW12961   2.190   4.254   1.011
 4271SOL    HW112962   2.156   4.165   0.998
 4271SOL    HW212963   2.268   4.258   0.955
 4272SOL     OW12964   2.995   4.114   1.657
 4272SOL    HW112965   2.946   4.155   1.729
 4272SOL    HW212966   3.083   4.150   1.665
 4273SOL     OW12967   3.026   3.921   1.465
 4273SOL    HW112968   3.011   3.986   1.534
 4273SOL    HW212969   3.064   3.971   1.393
 4274SOL     OW12970   1.952   5.511   0.940
 4274SOL    HW112971   1.923   5.432   0.894
 4274SOL    HW212972   2.041   5.525   0.910
 4275SOL     OW12973   2.357   5.296   0.906
 4275SOL    HW112974   2.426   5.359   0.931
 4275SOL    HW212975   2.401   5.234   0.848
 4276SOL     OW12976   2.842   4.516   1.224
 4276SOL    HW112977   2.898   4.489   1.297
 4276SOL    HW212978   2.755   4.483   1.247
 4277SOL     OW12979   1.900   4.270   1.116
 4277SOL    HW112980   1.981   4.261   1.066
 4277SOL    HW212981   1.928   4.268   1.207
 4278SOL     OW12982   3.252   4.665   1.655
 4278SOL    HW112983   3.261   4.760   1.653
 4278SOL    HW212984   3.249   4.639   1.563
 4279SOL     OW12985   2.679   4.296   0.363
 4279SOL    HW112986   2.682   4.220   0.304
 4279SOL    HW212987   2.604   4.347   0.333
 4280SOL     OW12988   3.504   4.329   1.187
 4280SOL    HW112989   3.493   4.266   1.258
 4280SOL    HW212990   3.591   4.308   1.150
 4281SOL     OW12991   2.100   5.276   1.730
 4281SOL    HW112992   2.074   5.350   1.785
 4281SOL    HW212993   2.135   5.212   1.792
 4282SOL     OW12994   2.572   4.175   1.262
 4282SOL    HW112995   2.516   4.102   1.235
 4282SOL    HW212996   2.565   4.238   1.191
 4283SOL     OW12997   2.789   5.401   1.468
 4283SOL    HW112998   2.758   5.363   1.385
 4283SOL    HW212999   2.778   5.495   1.456
 4284SOL     OW13000   2.322   4.218   0.195
 4284SOL    HW113001   2.382   4.290   0.215
 4284SOL    HW213002   2.237   4.261   0.183
 4285SOL     OW13003   2.006   4.860   1.470
 4285SOL    HW113004   2.038   4.804   1.541
 4285SOL    HW213005   2.013   4.805   1.392
 4286SOL     OW13006   3.185   4.775   1.223
 4286SOL    HW113007   3.209   4.711   1.156
 4286SOL    HW213008   3.116   4.828   1.182
 4287SOL     OW13009   3.151   4.565   0.312
 4287SOL    HW113010   3.076   4.528   0.359
 4287SOL    HW213011   3.133   4.545   0.220
 4288SOL     OW13012   3.635   5.465   1.152
 4288SOL    HW113013   3.696   5.494   1.083
 4288SOL    HW213014   3.612   5.375   1.127
 4289SOL     OW13015   3.105   5.458   1.113
 4289SOL    HW113016   3.187   5.480   1.069
 4289SOL    HW213017   3.110   5.364   1.129
 4290SOL     OW13018   1.946   4.993   1.010
 4290SOL    HW113019   1.927   5.005   1.103
 4290SOL    HW213020   1.874   4.937   0.978
 4291SOL     OW13021   2.549   5.406   1.734
 4291SOL    HW113022   2.488   5.480   1.734
 4291SOL    HW213023   2.591   5.410   1.648
 4292SOL     OW13024   2.770   3.808   0.106
 4292SOL    HW113025   2.835   3.826   0.038
 4292SOL    HW213026   2.817   3.758   0.172
 4293SOL     OW13027   3.568   3.872   0.511
 4293SOL    HW113028   3.646   3.864   0.457
 4293SOL    HW213029   3.557   3.786   0.551
 4294SOL     OW13030   3.254   5.297   0.492
 4294SOL    HW113031   3.313   5.328   0.424
 4294SOL    HW213032   3.206   5.375   0.519
 4295SOL     OW13033   1.995   5.499   1.860
 4295SOL    HW113034   1.934   5.458   1.922
 4295SOL    HW213035   2.050   5.556   1.913
 4296SOL     OW13036   3.139   4.652   0.675
 4296SOL    HW113037   3.213   4.591   0.681
 4296SOL    HW213038   3.171   4.723   0.620
 4297SOL     OW13039   2.673   4.998   1.421
 4297SOL    HW113040   2.644   5.035   1.505
 4297SOL    HW213041   2.603   5.020   1.360
 4298SOL     OW13042   2.531   5.335   0.163
 4298SOL    HW113043   2.546   5.332   0.068
 4298SOL    HW213044   2.474   5.261   0.181
 4299SOL     OW13045   3.486   5.451   1.389
 4299SOL    HW113046   3.538   5.458   1.308
 4299SOL    HW213047   3.467   5.542   1.413
 4300SOL     OW13048   3.702   3.896   0.965
 4300SOL    HW113049   3.731   3.809   0.938
 4300SOL    HW213050   3.615   3.905   0.924
 4301SOL     OW13051   2.123   4.041   0.716
 4301SOL    HW113052   2.037   4.077   0.694
 4301SOL    HW213053   2.122   4.033   0.811
 4302SOL     OW13054   3.085   5.322   0.039
 4302SOL    HW113055   3.065   5.232   0.066
 4302SOL    HW213056   3.024   5.340   5.967
 4303SOL     OW13057   2.688   4.729   1.369
 4303SOL    HW113058   2.730   4.727   1.283
 4303SOL    HW213059   2.683   4.823   1.391
 4304SOL     OW13060   2.771   4.621   0.298
 4304SOL    HW113061   2.820   4.637   0.217
 4304SOL    HW213062   2.818   4.549   0.340
 4305SOL     OW13063   3.359   5.359   0.044
 4305SOL    HW113064   3.265   5.344   0.036
 4305SOL    HW213065   3.388   5.381   5.956
 4306SOL     OW13066   2.220   5.035   1.513
 4306SOL    HW113067   2.229   5.108   1.451
 4306SOL    HW213068   2.154   4.978   1.474
 4307SOL     OW13069   3.469   5.004   1.280
 4307SOL    HW113070   3.536   4.998   1.349
 4307SOL    HW213071   3.412   5.075   1.309
 4308SOL     OW13072   2.916   4.831   0.707
 4308SOL    HW113073   2.846   4.779   0.746
 4308SOL    HW213074   2.982   4.767   0.680
 4309SOL     OW13075   2.883   3.965   0.965
 4309SOL    HW113076   2.880   3.917   0.882
 4309SOL    HW213077   2.878   3.897   1.032
 4310SOL     OW13078   2.469   5.214   0.479
 4310SOL    HW113079   2.513   5.163   0.411
 4310SOL    HW213080   2.400   5.261   0.432
 4311SOL     OW13081   3.577   4.116   1.376
 4311SOL    HW113082   3.651   4.177   1.379
 4311SOL    HW213083   3.609   4.044   1.321
 4312SOL     OW13084   2.115   5.060   0.285
 4312SOL    HW113085   2.037   5.004   0.283
 4312SOL    HW213086   2.110   5.105   0.370
 4313SOL     OW13087   2.539   3.922   1.514
 4313SOL    HW113088   2.624   3.905   1.474
 4313SOL    HW213089   2.555   3.919   1.608
 4314SOL     OW13090   1.900   4.128   0.026
 4314SOL    HW113091   1.857   4.047   0.050
 4314SOL    HW213092   1.971   4.101   5.968
 4315SOL     OW13093   3.292   4.584   1.397
 4315SOL    HW113094   3.241   4.643   1.342
 4315SOL    HW213095   3.379   4.585   1.358
 4316SOL     OW13096   1.922   3.888   0.339
 4316SOL    HW113097   1.882   3.942   0.271
 4316SOL    HW213098   2.008   3.865   0.304
 4317SOL     OW13099   3.034   5.068   0.129
 4317SOL    HW113100   2.946   5.032   0.132
 4317SOL    HW213101   3.065   5.062   0.220
 4318SOL     OW13102   2.484   4.554   1.426
 4318SOL    HW113103   2.546   4.626   1.416
 4318SOL    HW213104   2.539   4.479   1.451
 4319SOL     OW13105   3.348   5.507   0.984
 4319SOL    HW113106   3.369   5.566   0.912
 4319SOL    HW213107   3.433   5.481   1.019
 4320SOL     OW13108   3.340   4.935   1.642
 4320SOL    HW113109   3.339   4.946   1.737
 4320SOL    HW213110   3.432   4.946   1.617
 4321SOL     OW13111   2.239   5.461   1.561
 4321SOL    HW113112   2.154   5.503   1.549
 4321SOL    HW213113   2.219   5.375   1.599
 4322SOL     OW13114   3.534   4.604   1.261
 4322SOL    HW113115   3.528   4.518   1.219
 4322SOL    HW213116   3.522   4.666   1.189
 4323SOL     OW13117   3.077   4.035   0.463
 4323SOL    HW113118   3.143   3.966   0.453
 4323SOL    HW213119   3.106   4.086   0.539
 4324SOL     OW13120   2.453   4.460   0.670
 4324SOL    HW113121   2.491   4.546   0.656
 4324SOL    HW213122   2.385   4.452   0.603
 4325SOL     OW13123   3.633   4.067   1.645
 4325SOL    HW113124   3.606   4.094   1.557
 4325SOL    HW213125   3.558   4.018   1.679
 4326SOL     OW13126   3.630   4.663   1.516
 4326SOL    HW113127   3.603   4.754   1.528
 4326SOL    HW213128   3.605   4.642   1.425
 4327SOL     OW13129   2.741   5.102   0.028
 4327SOL    HW113130   2.695   5.093   0.112
 4327SOL    HW213131   2.747   5.196   0.014
 4328SOL     OW13132   2.526   5.508   0.941
 4328SOL    HW113133   2.504   5.599   0.922
 4328SOL    HW213134   2.622   5.505   0.937
 4329SOL     OW13135   2.730   4.690   0.856
 4329SOL    HW113136   2.781   4.619   0.894
 4329SOL    HW213137   2.694   4.737   0.931
 4330SOL     OW13138   2.939   4.692   0.089
 4330SOL    HW113139   2.907   4.737   0.010
 4330SOL    HW213140   3.018   4.647   0.061
 4331SOL     OW13141   3.713   5.277   0.843
 4331SOL    HW113142   3.635   5.265   0.789
 4331SOL    HW213143   3.706   5.209   0.910
 4332SOL     OW13144   1.948   4.955   0.666
 4332SOL    HW113145   1.953   4.907   0.749
 4332SOL    HW213146   2.015   4.914   0.611
 4333SOL     OW13147   2.526   5.155   1.596
 4333SOL    HW113148   2.509   5.073   1.641
 4333SOL    HW213149   2.532   5.220   1.666
 4334SOL     OW13150   3.673   3.904   1.237
 4334SOL    HW113151   3.685   3.809   1.248
 4334SOL    HW213152   3.683   3.919   1.143
 4335SOL     OW13153   2.297   4.154   0.526
 4335SOL    HW113154   2.315   4.083   0.464
 4335SOL    HW213155   2.244   4.114   0.595
 4336SOL     OW13156   3.561   5.209   1.094
 4336SOL    HW113157   3.481   5.189   1.045
 4336SOL    HW213158   3.568   5.138   1.158
 4337SOL     OW13159   2.195   4.278   1.293
 4337SOL    HW113160   2.252   4.224   1.348
 4337SOL    HW213161   2.214   4.250   1.204
 4338SOL     OW13162   2.692   5.302   0.676
 4338SOL    HW113163   2.672   5.368   0.609
 4338SOL    HW213164   2.617   5.243   0.675
 4339SOL     OW13165   3.296   3.950   1.119
 4339SOL    HW113166   3.317   3.868   1.164
 4339SOL    HW213167   3.244   4.000   1.182
 4340SOL     OW13168   2.870   3.742   1.139
 4340SOL    HW113169   2.817   3.673   1.099
 4340SOL    HW213170   2.958   3.705   1.143
 4341SOL     OW13171   2.641   5.056   0.307
 4341SOL    HW113172   2.606   4.967   0.319
 4341SOL    HW213173   2.729   5.052   0.345
 4342SOL     OW13174   2.481   5.281   1.280
 4342SOL    HW113175   2.485   5.358   1.336
 4342SOL    HW213176   2.569   5.274   1.243
 4343SOL     OW13177   3.219   3.777   0.161
 4343SOL    HW113178   3.247   3.712   0.097
 4343SOL    HW213179   3.130   3.751   0.184
 4344SOL     OW13180   3.158   4.186   0.679
 4344SOL    HW113181   3.107   4.267   0.685
 4344SOL    HW213182   3.155   4.148   0.767
 4345SOL     OW13183   3.444   3.922   0.878
 4345SOL    HW113184   3.388   3.945   0.952
 4345SOL    HW213185   3.443   4.000   0.822
 4346SOL     OW13186   1.926   4.800   0.296
 4346SOL    HW113187   2.015   4.770   0.277
 4346SOL    HW213188   1.889   4.734   0.354
 4347SOL     OW13189   2.750   5.381   0.334
 4347SOL    HW113190   2.674   5.358   0.281
 4347SOL    HW213191   2.717   5.447   0.396
 4348SOL     OW13192   3.405   5.232   2.510
 4348SOL    HW113193   3.361   5.199   2.588
 4348SOL    HW213194   3.337   5.232   2.442
 4349SOL     OW13195   2.713   4.567   3.652
 4349SOL    HW113196   2.788   4.599   3.703
 4349SOL    HW213197   2.752   4.519   3.580
 4350SOL     OW13198   2.504   4.727   2.552
 4350SOL    HW113199   2.599   4.726   2.553
 4350SOL    HW213200   2.481   4.811   2.513
 4351SOL     OW13201   2.486   4.905   3.648
 4351SOL    HW113202   2.553   4.942   3.706
 4351SOL    HW213203   2.408   4.957   3.665
 4352SOL     OW13204   3.298   5.249   3.310
 4352SOL    HW113205   3.353   5.326   3.297
 4352SOL    HW213206   3.358   5.175   3.301
 4353SOL     OW13207   2.090   5.441   2.328
 4353SOL    HW113208   2.110   5.520   2.379
 4353SOL    HW213209   2.166   5.429   2.272
 4354SOL     OW13210   2.116   5.169   2.407
 4354SOL    HW113211   2.080   5.255   2.385
 4354SOL    HW213212   2.041   5.120   2.442
 4355SOL     OW13213   2.506   5.485   3.328
 4355SOL    HW113214   2.419   5.480   3.366
 4355SOL    HW213215   2.532   5.577   3.337
 4356SOL     OW13216   3.707   5.484   2.221
 4356SOL    HW113217   3.793   5.455   2.252
 4356SOL    HW213218   3.722   5.572   2.187
 4357SOL     OW13219   3.034   5.524   3.473
 4357SOL    HW113220   3.090   5.584   3.423
 4357SOL    HW213221   3.059   5.437   3.443
 4358SOL     OW13222   3.122   4.051   2.729
 4358SOL    HW113223   3.051   3.992   2.754
 4358SOL    HW213224   3.162   4.077   2.812
 4359SOL     OW13225   3.434   5.450   2.165
 4359SOL    HW113226   3.529   5.442   2.177
 4359SOL    HW213227   3.415   5.391   2.091
 4360SOL     OW13228   1.949   5.624   3.507
 4360SOL    HW113229   1.966   5.571   3.586
 4360SOL    HW213230   1.918   5.561   3.442
 4361SOL     OW13231   2.401   3.891   2.727
 4361SOL    HW113232   2.385   3.894   2.821
 4361SOL    HW213233   2.352   3.965   2.692
 4362SOL     OW13234   2.872   5.190   2.318
 4362SOL    HW113235   2.840   5.256   2.256
 4362SOL    HW213236   2.849   5.224   2.404
 4363SOL     OW13237   2.235   5.531   2.701
 4363SOL    HW113238   2.266   5.441   2.706
 4363SOL    HW213239   2.315   5.584   2.706
 4364SOL     OW13240   2.239   5.013   3.647
 4364SOL    HW113241   2.240   5.035   3.554
 4364SOL    HW213242   2.221   4.919   3.649
 4365SOL     OW13243   2.984   5.505   2.087
 4365SOL    HW113244   2.908   5.466   2.131
 4365SOL    HW213245   3.010   5.442   2.021
 4366SOL     OW13246   3.469   5.074   1.941
 4366SOL    HW113247   3.463   5.169   1.927
 4366SOL    HW213248   3.398   5.055   2.003
 4367SOL     OW13249   2.331   5.463   2.186
 4367SOL    HW113250   2.375   5.526   2.243
 4367SOL    HW213251   2.399   5.435   2.125
 4368SOL     OW13252   2.098   5.507   3.279
 4368SOL    HW113253   2.168   5.445   3.263
 4368SOL    HW213254   2.104   5.570   3.207
 4369SOL     OW13255   2.794   5.407   2.735
 4369SOL    HW113256   2.887   5.383   2.737
 4369SOL    HW213257   2.759   5.360   2.659
 4370SOL     OW13258   2.229   4.392   2.327
 4370SOL    HW113259   2.305   4.388   2.386
 4370SOL    HW213260   2.153   4.382   2.385
 4371SOL     OW13261   3.086   5.276   2.643
 4371SOL    HW113262   3.097   5.347   2.580
 4371SOL    HW213263   3.167   5.275   2.693
 4372SOL     OW13264   3.127   5.499   2.465
 4372SOL    HW113265   3.174   5.557   2.404
 4372SOL    HW213266   3.051   5.550   2.492
 4373SOL     OW13267   2.352   5.139   2.025
 4373SOL    HW113268   2.308   5.082   2.089
 4373SOL    HW213269   2.327   5.103   1.940
 4374SOL     OW13270   3.544   4.975   2.520
 4374SOL    HW113271   3.637   4.989   2.504
 4374SOL    HW213272   3.505   5.062   2.511
 4375SOL     OW13273   3.277   4.310   1.944
 4375SOL    HW113274   3.220   4.281   2.016
 4375SOL    HW213275   3.365   4.289   1.974
 4376SOL     OW13276   2.931   5.069   3.286
 4376SOL    HW113277   2.845   5.108   3.268
 4376SOL    HW213278   2.993   5.124   3.239
 4377SOL     OW13279   3.493   5.327   3.543
 4377SOL    HW113280   3.489   5.367   3.456
 4377SOL    HW213281   3.564   5.263   3.537
 4378SOL     OW13282   1.917   5.299   3.281
 4378SOL    HW113283   1.910   5.330   3.191
 4378SOL    HW213284   2.006   5.322   3.307
 4379SOL     OW13285   2.211   5.251   3.278
 4379SOL    HW113286   2.199   5.221   3.189
 4379SOL    HW213287   2.306   5.249   3.292
 4380SOL     OW13288   3.087   4.232   2.136
 4380SOL    HW113289   3.019   4.172   2.168
 4380SOL    HW213290   3.050   4.319   2.151
 4381SOL     OW13291   3.517   4.053   2.269
 4381SOL    HW113292   3.507   3.971   2.317
 4381SOL    HW213293   3.438   4.103   2.291
 4382SOL     OW13294   3.132   4.523   1.852
 4382SOL    HW113295   3.201   4.469   1.889
 4382SOL    HW213296   3.176   4.578   1.788
 4383SOL     OW13297   2.925   5.066   2.715
 4383SOL    HW113298   2.975   4.985   2.717
 4383SOL    HW213299   2.988   5.132   2.685
 4384SOL     OW13300   2.263   4.583   2.738
 4384SOL    HW113301   2.346   4.542   2.762
 4384SOL    HW213302   2.201   4.510   2.734
 4385SOL     OW13303   2.985   4.105   3.536
 4385SOL    HW113304   2.935   4.114   3.617
 4385SOL    HW213305   3.057   4.168   3.546
 4386SOL     OW13306   1.963   5.520   2.712
 4386SOL    HW113307   1.948   5.444   2.655
 4386SOL    HW213308   2.058   5.526   2.718
 4387SOL     OW13309   2.373   5.298   2.720
 4387SOL    HW113310   2.435   5.371   2.718
 4387SOL    HW213311   2.429   5.220   2.723
 4388SOL     OW13312   2.105   5.273   3.600
 4388SOL    HW113313   2.066   5.343   3.652
 4388SOL    HW213314   2.119   5.202   3.662
 4389SOL     OW13315   2.807   5.357   3.342
 4389SOL    HW113316   2.736   5.352   3.277
 4389SOL    HW213317   2.803   5.447   3.375
 4390SOL     OW13318   2.330   4.249   2.043
 4390SOL    HW113319   2.385   4.290   2.109
 4390SOL    HW213320   2.240   4.265   2.073
 4391SOL     OW13321   3.572   5.527   2.734
 4391SOL    HW113322   3.667   5.513   2.725
 4391SOL    HW213323   3.563   5.592   2.803
 4392SOL     OW13324   3.047   5.533   2.745
 4392SOL    HW113325   3.136   5.522   2.711
 4392SOL    HW213326   3.055   5.515   2.839
 4393SOL     OW13327   1.994   5.484   3.739
 4393SOL    HW113328   1.924   5.453   3.796
 4393SOL    HW213329   2.049   5.539   3.795
 4394SOL     OW13330   3.088   4.651   2.460
 4394SOL    HW113331   3.096   4.593   2.536
 4394SOL    HW213332   3.140   4.728   2.483
 4395SOL     OW13333   2.524   5.353   2.014
 4395SOL    HW113334   2.544   5.364   1.921
 4395SOL    HW213335   2.469   5.275   2.017
 4396SOL     OW13336   3.483   5.450   3.295
 4396SOL    HW113337   3.573   5.453   3.262
 4396SOL    HW213338   3.458   5.542   3.303
 4397SOL     OW13339   3.698   3.856   2.738
 4397SOL    HW113340   3.679   3.814   2.822
 4397SOL    HW213341   3.626   3.918   2.725
 4398SOL     OW13342   3.087   5.338   1.882
 4398SOL    HW113343   3.047   5.269   1.934
 4398SOL    HW213344   3.028   5.350   1.808
 4399SOL     OW13345   3.365   5.342   1.905
 4399SOL    HW113346   3.270   5.337   1.897
 4399SOL    HW213347   3.397   5.351   1.815
 4400SOL     OW13348   2.200   4.995   3.368
 4400SOL    HW113349   2.207   5.088   3.346
 4400SOL    HW213350   2.106   4.978   3.369
 4401SOL     OW13351   2.462   5.245   2.330
 4401SOL    HW113352   2.473   5.180   2.261
 4401SOL    HW213353   2.389   5.299   2.301
 4402SOL     OW13354   3.544   4.154   3.272
 4402SOL    HW113355   3.607   4.225   3.284
 4402SOL    HW213356   3.592   4.086   3.224
 4403SOL     OW13357   3.310   5.466   2.722
 4403SOL    HW113358   3.358   5.511   2.653
 4403SOL    HW213359   3.377   5.417   2.769
 4404SOL     OW13360   2.267   5.457   3.476
 4404SOL    HW113361   2.197   5.502   3.429
 4404SOL    HW213362   2.225   5.378   3.511
 4405SOL     OW13363   2.675   5.142   1.861
 4405SOL    HW113364   2.684   5.133   1.956
 4405SOL    HW213365   2.731   5.216   1.838
 4406SOL     OW13366   2.534   5.514   2.709
 4406SOL    HW113367   2.522   5.609   2.703
 4406SOL    HW213368   2.627   5.504   2.731
 4407SOL     OW13369   2.926   4.673   1.938
 4407SOL    HW113370   2.920   4.754   1.888
 4407SOL    HW213371   3.002   4.628   1.902
 4408SOL     OW13372   1.957   4.954   2.509
 4408SOL    HW113373   1.990   4.915   2.589
 4408SOL    HW213374   2.004   4.909   2.439
 4409SOL     OW13375   2.697   5.308   2.503
 4409SOL    HW113376   2.655   5.354   2.430
 4409SOL    HW213377   2.625   5.267   2.550
 4410SOL     OW13378   3.462   4.005   2.728
 4410SOL    HW113379   3.377   3.964   2.715
 4410SOL    HW213380   3.448   4.096   2.704
 4411SOL     OW13381   2.743   5.389   2.185
 4411SOL    HW113382   2.668   5.373   2.128
 4411SOL    HW213383   2.713   5.457   2.245
 4412SOL     OW13384   2.084   4.008   4.721
 4412SOL    HW113385   2.112   3.971   4.804
 4412SOL    HW213386   1.995   3.976   4.708
 4413SOL     OW13387   1.859   4.088   4.376
 4413SOL    HW113388   1.777   4.127   4.406
 4413SOL    HW213389   1.834   4.002   4.343
 4414SOL     OW13390   2.428   5.017   4.904
 4414SOL    HW113391   2.341   5.021   4.865
 4414SOL    HW213392   2.445   5.106   4.935
 4415SOL     OW13393   3.442   5.238   4.445
 4415SOL    HW113394   3.388   5.220   4.522
 4415SOL    HW213395   3.379   5.248   4.374
 4416SOL     OW13396   2.998   4.412   4.449
 4416SOL    HW113397   3.042   4.492   4.420
 4416SOL    HW213398   2.952   4.438   4.529
 4417SOL     OW13399   2.613   4.865   4.771
 4417SOL    HW113400   2.545   4.902   4.827
 4417SOL    HW213401   2.650   4.941   4.725
 4418SOL     OW13402   2.733   4.495   5.550
 4418SOL    HW113403   2.716   4.566   5.612
 4418SOL    HW213404   2.754   4.540   5.468
 4419SOL     OW13405   2.541   4.713   4.395
 4419SOL    HW113406   2.612   4.715   4.459
 4419SOL    HW213407   2.480   4.780   4.425
 4420SOL     OW13408   2.576   4.878   5.536
 4420SOL    HW113409   2.622   4.956   5.565
 4420SOL    HW213410   2.493   4.911   5.500
 4421SOL     OW13411   2.190   5.138   4.796
 4421SOL    HW113412   2.116   5.104   4.745
 4421SOL    HW213413   2.240   5.191   4.733
 4422SOL     OW13414   3.321   5.225   5.082
 4422SOL    HW113415   3.375   5.304   5.090
 4422SOL    HW213416   3.258   5.232   5.153
 4423SOL     OW13417   2.314   4.121   5.209
 4423SOL    HW113418   2.389   4.062   5.215
 4423SOL    HW213419   2.238   4.066   5.226
 4424SOL     OW13420   3.466   4.176   4.470
 4424SOL    HW113421   3.384   4.203   4.429
 4424SOL    HW213422   3.493   4.252   4.521
 4425SOL     OW13423   2.084   5.433   4.197
 4425SOL    HW113424   2.101   5.514   4.246
 4425SOL    HW213425   2.155   5.429   4.132
 4426SOL     OW13426   3.001   5.065   5.418
 4426SOL    HW113427   3.044   5.058   5.504
 4426SOL    HW213428   2.949   4.985   5.411
 4427SOL     OW13429   2.100   5.162   4.267
 4427SOL    HW113430   2.072   5.247   4.233
 4427SOL    HW213431   2.020   5.123   4.303
 4428SOL     OW13432   2.115   4.813   4.607
 4428SOL    HW113433   2.117   4.726   4.647
 4428SOL    HW213434   2.061   4.865   4.666
 4429SOL     OW13435   2.475   5.509   5.158
 4429SOL    HW113436   2.391   5.494   5.201
 4429SOL    HW213437   2.496   5.601   5.178
 4430SOL     OW13438   3.455   3.851   5.190
 4430SOL    HW113439   3.474   3.933   5.144
 4430SOL    HW213440   3.439   3.878   5.281
 4431SOL     OW13441   2.012   4.352   4.314
 4431SOL    HW113442   1.940   4.302   4.275
 4431SOL    HW213443   1.969   4.413   4.373
 4432SOL     OW13444   3.712   5.483   4.052
 4432SOL    HW113445   3.778   5.453   4.114
 4432SOL    HW213446   3.732   5.576   4.038
 4433SOL     OW13447   3.564   4.624   4.325
 4433SOL    HW113448   3.643   4.611   4.378
 4433SOL    HW213449   3.569   4.716   4.299
 4434SOL     OW13450   1.985   4.468   5.311
 4434SOL    HW113451   2.077   4.495   5.314
 4434SOL    HW213452   1.935   4.549   5.316
 4435SOL     OW13453   2.481   5.110   4.463
 4435SOL    HW113454   2.437   5.025   4.464
 4435SOL    HW213455   2.431   5.162   4.401
 4436SOL     OW13456   3.150   4.962   5.147
 4436SOL    HW113457   3.182   4.895   5.086
 4436SOL    HW213458   3.210   4.956   5.222
 4437SOL     OW13459   2.663   3.764   4.278
 4437SOL    HW113460   2.692   3.789   4.191
 4437SOL    HW213461   2.568   3.759   4.272
 4438SOL     OW13462   2.050   4.688   4.997
 4438SOL    HW113463   2.135   4.647   4.981
 4438SOL    HW213464   1.988   4.636   4.945
 4439SOL     OW13465   3.047   5.526   5.346
 4439SOL    HW113466   3.062   5.582   5.270
 4439SOL    HW213467   3.062   5.438   5.314
 4440SOL     OW13468   2.199   3.975   5.537
 4440SOL    HW113469   2.242   4.058   5.559
 4440SOL    HW213470   2.109   3.986   5.567
 4441SOL     OW13471   3.329   5.141   4.679
 4441SOL    HW113472   3.259   5.159   4.742
 4441SOL    HW213473   3.314   5.051   4.652
 4442SOL     OW13474   3.532   5.470   4.307
 4442SOL    HW113475   3.519   5.429   4.221
 4442SOL    HW213476   3.506   5.403   4.370
 4443SOL     OW13477   3.137   4.076   4.670
 4443SOL    HW113478   3.047   4.044   4.680
 4443SOL    HW213479   3.189   4.021   4.730
 4444SOL     OW13480   2.656   4.341   5.174
 4444SOL    HW113481   2.630   4.318   5.263
 4444SOL    HW213482   2.617   4.274   5.119
 4445SOL     OW13483   3.256   4.196   5.398
 4445SOL    HW113484   3.262   4.245   5.480
 4445SOL    HW213485   3.314   4.120   5.411
 4446SOL     OW13486   2.814   4.610   5.308
 4446SOL    HW113487   2.869   4.540   5.273
 4446SOL    HW213488   2.766   4.644   5.233
 4447SOL     OW13489   2.853   4.136   4.961
 4447SOL    HW113490   2.766   4.156   4.995
 4447SOL    HW213491   2.836   4.092   4.877
 4448SOL     OW13492   2.893   4.435   4.198
 4448SOL    HW113493   2.914   4.406   4.287
 4448SOL    HW213494   2.821   4.377   4.171
 4449SOL     OW13495   1.935   4.559   4.492
 4449SOL    HW113496   2.018   4.542   4.536
 4449SOL    HW213497   1.897   4.633   4.540
 4450SOL     OW13498   1.988   5.576   5.301
 4450SOL    HW113499   1.989   5.555   5.394
 4450SOL    HW213500   1.896   5.567   5.275
 4451SOL     OW13501   3.565   4.293   5.552
 4451SOL    HW113502   3.530   4.368   5.504
 4451SOL    HW213503   3.597   4.234   5.484
 4452SOL     OW13504   3.233   4.860   4.273
 4452SOL    HW113505   3.306   4.869   4.211
 4452SOL    HW213506   3.167   4.922   4.240
 4453SOL     OW13507   2.412   3.900   4.618
 4453SOL    HW113508   2.414   3.935   4.707
 4453SOL    HW213509   2.399   3.977   4.562
 4454SOL     OW13510   2.860   5.173   4.204
 4454SOL    HW113511   2.833   5.246   4.148
 4454SOL    HW213512   2.833   5.200   4.292
 4455SOL     OW13513   2.222   5.532   4.590
 4455SOL    HW113514   2.271   5.453   4.611
 4455SOL    HW213515   2.283   5.604   4.608
 4456SOL     OW13516   3.650   4.774   4.592
 4456SOL    HW113517   3.598   4.821   4.526
 4456SOL    HW213518   3.596   4.776   4.671
 4457SOL     OW13519   3.088   5.263   5.238
 4457SOL    HW113520   3.077   5.188   5.297
 4457SOL    HW213521   3.025   5.247   5.167
 4458SOL     OW13522   2.172   4.726   3.908
 4458SOL    HW113523   2.267   4.719   3.918
 4458SOL    HW213524   2.139   4.640   3.933
 4459SOL     OW13525   3.338   4.469   4.453
 4459SOL    HW113526   3.336   4.427   4.539
 4459SOL    HW213527   3.425   4.509   4.448
 4460SOL     OW13528   2.327   4.990   5.466
 4460SOL    HW113529   2.300   4.994   5.374
 4460SOL    HW213530   2.244   4.986   5.514
 4461SOL     OW13531   2.986   5.503   3.957
 4461SOL    HW113532   2.909   5.465   3.999
 4461SOL    HW213533   3.005   5.445   3.883
 4462SOL     OW13534   2.063   4.004   5.229
 4462SOL    HW113535   1.980   4.051   5.225
 4462SOL    HW213536   2.042   3.924   5.279
 4463SOL     OW13537   3.483   5.084   3.827
 4463SOL    HW113538   3.479   5.179   3.815
 4463SOL    HW213539   3.395   5.053   3.807
 4464SOL     OW13540   2.323   5.469   4.041
 4464SOL    HW113541   2.371   5.525   4.102
 4464SOL    HW213542   2.390   5.435   3.982
 4465SOL     OW13543   2.115   5.514   4.956
 4465SOL    HW113544   2.167   5.444   4.997
 4465SOL    HW213545   2.104   5.486   4.865
 4466SOL     OW13546   2.800   5.422   4.623
 4466SOL    HW113547   2.877   5.370   4.645
 4466SOL    HW213548   2.756   5.371   4.555
 4467SOL     OW13549   2.258   4.407   4.212
 4467SOL    HW113550   2.274   4.314   4.194
 4467SOL    HW213551   2.169   4.409   4.245
 4468SOL     OW13552   3.394   3.949   5.455
 4468SOL    HW113553   3.404   3.971   5.548
 4468SOL    HW213554   3.328   3.880   5.454
 4469SOL     OW13555   2.626   4.000   5.477
 4469SOL    HW113556   2.705   3.945   5.477
 4469SOL    HW213557   2.600   4.005   5.569
 4470SOL     OW13558   2.740   5.247   4.918
 4470SOL    HW113559   2.723   5.211   4.831
 4470SOL    HW213560   2.810   5.193   4.954
 4471SOL     OW13561   3.204   4.313   5.154
 4471SOL    HW113562   3.235   4.282   5.239
 4471SOL    HW213563   3.239   4.402   5.147
 4472SOL     OW13564   2.680   5.117   4.668
 4472SOL    HW113565   2.764   5.108   4.624
 4472SOL    HW213566   2.616   5.120   4.596
 4473SOL     OW13567   2.789   4.234   4.626
 4473SOL    HW113568   2.770   4.230   4.532
 4473SOL    HW213569   2.817   4.145   4.648
 4474SOL     OW13570   2.397   3.785   4.205
 4474SOL    HW113571   2.313   3.788   4.252
 4474SOL    HW213572   2.407   3.872   4.168
 4475SOL     OW13573   2.943   4.404   5.184
 4475SOL    HW113574   2.875   4.336   5.188
 4475SOL    HW213575   3.025   4.355   5.177
 4476SOL     OW13576   3.091   5.294   4.513
 4476SOL    HW113577   3.100   5.363   4.448
 4476SOL    HW213578   3.155   5.316   4.581
 4477SOL     OW13579   2.326   4.882   4.448
 4477SOL    HW113580   2.256   4.860   4.511
 4477SOL    HW213581   2.291   4.854   4.363
 4478SOL     OW13582   3.127   5.519   4.353
 4478SOL    HW113583   3.176   5.567   4.285
 4478SOL    HW213584   3.057   5.579   4.379
 4479SOL     OW13585   1.942   4.277   5.118
 4479SOL    HW113586   2.034   4.276   5.092
 4479SOL    HW213587   1.937   4.348   5.183
 4480SOL     OW13588   2.421   3.952   4.892
 4480SOL    HW113589   2.461   3.875   4.933
 4480SOL    HW213590   2.330   3.948   4.922
 4481SOL     OW13591   2.727   4.194   4.356
 4481SOL    HW113592   2.662   4.241   4.304
 4481SOL    HW213593   2.724   4.104   4.323
 4482SOL     OW13594   2.864   3.786   4.473
 4482SOL    HW113595   2.794   3.782   4.409
 4482SOL    HW213596   2.853   3.707   4.526
 4483SOL     OW13597   3.299   4.882   4.585
 4483SOL    HW113598   3.224   4.823   4.582
 4483SOL    HW213599   3.324   4.893   4.494
 4484SOL     OW13600   3.327   4.329   4.700
 4484SOL    HW113601   3.272   4.251   4.705
 4484SOL    HW213602   3.385   4.322   4.775
 4485SOL     OW13603   2.357   5.135   3.912
 4485SOL    HW113604   2.274   5.117   3.957
 4485SOL    HW213605   2.335   5.125   3.819
 4486SOL     OW13606   3.536   4.974   4.406
 4486SOL    HW113607   3.631   4.978   4.397
 4486SOL    HW213608   3.509   5.064   4.423
 4487SOL     OW13609   3.299   4.327   3.794
 4487SOL    HW113610   3.227   4.304   3.853
 4487SOL    HW213611   3.368   4.264   3.815
 4488SOL     OW13612   3.614   4.964   5.292
 4488SOL    HW113613   3.702   4.926   5.286
 4488SOL    HW213614   3.629   5.054   5.322
 4489SOL     OW13615   2.919   5.080   5.058
 4489SOL    HW113616   2.844   5.048   5.108
 4489SOL    HW213617   2.994   5.036   5.099
 4490SOL     OW13618   3.468   5.349   5.377
 4490SOL    HW113619   3.465   5.383   5.288
 4490SOL    HW213620   3.551   5.301   5.382
 4491SOL     OW13621   2.993   4.931   4.829
 4491SOL    HW113622   2.931   4.968   4.892
 4491SOL    HW213623   2.964   4.965   4.744
 4492SOL     OW13624   3.486   4.821   4.803
 4492SOL    HW113625   3.481   4.884   4.875
 4492SOL    HW213626   3.408   4.839   4.750
 4493SOL     OW13627   2.779   3.819   5.120
 4493SOL    HW113628   2.802   3.802   5.028
 4493SOL    HW213629   2.858   3.858   5.157
 4494SOL     OW13630   2.847   4.837   5.451
 4494SOL    HW113631   2.755   4.853   5.473
 4494SOL    HW213632   2.846   4.761   5.394
 4495SOL     OW13633   2.282   4.540   4.974
 4495SOL    HW113634   2.349   4.549   5.042
 4495SOL    HW213635   2.247   4.452   4.987
 4496SOL     OW13636   3.126   4.100   5.000
 4496SOL    HW113637   3.159   4.177   5.045
 4496SOL    HW213638   3.035   4.122   4.979
 4497SOL     OW13639   1.932   5.300   5.078
 4497SOL    HW113640   1.903   5.372   5.022
 4497SOL    HW213641   2.028   5.303   5.073
 4498SOL     OW13642   2.417   4.264   4.580
 4498SOL    HW113643   2.435   4.322   4.506
 4498SOL    HW213644   2.481   4.289   4.646
 4499SOL     OW13645   3.099   5.059   4.141
 4499SOL    HW113646   3.151   5.139   4.133
 4499SOL    HW213647   3.011   5.089   4.160
 4500SOL     OW13648   3.143   5.183   4.874
 4500SOL    HW113649   3.199   5.185   4.951
 4500SOL    HW213650   3.088   5.106   4.885
 4501SOL     OW13651   2.207   5.254   5.038
 4501SOL    HW113652   2.194   5.207   4.956
 4501SOL    HW213653   2.302   5.265   5.045
 4502SOL     OW13654   2.276   4.468   5.326
 4502SOL    HW113655   2.339   4.512   5.269
 4502SOL    HW213656   2.312   4.381   5.340
 4503SOL     OW13657   3.465   4.502   5.407
 4503SOL    HW113658   3.378   4.544   5.400
 4503SOL    HW213659   3.517   4.545   5.339
 4504SOL     OW13660   2.860   3.849   5.478
 4504SOL    HW113661   2.916   3.923   5.456
 4504SOL    HW213662   2.909   3.772   5.450
 4505SOL     OW13663   2.360   3.761   5.466
 4505SOL    HW113664   2.313   3.708   5.402
 4505SOL    HW213665   2.304   3.837   5.481
 4506SOL     OW13666   2.445   4.598   4.754
 4506SOL    HW113667   2.477   4.688   4.756
 4506SOL    HW213668   2.389   4.591   4.831
 4507SOL     OW13669   3.216   4.581   4.750
 4507SOL    HW113670   3.132   4.571   4.705
 4507SOL    HW213671   3.258   4.496   4.743
 4508SOL     OW13672   3.034   4.211   4.030
 4508SOL    HW113673   3.101   4.190   4.095
 4508SOL    HW213674   3.015   4.304   4.044
 4509SOL     OW13675   2.160   3.922   4.974
 4509SOL    HW113676   2.122   3.954   5.056
 4509SOL    HW213677   2.141   3.828   4.974
 4510SOL     OW13678   1.907   5.036   5.000
 4510SOL    HW113679   1.940   4.981   5.072
 4510SOL    HW213680   1.913   5.125   5.034
 4511SOL     OW13681   2.586   4.357   4.781
 4511SOL    HW113682   2.661   4.342   4.723
 4511SOL    HW213683   2.557   4.446   4.760
 4512SOL     OW13684   3.603   4.684   5.572
 4512SOL    HW113685   3.554   4.619   5.522
 4512SOL    HW213686   3.546   4.706   5.646
 4513SOL     OW13687   2.159   3.794   4.347
 4513SOL    HW113688   2.147   3.886   4.370
 4513SOL    HW213689   2.170   3.750   4.431
 4514SOL     OW13690   3.497   4.033   4.122
 4514SOL    HW113691   3.527   3.993   4.203
 4514SOL    HW213692   3.428   4.094   4.150
 4515SOL     OW13693   2.890   4.482   4.692
 4515SOL    HW113694   2.884   4.500   4.786
 4515SOL    HW213695   2.863   4.391   4.684
 4516SOL     OW13696   2.843   5.288   5.440
 4516SOL    HW113697   2.826   5.333   5.358
 4516SOL    HW213698   2.890   5.208   5.415
 4517SOL     OW13699   3.715   5.227   5.329
 4517SOL    HW113700   3.734   5.256   5.240
 4517SOL    HW213701   3.796   5.245   5.378
 4518SOL     OW13702   2.219   4.637   5.537
 4518SOL    HW113703   2.304   4.659   5.575
 4518SOL    HW213704   2.238   4.574   5.467
 4519SOL     OW13705   2.934   5.067   4.583
 4519SOL    HW113706   2.935   4.994   4.521
 4519SOL    HW213707   2.993   5.132   4.545
 4520SOL     OW13708   2.167   4.535   4.668
 4520SOL    HW113709   2.260   4.555   4.665
 4520SOL    HW213710   2.163   4.444   4.698
 4521SOL     OW13711   2.194   4.254   4.735
 4521SOL    HW113712   2.158   4.167   4.721
 4521SOL    HW213713   2.269   4.259   4.676
 4522SOL     OW13714   2.995   4.097   5.408
 4522SOL    HW113715   2.947   4.153   5.469
 4522SOL    HW213716   3.082   4.136   5.403
 4523SOL     OW13717   3.025   3.922   5.194
 4523SOL    HW113718   3.013   3.985   5.266
 4523SOL    HW213719   3.065   3.974   5.124
 4524SOL     OW13720   1.955   5.510   4.666
 4524SOL    HW113721   1.925   5.432   4.619
 4524SOL    HW213722   2.044   5.524   4.634
 4525SOL     OW13723   2.364   5.293   4.650
 4525SOL    HW113724   2.431   5.359   4.671
 4525SOL    HW213725   2.407   5.235   4.588
 4526SOL     OW13726   2.839   4.516   4.956
 4526SOL    HW113727   2.897   4.494   5.028
 4526SOL    HW213728   2.755   4.476   4.979
 4527SOL     OW13729   1.899   4.270   4.840
 4527SOL    HW113730   1.978   4.256   4.788
 4527SOL    HW213731   1.930   4.272   4.930
 4528SOL     OW13732   2.054   4.243   5.456
 4528SOL    HW113733   2.105   4.198   5.389
 4528SOL    HW213734   2.014   4.318   5.410
 4529SOL     OW13735   3.239   4.662   5.383
 4529SOL    HW113736   3.261   4.755   5.379
 4529SOL    HW213737   3.235   4.635   5.291
 4530SOL     OW13738   3.504   4.325   4.910
 4530SOL    HW113739   3.494   4.267   4.985
 4530SOL    HW213740   3.591   4.306   4.875
 4531SOL     OW13741   2.105   5.275   5.453
 4531SOL    HW113742   2.079   5.341   5.517
 4531SOL    HW213743   2.106   5.193   5.502
 4532SOL     OW13744   2.569   4.171   4.981
 4532SOL    HW113745   2.513   4.099   4.954
 4532SOL    HW213746   2.562   4.235   4.910
 4533SOL     OW13747   2.786   5.400   5.191
 4533SOL    HW113748   2.762   5.362   5.106
 4533SOL    HW213749   2.778   5.495   5.178
 4534SOL     OW13750   2.292   4.210   3.956
 4534SOL    HW113751   2.351   4.285   3.949
 4534SOL    HW213752   2.204   4.248   3.959
 4535SOL     OW13753   2.006   4.865   5.198
 4535SOL    HW113754   2.008   4.815   5.279
 4535SOL    HW213755   2.022   4.801   5.129
 4536SOL     OW13756   3.187   4.771   4.945
 4536SOL    HW113757   3.209   4.707   4.878
 4536SOL    HW213758   3.118   4.824   4.906
 4537SOL     OW13759   3.634   5.465   4.875
 4537SOL    HW113760   3.695   5.494   4.807
 4537SOL    HW213761   3.613   5.375   4.851
 4538SOL     OW13762   3.104   5.458   4.836
 4538SOL    HW113763   3.186   5.479   4.792
 4538SOL    HW213764   3.110   5.364   4.854
 4539SOL     OW13765   1.946   4.990   4.734
 4539SOL    HW113766   1.930   5.004   4.828
 4539SOL    HW213767   1.871   4.938   4.705
 4540SOL     OW13768   2.540   5.395   5.459
 4540SOL    HW113769   2.481   5.470   5.453
 4540SOL    HW213770   2.602   5.407   5.387
 4541SOL     OW13771   2.000   5.519   5.566
 4541SOL    HW113772   1.947   5.456   5.615
 4541SOL    HW213773   2.049   5.566   5.632
 4542SOL     OW13774   3.134   4.639   4.391
 4542SOL    HW113775   3.211   4.585   4.408
 4542SOL    HW213776   3.169   4.716   4.345
 4543SOL     OW13777   2.672   5.000   5.151
 4543SOL    HW113778   2.644   5.039   5.234
 4543SOL    HW213779   2.601   5.021   5.090
 4544SOL     OW13780   3.485   5.451   5.114
 4544SOL    HW113781   3.536   5.457   5.034
 4544SOL    HW213782   3.465   5.541   5.138
 4545SOL     OW13783   3.697   3.899   4.691
 4545SOL    HW113784   3.731   3.814   4.665
 4545SOL    HW213785   3.613   3.906   4.646
 4546SOL     OW13786   2.128   4.044   4.446
 4546SOL    HW113787   2.049   4.089   4.416
 4546SOL    HW213788   2.118   4.039   4.541
 4547SOL     OW13789   3.084   5.343   3.748
 4547SOL    HW113790   3.048   5.275   3.804
 4547SOL    HW213791   3.029   5.340   3.669
 4548SOL     OW13792   2.685   4.730   5.096
 4548SOL    HW113793   2.730   4.723   5.012
 4548SOL    HW213794   2.684   4.824   5.115
 4549SOL     OW13795   3.358   5.346   3.780
 4549SOL    HW113796   3.265   5.338   3.758
 4549SOL    HW213797   3.403   5.345   3.696
 4550SOL     OW13798   2.231   5.029   5.217
 4550SOL    HW113799   2.218   5.106   5.161
 4550SOL    HW213800   2.155   4.973   5.199
 4551SOL     OW13801   3.472   5.008   5.006
 4551SOL    HW113802   3.532   4.995   5.080
 4551SOL    HW213803   3.411   5.075   5.036
 4552SOL     OW13804   2.916   4.838   4.437
 4552SOL    HW113805   2.846   4.786   4.477
 4552SOL    HW213806   2.962   4.777   4.380
 4553SOL     OW13807   2.880   3.966   4.692
 4553SOL    HW113808   2.873   3.919   4.609
 4553SOL    HW213809   2.875   3.897   4.759
 4554SOL     OW13810   2.496   5.214   4.146
 4554SOL    HW113811   2.456   5.175   4.068
 4554SOL    HW213812   2.423   5.248   4.196
 4555SOL     OW13813   3.583   4.116   5.105
 4555SOL    HW113814   3.655   4.179   5.104
 4555SOL    HW213815   3.614   4.044   5.048
 4556SOL     OW13816   1.980   4.753   5.448
 4556SOL    HW113817   1.901   4.727   5.495
 4556SOL    HW213818   2.051   4.709   5.494
 4557SOL     OW13819   2.535   3.921   5.222
 4557SOL    HW113820   2.620   3.901   5.183
 4557SOL    HW213821   2.556   3.949   5.311
 4558SOL     OW13822   3.291   4.583   5.124
 4558SOL    HW113823   3.242   4.644   5.068
 4558SOL    HW213824   3.380   4.585   5.089
 4559SOL     OW13825   2.482   4.555   5.160
 4559SOL    HW113826   2.538   4.630   5.143
 4559SOL    HW213827   2.542   4.481   5.168
 4560SOL     OW13828   3.348   5.504   4.708
 4560SOL    HW113829   3.367   5.562   4.634
 4560SOL    HW213830   3.433   5.483   4.745
 4561SOL     OW13831   2.580   4.288   5.429
 4561SOL    HW113832   2.623   4.348   5.490
 4561SOL    HW213833   2.603   4.200   5.461
 4562SOL     OW13834   3.337   4.923   5.353
 4562SOL    HW113835   3.324   4.939   5.447
 4562SOL    HW213836   3.430   4.939   5.339
 4563SOL     OW13837   2.238   5.460   5.287
 4563SOL    HW113838   2.154   5.503   5.270
 4563SOL    HW213839   2.213   5.378   5.331
 4564SOL     OW13840   3.530   4.604   4.979
 4564SOL    HW113841   3.524   4.519   4.937
 4564SOL    HW213842   3.519   4.667   4.908
 4565SOL     OW13843   2.468   4.452   4.379
 4565SOL    HW113844   2.498   4.542   4.380
 4565SOL    HW213845   2.389   4.453   4.325
 4566SOL     OW13846   3.624   4.083   5.377
 4566SOL    HW113847   3.607   4.101   5.285
 4566SOL    HW213848   3.551   4.028   5.405
 4567SOL     OW13849   3.610   4.660   5.237
 4567SOL    HW113850   3.601   4.754   5.250
 4567SOL    HW213851   3.594   4.647   5.143
 4568SOL     OW13852   2.640   5.148   3.722
 4568SOL    HW113853   2.649   5.128   3.815
 4568SOL    HW213854   2.728   5.168   3.692
 4569SOL     OW13855   2.527   5.510   4.667
 4569SOL    HW113856   2.504   5.601   4.646
 4569SOL    HW213857   2.622   5.507   4.659
 4570SOL     OW13858   2.736   4.693   4.588
 4570SOL    HW113859   2.785   4.620   4.626
 4570SOL    HW213860   2.699   4.738   4.664
 4571SOL     OW13861   2.942   4.667   3.755
 4571SOL    HW113862   2.936   4.761   3.767
 4571SOL    HW213863   3.026   4.652   3.712
 4572SOL     OW13864   3.714   5.275   4.568
 4572SOL    HW113865   3.635   5.267   4.514
 4572SOL    HW213866   3.700   5.215   4.640
 4573SOL     OW13867   2.079   5.023   5.582
 4573SOL    HW113868   2.030   4.955   5.537
 4573SOL    HW213869   2.025   5.045   5.658
 4574SOL     OW13870   1.942   4.945   4.381
 4574SOL    HW113871   1.979   4.906   4.460
 4574SOL    HW213872   2.000   4.916   4.310
 4575SOL     OW13873   2.544   5.130   5.356
 4575SOL    HW113874   2.463   5.088   5.385
 4575SOL    HW213875   2.540   5.218   5.392
 4576SOL     OW13876   3.674   3.904   4.963
 4576SOL    HW113877   3.685   3.810   4.975
 4576SOL    HW213878   3.684   3.918   4.869
 4577SOL     OW13879   3.565   5.207   4.815
 4577SOL    HW113880   3.482   5.188   4.771
 4577SOL    HW213881   3.572   5.141   4.884
 4578SOL     OW13882   2.194   4.280   5.015
 4578SOL    HW113883   2.249   4.224   5.070
 4578SOL    HW213884   2.213   4.252   4.926
 4579SOL     OW13885   2.691   5.299   4.401
 4579SOL    HW113886   2.667   5.360   4.331
 4579SOL    HW213887   2.621   5.233   4.400
 4580SOL     OW13888   3.298   3.944   4.849
 4580SOL    HW113889   3.321   3.865   4.897
 4580SOL    HW213890   3.247   3.996   4.911
 4581SOL     OW13891   2.870   3.743   4.864
 4581SOL    HW113892   2.815   3.674   4.825
 4581SOL    HW213893   2.958   3.705   4.866
 4582SOL     OW13894   2.482   5.278   5.010
 4582SOL    HW113895   2.485   5.359   5.061
 4582SOL    HW213896   2.569   5.272   4.970
 4583SOL     OW13897   3.158   4.189   4.426
 4583SOL    HW113898   3.100   4.265   4.431
 4583SOL    HW213899   3.148   4.146   4.510
 4584SOL     OW13900   3.435   3.928   4.599
 4584SOL    HW113901   3.387   3.940   4.682
 4584SOL    HW213902   3.439   4.016   4.561
 4585SOL     OW13903   2.747   5.383   4.064
 4585SOL    HW113904   2.665   5.338   4.042
 4585SOL    HW213905   2.721   5.454   4.123
 4586SOL     OW13906   2.082   4.340   5.717
 4586SOL    HW113907   1.993   4.360   5.745
 4586SOL    HW213908   2.076   4.321   5.624
 4587SOL     OW13909   3.635   4.329   5.812
 4587SOL    HW113910   3.608   4.315   5.721
 4587SOL    HW213911   3.615   4.246   5.856
 4588SOL     OW13912   2.097   5.450   0.040
 4588SOL    HW113913   2.109   5.519   0.105
 4588SOL    HW213914   2.179   5.450   5.990
 4589SOL     OW13915   2.467   4.703   5.724
 4589SOL    HW113916   2.498   4.760   5.654
 4589SOL    HW213917   2.538   4.705   5.789
 4590SOL     OW13918   3.685   5.488   5.915
 4590SOL    HW113919   3.716   5.432   5.986
 4590SOL    HW213920   3.748   5.559   5.910
 4591SOL     OW13921   1.894   5.319   5.711
 4591SOL    HW113922   1.875   5.228   5.734
 4591SOL    HW213923   1.856   5.370   5.783
 4592SOL     OW13924   3.576   4.597   0.162
 4592SOL    HW113925   3.644   4.639   0.214
 4592SOL    HW213926   3.542   4.667   0.106
 4593SOL     OW13927   3.539   4.817   6.000
 4593SOL    HW113928   3.628   4.834   5.967
 4593SOL    HW213929   3.511   4.902   0.035
 4594SOL     OW13930   3.406   4.728   5.770
 4594SOL    HW113931   3.353   4.650   5.785
 4594SOL    HW213932   3.440   4.751   5.857
 4595SOL     OW13933   2.442   4.451   5.850
 4595SOL    HW113934   2.457   4.525   5.791
 4595SOL    HW213935   2.410   4.490   5.931
 4596SOL     OW13936   2.731   4.076   5.748
 4596SOL    HW113937   2.786   4.138   5.700
 4596SOL    HW213938   2.789   4.001   5.764
 4597SOL     OW13939   2.190   4.680   5.832
 4597SOL    HW113940   2.272   4.691   5.783
 4597SOL    HW213941   2.149   4.602   5.794
 4598SOL     OW13942   2.978   5.502   5.816
 4598SOL    HW113943   2.896   5.465   5.848
 4598SOL    HW213944   3.002   5.447   5.742
 4599SOL     OW13945   3.495   5.110   5.675
 4599SOL    HW113946   3.454   5.196   5.665
 4599SOL    HW213947   3.425   5.047   5.655
 4600SOL     OW13948   2.342   5.486   5.910
 4600SOL    HW113949   2.391   5.528   5.981
 4600SOL    HW213950   2.409   5.442   5.858
 4601SOL     OW13951   2.491   3.832   5.696
 4601SOL    HW113952   2.580   3.799   5.686
 4601SOL    HW213953   2.447   3.808   5.614
 4602SOL     OW13954   3.288   4.930   5.624
 4602SOL    HW113955   3.325   4.857   5.674
 4602SOL    HW213956   3.203   4.946   5.665
 4603SOL     OW13957   2.163   3.773   5.763
 4603SOL    HW113958   2.225   3.837   5.727
 4603SOL    HW213959   2.218   3.714   5.815
 4604SOL     OW13960   2.887   4.264   5.607
 4604SOL    HW113961   2.844   4.348   5.592
 4604SOL    HW213962   2.952   4.282   5.675
 4605SOL     OW13963   3.753   4.538   5.934
 4605SOL    HW113964   3.749   4.514   0.026
 4605SOL    HW213965   3.700   4.471   5.890
 4606SOL     OW13966   2.351   5.140   5.743
 4606SOL    HW113967   2.279   5.113   5.800
 4606SOL    HW213968   2.333   5.096   5.660
 4607SOL     OW13969   3.568   5.021   0.297
 4607SOL    HW113970   3.641   4.983   0.248
 4607SOL    HW213971   3.515   5.065   0.230
 4608SOL     OW13972   3.264   4.302   5.651
 4608SOL    HW113973   3.202   4.275   5.719
 4608SOL    HW213974   3.347   4.263   5.679
 4609SOL     OW13975   2.398   3.976   5.910
 4609SOL    HW113976   2.433   3.936   5.831
 4609SOL    HW213977   2.368   4.062   5.882
 4610SOL     OW13978   2.248   4.841   0.042
 4610SOL    HW113979   2.199   4.919   0.018
 4610SOL    HW213980   2.226   4.777   5.975
 4611SOL     OW13981   3.070   4.237   5.834
 4611SOL    HW113982   3.086   4.151   5.873
 4611SOL    HW213983   3.025   4.286   5.903
 4612SOL     OW13984   2.160   3.796   0.229
 4612SOL    HW113985   2.217   3.873   0.233
 4612SOL    HW213986   2.213   3.726   0.267
 4613SOL     OW13987   3.385   4.000   5.726
 4613SOL    HW113988   3.322   3.928   5.736
 4613SOL    HW213989   3.417   4.017   5.815
 4614SOL     OW13990   3.173   4.564   5.632
 4614SOL    HW113991   3.204   4.473   5.633
 4614SOL    HW213992   3.195   4.596   5.545
 4615SOL     OW13993   1.880   5.045   5.774
 4615SOL    HW113994   1.790   5.060   5.744
 4615SOL    HW213995   1.879   4.956   5.809
 4616SOL     OW13996   2.678   4.316   5.904
 4616SOL    HW113997   2.672   4.231   5.862
 4616SOL    HW213998   2.594   4.358   5.888
 4617SOL     OW13999   2.319   4.211   5.777
 4617SOL    HW114000   2.375   4.285   5.799
 4617SOL    HW214001   2.233   4.250   5.761
 4618SOL     OW14002   3.619   3.857   0.099
 4618SOL    HW114003   3.661   3.842   0.014
 4618SOL    HW214004   3.581   3.772   0.122
 4619SOL     OW14005   2.536   5.342   5.744
 4619SOL    HW114006   2.543   5.358   5.650
 4619SOL    HW214007   2.474   5.269   5.751
 4620SOL     OW14008   3.061   5.330   5.618
 4620SOL    HW114009   3.056   5.237   5.643
 4620SOL    HW214010   2.997   5.338   5.546
 4621SOL     OW14011   2.735   4.641   5.835
 4621SOL    HW114012   2.815   4.670   5.791
 4621SOL    HW214013   2.761   4.565   5.886
 4622SOL     OW14014   3.343   5.350   5.626
 4622SOL    HW114015   3.250   5.343   5.607
 4622SOL    HW214016   3.384   5.356   5.539
 4623SOL     OW14017   2.896   4.878   0.298
 4623SOL    HW114018   2.847   4.818   0.355
 4623SOL    HW214019   2.941   4.821   0.236
 4624SOL     OW14020   2.126   5.081   5.917
 4624SOL    HW114021   2.041   5.066   5.875
 4624SOL    HW214022   2.113   5.160   5.970
 4625SOL     OW14023   1.936   4.052   5.625
 4625SOL    HW114024   1.855   4.033   5.576
 4625SOL    HW214025   1.970   4.131   5.583
 4626SOL     OW14026   1.941   3.890   5.872
 4626SOL    HW114027   1.923   3.944   5.795
 4626SOL    HW214028   2.025   3.848   5.851
 4627SOL     OW14029   3.033   5.063   5.706
 4627SOL    HW114030   2.942   5.034   5.703
 4627SOL    HW214031   3.058   5.054   5.799
 4628SOL     OW14032   3.085   4.029   0.024
 4628SOL    HW114033   3.167   3.992   0.058
 4628SOL    HW214034   3.063   4.099   0.086
 4629SOL     OW14035   2.727   5.099   5.623
 4629SOL    HW114036   2.687   5.144   5.697
 4629SOL    HW214037   2.749   5.169   5.561
 4630SOL     OW14038   2.950   4.717   5.685
 4630SOL    HW114039   2.929   4.761   5.603
 4630SOL    HW214040   3.027   4.664   5.665
 4631SOL     OW14041   3.218   3.780   5.740
 4631SOL    HW114042   3.247   3.699   5.698
 4631SOL    HW214043   3.134   3.758   5.780
 4632SOL     OW14044   1.931   4.799   5.881
 4632SOL    HW114045   2.024   4.786   5.863
 4632SOL    HW214046   1.897   4.711   5.898
 4633SOL     OW14047   2.748   5.379   5.928
 4633SOL    HW114048   2.676   5.372   5.865
 4633SOL    HW214049   2.724   5.452   5.985
 4634SOL     OW14050   2.094   5.837   0.980
 4634SOL    HW114051   2.115   5.816   1.071
 4634SOL    HW214052   2.000   5.818   0.972
 4635SOL     OW14053   1.862   5.944   0.664
 4635SOL    HW114054   1.774   5.959   0.699
 4635SOL    HW214055   1.852   5.871   0.603
 4636SOL     OW14056   2.319   5.967   1.488
 4636SOL    HW114057   2.383   5.899   1.472
 4636SOL    HW214058   2.234   5.922   1.482
 4637SOL     OW14059   3.458   0.017   0.721
 4637SOL    HW114060   3.371   0.021   0.683
 4637SOL    HW214061   3.462   0.092   0.780
 4638SOL     OW14062   3.449   5.715   1.455
 4638SOL    HW114063   3.509   5.773   1.408
 4638SOL    HW214064   3.443   5.753   1.542
 4639SOL     OW14065   2.673   5.574   0.516
 4639SOL    HW114066   2.722   5.649   0.483
 4639SOL    HW214067   2.583   5.604   0.524
 4640SOL     OW14068   2.180   5.820   1.812
 4640SOL    HW114069   2.232   5.899   1.795
 4640SOL    HW214070   2.100   5.853   1.854
 4641SOL     OW14071   3.128   5.930   0.940
 4641SOL    HW114072   3.043   5.885   0.939
 4641SOL    HW214073   3.181   5.881   1.003
 4642SOL     OW14074   2.414   5.756   0.885
 4642SOL    HW114075   2.413   5.781   0.978
 4642SOL    HW214076   2.409   5.838   0.837
 4643SOL     OW14077   2.058   5.860   1.498
 4643SOL    HW114078   1.972   5.902   1.506
 4643SOL    HW214079   2.059   5.795   1.569
 4644SOL     OW14080   3.270   5.694   0.437
 4644SOL    HW114081   3.268   5.672   0.343
 4644SOL    HW214082   3.363   5.709   0.455
 4645SOL     OW14083   3.404   5.803   1.723
 4645SOL    HW114084   3.409   5.831   1.814
 4645SOL    HW214085   3.337   5.735   1.722
 4646SOL     OW14086   2.475   5.673   0.098
 4646SOL    HW114087   2.571   5.673   0.100
 4646SOL    HW214088   2.452   5.739   0.033
 4647SOL     OW14089   2.630   5.840   1.741
 4647SOL    HW114090   2.706   5.787   1.764
 4647SOL    HW214091   2.585   5.855   1.825
 4648SOL     OW14092   3.269   0.179   1.414
 4648SOL    HW114093   3.191   0.153   1.464
 4648SOL    HW214094   3.247   0.264   1.378
 4649SOL     OW14095   2.410   5.662   0.503
 4649SOL    HW114096   2.334   5.656   0.561
 4649SOL    HW214097   2.392   5.738   0.448
 4650SOL     OW14098   2.815   5.796   0.442
 4650SOL    HW114099   2.768   5.868   0.483
 4650SOL    HW214100   2.907   5.823   0.443
 4651SOL     OW14101   2.419   5.797   1.154
 4651SOL    HW114102   2.462   5.744   1.222
 4651SOL    HW214103   2.331   5.813   1.188
 4652SOL     OW14104   2.878   5.631   0.740
 4652SOL    HW114105   2.818   5.625   0.665
 4652SOL    HW214106   2.855   5.556   0.795
 4653SOL     OW14107   2.357   5.843   0.295
 4653SOL    HW114108   2.419   5.804   0.234
 4653SOL    HW214109   2.405   5.916   0.335
 4654SOL     OW14110   2.782   5.677   1.398
 4654SOL    HW114111   2.803   5.660   1.306
 4654SOL    HW214112   2.858   5.723   1.432
 4655SOL     OW14113   2.868   5.701   1.756
 4655SOL    HW114114   2.884   5.746   1.674
 4655SOL    HW214115   2.920   5.621   1.750
 4656SOL     OW14116   2.359   5.621   1.748
 4656SOL    HW114117   2.317   5.569   1.680
 4656SOL    HW214118   2.298   5.693   1.764
 4657SOL     OW14119   2.155   5.784   1.248
 4657SOL    HW114120   2.117   5.816   1.329
 4657SOL    HW214121   2.140   5.689   1.250
 4658SOL     OW14122   2.669   0.244   1.048
 4658SOL    HW114123   2.632   0.217   0.964
 4658SOL    HW214124   2.592   0.265   1.101
 4659SOL     OW14125   2.162   5.657   0.627
 4659SOL    HW114126   2.126   5.743   0.646
 4659SOL    HW214127   2.171   5.614   0.712
 4660SOL     OW14128   3.371   5.872   0.146
 4660SOL    HW114129   3.313   5.796   0.148
 4660SOL    HW214130   3.459   5.835   0.143
 4661SOL     OW14131   2.223   0.071   1.014
 4661SOL    HW114132   2.180   5.990   0.989
 4661SOL    HW214133   2.280   0.092   0.940
 4662SOL     OW14134   3.012   5.809   1.479
 4662SOL    HW114135   3.044   5.874   1.542
 4662SOL    HW214136   3.025   5.850   1.393
 4663SOL     OW14137   2.663   0.162   0.320
 4663SOL    HW114138   2.648   0.084   0.268
 4663SOL    HW214139   2.578   0.206   0.324
 4664SOL     OW14140   2.753   5.641   0.096
 4664SOL    HW114141   2.815   5.703   0.056
 4664SOL    HW214142   2.793   5.618   0.180
 4665SOL     OW14143   3.578   5.730   0.517
 4665SOL    HW114144   3.646   5.726   0.449
 4665SOL    HW214145   3.569   5.639   0.547
 4666SOL     OW14146   3.694   5.758   0.975
 4666SOL    HW114147   3.727   5.673   0.946
 4666SOL    HW214148   3.609   5.765   0.931
 4667SOL     OW14149   2.880   5.807   0.951
 4667SOL    HW114150   2.880   5.751   0.874
 4667SOL    HW214151   2.872   5.747   1.025
 4668SOL     OW14152   2.533   5.777   1.489
 4668SOL    HW114153   2.619   5.763   1.450
 4668SOL    HW214154   2.552   5.807   1.578
 4669SOL     OW14155   1.918   5.931   0.079
 4669SOL    HW114156   1.923   5.863   0.012
 4669SOL    HW214157   2.001   5.977   0.072
 4670SOL     OW14158   1.921   5.754   0.323
 4670SOL    HW114159   1.902   5.827   0.263
 4670SOL    HW214160   2.009   5.725   0.297
 4671SOL     OW14161   3.076   5.896   0.457
 4671SOL    HW114162   3.143   5.828   0.450
 4671SOL    HW214163   3.113   5.959   0.519
 4672SOL     OW14164   3.650   5.913   1.643
 4672SOL    HW114165   3.619   5.983   1.585
 4672SOL    HW214166   3.571   5.870   1.674
 4673SOL     OW14167   3.655   5.775   1.250
 4673SOL    HW114168   3.689   5.686   1.263
 4673SOL    HW214169   3.667   5.792   1.157
 4674SOL     OW14170   3.288   5.804   1.124
 4674SOL    HW114171   3.328   5.720   1.146
 4674SOL    HW214172   3.282   5.851   1.208
 4675SOL     OW14173   2.871   5.601   1.143
 4675SOL    HW114174   2.816   5.534   1.102
 4675SOL    HW214175   2.959   5.562   1.142
 4676SOL     OW14176   3.215   5.640   0.163
 4676SOL    HW114177   3.247   5.575   0.100
 4676SOL    HW214178   3.130   5.607   0.191
 4677SOL     OW14179   3.174   0.041   0.695
 4677SOL    HW114180   3.104   0.106   0.686
 4677SOL    HW214181   3.161   0.002   0.781
 4678SOL     OW14182   3.440   5.783   0.879
 4678SOL    HW114183   3.377   5.811   0.945
 4678SOL    HW214184   3.439   5.852   0.813
 4679SOL     OW14185   2.085   5.852   2.696
 4679SOL    HW114186   2.109   5.825   2.784
 4679SOL    HW214187   1.989   5.848   2.695
 4680SOL     OW14188   1.866   5.956   2.486
 4680SOL    HW114189   1.777   5.946   2.517
 4680SOL    HW214190   1.879   5.882   2.427
 4681SOL     OW14191   3.616   0.174   2.029
 4681SOL    HW114192   3.606   0.088   1.989
 4681SOL    HW214193   3.598   0.160   2.122
 4682SOL     OW14194   2.284   5.924   3.461
 4682SOL    HW114195   2.336   5.919   3.381
 4682SOL    HW214196   2.197   5.953   3.432
 4683SOL     OW14197   3.461   0.049   2.518
 4683SOL    HW114198   3.366   0.053   2.517
 4683SOL    HW214199   3.487   0.093   2.599
 4684SOL     OW14200   3.390   5.712   3.337
 4684SOL    HW114201   3.472   5.742   3.296
 4684SOL    HW214202   3.396   5.743   3.427
 4685SOL     OW14203   2.662   5.581   2.359
 4685SOL    HW114204   2.710   5.658   2.330
 4685SOL    HW214205   2.572   5.613   2.373
 4686SOL     OW14206   2.200   5.832   3.727
 4686SOL    HW114207   2.241   5.896   3.668
 4686SOL    HW214208   2.106   5.843   3.712
 4687SOL     OW14209   3.073   5.959   2.767
 4687SOL    HW114210   2.999   5.907   2.736
 4687SOL    HW214211   3.144   5.895   2.776
 4688SOL     OW14212   2.721   5.937   2.021
 4688SOL    HW114213   2.795   5.965   1.967
 4688SOL    HW214214   2.754   5.862   2.070
 4689SOL     OW14215   2.424   5.764   2.708
 4689SOL    HW114216   2.385   5.802   2.786
 4689SOL    HW214217   2.421   5.834   2.642
 4690SOL     OW14218   2.018   5.887   3.516
 4690SOL    HW114219   1.943   5.933   3.477
 4690SOL    HW214220   1.987   5.796   3.526
 4691SOL     OW14221   3.271   5.695   2.293
 4691SOL    HW114222   3.261   5.649   2.209
 4691SOL    HW214223   3.365   5.691   2.311
 4692SOL     OW14224   3.396   5.793   3.601
 4692SOL    HW114225   3.408   5.831   3.688
 4692SOL    HW214226   3.329   5.726   3.613
 4693SOL     OW14227   2.495   5.707   1.972
 4693SOL    HW114228   2.572   5.650   1.979
 4693SOL    HW214229   2.451   5.677   1.893
 4694SOL     OW14230   2.641   5.853   3.621
 4694SOL    HW114231   2.706   5.790   3.651
 4694SOL    HW214232   2.578   5.860   3.693
 4695SOL     OW14233   3.247   0.165   3.301
 4695SOL    HW114234   3.225   0.150   3.393
 4695SOL    HW214235   3.220   0.256   3.285
 4696SOL     OW14236   2.402   5.667   2.358
 4696SOL    HW114237   2.324   5.662   2.414
 4696SOL    HW214238   2.383   5.739   2.298
 4697SOL     OW14239   2.152   5.632   2.048
 4697SOL    HW114240   2.210   5.699   2.012
 4697SOL    HW214241   2.212   5.570   2.090
 4698SOL     OW14242   2.808   5.803   2.283
 4698SOL    HW114243   2.763   5.874   2.329
 4698SOL    HW214244   2.901   5.821   2.296
 4699SOL     OW14245   2.327   5.727   3.270
 4699SOL    HW114246   2.409   5.723   3.319
 4699SOL    HW214247   2.331   5.810   3.223
 4700SOL     OW14248   2.873   5.595   2.531
 4700SOL    HW114249   2.797   5.577   2.476
 4700SOL    HW214250   2.866   5.531   2.603
 4701SOL     OW14251   2.355   5.855   2.158
 4701SOL    HW114252   2.417   5.820   2.095
 4701SOL    HW214253   2.403   5.925   2.202
 4702SOL     OW14254   2.813   5.640   3.299
 4702SOL    HW114255   2.832   5.594   3.217
 4702SOL    HW214256   2.899   5.672   3.328
 4703SOL     OW14257   2.869   5.694   3.631
 4703SOL    HW114258   2.873   5.754   3.556
 4703SOL    HW214259   2.921   5.618   3.604
 4704SOL     OW14260   2.377   5.661   3.605
 4704SOL    HW114261   2.335   5.591   3.554
 4704SOL    HW214262   2.306   5.722   3.625
 4705SOL     OW14263   2.067   5.786   3.271
 4705SOL    HW114264   2.070   5.819   3.361
 4705SOL    HW214265   2.155   5.751   3.255
 4706SOL     OW14266   2.598   0.183   2.698
 4706SOL    HW114267   2.661   0.111   2.701
 4706SOL    HW214268   2.599   0.221   2.786
 4707SOL     OW14269   2.155   5.667   2.482
 4707SOL    HW114270   2.129   5.754   2.513
 4707SOL    HW214271   2.171   5.616   2.561
 4708SOL     OW14272   3.383   5.853   1.996
 4708SOL    HW114273   3.328   5.775   2.009
 4708SOL    HW214274   3.437   5.857   2.075
 4709SOL     OW14275   2.300   0.008   2.756
 4709SOL    HW114276   2.228   5.975   2.702
 4709SOL    HW214277   2.313   0.098   2.725
 4710SOL     OW14278   3.046   5.795   3.344
 4710SOL    HW114279   3.051   5.852   3.420
 4710SOL    HW214280   3.123   5.817   3.292
 4711SOL     OW14281   2.681   0.170   2.162
 4711SOL    HW114282   2.683   0.079   2.130
 4711SOL    HW214283   2.587   0.191   2.165
 4712SOL     OW14284   3.581   5.736   2.355
 4712SOL    HW114285   3.656   5.725   2.297
 4712SOL    HW214286   3.580   5.657   2.409
 4713SOL     OW14287   3.733   5.762   2.721
 4713SOL    HW114288   3.764   5.674   2.699
 4713SOL    HW214289   3.645   5.766   2.683
 4714SOL     OW14290   2.885   5.766   2.738
 4714SOL    HW114291   2.904   5.725   2.654
 4714SOL    HW214292   2.871   5.692   2.798
 4715SOL     OW14293   2.567   5.753   3.379
 4715SOL    HW114294   2.660   5.734   3.374
 4715SOL    HW214295   2.555   5.796   3.464
 4716SOL     OW14296   1.914   5.932   1.894
 4716SOL    HW114297   1.874   5.918   1.809
 4716SOL    HW214298   1.960   0.016   1.887
 4717SOL     OW14299   1.928   5.750   2.165
 4717SOL    HW114300   1.919   5.827   2.109
 4717SOL    HW214301   2.013   5.713   2.142
 4718SOL     OW14302   3.078   5.895   2.311
 4718SOL    HW114303   3.141   5.823   2.307
 4718SOL    HW214304   3.119   5.960   2.367
 4719SOL     OW14305   3.639   5.920   3.538
 4719SOL    HW114306   3.608   5.980   3.470
 4719SOL    HW214307   3.564   5.864   3.557
 4720SOL     OW14308   3.647   5.767   3.266
 4720SOL    HW114309   3.739   5.741   3.277
 4720SOL    HW214310   3.650   5.861   3.249
 4721SOL     OW14311   3.256   5.759   2.755
 4721SOL    HW114312   3.288   5.687   2.810
 4721SOL    HW214313   3.315   5.832   2.775
 4722SOL     OW14314   2.789   5.909   3.272
 4722SOL    HW114315   2.759   5.819   3.259
 4722SOL    HW214316   2.883   5.905   3.255
 4723SOL     OW14317   3.215   5.637   2.016
 4723SOL    HW114318   3.251   5.556   1.979
 4723SOL    HW214319   3.127   5.614   2.044
 4724SOL     OW14320   3.174   0.070   2.538
 4724SOL    HW114321   3.104   0.118   2.494
 4724SOL    HW214322   3.129   0.019   2.605
 4725SOL     OW14323   3.486   5.796   2.625
 4725SOL    HW114324   3.396   5.767   2.635
 4725SOL    HW214325   3.480   5.879   2.578
 4726SOL     OW14326   2.095   5.834   4.704
 4726SOL    HW114327   2.116   5.816   4.796
 4726SOL    HW214328   2.001   5.817   4.697
 4727SOL     OW14329   1.863   5.940   4.389
 4727SOL    HW114330   1.776   5.962   4.421
 4727SOL    HW214331   1.849   5.866   4.330
 4728SOL     OW14332   3.586   0.144   3.890
 4728SOL    HW114333   3.645   0.079   3.853
 4728SOL    HW214334   3.611   0.149   3.983
 4729SOL     OW14335   2.318   5.966   5.214
 4729SOL    HW114336   2.382   5.898   5.195
 4729SOL    HW214337   2.233   5.922   5.207
 4730SOL     OW14338   3.459   0.023   4.437
 4730SOL    HW114339   3.369   0.024   4.405
 4730SOL    HW214340   3.462   0.095   4.501
 4731SOL     OW14341   3.448   5.715   5.179
 4731SOL    HW114342   3.509   5.773   5.132
 4731SOL    HW214343   3.444   5.753   5.267
 4732SOL     OW14344   2.673   5.578   4.243
 4732SOL    HW114345   2.721   5.652   4.206
 4732SOL    HW214346   2.583   5.608   4.248
 4733SOL     OW14347   2.187   5.821   5.546
 4733SOL    HW114348   2.234   5.901   5.521
 4733SOL    HW214349   2.103   5.852   5.578
 4734SOL     OW14350   3.127   5.930   4.666
 4734SOL    HW114351   3.043   5.885   4.664
 4734SOL    HW214352   3.180   5.880   4.728
 4735SOL     OW14353   2.728   5.944   3.892
 4735SOL    HW114354   2.795   5.966   3.827
 4735SOL    HW214355   2.757   5.860   3.927
 4736SOL     OW14356   2.410   5.755   4.609
 4736SOL    HW114357   2.411   5.782   4.701
 4736SOL    HW214358   2.407   5.837   4.560
 4737SOL     OW14359   2.057   5.859   5.222
 4737SOL    HW114360   1.972   5.902   5.231
 4737SOL    HW214361   2.052   5.784   5.281
 4738SOL     OW14362   3.268   5.692   4.162
 4738SOL    HW114363   3.262   5.659   4.072
 4738SOL    HW214364   3.362   5.692   4.181
 4739SOL     OW14365   3.405   5.805   5.451
 4739SOL    HW114366   3.408   5.834   5.542
 4739SOL    HW214367   3.340   5.735   5.450
 4740SOL     OW14368   2.509   5.705   3.835
 4740SOL    HW114369   2.567   5.629   3.839
 4740SOL    HW214370   2.455   5.691   3.757
 4741SOL     OW14371   2.631   5.844   5.463
 4741SOL    HW114372   2.704   5.786   5.486
 4741SOL    HW214373   2.580   5.850   5.544
 4742SOL     OW14374   3.269   0.179   5.139
 4742SOL    HW114375   3.191   0.153   5.189
 4742SOL    HW214376   3.246   0.264   5.101
 4743SOL     OW14377   2.406   5.656   4.226
 4743SOL    HW114378   2.328   5.660   4.280
 4743SOL    HW214379   2.396   5.729   4.164
 4744SOL     OW14380   2.146   5.633   3.910
 4744SOL    HW114381   2.194   5.702   3.864
 4744SOL    HW214382   2.214   5.580   3.952
 4745SOL     OW14383   2.814   5.799   4.162
 4745SOL    HW114384   2.767   5.872   4.203
 4745SOL    HW214385   2.906   5.825   4.165
 4746SOL     OW14386   2.419   5.797   4.878
 4746SOL    HW114387   2.461   5.744   4.946
 4746SOL    HW214388   2.331   5.813   4.912
 4747SOL     OW14389   2.874   5.634   4.464
 4747SOL    HW114390   2.816   5.627   4.388
 4747SOL    HW214391   2.853   5.557   4.518
 4748SOL     OW14392   2.363   5.845   4.028
 4748SOL    HW114393   2.422   5.816   3.958
 4748SOL    HW214394   2.405   5.924   4.063
 4749SOL     OW14395   2.782   5.677   5.122
 4749SOL    HW114396   2.804   5.660   5.030
 4749SOL    HW214397   2.858   5.723   5.157
 4750SOL     OW14398   2.865   5.696   5.484
 4750SOL    HW114399   2.884   5.748   5.406
 4750SOL    HW214400   2.917   5.617   5.473
 4751SOL     OW14401   2.358   5.621   5.472
 4751SOL    HW114402   2.315   5.568   5.405
 4751SOL    HW214403   2.297   5.693   5.488
 4752SOL     OW14404   2.156   5.784   4.972
 4752SOL    HW114405   2.117   5.816   5.053
 4752SOL    HW214406   2.141   5.690   4.974
 4753SOL     OW14407   2.669   0.244   4.772
 4753SOL    HW114408   2.632   0.217   4.688
 4753SOL    HW214409   2.592   0.265   4.825
 4754SOL     OW14410   2.160   5.655   4.351
 4754SOL    HW114411   2.126   5.743   4.365
 4754SOL    HW214412   2.166   5.618   4.439
 4755SOL     OW14413   3.378   5.857   3.864
 4755SOL    HW114414   3.331   5.776   3.884
 4755SOL    HW214415   3.440   5.866   3.937
 4756SOL     OW14416   2.222   0.070   4.738
 4756SOL    HW114417   2.180   5.989   4.711
 4756SOL    HW214418   2.279   0.093   4.665
 4757SOL     OW14419   3.011   5.810   5.205
 4757SOL    HW114420   3.046   5.875   5.265
 4757SOL    HW214421   3.026   5.847   5.118
 4758SOL     OW14422   2.694   0.169   4.042
 4758SOL    HW114423   2.704   0.082   4.004
 4758SOL    HW214424   2.602   0.190   4.030
 4759SOL     OW14425   3.591   5.731   4.236
 4759SOL    HW114426   3.657   5.719   4.168
 4759SOL    HW214427   3.576   5.643   4.271
 4760SOL     OW14428   3.694   5.757   4.699
 4760SOL    HW114429   3.727   5.672   4.670
 4760SOL    HW214430   3.609   5.767   4.656
 4761SOL     OW14431   2.880   5.808   4.676
 4761SOL    HW114432   2.878   5.752   4.598
 4761SOL    HW214433   2.872   5.747   4.750
 4762SOL     OW14434   2.533   5.777   5.212
 4762SOL    HW114435   2.619   5.762   5.172
 4762SOL    HW214436   2.553   5.810   5.300
 4763SOL     OW14437   1.896   5.948   3.778
 4763SOL    HW114438   1.849   5.929   3.697
 4763SOL    HW214439   1.969   0.003   3.751
 4764SOL     OW14440   1.928   5.750   4.030
 4764SOL    HW114441   1.917   5.829   3.977
 4764SOL    HW214442   2.012   5.714   4.002
 4765SOL     OW14443   3.077   5.895   4.182
 4765SOL    HW114444   3.142   5.825   4.179
 4765SOL    HW214445   3.115   5.959   4.243
 4766SOL     OW14446   3.651   5.913   5.370
 4766SOL    HW114447   3.620   5.982   5.311
 4766SOL    HW214448   3.571   5.870   5.400
 4767SOL     OW14449   3.654   5.776   4.975
 4767SOL    HW114450   3.690   5.688   4.989
 4767SOL    HW214451   3.667   5.792   4.881
 4768SOL     OW14452   3.288   5.804   4.848
 4768SOL    HW114453   3.329   5.720   4.871
 4768SOL    HW214454   3.282   5.851   4.931
 4769SOL     OW14455   2.871   5.600   4.867
 4769SOL    HW114456   2.815   5.535   4.825
 4769SOL    HW214457   2.959   5.561   4.866
 4770SOL     OW14458   3.224   5.629   3.889
 4770SOL    HW114459   3.254   5.550   3.844
 4770SOL    HW214460   3.134   5.609   3.914
 4771SOL     OW14461   3.177   0.041   4.422
 4771SOL    HW114462   3.107   0.106   4.411
 4771SOL    HW214463   3.161   0.003   4.508
 4772SOL     OW14464   3.441   5.787   4.602
 4772SOL    HW114465   3.377   5.813   4.667
 4772SOL    HW214466   3.437   5.856   4.535
 4773SOL     OW14467   3.588   0.199   5.801
 4773SOL    HW114468   3.603   0.116   5.754
 4773SOL    HW214469   3.581   0.173   5.893
 4774SOL     OW14470   2.889   0.212   0.045
 4774SOL    HW114471   2.957   0.275   0.021
 4774SOL    HW214472   2.816   0.232   5.987
 4775SOL     OW14473   2.729   5.953   5.739
 4775SOL    HW114474   2.797   5.990   5.682
 4775SOL    HW214475   2.758   5.863   5.756
 4776SOL     OW14476   2.190   0.254   0.084
 4776SOL    HW114477   2.257   0.277   0.020
 4776SOL    HW214478   2.112   0.237   0.032
 4777SOL     OW14479   2.503   5.707   5.688
 4777SOL    HW114480   2.572   5.642   5.694
 4777SOL    HW214481   2.450   5.679   5.613
 4778SOL     OW14482   2.155   5.634   5.766
 4778SOL    HW114483   2.209   5.695   5.716
 4778SOL    HW214484   2.219   5.581   5.815
 4779SOL     OW14485   2.386   5.852   5.891
 4779SOL    HW114486   2.425   5.805   5.817
 4779SOL    HW214487   2.431   5.936   5.892
 4780SOL     OW14488   2.161   5.652   0.229
 4780SOL    HW114489   2.215   5.731   0.236
 4780SOL    HW214490   2.214   5.582   0.267
 4781SOL     OW14491   3.381   5.858   5.726
 4781SOL    HW114492   3.328   5.779   5.738
 4781SOL    HW214493   3.434   5.863   5.806
 4782SOL     OW14494   2.664   0.162   5.909
 4782SOL    HW114495   2.671   0.080   5.859
 4782SOL    HW214496   2.577   0.195   5.888
 4783SOL     OW14497   3.576   5.697   0.099
 4783SOL    HW114498   3.643   5.702   0.031
 4783SOL    HW214499   3.574   5.605   0.124
 4784SOL     OW14500   1.920   5.924   5.618
 4784SOL    HW114501   1.872   5.906   5.538
 4784SOL    HW214502   1.957   0.012   5.605
 4785SOL     OW14503   1.934   5.754   5.870
 4785SOL    HW114504   1.916   5.807   5.793
 4785SOL    HW214505   2.016   5.709   5.849
 4786SOL     OW14506   3.218   5.638   5.740
 4786SOL    HW114507   3.251   5.558   5.700
 4786SOL    HW214508   3.133   5.613   5.777
 4787SOL     OW14509   3.937   0.645   0.127
 4787SOL    HW114510   3.860   0.607   0.170
 4787SOL    HW214511   3.946   0.595   0.046
 4788SOL     OW14512   3.922   0.312   0.994
 4788SOL    HW114513   3.972   0.262   1.059
 4788SOL    HW214514   3.843   0.261   0.979
 4789SOL     OW14515   3.728   0.387   0.636
 4789SOL    HW114516   3.642   0.408   0.673
 4789SOL    HW214517   3.710   0.317   0.573
 4790SOL     OW14518   4.289   1.294   1.179
 4790SOL    HW114519   4.204   1.301   1.136
 4790SOL    HW214520   4.308   1.383   1.210
 4791SOL     OW14521   5.288   1.514   0.708
 4791SOL    HW114522   5.245   1.492   0.791
 4791SOL    HW214523   5.217   1.518   0.644
 4792SOL     OW14524   4.856   0.698   0.698
 4792SOL    HW114525   4.904   0.779   0.686
 4792SOL    HW214526   4.807   0.710   0.779
 4793SOL     OW14527   5.506   0.597   0.249
 4793SOL    HW114528   5.463   0.610   0.165
 4793SOL    HW214529   5.465   0.519   0.285
 4794SOL     OW14530   4.474   1.140   1.045
 4794SOL    HW114531   4.407   1.177   1.102
 4794SOL    HW214532   4.512   1.215   1.000
 4795SOL     OW14533   4.598   0.783   1.823
 4795SOL    HW114534   4.646   0.842   1.881
 4795SOL    HW214535   4.617   0.814   1.735
 4796SOL     OW14536   4.410   1.000   0.646
 4796SOL    HW114537   4.476   0.990   0.715
 4796SOL    HW214538   4.341   1.053   0.686
 4797SOL     OW14539   4.419   1.162   1.710
 4797SOL    HW114540   4.454   1.168   1.799
 4797SOL    HW214541   4.324   1.154   1.722
 4798SOL     OW14542   4.053   1.421   1.069
 4798SOL    HW114543   3.980   1.383   1.020
 4798SOL    HW214544   4.101   1.472   1.003
 4799SOL     OW14545   5.185   1.501   1.358
 4799SOL    HW114546   5.237   1.580   1.367
 4799SOL    HW214547   5.116   1.511   1.423
 4800SOL     OW14548   4.167   0.396   1.493
 4800SOL    HW114549   4.248   0.345   1.493
 4800SOL    HW214550   4.097   0.331   1.499
 4801SOL     OW14551   5.332   0.453   0.736
 4801SOL    HW114552   5.259   0.475   0.678
 4801SOL    HW214553   5.360   0.537   0.773
 4802SOL     OW14554   3.943   1.712   0.474
 4802SOL    HW114555   3.963   1.790   0.526
 4802SOL    HW214556   4.019   1.701   0.417
 4803SOL     OW14557   4.868   1.349   1.689
 4803SOL    HW114558   4.935   1.330   1.755
 4803SOL    HW214559   4.818   1.267   1.682
 4804SOL     OW14560   3.950   1.440   0.532
 4804SOL    HW114561   3.933   1.534   0.539
 4804SOL    HW214562   3.894   1.400   0.599
 4805SOL     OW14563   3.984   1.089   0.892
 4805SOL    HW114564   3.981   1.001   0.930
 4805SOL    HW214565   3.925   1.141   0.947
 4806SOL     OW14566   4.336   1.799   1.422
 4806SOL    HW114567   4.260   1.782   1.477
 4806SOL    HW214568   4.368   1.884   1.450
 4807SOL     OW14569   4.336   0.969   0.128
 4807SOL    HW114570   4.285   1.039   0.087
 4807SOL    HW214571   4.377   1.010   0.204
 4808SOL     OW14572   5.381   0.105   1.503
 4808SOL    HW114573   5.315   0.128   1.438
 4808SOL    HW214574   5.353   0.149   1.583
 4809SOL     OW14575   3.850   0.644   0.569
 4809SOL    HW114576   3.812   0.558   0.588
 4809SOL    HW214577   3.837   0.694   0.649
 4810SOL     OW14578   5.571   1.761   0.335
 4810SOL    HW114579   5.635   1.732   0.400
 4810SOL    HW214580   5.587   1.855   0.325
 4811SOL     OW14581   3.698   1.585   0.126
 4811SOL    HW114582   3.719   1.496   0.157
 4811SOL    HW214583   3.722   1.642   0.199
 4812SOL     OW14584   5.421   0.901   0.655
 4812SOL    HW114585   5.501   0.856   0.628
 4812SOL    HW214586   5.396   0.953   0.578
 4813SOL     OW14587   5.363   1.089   0.461
 4813SOL    HW114588   5.395   1.145   0.390
 4813SOL    HW214589   5.366   1.144   0.539
 4814SOL     OW14590   3.843   0.745   1.583
 4814SOL    HW114591   3.935   0.773   1.587
 4814SOL    HW214592   3.794   0.826   1.570
 4815SOL     OW14593   4.339   1.388   0.734
 4815SOL    HW114594   4.294   1.304   0.744
 4815SOL    HW214595   4.322   1.414   0.644
 4816SOL     OW14596   5.012   1.236   1.425
 4816SOL    HW114597   5.043   1.170   1.363
 4816SOL    HW214598   5.074   1.231   1.498
 4817SOL     OW14599   4.541   0.004   0.562
 4817SOL    HW114600   4.572   0.087   0.525
 4817SOL    HW214601   4.446   0.008   0.554
 4818SOL     OW14602   3.909   0.962   1.270
 4818SOL    HW114603   3.996   0.923   1.257
 4818SOL    HW214604   3.851   0.912   1.213
 4819SOL     OW14605   5.184   1.040   0.229
 4819SOL    HW114606   5.131   0.965   0.257
 4819SOL    HW214607   5.267   1.028   0.275
 4820SOL     OW14608   4.915   1.803   1.617
 4820SOL    HW114609   4.918   1.866   1.546
 4820SOL    HW214610   4.928   1.718   1.575
 4821SOL     OW14611   4.059   0.258   1.809
 4821SOL    HW114612   4.102   0.344   1.816
 4821SOL    HW214613   3.970   0.273   1.844
 4822SOL     OW14614   5.191   1.419   0.950
 4822SOL    HW114615   5.123   1.434   1.016
 4822SOL    HW214616   5.179   1.328   0.924
 4823SOL     OW14617   5.382   1.743   0.579
 4823SOL    HW114618   5.363   1.713   0.490
 4823SOL    HW214619   5.359   1.669   0.635
 4824SOL     OW14620   4.322   0.735   0.278
 4824SOL    HW114621   4.332   0.814   0.225
 4824SOL    HW214622   4.254   0.757   0.342
 4825SOL     OW14623   5.023   0.368   0.936
 4825SOL    HW114624   4.934   0.334   0.935
 4825SOL    HW214625   5.071   0.306   0.991
 4826SOL     OW14626   5.307   1.672   0.311
 4826SOL    HW114627   5.400   1.693   0.305
 4826SOL    HW214628   5.280   1.653   0.221
 4827SOL     OW14629   4.522   0.618   1.458
 4827SOL    HW114630   4.490   0.594   1.545
 4827SOL    HW214631   4.480   0.555   1.399
 4828SOL     OW14632   5.120   0.472   1.679
 4828SOL    HW114633   5.124   0.519   1.763
 4828SOL    HW214634   5.184   0.401   1.688
 4829SOL     OW14635   4.678   0.884   1.580
 4829SOL    HW114636   4.731   0.814   1.541
 4829SOL    HW214637   4.627   0.919   1.507
 4830SOL     OW14638   4.707   0.399   1.240
 4830SOL    HW114639   4.628   0.434   1.281
 4830SOL    HW214640   4.675   0.349   1.165
 4831SOL     OW14641   4.779   0.693   0.427
 4831SOL    HW114642   4.797   0.690   0.521
 4831SOL    HW214643   4.695   0.647   0.418
 4832SOL     OW14644   3.813   0.819   0.779
 4832SOL    HW114645   3.894   0.814   0.829
 4832SOL    HW214646   3.769   0.897   0.813
 4833SOL     OW14647   3.843   1.804   1.558
 4833SOL    HW114648   3.832   1.802   1.654
 4833SOL    HW214649   3.775   1.865   1.529
 4834SOL     OW14650   4.573   0.397   0.175
 4834SOL    HW114651   4.648   0.426   0.123
 4834SOL    HW214652   4.593   0.305   0.195
 4835SOL     OW14653   5.435   0.571   1.823
 4835SOL    HW114654   5.394   0.644   1.776
 4835SOL    HW214655   5.461   0.510   1.754
 4836SOL     OW14656   5.098   1.142   0.540
 4836SOL    HW114657   5.175   1.122   0.487
 4836SOL    HW214658   5.049   1.205   0.487
 4837SOL     OW14659   4.287   0.219   0.886
 4837SOL    HW114660   4.269   0.237   0.978
 4837SOL    HW214661   4.283   0.305   0.843
 4838SOL     OW14662   4.735   1.450   0.476
 4838SOL    HW114663   4.694   1.520   0.424
 4838SOL    HW214664   4.707   1.468   0.566
 4839SOL     OW14665   4.081   1.812   0.866
 4839SOL    HW114666   4.125   1.727   0.873
 4839SOL    HW214667   4.149   1.876   0.884
 4840SOL     OW14668   5.532   1.055   0.869
 4840SOL    HW114669   5.479   1.033   0.792
 4840SOL    HW214670   5.470   1.061   0.941
 4841SOL     OW14671   4.952   1.541   1.506
 4841SOL    HW114672   4.937   1.471   1.569
 4841SOL    HW214673   4.879   1.535   1.444
 4842SOL     OW14674   4.035   0.947   0.261
 4842SOL    HW114675   4.082   0.990   0.189
 4842SOL    HW214676   4.023   0.857   0.231
 4843SOL     OW14677   5.201   0.747   0.729
 4843SOL    HW114678   5.197   0.703   0.814
 4843SOL    HW214679   5.282   0.797   0.730
 4844SOL     OW14680   4.149   1.204   1.728
 4844SOL    HW114681   4.133   1.234   1.639
 4844SOL    HW214682   4.114   1.273   1.784
 4845SOL     OW14683   4.831   1.780   0.220
 4845SOL    HW114684   4.774   1.731   0.279
 4845SOL    HW214685   4.874   1.713   0.167
 4846SOL     OW14686   3.912   0.274   1.509
 4846SOL    HW114687   3.838   0.334   1.498
 4846SOL    HW214688   3.903   0.242   1.599
 4847SOL     OW14689   5.338   1.371   0.050
 4847SOL    HW114690   5.324   1.465   0.043
 4847SOL    HW214691   5.255   1.332   0.020
 4848SOL     OW14692   4.190   1.735   0.333
 4848SOL    HW114693   4.236   1.791   0.395
 4848SOL    HW214694   4.256   1.715   0.266
 4849SOL     OW14695   5.149   0.135   0.413
 4849SOL    HW114696   5.140   0.097   0.326
 4849SOL    HW214697   5.243   0.127   0.433
 4850SOL     OW14698   3.977   1.790   1.227
 4850SOL    HW114699   4.033   1.726   1.269
 4850SOL    HW214700   3.969   1.760   1.137
 4851SOL     OW14701   4.662   1.699   0.900
 4851SOL    HW114702   4.742   1.649   0.919
 4851SOL    HW214703   4.619   1.648   0.831
 4852SOL     OW14704   4.116   0.695   0.476
 4852SOL    HW114705   4.139   0.602   0.486
 4852SOL    HW214706   4.023   0.700   0.498
 4853SOL     OW14707   5.268   0.222   1.730
 4853SOL    HW114708   5.268   0.254   1.821
 4853SOL    HW214709   5.205   0.150   1.730
 4854SOL     OW14710   4.332   0.088   0.110
 4854SOL    HW114711   4.424   0.078   0.085
 4854SOL    HW214712   4.296   0.149   0.046
 4855SOL     OW14713   4.489   0.274   1.756
 4855SOL    HW114714   4.565   0.216   1.767
 4855SOL    HW214715   4.458   0.290   1.846
 4856SOL     OW14716   4.600   1.522   1.192
 4856SOL    HW114717   4.585   1.485   1.106
 4856SOL    HW214718   4.672   1.469   1.229
 4857SOL     OW14719   5.066   0.589   1.433
 4857SOL    HW114720   5.099   0.560   1.517
 4857SOL    HW214721   5.101   0.678   1.422
 4858SOL     OW14722   4.540   1.393   0.942
 4858SOL    HW114723   4.625   1.381   0.899
 4858SOL    HW214724   4.477   1.396   0.870
 4859SOL     OW14725   4.655   0.512   0.905
 4859SOL    HW114726   4.627   0.506   0.814
 4859SOL    HW214727   4.689   0.425   0.926
 4860SOL     OW14728   4.272   0.046   0.494
 4860SOL    HW114729   4.197   0.042   0.552
 4860SOL    HW214730   4.264   0.131   0.450
 4861SOL     OW14731   5.115   1.212   0.024
 4861SOL    HW114732   5.144   1.147   0.088
 4861SOL    HW214733   5.038   1.252   0.065
 4862SOL     OW14734   4.015   0.026   0.222
 4862SOL    HW114735   4.053   0.106   0.186
 4862SOL    HW214736   4.090   5.970   0.241
 4863SOL     OW14737   4.688   0.258   0.514
 4863SOL    HW114738   4.643   0.241   0.431
 4863SOL    HW214739   4.779   0.275   0.488
 4864SOL     OW14740   4.805   0.679   1.456
 4864SOL    HW114741   4.736   0.613   1.462
 4864SOL    HW214742   4.886   0.628   1.452
 4865SOL     OW14743   4.944   1.573   0.797
 4865SOL    HW114744   4.960   1.636   0.727
 4865SOL    HW214745   5.016   1.587   0.859
 4866SOL     OW14746   4.194   1.152   0.731
 4866SOL    HW114747   4.126   1.131   0.796
 4866SOL    HW214748   4.153   1.135   0.647
 4867SOL     OW14749   4.990   1.796   0.609
 4867SOL    HW114750   5.038   1.858   0.555
 4867SOL    HW214751   4.923   1.850   0.652
 4868SOL     OW14752   4.765   0.548   0.043
 4868SOL    HW114753   4.682   0.588   0.017
 4868SOL    HW214754   4.789   0.593   0.125
 4869SOL     OW14755   3.808   0.548   1.395
 4869SOL    HW114756   3.899   0.551   1.367
 4869SOL    HW214757   3.800   0.618   1.459
 4870SOL     OW14758   4.278   0.245   1.171
 4870SOL    HW114759   4.308   0.164   1.212
 4870SOL    HW214760   4.184   0.249   1.190
 4871SOL     OW14761   4.584   0.476   0.645
 4871SOL    HW114762   4.541   0.520   0.572
 4871SOL    HW214763   4.620   0.395   0.607
 4872SOL     OW14764   4.721   0.043   0.774
 4872SOL    HW114765   4.664   0.038   0.698
 4872SOL    HW214766   4.716   5.957   0.814
 4873SOL     OW14767   5.163   1.159   0.859
 4873SOL    HW114768   5.091   1.096   0.850
 4873SOL    HW214769   5.194   1.173   0.769
 4874SOL     OW14770   5.187   0.608   0.975
 4874SOL    HW114771   5.136   0.527   0.972
 4874SOL    HW214772   5.246   0.596   1.049
 4875SOL     OW14773   5.600   0.817   0.395
 4875SOL    HW114774   5.649   0.757   0.451
 4875SOL    HW214775   5.555   0.760   0.333
 4876SOL     OW14776   4.209   1.414   0.161
 4876SOL    HW114777   4.132   1.388   0.211
 4876SOL    HW214778   4.202   1.366   0.079
 4877SOL     OW14779   5.390   1.259   0.670
 4877SOL    HW114780   5.486   1.266   0.663
 4877SOL    HW214781   5.359   1.350   0.670
 4878SOL     OW14782   5.140   0.585   0.096
 4878SOL    HW114783   5.083   0.574   0.172
 4878SOL    HW214784   5.189   0.503   0.091
 4879SOL     OW14785   4.262   0.264   0.320
 4879SOL    HW114786   4.257   0.206   0.243
 4879SOL    HW214787   4.245   0.351   0.285
 4880SOL     OW14788   5.477   1.236   1.568
 4880SOL    HW114789   5.565   1.202   1.553
 4880SOL    HW214790   5.490   1.327   1.596
 4881SOL     OW14791   4.782   1.354   1.330
 4881SOL    HW114792   4.707   1.323   1.379
 4881SOL    HW214793   4.858   1.314   1.373
 4882SOL     OW14794   5.333   1.626   1.654
 4882SOL    HW114795   5.326   1.660   1.564
 4882SOL    HW214796   5.415   1.576   1.653
 4883SOL     OW14797   4.854   1.205   1.103
 4883SOL    HW114798   4.795   1.244   1.167
 4883SOL    HW214799   4.825   1.239   1.019
 4884SOL     OW14800   5.351   1.096   1.074
 4884SOL    HW114801   5.343   1.159   1.146
 4884SOL    HW214802   5.275   1.113   1.019
 4885SOL     OW14803   4.620   0.093   1.403
 4885SOL    HW114804   4.645   0.062   1.316
 4885SOL    HW214805   4.699   0.135   1.436
 4886SOL     OW14806   4.724   1.118   1.711
 4886SOL    HW114807   4.633   1.136   1.733
 4886SOL    HW214808   4.721   1.039   1.657
 4887SOL     OW14809   4.435   1.064   0.374
 4887SOL    HW114810   4.416   1.049   0.466
 4887SOL    HW214811   4.503   1.001   0.352
 4888SOL     OW14812   4.145   0.819   1.253
 4888SOL    HW114813   4.212   0.826   1.321
 4888SOL    HW214814   4.110   0.730   1.263
 4889SOL     OW14815   4.984   0.376   1.281
 4889SOL    HW114816   5.015   0.458   1.319
 4889SOL    HW214817   4.897   0.396   1.248
 4890SOL     OW14818   3.794   1.571   1.350
 4890SOL    HW114819   3.758   1.646   1.303
 4890SOL    HW214820   3.889   1.584   1.346
 4891SOL     OW14821   4.070   1.110   0.490
 4891SOL    HW114822   4.081   1.181   0.427
 4891SOL    HW214823   4.065   1.031   0.436
 4892SOL     OW14824   4.284   0.523   0.855
 4892SOL    HW114825   4.294   0.582   0.781
 4892SOL    HW214826   4.346   0.555   0.920
 4893SOL     OW14827   4.980   1.351   0.394
 4893SOL    HW114828   5.029   1.425   0.429
 4893SOL    HW214829   4.890   1.365   0.424
 4894SOL     OW14830   5.007   1.459   1.148
 4894SOL    HW114831   5.062   1.462   1.227
 4894SOL    HW214832   4.949   1.384   1.162
 4895SOL     OW14833   5.302   0.628   0.486
 4895SOL    HW114834   5.252   0.685   0.544
 4895SOL    HW214835   5.334   0.686   0.417
 4896SOL     OW14836   4.074   1.533   1.315
 4896SOL    HW114837   4.058   1.490   1.231
 4896SOL    HW214838   4.169   1.545   1.317
 4897SOL     OW14839   4.125   0.758   1.604
 4897SOL    HW114840   4.193   0.802   1.552
 4897SOL    HW214841   4.162   0.673   1.625
 4898SOL     OW14842   5.327   0.778   1.680
 4898SOL    HW114843   5.241   0.820   1.673
 4898SOL    HW214844   5.379   0.820   1.612
 4899SOL     OW14845   4.724   0.123   1.778
 4899SOL    HW114846   4.779   0.196   1.750
 4899SOL    HW214847   4.718   0.066   1.702
 4900SOL     OW14848   4.199   0.038   1.750
 4900SOL    HW114849   4.211   0.025   1.656
 4900SOL    HW214850   4.150   0.120   1.757
 4901SOL     OW14851   4.309   0.875   1.031
 4901SOL    HW114852   4.341   0.965   1.032
 4901SOL    HW214853   4.252   0.869   1.108
 4902SOL     OW14854   5.077   0.857   1.028
 4902SOL    HW114855   4.996   0.849   0.979
 4902SOL    HW214856   5.120   0.772   1.018
 4903SOL     OW14857   4.942   0.524   0.278
 4903SOL    HW114858   4.948   0.445   0.332
 4903SOL    HW214859   4.898   0.588   0.334
 4904SOL     OW14860   4.016   0.225   1.253
 4904SOL    HW114861   3.975   0.232   1.339
 4904SOL    HW214862   4.012   0.132   1.232
 4905SOL     OW14863   3.762   1.309   1.278
 4905SOL    HW114864   3.797   1.258   1.350
 4905SOL    HW214865   3.773   1.400   1.306
 4906SOL     OW14866   4.446   0.631   1.054
 4906SOL    HW114867   4.524   0.616   1.000
 4906SOL    HW214868   4.419   0.720   1.032
 4907SOL     OW14869   5.457   0.961   1.848
 4907SOL    HW114870   5.412   0.894   1.797
 4907SOL    HW214871   5.401   0.975   1.925
 4908SOL     OW14872   4.040   0.051   0.652
 4908SOL    HW114873   4.029   0.144   0.671
 4908SOL    HW214874   3.953   0.014   0.666
 4909SOL     OW14875   5.360   0.388   0.369
 4909SOL    HW114876   5.372   0.313   0.428
 4909SOL    HW214877   5.332   0.459   0.426
 4910SOL     OW14878   4.755   0.760   0.959
 4910SOL    HW114879   4.750   0.778   1.053
 4910SOL    HW214880   4.728   0.669   0.951
 4911SOL     OW14881   4.695   1.560   1.719
 4911SOL    HW114882   4.680   1.609   1.638
 4911SOL    HW214883   4.751   1.487   1.693
 4912SOL     OW14884   5.573   1.497   1.601
 4912SOL    HW114885   5.594   1.529   1.513
 4912SOL    HW214886   5.651   1.517   1.653
 4913SOL     OW14887   5.249   0.336   0.130
 4913SOL    HW114888   5.234   0.242   0.125
 4913SOL    HW214889   5.291   0.349   0.215
 4914SOL     OW14890   5.017   0.816   0.025
 4914SOL    HW114891   5.066   0.737   0.046
 4914SOL    HW214892   5.062   0.853   5.949
 4915SOL     OW14893   4.793   1.337   0.856
 4915SOL    HW114894   4.795   1.266   0.792
 4915SOL    HW214895   4.851   1.403   0.821
 4916SOL     OW14896   4.033   0.812   0.950
 4916SOL    HW114897   4.126   0.833   0.941
 4916SOL    HW214898   4.031   0.722   0.982
 4917SOL     OW14899   4.066   0.539   1.016
 4917SOL    HW114900   4.017   0.459   0.998
 4917SOL    HW214901   4.140   0.536   0.955
 4918SOL     OW14902   4.859   0.377   1.691
 4918SOL    HW114903   4.814   0.437   1.751
 4918SOL    HW214904   4.947   0.412   1.684
 4919SOL     OW14905   4.860   0.205   1.482
 4919SOL    HW114906   4.852   0.271   1.551
 4919SOL    HW214907   4.874   0.255   1.402
 4920SOL     OW14908   3.816   1.785   0.940
 4920SOL    HW114909   3.785   1.706   0.894
 4920SOL    HW214910   3.905   1.798   0.908
 4921SOL     OW14911   4.219   1.573   0.907
 4921SOL    HW114912   4.288   1.635   0.931
 4921SOL    HW214913   4.263   1.511   0.848
 4922SOL     OW14914   4.703   0.791   1.225
 4922SOL    HW114915   4.761   0.769   1.299
 4922SOL    HW214916   4.618   0.754   1.250
 4923SOL     OW14917   3.757   0.548   1.116
 4923SOL    HW114918   3.826   0.507   1.064
 4923SOL    HW214919   3.790   0.546   1.206
 4924SOL     OW14920   3.920   0.520   1.720
 4924SOL    HW114921   3.980   0.487   1.653
 4924SOL    HW214922   3.876   0.595   1.679
 4925SOL     OW14923   5.102   0.938   1.656
 4925SOL    HW114924   5.123   1.032   1.653
 4925SOL    HW214925   5.098   0.912   1.564
 4926SOL     OW14926   4.535   0.579   0.372
 4926SOL    HW114927   4.537   0.511   0.305
 4926SOL    HW214928   4.462   0.636   0.345
 4927SOL     OW14929   5.370   0.603   1.184
 4927SOL    HW114930   5.363   0.542   1.258
 4927SOL    HW214931   5.455   0.584   1.145
 4928SOL     OW14932   4.424   0.461   1.265
 4928SOL    HW114933   4.363   0.390   1.246
 4928SOL    HW214934   4.419   0.518   1.188
 4929SOL     OW14935   4.666   1.674   1.458
 4929SOL    HW114936   4.627   1.641   1.378
 4929SOL    HW214937   4.649   1.768   1.457
 4930SOL     OW14938   4.203   0.503   0.201
 4930SOL    HW114939   4.256   0.579   0.222
 4930SOL    HW214940   4.114   0.536   0.195
 4931SOL     OW14941   3.864   1.135   1.473
 4931SOL    HW114942   3.911   1.092   1.544
 4931SOL    HW214943   3.874   1.075   1.399
 4932SOL     OW14944   5.048   1.047   1.222
 4932SOL    HW114945   5.071   0.983   1.154
 4932SOL    HW214946   4.979   1.100   1.183
 4933SOL     OW14947   5.012   0.839   0.313
 4933SOL    HW114948   4.936   0.804   0.359
 4933SOL    HW214949   4.995   0.822   0.221
 4934SOL     OW14950   5.499   1.739   1.153
 4934SOL    HW114951   5.559   1.768   1.084
 4934SOL    HW214952   5.474   1.651   1.125
 4935SOL     OW14953   4.965   1.734   1.111
 4935SOL    HW114954   5.047   1.755   1.066
 4935SOL    HW214955   4.971   1.640   1.129
 4936SOL     OW14956   3.807   1.269   1.011
 4936SOL    HW114957   3.788   1.280   1.104
 4936SOL    HW214958   3.737   1.213   0.977
 4937SOL     OW14959   4.639   5.984   0.133
 4937SOL    HW114960   4.673   0.059   0.084
 4937SOL    HW214961   4.691   5.980   0.212
 4938SOL     OW14962   5.424   0.141   0.478
 4938SOL    HW114963   5.505   0.136   0.429
 4938SOL    HW214964   5.435   0.078   0.549
 4939SOL     OW14965   5.116   1.573   0.492
 4939SOL    HW114966   5.175   1.604   0.424
 4939SOL    HW214967   5.068   1.651   0.519
 4940SOL     OW14968   3.841   1.775   1.828
 4940SOL    HW114969   3.824   1.724   1.907
 4940SOL    HW214970   3.930   1.808   1.840
 4941SOL     OW14971   5.000   0.929   0.675
 4941SOL    HW114972   5.074   0.869   0.682
 4941SOL    HW214973   5.032   1.000   0.619
 4942SOL     OW14974   4.536   1.273   1.422
 4942SOL    HW114975   4.510   1.306   1.507
 4942SOL    HW214976   4.467   1.302   1.363
 4943SOL     OW14977   4.395   1.611   0.162
 4943SOL    HW114978   4.393   1.615   0.067
 4943SOL    HW214979   4.341   1.535   0.184
 4944SOL     OW14980   5.349   1.727   1.390
 4944SOL    HW114981   5.397   1.735   1.307
 4944SOL    HW214982   5.334   1.817   1.418
 4945SOL     OW14983   5.581   0.147   0.968
 4945SOL    HW114984   5.604   0.076   0.908
 4945SOL    HW214985   5.497   0.179   0.937
 4946SOL     OW14986   3.984   0.314   0.720
 4946SOL    HW114987   3.900   0.349   0.689
 4946SOL    HW214988   3.977   0.316   0.815
 4947SOL     OW14989   4.947   1.601   0.042
 4947SOL    HW114990   4.926   1.511   0.066
 4947SOL    HW214991   4.891   1.620   5.967
 4948SOL     OW14992   4.547   1.003   1.370
 4948SOL    HW114993   4.591   0.999   1.286
 4948SOL    HW214994   4.544   1.097   1.392
 4949SOL     OW14995   4.633   0.897   0.298
 4949SOL    HW114996   4.682   0.913   0.217
 4949SOL    HW214997   4.679   0.824   0.340
 4950SOL     OW14998   5.222   1.637   0.045
 4950SOL    HW114999   5.128   1.621   0.035
 4950SOL    HW215000   5.252   1.658   5.957
 4951SOL     OW15001   4.076   1.315   1.493
 4951SOL    HW115002   4.084   1.387   1.431
 4951SOL    HW215003   4.004   1.262   1.460
 4952SOL     OW15004   5.334   1.283   1.281
 4952SOL    HW115005   5.395   1.272   1.354
 4952SOL    HW215006   5.273   1.350   1.310
 4953SOL     OW15007   4.778   1.108   0.707
 4953SOL    HW115008   4.708   1.055   0.746
 4953SOL    HW215009   4.844   1.044   0.680
 4954SOL     OW15010   4.783   0.242   0.948
 4954SOL    HW115011   4.771   0.181   0.875
 4954SOL    HW215012   4.710   0.223   1.007
 4955SOL     OW15013   4.331   1.490   0.478
 4955SOL    HW115014   4.377   1.438   0.412
 4955SOL    HW215015   4.260   1.533   0.431
 4956SOL     OW15016   5.448   0.405   1.375
 4956SOL    HW115017   5.528   0.458   1.369
 4956SOL    HW215018   5.468   0.325   1.326
 4957SOL     OW15019   3.977   1.337   0.285
 4957SOL    HW115020   3.899   1.280   0.282
 4957SOL    HW215021   3.972   1.380   0.370
 4958SOL     OW15022   4.392   0.230   1.497
 4958SOL    HW115023   4.459   0.175   1.457
 4958SOL    HW215024   4.421   0.242   1.588
 4959SOL     OW15025   3.757   0.408   0.037
 4959SOL    HW115026   3.701   0.332   0.049
 4959SOL    HW215027   3.820   0.382   5.970
 4960SOL     OW15028   5.154   0.858   1.397
 4960SOL    HW115029   5.103   0.918   1.342
 4960SOL    HW215030   5.242   0.860   1.360
 4961SOL     OW15031   3.791   0.161   0.323
 4961SOL    HW115032   3.805   0.244   0.277
 4961SOL    HW215033   3.865   0.106   0.298
 4962SOL     OW15034   4.896   1.345   0.129
 4962SOL    HW115035   4.807   1.310   0.132
 4962SOL    HW215036   4.927   1.338   0.219
 4963SOL     OW15037   4.343   0.831   1.441
 4963SOL    HW115038   4.399   0.906   1.424
 4963SOL    HW215039   4.404   0.757   1.448
 4964SOL     OW15040   5.208   1.781   0.980
 4964SOL    HW115041   5.230   1.843   0.911
 4964SOL    HW215042   5.293   1.759   1.020
 4965SOL     OW15043   4.443   0.566   1.713
 4965SOL    HW115044   4.494   0.623   1.771
 4965SOL    HW215045   4.468   0.477   1.740
 4966SOL     OW15046   5.198   1.199   1.635
 4966SOL    HW115047   5.187   1.214   1.729
 4966SOL    HW215048   5.290   1.216   1.619
 4967SOL     OW15049   4.110   1.741   1.561
 4967SOL    HW115050   4.020   1.772   1.552
 4967SOL    HW215051   4.102   1.645   1.556
 4968SOL     OW15052   5.394   0.881   1.254
 4968SOL    HW115053   5.387   0.795   1.213
 4968SOL    HW215054   5.381   0.943   1.183
 4969SOL     OW15055   4.952   0.317   0.458
 4969SOL    HW115056   5.021   0.251   0.446
 4969SOL    HW215057   4.979   0.367   0.535
 4970SOL     OW15058   4.310   0.736   0.674
 4970SOL    HW115059   4.352   0.821   0.658
 4970SOL    HW215060   4.245   0.728   0.605
 4971SOL     OW15061   5.488   0.369   1.644
 4971SOL    HW115062   5.465   0.380   1.552
 4971SOL    HW215063   5.422   0.309   1.679
 4972SOL     OW15064   5.478   0.934   1.511
 4972SOL    HW115065   5.464   1.027   1.527
 4972SOL    HW215066   5.457   0.921   1.419
 4973SOL     OW15067   4.605   1.377   0.030
 4973SOL    HW115068   4.557   1.369   0.112
 4973SOL    HW215069   4.608   1.471   0.013
 4974SOL     OW15070   4.386   1.789   0.941
 4974SOL    HW115071   4.368   1.881   0.920
 4974SOL    HW215072   4.481   1.782   0.937
 4975SOL     OW15073   4.591   0.966   0.855
 4975SOL    HW115074   4.643   0.895   0.893
 4975SOL    HW215075   4.556   1.013   0.931
 4976SOL     OW15076   4.799   0.967   0.088
 4976SOL    HW115077   4.774   1.018   0.011
 4976SOL    HW215078   4.879   0.922   0.061
 4977SOL     OW15079   5.569   1.557   0.844
 4977SOL    HW115080   5.494   1.540   0.787
 4977SOL    HW215081   5.565   1.488   0.910
 4978SOL     OW15082   3.810   1.231   0.666
 4978SOL    HW115083   3.815   1.182   0.748
 4978SOL    HW215084   3.876   1.190   0.610
 4979SOL     OW15085   4.376   1.421   1.599
 4979SOL    HW115086   4.345   1.334   1.624
 4979SOL    HW215087   4.414   1.456   1.679
 4980SOL     OW15088   5.536   0.185   1.239
 4980SOL    HW115089   5.538   0.094   1.267
 4980SOL    HW215090   5.557   0.181   1.145
 4981SOL     OW15091   4.152   0.431   0.527
 4981SOL    HW115092   4.186   0.361   0.471
 4981SOL    HW215093   4.105   0.386   0.597
 4982SOL     OW15094   5.424   1.484   1.095
 4982SOL    HW115095   5.344   1.465   1.045
 4982SOL    HW215096   5.429   1.414   1.160
 4983SOL     OW15097   4.059   0.559   1.295
 4983SOL    HW115098   4.110   0.498   1.348
 4983SOL    HW215099   4.075   0.531   1.205
 4984SOL     OW15100   4.553   1.577   0.677
 4984SOL    HW115101   4.536   1.635   0.603
 4984SOL    HW215102   4.478   1.517   0.679
 4985SOL     OW15103   5.159   0.223   1.122
 4985SOL    HW115104   5.202   0.163   1.183
 4985SOL    HW215105   5.097   0.272   1.177
 4986SOL     OW15106   4.743   0.008   1.165
 4986SOL    HW115107   4.684   5.963   1.104
 4986SOL    HW215108   4.822   0.025   1.113
 4987SOL     OW15109   4.502   1.332   0.309
 4987SOL    HW115110   4.468   1.243   0.320
 4987SOL    HW215111   4.591   1.327   0.345
 4988SOL     OW15112   4.344   1.560   1.280
 4988SOL    HW115113   4.347   1.640   1.332
 4988SOL    HW215114   4.432   1.551   1.244
 4989SOL     OW15115   5.064   0.083   0.142
 4989SOL    HW115116   5.122   0.008   0.132
 4989SOL    HW215117   4.983   0.047   0.180
 4990SOL     OW15118   5.019   0.464   0.678
 4990SOL    HW115119   4.966   0.544   0.684
 4990SOL    HW215120   5.024   0.431   0.767
 4991SOL     OW15121   5.328   0.227   0.894
 4991SOL    HW115122   5.264   0.235   0.964
 4991SOL    HW215123   5.319   0.308   0.844
 4992SOL     OW15124   3.789   1.078   0.296
 4992SOL    HW115125   3.877   1.046   0.278
 4992SOL    HW215126   3.750   1.011   0.353
 4993SOL     OW15127   4.610   1.657   0.341
 4993SOL    HW115128   4.534   1.635   0.286
 4993SOL    HW215129   4.579   1.729   0.396
 4994SOL     OW15130   3.956   0.638   1.975
 4994SOL    HW115131   3.876   0.634   2.028
 4994SOL    HW215132   3.932   0.595   1.893
 4995SOL     OW15133   3.932   0.261   2.726
 4995SOL    HW115134   3.983   0.192   2.768
 4995SOL    HW215135   3.849   0.220   2.702
 4996SOL     OW15136   3.731   0.379   2.478
 4996SOL    HW115137   3.642   0.408   2.500
 4996SOL    HW215138   3.718   0.299   2.428
 4997SOL     OW15139   5.277   1.546   2.535
 4997SOL    HW115140   5.248   1.503   2.615
 4997SOL    HW215141   5.202   1.540   2.476
 4998SOL     OW15142   4.883   0.685   2.513
 4998SOL    HW115143   4.926   0.769   2.498
 4998SOL    HW215144   4.831   0.698   2.592
 4999SOL     OW15145   5.494   0.605   2.083
 4999SOL    HW115146   5.472   0.596   1.991
 4999SOL    HW215147   5.455   0.528   2.125
 5000SOL     OW15148   4.594   0.790   3.683
 5000SOL    HW115149   4.651   0.844   3.737
 5000SOL    HW215150   4.613   0.816   3.593
 5001SOL     OW15151   4.390   0.994   2.555
 5001SOL    HW115152   4.485   0.992   2.546
 5001SOL    HW215153   4.362   1.070   2.504
 5002SOL     OW15154   4.323   1.131   3.667
 5002SOL    HW115155   4.370   1.204   3.707
 5002SOL    HW215156   4.258   1.172   3.610
 5003SOL     OW15157   5.238   1.489   3.286
 5003SOL    HW115158   5.235   1.583   3.304
 5003SOL    HW215159   5.158   1.454   3.327
 5004SOL     OW15160   4.183   0.362   3.433
 5004SOL    HW115161   4.255   0.300   3.445
 5004SOL    HW215162   4.106   0.317   3.468
 5005SOL     OW15163   5.345   0.437   2.540
 5005SOL    HW115164   5.280   0.450   2.471
 5005SOL    HW215165   5.348   0.520   2.587
 5006SOL     OW15166   3.972   1.727   2.364
 5006SOL    HW115167   3.968   1.812   2.408
 5006SOL    HW215168   3.958   1.747   2.272
 5007SOL     OW15169   5.404   0.118   3.386
 5007SOL    HW115170   5.336   0.078   3.332
 5007SOL    HW215171   5.356   0.163   3.456
 5008SOL     OW15172   3.866   0.623   2.450
 5008SOL    HW115173   3.811   0.545   2.456
 5008SOL    HW215174   3.828   0.684   2.513
 5009SOL     OW15175   5.561   1.762   2.202
 5009SOL    HW115176   5.627   1.734   2.265
 5009SOL    HW215177   5.586   1.851   2.177
 5010SOL     OW15178   5.416   0.894   2.453
 5010SOL    HW115179   5.500   0.855   2.427
 5010SOL    HW215180   5.394   0.954   2.382
 5011SOL     OW15181   5.371   1.108   2.279
 5011SOL    HW115182   5.457   1.105   2.237
 5011SOL    HW215183   5.371   1.189   2.329
 5012SOL     OW15184   3.835   0.769   3.471
 5012SOL    HW115185   3.921   0.797   3.502
 5012SOL    HW215186   3.785   0.850   3.461
 5013SOL     OW15187   5.011   1.292   3.327
 5013SOL    HW115188   5.046   1.224   3.270
 5013SOL    HW215189   5.059   1.282   3.409
 5014SOL     OW15190   4.536   0.007   2.405
 5014SOL    HW115191   4.565   0.092   2.372
 5014SOL    HW215192   4.440   0.013   2.404
 5015SOL     OW15193   5.257   0.990   2.057
 5015SOL    HW115194   5.185   0.935   2.089
 5015SOL    HW215195   5.295   1.028   2.136
 5016SOL     OW15196   4.952   1.822   3.489
 5016SOL    HW115197   4.887   1.824   3.419
 5016SOL    HW215198   4.990   1.734   3.483
 5017SOL     OW15199   4.072   0.267   3.723
 5017SOL    HW115200   4.108   0.353   3.701
 5017SOL    HW215201   3.980   0.283   3.741
 5018SOL     OW15202   5.215   1.392   2.742
 5018SOL    HW115203   5.142   1.430   2.790
 5018SOL    HW215204   5.190   1.301   2.727
 5019SOL     OW15205   5.366   1.777   2.431
 5019SOL    HW115206   5.372   1.740   2.343
 5019SOL    HW215207   5.342   1.702   2.486
 5020SOL     OW15208   5.052   0.334   2.723
 5020SOL    HW115209   4.965   0.302   2.698
 5020SOL    HW215210   5.057   0.319   2.817
 5021SOL     OW15211   5.304   1.671   2.168
 5021SOL    HW115212   5.396   1.696   2.162
 5021SOL    HW215213   5.278   1.654   2.077
 5022SOL     OW15214   4.533   0.606   3.326
 5022SOL    HW115215   4.516   0.600   3.420
 5022SOL    HW215216   4.468   0.549   3.285
 5023SOL     OW15217   5.124   0.465   3.554
 5023SOL    HW115218   5.131   0.513   3.637
 5023SOL    HW215219   5.184   0.391   3.565
 5024SOL     OW15220   4.724   0.424   3.272
 5024SOL    HW115221   4.655   0.484   3.300
 5024SOL    HW215222   4.693   0.390   3.188
 5025SOL     OW15223   4.778   0.701   2.269
 5025SOL    HW115224   4.801   0.686   2.361
 5025SOL    HW215225   4.691   0.664   2.259
 5026SOL     OW15226   3.775   0.795   2.654
 5026SOL    HW115227   3.865   0.814   2.680
 5026SOL    HW215228   3.731   0.880   2.656
 5027SOL     OW15229   4.572   0.394   2.010
 5027SOL    HW115230   4.652   0.423   1.966
 5027SOL    HW215231   4.596   0.311   2.052
 5028SOL     OW15232   5.438   0.572   3.700
 5028SOL    HW115233   5.391   0.640   3.653
 5028SOL    HW215234   5.465   0.510   3.632
 5029SOL     OW15235   5.114   1.147   2.406
 5029SOL    HW115236   5.188   1.131   2.347
 5029SOL    HW215237   5.060   1.209   2.359
 5030SOL     OW15238   4.248   0.256   2.689
 5030SOL    HW115239   4.336   0.220   2.675
 5030SOL    HW215240   4.258   0.350   2.675
 5031SOL     OW15241   5.407   1.121   2.595
 5031SOL    HW115242   5.408   1.034   2.555
 5031SOL    HW215243   5.479   1.119   2.657
 5032SOL     OW15244   4.976   1.569   3.393
 5032SOL    HW115245   4.977   1.501   3.461
 5032SOL    HW215246   4.903   1.545   3.336
 5033SOL     OW15247   5.195   0.749   2.503
 5033SOL    HW115248   5.194   0.698   2.584
 5033SOL    HW215249   5.272   0.805   2.511
 5034SOL     OW15250   3.929   0.286   3.479
 5034SOL    HW115251   3.875   0.303   3.402
 5034SOL    HW215252   3.911   0.194   3.500
 5035SOL     OW15253   5.348   1.377   1.950
 5035SOL    HW115254   5.313   1.465   1.936
 5035SOL    HW215255   5.274   1.319   1.934
 5036SOL     OW15256   5.157   0.120   2.266
 5036SOL    HW115257   5.140   0.105   2.173
 5036SOL    HW215258   5.251   0.138   2.271
 5037SOL     OW15259   4.711   1.714   2.735
 5037SOL    HW115260   4.750   1.633   2.702
 5037SOL    HW215261   4.617   1.697   2.736
 5038SOL     OW15262   4.109   0.692   2.315
 5038SOL    HW115263   4.137   0.603   2.339
 5038SOL    HW215264   4.015   0.693   2.336
 5039SOL     OW15265   5.260   0.218   3.602
 5039SOL    HW115266   5.258   0.251   3.691
 5039SOL    HW215267   5.204   0.140   3.604
 5040SOL     OW15268   4.343   0.096   1.971
 5040SOL    HW115269   4.425   0.046   1.966
 5040SOL    HW215270   4.298   0.077   1.888
 5041SOL     OW15271   4.489   0.276   3.643
 5041SOL    HW115272   4.568   0.223   3.652
 5041SOL    HW215273   4.459   0.289   3.733
 5042SOL     OW15274   5.059   0.598   3.329
 5042SOL    HW115275   5.090   0.567   3.415
 5042SOL    HW215276   5.113   0.674   3.310
 5043SOL     OW15277   4.690   0.498   2.717
 5043SOL    HW115278   4.647   0.494   2.631
 5043SOL    HW215279   4.734   0.414   2.726
 5044SOL     OW15280   4.273   0.058   2.352
 5044SOL    HW115281   4.196   0.048   2.408
 5044SOL    HW215282   4.259   0.141   2.307
 5045SOL     OW15283   5.141   1.196   1.911
 5045SOL    HW115284   5.186   1.120   1.947
 5045SOL    HW215285   5.067   1.210   1.970
 5046SOL     OW15286   4.026   0.042   2.054
 5046SOL    HW115287   4.084   0.099   2.004
 5046SOL    HW215288   4.084   5.975   2.092
 5047SOL     OW15289   4.694   0.255   2.368
 5047SOL    HW115290   4.649   0.237   2.286
 5047SOL    HW215291   4.784   0.272   2.343
 5048SOL     OW15292   4.805   0.721   3.334
 5048SOL    HW115293   4.728   0.665   3.326
 5048SOL    HW215294   4.879   0.660   3.330
 5049SOL     OW15295   4.918   1.558   2.606
 5049SOL    HW115296   4.919   1.621   2.535
 5049SOL    HW215297   4.987   1.588   2.666
 5050SOL     OW15298   4.998   1.799   2.467
 5050SOL    HW115299   5.045   1.863   2.413
 5050SOL    HW215300   4.965   1.850   2.541
 5051SOL     OW15301   4.763   0.552   1.880
 5051SOL    HW115302   4.718   0.636   1.867
 5051SOL    HW215303   4.822   0.568   1.954
 5052SOL     OW15304   3.784   0.586   3.280
 5052SOL    HW115305   3.878   0.581   3.264
 5052SOL    HW215306   3.774   0.656   3.344
 5053SOL     OW15307   4.402   5.993   3.236
 5053SOL    HW115308   4.374   0.045   3.312
 5053SOL    HW215309   4.362   0.036   3.161
 5054SOL     OW15310   4.571   0.466   2.486
 5054SOL    HW115311   4.528   0.519   2.419
 5054SOL    HW215312   4.608   0.392   2.437
 5055SOL     OW15313   4.746   0.032   2.574
 5055SOL    HW115314   4.671   0.023   2.515
 5055SOL    HW215315   4.757   5.945   2.613
 5056SOL     OW15316   5.124   1.149   2.687
 5056SOL    HW115317   5.131   1.056   2.708
 5056SOL    HW215318   5.143   1.154   2.594
 5057SOL     OW15319   5.209   0.595   2.728
 5057SOL    HW115320   5.156   0.515   2.718
 5057SOL    HW215321   5.270   0.575   2.798
 5058SOL     OW15322   5.577   0.814   2.235
 5058SOL    HW115323   5.632   0.757   2.288
 5058SOL    HW215324   5.545   0.757   2.165
 5059SOL     OW15325   5.395   1.328   2.429
 5059SOL    HW115326   5.405   1.268   2.503
 5059SOL    HW215327   5.358   1.408   2.467
 5060SOL     OW15328   5.123   0.576   1.937
 5060SOL    HW115329   5.055   0.557   2.002
 5060SOL    HW215330   5.192   0.512   1.956
 5061SOL     OW15331   4.266   0.268   2.167
 5061SOL    HW115332   4.278   0.211   2.091
 5061SOL    HW215333   4.236   0.351   2.129
 5062SOL     OW15334   5.510   1.244   3.530
 5062SOL    HW115335   5.590   1.223   3.482
 5062SOL    HW215336   5.507   1.340   3.531
 5063SOL     OW15337   4.773   1.418   3.288
 5063SOL    HW115338   4.708   1.361   3.328
 5063SOL    HW215339   4.854   1.366   3.289
 5064SOL     OW15340   5.334   1.632   3.537
 5064SOL    HW115341   5.352   1.679   3.456
 5064SOL    HW215342   5.410   1.575   3.550
 5065SOL     OW15343   5.506   0.893   2.732
 5065SOL    HW115344   5.551   0.971   2.763
 5065SOL    HW215345   5.413   0.914   2.741
 5066SOL     OW15346   4.641   0.132   3.266
 5066SOL    HW115347   4.607   0.044   3.283
 5066SOL    HW215348   4.711   0.143   3.331
 5067SOL     OW15349   4.978   0.363   3.248
 5067SOL    HW115350   5.027   0.442   3.269
 5067SOL    HW215351   4.887   0.389   3.253
 5068SOL     OW15352   4.285   0.518   2.666
 5068SOL    HW115353   4.272   0.553   2.578
 5068SOL    HW215354   4.357   0.570   2.702
 5069SOL     OW15355   4.973   1.337   2.272
 5069SOL    HW115356   5.017   1.421   2.289
 5069SOL    HW215357   4.880   1.360   2.267
 5070SOL     OW15358   5.315   0.616   2.310
 5070SOL    HW115359   5.258   0.668   2.367
 5070SOL    HW215360   5.366   0.680   2.263
 5071SOL     OW15361   5.301   0.752   3.551
 5071SOL    HW115362   5.217   0.797   3.548
 5071SOL    HW215363   5.365   0.818   3.523
 5072SOL     OW15364   4.721   0.129   3.657
 5072SOL    HW115365   4.782   0.197   3.629
 5072SOL    HW215366   4.729   0.059   3.592
 5073SOL     OW15367   4.190   0.035   3.671
 5073SOL    HW115368   4.213   0.018   3.580
 5073SOL    HW215369   4.149   0.122   3.670
 5074SOL     OW15370   5.149   0.880   2.738
 5074SOL    HW115371   5.057   0.883   2.711
 5074SOL    HW215372   5.163   0.789   2.765
 5075SOL     OW15373   4.923   0.525   2.119
 5075SOL    HW115374   4.938   0.449   2.174
 5075SOL    HW215375   4.879   0.588   2.176
 5076SOL     OW15376   4.016   0.109   3.276
 5076SOL    HW115377   4.046   0.201   3.273
 5076SOL    HW215378   4.050   0.071   3.194
 5077SOL     OW15379   4.490   0.680   2.726
 5077SOL    HW115380   4.556   0.611   2.731
 5077SOL    HW215381   4.482   0.712   2.816
 5078SOL     OW15382   5.468   0.950   3.745
 5078SOL    HW115383   5.425   0.960   3.660
 5078SOL    HW215384   5.396   0.956   3.809
 5079SOL     OW15385   4.035   0.051   2.488
 5079SOL    HW115386   4.018   0.144   2.472
 5079SOL    HW215387   3.949   0.015   2.510
 5080SOL     OW15388   5.337   0.370   2.212
 5080SOL    HW115389   5.374   0.312   2.278
 5080SOL    HW215390   5.321   0.452   2.258
 5081SOL     OW15391   4.778   0.757   2.738
 5081SOL    HW115392   4.726   0.819   2.789
 5081SOL    HW215393   4.733   0.673   2.750
 5082SOL     OW15394   5.575   1.513   3.505
 5082SOL    HW115395   5.602   1.540   3.417
 5082SOL    HW215396   5.650   1.531   3.560
 5083SOL     OW15397   5.208   0.311   1.978
 5083SOL    HW115398   5.153   0.235   1.999
 5083SOL    HW215399   5.268   0.318   2.052
 5084SOL     OW15400   5.025   0.829   1.895
 5084SOL    HW115401   5.069   0.744   1.899
 5084SOL    HW215402   5.053   0.867   1.812
 5085SOL     OW15403   4.780   1.352   2.710
 5085SOL    HW115404   4.815   1.264   2.692
 5085SOL    HW215405   4.844   1.412   2.673
 5086SOL     OW15406   4.057   0.794   2.720
 5086SOL    HW115407   4.153   0.791   2.723
 5086SOL    HW215408   4.031   0.702   2.720
 5087SOL     OW15409   4.017   0.527   2.715
 5087SOL    HW115410   3.979   0.439   2.725
 5087SOL    HW215411   4.109   0.511   2.695
 5088SOL     OW15412   4.860   0.386   3.575
 5088SOL    HW115413   4.816   0.451   3.630
 5088SOL    HW215414   4.948   0.422   3.562
 5089SOL     OW15415   4.861   0.183   3.412
 5089SOL    HW115416   4.851   0.259   3.470
 5089SOL    HW215417   4.902   0.218   3.333
 5090SOL     OW15418   3.803   0.322   3.249
 5090SOL    HW115419   3.859   0.313   3.172
 5090SOL    HW215420   3.795   0.416   3.262
 5091SOL     OW15421   3.911   0.533   3.602
 5091SOL    HW115422   3.936   0.462   3.542
 5091SOL    HW215423   3.872   0.600   3.545
 5092SOL     OW15424   5.096   0.949   3.532
 5092SOL    HW115425   5.130   1.038   3.536
 5092SOL    HW215426   5.081   0.933   3.439
 5093SOL     OW15427   4.538   0.571   2.221
 5093SOL    HW115428   4.542   0.511   2.147
 5093SOL    HW215429   4.447   0.601   2.223
 5094SOL     OW15430   5.424   0.618   3.240
 5094SOL    HW115431   5.361   0.553   3.272
 5094SOL    HW215432   5.467   0.575   3.167
 5095SOL     OW15433   4.397   0.401   3.242
 5095SOL    HW115434   4.364   0.329   3.297
 5095SOL    HW215435   4.442   0.358   3.170
 5096SOL     OW15436   4.188   0.504   2.051
 5096SOL    HW115437   4.242   0.581   2.067
 5096SOL    HW215438   4.100   0.538   2.040
 5097SOL     OW15439   5.114   1.053   3.274
 5097SOL    HW115440   5.194   1.096   3.247
 5097SOL    HW215441   5.065   1.040   3.192
 5098SOL     OW15442   5.016   0.865   2.169
 5098SOL    HW115443   4.952   0.808   2.212
 5098SOL    HW215444   5.005   0.847   2.075
 5099SOL     OW15445   5.633   1.593   2.783
 5099SOL    HW115446   5.686   1.668   2.755
 5099SOL    HW215447   5.553   1.632   2.817
 5100SOL     OW15448   5.116   1.666   2.743
 5100SOL    HW115449   5.202   1.700   2.720
 5100SOL    HW215450   5.105   1.690   2.836
 5101SOL     OW15451   5.439   0.144   2.336
 5101SOL    HW115452   5.531   0.140   2.310
 5101SOL    HW215453   5.429   0.073   2.400
 5102SOL     OW15454   5.094   1.583   2.322
 5102SOL    HW115455   5.169   1.608   2.268
 5102SOL    HW215456   5.072   1.663   2.371
 5103SOL     OW15457   4.992   0.929   2.510
 5103SOL    HW115458   5.072   0.877   2.503
 5103SOL    HW215459   5.016   1.013   2.473
 5104SOL     OW15460   5.421   1.760   3.306
 5104SOL    HW115461   5.398   1.737   3.216
 5104SOL    HW215462   5.378   1.845   3.320
 5105SOL     OW15463   5.607   0.178   2.681
 5105SOL    HW115464   5.607   0.085   2.705
 5105SOL    HW215465   5.519   0.209   2.704
 5106SOL     OW15466   3.998   0.324   2.480
 5106SOL    HW115467   3.915   0.368   2.462
 5106SOL    HW215468   3.998   0.309   2.574
 5107SOL     OW15469   4.954   1.621   1.876
 5107SOL    HW115470   4.902   1.549   1.912
 5107SOL    HW215471   4.899   1.659   1.808
 5108SOL     OW15472   5.224   1.625   1.905
 5108SOL    HW115473   5.130   1.619   1.890
 5108SOL    HW215474   5.262   1.633   1.817
 5109SOL     OW15475   5.349   1.235   3.282
 5109SOL    HW115476   5.444   1.251   3.288
 5109SOL    HW215477   5.311   1.323   3.274
 5110SOL     OW15478   4.797   0.247   2.715
 5110SOL    HW115479   4.781   0.195   2.637
 5110SOL    HW215480   4.791   0.185   2.788
 5111SOL     OW15481   4.359   1.478   2.290
 5111SOL    HW115482   4.372   1.432   2.207
 5111SOL    HW215483   4.295   1.547   2.270
 5112SOL     OW15484   5.442   0.361   3.269
 5112SOL    HW115485   5.518   0.418   3.280
 5112SOL    HW215486   5.478   0.280   3.235
 5113SOL     OW15487   4.406   0.198   3.407
 5113SOL    HW115488   4.492   0.192   3.364
 5113SOL    HW215489   4.426   0.223   3.497
 5114SOL     OW15490   3.810   0.324   1.885
 5114SOL    HW115491   3.720   0.317   1.916
 5114SOL    HW215492   3.810   0.400   1.827
 5115SOL     OW15493   5.209   0.809   3.282
 5115SOL    HW115494   5.174   0.898   3.277
 5115SOL    HW215495   5.302   0.820   3.298
 5116SOL     OW15496   3.836   0.168   2.214
 5116SOL    HW115497   3.799   0.221   2.144
 5116SOL    HW215498   3.909   0.121   2.173
 5117SOL     OW15499   4.354   0.814   3.320
 5117SOL    HW115500   4.399   0.893   3.291
 5117SOL    HW215501   4.421   0.746   3.318
 5118SOL     OW15502   5.348   1.806   2.733
 5118SOL    HW115503   5.340   1.844   2.646
 5118SOL    HW215504   5.320   1.876   2.792
 5119SOL     OW15505   4.469   0.558   3.578
 5119SOL    HW115506   4.498   0.617   3.648
 5119SOL    HW215507   4.476   0.470   3.617
 5120SOL     OW15508   5.182   1.224   3.520
 5120SOL    HW115509   5.188   1.223   3.615
 5120SOL    HW215510   5.273   1.221   3.490
 5121SOL     OW15511   5.485   0.866   3.281
 5121SOL    HW115512   5.473   0.771   3.275
 5121SOL    HW215513   5.513   0.891   3.193
 5122SOL     OW15514   4.953   0.310   2.302
 5122SOL    HW115515   5.019   0.241   2.297
 5122SOL    HW215516   4.986   0.369   2.369
 5123SOL     OW15517   4.297   0.738   2.505
 5123SOL    HW115518   4.333   0.826   2.519
 5123SOL    HW215519   4.236   0.748   2.432
 5124SOL     OW15520   5.488   0.360   3.536
 5124SOL    HW115521   5.469   0.351   3.443
 5124SOL    HW215522   5.421   0.306   3.579
 5125SOL     OW15523   5.405   1.000   3.488
 5125SOL    HW115524   5.439   1.089   3.494
 5125SOL    HW215525   5.444   0.965   3.408
 5126SOL     OW15526   4.784   0.955   1.940
 5126SOL    HW115527   4.778   1.030   1.881
 5126SOL    HW215528   4.871   0.919   1.924
 5127SOL     OW15529   5.603   1.583   2.519
 5127SOL    HW115530   5.509   1.563   2.511
 5127SOL    HW215531   5.631   1.536   2.598
 5128SOL     OW15532   5.657   0.073   3.271
 5128SOL    HW115533   5.563   0.065   3.285
 5128SOL    HW215534   5.668   0.158   3.227
 5129SOL     OW15535   4.212   0.445   2.378
 5129SOL    HW115536   4.233   0.378   2.312
 5129SOL    HW215537   4.135   0.410   2.424
 5130SOL     OW15538   5.497   1.373   2.731
 5130SOL    HW115539   5.405   1.394   2.748
 5130SOL    HW215540   5.545   1.448   2.765
 5131SOL     OW15541   4.050   0.542   3.282
 5131SOL    HW115542   4.106   0.495   3.343
 5131SOL    HW215543   4.110   0.583   3.221
 5132SOL     OW15544   5.472   5.993   2.793
 5132SOL    HW115545   5.489   5.969   2.884
 5132SOL    HW215546   5.387   0.038   2.795
 5133SOL     OW15547   4.906   5.979   3.234
 5133SOL    HW115548   4.817   0.008   3.215
 5133SOL    HW215549   4.961   0.029   3.173
 5134SOL     OW15550   5.068   0.067   2.011
 5134SOL    HW115551   5.125   5.993   1.990
 5134SOL    HW215552   4.985   0.026   2.038
 5135SOL     OW15553   5.046   0.473   2.493
 5135SOL    HW115554   4.990   0.550   2.502
 5135SOL    HW215555   5.039   0.428   2.577
 5136SOL     OW15556   5.312   0.236   2.712
 5136SOL    HW115557   5.217   0.244   2.710
 5136SOL    HW215558   5.343   0.302   2.650
 5137SOL     OW15559   3.961   0.630   3.854
 5137SOL    HW115560   3.876   0.638   3.897
 5137SOL    HW215561   3.940   0.604   3.764
 5138SOL     OW15562   3.923   0.312   4.717
 5138SOL    HW115563   3.971   0.262   4.783
 5138SOL    HW215564   3.843   0.261   4.702
 5139SOL     OW15565   3.724   0.382   4.366
 5139SOL    HW115566   3.637   0.402   4.399
 5139SOL    HW215567   3.709   0.316   4.297
 5140SOL     OW15568   4.291   1.294   4.902
 5140SOL    HW115569   4.204   1.299   4.861
 5140SOL    HW215570   4.306   1.383   4.936
 5141SOL     OW15571   5.283   1.513   4.430
 5141SOL    HW115572   5.245   1.491   4.515
 5141SOL    HW215573   5.208   1.511   4.370
 5142SOL     OW15574   4.856   0.695   4.429
 5142SOL    HW115575   4.903   0.776   4.413
 5142SOL    HW215576   4.809   0.709   4.511
 5143SOL     OW15577   5.482   0.605   3.963
 5143SOL    HW115578   5.469   0.600   3.869
 5143SOL    HW215579   5.446   0.523   3.996
 5144SOL     OW15580   4.478   1.146   4.768
 5144SOL    HW115581   4.410   1.182   4.825
 5144SOL    HW215582   4.512   1.222   4.721
 5145SOL     OW15583   4.593   0.773   5.551
 5145SOL    HW115584   4.579   0.842   5.615
 5145SOL    HW215585   4.615   0.819   5.470
 5146SOL     OW15586   4.408   0.993   4.384
 5146SOL    HW115587   4.475   0.989   4.452
 5146SOL    HW215588   4.342   1.054   4.418
 5147SOL     OW15589   4.438   1.154   5.536
 5147SOL    HW115590   4.484   1.232   5.566
 5147SOL    HW215591   4.356   1.187   5.500
 5148SOL     OW15592   4.055   1.418   4.790
 5148SOL    HW115593   3.979   1.384   4.743
 5148SOL    HW215594   4.101   1.471   4.725
 5149SOL     OW15595   5.184   1.502   5.082
 5149SOL    HW115596   5.238   1.580   5.091
 5149SOL    HW215597   5.119   1.509   5.152
 5150SOL     OW15598   4.167   0.397   5.219
 5150SOL    HW115599   4.248   0.346   5.218
 5150SOL    HW215600   4.098   0.332   5.223
 5151SOL     OW15601   5.331   0.451   4.460
 5151SOL    HW115602   5.259   0.474   4.401
 5151SOL    HW215603   5.358   0.535   4.498
 5152SOL     OW15604   3.922   1.711   4.216
 5152SOL    HW115605   3.961   1.785   4.263
 5152SOL    HW215606   3.951   1.721   4.125
 5153SOL     OW15607   4.863   1.341   5.418
 5153SOL    HW115608   4.906   1.335   5.503
 5153SOL    HW215609   4.811   1.261   5.411
 5154SOL     OW15610   3.969   1.439   4.275
 5154SOL    HW115611   3.950   1.531   4.256
 5154SOL    HW215612   3.888   1.405   4.312
 5155SOL     OW15613   3.978   1.089   4.609
 5155SOL    HW115614   3.978   1.002   4.648
 5155SOL    HW215615   3.923   1.142   4.667
 5156SOL     OW15616   4.334   1.791   5.154
 5156SOL    HW115617   4.252   1.773   5.199
 5156SOL    HW215618   4.356   1.881   5.179
 5157SOL     OW15619   5.380   0.106   5.228
 5157SOL    HW115620   5.314   0.128   5.163
 5157SOL    HW215621   5.350   0.148   5.308
 5158SOL     OW15622   3.862   0.626   4.309
 5158SOL    HW115623   3.808   0.548   4.326
 5158SOL    HW215624   3.832   0.690   4.373
 5159SOL     OW15625   5.564   1.762   4.062
 5159SOL    HW115626   5.633   1.735   4.123
 5159SOL    HW215627   5.587   1.851   4.038
 5160SOL     OW15628   5.418   0.918   4.367
 5160SOL    HW115629   5.498   0.871   4.342
 5160SOL    HW215630   5.394   0.968   4.290
 5161SOL     OW15631   5.368   1.104   4.155
 5161SOL    HW115632   5.452   1.108   4.111
 5161SOL    HW215633   5.375   1.167   4.227
 5162SOL     OW15634   3.847   0.746   5.310
 5162SOL    HW115635   3.938   0.774   5.313
 5162SOL    HW215636   3.796   0.827   5.315
 5163SOL     OW15637   4.338   1.383   4.465
 5163SOL    HW115638   4.286   1.303   4.468
 5163SOL    HW215639   4.333   1.412   4.374
 5164SOL     OW15640   5.012   1.238   5.146
 5164SOL    HW115641   5.044   1.171   5.086
 5164SOL    HW215642   5.071   1.233   5.222
 5165SOL     OW15643   4.543   0.010   4.282
 5165SOL    HW115644   4.577   0.094   4.252
 5165SOL    HW215645   4.448   0.017   4.271
 5166SOL     OW15646   3.911   0.963   4.997
 5166SOL    HW115647   3.997   0.923   4.981
 5166SOL    HW215648   3.851   0.912   4.943
 5167SOL     OW15649   5.254   0.989   3.928
 5167SOL    HW115650   5.183   0.934   3.960
 5167SOL    HW215651   5.296   1.023   4.007
 5168SOL     OW15652   4.904   1.807   5.346
 5168SOL    HW115653   4.916   1.869   5.274
 5168SOL    HW215654   4.925   1.722   5.309
 5169SOL     OW15655   4.054   0.260   5.533
 5169SOL    HW115656   4.101   0.342   5.545
 5169SOL    HW215657   3.968   0.275   5.571
 5170SOL     OW15658   5.191   1.419   4.674
 5170SOL    HW115659   5.124   1.434   4.740
 5170SOL    HW215660   5.179   1.328   4.647
 5171SOL     OW15661   5.376   1.746   4.305
 5171SOL    HW115662   5.366   1.715   4.216
 5171SOL    HW215663   5.357   1.670   4.360
 5172SOL     OW15664   5.023   0.367   4.660
 5172SOL    HW115665   4.934   0.334   4.658
 5172SOL    HW215666   5.071   0.306   4.715
 5173SOL     OW15667   5.306   1.669   4.041
 5173SOL    HW115668   5.396   1.700   4.033
 5173SOL    HW215669   5.277   1.654   3.951
 5174SOL     OW15670   4.524   0.618   5.181
 5174SOL    HW115671   4.493   0.595   5.268
 5174SOL    HW215672   4.481   0.555   5.123
 5175SOL     OW15673   5.118   0.472   5.399
 5175SOL    HW115674   5.126   0.522   5.481
 5175SOL    HW215675   5.182   0.401   5.409
 5176SOL     OW15676   4.676   0.887   5.309
 5176SOL    HW115677   4.731   0.818   5.273
 5176SOL    HW215678   4.628   0.921   5.233
 5177SOL     OW15679   4.707   0.399   4.963
 5177SOL    HW115680   4.629   0.435   5.005
 5177SOL    HW215681   4.674   0.349   4.889
 5178SOL     OW15682   4.780   0.700   4.161
 5178SOL    HW115683   4.793   0.682   4.254
 5178SOL    HW215684   4.695   0.661   4.140
 5179SOL     OW15685   3.799   0.831   4.493
 5179SOL    HW115686   3.882   0.816   4.538
 5179SOL    HW215687   3.760   0.905   4.539
 5180SOL     OW15688   3.848   1.860   5.302
 5180SOL    HW115689   3.851   1.837   5.395
 5180SOL    HW215690   3.760   1.835   5.274
 5181SOL     OW15691   4.576   0.396   3.882
 5181SOL    HW115692   4.656   0.420   3.835
 5181SOL    HW215693   4.598   0.314   3.925
 5182SOL     OW15694   5.436   0.571   5.551
 5182SOL    HW115695   5.394   0.645   5.505
 5182SOL    HW215696   5.461   0.511   5.480
 5183SOL     OW15697   5.109   1.138   4.269
 5183SOL    HW115698   5.188   1.126   4.217
 5183SOL    HW215699   5.057   1.202   4.220
 5184SOL     OW15700   4.288   0.218   4.609
 5184SOL    HW115701   4.269   0.237   4.701
 5184SOL    HW215702   4.282   0.303   4.566
 5185SOL     OW15703   4.081   1.813   4.588
 5185SOL    HW115704   4.124   1.728   4.594
 5185SOL    HW215705   4.151   1.877   4.603
 5186SOL     OW15706   5.530   1.055   4.592
 5186SOL    HW115707   5.477   1.035   4.514
 5186SOL    HW215708   5.466   1.060   4.663
 5187SOL     OW15709   4.950   1.539   5.236
 5187SOL    HW115710   4.940   1.466   5.297
 5187SOL    HW215711   4.885   1.524   5.168
 5188SOL     OW15712   4.053   0.956   3.892
 5188SOL    HW115713   4.129   0.964   3.950
 5188SOL    HW215714   4.001   0.885   3.930
 5189SOL     OW15715   5.206   0.748   4.453
 5189SOL    HW115716   5.198   0.703   4.538
 5189SOL    HW215717   5.284   0.803   4.463
 5190SOL     OW15718   4.188   1.265   5.466
 5190SOL    HW115719   4.162   1.270   5.374
 5190SOL    HW215720   4.106   1.262   5.514
 5191SOL     OW15721   3.913   0.275   5.231
 5191SOL    HW115722   3.842   0.338   5.218
 5191SOL    HW215723   3.901   0.243   5.320
 5192SOL     OW15724   5.349   1.382   3.816
 5192SOL    HW115725   5.309   1.468   3.804
 5192SOL    HW215726   5.278   1.320   3.800
 5193SOL     OW15727   5.150   0.133   4.141
 5193SOL    HW115728   5.133   0.104   4.052
 5193SOL    HW215729   5.245   0.132   4.149
 5194SOL     OW15730   3.979   1.789   4.954
 5194SOL    HW115731   4.030   1.719   4.995
 5194SOL    HW215732   3.969   1.762   4.863
 5195SOL     OW15733   4.668   1.698   4.626
 5195SOL    HW115734   4.748   1.650   4.644
 5195SOL    HW215735   4.612   1.635   4.580
 5196SOL     OW15736   4.117   0.695   4.201
 5196SOL    HW115737   4.138   0.602   4.212
 5196SOL    HW215738   4.022   0.700   4.215
 5197SOL     OW15739   5.264   0.221   5.458
 5197SOL    HW115740   5.259   0.258   5.546
 5197SOL    HW215741   5.200   0.149   5.458
 5198SOL     OW15742   4.364   0.109   3.853
 5198SOL    HW115743   4.441   0.053   3.845
 5198SOL    HW215744   4.307   0.082   3.781
 5199SOL     OW15745   4.485   0.265   5.483
 5199SOL    HW115746   4.563   0.209   5.486
 5199SOL    HW215747   4.478   0.300   5.572
 5200SOL     OW15748   4.601   1.524   4.917
 5200SOL    HW115749   4.585   1.489   4.829
 5200SOL    HW215750   4.671   1.469   4.952
 5201SOL     OW15751   5.065   0.591   5.155
 5201SOL    HW115752   5.097   0.560   5.240
 5201SOL    HW215753   5.100   0.679   5.146
 5202SOL     OW15754   4.540   1.407   4.659
 5202SOL    HW115755   4.623   1.383   4.618
 5202SOL    HW215756   4.475   1.399   4.590
 5203SOL     OW15757   4.656   0.513   4.632
 5203SOL    HW115758   4.629   0.507   4.540
 5203SOL    HW215759   4.689   0.425   4.653
 5204SOL     OW15760   4.275   0.053   4.217
 5204SOL    HW115761   4.200   0.047   4.276
 5204SOL    HW215762   4.262   0.136   4.171
 5205SOL     OW15763   5.148   1.197   3.787
 5205SOL    HW115764   5.189   1.120   3.826
 5205SOL    HW215765   5.070   1.212   3.840
 5206SOL     OW15766   4.021   0.040   3.919
 5206SOL    HW115767   4.073   0.104   3.869
 5206SOL    HW215768   4.086   5.979   3.954
 5207SOL     OW15769   4.696   0.262   4.243
 5207SOL    HW115770   4.651   0.243   4.161
 5207SOL    HW215771   4.787   0.279   4.217
 5208SOL     OW15772   4.804   0.683   5.182
 5208SOL    HW115773   4.734   0.618   5.190
 5208SOL    HW215774   4.884   0.630   5.178
 5209SOL     OW15775   4.951   1.570   4.522
 5209SOL    HW115776   4.963   1.639   4.456
 5209SOL    HW215777   5.019   1.586   4.587
 5210SOL     OW15778   4.187   1.151   4.447
 5210SOL    HW115779   4.121   1.134   4.514
 5210SOL    HW215780   4.144   1.129   4.364
 5211SOL     OW15781   4.991   1.804   4.334
 5211SOL    HW115782   5.043   1.861   4.278
 5211SOL    HW215783   4.942   1.864   4.390
 5212SOL     OW15784   4.763   0.561   3.752
 5212SOL    HW115785   4.719   0.645   3.740
 5212SOL    HW215786   4.820   0.575   3.827
 5213SOL     OW15787   3.809   0.549   5.121
 5213SOL    HW115788   3.900   0.552   5.092
 5213SOL    HW215789   3.801   0.622   5.183
 5214SOL     OW15790   4.278   0.245   4.895
 5214SOL    HW115791   4.308   0.164   4.937
 5214SOL    HW215792   4.184   0.248   4.914
 5215SOL     OW15793   4.588   0.477   4.372
 5215SOL    HW115794   4.540   0.519   4.301
 5215SOL    HW215795   4.624   0.397   4.333
 5216SOL     OW15796   4.722   0.042   4.496
 5216SOL    HW115797   4.665   0.036   4.419
 5216SOL    HW215798   4.717   5.956   4.537
 5217SOL     OW15799   5.162   1.160   4.581
 5217SOL    HW115800   5.091   1.096   4.579
 5217SOL    HW215801   5.189   1.168   4.489
 5218SOL     OW15802   5.186   0.608   4.699
 5218SOL    HW115803   5.136   0.527   4.695
 5218SOL    HW215804   5.246   0.596   4.773
 5219SOL     OW15805   5.571   0.817   4.108
 5219SOL    HW115806   5.625   0.763   4.166
 5219SOL    HW215807   5.540   0.757   4.040
 5220SOL     OW15808   5.392   1.263   4.373
 5220SOL    HW115809   5.487   1.265   4.382
 5220SOL    HW215810   5.364   1.353   4.391
 5221SOL     OW15811   5.123   0.576   3.806
 5221SOL    HW115812   5.055   0.556   3.870
 5221SOL    HW215813   5.194   0.516   3.827
 5222SOL     OW15814   4.251   0.269   4.042
 5222SOL    HW115815   4.276   0.218   3.965
 5222SOL    HW215816   4.232   0.356   4.008
 5223SOL     OW15817   5.477   1.236   5.289
 5223SOL    HW115818   5.565   1.203   5.276
 5223SOL    HW215819   5.489   1.326   5.321
 5224SOL     OW15820   4.781   1.355   5.057
 5224SOL    HW115821   4.706   1.324   5.107
 5224SOL    HW215822   4.856   1.313   5.098
 5225SOL     OW15823   5.327   1.625   5.377
 5225SOL    HW115824   5.327   1.660   5.288
 5225SOL    HW215825   5.410   1.576   5.383
 5226SOL     OW15826   4.856   1.207   4.829
 5226SOL    HW115827   4.794   1.243   4.893
 5226SOL    HW215828   4.825   1.240   4.745
 5227SOL     OW15829   5.351   1.097   4.799
 5227SOL    HW115830   5.344   1.159   4.871
 5227SOL    HW215831   5.274   1.114   4.745
 5228SOL     OW15832   4.620   0.094   5.126
 5228SOL    HW115833   4.645   0.062   5.039
 5228SOL    HW215834   4.699   0.135   5.161
 5229SOL     OW15835   4.709   1.114   5.451
 5229SOL    HW115836   4.618   1.130   5.473
 5229SOL    HW215837   4.708   1.037   5.394
 5230SOL     OW15838   4.145   0.817   4.974
 5230SOL    HW115839   4.213   0.825   5.042
 5230SOL    HW215840   4.110   0.729   4.986
 5231SOL     OW15841   4.984   0.377   5.005
 5231SOL    HW115842   5.014   0.459   5.043
 5231SOL    HW215843   4.896   0.396   4.972
 5232SOL     OW15844   3.795   1.577   5.078
 5232SOL    HW115845   3.766   1.645   5.019
 5232SOL    HW215846   3.891   1.578   5.071
 5233SOL     OW15847   4.284   0.524   4.578
 5233SOL    HW115848   4.294   0.582   4.502
 5233SOL    HW215849   4.346   0.558   4.643
 5234SOL     OW15850   4.979   1.336   4.130
 5234SOL    HW115851   5.022   1.419   4.152
 5234SOL    HW215852   4.886   1.355   4.141
 5235SOL     OW15853   5.007   1.458   4.872
 5235SOL    HW115854   5.062   1.462   4.950
 5235SOL    HW215855   4.951   1.381   4.885
 5236SOL     OW15856   5.299   0.625   4.211
 5236SOL    HW115857   5.260   0.687   4.273
 5236SOL    HW215858   5.354   0.680   4.155
 5237SOL     OW15859   4.069   1.529   5.036
 5237SOL    HW115860   4.057   1.484   4.952
 5237SOL    HW215861   4.164   1.541   5.044
 5238SOL     OW15862   4.138   0.743   5.326
 5238SOL    HW115863   4.201   0.788   5.269
 5238SOL    HW215864   4.176   0.656   5.339
 5239SOL     OW15865   5.326   0.777   5.405
 5239SOL    HW115866   5.240   0.819   5.400
 5239SOL    HW215867   5.378   0.820   5.337
 5240SOL     OW15868   4.724   0.122   5.502
 5240SOL    HW115869   4.780   0.196   5.478
 5240SOL    HW215870   4.723   0.066   5.424
 5241SOL     OW15871   4.197   0.041   5.473
 5241SOL    HW115872   4.210   0.027   5.380
 5241SOL    HW215873   4.149   0.123   5.478
 5242SOL     OW15874   4.308   0.875   4.754
 5242SOL    HW115875   4.337   0.966   4.757
 5242SOL    HW215876   4.251   0.866   4.830
 5243SOL     OW15877   5.077   0.859   4.749
 5243SOL    HW115878   4.992   0.847   4.706
 5243SOL    HW215879   5.120   0.773   4.742
 5244SOL     OW15880   4.919   0.532   3.990
 5244SOL    HW115881   4.938   0.453   4.040
 5244SOL    HW215882   4.876   0.591   4.052
 5245SOL     OW15883   4.016   0.224   4.975
 5245SOL    HW115884   3.976   0.232   5.062
 5245SOL    HW215885   4.013   0.131   4.955
 5246SOL     OW15886   3.766   1.312   5.001
 5246SOL    HW115887   3.801   1.257   5.072
 5246SOL    HW215888   3.774   1.402   5.034
 5247SOL     OW15889   4.446   0.632   4.778
 5247SOL    HW115890   4.523   0.616   4.724
 5247SOL    HW215891   4.419   0.721   4.756
 5248SOL     OW15892   5.462   0.963   5.566
 5248SOL    HW115893   5.411   0.894   5.522
 5248SOL    HW215894   5.409   0.986   5.643
 5249SOL     OW15895   4.041   0.051   4.376
 5249SOL    HW115896   4.031   0.145   4.394
 5249SOL    HW215897   3.954   0.014   4.390
 5250SOL     OW15898   5.342   0.387   4.082
 5250SOL    HW115899   5.367   0.317   4.142
 5250SOL    HW215900   5.315   0.459   4.138
 5251SOL     OW15901   4.757   0.760   4.687
 5251SOL    HW115902   4.750   0.778   4.780
 5251SOL    HW215903   4.729   0.669   4.678
 5252SOL     OW15904   4.703   1.563   5.440
 5252SOL    HW115905   4.689   1.610   5.358
 5252SOL    HW215906   4.752   1.484   5.415
 5253SOL     OW15907   5.571   1.498   5.325
 5253SOL    HW115908   5.594   1.530   5.238
 5253SOL    HW215909   5.648   1.517   5.378
 5254SOL     OW15910   4.080   0.911   5.538
 5254SOL    HW115911   4.165   0.935   5.575
 5254SOL    HW215912   4.101   0.849   5.468
 5255SOL     OW15913   5.208   0.311   3.847
 5255SOL    HW115914   5.154   0.236   3.871
 5255SOL    HW215915   5.271   0.319   3.919
 5256SOL     OW15916   5.030   0.828   3.765
 5256SOL    HW115917   5.073   0.743   3.766
 5256SOL    HW215918   5.058   0.868   3.683
 5257SOL     OW15919   4.792   1.340   4.583
 5257SOL    HW115920   4.796   1.267   4.521
 5257SOL    HW215921   4.853   1.405   4.548
 5258SOL     OW15922   4.029   0.813   4.668
 5258SOL    HW115923   4.123   0.832   4.661
 5258SOL    HW215924   4.026   0.723   4.702
 5259SOL     OW15925   4.066   0.539   4.740
 5259SOL    HW115926   4.017   0.459   4.721
 5259SOL    HW215927   4.140   0.537   4.679
 5260SOL     OW15928   4.856   0.377   5.415
 5260SOL    HW115929   4.811   0.436   5.476
 5260SOL    HW215930   4.945   0.413   5.409
 5261SOL     OW15931   4.859   0.205   5.206
 5261SOL    HW115932   4.851   0.270   5.276
 5261SOL    HW215933   4.873   0.256   5.127
 5262SOL     OW15934   3.818   1.794   4.668
 5262SOL    HW115935   3.786   1.714   4.627
 5262SOL    HW215936   3.907   1.804   4.633
 5263SOL     OW15937   4.221   1.575   4.631
 5263SOL    HW115938   4.290   1.637   4.654
 5263SOL    HW215939   4.263   1.512   4.573
 5264SOL     OW15940   4.702   0.792   4.951
 5264SOL    HW115941   4.759   0.771   5.025
 5264SOL    HW215942   4.618   0.752   4.974
 5265SOL     OW15943   3.757   0.547   4.841
 5265SOL    HW115944   3.826   0.507   4.788
 5265SOL    HW215945   3.792   0.547   4.930
 5266SOL     OW15946   3.921   0.521   5.448
 5266SOL    HW115947   3.983   0.490   5.383
 5266SOL    HW215948   3.878   0.596   5.407
 5267SOL     OW15949   5.102   0.938   5.382
 5267SOL    HW115950   5.123   1.031   5.380
 5267SOL    HW215951   5.097   0.912   5.290
 5268SOL     OW15952   4.542   0.577   4.086
 5268SOL    HW115953   4.551   0.515   4.014
 5268SOL    HW215954   4.450   0.602   4.085
 5269SOL     OW15955   5.369   0.603   4.908
 5269SOL    HW115956   5.362   0.543   4.982
 5269SOL    HW215957   5.455   0.584   4.869
 5270SOL     OW15958   3.965   1.551   5.452
 5270SOL    HW115959   3.941   1.617   5.518
 5270SOL    HW215960   3.968   1.469   5.501
 5271SOL     OW15961   4.424   0.461   4.989
 5271SOL    HW115962   4.363   0.390   4.971
 5271SOL    HW215963   4.418   0.518   4.912
 5272SOL     OW15964   4.649   1.678   5.191
 5272SOL    HW115965   4.624   1.642   5.106
 5272SOL    HW215966   4.643   1.773   5.180
 5273SOL     OW15967   4.198   0.510   3.921
 5273SOL    HW115968   4.249   0.590   3.921
 5273SOL    HW215969   4.107   0.539   3.910
 5274SOL     OW15970   3.867   1.141   5.198
 5274SOL    HW115971   3.870   1.091   5.279
 5274SOL    HW215972   3.883   1.077   5.129
 5275SOL     OW15973   5.049   1.046   4.945
 5275SOL    HW115974   5.071   0.983   4.877
 5275SOL    HW215975   4.980   1.100   4.907
 5276SOL     OW15976   5.004   0.872   4.035
 5276SOL    HW115977   4.954   0.803   4.080
 5276SOL    HW215978   5.005   0.844   3.943
 5277SOL     OW15979   5.498   1.739   4.875
 5277SOL    HW115980   5.559   1.769   4.808
 5277SOL    HW215981   5.474   1.651   4.849
 5278SOL     OW15982   4.965   1.733   4.832
 5278SOL    HW115983   5.048   1.755   4.790
 5278SOL    HW215984   4.972   1.640   4.853
 5279SOL     OW15985   3.807   1.266   4.734
 5279SOL    HW115986   3.790   1.281   4.827
 5279SOL    HW215987   3.735   1.211   4.705
 5280SOL     OW15988   4.401   1.670   5.458
 5280SOL    HW115989   4.344   1.747   5.453
 5280SOL    HW215990   4.466   1.684   5.390
 5281SOL     OW15991   5.434   0.143   4.201
 5281SOL    HW115992   5.526   0.131   4.178
 5281SOL    HW215993   5.420   0.086   4.276
 5282SOL     OW15994   5.098   1.579   4.199
 5282SOL    HW115995   5.171   1.603   4.142
 5282SOL    HW215996   5.075   1.660   4.245
 5283SOL     OW15997   3.863   1.797   5.567
 5283SOL    HW115998   3.811   1.735   5.617
 5283SOL    HW215999   3.915   1.843   5.633
 5284SOL     OW16000   5.000   0.923   4.393
 5284SOL    HW116001   5.075   0.864   4.405
 5284SOL    HW216002   5.035   0.996   4.343
 5285SOL     OW16003   4.533   1.276   5.151
 5285SOL    HW116004   4.506   1.315   5.234
 5285SOL    HW216005   4.463   1.298   5.090
 5286SOL     OW16006   5.348   1.728   5.113
 5286SOL    HW116007   5.397   1.736   5.031
 5286SOL    HW216008   5.334   1.818   5.142
 5287SOL     OW16009   5.581   0.147   4.693
 5287SOL    HW116010   5.604   0.076   4.633
 5287SOL    HW216011   5.496   0.178   4.661
 5288SOL     OW16012   3.985   0.314   4.442
 5288SOL    HW116013   3.903   0.353   4.411
 5288SOL    HW216014   3.978   0.318   4.537
 5289SOL     OW16015   4.961   1.598   3.719
 5289SOL    HW116016   4.916   1.539   3.779
 5289SOL    HW216017   4.891   1.643   3.672
 5290SOL     OW16018   4.547   1.006   5.096
 5290SOL    HW116019   4.592   0.999   5.011
 5290SOL    HW216020   4.546   1.100   5.115
 5291SOL     OW16021   5.221   1.632   3.782
 5291SOL    HW116022   5.129   1.618   3.761
 5291SOL    HW216023   5.264   1.640   3.697
 5292SOL     OW16024   4.092   1.305   5.217
 5292SOL    HW116025   4.080   1.382   5.160
 5292SOL    HW216026   4.017   1.250   5.199
 5293SOL     OW16027   5.334   1.284   5.005
 5293SOL    HW116028   5.393   1.270   5.080
 5293SOL    HW216029   5.273   1.351   5.035
 5294SOL     OW16030   4.778   1.114   4.435
 5294SOL    HW116031   4.708   1.062   4.474
 5294SOL    HW216032   4.834   1.050   4.390
 5295SOL     OW16033   4.783   0.241   4.672
 5295SOL    HW116034   4.771   0.180   4.599
 5295SOL    HW216035   4.710   0.222   4.731
 5296SOL     OW16036   4.326   1.462   4.197
 5296SOL    HW116037   4.412   1.477   4.157
 5296SOL    HW216038   4.281   1.546   4.190
 5297SOL     OW16039   5.449   0.405   5.100
 5297SOL    HW116040   5.529   0.458   5.094
 5297SOL    HW216041   5.469   0.325   5.051
 5298SOL     OW16042   3.842   1.029   5.448
 5298SOL    HW116043   3.763   1.003   5.495
 5298SOL    HW216044   3.913   0.985   5.495
 5299SOL     OW16045   4.391   0.230   5.222
 5299SOL    HW116046   4.459   0.176   5.182
 5299SOL    HW216047   4.418   0.239   5.313
 5300SOL     OW16048   3.809   0.333   3.766
 5300SOL    HW116049   3.715   0.320   3.752
 5300SOL    HW216050   3.831   0.408   3.711
 5301SOL     OW16051   5.154   0.859   5.123
 5301SOL    HW116052   5.104   0.920   5.068
 5301SOL    HW216053   5.242   0.860   5.086
 5302SOL     OW16054   3.816   0.162   4.066
 5302SOL    HW116055   3.810   0.238   4.009
 5302SOL    HW216056   3.893   0.115   4.035
 5303SOL     OW16057   4.345   0.829   5.160
 5303SOL    HW116058   4.400   0.906   5.143
 5303SOL    HW216059   4.407   0.757   5.170
 5304SOL     OW16060   5.209   1.779   4.701
 5304SOL    HW116061   5.233   1.845   4.636
 5304SOL    HW216062   5.291   1.758   4.745
 5305SOL     OW16063   4.441   0.567   5.433
 5305SOL    HW116064   4.484   0.630   5.491
 5305SOL    HW216065   4.468   0.481   5.467
 5306SOL     OW16066   5.198   1.198   5.353
 5306SOL    HW116067   5.184   1.214   5.446
 5306SOL    HW216068   5.292   1.215   5.340
 5307SOL     OW16069   4.098   1.736   5.285
 5307SOL    HW116070   4.014   1.780   5.270
 5307SOL    HW216071   4.074   1.655   5.330
 5308SOL     OW16072   5.394   0.881   4.979
 5308SOL    HW116073   5.387   0.795   4.937
 5308SOL    HW216074   5.382   0.943   4.907
 5309SOL     OW16075   4.956   0.324   4.176
 5309SOL    HW116076   5.022   0.256   4.168
 5309SOL    HW216077   4.982   0.374   4.254
 5310SOL     OW16078   4.316   0.732   4.390
 5310SOL    HW116079   4.352   0.820   4.380
 5310SOL    HW216080   4.247   0.727   4.323
 5311SOL     OW16081   5.485   0.368   5.371
 5311SOL    HW116082   5.465   0.380   5.279
 5311SOL    HW216083   5.418   0.308   5.403
 5312SOL     OW16084   5.478   0.933   5.236
 5312SOL    HW116085   5.463   1.026   5.253
 5312SOL    HW216086   5.457   0.922   5.143
 5313SOL     OW16087   4.391   1.790   4.666
 5313SOL    HW116088   4.364   1.879   4.643
 5313SOL    HW216089   4.486   1.792   4.659
 5314SOL     OW16090   4.597   0.969   4.585
 5314SOL    HW116091   4.647   0.897   4.622
 5314SOL    HW216092   4.561   1.015   4.661
 5315SOL     OW16093   4.786   0.940   3.791
 5315SOL    HW116094   4.793   1.035   3.781
 5315SOL    HW216095   4.876   0.909   3.784
 5316SOL     OW16096   5.570   1.557   4.569
 5316SOL    HW116097   5.495   1.539   4.512
 5316SOL    HW216098   5.566   1.489   4.636
 5317SOL     OW16099   3.941   1.299   5.582
 5317SOL    HW116100   3.892   1.231   5.537
 5317SOL    HW216101   3.888   1.321   5.659
 5318SOL     OW16102   3.803   1.221   4.378
 5318SOL    HW116103   3.841   1.181   4.456
 5318SOL    HW216104   3.864   1.197   4.308
 5319SOL     OW16105   4.406   1.405   5.356
 5319SOL    HW116106   4.325   1.364   5.385
 5319SOL    HW216107   4.402   1.494   5.391
 5320SOL     OW16108   5.537   0.185   4.963
 5320SOL    HW116109   5.538   0.093   4.992
 5320SOL    HW216110   5.558   0.182   4.870
 5321SOL     OW16111   4.164   0.432   4.257
 5321SOL    HW116112   4.184   0.360   4.197
 5321SOL    HW216113   4.108   0.392   4.323
 5322SOL     OW16114   5.424   1.484   4.819
 5322SOL    HW116115   5.344   1.464   4.770
 5322SOL    HW216116   5.430   1.415   4.885
 5323SOL     OW16117   4.059   0.558   5.018
 5323SOL    HW116118   4.111   0.498   5.071
 5323SOL    HW216119   4.076   0.531   4.928
 5324SOL     OW16120   5.159   0.224   4.846
 5324SOL    HW116121   5.201   0.163   4.907
 5324SOL    HW216122   5.097   0.273   4.901
 5325SOL     OW16123   4.743   0.008   4.888
 5325SOL    HW116124   4.683   5.964   4.828
 5325SOL    HW216125   4.822   0.025   4.836
 5326SOL     OW16126   4.344   1.554   5.010
 5326SOL    HW116127   4.346   1.636   5.060
 5326SOL    HW216128   4.431   1.548   4.971
 5327SOL     OW16129   5.065   0.069   3.882
 5327SOL    HW116130   5.125   5.996   3.866
 5327SOL    HW216131   4.984   0.029   3.912
 5328SOL     OW16132   5.020   0.465   4.402
 5328SOL    HW116133   4.965   0.543   4.411
 5328SOL    HW216134   5.024   0.430   4.491
 5329SOL     OW16135   5.328   0.226   4.618
 5329SOL    HW116136   5.264   0.234   4.689
 5329SOL    HW216137   5.319   0.307   4.568
 5330SOL     OW16138   3.945   0.612   5.716
 5330SOL    HW116139   3.855   0.631   5.745
 5330SOL    HW216140   3.937   0.597   5.622
 5331SOL     OW16141   5.506   0.596   5.813
 5331SOL    HW116142   5.477   0.591   5.721
 5331SOL    HW216143   5.453   0.530   5.857
 5332SOL     OW16144   3.959   1.729   0.041
 5332SOL    HW116145   3.971   1.799   0.105
 5332SOL    HW216146   4.043   1.724   5.995
 5333SOL     OW16147   4.329   0.980   5.724
 5333SOL    HW116148   4.359   1.037   5.654
 5333SOL    HW216149   4.400   0.979   5.788
 5334SOL     OW16150   5.527   1.769   5.918
 5334SOL    HW116151   5.562   1.711   5.986
 5334SOL    HW216152   5.598   1.832   5.903
 5335SOL     OW16153   3.757   1.598   5.713
 5335SOL    HW116154   3.737   1.506   5.735
 5335SOL    HW216155   3.718   1.648   5.784
 5336SOL     OW16156   5.424   0.881   0.174
 5336SOL    HW116157   5.510   0.912   0.203
 5336SOL    HW216158   5.398   0.943   0.106
 5337SOL     OW16159   5.395   1.093   6.000
 5337SOL    HW116160   5.483   1.108   5.965
 5337SOL    HW216161   5.371   1.177   0.039
 5338SOL     OW16162   5.269   1.003   5.769
 5338SOL    HW116163   5.216   0.925   5.786
 5338SOL    HW216164   5.302   1.028   5.855
 5339SOL     OW16165   4.303   0.728   5.850
 5339SOL    HW116166   4.320   0.802   5.792
 5339SOL    HW216167   4.272   0.768   5.932
 5340SOL     OW16168   4.571   0.372   5.724
 5340SOL    HW116169   4.649   0.419   5.692
 5340SOL    HW216170   4.607   0.303   5.780
 5341SOL     OW16171   4.052   0.957   5.832
 5341SOL    HW116172   4.135   0.968   5.785
 5341SOL    HW216173   4.012   0.879   5.793
 5342SOL     OW16174   4.840   1.773   5.821
 5342SOL    HW116175   4.756   1.736   5.846
 5342SOL    HW216176   4.866   1.723   5.743
 5343SOL     OW16177   5.351   1.383   5.672
 5343SOL    HW116178   5.312   1.470   5.663
 5343SOL    HW216179   5.280   1.323   5.653
 5344SOL     OW16180   4.205   1.758   5.915
 5344SOL    HW116181   4.254   1.813   5.977
 5344SOL    HW216182   4.271   1.726   5.854
 5345SOL     OW16183   4.342   0.085   5.697
 5345SOL    HW116184   4.431   0.051   5.686
 5345SOL    HW216185   4.303   0.076   5.610
 5346SOL     OW16186   5.147   1.203   5.623
 5346SOL    HW116187   5.186   1.132   5.674
 5346SOL    HW216188   5.064   1.221   5.666
 5347SOL     OW16189   4.042   0.035   5.766
 5347SOL    HW116190   4.104   0.084   5.712
 5347SOL    HW216191   4.096   5.968   5.809
 5348SOL     OW16192   4.755   0.548   5.607
 5348SOL    HW116193   4.709   0.631   5.594
 5348SOL    HW216194   4.817   0.565   5.677
 5349SOL     OW16195   5.611   0.819   5.935
 5349SOL    HW116196   5.659   0.775   0.005
 5349SOL    HW216197   5.561   0.748   5.893
 5350SOL     OW16198   4.212   1.415   5.743
 5350SOL    HW116199   4.140   1.388   5.800
 5350SOL    HW216200   4.195   1.371   5.659
 5351SOL     OW16201   5.427   1.299   0.298
 5351SOL    HW116202   5.505   1.259   0.259
 5351SOL    HW216203   5.381   1.338   0.224
 5352SOL     OW16204   5.130   0.581   5.652
 5352SOL    HW116205   5.059   0.565   5.715
 5352SOL    HW216206   5.197   0.516   5.675
 5353SOL     OW16207   4.258   0.253   5.894
 5353SOL    HW116208   4.270   0.206   5.812
 5353SOL    HW216209   4.239   0.343   5.869
 5354SOL     OW16210   4.109   1.118   0.042
 5354SOL    HW116211   4.061   1.196   0.017
 5354SOL    HW216212   4.087   1.054   5.975
 5355SOL     OW16213   4.931   0.526   5.828
 5355SOL    HW116214   4.971   0.450   5.871
 5355SOL    HW216215   4.876   0.565   5.896
 5356SOL     OW16216   5.216   0.314   5.709
 5356SOL    HW116217   5.151   0.246   5.728
 5356SOL    HW216218   5.294   0.286   5.756
 5357SOL     OW16219   5.034   0.841   5.632
 5357SOL    HW116220   5.070   0.752   5.634
 5357SOL    HW216221   5.057   0.873   5.545
 5358SOL     OW16222   3.742   1.321   5.775
 5358SOL    HW116223   3.652   1.336   5.744
 5358SOL    HW216224   3.741   1.232   5.809
 5359SOL     OW16225   4.541   0.598   5.899
 5359SOL    HW116226   4.532   0.518   5.848
 5359SOL    HW216227   4.456   0.641   5.890
 5360SOL     OW16228   4.183   0.489   5.780
 5360SOL    HW116229   4.238   0.565   5.800
 5360SOL    HW216230   4.097   0.526   5.761
 5361SOL     OW16231   5.453   0.124   0.064
 5361SOL    HW116232   5.538   0.080   0.066
 5361SOL    HW216233   5.403   0.082   0.134
 5362SOL     OW16234   4.400   1.614   5.743
 5362SOL    HW116235   4.405   1.634   5.649
 5362SOL    HW216236   4.336   1.543   5.749
 5363SOL     OW16237   4.923   1.607   5.617
 5363SOL    HW116238   4.917   1.514   5.641
 5363SOL    HW216239   4.861   1.618   5.546
 5364SOL     OW16240   4.594   0.915   5.831
 5364SOL    HW116241   4.675   0.946   5.790
 5364SOL    HW216242   4.622   0.845   5.890
 5365SOL     OW16243   5.205   1.623   5.626
 5365SOL    HW116244   5.111   1.619   5.608
 5365SOL    HW216245   5.246   1.631   5.540
 5366SOL     OW16246   4.757   1.154   0.298
 5366SOL    HW116247   4.709   1.093   0.354
 5366SOL    HW216248   4.804   1.098   0.237
 5367SOL     OW16249   3.988   1.357   5.916
 5367SOL    HW116250   3.902   1.342   5.875
 5367SOL    HW216251   3.975   1.436   5.969
 5368SOL     OW16252   3.802   0.328   5.609
 5368SOL    HW116253   3.707   0.331   5.602
 5368SOL    HW216254   3.832   0.406   5.563
 5369SOL     OW16255   3.858   0.176   5.906
 5369SOL    HW116256   3.790   0.203   5.844
 5369SOL    HW216257   3.917   0.122   5.854
 5370SOL     OW16258   4.895   1.339   5.706
 5370SOL    HW116259   4.804   1.311   5.703
 5370SOL    HW216260   4.920   1.331   5.798
 5371SOL     OW16261   4.987   0.332   0.016
 5371SOL    HW116262   5.027   0.253   0.053
 5371SOL    HW216263   4.995   0.397   0.086
 5372SOL     OW16264   4.588   1.375   5.623
 5372SOL    HW116265   4.547   1.421   5.696
 5372SOL    HW216266   4.611   1.444   5.561
 5373SOL     OW16267   4.811   0.994   5.686
 5373SOL    HW116268   4.791   1.038   5.603
 5373SOL    HW216269   4.888   0.941   5.666
 5374SOL     OW16270   5.070   0.075   5.715
 5374SOL    HW116271   5.129   5.999   5.713
 5374SOL    HW216272   5.004   0.052   5.780
 5375SOL     OW16273   3.792   1.075   5.881
 5375SOL    HW116274   3.885   1.061   5.863
 5375SOL    HW216275   3.758   0.987   5.898
 5376SOL     OW16276   4.607   1.653   5.924
 5376SOL    HW116277   4.537   1.642   5.860
 5376SOL    HW216278   4.574   1.719   5.985
 5377SOL     OW16279   3.943   2.497   0.131
 5377SOL    HW116280   3.862   2.466   0.171
 5377SOL    HW216281   3.937   2.469   0.040
 5378SOL     OW16282   3.950   2.143   0.993
 5378SOL    HW116283   3.977   2.108   1.078
 5378SOL    HW216284   3.860   2.112   0.982
 5379SOL     OW16285   3.726   2.247   0.639
 5379SOL    HW116286   3.642   2.269   0.680
 5379SOL    HW216287   3.707   2.169   0.586
 5380SOL     OW16288   4.289   3.157   1.179
 5380SOL    HW116289   4.204   3.163   1.136
 5380SOL    HW216290   4.308   3.246   1.209
 5381SOL     OW16291   5.288   3.376   0.708
 5381SOL    HW116292   5.245   3.354   0.790
 5381SOL    HW216293   5.217   3.380   0.644
 5382SOL     OW16294   4.854   2.560   0.698
 5382SOL    HW116295   4.904   2.641   0.686
 5382SOL    HW216296   4.808   2.572   0.780
 5383SOL     OW16297   5.506   2.457   0.250
 5383SOL    HW116298   5.469   2.466   0.162
 5383SOL    HW216299   5.466   2.377   0.284
 5384SOL     OW16300   4.475   3.002   1.045
 5384SOL    HW116301   4.408   3.038   1.102
 5384SOL    HW216302   4.512   3.078   1.000
 5385SOL     OW16303   4.619   2.668   1.823
 5385SOL    HW116304   4.624   2.748   1.875
 5385SOL    HW216305   4.638   2.698   1.733
 5386SOL     OW16306   4.410   2.863   0.646
 5386SOL    HW116307   4.476   2.852   0.715
 5386SOL    HW216308   4.341   2.915   0.687
 5387SOL     OW16309   4.420   3.029   1.711
 5387SOL    HW116310   4.456   3.035   1.800
 5387SOL    HW216311   4.326   3.015   1.724
 5388SOL     OW16312   4.052   3.284   1.069
 5388SOL    HW116313   3.979   3.245   1.020
 5388SOL    HW216314   4.101   3.334   1.003
 5389SOL     OW16315   5.185   3.363   1.358
 5389SOL    HW116316   5.237   3.442   1.366
 5389SOL    HW216317   5.116   3.373   1.423
 5390SOL     OW16318   4.182   2.256   1.484
 5390SOL    HW116319   4.254   2.193   1.494
 5390SOL    HW216320   4.103   2.205   1.504
 5391SOL     OW16321   5.332   2.306   0.741
 5391SOL    HW116322   5.261   2.330   0.682
 5391SOL    HW216323   5.353   2.387   0.788
 5392SOL     OW16324   3.943   3.574   0.474
 5392SOL    HW116325   3.963   3.652   0.526
 5392SOL    HW216326   4.019   3.563   0.417
 5393SOL     OW16327   4.869   3.211   1.691
 5393SOL    HW116328   4.937   3.190   1.754
 5393SOL    HW216329   4.819   3.130   1.682
 5394SOL     OW16330   3.950   3.302   0.532
 5394SOL    HW116331   3.933   3.396   0.539
 5394SOL    HW216332   3.894   3.262   0.599
 5395SOL     OW16333   3.984   2.950   0.893
 5395SOL    HW116334   3.981   2.863   0.931
 5395SOL    HW216335   3.925   3.002   0.947
 5396SOL     OW16336   4.336   3.660   1.422
 5396SOL    HW116337   4.259   3.644   1.477
 5396SOL    HW216338   4.368   3.746   1.450
 5397SOL     OW16339   4.334   2.825   0.132
 5397SOL    HW116340   4.286   2.896   0.088
 5397SOL    HW216341   4.374   2.866   0.208
 5398SOL     OW16342   5.319   1.988   1.466
 5398SOL    HW116343   5.329   2.069   1.417
 5398SOL    HW216344   5.303   2.016   1.556
 5399SOL     OW16345   3.850   2.504   0.568
 5399SOL    HW116346   3.811   2.419   0.586
 5399SOL    HW216347   3.836   2.554   0.649
 5400SOL     OW16348   5.571   3.623   0.335
 5400SOL    HW116349   5.635   3.594   0.400
 5400SOL    HW216350   5.587   3.717   0.325
 5401SOL     OW16351   3.698   3.447   0.126
 5401SOL    HW116352   3.721   3.359   0.157
 5401SOL    HW216353   3.722   3.504   0.199
 5402SOL     OW16354   5.421   2.763   0.654
 5402SOL    HW116355   5.501   2.718   0.627
 5402SOL    HW216356   5.395   2.815   0.578
 5403SOL     OW16357   5.363   2.951   0.461
 5403SOL    HW116358   5.395   3.007   0.391
 5403SOL    HW216359   5.366   3.006   0.539
 5404SOL     OW16360   3.833   2.594   1.594
 5404SOL    HW116361   3.911   2.624   1.640
 5404SOL    HW216362   3.782   2.673   1.579
 5405SOL     OW16363   4.339   3.250   0.734
 5405SOL    HW116364   4.294   3.166   0.744
 5405SOL    HW216365   4.322   3.276   0.644
 5406SOL     OW16366   5.012   3.097   1.425
 5406SOL    HW116367   5.042   3.032   1.362
 5406SOL    HW216368   5.075   3.093   1.497
 5407SOL     OW16369   4.544   1.864   0.514
 5407SOL    HW116370   4.584   1.949   0.491
 5407SOL    HW216371   4.451   1.884   0.523
 5408SOL     OW16372   3.909   2.827   1.268
 5408SOL    HW116373   3.995   2.786   1.256
 5408SOL    HW216374   3.850   2.773   1.215
 5409SOL     OW16375   5.183   2.902   0.229
 5409SOL    HW116376   5.130   2.828   0.258
 5409SOL    HW216377   5.268   2.890   0.273
 5410SOL     OW16378   4.915   3.664   1.617
 5410SOL    HW116379   4.918   3.728   1.547
 5410SOL    HW216380   4.928   3.580   1.574
 5411SOL     OW16381   5.191   3.281   0.950
 5411SOL    HW116382   5.123   3.296   1.015
 5411SOL    HW216383   5.179   3.190   0.924
 5412SOL     OW16384   5.382   3.605   0.579
 5412SOL    HW116385   5.363   3.575   0.490
 5412SOL    HW216386   5.359   3.531   0.635
 5413SOL     OW16387   4.321   2.582   0.269
 5413SOL    HW116388   4.332   2.663   0.220
 5413SOL    HW216389   4.256   2.603   0.336
 5414SOL     OW16390   5.003   2.221   0.935
 5414SOL    HW116391   4.914   2.187   0.943
 5414SOL    HW216392   5.055   2.165   0.994
 5415SOL     OW16393   5.307   3.534   0.311
 5415SOL    HW116394   5.400   3.555   0.305
 5415SOL    HW216395   5.280   3.514   0.221
 5416SOL     OW16396   4.506   2.469   1.477
 5416SOL    HW116397   4.493   2.425   1.561
 5416SOL    HW216398   4.473   2.407   1.412
 5417SOL     OW16399   5.123   2.338   1.677
 5417SOL    HW116400   5.126   2.380   1.763
 5417SOL    HW216401   5.177   2.259   1.687
 5418SOL     OW16402   4.687   2.749   1.572
 5418SOL    HW116403   4.734   2.674   1.535
 5418SOL    HW216404   4.634   2.783   1.499
 5419SOL     OW16405   4.715   2.273   1.236
 5419SOL    HW116406   4.627   2.291   1.268
 5419SOL    HW216407   4.702   2.228   1.152
 5420SOL     OW16408   4.778   2.556   0.427
 5420SOL    HW116409   4.796   2.553   0.521
 5420SOL    HW216410   4.696   2.509   0.417
 5421SOL     OW16411   3.813   2.682   0.778
 5421SOL    HW116412   3.895   2.676   0.828
 5421SOL    HW216413   3.770   2.760   0.812
 5422SOL     OW16414   3.843   3.667   1.558
 5422SOL    HW116415   3.833   3.664   1.653
 5422SOL    HW216416   3.774   3.727   1.529
 5423SOL     OW16417   4.612   2.212   0.203
 5423SOL    HW116418   4.666   2.264   0.143
 5423SOL    HW216419   4.609   2.125   0.162
 5424SOL     OW16420   5.432   2.437   1.827
 5424SOL    HW116421   5.393   2.508   1.775
 5424SOL    HW216422   5.458   2.372   1.762
 5425SOL     OW16423   5.098   3.004   0.540
 5425SOL    HW116424   5.175   2.983   0.488
 5425SOL    HW216425   5.049   3.067   0.487
 5426SOL     OW16426   4.274   2.043   0.894
 5426SOL    HW116427   4.276   2.072   0.985
 5426SOL    HW216428   4.274   2.123   0.843
 5427SOL     OW16429   4.735   3.312   0.476
 5427SOL    HW116430   4.694   3.381   0.424
 5427SOL    HW216431   4.707   3.330   0.566
 5428SOL     OW16432   4.081   3.674   0.866
 5428SOL    HW116433   4.125   3.589   0.873
 5428SOL    HW216434   4.149   3.738   0.884
 5429SOL     OW16435   5.533   2.917   0.869
 5429SOL    HW116436   5.479   2.896   0.792
 5429SOL    HW216437   5.470   2.923   0.941
 5430SOL     OW16438   4.952   3.403   1.506
 5430SOL    HW116439   4.937   3.332   1.568
 5430SOL    HW216440   4.880   3.396   1.444
 5431SOL     OW16441   4.034   2.810   0.261
 5431SOL    HW116442   4.083   2.852   0.190
 5431SOL    HW216443   4.025   2.719   0.233
 5432SOL     OW16444   5.201   2.607   0.727
 5432SOL    HW116445   5.198   2.564   0.812
 5432SOL    HW216446   5.282   2.657   0.728
 5433SOL     OW16447   4.146   3.062   1.729
 5433SOL    HW116448   4.133   3.092   1.639
 5433SOL    HW216449   4.114   3.133   1.784
 5434SOL     OW16450   4.831   3.642   0.220
 5434SOL    HW116451   4.775   3.593   0.279
 5434SOL    HW216452   4.874   3.575   0.167
 5435SOL     OW16453   3.922   2.145   1.506
 5435SOL    HW116454   3.851   2.208   1.487
 5435SOL    HW216455   3.910   2.122   1.598
 5436SOL     OW16456   5.338   3.233   0.050
 5436SOL    HW116457   5.324   3.327   0.043
 5436SOL    HW216458   5.255   3.194   0.021
 5437SOL     OW16459   4.190   3.597   0.333
 5437SOL    HW116460   4.236   3.653   0.395
 5437SOL    HW216461   4.256   3.577   0.266
 5438SOL     OW16462   5.129   1.970   0.434
 5438SOL    HW116463   5.125   1.948   0.340
 5438SOL    HW216464   5.222   1.980   0.452
 5439SOL     OW16465   3.977   3.652   1.227
 5439SOL    HW116466   4.034   3.587   1.269
 5439SOL    HW216467   3.969   3.622   1.137
 5440SOL     OW16468   4.662   3.560   0.900
 5440SOL    HW116469   4.742   3.511   0.919
 5440SOL    HW216470   4.619   3.510   0.831
 5441SOL     OW16471   4.118   2.556   0.475
 5441SOL    HW116472   4.141   2.463   0.486
 5441SOL    HW216473   4.025   2.561   0.497
 5442SOL     OW16474   5.254   2.086   1.722
 5442SOL    HW116475   5.264   2.106   1.815
 5442SOL    HW216476   5.183   2.022   1.719
 5443SOL     OW16477   4.343   1.944   0.105
 5443SOL    HW116478   4.439   1.951   0.106
 5443SOL    HW216479   4.315   2.010   0.041
 5444SOL     OW16480   4.600   3.384   1.192
 5444SOL    HW116481   4.585   3.347   1.105
 5444SOL    HW216482   4.672   3.331   1.228
 5445SOL     OW16483   5.066   2.451   1.431
 5445SOL    HW116484   5.098   2.420   1.516
 5445SOL    HW216485   5.103   2.539   1.423
 5446SOL     OW16486   4.540   3.255   0.942
 5446SOL    HW116487   4.625   3.244   0.899
 5446SOL    HW216488   4.477   3.259   0.870
 5447SOL     OW16489   4.652   2.371   0.902
 5447SOL    HW116490   4.628   2.363   0.809
 5447SOL    HW216491   4.682   2.283   0.926
 5448SOL     OW16492   4.278   1.929   0.507
 5448SOL    HW116493   4.197   1.927   0.559
 5448SOL    HW216494   4.268   2.005   0.450
 5449SOL     OW16495   5.114   3.074   0.024
 5449SOL    HW116496   5.144   3.009   0.088
 5449SOL    HW216497   5.038   3.114   0.064
 5450SOL     OW16498   4.665   2.110   0.458
 5450SOL    HW116499   4.640   2.151   0.375
 5450SOL    HW216500   4.759   2.124   0.465
 5451SOL     OW16501   4.802   2.533   1.454
 5451SOL    HW116502   4.739   2.462   1.468
 5451SOL    HW216503   4.887   2.489   1.450
 5452SOL     OW16504   4.944   3.436   0.797
 5452SOL    HW116505   4.960   3.498   0.727
 5452SOL    HW216506   5.016   3.450   0.859
 5453SOL     OW16507   4.194   3.014   0.732
 5453SOL    HW116508   4.126   2.993   0.796
 5453SOL    HW216509   4.152   2.997   0.647
 5454SOL     OW16510   4.990   3.658   0.609
 5454SOL    HW116511   5.038   3.720   0.555
 5454SOL    HW216512   4.923   3.712   0.652
 5455SOL     OW16513   4.759   2.404   0.055
 5455SOL    HW116514   4.680   2.442   0.016
 5455SOL    HW216515   4.780   2.462   0.129
 5456SOL     OW16516   3.806   2.407   1.396
 5456SOL    HW116517   3.897   2.410   1.367
 5456SOL    HW216518   3.800   2.470   1.467
 5457SOL     OW16519   4.283   2.090   1.170
 5457SOL    HW116520   4.325   2.015   1.212
 5457SOL    HW216521   4.193   2.087   1.200
 5458SOL     OW16522   4.591   2.321   0.637
 5458SOL    HW116523   4.545   2.375   0.573
 5458SOL    HW216524   4.613   2.241   0.589
 5459SOL     OW16525   4.740   1.915   0.748
 5459SOL    HW116526   4.681   1.907   0.674
 5459SOL    HW216527   4.719   1.841   0.804
 5460SOL     OW16528   5.163   3.021   0.859
 5460SOL    HW116529   5.092   2.958   0.850
 5460SOL    HW216530   5.194   3.035   0.769
 5461SOL     OW16531   5.188   2.468   0.975
 5461SOL    HW116532   5.137   2.388   0.975
 5461SOL    HW216533   5.247   2.460   1.050
 5462SOL     OW16534   5.602   2.678   0.395
 5462SOL    HW116535   5.650   2.617   0.451
 5462SOL    HW216536   5.555   2.621   0.334
 5463SOL     OW16537   4.209   3.277   0.161
 5463SOL    HW116538   4.132   3.250   0.211
 5463SOL    HW216539   4.203   3.227   0.079
 5464SOL     OW16540   5.390   3.121   0.670
 5464SOL    HW116541   5.486   3.129   0.663
 5464SOL    HW216542   5.360   3.212   0.670
 5465SOL     OW16543   5.132   2.436   0.094
 5465SOL    HW116544   5.071   2.426   0.167
 5465SOL    HW216545   5.178   2.353   0.089
 5466SOL     OW16546   4.234   2.114   0.308
 5466SOL    HW116547   4.284   2.065   0.242
 5466SOL    HW216548   4.221   2.200   0.269
 5467SOL     OW16549   5.477   3.099   1.569
 5467SOL    HW116550   5.565   3.064   1.553
 5467SOL    HW216551   5.491   3.189   1.596
 5468SOL     OW16552   4.783   3.217   1.330
 5468SOL    HW116553   4.707   3.185   1.379
 5468SOL    HW216554   4.858   3.176   1.373
 5469SOL     OW16555   5.333   3.487   1.654
 5469SOL    HW116556   5.325   3.522   1.565
 5469SOL    HW216557   5.415   3.438   1.653
 5470SOL     OW16558   4.854   3.067   1.103
 5470SOL    HW116559   4.794   3.106   1.167
 5470SOL    HW216560   4.825   3.101   1.019
 5471SOL     OW16561   5.352   2.958   1.074
 5471SOL    HW116562   5.343   3.021   1.146
 5471SOL    HW216563   5.276   2.975   1.018
 5472SOL     OW16564   4.640   1.958   1.397
 5472SOL    HW116565   4.661   1.938   1.305
 5472SOL    HW216566   4.721   1.996   1.431
 5473SOL     OW16567   4.726   2.979   1.710
 5473SOL    HW116568   4.634   2.996   1.730
 5473SOL    HW216569   4.725   2.904   1.650
 5474SOL     OW16570   4.435   2.926   0.374
 5474SOL    HW116571   4.416   2.911   0.467
 5474SOL    HW216572   4.503   2.863   0.352
 5475SOL     OW16573   4.141   2.679   1.254
 5475SOL    HW116574   4.210   2.688   1.320
 5475SOL    HW216575   4.108   2.590   1.265
 5476SOL     OW16576   4.988   2.237   1.277
 5476SOL    HW116577   5.021   2.315   1.322
 5476SOL    HW216578   4.897   2.259   1.255
 5477SOL     OW16579   3.794   3.433   1.350
 5477SOL    HW116580   3.758   3.509   1.303
 5477SOL    HW216581   3.889   3.446   1.346
 5478SOL     OW16582   4.069   2.972   0.490
 5478SOL    HW116583   4.081   3.043   0.427
 5478SOL    HW216584   4.065   2.893   0.436
 5479SOL     OW16585   4.277   2.395   0.859
 5479SOL    HW116586   4.291   2.454   0.785
 5479SOL    HW216587   4.343   2.422   0.923
 5480SOL     OW16588   4.980   3.213   0.394
 5480SOL    HW116589   5.029   3.287   0.429
 5480SOL    HW216590   4.890   3.227   0.424
 5481SOL     OW16591   5.007   3.321   1.148
 5481SOL    HW116592   5.062   3.323   1.226
 5481SOL    HW216593   4.949   3.245   1.162
 5482SOL     OW16594   5.303   2.485   0.482
 5482SOL    HW116595   5.254   2.541   0.543
 5482SOL    HW216596   5.336   2.544   0.415
 5483SOL     OW16597   4.075   3.395   1.315
 5483SOL    HW116598   4.058   3.352   1.231
 5483SOL    HW216599   4.170   3.407   1.317
 5484SOL     OW16600   5.327   2.643   1.681
 5484SOL    HW116601   5.240   2.682   1.671
 5484SOL    HW216602   5.380   2.684   1.611
 5485SOL     OW16603   4.773   1.974   1.790
 5485SOL    HW116604   4.758   2.048   1.731
 5485SOL    HW216605   4.811   1.906   1.734
 5486SOL     OW16606   4.306   2.737   1.032
 5486SOL    HW116607   4.340   2.826   1.033
 5486SOL    HW216608   4.252   2.730   1.110
 5487SOL     OW16609   5.078   2.719   1.028
 5487SOL    HW116610   4.996   2.711   0.980
 5487SOL    HW216611   5.121   2.634   1.019
 5488SOL     OW16612   4.940   2.383   0.283
 5488SOL    HW116613   4.944   2.304   0.337
 5488SOL    HW216614   4.898   2.448   0.339
 5489SOL     OW16615   4.020   2.060   1.251
 5489SOL    HW116616   3.985   2.091   1.334
 5489SOL    HW216617   4.002   1.966   1.250
 5490SOL     OW16618   3.762   3.172   1.278
 5490SOL    HW116619   3.798   3.120   1.349
 5490SOL    HW216620   3.773   3.263   1.306
 5491SOL     OW16621   4.448   2.495   1.056
 5491SOL    HW116622   4.523   2.480   0.999
 5491SOL    HW216623   4.419   2.583   1.034
 5492SOL     OW16624   5.462   2.824   1.845
 5492SOL    HW116625   5.415   2.757   1.796
 5492SOL    HW216626   5.404   2.844   1.919
 5493SOL     OW16627   4.028   1.926   0.623
 5493SOL    HW116628   4.006   2.017   0.644
 5493SOL    HW216629   4.035   1.882   0.708
 5494SOL     OW16630   5.349   2.240   0.366
 5494SOL    HW116631   5.369   2.172   0.431
 5494SOL    HW216632   5.324   2.316   0.418
 5495SOL     OW16633   4.754   2.620   0.959
 5495SOL    HW116634   4.750   2.638   1.052
 5495SOL    HW216635   4.728   2.528   0.951
 5496SOL     OW16636   4.694   3.420   1.721
 5496SOL    HW116637   4.678   3.471   1.641
 5496SOL    HW216638   4.751   3.349   1.693
 5497SOL     OW16639   5.573   3.359   1.601
 5497SOL    HW116640   5.594   3.391   1.513
 5497SOL    HW216641   5.651   3.378   1.653
 5498SOL     OW16642   5.220   2.173   0.130
 5498SOL    HW116643   5.212   2.078   0.135
 5498SOL    HW216644   5.273   2.197   0.206
 5499SOL     OW16645   5.016   2.674   0.025
 5499SOL    HW116646   5.064   2.594   0.045
 5499SOL    HW216647   5.064   2.713   5.952
 5500SOL     OW16648   4.793   3.199   0.856
 5500SOL    HW116649   4.795   3.128   0.792
 5500SOL    HW216650   4.851   3.265   0.821
 5501SOL     OW16651   4.033   2.672   0.949
 5501SOL    HW116652   4.126   2.693   0.944
 5501SOL    HW216653   4.030   2.581   0.980
 5502SOL     OW16654   4.052   2.392   1.011
 5502SOL    HW116655   4.018   2.303   0.998
 5502SOL    HW216656   4.130   2.396   0.955
 5503SOL     OW16657   4.858   2.250   1.665
 5503SOL    HW116658   4.812   2.295   1.736
 5503SOL    HW216659   4.947   2.283   1.668
 5504SOL     OW16660   4.887   2.058   1.470
 5504SOL    HW116661   4.874   2.123   1.540
 5504SOL    HW216662   4.926   2.108   1.398
 5505SOL     OW16663   3.816   3.647   0.940
 5505SOL    HW116664   3.785   3.568   0.894
 5505SOL    HW216665   3.905   3.660   0.908
 5506SOL     OW16666   4.219   3.435   0.907
 5506SOL    HW116667   4.288   3.497   0.931
 5506SOL    HW216668   4.263   3.373   0.848
 5507SOL     OW16669   4.705   2.653   1.225
 5507SOL    HW116670   4.760   2.624   1.298
 5507SOL    HW216671   4.618   2.618   1.246
 5508SOL     OW16672   3.762   2.409   1.116
 5508SOL    HW116673   3.843   2.399   1.066
 5508SOL    HW216674   3.790   2.407   1.207
 5509SOL     OW16675   5.100   2.800   1.656
 5509SOL    HW116676   5.122   2.894   1.652
 5509SOL    HW216677   5.095   2.773   1.565
 5510SOL     OW16678   4.541   2.434   0.363
 5510SOL    HW116679   4.544   2.358   0.304
 5510SOL    HW216680   4.466   2.484   0.334
 5511SOL     OW16681   5.368   2.466   1.186
 5511SOL    HW116682   5.357   2.403   1.258
 5511SOL    HW216683   5.453   2.445   1.149
 5512SOL     OW16684   4.436   2.313   1.260
 5512SOL    HW116685   4.379   2.240   1.235
 5512SOL    HW216686   4.427   2.376   1.189
 5513SOL     OW16687   4.666   3.536   1.460
 5513SOL    HW116688   4.627   3.503   1.379
 5513SOL    HW216689   4.649   3.630   1.457
 5514SOL     OW16690   4.183   2.356   0.195
 5514SOL    HW116691   4.244   2.427   0.215
 5514SOL    HW216692   4.099   2.400   0.184
 5515SOL     OW16693   3.864   2.998   1.472
 5515SOL    HW116694   3.909   2.953   1.543
 5515SOL    HW216695   3.873   2.939   1.397
 5516SOL     OW16696   5.048   2.909   1.222
 5516SOL    HW116697   5.071   2.845   1.154
 5516SOL    HW216698   4.979   2.962   1.182
 5517SOL     OW16699   5.012   2.702   0.313
 5517SOL    HW116700   4.937   2.665   0.359
 5517SOL    HW216701   4.996   2.683   0.221
 5518SOL     OW16702   5.499   3.600   1.153
 5518SOL    HW116703   5.559   3.630   1.085
 5518SOL    HW216704   5.474   3.512   1.125
 5519SOL     OW16705   4.965   3.596   1.111
 5519SOL    HW116706   5.047   3.617   1.066
 5519SOL    HW216707   4.972   3.502   1.129
 5520SOL     OW16708   3.807   3.131   1.010
 5520SOL    HW116709   3.787   3.142   1.103
 5520SOL    HW216710   3.737   3.075   0.977
 5521SOL     OW16711   4.632   1.946   0.106
 5521SOL    HW116712   4.697   1.964   0.038
 5521SOL    HW216713   4.680   1.896   0.172
 5522SOL     OW16714   5.424   2.009   0.511
 5522SOL    HW116715   5.503   2.003   0.458
 5522SOL    HW216716   5.416   1.922   0.552
 5523SOL     OW16717   5.116   3.435   0.492
 5523SOL    HW116718   5.175   3.466   0.424
 5523SOL    HW216719   5.068   3.513   0.519
 5524SOL     OW16720   3.842   3.635   1.827
 5524SOL    HW116721   3.823   3.587   1.908
 5524SOL    HW216722   3.930   3.669   1.840
 5525SOL     OW16723   5.000   2.790   0.675
 5525SOL    HW116724   5.074   2.730   0.681
 5525SOL    HW216725   5.033   2.861   0.619
 5526SOL     OW16726   4.536   3.137   1.421
 5526SOL    HW116727   4.509   3.170   1.506
 5526SOL    HW216728   4.466   3.164   1.361
 5527SOL     OW16729   4.395   3.473   0.162
 5527SOL    HW116730   4.394   3.477   0.067
 5527SOL    HW216731   4.341   3.397   0.184
 5528SOL     OW16732   5.349   3.589   1.390
 5528SOL    HW116733   5.397   3.597   1.308
 5528SOL    HW216734   5.334   3.679   1.418
 5529SOL     OW16735   5.568   2.037   0.969
 5529SOL    HW116736   5.597   1.950   0.941
 5529SOL    HW216737   5.482   2.048   0.927
 5530SOL     OW16738   3.985   2.179   0.716
 5530SOL    HW116739   3.899   2.214   0.694
 5530SOL    HW216740   3.984   2.171   0.811
 5531SOL     OW16741   4.947   3.463   0.042
 5531SOL    HW116742   4.926   3.373   0.066
 5531SOL    HW216743   4.891   3.482   5.967
 5532SOL     OW16744   4.551   2.868   1.367
 5532SOL    HW116745   4.593   2.865   1.281
 5532SOL    HW216746   4.546   2.961   1.388
 5533SOL     OW16747   4.633   2.758   0.298
 5533SOL    HW116748   4.682   2.775   0.217
 5533SOL    HW216749   4.680   2.687   0.340
 5534SOL     OW16750   5.222   3.498   0.045
 5534SOL    HW116751   5.128   3.483   0.035
 5534SOL    HW216752   5.252   3.520   5.957
 5535SOL     OW16753   4.076   3.177   1.495
 5535SOL    HW116754   4.085   3.249   1.432
 5535SOL    HW216755   4.005   3.124   1.460
 5536SOL     OW16756   5.333   3.144   1.280
 5536SOL    HW116757   5.396   3.135   1.352
 5536SOL    HW216758   5.273   3.212   1.310
 5537SOL     OW16759   4.778   2.970   0.707
 5537SOL    HW116760   4.708   2.917   0.746
 5537SOL    HW216761   4.844   2.906   0.680
 5538SOL     OW16762   4.746   2.103   0.966
 5538SOL    HW116763   4.742   2.056   0.883
 5538SOL    HW216764   4.740   2.035   1.033
 5539SOL     OW16765   4.331   3.352   0.478
 5539SOL    HW116766   4.377   3.300   0.412
 5539SOL    HW216767   4.260   3.395   0.430
 5540SOL     OW16768   5.451   2.259   1.380
 5540SOL    HW116769   5.524   2.320   1.374
 5540SOL    HW216770   5.476   2.185   1.325
 5541SOL     OW16771   3.977   3.199   0.285
 5541SOL    HW116772   3.899   3.142   0.282
 5541SOL    HW216773   3.972   3.243   0.370
 5542SOL     OW16774   4.400   2.061   1.509
 5542SOL    HW116775   4.486   2.044   1.471
 5542SOL    HW216776   4.414   2.055   1.604
 5543SOL     OW16777   3.762   2.266   0.026
 5543SOL    HW116778   3.719   2.185   0.050
 5543SOL    HW216779   3.833   2.239   5.968
 5544SOL     OW16780   5.155   2.721   1.399
 5544SOL    HW116781   5.103   2.780   1.344
 5544SOL    HW216782   5.242   2.722   1.361
 5545SOL     OW16783   3.784   2.026   0.339
 5545SOL    HW116784   3.744   2.080   0.270
 5545SOL    HW216785   3.870   2.003   0.304
 5546SOL     OW16786   4.896   3.207   0.129
 5546SOL    HW116787   4.807   3.171   0.132
 5546SOL    HW216788   4.927   3.200   0.219
 5547SOL     OW16789   4.347   2.692   1.427
 5547SOL    HW116790   4.410   2.764   1.414
 5547SOL    HW216791   4.401   2.617   1.452
 5548SOL     OW16792   5.208   3.643   0.980
 5548SOL    HW116793   5.230   3.705   0.911
 5548SOL    HW216794   5.293   3.621   1.020
 5549SOL     OW16795   5.198   3.061   1.634
 5549SOL    HW116796   5.187   3.078   1.727
 5549SOL    HW216797   5.291   3.078   1.617
 5550SOL     OW16798   4.110   3.603   1.561
 5550SOL    HW116799   4.020   3.635   1.552
 5550SOL    HW216800   4.102   3.507   1.555
 5551SOL     OW16801   5.394   2.743   1.254
 5551SOL    HW116802   5.387   2.657   1.213
 5551SOL    HW216803   5.381   2.805   1.183
 5552SOL     OW16804   4.939   2.173   0.463
 5552SOL    HW116805   5.005   2.104   0.453
 5552SOL    HW216806   4.968   2.224   0.538
 5553SOL     OW16807   4.314   2.598   0.671
 5553SOL    HW116808   4.353   2.684   0.656
 5553SOL    HW216809   4.247   2.590   0.603
 5554SOL     OW16810   5.484   2.228   1.653
 5554SOL    HW116811   5.469   2.242   1.559
 5554SOL    HW216812   5.415   2.167   1.679
 5555SOL     OW16813   5.478   2.797   1.511
 5555SOL    HW116814   5.464   2.890   1.525
 5555SOL    HW216815   5.457   2.783   1.418
 5556SOL     OW16816   4.604   3.239   0.029
 5556SOL    HW116817   4.557   3.231   0.112
 5556SOL    HW216818   4.608   3.333   0.013
 5557SOL     OW16819   4.386   3.651   0.941
 5557SOL    HW116820   4.368   3.743   0.920
 5557SOL    HW216821   4.481   3.644   0.937
 5558SOL     OW16822   4.592   2.828   0.856
 5558SOL    HW116823   4.643   2.757   0.894
 5558SOL    HW216824   4.556   2.875   0.931
 5559SOL     OW16825   4.800   2.829   0.088
 5559SOL    HW116826   4.772   2.877   0.011
 5559SOL    HW216827   4.880   2.784   0.061
 5560SOL     OW16828   5.569   3.419   0.844
 5560SOL    HW116829   5.495   3.402   0.786
 5560SOL    HW216830   5.564   3.350   0.910
 5561SOL     OW16831   3.810   3.093   0.666
 5561SOL    HW116832   3.815   3.044   0.748
 5561SOL    HW216833   3.876   3.052   0.610
 5562SOL     OW16834   4.374   3.284   1.597
 5562SOL    HW116835   4.344   3.196   1.620
 5562SOL    HW216836   4.414   3.318   1.678
 5563SOL     OW16837   5.538   2.045   1.241
 5563SOL    HW116838   5.549   1.951   1.254
 5563SOL    HW216839   5.550   2.058   1.146
 5564SOL     OW16840   4.159   2.292   0.525
 5564SOL    HW116841   4.177   2.221   0.464
 5564SOL    HW216842   4.106   2.252   0.595
 5565SOL     OW16843   5.424   3.345   1.094
 5565SOL    HW116844   5.344   3.327   1.045
 5565SOL    HW216845   5.429   3.275   1.159
 5566SOL     OW16846   4.057   2.416   1.293
 5566SOL    HW116847   4.114   2.362   1.347
 5566SOL    HW216848   4.076   2.388   1.203
 5567SOL     OW16849   4.553   3.439   0.677
 5567SOL    HW116850   4.536   3.497   0.603
 5567SOL    HW216851   4.478   3.380   0.679
 5568SOL     OW16852   5.158   2.088   1.119
 5568SOL    HW116853   5.177   2.005   1.162
 5568SOL    HW216854   5.105   2.136   1.183
 5569SOL     OW16855   4.732   1.879   1.139
 5569SOL    HW116856   4.679   1.811   1.098
 5569SOL    HW216857   4.820   1.842   1.143
 5570SOL     OW16858   4.502   3.194   0.309
 5570SOL    HW116859   4.468   3.105   0.320
 5570SOL    HW216860   4.591   3.189   0.345
 5571SOL     OW16861   4.344   3.422   1.280
 5571SOL    HW116862   4.347   3.502   1.332
 5571SOL    HW216863   4.432   3.413   1.244
 5572SOL     OW16864   5.081   1.915   0.161
 5572SOL    HW116865   5.111   1.849   0.099
 5572SOL    HW216866   4.992   1.889   0.184
 5573SOL     OW16867   5.018   2.324   0.679
 5573SOL    HW116868   4.968   2.405   0.686
 5573SOL    HW216869   5.016   2.287   0.767
 5574SOL     OW16870   5.309   2.060   0.879
 5574SOL    HW116871   5.252   2.083   0.952
 5574SOL    HW216872   5.308   2.137   0.823
 5575SOL     OW16873   3.788   2.939   0.296
 5575SOL    HW116874   3.876   2.908   0.277
 5575SOL    HW216875   3.751   2.872   0.354
 5576SOL     OW16876   4.610   3.519   0.341
 5576SOL    HW116877   4.534   3.497   0.286
 5576SOL    HW216878   4.579   3.591   0.396
 5577SOL     OW16879   5.274   3.377   2.522
 5577SOL    HW116880   5.234   3.352   2.605
 5577SOL    HW216881   5.201   3.380   2.460
 5578SOL     OW16882   4.877   2.563   2.625
 5578SOL    HW116883   4.900   2.635   2.566
 5578SOL    HW216884   4.785   2.544   2.605
 5579SOL     OW16885   5.495   2.467   2.088
 5579SOL    HW116886   5.477   2.461   1.994
 5579SOL    HW216887   5.463   2.384   2.124
 5580SOL     OW16888   4.669   2.696   3.692
 5580SOL    HW116889   4.609   2.748   3.746
 5580SOL    HW216890   4.635   2.705   3.603
 5581SOL     OW16891   4.378   2.866   2.551
 5581SOL    HW116892   4.473   2.878   2.554
 5581SOL    HW216893   4.345   2.950   2.519
 5582SOL     OW16894   4.326   3.013   3.669
 5582SOL    HW116895   4.364   3.093   3.705
 5582SOL    HW216896   4.252   3.043   3.616
 5583SOL     OW16897   5.216   3.359   3.296
 5583SOL    HW116898   5.243   3.450   3.311
 5583SOL    HW216899   5.125   3.356   3.324
 5584SOL     OW16900   5.345   2.305   2.554
 5584SOL    HW116901   5.279   2.327   2.488
 5584SOL    HW216902   5.332   2.369   2.624
 5585SOL     OW16903   3.968   3.591   2.361
 5585SOL    HW116904   3.968   3.676   2.404
 5585SOL    HW216905   3.956   3.611   2.268
 5586SOL     OW16906   5.300   1.999   3.335
 5586SOL    HW116907   5.303   2.087   3.297
 5586SOL    HW216908   5.289   2.014   3.429
 5587SOL     OW16909   5.566   3.618   2.203
 5587SOL    HW116910   5.637   3.589   2.260
 5587SOL    HW216911   5.590   3.707   2.177
 5588SOL     OW16912   5.433   2.776   2.479
 5588SOL    HW116913   5.495   2.721   2.431
 5588SOL    HW216914   5.399   2.837   2.413
 5589SOL     OW16915   5.366   2.972   2.293
 5589SOL    HW116916   5.448   2.976   2.245
 5589SOL    HW216917   5.378   3.034   2.365
 5590SOL     OW16918   5.005   3.160   3.348
 5590SOL    HW116919   5.040   3.099   3.283
 5590SOL    HW216920   5.060   3.147   3.425
 5591SOL     OW16921   5.265   2.860   2.045
 5591SOL    HW116922   5.204   2.786   2.050
 5591SOL    HW216923   5.287   2.878   2.136
 5592SOL     OW16924   4.955   3.686   3.488
 5592SOL    HW116925   4.889   3.691   3.419
 5592SOL    HW216926   4.986   3.595   3.485
 5593SOL     OW16927   5.201   3.275   2.756
 5593SOL    HW116928   5.140   3.292   2.828
 5593SOL    HW216929   5.185   3.184   2.731
 5594SOL     OW16930   5.392   3.610   2.453
 5594SOL    HW116931   5.390   3.594   2.358
 5594SOL    HW216932   5.346   3.535   2.491
 5595SOL     OW16933   4.998   2.189   2.737
 5595SOL    HW116934   4.925   2.137   2.702
 5595SOL    HW216935   5.030   2.137   2.812
 5596SOL     OW16936   5.305   3.532   2.172
 5596SOL    HW116937   5.396   3.562   2.166
 5596SOL    HW216938   5.279   3.517   2.081
 5597SOL     OW16939   5.108   2.327   3.545
 5597SOL    HW116940   5.113   2.378   3.625
 5597SOL    HW216941   5.172   2.257   3.557
 5598SOL     OW16942   4.614   2.214   2.048
 5598SOL    HW116943   4.651   2.263   1.974
 5598SOL    HW216944   4.588   2.130   2.010
 5599SOL     OW16945   5.434   2.438   3.701
 5599SOL    HW116946   5.385   2.497   3.644
 5599SOL    HW216947   5.462   2.366   3.645
 5600SOL     OW16948   5.110   3.003   2.408
 5600SOL    HW116949   5.189   2.997   2.354
 5600SOL    HW216950   5.056   3.068   2.364
 5601SOL     OW16951   4.265   2.031   2.723
 5601SOL    HW116952   4.249   2.029   2.818
 5601SOL    HW216953   4.207   2.101   2.691
 5602SOL     OW16954   5.445   2.927   2.705
 5602SOL    HW116955   5.434   2.860   2.638
 5602SOL    HW216956   5.399   3.004   2.671
 5603SOL     OW16957   4.955   3.431   3.392
 5603SOL    HW116958   4.958   3.356   3.451
 5603SOL    HW216959   4.882   3.413   3.333
 5604SOL     OW16960   5.212   2.609   2.517
 5604SOL    HW116961   5.195   2.552   2.592
 5604SOL    HW216962   5.280   2.669   2.547
 5605SOL     OW16963   5.347   3.239   1.954
 5605SOL    HW116964   5.315   3.328   1.938
 5605SOL    HW216965   5.272   3.183   1.934
 5606SOL     OW16966   5.121   1.960   2.281
 5606SOL    HW116967   5.124   1.934   2.189
 5606SOL    HW216968   5.213   1.965   2.307
 5607SOL     OW16969   4.706   3.575   2.748
 5607SOL    HW116970   4.745   3.493   2.719
 5607SOL    HW216971   4.612   3.562   2.738
 5608SOL     OW16972   4.091   2.528   2.325
 5608SOL    HW116973   4.165   2.521   2.385
 5608SOL    HW216974   4.014   2.521   2.382
 5609SOL     OW16975   5.245   2.077   3.594
 5609SOL    HW116976   5.255   2.100   3.686
 5609SOL    HW216977   5.176   2.011   3.593
 5610SOL     OW16978   5.137   2.416   3.285
 5610SOL    HW116979   5.139   2.392   3.378
 5610SOL    HW216980   5.154   2.510   3.284
 5611SOL     OW16981   5.138   3.062   1.907
 5611SOL    HW116982   5.187   2.990   1.945
 5611SOL    HW216983   5.058   3.067   1.960
 5612SOL     OW16984   4.962   3.438   2.652
 5612SOL    HW116985   4.953   3.506   2.585
 5612SOL    HW216986   5.039   3.463   2.703
 5613SOL     OW16987   5.004   3.661   2.472
 5613SOL    HW116988   5.047   3.724   2.415
 5613SOL    HW216989   4.956   3.715   2.535
 5614SOL     OW16990   4.781   2.415   1.879
 5614SOL    HW116991   4.769   2.509   1.865
 5614SOL    HW216992   4.841   2.410   1.954
 5615SOL     OW16993   5.146   3.019   2.687
 5615SOL    HW116994   5.140   2.927   2.712
 5615SOL    HW216995   5.144   3.017   2.591
 5616SOL     OW16996   5.201   2.446   2.743
 5616SOL    HW116997   5.127   2.386   2.740
 5616SOL    HW216998   5.227   2.449   2.835
 5617SOL     OW16999   5.571   2.674   2.247
 5617SOL    HW117000   5.629   2.621   2.302
 5617SOL    HW217001   5.547   2.616   2.175
 5618SOL     OW17002   5.398   3.132   2.517
 5618SOL    HW117003   5.492   3.139   2.501
 5618SOL    HW217004   5.367   3.222   2.512
 5619SOL     OW17005   5.129   2.433   1.935
 5619SOL    HW117006   5.065   2.400   1.999
 5619SOL    HW217007   5.211   2.390   1.959
 5620SOL     OW17008   5.497   3.111   3.498
 5620SOL    HW117009   5.582   3.079   3.466
 5620SOL    HW217010   5.514   3.201   3.524
 5621SOL     OW17011   4.766   3.267   3.281
 5621SOL    HW117012   4.701   3.209   3.322
 5621SOL    HW217013   4.849   3.222   3.293
 5622SOL     OW17014   5.332   3.488   3.543
 5622SOL    HW117015   5.346   3.533   3.460
 5622SOL    HW217016   5.411   3.435   3.554
 5623SOL     OW17017   5.701   2.982   2.736
 5623SOL    HW117018   5.609   2.956   2.740
 5623SOL    HW217019   5.741   2.936   2.811
 5624SOL     OW17020   4.971   3.199   2.281
 5624SOL    HW117021   5.016   3.283   2.292
 5624SOL    HW217022   4.879   3.223   2.265
 5625SOL     OW17023   5.304   2.474   2.308
 5625SOL    HW117024   5.261   2.527   2.375
 5625SOL    HW217025   5.366   2.535   2.266
 5626SOL     OW17026   5.295   2.608   3.539
 5626SOL    HW117027   5.211   2.654   3.544
 5626SOL    HW217028   5.360   2.677   3.529
 5627SOL     OW17029   4.747   1.955   3.620
 5627SOL    HW117030   4.780   2.045   3.616
 5627SOL    HW217031   4.821   1.901   3.590
 5628SOL     OW17032   5.112   2.746   2.735
 5628SOL    HW117033   5.020   2.735   2.710
 5628SOL    HW217034   5.137   2.661   2.770
 5629SOL     OW17035   4.936   2.362   2.115
 5629SOL    HW117036   4.934   2.289   2.177
 5629SOL    HW217037   4.895   2.435   2.161
 5630SOL     OW17038   5.474   2.811   3.749
 5630SOL    HW117039   5.428   2.816   3.665
 5630SOL    HW217040   5.405   2.824   3.814
 5631SOL     OW17041   5.347   2.223   2.222
 5631SOL    HW117042   5.381   2.171   2.295
 5631SOL    HW217043   5.321   2.306   2.263
 5632SOL     OW17044   5.574   3.369   3.512
 5632SOL    HW117045   5.595   3.416   3.431
 5632SOL    HW217046   5.650   3.383   3.568
 5633SOL     OW17047   5.246   2.136   1.986
 5633SOL    HW117048   5.181   2.070   2.012
 5633SOL    HW217049   5.284   2.165   2.069
 5634SOL     OW17050   5.048   2.696   1.905
 5634SOL    HW117051   5.077   2.605   1.907
 5634SOL    HW217052   5.068   2.725   1.816
 5635SOL     OW17053   4.791   3.225   2.706
 5635SOL    HW117054   4.827   3.142   2.677
 5635SOL    HW217055   4.859   3.289   2.688
 5636SOL     OW17056   4.125   2.723   2.764
 5636SOL    HW117057   4.210   2.680   2.767
 5636SOL    HW217058   4.063   2.653   2.745
 5637SOL     OW17059   4.864   2.203   3.587
 5637SOL    HW117060   4.823   2.272   3.639
 5637SOL    HW217061   4.954   2.233   3.574
 5638SOL     OW17062   5.097   2.809   3.520
 5638SOL    HW117063   5.133   2.896   3.537
 5638SOL    HW217064   5.063   2.815   3.430
 5639SOL     OW17065   5.440   2.516   3.274
 5639SOL    HW117066   5.361   2.463   3.270
 5639SOL    HW217067   5.506   2.465   3.228
 5640SOL     OW17068   4.191   2.390   2.041
 5640SOL    HW117069   4.249   2.418   2.111
 5640SOL    HW217070   4.103   2.407   2.074
 5641SOL     OW17071   5.093   2.923   3.261
 5641SOL    HW117072   5.172   2.969   3.233
 5641SOL    HW217073   5.037   2.923   3.184
 5642SOL     OW17074   5.845   3.533   2.762
 5642SOL    HW117075   5.784   3.606   2.754
 5642SOL    HW217076   5.789   3.457   2.777
 5643SOL     OW17077   5.467   2.025   2.384
 5643SOL    HW117078   5.526   2.009   2.310
 5643SOL    HW217079   5.433   1.938   2.407
 5644SOL     OW17080   5.094   3.444   2.323
 5644SOL    HW117081   5.168   3.472   2.269
 5644SOL    HW217082   5.069   3.522   2.373
 5645SOL     OW17083   4.987   2.769   2.482
 5645SOL    HW117084   5.069   2.722   2.497
 5645SOL    HW217085   5.014   2.859   2.461
 5646SOL     OW17086   5.389   3.607   3.303
 5646SOL    HW117087   5.400   3.608   3.208
 5646SOL    HW217088   5.363   3.697   3.325
 5647SOL     OW17089   5.581   2.045   2.730
 5647SOL    HW117090   5.618   1.961   2.703
 5647SOL    HW217091   5.523   2.069   2.659
 5648SOL     OW17092   4.954   3.485   1.880
 5648SOL    HW117093   4.902   3.411   1.912
 5648SOL    HW217094   4.901   3.522   1.809
 5649SOL     OW17095   5.225   3.487   1.907
 5649SOL    HW117096   5.131   3.483   1.892
 5649SOL    HW217097   5.262   3.495   1.819
 5650SOL     OW17098   5.338   3.117   3.283
 5650SOL    HW117099   5.399   3.121   3.357
 5650SOL    HW217100   5.295   3.203   3.282
 5651SOL     OW17101   4.361   3.337   2.287
 5651SOL    HW117102   4.367   3.300   2.199
 5651SOL    HW217103   4.294   3.405   2.280
 5652SOL     OW17104   5.426   2.245   3.304
 5652SOL    HW117105   5.484   2.319   3.315
 5652SOL    HW217106   5.484   2.171   3.282
 5653SOL     OW17107   5.202   2.679   3.274
 5653SOL    HW117108   5.155   2.761   3.268
 5653SOL    HW217109   5.268   2.694   3.342
 5654SOL     OW17110   5.206   3.601   2.737
 5654SOL    HW117111   5.221   3.674   2.677
 5654SOL    HW217112   5.293   3.576   2.767
 5655SOL     OW17113   5.186   3.077   3.529
 5655SOL    HW117114   5.177   3.085   3.624
 5655SOL    HW217115   5.279   3.089   3.513
 5656SOL     OW17116   5.504   2.773   3.276
 5656SOL    HW117117   5.485   2.679   3.273
 5656SOL    HW217118   5.454   2.810   3.203
 5657SOL     OW17119   4.948   2.174   2.316
 5657SOL    HW117120   5.007   2.099   2.315
 5657SOL    HW217121   4.978   2.228   2.389
 5658SOL     OW17122   5.490   2.204   3.563
 5658SOL    HW117123   5.476   2.220   3.470
 5658SOL    HW217124   5.417   2.148   3.589
 5659SOL     OW17125   5.401   2.858   3.496
 5659SOL    HW117126   5.429   2.948   3.509
 5659SOL    HW217127   5.450   2.828   3.419
 5660SOL     OW17128   4.835   2.861   1.964
 5660SOL    HW117129   4.793   2.913   1.896
 5660SOL    HW217130   4.906   2.815   1.919
 5661SOL     OW17131   5.603   3.391   2.526
 5661SOL    HW117132   5.519   3.436   2.535
 5661SOL    HW217133   5.630   3.372   2.616
 5662SOL     OW17134   5.625   2.071   3.283
 5662SOL    HW117135   5.644   1.992   3.333
 5662SOL    HW217136   5.679   2.063   3.204
 5663SOL     OW17137   5.448   3.449   2.749
 5663SOL    HW117138   5.371   3.392   2.746
 5663SOL    HW217139   5.514   3.399   2.796
 5664SOL     OW17140   5.314   2.092   2.784
 5664SOL    HW117141   5.402   2.068   2.814
 5664SOL    HW217142   5.316   2.187   2.776
 5665SOL     OW17143   5.080   1.901   2.018
 5665SOL    HW117144   5.110   1.840   1.951
 5665SOL    HW217145   4.993   1.870   2.042
 5666SOL     OW17146   5.033   2.345   2.520
 5666SOL    HW117147   4.975   2.417   2.546
 5666SOL    HW217148   5.023   2.281   2.591
 5667SOL     OW17149   5.197   2.053   2.544
 5667SOL    HW117150   5.206   2.057   2.639
 5667SOL    HW217151   5.257   2.120   2.512
 5668SOL     OW17152   3.946   2.147   4.721
 5668SOL    HW117153   3.974   2.109   4.804
 5668SOL    HW217154   3.857   2.114   4.708
 5669SOL     OW17155   3.722   2.227   4.379
 5669SOL    HW117156   3.639   2.265   4.406
 5669SOL    HW217157   3.699   2.141   4.343
 5670SOL     OW17158   4.290   3.156   4.902
 5670SOL    HW117159   4.204   3.162   4.861
 5670SOL    HW217160   4.306   3.245   4.936
 5671SOL     OW17161   5.282   3.375   4.430
 5671SOL    HW117162   5.245   3.354   4.516
 5671SOL    HW217163   5.208   3.374   4.370
 5672SOL     OW17164   4.869   2.549   4.450
 5672SOL    HW117165   4.910   2.631   4.422
 5672SOL    HW217166   4.822   2.571   4.530
 5673SOL     OW17167   5.482   2.468   3.964
 5673SOL    HW117168   5.470   2.464   3.870
 5673SOL    HW217169   5.456   2.382   3.996
 5674SOL     OW17170   4.478   3.008   4.768
 5674SOL    HW117171   4.409   3.043   4.825
 5674SOL    HW217172   4.511   3.084   4.721
 5675SOL     OW17173   4.594   2.633   5.550
 5675SOL    HW117174   4.579   2.704   5.613
 5675SOL    HW217175   4.616   2.678   5.469
 5676SOL     OW17176   4.406   2.856   4.387
 5676SOL    HW117177   4.474   2.854   4.455
 5676SOL    HW217178   4.341   2.918   4.420
 5677SOL     OW17179   4.438   3.016   5.536
 5677SOL    HW117180   4.484   3.094   5.566
 5677SOL    HW217181   4.356   3.049   5.500
 5678SOL     OW17182   4.055   3.280   4.789
 5678SOL    HW117183   3.979   3.247   4.741
 5678SOL    HW217184   4.102   3.334   4.725
 5679SOL     OW17185   5.184   3.364   5.081
 5679SOL    HW117186   5.238   3.443   5.091
 5679SOL    HW217187   5.119   3.370   5.152
 5680SOL     OW17188   4.176   2.259   5.209
 5680SOL    HW117189   4.251   2.200   5.215
 5680SOL    HW217190   4.100   2.203   5.226
 5681SOL     OW17191   5.332   2.306   4.465
 5681SOL    HW117192   5.256   2.326   4.410
 5681SOL    HW217193   5.347   2.386   4.515
 5682SOL     OW17194   3.921   3.573   4.216
 5682SOL    HW117195   3.961   3.646   4.262
 5682SOL    HW217196   3.951   3.583   4.125
 5683SOL     OW17197   4.863   3.203   5.418
 5683SOL    HW117198   4.906   3.196   5.503
 5683SOL    HW217199   4.811   3.123   5.411
 5684SOL     OW17200   3.971   3.303   4.280
 5684SOL    HW117201   3.952   3.393   4.257
 5684SOL    HW217202   3.888   3.267   4.312
 5685SOL     OW17203   3.975   2.950   4.607
 5685SOL    HW117204   3.978   2.864   4.648
 5685SOL    HW217205   3.923   3.003   4.667
 5686SOL     OW17206   4.334   3.653   5.154
 5686SOL    HW117207   4.252   3.635   5.199
 5686SOL    HW217208   4.356   3.742   5.179
 5687SOL     OW17209   5.317   1.989   5.192
 5687SOL    HW117210   5.330   2.070   5.144
 5687SOL    HW217211   5.302   2.016   5.282
 5688SOL     OW17212   3.874   2.492   4.312
 5688SOL    HW117213   3.803   2.440   4.275
 5688SOL    HW217214   3.831   2.551   4.373
 5689SOL     OW17215   5.565   3.623   4.061
 5689SOL    HW117216   5.633   3.597   4.123
 5689SOL    HW217217   5.587   3.714   4.039
 5690SOL     OW17218   5.420   2.780   4.368
 5690SOL    HW117219   5.499   2.734   4.342
 5690SOL    HW217220   5.395   2.830   4.290
 5691SOL     OW17221   5.366   2.963   4.156
 5691SOL    HW117222   5.449   2.967   4.108
 5691SOL    HW217223   5.376   3.027   4.227
 5692SOL     OW17224   3.847   2.606   5.311
 5692SOL    HW117225   3.939   2.633   5.314
 5692SOL    HW217226   3.798   2.688   5.317
 5693SOL     OW17227   4.339   3.245   4.466
 5693SOL    HW117228   4.285   3.166   4.468
 5693SOL    HW217229   4.333   3.275   4.375
 5694SOL     OW17230   5.013   3.100   5.146
 5694SOL    HW117231   5.044   3.032   5.086
 5694SOL    HW217232   5.071   3.095   5.222
 5695SOL     OW17233   4.521   1.907   4.283
 5695SOL    HW117234   4.557   1.931   4.198
 5695SOL    HW217235   4.426   1.900   4.269
 5696SOL     OW17236   3.912   2.826   4.996
 5696SOL    HW117237   3.997   2.785   4.981
 5696SOL    HW217238   3.851   2.772   4.945
 5697SOL     OW17239   5.261   2.855   3.916
 5697SOL    HW117240   5.198   2.783   3.919
 5697SOL    HW217241   5.284   2.871   4.007
 5698SOL     OW17242   4.904   3.669   5.346
 5698SOL    HW117243   4.916   3.731   5.274
 5698SOL    HW217244   4.925   3.584   5.309
 5699SOL     OW17245   4.061   2.113   5.536
 5699SOL    HW117246   4.104   2.195   5.559
 5699SOL    HW217247   3.971   2.124   5.567
 5700SOL     OW17248   5.192   3.281   4.675
 5700SOL    HW117249   5.124   3.297   4.740
 5700SOL    HW217250   5.179   3.190   4.648
 5701SOL     OW17251   5.377   3.608   4.305
 5701SOL    HW117252   5.366   3.577   4.215
 5701SOL    HW217253   5.357   3.532   4.360
 5702SOL     OW17254   5.003   2.218   4.660
 5702SOL    HW117255   4.913   2.186   4.669
 5702SOL    HW217256   5.054   2.163   4.720
 5703SOL     OW17257   5.307   3.530   4.042
 5703SOL    HW117258   5.397   3.562   4.033
 5703SOL    HW217259   5.277   3.517   3.953
 5704SOL     OW17260   4.518   2.480   5.174
 5704SOL    HW117261   4.492   2.456   5.263
 5704SOL    HW217262   4.480   2.412   5.119
 5705SOL     OW17263   5.119   2.334   5.398
 5705SOL    HW117264   5.124   2.382   5.481
 5705SOL    HW217265   5.175   2.257   5.412
 5706SOL     OW17266   4.676   2.748   5.308
 5706SOL    HW117267   4.731   2.678   5.273
 5706SOL    HW217268   4.628   2.781   5.233
 5707SOL     OW17269   4.715   2.274   4.960
 5707SOL    HW117270   4.628   2.293   4.994
 5707SOL    HW217271   4.700   2.229   4.877
 5708SOL     OW17272   4.737   2.587   4.212
 5708SOL    HW117273   4.767   2.550   4.295
 5708SOL    HW217274   4.678   2.520   4.177
 5709SOL     OW17275   3.795   2.696   4.492
 5709SOL    HW117276   3.879   2.680   4.536
 5709SOL    HW217277   3.758   2.771   4.539
 5710SOL     OW17278   3.848   3.721   5.302
 5710SOL    HW117279   3.851   3.698   5.395
 5710SOL    HW217280   3.759   3.697   5.275
 5711SOL     OW17281   4.615   2.200   3.921
 5711SOL    HW117282   4.625   2.273   3.861
 5711SOL    HW217283   4.588   2.127   3.866
 5712SOL     OW17284   5.429   2.434   5.553
 5712SOL    HW117285   5.392   2.507   5.503
 5712SOL    HW217286   5.458   2.371   5.487
 5713SOL     OW17287   5.107   2.994   4.264
 5713SOL    HW117288   5.190   2.991   4.217
 5713SOL    HW217289   5.057   3.062   4.220
 5714SOL     OW17290   4.272   2.037   4.618
 5714SOL    HW117291   4.275   2.074   4.706
 5714SOL    HW217292   4.262   2.114   4.561
 5715SOL     OW17293   4.081   3.676   4.588
 5715SOL    HW117294   4.125   3.590   4.594
 5715SOL    HW217295   4.151   3.739   4.603
 5716SOL     OW17296   5.530   2.916   4.592
 5716SOL    HW117297   5.477   2.897   4.515
 5716SOL    HW217298   5.466   2.922   4.664
 5717SOL     OW17299   4.950   3.401   5.236
 5717SOL    HW117300   4.940   3.328   5.297
 5717SOL    HW217301   4.885   3.386   5.168
 5718SOL     OW17302   4.024   2.864   3.904
 5718SOL    HW117303   4.118   2.849   3.908
 5718SOL    HW217304   3.985   2.782   3.932
 5719SOL     OW17305   5.209   2.608   4.450
 5719SOL    HW117306   5.198   2.564   4.534
 5719SOL    HW217307   5.286   2.663   4.461
 5720SOL     OW17308   4.189   3.128   5.466
 5720SOL    HW117309   4.162   3.132   5.374
 5720SOL    HW217310   4.106   3.124   5.514
 5721SOL     OW17311   3.925   2.141   5.229
 5721SOL    HW117312   3.842   2.189   5.226
 5721SOL    HW217313   3.905   2.062   5.279
 5722SOL     OW17314   5.347   3.241   3.804
 5722SOL    HW117315   5.310   3.330   3.802
 5722SOL    HW217316   5.270   3.184   3.803
 5723SOL     OW17317   5.133   1.966   4.158
 5723SOL    HW117318   5.123   1.943   4.065
 5723SOL    HW217319   5.227   1.980   4.169
 5724SOL     OW17320   3.978   3.651   4.954
 5724SOL    HW117321   4.029   3.582   4.995
 5724SOL    HW217322   3.969   3.624   4.863
 5725SOL     OW17323   4.667   3.560   4.626
 5725SOL    HW117324   4.748   3.512   4.645
 5725SOL    HW217325   4.612   3.498   4.579
 5726SOL     OW17326   4.121   2.546   4.211
 5726SOL    HW117327   4.142   2.454   4.195
 5726SOL    HW217328   4.031   2.545   4.245
 5727SOL     OW17329   5.256   2.087   5.456
 5727SOL    HW117330   5.267   2.109   5.548
 5727SOL    HW217331   5.191   2.017   5.455
 5728SOL     OW17332   4.488   2.137   5.477
 5728SOL    HW117333   4.567   2.083   5.476
 5728SOL    HW217334   4.464   2.144   5.569
 5729SOL     OW17335   4.601   3.386   4.917
 5729SOL    HW117336   4.585   3.350   4.829
 5729SOL    HW217337   4.671   3.331   4.952
 5730SOL     OW17338   5.066   2.451   5.154
 5730SOL    HW117339   5.097   2.419   5.239
 5730SOL    HW217340   5.101   2.540   5.148
 5731SOL     OW17341   4.540   3.268   4.660
 5731SOL    HW117342   4.623   3.245   4.618
 5731SOL    HW217343   4.475   3.261   4.590
 5732SOL     OW17344   4.650   2.373   4.625
 5732SOL    HW117345   4.630   2.368   4.532
 5732SOL    HW217346   4.680   2.284   4.648
 5733SOL     OW17347   4.256   1.919   4.200
 5733SOL    HW117348   4.174   1.924   4.250
 5733SOL    HW217349   4.267   2.006   4.164
 5734SOL     OW17350   5.139   3.064   3.793
 5734SOL    HW117351   5.184   2.989   3.830
 5734SOL    HW217352   5.050   3.059   3.828
 5735SOL     OW17353   4.805   2.542   5.184
 5735SOL    HW117354   4.736   2.475   5.187
 5735SOL    HW217355   4.886   2.492   5.177
 5736SOL     OW17356   4.952   3.432   4.521
 5736SOL    HW117357   4.963   3.501   4.456
 5736SOL    HW217358   5.019   3.449   4.587
 5737SOL     OW17359   4.185   3.015   4.447
 5737SOL    HW117360   4.119   2.996   4.513
 5737SOL    HW217361   4.141   2.998   4.364
 5738SOL     OW17362   4.991   3.666   4.334
 5738SOL    HW117363   5.043   3.723   4.278
 5738SOL    HW217364   4.942   3.726   4.390
 5739SOL     OW17365   4.800   2.429   3.720
 5739SOL    HW117366   4.748   2.510   3.711
 5739SOL    HW217367   4.839   2.436   3.807
 5740SOL     OW17368   3.804   2.416   5.118
 5740SOL    HW117369   3.896   2.413   5.092
 5740SOL    HW217370   3.799   2.486   5.182
 5741SOL     OW17371   4.283   2.090   4.892
 5741SOL    HW117372   4.324   2.013   4.931
 5741SOL    HW217373   4.192   2.086   4.922
 5742SOL     OW17374   4.589   2.334   4.356
 5742SOL    HW117375   4.520   2.372   4.301
 5742SOL    HW217376   4.608   2.249   4.315
 5743SOL     OW17377   4.729   1.923   4.476
 5743SOL    HW117378   4.661   1.921   4.409
 5743SOL    HW217379   4.714   1.843   4.528
 5744SOL     OW17380   5.163   3.022   4.583
 5744SOL    HW117381   5.090   2.960   4.581
 5744SOL    HW217382   5.190   3.029   4.491
 5745SOL     OW17383   5.188   2.468   4.697
 5745SOL    HW117384   5.136   2.388   4.699
 5745SOL    HW217385   5.247   2.460   4.773
 5746SOL     OW17386   5.572   2.680   4.109
 5746SOL    HW117387   5.625   2.625   4.167
 5746SOL    HW217388   5.541   2.619   4.041
 5747SOL     OW17389   5.391   3.125   4.373
 5747SOL    HW117390   5.486   3.126   4.383
 5747SOL    HW217391   5.363   3.214   4.391
 5748SOL     OW17392   5.127   2.437   3.793
 5748SOL    HW117393   5.063   2.401   3.854
 5748SOL    HW217394   5.212   2.406   3.827
 5749SOL     OW17395   5.476   3.099   5.288
 5749SOL    HW117396   5.565   3.065   5.277
 5749SOL    HW217397   5.489   3.188   5.320
 5750SOL     OW17398   4.781   3.217   5.056
 5750SOL    HW117399   4.706   3.186   5.107
 5750SOL    HW217400   4.856   3.175   5.098
 5751SOL     OW17401   5.327   3.487   5.377
 5751SOL    HW117402   5.327   3.522   5.288
 5751SOL    HW217403   5.410   3.438   5.383
 5752SOL     OW17404   4.855   3.068   4.829
 5752SOL    HW117405   4.795   3.105   4.893
 5752SOL    HW217406   4.824   3.102   4.745
 5753SOL     OW17407   5.352   2.959   4.799
 5753SOL    HW117408   5.345   3.021   4.872
 5753SOL    HW217409   5.274   2.976   4.746
 5754SOL     OW17410   4.641   1.957   5.119
 5754SOL    HW117411   4.664   1.939   5.028
 5754SOL    HW217412   4.721   1.996   5.157
 5755SOL     OW17413   4.709   2.976   5.451
 5755SOL    HW117414   4.618   2.991   5.473
 5755SOL    HW217415   4.708   2.899   5.394
 5756SOL     OW17416   4.144   2.678   4.974
 5756SOL    HW117417   4.211   2.687   5.042
 5756SOL    HW217418   4.109   2.590   4.987
 5757SOL     OW17419   4.988   2.237   5.000
 5757SOL    HW117420   5.021   2.315   5.045
 5757SOL    HW217421   4.897   2.259   4.978
 5758SOL     OW17422   3.795   3.439   5.078
 5758SOL    HW117423   3.766   3.508   5.019
 5758SOL    HW217424   3.891   3.440   5.071
 5759SOL     OW17425   4.278   2.403   4.581
 5759SOL    HW117426   4.297   2.460   4.507
 5759SOL    HW217427   4.344   2.427   4.647
 5760SOL     OW17428   4.978   3.199   4.137
 5760SOL    HW117429   5.022   3.282   4.155
 5760SOL    HW217430   4.885   3.220   4.138
 5761SOL     OW17431   5.007   3.320   4.872
 5761SOL    HW117432   5.062   3.324   4.951
 5761SOL    HW217433   4.951   3.244   4.886
 5762SOL     OW17434   5.298   2.482   4.205
 5762SOL    HW117435   5.264   2.540   4.273
 5762SOL    HW217436   5.359   2.537   4.155
 5763SOL     OW17437   4.069   3.391   5.036
 5763SOL    HW117438   4.058   3.346   4.952
 5763SOL    HW217439   4.164   3.403   5.044
 5764SOL     OW17440   4.138   2.606   5.326
 5764SOL    HW117441   4.201   2.650   5.269
 5764SOL    HW217442   4.175   2.519   5.341
 5765SOL     OW17443   5.326   2.640   5.404
 5765SOL    HW117444   5.240   2.681   5.399
 5765SOL    HW217445   5.378   2.684   5.336
 5766SOL     OW17446   4.722   1.987   5.478
 5766SOL    HW117447   4.778   2.061   5.456
 5766SOL    HW217448   4.771   1.910   5.449
 5767SOL     OW17449   4.222   1.899   5.466
 5767SOL    HW117450   4.175   1.846   5.402
 5767SOL    HW217451   4.166   1.975   5.480
 5768SOL     OW17452   4.306   2.737   4.753
 5768SOL    HW117453   4.338   2.827   4.756
 5768SOL    HW217454   4.251   2.728   4.831
 5769SOL     OW17455   5.078   2.720   4.748
 5769SOL    HW117456   4.992   2.708   4.707
 5769SOL    HW217457   5.120   2.635   4.741
 5770SOL     OW17458   4.944   2.347   3.973
 5770SOL    HW117459   4.932   2.288   4.047
 5770SOL    HW217460   4.921   2.434   4.007
 5771SOL     OW17461   4.021   2.059   4.974
 5771SOL    HW117462   3.984   2.091   5.056
 5771SOL    HW217463   4.003   1.965   4.974
 5772SOL     OW17464   3.767   3.174   5.001
 5772SOL    HW117465   3.801   3.120   5.072
 5772SOL    HW217466   3.774   3.264   5.034
 5773SOL     OW17467   4.449   2.496   4.782
 5773SOL    HW117468   4.523   2.479   4.723
 5773SOL    HW217469   4.420   2.584   4.759
 5774SOL     OW17470   5.462   2.825   5.566
 5774SOL    HW117471   5.411   2.756   5.522
 5774SOL    HW217472   5.409   2.848   5.642
 5775SOL     OW17473   4.020   1.932   4.347
 5775SOL    HW117474   4.010   2.024   4.370
 5775SOL    HW217475   4.032   1.888   4.431
 5776SOL     OW17476   5.341   2.236   4.090
 5776SOL    HW117477   5.373   2.174   4.156
 5776SOL    HW217478   5.315   2.314   4.140
 5777SOL     OW17479   4.753   2.620   4.691
 5777SOL    HW117480   4.746   2.638   4.785
 5777SOL    HW217481   4.725   2.529   4.681
 5778SOL     OW17482   4.703   3.425   5.440
 5778SOL    HW117483   4.689   3.472   5.358
 5778SOL    HW217484   4.751   3.346   5.415
 5779SOL     OW17485   5.571   3.360   5.325
 5779SOL    HW117486   5.594   3.392   5.238
 5779SOL    HW217487   5.649   3.379   5.378
 5780SOL     OW17488   4.080   2.775   5.537
 5780SOL    HW117489   4.165   2.797   5.575
 5780SOL    HW217490   4.101   2.712   5.467
 5781SOL     OW17491   5.247   2.134   3.854
 5781SOL    HW117492   5.180   2.074   3.884
 5781SOL    HW217493   5.284   2.171   3.934
 5782SOL     OW17494   5.056   2.704   3.766
 5782SOL    HW117495   5.075   2.610   3.769
 5782SOL    HW217496   5.069   2.729   3.675
 5783SOL     OW17497   4.792   3.203   4.583
 5783SOL    HW117498   4.796   3.129   4.522
 5783SOL    HW217499   4.853   3.267   4.548
 5784SOL     OW17500   4.029   2.673   4.668
 5784SOL    HW117501   4.122   2.692   4.664
 5784SOL    HW217502   4.024   2.582   4.698
 5785SOL     OW17503   4.055   2.393   4.735
 5785SOL    HW117504   4.020   2.305   4.721
 5785SOL    HW217505   4.130   2.398   4.676
 5786SOL     OW17506   4.857   2.235   5.407
 5786SOL    HW117507   4.809   2.291   5.469
 5786SOL    HW217508   4.945   2.274   5.403
 5787SOL     OW17509   4.887   2.060   5.194
 5787SOL    HW117510   4.875   2.123   5.265
 5787SOL    HW217511   4.927   2.111   5.124
 5788SOL     OW17512   3.819   3.656   4.668
 5788SOL    HW117513   3.786   3.576   4.627
 5788SOL    HW217514   3.907   3.666   4.634
 5789SOL     OW17515   4.221   3.437   4.632
 5789SOL    HW117516   4.291   3.499   4.654
 5789SOL    HW217517   4.263   3.374   4.573
 5790SOL     OW17518   4.701   2.655   4.955
 5790SOL    HW117519   4.759   2.631   5.027
 5790SOL    HW217520   4.617   2.614   4.977
 5791SOL     OW17521   3.761   2.408   4.840
 5791SOL    HW117522   3.840   2.394   4.788
 5791SOL    HW217523   3.792   2.410   4.930
 5792SOL     OW17524   3.915   2.382   5.456
 5792SOL    HW117525   3.968   2.336   5.390
 5792SOL    HW217526   3.876   2.456   5.410
 5793SOL     OW17527   5.101   2.800   5.383
 5793SOL    HW117528   5.122   2.893   5.381
 5793SOL    HW217529   5.096   2.774   5.291
 5794SOL     OW17530   5.367   2.466   4.909
 5794SOL    HW117531   5.357   2.405   4.982
 5794SOL    HW217532   5.453   2.445   4.872
 5795SOL     OW17533   3.965   3.413   5.452
 5795SOL    HW117534   3.941   3.479   5.518
 5795SOL    HW217535   3.969   3.331   5.501
 5796SOL     OW17536   4.432   2.310   4.981
 5796SOL    HW117537   4.376   2.237   4.954
 5796SOL    HW217538   4.424   2.373   4.910
 5797SOL     OW17539   4.649   3.540   5.191
 5797SOL    HW117540   4.624   3.505   5.106
 5797SOL    HW217541   4.644   3.635   5.180
 5798SOL     OW17542   4.152   2.352   3.959
 5798SOL    HW117543   4.213   2.425   3.954
 5798SOL    HW217544   4.065   2.393   3.961
 5799SOL     OW17545   3.867   3.003   5.198
 5799SOL    HW117546   3.870   2.953   5.279
 5799SOL    HW217547   3.884   2.939   5.129
 5800SOL     OW17548   5.050   2.908   4.945
 5800SOL    HW117549   5.072   2.845   4.876
 5800SOL    HW217550   4.980   2.962   4.906
 5801SOL     OW17551   5.498   3.601   4.875
 5801SOL    HW117552   5.559   3.631   4.808
 5801SOL    HW217553   5.474   3.512   4.848
 5802SOL     OW17554   4.965   3.595   4.831
 5802SOL    HW117555   5.048   3.616   4.789
 5802SOL    HW217556   4.972   3.502   4.853
 5803SOL     OW17557   3.807   3.126   4.736
 5803SOL    HW117558   3.793   3.143   4.829
 5803SOL    HW217559   3.730   3.074   4.709
 5804SOL     OW17560   4.401   3.532   5.459
 5804SOL    HW117561   4.344   3.609   5.453
 5804SOL    HW217562   4.466   3.546   5.390
 5805SOL     OW17563   5.442   2.011   4.231
 5805SOL    HW117564   5.513   1.998   4.169
 5805SOL    HW217565   5.428   1.926   4.271
 5806SOL     OW17566   5.099   3.441   4.200
 5806SOL    HW117567   5.171   3.466   4.142
 5806SOL    HW217568   5.075   3.522   4.245
 5807SOL     OW17569   3.863   3.659   5.567
 5807SOL    HW117570   3.811   3.597   5.617
 5807SOL    HW217571   3.915   3.706   5.633
 5808SOL     OW17572   5.001   2.779   4.387
 5808SOL    HW117573   5.076   2.722   4.400
 5808SOL    HW217574   5.036   2.855   4.341
 5809SOL     OW17575   4.534   3.138   5.151
 5809SOL    HW117576   4.507   3.177   5.234
 5809SOL    HW217577   4.463   3.160   5.090
 5810SOL     OW17578   5.349   3.590   5.113
 5810SOL    HW117579   5.397   3.599   5.031
 5810SOL    HW217580   5.334   3.680   5.142
 5811SOL     OW17581   5.567   2.037   4.693
 5811SOL    HW117582   5.598   1.951   4.665
 5811SOL    HW217583   5.482   2.047   4.651
 5812SOL     OW17584   3.990   2.182   4.447
 5812SOL    HW117585   3.911   2.227   4.418
 5812SOL    HW217586   3.981   2.176   4.542
 5813SOL     OW17587   4.960   3.462   3.722
 5813SOL    HW117588   4.915   3.399   3.778
 5813SOL    HW217589   4.890   3.503   3.671
 5814SOL     OW17590   4.547   2.868   5.096
 5814SOL    HW117591   4.593   2.861   5.013
 5814SOL    HW217592   4.546   2.962   5.115
 5815SOL     OW17593   5.220   3.494   3.786
 5815SOL    HW117594   5.127   3.480   3.766
 5815SOL    HW217595   5.262   3.500   3.700
 5816SOL     OW17596   4.092   3.167   5.217
 5816SOL    HW117597   4.080   3.244   5.160
 5816SOL    HW217598   4.017   3.112   5.199
 5817SOL     OW17599   5.335   3.146   5.006
 5817SOL    HW117600   5.393   3.132   5.081
 5817SOL    HW217601   5.273   3.213   5.035
 5818SOL     OW17602   4.779   2.975   4.437
 5818SOL    HW117603   4.709   2.924   4.476
 5818SOL    HW217604   4.827   2.912   4.383
 5819SOL     OW17605   4.744   2.105   4.692
 5819SOL    HW117606   4.737   2.058   4.609
 5819SOL    HW217607   4.739   2.037   4.759
 5820SOL     OW17608   4.327   3.325   4.198
 5820SOL    HW117609   4.411   3.340   4.156
 5820SOL    HW217610   4.281   3.409   4.190
 5821SOL     OW17611   5.450   2.259   5.104
 5821SOL    HW117612   5.524   2.320   5.099
 5821SOL    HW217613   5.476   2.185   5.049
 5822SOL     OW17614   3.842   2.890   5.447
 5822SOL    HW117615   3.763   2.865   5.495
 5822SOL    HW217616   3.913   2.847   5.494
 5823SOL     OW17617   4.397   2.059   5.222
 5823SOL    HW117618   4.482   2.039   5.183
 5823SOL    HW217619   4.418   2.087   5.311
 5824SOL     OW17620   5.154   2.721   5.123
 5824SOL    HW117621   5.104   2.781   5.068
 5824SOL    HW217622   5.242   2.722   5.087
 5825SOL     OW17623   4.344   2.693   5.160
 5825SOL    HW117624   4.400   2.768   5.144
 5825SOL    HW217625   4.404   2.619   5.168
 5826SOL     OW17626   5.209   3.641   4.701
 5826SOL    HW117627   5.232   3.708   4.636
 5826SOL    HW217628   5.291   3.621   4.745
 5827SOL     OW17629   4.442   2.426   5.429
 5827SOL    HW117630   4.485   2.486   5.490
 5827SOL    HW217631   4.465   2.339   5.461
 5828SOL     OW17632   5.198   3.060   5.353
 5828SOL    HW117633   5.184   3.076   5.446
 5828SOL    HW217634   5.292   3.077   5.340
 5829SOL     OW17635   4.098   3.598   5.285
 5829SOL    HW117636   4.014   3.642   5.270
 5829SOL    HW217637   4.074   3.517   5.330
 5830SOL     OW17638   5.394   2.743   4.979
 5830SOL    HW117639   5.387   2.657   4.938
 5830SOL    HW217640   5.382   2.805   4.907
 5831SOL     OW17641   4.942   2.174   4.191
 5831SOL    HW117642   5.008   2.105   4.182
 5831SOL    HW217643   4.971   2.225   4.266
 5832SOL     OW17644   4.327   2.594   4.382
 5832SOL    HW117645   4.358   2.684   4.380
 5832SOL    HW217646   4.249   2.594   4.327
 5833SOL     OW17647   5.485   2.227   5.377
 5833SOL    HW117648   5.468   2.241   5.284
 5833SOL    HW217649   5.415   2.168   5.405
 5834SOL     OW17650   5.478   2.796   5.235
 5834SOL    HW117651   5.462   2.889   5.252
 5834SOL    HW217652   5.457   2.784   5.143
 5835SOL     OW17653   4.391   3.652   4.666
 5835SOL    HW117654   4.364   3.741   4.643
 5835SOL    HW217655   4.486   3.654   4.660
 5836SOL     OW17656   4.597   2.832   4.587
 5836SOL    HW117657   4.646   2.759   4.624
 5836SOL    HW217658   4.561   2.878   4.662
 5837SOL     OW17659   4.859   2.870   3.856
 5837SOL    HW117660   4.785   2.888   3.799
 5837SOL    HW217661   4.917   2.814   3.803
 5838SOL     OW17662   5.571   3.418   4.568
 5838SOL    HW117663   5.494   3.401   4.513
 5838SOL    HW217664   5.565   3.352   4.638
 5839SOL     OW17665   3.941   3.162   5.582
 5839SOL    HW117666   3.892   3.093   5.537
 5839SOL    HW217667   3.888   3.183   5.659
 5840SOL     OW17668   3.806   3.082   4.380
 5840SOL    HW117669   3.847   3.044   4.458
 5840SOL    HW217670   3.864   3.056   4.308
 5841SOL     OW17671   4.406   3.268   5.355
 5841SOL    HW117672   4.325   3.226   5.385
 5841SOL    HW217673   4.402   3.356   5.391
 5842SOL     OW17674   5.537   2.045   4.964
 5842SOL    HW117675   5.550   1.951   4.978
 5842SOL    HW217676   5.549   2.057   4.870
 5843SOL     OW17677   5.425   3.345   4.817
 5843SOL    HW117678   5.344   3.326   4.770
 5843SOL    HW217679   5.431   3.277   4.884
 5844SOL     OW17680   4.056   2.418   5.015
 5844SOL    HW117681   4.111   2.362   5.070
 5844SOL    HW217682   4.074   2.389   4.926
 5845SOL     OW17683   5.158   2.086   4.844
 5845SOL    HW117684   5.181   2.006   4.890
 5845SOL    HW217685   5.106   2.136   4.907
 5846SOL     OW17686   4.733   1.880   4.864
 5846SOL    HW117687   4.679   1.813   4.822
 5846SOL    HW217688   4.821   1.842   4.866
 5847SOL     OW17689   4.344   3.416   5.010
 5847SOL    HW117690   4.346   3.498   5.060
 5847SOL    HW217691   4.431   3.410   4.971
 5848SOL     OW17692   5.078   1.901   3.891
 5848SOL    HW117693   5.120   1.847   3.824
 5848SOL    HW217694   5.007   1.847   3.924
 5849SOL     OW17695   5.028   2.323   4.408
 5849SOL    HW117696   4.976   2.403   4.415
 5849SOL    HW217697   5.022   2.282   4.495
 5850SOL     OW17698   5.307   2.059   4.603
 5850SOL    HW117699   5.251   2.083   4.677
 5850SOL    HW217700   5.308   2.136   4.546
 5851SOL     OW17701   3.944   2.478   5.717
 5851SOL    HW117702   3.854   2.498   5.744
 5851SOL    HW217703   3.938   2.459   5.624
 5852SOL     OW17704   5.500   2.467   5.814
 5852SOL    HW117705   5.475   2.456   5.722
 5852SOL    HW217706   5.469   2.387   5.857
 5853SOL     OW17707   3.959   3.591   0.041
 5853SOL    HW117708   3.971   3.661   0.105
 5853SOL    HW217709   4.043   3.586   5.995
 5854SOL     OW17710   4.329   2.842   5.724
 5854SOL    HW117711   4.360   2.899   5.654
 5854SOL    HW217712   4.400   2.842   5.788
 5855SOL     OW17713   5.527   3.631   5.918
 5855SOL    HW117714   5.562   3.573   5.986
 5855SOL    HW217715   5.597   3.694   5.903
 5856SOL     OW17716   3.756   3.460   5.713
 5856SOL    HW117717   3.737   3.369   5.735
 5856SOL    HW217718   3.718   3.510   5.784
 5857SOL     OW17719   5.423   2.743   0.175
 5857SOL    HW117720   5.511   2.771   0.201
 5857SOL    HW217721   5.397   2.806   0.107
 5858SOL     OW17722   5.395   2.955   6.000
 5858SOL    HW117723   5.483   2.970   5.965
 5858SOL    HW217724   5.371   3.039   0.039
 5859SOL     OW17725   5.269   2.865   5.769
 5859SOL    HW117726   5.215   2.788   5.785
 5859SOL    HW217727   5.302   2.890   5.855
 5860SOL     OW17728   4.304   2.589   5.850
 5860SOL    HW117729   4.320   2.663   5.791
 5860SOL    HW217730   4.273   2.629   5.931
 5861SOL     OW17731   4.593   2.213   5.747
 5861SOL    HW117732   4.648   2.276   5.700
 5861SOL    HW217733   4.651   2.140   5.765
 5862SOL     OW17734   4.052   2.818   5.832
 5862SOL    HW117735   4.134   2.829   5.784
 5862SOL    HW217736   4.012   2.740   5.794
 5863SOL     OW17737   4.840   3.634   5.821
 5863SOL    HW117738   4.756   3.598   5.846
 5863SOL    HW217739   4.866   3.585   5.743
 5864SOL     OW17740   5.352   3.246   5.672
 5864SOL    HW117741   5.312   3.332   5.663
 5864SOL    HW217742   5.280   3.185   5.653
 5865SOL     OW17743   4.205   3.620   5.915
 5865SOL    HW117744   4.254   3.675   5.977
 5865SOL    HW217745   4.271   3.588   5.854
 5866SOL     OW17746   4.352   1.970   5.696
 5866SOL    HW117747   4.442   1.939   5.686
 5866SOL    HW217748   4.309   1.946   5.614
 5867SOL     OW17749   5.147   3.065   5.623
 5867SOL    HW117750   5.186   2.994   5.674
 5867SOL    HW217751   5.064   3.083   5.666
 5868SOL     OW17752   4.026   1.911   5.763
 5868SOL    HW117753   4.087   1.975   5.728
 5868SOL    HW217754   4.080   1.852   5.816
 5869SOL     OW17755   4.749   2.402   5.607
 5869SOL    HW117756   4.706   2.486   5.593
 5869SOL    HW217757   4.814   2.420   5.676
 5870SOL     OW17758   5.613   2.682   5.938
 5870SOL    HW117759   5.663   2.635   0.005
 5870SOL    HW217760   5.560   2.615   5.896
 5871SOL     OW17761   4.212   3.277   5.743
 5871SOL    HW117762   4.140   3.250   5.799
 5871SOL    HW217763   4.195   3.233   5.659
 5872SOL     OW17764   5.427   3.161   0.298
 5872SOL    HW117765   5.505   3.121   0.260
 5872SOL    HW217766   5.381   3.200   0.224
 5873SOL     OW17767   5.127   2.439   5.652
 5873SOL    HW117768   5.063   2.413   5.719
 5873SOL    HW217769   5.209   2.399   5.680
 5874SOL     OW17770   4.260   2.114   5.911
 5874SOL    HW117771   4.295   2.074   5.831
 5874SOL    HW217772   4.230   2.200   5.882
 5875SOL     OW17773   4.110   2.979   0.042
 5875SOL    HW117774   4.061   3.058   0.017
 5875SOL    HW217775   4.088   2.915   5.975
 5876SOL     OW17776   4.932   2.375   5.834
 5876SOL    HW117777   4.948   2.289   5.873
 5876SOL    HW217778   4.888   2.425   5.902
 5877SOL     OW17779   4.022   1.934   0.229
 5877SOL    HW117780   4.079   2.011   0.233
 5877SOL    HW217781   4.075   1.864   0.266
 5878SOL     OW17782   5.246   2.139   5.726
 5878SOL    HW117783   5.183   2.068   5.736
 5878SOL    HW217784   5.282   2.153   5.814
 5879SOL     OW17785   5.034   2.701   5.632
 5879SOL    HW117786   5.066   2.611   5.634
 5879SOL    HW217787   5.057   2.733   5.545
 5880SOL     OW17788   3.742   3.184   5.775
 5880SOL    HW117789   3.652   3.199   5.744
 5880SOL    HW217790   3.741   3.094   5.809
 5881SOL     OW17791   4.540   2.454   5.904
 5881SOL    HW117792   4.534   2.369   5.862
 5881SOL    HW217793   4.455   2.496   5.887
 5882SOL     OW17794   4.181   2.349   5.777
 5882SOL    HW117795   4.237   2.423   5.799
 5882SOL    HW217796   4.095   2.388   5.761
 5883SOL     OW17797   5.481   1.993   0.102
 5883SOL    HW117798   5.523   1.980   0.017
 5883SOL    HW217799   5.441   1.909   0.122
 5884SOL     OW17800   4.399   3.476   5.743
 5884SOL    HW117801   4.405   3.496   5.649
 5884SOL    HW217802   4.336   3.405   5.749
 5885SOL     OW17803   4.923   3.469   5.617
 5885SOL    HW117804   4.917   3.376   5.641
 5885SOL    HW217805   4.861   3.480   5.546
 5886SOL     OW17806   4.595   2.778   5.833
 5886SOL    HW117807   4.676   2.808   5.791
 5886SOL    HW217808   4.622   2.704   5.888
 5887SOL     OW17809   5.205   3.485   5.626
 5887SOL    HW117810   5.111   3.481   5.608
 5887SOL    HW217811   5.246   3.493   5.540
 5888SOL     OW17812   4.756   3.016   0.298
 5888SOL    HW117813   4.709   2.955   0.355
 5888SOL    HW217814   4.804   2.960   0.236
 5889SOL     OW17815   3.988   3.219   5.916
 5889SOL    HW117816   3.902   3.204   5.875
 5889SOL    HW217817   3.975   3.298   5.969
 5890SOL     OW17818   3.798   2.190   5.625
 5890SOL    HW117819   3.717   2.171   5.576
 5890SOL    HW217820   3.832   2.269   5.583
 5891SOL     OW17821   3.803   2.028   5.872
 5891SOL    HW117822   3.785   2.082   5.795
 5891SOL    HW217823   3.887   1.985   5.852
 5892SOL     OW17824   4.895   3.201   5.706
 5892SOL    HW117825   4.804   3.173   5.703
 5892SOL    HW217826   4.921   3.193   5.798
 5893SOL     OW17827   4.947   2.166   0.024
 5893SOL    HW117828   5.028   2.129   0.057
 5893SOL    HW217829   4.926   2.237   0.086
 5894SOL     OW17830   4.588   3.237   5.623
 5894SOL    HW117831   4.548   3.283   5.696
 5894SOL    HW217832   4.611   3.306   5.561
 5895SOL     OW17833   4.811   2.855   5.685
 5895SOL    HW117834   4.791   2.899   5.603
 5895SOL    HW217835   4.888   2.802   5.666
 5896SOL     OW17836   5.080   1.919   5.738
 5896SOL    HW117837   5.111   1.837   5.700
 5896SOL    HW217838   4.996   1.896   5.779
 5897SOL     OW17839   3.793   2.937   5.881
 5897SOL    HW117840   3.886   2.924   5.863
 5897SOL    HW217841   3.759   2.849   5.897
 5898SOL     OW17842   4.607   3.515   5.924
 5898SOL    HW117843   4.537   3.504   5.860
 5898SOL    HW217844   4.574   3.581   5.985
 5899SOL     OW17845   3.943   4.359   0.131
 5899SOL    HW117846   3.862   4.328   0.171
 5899SOL    HW217847   3.937   4.330   0.040
 5900SOL     OW17848   3.949   4.005   0.993
 5900SOL    HW117849   3.977   3.970   1.078
 5900SOL    HW217850   3.860   3.974   0.982
 5901SOL     OW17851   3.726   4.109   0.639
 5901SOL    HW117852   3.642   4.131   0.680
 5901SOL    HW217853   3.707   4.031   0.586
 5902SOL     OW17854   4.289   5.017   1.180
 5902SOL    HW117855   4.204   5.024   1.135
 5902SOL    HW217856   4.307   5.107   1.209
 5903SOL     OW17857   5.287   5.238   0.708
 5903SOL    HW117858   5.244   5.215   0.790
 5903SOL    HW217859   5.216   5.242   0.644
 5904SOL     OW17860   4.854   4.422   0.698
 5904SOL    HW117861   4.904   4.503   0.686
 5904SOL    HW217862   4.808   4.434   0.780
 5905SOL     OW17863   5.506   4.319   0.250
 5905SOL    HW117864   5.469   4.329   0.162
 5905SOL    HW217865   5.466   4.239   0.284
 5906SOL     OW17866   4.475   4.864   1.045
 5906SOL    HW117867   4.408   4.900   1.102
 5906SOL    HW217868   4.512   4.940   1.000
 5907SOL     OW17869   4.620   4.533   1.830
 5907SOL    HW117870   4.610   4.613   1.880
 5907SOL    HW217871   4.637   4.562   1.740
 5908SOL     OW17872   4.410   4.725   0.646
 5908SOL    HW117873   4.476   4.714   0.715
 5908SOL    HW217874   4.341   4.777   0.686
 5909SOL     OW17875   4.410   4.893   1.775
 5909SOL    HW117876   4.467   4.967   1.794
 5909SOL    HW217877   4.322   4.931   1.769
 5910SOL     OW17878   4.053   5.143   1.067
 5910SOL    HW117879   3.980   5.106   1.019
 5910SOL    HW217880   4.101   5.195   1.002
 5911SOL     OW17881   5.185   5.225   1.358
 5911SOL    HW117882   5.238   5.304   1.365
 5911SOL    HW217883   5.119   5.233   1.427
 5912SOL     OW17884   4.182   4.118   1.485
 5912SOL    HW117885   4.254   4.056   1.494
 5912SOL    HW217886   4.103   4.067   1.505
 5913SOL     OW17887   5.332   4.168   0.741
 5913SOL    HW117888   5.261   4.192   0.682
 5913SOL    HW217889   5.353   4.249   0.788
 5914SOL     OW17890   3.943   5.439   0.475
 5914SOL    HW117891   3.964   5.516   0.528
 5914SOL    HW217892   4.020   5.426   0.419
 5915SOL     OW17893   4.870   5.076   1.694
 5915SOL    HW117894   4.930   5.052   1.764
 5915SOL    HW217895   4.816   4.999   1.681
 5916SOL     OW17896   3.949   5.164   0.532
 5916SOL    HW117897   3.932   5.259   0.539
 5916SOL    HW217898   3.893   5.125   0.599
 5917SOL     OW17899   3.984   4.812   0.893
 5917SOL    HW117900   3.981   4.725   0.931
 5917SOL    HW217901   3.925   4.864   0.947
 5918SOL     OW17902   4.337   5.511   1.432
 5918SOL    HW117903   4.253   5.496   1.476
 5918SOL    HW217904   4.359   5.602   1.453
 5919SOL     OW17905   4.334   4.687   0.132
 5919SOL    HW117906   4.287   4.758   0.088
 5919SOL    HW217907   4.374   4.728   0.208
 5920SOL     OW17908   5.319   3.850   1.466
 5920SOL    HW117909   5.330   3.931   1.416
 5920SOL    HW217910   5.303   3.878   1.556
 5921SOL     OW17911   3.850   4.366   0.568
 5921SOL    HW117912   3.811   4.281   0.586
 5921SOL    HW217913   3.836   4.416   0.649
 5922SOL     OW17914   5.572   5.488   0.333
 5922SOL    HW117915   5.635   5.461   0.400
 5922SOL    HW217916   5.585   5.582   0.323
 5923SOL     OW17917   3.698   5.308   0.128
 5923SOL    HW117918   3.724   5.221   0.158
 5923SOL    HW217919   3.722   5.366   0.201
 5924SOL     OW17920   5.420   4.624   0.654
 5924SOL    HW117921   5.501   4.580   0.627
 5924SOL    HW217922   5.395   4.676   0.578
 5925SOL     OW17923   5.362   4.813   0.461
 5925SOL    HW117924   5.395   4.868   0.390
 5925SOL    HW217925   5.366   4.868   0.539
 5926SOL     OW17926   3.830   4.453   1.594
 5926SOL    HW117927   3.912   4.482   1.633
 5926SOL    HW217928   3.781   4.534   1.579
 5927SOL     OW17929   4.339   5.112   0.735
 5927SOL    HW117930   4.294   5.028   0.744
 5927SOL    HW217931   4.322   5.138   0.644
 5928SOL     OW17932   5.014   4.963   1.423
 5928SOL    HW117933   5.044   4.895   1.362
 5928SOL    HW217934   5.074   4.956   1.498
 5929SOL     OW17935   4.544   3.726   0.514
 5929SOL    HW117936   4.584   3.811   0.491
 5929SOL    HW217937   4.451   3.746   0.523
 5930SOL     OW17938   3.909   4.688   1.267
 5930SOL    HW117939   3.995   4.648   1.255
 5930SOL    HW217940   3.850   4.635   1.213
 5931SOL     OW17941   5.183   4.764   0.229
 5931SOL    HW117942   5.131   4.689   0.258
 5931SOL    HW217943   5.267   4.753   0.273
 5932SOL     OW17944   4.910   5.525   1.620
 5932SOL    HW117945   4.924   5.584   1.546
 5932SOL    HW217946   4.925   5.437   1.584
 5933SOL     OW17947   5.189   5.144   0.950
 5933SOL    HW117948   5.121   5.159   1.015
 5933SOL    HW217949   5.177   5.052   0.924
 5934SOL     OW17950   5.386   5.462   0.577
 5934SOL    HW117951   5.362   5.434   0.489
 5934SOL    HW217952   5.361   5.389   0.634
 5935SOL     OW17953   4.321   4.444   0.269
 5935SOL    HW117954   4.332   4.525   0.220
 5935SOL    HW217955   4.256   4.465   0.336
 5936SOL     OW17956   5.003   4.083   0.935
 5936SOL    HW117957   4.914   4.049   0.943
 5936SOL    HW217958   5.055   4.027   0.994
 5937SOL     OW17959   5.307   5.395   0.311
 5937SOL    HW117960   5.400   5.416   0.305
 5937SOL    HW217961   5.281   5.375   0.221
 5938SOL     OW17962   4.506   4.332   1.475
 5938SOL    HW117963   4.494   4.291   1.561
 5938SOL    HW217964   4.472   4.268   1.413
 5939SOL     OW17965   5.123   4.198   1.676
 5939SOL    HW117966   5.126   4.241   1.762
 5939SOL    HW217967   5.178   4.121   1.685
 5940SOL     OW17968   4.684   4.611   1.576
 5940SOL    HW117969   4.733   4.537   1.539
 5940SOL    HW217970   4.633   4.645   1.503
 5941SOL     OW17971   4.715   4.135   1.236
 5941SOL    HW117972   4.627   4.153   1.269
 5941SOL    HW217973   4.701   4.090   1.152
 5942SOL     OW17974   4.778   4.418   0.427
 5942SOL    HW117975   4.796   4.415   0.521
 5942SOL    HW217976   4.696   4.371   0.417
 5943SOL     OW17977   3.813   4.544   0.778
 5943SOL    HW117978   3.895   4.538   0.828
 5943SOL    HW217979   3.770   4.622   0.812
 5944SOL     OW17980   3.849   5.564   1.587
 5944SOL    HW117981   3.842   5.544   1.680
 5944SOL    HW217982   3.758   5.575   1.558
 5945SOL     OW17983   4.612   4.074   0.203
 5945SOL    HW117984   4.666   4.126   0.144
 5945SOL    HW217985   4.609   3.987   0.162
 5946SOL     OW17986   5.432   4.298   1.827
 5946SOL    HW117987   5.393   4.369   1.776
 5946SOL    HW217988   5.459   4.233   1.761
 5947SOL     OW17989   5.098   4.866   0.540
 5947SOL    HW117990   5.175   4.846   0.488
 5947SOL    HW217991   5.050   4.930   0.487
 5948SOL     OW17992   4.273   3.905   0.894
 5948SOL    HW117993   4.276   3.934   0.985
 5948SOL    HW217994   4.274   3.985   0.842
 5949SOL     OW17995   4.733   5.174   0.476
 5949SOL    HW117996   4.695   5.244   0.423
 5949SOL    HW217997   4.704   5.194   0.565
 5950SOL     OW17998   4.079   5.535   0.866
 5950SOL    HW117999   4.125   5.451   0.873
 5950SOL    HW218000   4.146   5.601   0.884
 5951SOL     OW18001   5.532   4.778   0.869
 5951SOL    HW118002   5.479   4.758   0.792
 5951SOL    HW218003   5.470   4.784   0.941
 5952SOL     OW18004   4.949   5.267   1.510
 5952SOL    HW118005   4.938   5.195   1.572
 5952SOL    HW218006   4.888   5.246   1.439
 5953SOL     OW18007   4.034   4.672   0.261
 5953SOL    HW118008   4.083   4.714   0.190
 5953SOL    HW218009   4.025   4.581   0.233
 5954SOL     OW18010   5.201   4.469   0.727
 5954SOL    HW118011   5.198   4.426   0.813
 5954SOL    HW218012   5.282   4.519   0.728
 5955SOL     OW18013   4.150   5.011   1.770
 5955SOL    HW118014   4.123   5.030   1.680
 5955SOL    HW218015   4.124   4.920   1.785
 5956SOL     OW18016   4.842   5.501   0.225
 5956SOL    HW118017   4.777   5.455   0.279
 5956SOL    HW218018   4.878   5.433   0.168
 5957SOL     OW18019   3.922   4.007   1.506
 5957SOL    HW118020   3.851   4.069   1.488
 5957SOL    HW218021   3.910   3.984   1.598
 5958SOL     OW18022   5.338   5.094   0.048
 5958SOL    HW118023   5.325   5.188   0.043
 5958SOL    HW218024   5.255   5.057   0.019
 5959SOL     OW18025   4.194   5.457   0.336
 5959SOL    HW118026   4.238   5.518   0.395
 5959SOL    HW218027   4.259   5.437   0.269
 5960SOL     OW18028   5.129   3.832   0.434
 5960SOL    HW118029   5.125   3.810   0.340
 5960SOL    HW218030   5.222   3.842   0.452
 5961SOL     OW18031   3.976   5.512   1.233
 5961SOL    HW118032   4.033   5.446   1.272
 5961SOL    HW218033   3.971   5.487   1.140
 5962SOL     OW18034   4.664   5.421   0.900
 5962SOL    HW118035   4.745   5.373   0.916
 5962SOL    HW218036   4.619   5.370   0.833
 5963SOL     OW18037   4.118   4.418   0.475
 5963SOL    HW118038   4.141   4.325   0.486
 5963SOL    HW218039   4.025   4.423   0.496
 5964SOL     OW18040   5.255   3.948   1.721
 5964SOL    HW118041   5.265   3.967   1.814
 5964SOL    HW218042   5.183   3.885   1.718
 5965SOL     OW18043   4.343   3.806   0.105
 5965SOL    HW118044   4.439   3.813   0.106
 5965SOL    HW218045   4.315   3.872   0.041
 5966SOL     OW18046   4.601   5.247   1.194
 5966SOL    HW118047   4.586   5.212   1.107
 5966SOL    HW218048   4.672   5.193   1.230
 5967SOL     OW18049   5.066   4.314   1.431
 5967SOL    HW118050   5.098   4.282   1.516
 5967SOL    HW218051   5.103   4.402   1.423
 5968SOL     OW18052   4.540   5.117   0.942
 5968SOL    HW118053   4.624   5.106   0.899
 5968SOL    HW218054   4.477   5.122   0.871
 5969SOL     OW18055   4.652   4.233   0.902
 5969SOL    HW118056   4.628   4.225   0.809
 5969SOL    HW218057   4.682   4.145   0.926
 5970SOL     OW18058   4.278   3.791   0.507
 5970SOL    HW118059   4.197   3.789   0.559
 5970SOL    HW218060   4.268   3.867   0.450
 5971SOL     OW18061   5.113   4.936   0.024
 5971SOL    HW118062   5.144   4.871   0.087
 5971SOL    HW218063   5.037   4.976   0.065
 5972SOL     OW18064   4.665   3.972   0.458
 5972SOL    HW118065   4.640   4.013   0.375
 5972SOL    HW218066   4.759   3.986   0.465
 5973SOL     OW18067   4.802   4.397   1.455
 5973SOL    HW118068   4.739   4.326   1.468
 5973SOL    HW218069   4.887   4.353   1.450
 5974SOL     OW18070   4.942   5.300   0.798
 5974SOL    HW118071   4.959   5.361   0.727
 5974SOL    HW218072   5.017   5.310   0.858
 5975SOL     OW18073   4.194   4.875   0.732
 5975SOL    HW118074   4.126   4.855   0.796
 5975SOL    HW218075   4.152   4.859   0.647
 5976SOL     OW18076   4.990   5.521   0.609
 5976SOL    HW118077   5.040   5.583   0.555
 5976SOL    HW218078   4.921   5.574   0.649
 5977SOL     OW18079   4.759   4.265   0.055
 5977SOL    HW118080   4.680   4.303   0.016
 5977SOL    HW218081   4.780   4.323   0.128
 5978SOL     OW18082   3.805   4.268   1.394
 5978SOL    HW118083   3.897   4.272   1.367
 5978SOL    HW218084   3.800   4.331   1.467
 5979SOL     OW18085   4.283   3.952   1.170
 5979SOL    HW118086   4.325   3.877   1.212
 5979SOL    HW218087   4.192   3.949   1.200
 5980SOL     OW18088   4.591   4.183   0.637
 5980SOL    HW118089   4.545   4.237   0.573
 5980SOL    HW218090   4.613   4.103   0.589
 5981SOL     OW18091   4.740   3.777   0.749
 5981SOL    HW118092   4.681   3.769   0.674
 5981SOL    HW218093   4.719   3.703   0.804
 5982SOL     OW18094   5.163   4.884   0.859
 5982SOL    HW118095   5.092   4.820   0.849
 5982SOL    HW218096   5.195   4.897   0.770
 5983SOL     OW18097   5.188   4.331   0.975
 5983SOL    HW118098   5.137   4.250   0.975
 5983SOL    HW218099   5.247   4.322   1.050
 5984SOL     OW18100   5.601   4.540   0.395
 5984SOL    HW118101   5.650   4.479   0.451
 5984SOL    HW218102   5.555   4.483   0.334
 5985SOL     OW18103   4.209   5.138   0.159
 5985SOL    HW118104   4.132   5.112   0.211
 5985SOL    HW218105   4.202   5.087   0.079
 5986SOL     OW18106   5.390   4.983   0.670
 5986SOL    HW118107   5.486   4.990   0.664
 5986SOL    HW218108   5.360   5.074   0.670
 5987SOL     OW18109   5.131   4.298   0.093
 5987SOL    HW118110   5.071   4.288   0.167
 5987SOL    HW218111   5.178   4.215   0.089
 5988SOL     OW18112   4.234   3.976   0.308
 5988SOL    HW118113   4.284   3.927   0.242
 5988SOL    HW218114   4.221   4.062   0.269
 5989SOL     OW18115   5.477   4.961   1.569
 5989SOL    HW118116   5.565   4.927   1.553
 5989SOL    HW218117   5.491   5.052   1.596
 5990SOL     OW18118   4.782   5.081   1.336
 5990SOL    HW118119   4.707   5.048   1.384
 5990SOL    HW218120   4.857   5.037   1.375
 5991SOL     OW18121   5.331   5.349   1.653
 5991SOL    HW118122   5.326   5.385   1.564
 5991SOL    HW218123   5.413   5.301   1.655
 5992SOL     OW18124   4.855   4.933   1.105
 5992SOL    HW118125   4.792   4.968   1.167
 5992SOL    HW218126   4.826   4.964   1.019
 5993SOL     OW18127   5.351   4.820   1.074
 5993SOL    HW118128   5.343   4.882   1.146
 5993SOL    HW218129   5.275   4.837   1.018
 5994SOL     OW18130   4.641   3.820   1.397
 5994SOL    HW118131   4.661   3.800   1.305
 5994SOL    HW218132   4.721   3.859   1.431
 5995SOL     OW18133   4.717   4.855   1.694
 5995SOL    HW118134   4.644   4.850   1.754
 5995SOL    HW218135   4.715   4.772   1.647
 5996SOL     OW18136   4.435   4.788   0.374
 5996SOL    HW118137   4.416   4.773   0.466
 5996SOL    HW218138   4.503   4.725   0.352
 5997SOL     OW18139   4.141   4.541   1.254
 5997SOL    HW118140   4.210   4.550   1.320
 5997SOL    HW218141   4.109   4.452   1.265
 5998SOL     OW18142   4.988   4.099   1.277
 5998SOL    HW118143   5.021   4.177   1.322
 5998SOL    HW218144   4.897   4.121   1.255
 5999SOL     OW18145   3.795   5.300   1.351
 5999SOL    HW118146   3.765   5.372   1.297
 5999SOL    HW218147   3.891   5.305   1.347
 6000SOL     OW18148   4.069   4.834   0.490
 6000SOL    HW118149   4.081   4.905   0.427
 6000SOL    HW218150   4.065   4.755   0.436
 6001SOL     OW18151   4.277   4.257   0.859
 6001SOL    HW118152   4.291   4.316   0.785
 6001SOL    HW218153   4.343   4.284   0.923
 6002SOL     OW18154   4.980   5.076   0.394
 6002SOL    HW118155   5.029   5.150   0.429
 6002SOL    HW218156   4.890   5.089   0.425
 6003SOL     OW18157   5.006   5.183   1.149
 6003SOL    HW118158   5.062   5.184   1.226
 6003SOL    HW218159   4.952   5.105   1.160
 6004SOL     OW18160   5.303   4.346   0.482
 6004SOL    HW118161   5.254   4.403   0.543
 6004SOL    HW218162   5.336   4.406   0.415
 6005SOL     OW18163   4.073   5.248   1.316
 6005SOL    HW118164   4.058   5.206   1.231
 6005SOL    HW218165   4.167   5.263   1.319
 6006SOL     OW18166   5.328   4.504   1.680
 6006SOL    HW118167   5.241   4.544   1.671
 6006SOL    HW218168   5.380   4.545   1.611
 6007SOL     OW18169   4.773   3.836   1.790
 6007SOL    HW118170   4.760   3.911   1.732
 6007SOL    HW218171   4.810   3.769   1.733
 6008SOL     OW18172   4.306   4.599   1.031
 6008SOL    HW118173   4.341   4.688   1.033
 6008SOL    HW218174   4.252   4.592   1.110
 6009SOL     OW18175   5.078   4.581   1.028
 6009SOL    HW118176   4.996   4.572   0.980
 6009SOL    HW218177   5.121   4.496   1.019
 6010SOL     OW18178   4.940   4.245   0.283
 6010SOL    HW118179   4.944   4.166   0.337
 6010SOL    HW218180   4.898   4.310   0.339
 6011SOL     OW18181   4.020   3.922   1.251
 6011SOL    HW118182   3.985   3.953   1.335
 6011SOL    HW218183   4.002   3.828   1.250
 6012SOL     OW18184   3.763   5.036   1.279
 6012SOL    HW118185   3.802   4.986   1.350
 6012SOL    HW218186   3.773   5.128   1.306
 6013SOL     OW18187   4.448   4.356   1.056
 6013SOL    HW118188   4.523   4.341   0.999
 6013SOL    HW218189   4.419   4.445   1.034
 6014SOL     OW18190   5.461   4.687   1.844
 6014SOL    HW118191   5.415   4.618   1.795
 6014SOL    HW218192   5.405   4.706   1.919
 6015SOL     OW18193   4.028   3.788   0.623
 6015SOL    HW118194   4.006   3.879   0.644
 6015SOL    HW218195   4.035   3.744   0.708
 6016SOL     OW18196   5.349   4.102   0.366
 6016SOL    HW118197   5.369   4.035   0.431
 6016SOL    HW218198   5.324   4.178   0.418
 6017SOL     OW18199   4.754   4.482   0.959
 6017SOL    HW118200   4.750   4.500   1.053
 6017SOL    HW218201   4.728   4.390   0.951
 6018SOL     OW18202   4.699   5.290   1.716
 6018SOL    HW118203   4.687   5.333   1.631
 6018SOL    HW218204   4.755   5.215   1.696
 6019SOL     OW18205   5.572   5.222   1.601
 6019SOL    HW118206   5.594   5.254   1.513
 6019SOL    HW218207   5.650   5.241   1.653
 6020SOL     OW18208   5.220   4.035   0.130
 6020SOL    HW118209   5.212   3.940   0.135
 6020SOL    HW218210   5.273   4.059   0.206
 6021SOL     OW18211   5.016   4.536   0.025
 6021SOL    HW118212   5.064   4.456   0.045
 6021SOL    HW218213   5.065   4.576   5.953
 6022SOL     OW18214   4.792   5.061   0.856
 6022SOL    HW118215   4.795   4.990   0.792
 6022SOL    HW218216   4.851   5.127   0.821
 6023SOL     OW18217   4.033   4.534   0.949
 6023SOL    HW118218   4.126   4.555   0.944
 6023SOL    HW218219   4.030   4.443   0.980
 6024SOL     OW18220   4.052   4.254   1.011
 6024SOL    HW118221   4.018   4.165   0.998
 6024SOL    HW218222   4.130   4.258   0.955
 6025SOL     OW18223   4.857   4.111   1.666
 6025SOL    HW118224   4.812   4.158   1.736
 6025SOL    HW218225   4.947   4.145   1.669
 6026SOL     OW18226   4.887   3.920   1.471
 6026SOL    HW118227   4.874   3.985   1.541
 6026SOL    HW218228   4.926   3.970   1.399
 6027SOL     OW18229   3.814   5.511   0.941
 6027SOL    HW118230   3.785   5.432   0.895
 6027SOL    HW218231   3.903   5.525   0.910
 6028SOL     OW18232   4.220   5.296   0.907
 6028SOL    HW118233   4.288   5.359   0.931
 6028SOL    HW218234   4.263   5.234   0.848
 6029SOL     OW18235   4.704   4.515   1.225
 6029SOL    HW118236   4.760   4.488   1.298
 6029SOL    HW218237   4.618   4.480   1.246
 6030SOL     OW18238   3.762   4.271   1.116
 6030SOL    HW118239   3.842   4.261   1.065
 6030SOL    HW218240   3.790   4.268   1.207
 6031SOL     OW18241   5.102   4.662   1.655
 6031SOL    HW118242   5.121   4.755   1.652
 6031SOL    HW218243   5.097   4.636   1.563
 6032SOL     OW18244   4.541   4.296   0.364
 6032SOL    HW118245   4.544   4.220   0.305
 6032SOL    HW218246   4.466   4.346   0.334
 6033SOL     OW18247   5.367   4.328   1.186
 6033SOL    HW118248   5.357   4.266   1.258
 6033SOL    HW218249   5.453   4.307   1.149
 6034SOL     OW18250   3.963   5.277   1.734
 6034SOL    HW118251   3.934   5.354   1.782
 6034SOL    HW218252   3.990   5.215   1.802
 6035SOL     OW18253   4.435   4.174   1.260
 6035SOL    HW118254   4.378   4.102   1.234
 6035SOL    HW218255   4.427   4.238   1.190
 6036SOL     OW18256   4.647   5.402   1.467
 6036SOL    HW118257   4.624   5.362   1.383
 6036SOL    HW218258   4.639   5.496   1.453
 6037SOL     OW18259   4.183   4.218   0.195
 6037SOL    HW118260   4.244   4.289   0.215
 6037SOL    HW218261   4.099   4.262   0.184
 6038SOL     OW18262   3.868   4.860   1.470
 6038SOL    HW118263   3.894   4.802   1.542
 6038SOL    HW218264   3.874   4.806   1.392
 6039SOL     OW18265   5.048   4.771   1.222
 6039SOL    HW118266   5.071   4.708   1.154
 6039SOL    HW218267   4.980   4.825   1.183
 6040SOL     OW18268   5.012   4.564   0.313
 6040SOL    HW118269   4.936   4.527   0.359
 6040SOL    HW218270   4.996   4.545   0.221
 6041SOL     OW18271   5.495   5.460   1.152
 6041SOL    HW118272   5.556   5.494   1.087
 6041SOL    HW218273   5.473   5.372   1.122
 6042SOL     OW18274   4.966   5.458   1.113
 6042SOL    HW118275   5.048   5.480   1.069
 6042SOL    HW218276   4.973   5.364   1.129
 6043SOL     OW18277   3.807   4.993   1.011
 6043SOL    HW118278   3.787   5.004   1.104
 6043SOL    HW218279   3.737   4.937   0.978
 6044SOL     OW18280   4.401   5.397   1.732
 6044SOL    HW118281   4.346   5.475   1.728
 6044SOL    HW218282   4.466   5.410   1.662
 6045SOL     OW18283   4.632   3.808   0.106
 6045SOL    HW118284   4.697   3.827   0.038
 6045SOL    HW218285   4.680   3.758   0.172
 6046SOL     OW18286   5.424   3.871   0.511
 6046SOL    HW118287   5.503   3.865   0.458
 6046SOL    HW218288   5.416   3.784   0.552
 6047SOL     OW18289   5.115   5.297   0.492
 6047SOL    HW118290   5.175   5.327   0.424
 6047SOL    HW218291   5.068   5.376   0.518
 6048SOL     OW18292   3.856   5.498   1.859
 6048SOL    HW118293   3.794   5.460   1.921
 6048SOL    HW218294   3.911   5.556   1.912
 6049SOL     OW18295   5.000   4.652   0.675
 6049SOL    HW118296   5.074   4.592   0.682
 6049SOL    HW218297   5.033   4.723   0.619
 6050SOL     OW18298   4.534   5.000   1.424
 6050SOL    HW118299   4.508   5.037   1.508
 6050SOL    HW218300   4.463   5.023   1.364
 6051SOL     OW18301   4.392   5.336   0.163
 6051SOL    HW118302   4.411   5.330   0.069
 6051SOL    HW218303   4.335   5.261   0.180
 6052SOL     OW18304   5.346   5.452   1.390
 6052SOL    HW118305   5.396   5.458   1.308
 6052SOL    HW218306   5.326   5.542   1.413
 6053SOL     OW18307   5.568   3.899   0.969
 6053SOL    HW118308   5.597   3.813   0.941
 6053SOL    HW218309   5.482   3.910   0.927
 6054SOL     OW18310   3.985   4.041   0.716
 6054SOL    HW118311   3.899   4.076   0.694
 6054SOL    HW218312   3.984   4.033   0.811
 6055SOL     OW18313   4.947   5.322   0.038
 6055SOL    HW118314   4.927   5.232   0.066
 6055SOL    HW218315   4.885   5.338   5.966
 6056SOL     OW18316   4.551   4.731   1.369
 6056SOL    HW118317   4.595   4.727   1.284
 6056SOL    HW218318   4.548   4.824   1.391
 6057SOL     OW18319   4.633   4.620   0.298
 6057SOL    HW118320   4.682   4.637   0.217
 6057SOL    HW218321   4.680   4.549   0.340
 6058SOL     OW18322   5.221   5.360   0.046
 6058SOL    HW118323   5.128   5.344   0.034
 6058SOL    HW218324   5.254   5.382   5.958
 6059SOL     OW18325   4.083   5.037   1.510
 6059SOL    HW118326   4.087   5.108   1.446
 6059SOL    HW218327   4.017   4.977   1.473
 6060SOL     OW18328   5.333   5.006   1.280
 6060SOL    HW118329   5.396   4.997   1.351
 6060SOL    HW218330   5.272   5.074   1.310
 6061SOL     OW18331   4.778   4.831   0.707
 6061SOL    HW118332   4.708   4.778   0.746
 6061SOL    HW218333   4.844   4.768   0.680
 6062SOL     OW18334   4.745   3.965   0.966
 6062SOL    HW118335   4.742   3.918   0.883
 6062SOL    HW218336   4.740   3.897   1.033
 6063SOL     OW18337   4.331   5.213   0.479
 6063SOL    HW118338   4.376   5.163   0.411
 6063SOL    HW218339   4.262   5.260   0.432
 6064SOL     OW18340   5.450   4.121   1.379
 6064SOL    HW118341   5.524   4.182   1.374
 6064SOL    HW218342   5.476   4.048   1.324
 6065SOL     OW18343   3.976   5.061   0.285
 6065SOL    HW118344   3.899   5.004   0.283
 6065SOL    HW218345   3.972   5.105   0.369
 6066SOL     OW18346   4.399   3.922   1.509
 6066SOL    HW118347   4.486   3.907   1.471
 6066SOL    HW218348   4.414   3.917   1.604
 6067SOL     OW18349   3.762   4.129   0.026
 6067SOL    HW118350   3.718   4.047   0.050
 6067SOL    HW218351   3.833   4.101   5.968
 6068SOL     OW18352   5.155   4.582   1.397
 6068SOL    HW118353   5.104   4.642   1.343
 6068SOL    HW218354   5.243   4.584   1.360
 6069SOL     OW18355   3.784   3.888   0.339
 6069SOL    HW118356   3.744   3.942   0.271
 6069SOL    HW218357   3.870   3.865   0.305
 6070SOL     OW18358   4.895   5.069   0.130
 6070SOL    HW118359   4.808   5.029   0.136
 6070SOL    HW218360   4.929   5.064   0.220
 6071SOL     OW18361   4.347   4.555   1.428
 6071SOL    HW118362   4.410   4.626   1.414
 6071SOL    HW218363   4.400   4.479   1.452
 6072SOL     OW18364   5.210   5.508   0.985
 6072SOL    HW118365   5.232   5.566   0.912
 6072SOL    HW218366   5.295   5.481   1.021
 6073SOL     OW18367   5.197   4.923   1.634
 6073SOL    HW118368   5.185   4.940   1.728
 6073SOL    HW218369   5.290   4.940   1.619
 6074SOL     OW18370   4.101   5.460   1.562
 6074SOL    HW118371   4.016   5.503   1.549
 6074SOL    HW218372   4.079   5.376   1.602
 6075SOL     OW18373   5.394   4.605   1.254
 6075SOL    HW118374   5.387   4.519   1.213
 6075SOL    HW218375   5.381   4.667   1.183
 6076SOL     OW18376   4.939   4.035   0.463
 6076SOL    HW118377   5.005   3.966   0.453
 6076SOL    HW218378   4.968   4.086   0.538
 6077SOL     OW18379   4.314   4.460   0.671
 6077SOL    HW118380   4.353   4.546   0.656
 6077SOL    HW218381   4.247   4.452   0.603
 6078SOL     OW18382   5.485   4.089   1.652
 6078SOL    HW118383   5.468   4.104   1.559
 6078SOL    HW218384   5.416   4.029   1.679
 6079SOL     OW18385   5.478   4.658   1.511
 6079SOL    HW118386   5.464   4.752   1.526
 6079SOL    HW218387   5.457   4.646   1.418
 6080SOL     OW18388   4.598   5.102   0.026
 6080SOL    HW118389   4.556   5.093   0.112
 6080SOL    HW218390   4.610   5.196   0.015
 6081SOL     OW18391   4.388   5.508   0.942
 6081SOL    HW118392   4.366   5.599   0.922
 6081SOL    HW218393   4.484   5.505   0.937
 6082SOL     OW18394   4.591   4.690   0.856
 6082SOL    HW118395   4.643   4.619   0.894
 6082SOL    HW218396   4.556   4.737   0.931
 6083SOL     OW18397   4.800   4.691   0.088
 6083SOL    HW118398   4.772   4.739   0.010
 6083SOL    HW218399   4.880   4.646   0.061
 6084SOL     OW18400   5.572   5.281   0.843
 6084SOL    HW118401   5.496   5.265   0.787
 6084SOL    HW218402   5.565   5.214   0.912
 6085SOL     OW18403   3.810   4.955   0.666
 6085SOL    HW118404   3.815   4.906   0.748
 6085SOL    HW218405   3.876   4.915   0.610
 6086SOL     OW18406   4.392   5.142   1.613
 6086SOL    HW118407   4.309   5.103   1.640
 6086SOL    HW218408   4.394   5.227   1.657
 6087SOL     OW18409   5.537   3.907   1.241
 6087SOL    HW118410   5.550   3.813   1.254
 6087SOL    HW218411   5.549   3.920   1.147
 6088SOL     OW18412   4.159   4.154   0.525
 6088SOL    HW118413   4.177   4.083   0.464
 6088SOL    HW218414   4.106   4.114   0.594
 6089SOL     OW18415   5.425   5.205   1.091
 6089SOL    HW118416   5.344   5.186   1.044
 6089SOL    HW218417   5.430   5.136   1.158
 6090SOL     OW18418   4.057   4.279   1.293
 6090SOL    HW118419   4.114   4.224   1.348
 6090SOL    HW218420   4.076   4.250   1.203
 6091SOL     OW18421   4.553   5.303   0.676
 6091SOL    HW118422   4.535   5.368   0.609
 6091SOL    HW218423   4.479   5.243   0.674
 6092SOL     OW18424   5.157   3.950   1.119
 6092SOL    HW118425   5.178   3.867   1.163
 6092SOL    HW218426   5.105   3.998   1.183
 6093SOL     OW18427   4.732   3.741   1.139
 6093SOL    HW118428   4.679   3.673   1.098
 6093SOL    HW218429   4.820   3.704   1.143
 6094SOL     OW18430   4.503   5.056   0.308
 6094SOL    HW118431   4.469   4.967   0.319
 6094SOL    HW218432   4.591   5.052   0.345
 6095SOL     OW18433   4.344   5.279   1.284
 6095SOL    HW118434   4.347   5.360   1.335
 6095SOL    HW218435   4.432   5.272   1.245
 6096SOL     OW18436   5.081   3.777   0.161
 6096SOL    HW118437   5.111   3.711   0.099
 6096SOL    HW218438   4.992   3.751   0.184
 6097SOL     OW18439   5.018   4.186   0.679
 6097SOL    HW118440   4.968   4.267   0.686
 6097SOL    HW218441   5.016   4.149   0.767
 6098SOL     OW18442   5.309   3.922   0.879
 6098SOL    HW118443   5.252   3.945   0.952
 6098SOL    HW218444   5.308   3.999   0.823
 6099SOL     OW18445   3.788   4.801   0.296
 6099SOL    HW118446   3.876   4.770   0.277
 6099SOL    HW218447   3.751   4.734   0.354
 6100SOL     OW18448   4.612   5.381   0.335
 6100SOL    HW118449   4.536   5.358   0.281
 6100SOL    HW218450   4.579   5.447   0.396
 6101SOL     OW18451   5.305   5.243   2.518
 6101SOL    HW118452   5.251   5.231   2.597
 6101SOL    HW218453   5.241   5.255   2.448
 6102SOL     OW18454   4.874   4.428   2.625
 6102SOL    HW118455   4.897   4.495   2.561
 6102SOL    HW218456   4.783   4.407   2.607
 6103SOL     OW18457   5.496   4.328   2.088
 6103SOL    HW118458   5.477   4.320   1.995
 6103SOL    HW218459   5.457   4.249   2.127
 6104SOL     OW18460   4.662   4.552   3.696
 6104SOL    HW118461   4.624   4.629   3.740
 6104SOL    HW218462   4.637   4.562   3.604
 6105SOL     OW18463   4.376   4.727   2.552
 6105SOL    HW118464   4.472   4.729   2.544
 6105SOL    HW218465   4.348   4.810   2.513
 6106SOL     OW18466   4.362   4.901   3.655
 6106SOL    HW118467   4.415   4.966   3.702
 6106SOL    HW218468   4.273   4.936   3.659
 6107SOL     OW18469   3.968   5.231   2.714
 6107SOL    HW118470   3.968   5.137   2.734
 6107SOL    HW218471   4.061   5.252   2.699
 6108SOL     OW18472   5.153   5.331   3.335
 6108SOL    HW118473   5.224   5.373   3.384
 6108SOL    HW218474   5.116   5.268   3.397
 6109SOL     OW18475   5.356   4.206   2.559
 6109SOL    HW118476   5.279   4.234   2.510
 6109SOL    HW218477   5.360   4.267   2.632
 6110SOL     OW18478   3.953   5.438   2.326
 6110SOL    HW118479   3.971   5.516   2.378
 6110SOL    HW218480   4.028   5.429   2.268
 6111SOL     OW18481   3.979   5.166   2.396
 6111SOL    HW118482   3.946   5.255   2.384
 6111SOL    HW218483   3.910   5.120   2.444
 6112SOL     OW18484   4.320   5.476   3.296
 6112SOL    HW118485   4.256   5.472   3.368
 6112SOL    HW218486   4.349   5.567   3.295
 6113SOL     OW18487   5.317   3.869   3.334
 6113SOL    HW118488   5.299   3.953   3.292
 6113SOL    HW218489   5.298   3.884   3.427
 6114SOL     OW18490   5.566   5.484   2.192
 6114SOL    HW118491   5.631   5.461   2.258
 6114SOL    HW218492   5.583   5.577   2.173
 6115SOL     OW18493   5.375   4.596   2.444
 6115SOL    HW118494   5.464   4.563   2.442
 6115SOL    HW218495   5.370   4.659   2.372
 6116SOL     OW18496   5.364   4.826   2.287
 6116SOL    HW118497   5.448   4.829   2.240
 6116SOL    HW218498   5.374   4.890   2.358
 6117SOL     OW18499   5.030   5.032   3.328
 6117SOL    HW118500   5.045   4.955   3.273
 6117SOL    HW218501   5.080   5.015   3.408
 6118SOL     OW18502   5.265   4.719   2.042
 6118SOL    HW118503   5.201   4.648   2.049
 6118SOL    HW218504   5.286   4.742   2.133
 6119SOL     OW18505   4.911   5.530   3.508
 6119SOL    HW118506   4.918   5.594   3.437
 6119SOL    HW218507   4.909   5.445   3.464
 6120SOL     OW18508   5.142   5.148   2.707
 6120SOL    HW118509   5.167   5.167   2.798
 6120SOL    HW218510   5.148   5.053   2.699
 6121SOL     OW18511   5.391   5.483   2.429
 6121SOL    HW118512   5.374   5.445   2.343
 6121SOL    HW218513   5.359   5.417   2.491
 6122SOL     OW18514   5.006   4.065   2.750
 6122SOL    HW118515   4.920   4.023   2.750
 6122SOL    HW218516   5.068   3.992   2.759
 6123SOL     OW18517   5.305   5.400   2.166
 6123SOL    HW118518   5.397   5.427   2.159
 6123SOL    HW218519   5.279   5.380   2.076
 6124SOL     OW18520   5.107   4.188   3.547
 6124SOL    HW118521   5.113   4.240   3.627
 6124SOL    HW218522   5.170   4.117   3.560
 6125SOL     OW18523   3.850   5.576   3.485
 6125SOL    HW118524   3.840   5.545   3.575
 6125SOL    HW218525   3.770   5.548   3.440
 6126SOL     OW18526   4.614   4.071   2.048
 6126SOL    HW118527   4.653   4.126   1.980
 6126SOL    HW218528   4.589   3.991   2.002
 6127SOL     OW18529   5.436   4.294   3.702
 6127SOL    HW118530   5.388   4.358   3.649
 6127SOL    HW218531   5.460   4.225   3.640
 6128SOL     OW18532   5.112   4.865   2.411
 6128SOL    HW118533   5.189   4.855   2.355
 6128SOL    HW218534   5.058   4.931   2.366
 6129SOL     OW18535   4.265   3.888   2.726
 6129SOL    HW118536   4.255   3.898   2.821
 6129SOL    HW218537   4.210   3.957   2.689
 6130SOL     OW18538   4.741   5.187   2.320
 6130SOL    HW118539   4.708   5.254   2.260
 6130SOL    HW218540   4.710   5.214   2.406
 6131SOL     OW18541   4.108   5.538   2.696
 6131SOL    HW118542   4.139   5.448   2.699
 6131SOL    HW218543   4.187   5.591   2.694
 6132SOL     OW18544   5.553   4.771   2.517
 6132SOL    HW118545   5.465   4.733   2.509
 6132SOL    HW218546   5.547   4.830   2.592
 6133SOL     OW18547   4.893   5.278   3.418
 6133SOL    HW118548   4.948   5.201   3.426
 6133SOL    HW218549   4.836   5.259   3.343
 6134SOL     OW18550   5.176   4.451   2.528
 6134SOL    HW118551   5.180   4.406   2.613
 6134SOL    HW218552   5.253   4.508   2.527
 6135SOL     OW18553   4.111   5.005   3.644
 6135SOL    HW118554   4.108   5.031   3.551
 6135SOL    HW218555   4.078   4.915   3.645
 6136SOL     OW18556   4.848   5.503   2.094
 6136SOL    HW118557   4.770   5.463   2.133
 6136SOL    HW218558   4.873   5.444   2.023
 6137SOL     OW18559   5.346   5.102   1.953
 6137SOL    HW118560   5.312   5.190   1.937
 6137SOL    HW218561   5.271   5.044   1.937
 6138SOL     OW18562   4.194   5.464   2.183
 6138SOL    HW118563   4.236   5.526   2.242
 6138SOL    HW218564   4.265   5.435   2.125
 6139SOL     OW18565   5.140   3.827   2.296
 6139SOL    HW118566   5.124   3.802   2.205
 6139SOL    HW218567   5.234   3.839   2.302
 6140SOL     OW18568   4.020   5.566   3.246
 6140SOL    HW118569   4.054   5.494   3.298
 6140SOL    HW218570   4.052   5.549   3.157
 6141SOL     OW18571   4.675   5.403   2.717
 6141SOL    HW118572   4.761   5.363   2.720
 6141SOL    HW218573   4.629   5.357   2.647
 6142SOL     OW18574   4.090   4.401   2.330
 6142SOL    HW118575   4.164   4.381   2.388
 6142SOL    HW218576   4.013   4.384   2.384
 6143SOL     OW18577   5.240   3.937   3.592
 6143SOL    HW118578   5.250   3.963   3.684
 6143SOL    HW218579   5.169   3.873   3.593
 6144SOL     OW18580   5.139   4.276   3.295
 6144SOL    HW118581   5.140   4.254   3.388
 6144SOL    HW218582   5.165   4.369   3.293
 6145SOL     OW18583   5.137   4.924   1.909
 6145SOL    HW118584   5.187   4.851   1.945
 6145SOL    HW218585   5.054   4.922   1.956
 6146SOL     OW18586   4.934   5.317   2.652
 6146SOL    HW118587   4.959   5.384   2.588
 6146SOL    HW218588   5.015   5.270   2.670
 6147SOL     OW18589   4.991   5.519   2.462
 6147SOL    HW118590   5.041   5.585   2.415
 6147SOL    HW218591   4.907   5.561   2.480
 6148SOL     OW18592   4.779   4.279   1.880
 6148SOL    HW118593   4.771   4.373   1.865
 6148SOL    HW218594   4.839   4.271   1.954
 6149SOL     OW18595   5.160   4.880   2.687
 6149SOL    HW118596   5.136   4.791   2.712
 6149SOL    HW218597   5.160   4.878   2.591
 6150SOL     OW18598   5.199   4.321   2.756
 6150SOL    HW118599   5.128   4.257   2.758
 6150SOL    HW218600   5.239   4.316   2.843
 6151SOL     OW18601   5.576   4.537   2.241
 6151SOL    HW118602   5.630   4.484   2.300
 6151SOL    HW218603   5.550   4.477   2.172
 6152SOL     OW18604   4.213   5.140   2.022
 6152SOL    HW118605   4.172   5.082   2.086
 6152SOL    HW218606   4.195   5.099   1.937
 6153SOL     OW18607   5.400   4.996   2.497
 6153SOL    HW118608   5.493   5.017   2.489
 6153SOL    HW218609   5.357   5.082   2.506
 6154SOL     OW18610   5.130   4.290   1.934
 6154SOL    HW118611   5.066   4.260   1.999
 6154SOL    HW218612   5.213   4.253   1.963
 6155SOL     OW18613   5.495   4.960   3.488
 6155SOL    HW118614   5.580   4.935   3.453
 6155SOL    HW218615   5.502   5.055   3.503
 6156SOL     OW18616   4.774   5.109   3.252
 6156SOL    HW118617   4.716   5.063   3.313
 6156SOL    HW218618   4.861   5.072   3.268
 6157SOL     OW18619   5.331   5.324   3.542
 6157SOL    HW118620   5.368   5.406   3.511
 6157SOL    HW218621   5.404   5.262   3.541
 6158SOL     OW18622   5.582   4.869   2.751
 6158SOL    HW118623   5.594   4.910   2.836
 6158SOL    HW218624   5.523   4.795   2.769
 6159SOL     OW18625   3.791   5.344   3.279
 6159SOL    HW118626   3.788   5.335   3.184
 6159SOL    HW218627   3.880   5.317   3.303
 6160SOL     OW18628   4.982   5.062   2.278
 6160SOL    HW118629   5.035   5.142   2.285
 6160SOL    HW218630   4.892   5.093   2.286
 6161SOL     OW18631   5.321   5.160   3.240
 6161SOL    HW118632   5.240   5.209   3.256
 6161SOL    HW218633   5.322   5.147   3.145
 6162SOL     OW18634   5.294   4.347   2.307
 6162SOL    HW118635   5.248   4.396   2.375
 6162SOL    HW218636   5.364   4.406   2.279
 6163SOL     OW18637   4.077   5.248   3.277
 6163SOL    HW118638   4.070   5.233   3.183
 6163SOL    HW218639   4.171   5.256   3.293
 6164SOL     OW18640   5.301   4.472   3.549
 6164SOL    HW118641   5.220   4.522   3.535
 6164SOL    HW218642   5.371   4.530   3.518
 6165SOL     OW18643   4.748   3.816   3.622
 6165SOL    HW118644   4.780   3.906   3.618
 6165SOL    HW218645   4.821   3.763   3.591
 6166SOL     OW18646   5.092   4.622   2.738
 6166SOL    HW118647   5.003   4.601   2.708
 6166SOL    HW218648   5.127   4.538   2.768
 6167SOL     OW18649   4.934   4.223   2.113
 6167SOL    HW118650   4.932   4.153   2.178
 6167SOL    HW218651   4.898   4.300   2.158
 6168SOL     OW18652   5.480   4.678   3.754
 6168SOL    HW118653   5.441   4.659   3.668
 6168SOL    HW218654   5.404   4.691   3.812
 6169SOL     OW18655   5.347   4.102   2.211
 6169SOL    HW118656   5.368   4.033   2.275
 6169SOL    HW218657   5.318   4.176   2.265
 6170SOL     OW18658   5.577   5.223   3.492
 6170SOL    HW118659   5.608   5.254   3.407
 6170SOL    HW218660   5.648   5.245   3.553
 6171SOL     OW18661   5.247   3.993   1.985
 6171SOL    HW118662   5.183   3.930   2.016
 6171SOL    HW218663   5.285   4.031   2.064
 6172SOL     OW18664   5.047   4.551   1.899
 6172SOL    HW118665   5.079   4.461   1.902
 6172SOL    HW218666   5.068   4.582   1.811
 6173SOL     OW18667   4.792   5.074   2.687
 6173SOL    HW118668   4.841   4.997   2.659
 6173SOL    HW218669   4.853   5.147   2.674
 6174SOL     OW18670   4.864   4.065   3.588
 6174SOL    HW118671   4.823   4.133   3.641
 6174SOL    HW218672   4.954   4.096   3.574
 6175SOL     OW18673   3.838   5.505   2.697
 6175SOL    HW118674   3.831   5.418   2.658
 6175SOL    HW218675   3.932   5.515   2.715
 6176SOL     OW18676   4.246   5.296   2.710
 6176SOL    HW118677   4.301   5.374   2.708
 6176SOL    HW218678   4.308   5.223   2.720
 6177SOL     OW18679   5.103   4.678   3.517
 6177SOL    HW118680   5.130   4.768   3.532
 6177SOL    HW218681   5.073   4.677   3.426
 6178SOL     OW18682   5.488   4.422   3.287
 6178SOL    HW118683   5.424   4.351   3.280
 6178SOL    HW218684   5.573   4.378   3.277
 6179SOL     OW18685   3.962   5.269   3.604
 6179SOL    HW118686   3.929   5.344   3.652
 6179SOL    HW218687   3.981   5.204   3.671
 6180SOL     OW18688   4.624   5.381   3.348
 6180SOL    HW118689   4.635   5.351   3.257
 6180SOL    HW218690   4.693   5.446   3.360
 6181SOL     OW18691   4.193   4.250   2.041
 6181SOL    HW118692   4.253   4.278   2.110
 6181SOL    HW218693   4.106   4.265   2.077
 6182SOL     OW18694   5.062   4.765   3.246
 6182SOL    HW118695   5.142   4.799   3.207
 6182SOL    HW218696   5.000   4.762   3.173
 6183SOL     OW18697   5.711   5.662   3.158
 6183SOL    HW118698   5.738   5.679   3.067
 6183SOL    HW218699   5.634   5.606   3.150
 6184SOL     OW18700   5.085   5.565   3.243
 6184SOL    HW118701   5.157   5.574   3.181
 6184SOL    HW218702   5.095   5.478   3.280
 6185SOL     OW18703   5.424   3.859   2.318
 6185SOL    HW118704   5.511   3.856   2.277
 6185SOL    HW218705   5.428   3.795   2.388
 6186SOL     OW18706   5.112   5.300   2.334
 6186SOL    HW118707   5.169   5.337   2.266
 6186SOL    HW218708   5.062   5.374   2.367
 6187SOL     OW18709   3.853   5.486   3.740
 6187SOL    HW118710   3.788   5.457   3.804
 6187SOL    HW218711   3.910   5.545   3.789
 6188SOL     OW18712   4.982   4.632   2.474
 6188SOL    HW118713   5.058   4.578   2.495
 6188SOL    HW218714   5.018   4.719   2.457
 6189SOL     OW18715   4.393   5.345   2.010
 6189SOL    HW118716   4.403   5.362   1.917
 6189SOL    HW218717   4.330   5.273   2.015
 6190SOL     OW18718   5.437   5.518   3.398
 6190SOL    HW118719   5.452   5.475   3.314
 6190SOL    HW218720   5.374   5.588   3.379
 6191SOL     OW18721   5.577   3.924   2.748
 6191SOL    HW118722   5.570   3.829   2.749
 6191SOL    HW218723   5.512   3.952   2.683
 6192SOL     OW18724   4.943   5.346   1.885
 6192SOL    HW118725   4.904   5.269   1.927
 6192SOL    HW218726   4.887   5.363   1.809
 6193SOL     OW18727   5.219   5.352   1.905
 6193SOL    HW118728   5.125   5.344   1.890
 6193SOL    HW218729   5.257   5.358   1.817
 6194SOL     OW18730   4.064   4.994   3.366
 6194SOL    HW118731   4.078   5.085   3.341
 6194SOL    HW218732   3.969   4.983   3.366
 6195SOL     OW18733   5.319   4.905   3.272
 6195SOL    HW118734   5.408   4.894   3.307
 6195SOL    HW218735   5.306   4.999   3.269
 6196SOL     OW18736   4.322   5.250   2.327
 6196SOL    HW118737   4.329   5.177   2.265
 6196SOL    HW218738   4.247   5.300   2.295
 6197SOL     OW18739   5.470   4.140   3.311
 6197SOL    HW118740   5.529   4.208   3.343
 6197SOL    HW218741   5.525   4.083   3.257
 6198SOL     OW18742   5.209   4.538   3.279
 6198SOL    HW118743   5.144   4.606   3.266
 6198SOL    HW218744   5.290   4.586   3.299
 6199SOL     OW18745   5.262   5.487   2.690
 6199SOL    HW118746   5.267   5.575   2.654
 6199SOL    HW218747   5.343   5.478   2.741
 6200SOL     OW18748   5.193   4.945   3.523
 6200SOL    HW118749   5.188   4.948   3.618
 6200SOL    HW218750   5.286   4.946   3.503
 6201SOL     OW18751   4.107   5.459   3.471
 6201SOL    HW118752   4.029   5.513   3.465
 6201SOL    HW218753   4.076   5.374   3.502
 6202SOL     OW18754   5.479   4.683   3.235
 6202SOL    HW118755   5.482   4.588   3.235
 6202SOL    HW218756   5.446   4.706   3.148
 6203SOL     OW18757   4.949   4.034   2.315
 6203SOL    HW118758   5.015   3.965   2.315
 6203SOL    HW218759   4.972   4.090   2.390
 6204SOL     OW18760   5.494   4.047   3.565
 6204SOL    HW118761   5.476   4.069   3.473
 6204SOL    HW218762   5.422   3.989   3.590
 6205SOL     OW18763   5.448   4.691   3.489
 6205SOL    HW118764   5.460   4.785   3.508
 6205SOL    HW218765   5.466   4.683   3.396
 6206SOL     OW18766   4.555   5.110   1.873
 6206SOL    HW118767   4.528   5.153   1.954
 6206SOL    HW218768   4.582   5.181   1.815
 6207SOL     OW18769   4.405   5.512   2.697
 6207SOL    HW118770   4.389   5.606   2.688
 6207SOL    HW218771   4.497   5.506   2.722
 6208SOL     OW18772   4.873   4.741   1.991
 6208SOL    HW118773   4.788   4.760   1.951
 6208SOL    HW218774   4.918   4.687   1.927
 6209SOL     OW18775   5.545   5.289   2.692
 6209SOL    HW118776   5.489   5.271   2.617
 6209SOL    HW218777   5.611   5.219   2.690
 6210SOL     OW18778   3.823   4.956   2.509
 6210SOL    HW118779   3.835   4.896   2.583
 6210SOL    HW218780   3.872   4.915   2.437
 6211SOL     OW18781   5.834   3.841   2.752
 6211SOL    HW118782   5.864   3.806   2.836
 6211SOL    HW218783   5.744   3.868   2.769
 6212SOL     OW18784   5.487   5.369   3.192
 6212SOL    HW118785   5.403   5.323   3.191
 6212SOL    HW218786   5.553   5.300   3.200
 6213SOL     OW18787   4.557   5.303   2.495
 6213SOL    HW118788   4.513   5.350   2.424
 6213SOL    HW218789   4.487   5.261   2.544
 6214SOL     OW18790   5.207   3.880   2.773
 6214SOL    HW118791   5.177   3.811   2.832
 6214SOL    HW218792   5.274   3.927   2.822
 6215SOL     OW18793   5.078   3.765   2.031
 6215SOL    HW118794   5.110   3.711   1.959
 6215SOL    HW218795   4.990   3.731   2.049
 6216SOL     OW18796   5.023   4.197   2.523
 6216SOL    HW118797   4.980   4.280   2.542
 6216SOL    HW218798   5.015   4.147   2.604
 6217SOL     OW18799   5.371   3.942   2.578
 6217SOL    HW118800   5.292   3.911   2.621
 6217SOL    HW218801   5.355   4.035   2.561
 6218SOL     OW18802   4.608   5.386   2.187
 6218SOL    HW118803   4.533   5.369   2.130
 6218SOL    HW218804   4.578   5.454   2.247
 6219SOL     OW18805   3.946   4.009   4.721
 6219SOL    HW118806   3.974   3.971   4.804
 6219SOL    HW218807   3.857   3.976   4.708
 6220SOL     OW18808   3.722   4.091   4.378
 6220SOL    HW118809   3.638   4.127   4.406
 6220SOL    HW218810   3.700   4.005   4.341
 6221SOL     OW18811   4.290   5.017   4.904
 6221SOL    HW118812   4.202   5.022   4.865
 6221SOL    HW218813   4.307   5.106   4.935
 6222SOL     OW18814   5.287   5.235   4.431
 6222SOL    HW118815   5.244   5.215   4.514
 6222SOL    HW218816   5.216   5.242   4.368
 6223SOL     OW18817   4.869   4.411   4.450
 6223SOL    HW118818   4.911   4.492   4.422
 6223SOL    HW218819   4.822   4.434   4.530
 6224SOL     OW18820   5.483   4.329   3.964
 6224SOL    HW118821   5.471   4.323   3.869
 6224SOL    HW218822   5.456   4.243   3.997
 6225SOL     OW18823   4.475   4.864   4.770
 6225SOL    HW118824   4.407   4.902   4.827
 6225SOL    HW218825   4.512   4.940   4.725
 6226SOL     OW18826   4.594   4.495   5.550
 6226SOL    HW118827   4.579   4.566   5.613
 6226SOL    HW218828   4.616   4.540   5.469
 6227SOL     OW18829   4.405   4.716   4.390
 6227SOL    HW118830   4.475   4.714   4.456
 6227SOL    HW218831   4.343   4.781   4.424
 6228SOL     OW18832   4.437   4.878   5.536
 6228SOL    HW118833   4.484   4.956   5.566
 6228SOL    HW218834   4.355   4.911   5.500
 6229SOL     OW18835   4.052   5.139   4.795
 6229SOL    HW118836   3.978   5.105   4.745
 6229SOL    HW218837   4.102   5.191   4.733
 6230SOL     OW18838   5.184   5.225   5.082
 6230SOL    HW118839   5.238   5.304   5.090
 6230SOL    HW218840   5.121   5.232   5.153
 6231SOL     OW18841   4.176   4.121   5.209
 6231SOL    HW118842   4.251   4.062   5.215
 6231SOL    HW218843   4.100   4.065   5.226
 6232SOL     OW18844   5.332   4.168   4.465
 6232SOL    HW118845   5.257   4.189   4.410
 6232SOL    HW218846   5.349   4.248   4.515
 6233SOL     OW18847   3.945   5.433   4.197
 6233SOL    HW118848   3.963   5.513   4.246
 6233SOL    HW218849   4.018   5.426   4.136
 6234SOL     OW18850   4.863   5.065   5.419
 6234SOL    HW118851   4.906   5.057   5.503
 6234SOL    HW218852   4.811   4.985   5.411
 6235SOL     OW18853   3.956   5.158   4.254
 6235SOL    HW118854   3.933   5.248   4.233
 6235SOL    HW218855   3.880   5.125   4.304
 6236SOL     OW18856   3.974   4.812   4.605
 6236SOL    HW118857   3.980   4.726   4.646
 6236SOL    HW218858   3.923   4.865   4.667
 6237SOL     OW18859   4.336   5.510   5.157
 6237SOL    HW118860   4.252   5.495   5.201
 6237SOL    HW218861   4.358   5.601   5.177
 6238SOL     OW18862   5.317   3.851   5.192
 6238SOL    HW118863   5.331   3.932   5.144
 6238SOL    HW218864   5.302   3.878   5.282
 6239SOL     OW18865   3.874   4.356   4.311
 6239SOL    HW118866   3.803   4.301   4.276
 6239SOL    HW218867   3.830   4.413   4.375
 6240SOL     OW18868   5.566   5.485   4.060
 6240SOL    HW118869   5.633   5.458   4.124
 6240SOL    HW218870   5.589   5.575   4.039
 6241SOL     OW18871   5.418   4.641   4.366
 6241SOL    HW118872   5.499   4.596   4.341
 6241SOL    HW218873   5.394   4.693   4.290
 6242SOL     OW18874   5.365   4.826   4.156
 6242SOL    HW118875   5.448   4.830   4.108
 6242SOL    HW218876   5.375   4.889   4.227
 6243SOL     OW18877   3.848   4.468   5.311
 6243SOL    HW118878   3.939   4.495   5.314
 6243SOL    HW218879   3.798   4.550   5.317
 6244SOL     OW18880   4.342   5.110   4.463
 6244SOL    HW118881   4.298   5.024   4.465
 6244SOL    HW218882   4.294   5.160   4.397
 6245SOL     OW18883   5.012   4.962   5.147
 6245SOL    HW118884   5.044   4.895   5.086
 6245SOL    HW218885   5.072   4.956   5.222
 6246SOL     OW18886   4.521   3.769   4.283
 6246SOL    HW118887   4.557   3.793   4.198
 6246SOL    HW218888   4.426   3.762   4.268
 6247SOL     OW18889   3.912   4.688   4.995
 6247SOL    HW118890   3.997   4.648   4.980
 6247SOL    HW218891   3.851   4.634   4.946
 6248SOL     OW18892   5.260   4.718   3.914
 6248SOL    HW118893   5.197   4.646   3.919
 6248SOL    HW218894   5.284   4.736   4.005
 6249SOL     OW18895   4.907   5.526   5.345
 6249SOL    HW118896   4.926   5.582   5.270
 6249SOL    HW218897   4.924   5.437   5.314
 6250SOL     OW18898   4.061   3.975   5.536
 6250SOL    HW118899   4.104   4.057   5.559
 6250SOL    HW218900   3.971   3.986   5.567
 6251SOL     OW18901   5.190   5.144   4.675
 6251SOL    HW118902   5.122   5.160   4.740
 6251SOL    HW218903   5.177   5.053   4.649
 6252SOL     OW18904   5.381   5.466   4.305
 6252SOL    HW118905   5.362   5.436   4.215
 6252SOL    HW218906   5.358   5.391   4.360
 6253SOL     OW18907   5.003   4.080   4.660
 6253SOL    HW118908   4.913   4.048   4.669
 6253SOL    HW218909   5.054   4.024   4.720
 6254SOL     OW18910   5.306   5.399   4.040
 6254SOL    HW118911   5.397   5.426   4.032
 6254SOL    HW218912   5.278   5.382   3.950
 6255SOL     OW18913   4.518   4.342   5.174
 6255SOL    HW118914   4.492   4.318   5.263
 6255SOL    HW218915   4.479   4.274   5.119
 6256SOL     OW18916   5.119   4.196   5.398
 6256SOL    HW118917   5.124   4.244   5.481
 6256SOL    HW218918   5.175   4.120   5.412
 6257SOL     OW18919   4.676   4.610   5.308
 6257SOL    HW118920   4.731   4.540   5.273
 6257SOL    HW218921   4.628   4.643   5.232
 6258SOL     OW18922   4.715   4.136   4.960
 6258SOL    HW118923   4.627   4.155   4.994
 6258SOL    HW218924   4.700   4.092   4.877
 6259SOL     OW18925   4.737   4.449   4.212
 6259SOL    HW118926   4.767   4.413   4.295
 6259SOL    HW218927   4.678   4.382   4.177
 6260SOL     OW18928   3.795   4.559   4.492
 6260SOL    HW118929   3.879   4.542   4.536
 6260SOL    HW218930   3.758   4.634   4.540
 6261SOL     OW18931   3.849   5.575   5.300
 6261SOL    HW118932   3.852   5.554   5.394
 6261SOL    HW218933   3.757   5.568   5.277
 6262SOL     OW18934   4.614   4.061   3.922
 6262SOL    HW118935   4.625   4.136   3.863
 6262SOL    HW218936   4.589   3.989   3.864
 6263SOL     OW18937   5.429   4.296   5.553
 6263SOL    HW118938   5.392   4.369   5.503
 6263SOL    HW218939   5.458   4.234   5.487
 6264SOL     OW18940   5.104   4.856   4.263
 6264SOL    HW118941   5.188   4.855   4.216
 6264SOL    HW218942   5.054   4.926   4.221
 6265SOL     OW18943   4.272   3.899   4.618
 6265SOL    HW118944   4.275   3.935   4.706
 6265SOL    HW218945   4.263   3.976   4.561
 6266SOL     OW18946   4.727   5.168   4.198
 6266SOL    HW118947   4.699   5.243   4.145
 6266SOL    HW218948   4.706   5.193   4.288
 6267SOL     OW18949   4.085   5.532   4.589
 6267SOL    HW118950   4.134   5.454   4.613
 6267SOL    HW218951   4.144   5.605   4.608
 6268SOL     OW18952   5.530   4.777   4.593
 6268SOL    HW118953   5.477   4.761   4.515
 6268SOL    HW218954   5.466   4.783   4.664
 6269SOL     OW18955   4.949   5.263   5.238
 6269SOL    HW118956   4.939   5.188   5.297
 6269SOL    HW218957   4.887   5.246   5.167
 6270SOL     OW18958   4.030   4.726   3.910
 6270SOL    HW118959   4.124   4.718   3.927
 6270SOL    HW218960   3.995   4.639   3.930
 6271SOL     OW18961   5.209   4.469   4.450
 6271SOL    HW118962   5.199   4.427   4.535
 6271SOL    HW218963   5.286   4.525   4.459
 6272SOL     OW18964   4.189   4.990   5.466
 6272SOL    HW118965   4.162   4.994   5.374
 6272SOL    HW218966   4.106   4.986   5.514
 6273SOL     OW18967   4.846   5.503   3.957
 6273SOL    HW118968   4.770   5.462   3.999
 6273SOL    HW218969   4.871   5.442   3.888
 6274SOL     OW18970   3.925   4.003   5.228
 6274SOL    HW118971   3.842   4.051   5.226
 6274SOL    HW218972   3.905   3.925   5.280
 6275SOL     OW18973   5.348   5.102   3.806
 6275SOL    HW118974   5.311   5.191   3.806
 6275SOL    HW218975   5.272   5.044   3.803
 6276SOL     OW18976   4.181   5.467   4.040
 6276SOL    HW118977   4.231   5.522   4.100
 6276SOL    HW218978   4.247   5.433   3.979
 6277SOL     OW18979   5.133   3.828   4.158
 6277SOL    HW118980   5.123   3.805   4.066
 6277SOL    HW218981   5.227   3.843   4.169
 6278SOL     OW18982   3.976   5.513   4.957
 6278SOL    HW118983   4.029   5.445   4.998
 6278SOL    HW218984   3.968   5.485   4.866
 6279SOL     OW18985   4.662   5.421   4.624
 6279SOL    HW118986   4.742   5.372   4.641
 6279SOL    HW218987   4.618   5.370   4.556
 6280SOL     OW18988   4.120   4.408   4.210
 6280SOL    HW118989   4.142   4.316   4.195
 6280SOL    HW218990   4.031   4.406   4.245
 6281SOL     OW18991   5.256   3.949   5.456
 6281SOL    HW118992   5.267   3.971   5.548
 6281SOL    HW218993   5.191   3.879   5.455
 6282SOL     OW18994   4.488   3.999   5.477
 6282SOL    HW118995   4.567   3.945   5.476
 6282SOL    HW218996   4.464   4.006   5.569
 6283SOL     OW18997   4.601   5.247   4.918
 6283SOL    HW118998   4.585   5.211   4.831
 6283SOL    HW218999   4.672   5.193   4.954
 6284SOL     OW19000   5.066   4.313   5.154
 6284SOL    HW119001   5.097   4.281   5.239
 6284SOL    HW219002   5.101   4.402   5.147
 6285SOL     OW19003   4.540   5.118   4.668
 6285SOL    HW119004   4.626   5.108   4.626
 6285SOL    HW219005   4.478   5.120   4.595
 6286SOL     OW19006   4.650   4.234   4.626
 6286SOL    HW119007   4.629   4.230   4.532
 6286SOL    HW219008   4.680   4.146   4.648
 6287SOL     OW19009   4.255   3.780   4.200
 6287SOL    HW119010   4.174   3.786   4.250
 6287SOL    HW219011   4.267   3.868   4.164
 6288SOL     OW19012   5.140   4.925   3.786
 6288SOL    HW119013   5.185   4.850   3.825
 6288SOL    HW219014   5.053   4.925   3.826
 6289SOL     OW19015   4.805   4.404   5.184
 6289SOL    HW119016   4.737   4.336   5.187
 6289SOL    HW219017   4.887   4.354   5.176
 6290SOL     OW19018   4.945   5.299   4.520
 6290SOL    HW119019   4.961   5.363   4.451
 6290SOL    HW219020   5.017   5.313   4.582
 6291SOL     OW19021   4.187   4.881   4.448
 6291SOL    HW119022   4.118   4.860   4.510
 6291SOL    HW219023   4.153   4.852   4.363
 6292SOL     OW19024   4.990   5.520   4.335
 6292SOL    HW119025   5.039   5.581   4.281
 6292SOL    HW219026   4.920   5.572   4.373
 6293SOL     OW19027   4.799   4.291   3.721
 6293SOL    HW119028   4.745   4.370   3.713
 6293SOL    HW219029   4.840   4.299   3.807
 6294SOL     OW19030   3.804   4.278   5.118
 6294SOL    HW119031   3.896   4.275   5.092
 6294SOL    HW219032   3.799   4.348   5.182
 6295SOL     OW19033   4.283   3.952   4.892
 6295SOL    HW119034   4.324   3.875   4.931
 6295SOL    HW219035   4.192   3.948   4.922
 6296SOL     OW19036   4.589   4.196   4.356
 6296SOL    HW119037   4.520   4.234   4.301
 6296SOL    HW219038   4.608   4.112   4.314
 6297SOL     OW19039   4.729   3.785   4.476
 6297SOL    HW119040   4.661   3.783   4.409
 6297SOL    HW219041   4.713   3.706   4.528
 6298SOL     OW19042   5.163   4.884   4.583
 6298SOL    HW119043   5.089   4.823   4.578
 6298SOL    HW219044   5.192   4.894   4.492
 6299SOL     OW19045   5.188   4.331   4.698
 6299SOL    HW119046   5.136   4.250   4.699
 6299SOL    HW219047   5.247   4.322   4.773
 6300SOL     OW19048   5.572   4.541   4.109
 6300SOL    HW119049   5.626   4.487   4.167
 6300SOL    HW219050   5.542   4.481   4.041
 6301SOL     OW19051   4.219   5.135   3.916
 6301SOL    HW119052   4.134   5.118   3.956
 6301SOL    HW219053   4.203   5.123   3.822
 6302SOL     OW19054   5.391   4.984   4.375
 6302SOL    HW119055   5.486   4.987   4.383
 6302SOL    HW219056   5.363   5.075   4.391
 6303SOL     OW19057   5.128   4.297   3.794
 6303SOL    HW119058   5.063   4.261   3.855
 6303SOL    HW219059   5.212   4.267   3.828
 6304SOL     OW19060   5.477   4.961   5.290
 6304SOL    HW119061   5.566   4.927   5.276
 6304SOL    HW219062   5.489   5.050   5.320
 6305SOL     OW19063   4.781   5.080   5.058
 6305SOL    HW119064   4.706   5.048   5.108
 6305SOL    HW219065   4.857   5.037   5.098
 6306SOL     OW19066   5.327   5.348   5.377
 6306SOL    HW119067   5.327   5.384   5.288
 6306SOL    HW219068   5.410   5.300   5.383
 6307SOL     OW19069   4.855   4.931   4.829
 6307SOL    HW119070   4.793   4.968   4.892
 6307SOL    HW219071   4.826   4.965   4.744
 6308SOL     OW19072   5.351   4.820   4.799
 6308SOL    HW119073   5.344   4.883   4.871
 6308SOL    HW219074   5.274   4.838   4.744
 6309SOL     OW19075   4.641   3.819   5.119
 6309SOL    HW119076   4.664   3.801   5.028
 6309SOL    HW219077   4.720   3.858   5.157
 6310SOL     OW19078   4.709   4.838   5.451
 6310SOL    HW119079   4.617   4.853   5.473
 6310SOL    HW219080   4.708   4.761   5.394
 6311SOL     OW19081   4.144   4.540   4.974
 6311SOL    HW119082   4.211   4.549   5.042
 6311SOL    HW219083   4.109   4.452   4.987
 6312SOL     OW19084   4.988   4.099   5.000
 6312SOL    HW119085   5.021   4.177   5.045
 6312SOL    HW219086   4.897   4.121   4.978
 6313SOL     OW19087   3.794   5.300   5.077
 6313SOL    HW119088   3.766   5.374   5.024
 6313SOL    HW219089   3.890   5.302   5.073
 6314SOL     OW19090   4.278   4.265   4.581
 6314SOL    HW119091   4.296   4.322   4.507
 6314SOL    HW219092   4.344   4.289   4.646
 6315SOL     OW19093   4.978   5.063   4.138
 6315SOL    HW119094   5.029   5.143   4.153
 6315SOL    HW219095   4.887   5.090   4.150
 6316SOL     OW19096   5.006   5.183   4.873
 6316SOL    HW119097   5.062   5.186   4.951
 6316SOL    HW219098   4.951   5.105   4.886
 6317SOL     OW19099   5.299   4.344   4.205
 6317SOL    HW119100   5.264   4.402   4.273
 6317SOL    HW219101   5.359   4.400   4.155
 6318SOL     OW19102   4.069   5.254   5.039
 6318SOL    HW119103   4.056   5.207   4.956
 6318SOL    HW219104   4.164   5.265   5.045
 6319SOL     OW19105   4.138   4.468   5.326
 6319SOL    HW119106   4.201   4.512   5.269
 6319SOL    HW219107   4.175   4.381   5.341
 6320SOL     OW19108   5.326   4.502   5.404
 6320SOL    HW119109   5.240   4.543   5.399
 6320SOL    HW219110   5.378   4.545   5.336
 6321SOL     OW19111   4.722   3.849   5.478
 6321SOL    HW119112   4.778   3.923   5.456
 6321SOL    HW219113   4.771   3.772   5.449
 6322SOL     OW19114   4.222   3.761   5.466
 6322SOL    HW119115   4.175   3.708   5.402
 6322SOL    HW219116   4.166   3.837   5.480
 6323SOL     OW19117   4.305   4.599   4.753
 6323SOL    HW119118   4.341   4.688   4.757
 6323SOL    HW219119   4.251   4.591   4.831
 6324SOL     OW19120   5.078   4.582   4.750
 6324SOL    HW119121   4.993   4.571   4.706
 6324SOL    HW219122   5.120   4.496   4.742
 6325SOL     OW19123   4.945   4.209   3.973
 6325SOL    HW119124   4.932   4.150   4.048
 6325SOL    HW219125   4.921   4.296   4.007
 6326SOL     OW19126   4.021   3.921   4.974
 6326SOL    HW119127   3.984   3.953   5.056
 6326SOL    HW219128   4.003   3.827   4.975
 6327SOL     OW19129   3.769   5.036   5.000
 6327SOL    HW119130   3.802   4.981   5.072
 6327SOL    HW219131   3.775   5.125   5.034
 6328SOL     OW19132   4.449   4.358   4.781
 6328SOL    HW119133   4.523   4.341   4.723
 6328SOL    HW219134   4.420   4.446   4.758
 6329SOL     OW19135   5.462   4.687   5.566
 6329SOL    HW119136   5.411   4.619   5.522
 6329SOL    HW219137   5.409   4.710   5.643
 6330SOL     OW19138   4.020   3.794   4.347
 6330SOL    HW119139   4.010   3.886   4.370
 6330SOL    HW219140   4.032   3.749   4.431
 6331SOL     OW19141   5.341   4.098   4.090
 6331SOL    HW119142   5.372   4.037   4.157
 6331SOL    HW219143   5.315   4.176   4.140
 6332SOL     OW19144   4.753   4.482   4.691
 6332SOL    HW119145   4.746   4.500   4.785
 6332SOL    HW219146   4.725   4.391   4.682
 6333SOL     OW19147   4.704   5.287   5.441
 6333SOL    HW119148   4.688   5.333   5.358
 6333SOL    HW219149   4.751   5.208   5.415
 6334SOL     OW19150   5.572   5.222   5.325
 6334SOL    HW119151   5.593   5.255   5.237
 6334SOL    HW219152   5.649   5.242   5.378
 6335SOL     OW19153   4.080   4.637   5.537
 6335SOL    HW119154   4.165   4.659   5.575
 6335SOL    HW219155   4.101   4.575   5.467
 6336SOL     OW19156   5.248   3.995   3.853
 6336SOL    HW119157   5.180   3.935   3.884
 6336SOL    HW219158   5.284   4.033   3.933
 6337SOL     OW19159   5.055   4.563   3.760
 6337SOL    HW119160   5.078   4.470   3.764
 6337SOL    HW219161   5.075   4.590   3.671
 6338SOL     OW19162   4.794   5.066   4.585
 6338SOL    HW119163   4.797   4.993   4.522
 6338SOL    HW219164   4.853   5.132   4.547
 6339SOL     OW19165   4.029   4.535   4.667
 6339SOL    HW119166   4.123   4.555   4.665
 6339SOL    HW219167   4.024   4.445   4.697
 6340SOL     OW19168   4.054   4.255   4.735
 6340SOL    HW119169   4.020   4.167   4.721
 6340SOL    HW219170   4.130   4.260   4.677
 6341SOL     OW19171   4.857   4.097   5.407
 6341SOL    HW119172   4.810   4.153   5.469
 6341SOL    HW219173   4.945   4.136   5.403
 6342SOL     OW19174   4.887   3.922   5.194
 6342SOL    HW119175   4.875   3.985   5.265
 6342SOL    HW219176   4.927   3.973   5.124
 6343SOL     OW19177   3.816   5.510   4.665
 6343SOL    HW119178   3.787   5.431   4.618
 6343SOL    HW219179   3.905   5.524   4.633
 6344SOL     OW19180   4.225   5.293   4.647
 6344SOL    HW119181   4.292   5.358   4.670
 6344SOL    HW219182   4.270   5.232   4.588
 6345SOL     OW19183   4.701   4.516   4.955
 6345SOL    HW119184   4.759   4.494   5.027
 6345SOL    HW219185   4.617   4.475   4.978
 6346SOL     OW19186   3.761   4.270   4.840
 6346SOL    HW119187   3.840   4.256   4.788
 6346SOL    HW219188   3.792   4.272   4.930
 6347SOL     OW19189   3.915   4.244   5.456
 6347SOL    HW119190   3.968   4.199   5.390
 6347SOL    HW219191   3.876   4.318   5.410
 6348SOL     OW19192   5.101   4.662   5.383
 6348SOL    HW119193   5.123   4.755   5.380
 6348SOL    HW219194   5.097   4.636   5.291
 6349SOL     OW19195   5.367   4.327   4.909
 6349SOL    HW119196   5.357   4.267   4.983
 6349SOL    HW219197   5.453   4.307   4.873
 6350SOL     OW19198   3.966   5.275   5.453
 6350SOL    HW119199   3.941   5.341   5.517
 6350SOL    HW219200   3.969   5.193   5.502
 6351SOL     OW19201   4.431   4.172   4.981
 6351SOL    HW119202   4.376   4.099   4.954
 6351SOL    HW219203   4.424   4.235   4.910
 6352SOL     OW19204   4.647   5.400   5.191
 6352SOL    HW119205   4.624   5.363   5.106
 6352SOL    HW219206   4.640   5.495   5.179
 6353SOL     OW19207   4.151   4.212   3.960
 6353SOL    HW119208   4.213   4.285   3.955
 6353SOL    HW219209   4.065   4.253   3.961
 6354SOL     OW19210   3.867   4.865   5.198
 6354SOL    HW119211   3.870   4.815   5.279
 6354SOL    HW219212   3.884   4.801   5.129
 6355SOL     OW19213   5.049   4.770   4.945
 6355SOL    HW119214   5.072   4.707   4.877
 6355SOL    HW219215   4.980   4.824   4.906
 6356SOL     OW19216   5.493   5.461   4.874
 6356SOL    HW119217   5.556   5.494   4.810
 6356SOL    HW219218   5.474   5.372   4.845
 6357SOL     OW19219   4.966   5.458   4.836
 6357SOL    HW119220   5.049   5.480   4.793
 6357SOL    HW219221   4.973   5.364   4.853
 6358SOL     OW19222   3.807   4.990   4.735
 6358SOL    HW119223   3.794   5.005   4.829
 6358SOL    HW219224   3.731   4.938   4.708
 6359SOL     OW19225   4.402   5.395   5.459
 6359SOL    HW119226   4.344   5.470   5.453
 6359SOL    HW219227   4.465   5.407   5.388
 6360SOL     OW19228   5.442   3.873   4.231
 6360SOL    HW119229   5.514   3.860   4.169
 6360SOL    HW219230   5.428   3.787   4.271
 6361SOL     OW19231   5.115   5.295   4.213
 6361SOL    HW119232   5.175   5.327   4.146
 6361SOL    HW219233   5.065   5.372   4.240
 6362SOL     OW19234   3.862   5.519   5.566
 6362SOL    HW119235   3.809   5.456   5.615
 6362SOL    HW219236   3.912   5.567   5.632
 6363SOL     OW19237   5.001   4.640   4.386
 6363SOL    HW119238   5.077   4.584   4.399
 6363SOL    HW219239   5.035   4.717   4.341
 6364SOL     OW19240   4.534   5.000   5.151
 6364SOL    HW119241   4.506   5.039   5.234
 6364SOL    HW219242   4.464   5.021   5.090
 6365SOL     OW19243   5.347   5.452   5.113
 6365SOL    HW119244   5.396   5.460   5.032
 6365SOL    HW219245   5.327   5.542   5.138
 6366SOL     OW19246   5.567   3.899   4.693
 6366SOL    HW119247   5.597   3.813   4.665
 6366SOL    HW219248   5.482   3.909   4.651
 6367SOL     OW19249   3.990   4.044   4.447
 6367SOL    HW119250   3.910   4.088   4.418
 6367SOL    HW219251   3.981   4.038   4.542
 6368SOL     OW19252   4.953   5.344   3.751
 6368SOL    HW119253   4.908   5.274   3.797
 6368SOL    HW219254   4.903   5.355   3.670
 6369SOL     OW19255   4.547   4.730   5.096
 6369SOL    HW119256   4.593   4.722   5.013
 6369SOL    HW219257   4.547   4.824   5.115
 6370SOL     OW19258   5.220   5.355   3.784
 6370SOL    HW119259   5.126   5.346   3.769
 6370SOL    HW219260   5.259   5.349   3.697
 6371SOL     OW19261   4.092   5.029   5.217
 6371SOL    HW119262   4.079   5.106   5.161
 6371SOL    HW219263   4.016   4.973   5.199
 6372SOL     OW19264   5.334   5.007   5.005
 6372SOL    HW119265   5.395   4.996   5.078
 6372SOL    HW219266   5.273   5.074   5.034
 6373SOL     OW19267   4.778   4.838   4.439
 6373SOL    HW119268   4.709   4.785   4.478
 6373SOL    HW219269   4.827   4.777   4.383
 6374SOL     OW19270   4.744   3.967   4.692
 6374SOL    HW119271   4.737   3.920   4.609
 6374SOL    HW219272   4.739   3.899   4.759
 6375SOL     OW19273   4.356   5.211   4.148
 6375SOL    HW119274   4.317   5.174   4.069
 6375SOL    HW219275   4.283   5.248   4.197
 6376SOL     OW19276   5.450   4.121   5.104
 6376SOL    HW119277   5.524   4.182   5.099
 6376SOL    HW219278   5.476   4.047   5.049
 6377SOL     OW19279   3.842   4.752   5.447
 6377SOL    HW119280   3.763   4.727   5.495
 6377SOL    HW219281   3.913   4.709   5.494
 6378SOL     OW19282   4.397   3.921   5.222
 6378SOL    HW119283   4.482   3.901   5.183
 6378SOL    HW219284   4.418   3.949   5.311
 6379SOL     OW19285   5.154   4.583   5.123
 6379SOL    HW119286   5.104   4.643   5.068
 6379SOL    HW219287   5.242   4.585   5.087
 6380SOL     OW19288   4.344   4.555   5.160
 6380SOL    HW119289   4.400   4.630   5.143
 6380SOL    HW219290   4.404   4.481   5.168
 6381SOL     OW19291   5.211   5.506   4.708
 6381SOL    HW119292   5.233   5.565   4.635
 6381SOL    HW219293   5.295   5.483   4.746
 6382SOL     OW19294   4.442   4.288   5.429
 6382SOL    HW119295   4.485   4.348   5.490
 6382SOL    HW219296   4.465   4.201   5.461
 6383SOL     OW19297   5.199   4.923   5.353
 6383SOL    HW119298   5.185   4.938   5.447
 6383SOL    HW219299   5.292   4.939   5.339
 6384SOL     OW19300   4.100   5.459   5.287
 6384SOL    HW119301   4.016   5.503   5.271
 6384SOL    HW219302   4.076   5.378   5.332
 6385SOL     OW19303   5.394   4.605   4.979
 6385SOL    HW119304   5.386   4.519   4.937
 6385SOL    HW219305   5.381   4.668   4.907
 6386SOL     OW19306   4.942   4.035   4.191
 6386SOL    HW119307   5.008   3.967   4.182
 6386SOL    HW219308   4.971   4.087   4.267
 6387SOL     OW19309   4.326   4.455   4.382
 6387SOL    HW119310   4.358   4.545   4.380
 6387SOL    HW219311   4.248   4.456   4.326
 6388SOL     OW19312   5.485   4.088   5.378
 6388SOL    HW119313   5.468   4.103   5.285
 6388SOL    HW219314   5.415   4.030   5.405
 6389SOL     OW19315   5.478   4.658   5.235
 6389SOL    HW119316   5.463   4.751   5.252
 6389SOL    HW219317   5.457   4.646   5.143
 6390SOL     OW19318   4.495   5.126   3.737
 6390SOL    HW119319   4.510   5.130   3.832
 6390SOL    HW219320   4.579   5.151   3.698
 6391SOL     OW19321   4.388   5.510   4.666
 6391SOL    HW119322   4.367   5.601   4.646
 6391SOL    HW219323   4.484   5.506   4.660
 6392SOL     OW19324   4.597   4.692   4.587
 6392SOL    HW119325   4.647   4.619   4.624
 6392SOL    HW219326   4.560   4.738   4.663
 6393SOL     OW19327   4.868   4.732   3.862
 6393SOL    HW119328   4.789   4.748   3.810
 6393SOL    HW219329   4.924   4.679   3.805
 6394SOL     OW19330   5.571   5.280   4.567
 6394SOL    HW119331   5.495   5.265   4.512
 6394SOL    HW219332   5.563   5.217   4.638
 6395SOL     OW19333   3.941   5.023   5.582
 6395SOL    HW119334   3.892   4.955   5.537
 6395SOL    HW219335   3.888   5.045   5.659
 6396SOL     OW19336   3.806   4.945   4.383
 6396SOL    HW119337   3.845   4.904   4.460
 6396SOL    HW219338   3.862   4.917   4.311
 6397SOL     OW19339   4.406   5.130   5.355
 6397SOL    HW119340   4.325   5.088   5.385
 6397SOL    HW219341   4.402   5.218   5.392
 6398SOL     OW19342   5.536   3.907   4.965
 6398SOL    HW119343   5.551   3.813   4.978
 6398SOL    HW219344   5.549   3.920   4.871
 6399SOL     OW19345   5.426   5.204   4.815
 6399SOL    HW119346   5.344   5.186   4.769
 6399SOL    HW219347   5.431   5.137   4.883
 6400SOL     OW19348   4.056   4.280   5.015
 6400SOL    HW119349   4.111   4.224   5.070
 6400SOL    HW219350   4.075   4.252   4.926
 6401SOL     OW19351   4.553   5.299   4.401
 6401SOL    HW119352   4.531   5.358   4.329
 6401SOL    HW219353   4.483   5.232   4.399
 6402SOL     OW19354   5.158   3.948   4.844
 6402SOL    HW119355   5.182   3.868   4.891
 6402SOL    HW219356   5.105   3.998   4.907
 6403SOL     OW19357   4.732   3.742   4.864
 6403SOL    HW119358   4.679   3.675   4.822
 6403SOL    HW219359   4.821   3.704   4.866
 6404SOL     OW19360   4.344   5.278   5.009
 6404SOL    HW119361   4.346   5.359   5.060
 6404SOL    HW219362   4.431   5.271   4.971
 6405SOL     OW19363   5.078   3.763   3.891
 6405SOL    HW119364   5.119   3.709   3.823
 6405SOL    HW219365   5.006   3.710   3.925
 6406SOL     OW19366   5.027   4.185   4.408
 6406SOL    HW119367   4.976   4.265   4.415
 6406SOL    HW219368   5.021   4.145   4.495
 6407SOL     OW19369   5.307   3.921   4.603
 6407SOL    HW119370   5.251   3.945   4.677
 6407SOL    HW219371   5.308   3.998   4.546
 6408SOL     OW19372   4.610   5.381   4.065
 6408SOL    HW119373   4.528   5.339   4.040
 6408SOL    HW219374   4.584   5.452   4.123
 6409SOL     OW19375   3.944   4.340   5.717
 6409SOL    HW119376   3.854   4.360   5.744
 6409SOL    HW219377   3.937   4.321   5.624
 6410SOL     OW19378   5.499   4.329   5.814
 6410SOL    HW119379   5.474   4.318   5.722
 6410SOL    HW219380   5.469   4.249   5.857
 6411SOL     OW19381   3.958   5.451   0.040
 6411SOL    HW119382   3.971   5.520   0.105
 6411SOL    HW219383   4.040   5.450   5.991
 6412SOL     OW19384   4.329   4.704   5.725
 6412SOL    HW119385   4.359   4.761   5.654
 6412SOL    HW219386   4.400   4.704   5.788
 6413SOL     OW19387   5.527   5.492   5.917
 6413SOL    HW119388   5.569   5.437   5.983
 6413SOL    HW219389   5.590   5.562   5.899
 6414SOL     OW19390   3.756   5.319   5.711
 6414SOL    HW119391   3.737   5.228   5.734
 6414SOL    HW219392   3.718   5.370   5.783
 6415SOL     OW19393   5.423   4.605   0.175
 6415SOL    HW119394   5.511   4.634   0.202
 6415SOL    HW219395   5.397   4.668   0.107
 6416SOL     OW19396   5.395   4.817   6.000
 6416SOL    HW119397   5.483   4.831   5.965
 6416SOL    HW219398   5.371   4.901   0.039
 6417SOL     OW19399   5.269   4.727   5.769
 6417SOL    HW119400   5.216   4.650   5.785
 6417SOL    HW219401   5.302   4.752   5.855
 6418SOL     OW19402   4.304   4.451   5.850
 6418SOL    HW119403   4.320   4.525   5.791
 6418SOL    HW219404   4.273   4.491   5.931
 6419SOL     OW19405   4.593   4.075   5.746
 6419SOL    HW119406   4.648   4.138   5.700
 6419SOL    HW219407   4.651   4.002   5.765
 6420SOL     OW19408   4.052   4.680   5.832
 6420SOL    HW119409   4.134   4.691   5.784
 6420SOL    HW219410   4.012   4.602   5.794
 6421SOL     OW19411   4.839   5.503   5.815
 6421SOL    HW119412   4.757   5.464   5.847
 6421SOL    HW219413   4.864   5.448   5.741
 6422SOL     OW19414   5.351   5.109   5.672
 6422SOL    HW119415   5.312   5.195   5.663
 6422SOL    HW219416   5.280   5.048   5.652
 6423SOL     OW19417   4.204   5.486   5.910
 6423SOL    HW119418   4.253   5.527   5.982
 6423SOL    HW219419   4.270   5.441   5.858
 6424SOL     OW19420   4.352   3.832   5.696
 6424SOL    HW119421   4.442   3.801   5.686
 6424SOL    HW219422   4.309   3.808   5.614
 6425SOL     OW19423   5.148   4.927   5.624
 6425SOL    HW119424   5.187   4.856   5.674
 6425SOL    HW219425   5.064   4.944   5.667
 6426SOL     OW19426   4.026   3.773   5.763
 6426SOL    HW119427   4.087   3.837   5.728
 6426SOL    HW219428   4.080   3.714   5.816
 6427SOL     OW19429   4.749   4.264   5.607
 6427SOL    HW119430   4.706   4.348   5.593
 6427SOL    HW219431   4.814   4.282   5.675
 6428SOL     OW19432   5.613   4.544   5.937
 6428SOL    HW119433   5.662   4.498   0.005
 6428SOL    HW219434   5.560   4.476   5.896
 6429SOL     OW19435   4.213   5.140   5.743
 6429SOL    HW119436   4.141   5.112   5.800
 6429SOL    HW219437   4.196   5.096   5.660
 6430SOL     OW19438   5.426   5.022   0.297
 6430SOL    HW119439   5.505   4.985   0.259
 6430SOL    HW219440   5.381   5.063   0.224
 6431SOL     OW19441   5.127   4.301   5.652
 6431SOL    HW119442   5.063   4.275   5.719
 6431SOL    HW219443   5.209   4.262   5.680
 6432SOL     OW19444   4.260   3.976   5.911
 6432SOL    HW119445   4.294   3.935   5.831
 6432SOL    HW219446   4.230   4.062   5.882
 6433SOL     OW19447   4.110   4.841   0.042
 6433SOL    HW119448   4.061   4.920   0.017
 6433SOL    HW219449   4.088   4.777   5.975
 6434SOL     OW19450   4.932   4.237   5.834
 6434SOL    HW119451   4.947   4.151   5.873
 6434SOL    HW219452   4.888   4.287   5.902
 6435SOL     OW19453   4.022   3.796   0.229
 6435SOL    HW119454   4.080   3.873   0.233
 6435SOL    HW219455   4.075   3.726   0.267
 6436SOL     OW19456   5.246   4.001   5.726
 6436SOL    HW119457   5.183   3.930   5.736
 6436SOL    HW219458   5.282   4.015   5.814
 6437SOL     OW19459   5.034   4.563   5.632
 6437SOL    HW119460   5.066   4.473   5.633
 6437SOL    HW219461   5.057   4.595   5.545
 6438SOL     OW19462   3.741   5.045   5.775
 6438SOL    HW119463   3.652   5.060   5.744
 6438SOL    HW219464   3.741   4.956   5.809
 6439SOL     OW19465   4.540   4.317   5.904
 6439SOL    HW119466   4.534   4.231   5.862
 6439SOL    HW219467   4.455   4.358   5.887
 6440SOL     OW19468   4.181   4.211   5.777
 6440SOL    HW119469   4.237   4.285   5.799
 6440SOL    HW219470   4.095   4.250   5.761
 6441SOL     OW19471   5.481   3.855   0.102
 6441SOL    HW119472   5.523   3.842   0.017
 6441SOL    HW219473   5.441   3.771   0.122
 6442SOL     OW19474   4.398   5.342   5.745
 6442SOL    HW119475   4.405   5.358   5.651
 6442SOL    HW219476   4.337   5.269   5.751
 6443SOL     OW19477   4.922   5.330   5.618
 6443SOL    HW119478   4.917   5.237   5.643
 6443SOL    HW219479   4.858   5.338   5.547
 6444SOL     OW19480   4.595   4.640   5.833
 6444SOL    HW119481   4.676   4.670   5.791
 6444SOL    HW219482   4.622   4.567   5.888
 6445SOL     OW19483   5.204   5.350   5.626
 6445SOL    HW119484   5.111   5.344   5.606
 6445SOL    HW219485   5.246   5.356   5.540
 6446SOL     OW19486   4.756   4.878   0.297
 6446SOL    HW119487   4.709   4.818   0.354
 6446SOL    HW219488   4.804   4.821   0.237
 6447SOL     OW19489   3.988   5.081   5.916
 6447SOL    HW119490   3.902   5.066   5.875
 6447SOL    HW219491   3.975   5.159   5.970
 6448SOL     OW19492   3.798   4.052   5.625
 6448SOL    HW119493   3.717   4.033   5.576
 6448SOL    HW219494   3.833   4.131   5.583
 6449SOL     OW19495   3.803   3.890   5.872
 6449SOL    HW119496   3.785   3.944   5.795
 6449SOL    HW219497   3.887   3.847   5.852
 6450SOL     OW19498   4.896   5.063   5.707
 6450SOL    HW119499   4.805   5.033   5.705
 6450SOL    HW219500   4.922   5.054   5.799
 6451SOL     OW19501   4.947   4.028   0.024
 6451SOL    HW119502   5.029   3.991   0.057
 6451SOL    HW219503   4.926   4.099   0.086
 6452SOL     OW19504   4.587   5.099   5.622
 6452SOL    HW119505   4.550   5.144   5.698
 6452SOL    HW219506   4.610   5.169   5.562
 6453SOL     OW19507   4.811   4.718   5.685
 6453SOL    HW119508   4.791   4.761   5.603
 6453SOL    HW219509   4.888   4.664   5.666
 6454SOL     OW19510   5.079   3.781   5.738
 6454SOL    HW119511   5.111   3.699   5.700
 6454SOL    HW219512   4.996   3.758   5.779
 6455SOL     OW19513   3.793   4.799   5.881
 6455SOL    HW119514   3.886   4.786   5.863
 6455SOL    HW219515   3.759   4.711   5.898
 6456SOL     OW19516   4.609   5.379   5.929
 6456SOL    HW119517   4.538   5.372   5.866
 6456SOL    HW219518   4.586   5.453   5.984
 6457SOL     OW19519   3.956   5.837   0.980
 6457SOL    HW119520   3.977   5.816   1.071
 6457SOL    HW219521   3.862   5.818   0.973
 6458SOL     OW19522   3.724   5.944   0.665
 6458SOL    HW119523   3.635   5.959   0.699
 6458SOL    HW219524   3.714   5.871   0.604
 6459SOL     OW19525   4.180   5.967   1.489
 6459SOL    HW119526   4.245   5.898   1.471
 6459SOL    HW219527   4.096   5.922   1.481
 6460SOL     OW19528   5.319   0.015   0.725
 6460SOL    HW119529   5.232   0.022   0.685
 6460SOL    HW219530   5.325   0.091   0.783
 6461SOL     OW19531   5.307   5.717   1.452
 6461SOL    HW119532   5.373   5.766   1.403
 6461SOL    HW219533   5.308   5.756   1.539
 6462SOL     OW19534   4.535   5.574   0.516
 6462SOL    HW119535   4.584   5.649   0.483
 6462SOL    HW219536   4.445   5.605   0.524
 6463SOL     OW19537   4.043   5.820   1.813
 6463SOL    HW119538   4.093   5.900   1.796
 6463SOL    HW219539   3.961   5.851   1.851
 6464SOL     OW19540   4.989   5.931   0.942
 6464SOL    HW119541   4.905   5.885   0.940
 6464SOL    HW219542   5.043   5.882   1.003
 6465SOL     OW19543   4.275   5.755   0.885
 6465SOL    HW119544   4.274   5.782   0.977
 6465SOL    HW219545   4.272   5.838   0.837
 6466SOL     OW19546   3.919   5.860   1.498
 6466SOL    HW119547   3.834   5.903   1.505
 6466SOL    HW219548   3.922   5.798   1.571
 6467SOL     OW19549   5.133   5.694   0.437
 6467SOL    HW119550   5.131   5.673   0.344
 6467SOL    HW219551   5.225   5.709   0.456
 6468SOL     OW19552   5.267   5.807   1.720
 6468SOL    HW119553   5.269   5.836   1.811
 6468SOL    HW219554   5.204   5.735   1.719
 6469SOL     OW19555   4.337   5.674   0.099
 6469SOL    HW119556   4.433   5.673   0.100
 6469SOL    HW219557   4.315   5.739   0.033
 6470SOL     OW19558   4.493   5.842   1.741
 6470SOL    HW119559   4.569   5.788   1.763
 6470SOL    HW219560   4.445   5.850   1.824
 6471SOL     OW19561   5.131   0.179   1.414
 6471SOL    HW119562   5.055   0.152   1.466
 6471SOL    HW219563   5.106   0.263   1.377
 6472SOL     OW19564   4.272   5.662   0.503
 6472SOL    HW119565   4.196   5.656   0.561
 6472SOL    HW219566   4.254   5.738   0.448
 6473SOL     OW19567   4.677   5.796   0.442
 6473SOL    HW119568   4.630   5.868   0.483
 6473SOL    HW219569   4.769   5.823   0.444
 6474SOL     OW19570   4.281   5.797   1.154
 6474SOL    HW119571   4.324   5.744   1.221
 6474SOL    HW219572   4.193   5.813   1.188
 6475SOL     OW19573   4.739   5.631   0.740
 6475SOL    HW119574   4.680   5.625   0.665
 6475SOL    HW219575   4.716   5.556   0.795
 6476SOL     OW19576   4.219   5.843   0.295
 6476SOL    HW119577   4.281   5.804   0.234
 6476SOL    HW219578   4.267   5.916   0.335
 6477SOL     OW19579   4.643   5.677   1.397
 6477SOL    HW119580   4.665   5.660   1.306
 6477SOL    HW219581   4.719   5.724   1.432
 6478SOL     OW19582   4.730   5.700   1.756
 6478SOL    HW119583   4.747   5.747   1.674
 6478SOL    HW219584   4.780   5.619   1.748
 6479SOL     OW19585   4.221   5.621   1.748
 6479SOL    HW119586   4.179   5.569   1.680
 6479SOL    HW219587   4.160   5.694   1.765
 6480SOL     OW19588   4.017   5.783   1.248
 6480SOL    HW119589   3.978   5.816   1.329
 6480SOL    HW219590   4.002   5.689   1.250
 6481SOL     OW19591   4.531   0.244   1.048
 6481SOL    HW119592   4.496   0.216   0.964
 6481SOL    HW219593   4.453   0.265   1.100
 6482SOL     OW19594   4.024   5.657   0.627
 6482SOL    HW119595   3.989   5.744   0.647
 6482SOL    HW219596   4.033   5.614   0.712
 6483SOL     OW19597   5.234   5.873   0.147
 6483SOL    HW119598   5.175   5.797   0.148
 6483SOL    HW219599   5.322   5.835   0.146
 6484SOL     OW19600   4.084   0.072   1.015
 6484SOL    HW119601   4.041   5.990   0.989
 6484SOL    HW219602   4.142   0.093   0.942
 6485SOL     OW19603   4.872   5.809   1.482
 6485SOL    HW119604   4.909   5.875   1.541
 6485SOL    HW219605   4.891   5.842   1.394
 6486SOL     OW19606   4.526   0.163   0.321
 6486SOL    HW119607   4.512   0.085   0.267
 6486SOL    HW219608   4.440   0.205   0.324
 6487SOL     OW19609   4.615   5.641   0.096
 6487SOL    HW119610   4.677   5.701   0.055
 6487SOL    HW219611   4.655   5.618   0.179
 6488SOL     OW19612   5.433   5.728   0.516
 6488SOL    HW119613   5.504   5.727   0.451
 6488SOL    HW219614   5.428   5.638   0.548
 6489SOL     OW19615   5.561   5.765   0.979
 6489SOL    HW119616   5.597   5.681   0.951
 6489SOL    HW219617   5.477   5.770   0.934
 6490SOL     OW19618   4.742   5.807   0.952
 6490SOL    HW119619   4.741   5.751   0.874
 6490SOL    HW219620   4.734   5.747   1.025
 6491SOL     OW19621   4.395   5.777   1.490
 6491SOL    HW119622   4.481   5.763   1.449
 6491SOL    HW219623   4.415   5.809   1.578
 6492SOL     OW19624   3.780   5.930   0.079
 6492SOL    HW119625   3.785   5.863   0.012
 6492SOL    HW219626   3.863   5.977   0.073
 6493SOL     OW19627   3.783   5.754   0.323
 6493SOL    HW119628   3.764   5.827   0.263
 6493SOL    HW219629   3.871   5.725   0.297
 6494SOL     OW19630   4.938   5.896   0.457
 6494SOL    HW119631   5.005   5.828   0.450
 6494SOL    HW219632   4.975   5.959   0.519
 6495SOL     OW19633   5.515   5.914   1.640
 6495SOL    HW119634   5.483   5.982   1.582
 6495SOL    HW219635   5.436   5.871   1.673
 6496SOL     OW19636   5.511   5.774   1.253
 6496SOL    HW119637   5.560   5.693   1.270
 6496SOL    HW219638   5.527   5.793   1.160
 6497SOL     OW19639   5.149   5.804   1.125
 6497SOL    HW119640   5.193   5.721   1.143
 6497SOL    HW219641   5.149   5.850   1.209
 6498SOL     OW19642   4.733   5.600   1.143
 6498SOL    HW119643   4.678   5.534   1.101
 6498SOL    HW219644   4.821   5.562   1.142
 6499SOL     OW19645   5.078   5.640   0.162
 6499SOL    HW119646   5.111   5.573   0.103
 6499SOL    HW219647   4.992   5.607   0.190
 6500SOL     OW19648   5.035   0.041   0.695
 6500SOL    HW119649   4.966   0.106   0.687
 6500SOL    HW219650   5.023   0.003   0.782
 6501SOL     OW19651   5.305   5.782   0.881
 6501SOL    HW119652   5.241   5.811   0.945
 6501SOL    HW219653   5.305   5.851   0.814
 6502SOL     OW19654   3.923   5.945   2.735
 6502SOL    HW119655   3.961   5.886   2.800
 6502SOL    HW219656   3.849   5.898   2.698
 6503SOL     OW19657   3.755   5.935   2.478
 6503SOL    HW119658   3.708   5.992   2.539
 6503SOL    HW219659   3.687   5.876   2.444
 6504SOL     OW19660   5.443   0.139   2.029
 6504SOL    HW119661   5.506   0.080   1.986
 6504SOL    HW219662   5.472   0.142   2.120
 6505SOL     OW19663   4.212   5.973   3.423
 6505SOL    HW119664   4.241   5.888   3.390
 6505SOL    HW219665   4.131   5.990   3.375
 6506SOL     OW19666   5.306   0.013   2.554
 6506SOL    HW119667   5.226   0.038   2.507
 6506SOL    HW219668   5.328   0.089   2.607
 6507SOL     OW19669   5.279   5.717   3.378
 6507SOL    HW119670   5.278   5.797   3.324
 6507SOL    HW219671   5.288   5.749   3.468
 6508SOL     OW19672   4.529   5.581   2.362
 6508SOL    HW119673   4.574   5.659   2.327
 6508SOL    HW219674   4.439   5.609   2.375
 6509SOL     OW19675   4.007   5.837   3.663
 6509SOL    HW119676   4.073   5.905   3.671
 6509SOL    HW219677   3.943   5.858   3.731
 6510SOL     OW19678   5.041   5.939   2.738
 6510SOL    HW119679   4.958   5.898   2.712
 6510SOL    HW219680   5.060   5.902   2.824
 6511SOL     OW19681   4.585   5.940   2.020
 6511SOL    HW119682   4.656   5.968   1.963
 6511SOL    HW219683   4.617   5.862   2.063
 6512SOL     OW19684   4.295   5.758   2.689
 6512SOL    HW119685   4.268   5.791   2.775
 6512SOL    HW219686   4.286   5.833   2.631
 6513SOL     OW19687   3.875   5.869   3.419
 6513SOL    HW119688   3.787   5.886   3.455
 6513SOL    HW219689   3.919   5.818   3.488
 6514SOL     OW19690   5.135   5.698   2.299
 6514SOL    HW119691   5.129   5.663   2.210
 6514SOL    HW219692   5.229   5.703   2.317
 6515SOL     OW19693   5.254   5.823   3.615
 6515SOL    HW119694   5.263   5.849   3.707
 6515SOL    HW219695   5.189   5.753   3.617
 6516SOL     OW19696   4.361   5.708   1.970
 6516SOL    HW119697   4.435   5.648   1.976
 6516SOL    HW219698   4.313   5.678   1.892
 6517SOL     OW19699   4.521   5.887   3.647
 6517SOL    HW119700   4.587   5.817   3.651
 6517SOL    HW219701   4.455   5.862   3.712
 6518SOL     OW19702   5.125   0.151   3.294
 6518SOL    HW119703   5.066   0.125   3.365
 6518SOL    HW219704   5.098   0.240   3.272
 6519SOL     OW19705   4.267   5.664   2.357
 6519SOL    HW119706   4.190   5.658   2.412
 6519SOL    HW219707   4.249   5.737   2.298
 6520SOL     OW19708   4.016   5.631   2.045
 6520SOL    HW119709   4.071   5.700   2.010
 6520SOL    HW219710   4.077   5.571   2.089
 6521SOL     OW19711   4.674   5.802   2.288
 6521SOL    HW119712   4.627   5.874   2.329
 6521SOL    HW219713   4.767   5.825   2.299
 6522SOL     OW19714   4.379   5.731   3.239
 6522SOL    HW119715   4.423   5.707   3.157
 6522SOL    HW219716   4.379   5.827   3.239
 6523SOL     OW19717   4.737   5.601   2.544
 6523SOL    HW119718   4.669   5.594   2.477
 6523SOL    HW219719   4.717   5.531   2.606
 6524SOL     OW19720   4.219   5.854   2.158
 6524SOL    HW119721   4.282   5.821   2.094
 6524SOL    HW219722   4.265   5.925   2.203
 6525SOL     OW19723   4.647   5.770   3.299
 6525SOL    HW119724   4.601   5.692   3.331
 6525SOL    HW219725   4.735   5.762   3.335
 6526SOL     OW19726   4.726   5.707   3.624
 6526SOL    HW119727   4.747   5.754   3.544
 6526SOL    HW219728   4.780   5.628   3.620
 6527SOL     OW19729   4.183   5.635   3.661
 6527SOL    HW119730   4.181   5.581   3.582
 6527SOL    HW219731   4.118   5.704   3.644
 6528SOL     OW19732   4.076   5.820   3.257
 6528SOL    HW119733   4.000   5.848   3.308
 6528SOL    HW219734   4.068   5.725   3.250
 6529SOL     OW19735   4.495   0.151   2.694
 6529SOL    HW119736   4.576   0.184   2.656
 6529SOL    HW219737   4.511   0.149   2.788
 6530SOL     OW19738   4.018   5.664   2.472
 6530SOL    HW119739   3.974   5.748   2.487
 6530SOL    HW219740   4.028   5.627   2.560
 6531SOL     OW19741   5.239   5.856   1.990
 6531SOL    HW119742   5.194   5.775   2.016
 6531SOL    HW219743   5.307   5.868   2.057
 6532SOL     OW19744   4.188   0.001   2.731
 6532SOL    HW119745   4.098   5.992   2.701
 6532SOL    HW219746   4.211   0.092   2.714
 6533SOL     OW19747   4.892   5.794   3.413
 6533SOL    HW119748   4.947   5.837   3.479
 6533SOL    HW219749   4.905   5.845   3.333
 6534SOL     OW19750   4.542   0.169   2.167
 6534SOL    HW119751   4.545   0.081   2.129
 6534SOL    HW219752   4.450   0.193   2.166
 6535SOL     OW19753   5.440   5.736   2.361
 6535SOL    HW119754   5.515   5.732   2.302
 6535SOL    HW219755   5.433   5.648   2.397
 6536SOL     OW19756   5.564   5.754   2.694
 6536SOL    HW119757   5.599   5.665   2.688
 6536SOL    HW219758   5.470   5.742   2.701
 6537SOL     OW19759   4.808   5.802   2.702
 6537SOL    HW119760   4.791   5.741   2.629
 6537SOL    HW219761   4.774   5.756   2.779
 6538SOL     OW19762   4.414   5.696   3.493
 6538SOL    HW119763   4.405   5.718   3.401
 6538SOL    HW219764   4.443   5.777   3.535
 6539SOL     OW19765   3.784   5.925   1.888
 6539SOL    HW119766   3.739   5.919   1.804
 6539SOL    HW219767   3.816   0.015   1.892
 6540SOL     OW19768   3.790   5.743   2.162
 6540SOL    HW119769   3.783   5.827   2.117
 6540SOL    HW219770   3.876   5.708   2.135
 6541SOL     OW19771   4.938   5.895   2.326
 6541SOL    HW119772   5.005   5.826   2.315
 6541SOL    HW219773   4.988   5.971   2.355
 6542SOL     OW19774   5.506   5.915   3.533
 6542SOL    HW119775   5.484   5.980   3.467
 6542SOL    HW219776   5.421   5.877   3.558
 6543SOL     OW19777   5.529   5.797   3.272
 6543SOL    HW119778   5.528   5.724   3.333
 6543SOL    HW219779   5.613   5.789   3.226
 6544SOL     OW19780   5.272   5.937   3.247
 6544SOL    HW119781   5.311   5.893   3.171
 6544SOL    HW219782   5.196   5.983   3.211
 6545SOL     OW19783   4.812   5.555   3.243
 6545SOL    HW119784   4.902   5.571   3.215
 6545SOL    HW219785   4.758   5.597   3.176
 6546SOL     OW19786   5.084   5.631   2.030
 6546SOL    HW119787   5.110   5.561   1.970
 6546SOL    HW219788   4.995   5.607   2.056
 6547SOL     OW19789   5.026   0.098   2.527
 6547SOL    HW119790   4.931   0.097   2.512
 6547SOL    HW219791   5.038   0.040   2.602
 6548SOL     OW19792   5.292   5.767   2.683
 6548SOL    HW119793   5.219   5.815   2.723
 6548SOL    HW219794   5.324   5.827   2.615
 6549SOL     OW19795   3.957   5.834   4.703
 6549SOL    HW119796   3.978   5.816   4.795
 6549SOL    HW219797   3.863   5.817   4.697
 6550SOL     OW19798   3.725   5.940   4.388
 6550SOL    HW119799   3.638   5.962   4.421
 6550SOL    HW219800   3.710   5.866   4.329
 6551SOL     OW19801   5.440   0.137   3.893
 6551SOL    HW119802   5.505   0.083   3.849
 6551SOL    HW219803   5.472   0.143   3.983
 6552SOL     OW19804   4.180   5.967   5.213
 6552SOL    HW119805   4.245   5.898   5.195
 6552SOL    HW219806   4.096   5.922   5.207
 6553SOL     OW19807   5.319   0.020   4.440
 6553SOL    HW119808   5.229   0.024   4.407
 6553SOL    HW219809   5.325   0.092   4.503
 6554SOL     OW19810   5.307   5.716   5.178
 6554SOL    HW119811   5.372   5.768   5.130
 6554SOL    HW219812   5.307   5.754   5.266
 6555SOL     OW19813   4.533   5.576   4.242
 6555SOL    HW119814   4.583   5.650   4.209
 6555SOL    HW219815   4.443   5.607   4.247
 6556SOL     OW19816   4.048   5.821   5.543
 6556SOL    HW119817   4.096   5.901   5.521
 6556SOL    HW219818   3.965   5.852   5.578
 6557SOL     OW19819   4.988   5.931   4.667
 6557SOL    HW119820   4.905   5.884   4.665
 6557SOL    HW219821   5.042   5.881   4.728
 6558SOL     OW19822   4.596   5.945   3.911
 6558SOL    HW119823   4.648   5.961   3.832
 6558SOL    HW219824   4.620   5.857   3.938
 6559SOL     OW19825   4.271   5.755   4.609
 6559SOL    HW119826   4.272   5.781   4.701
 6559SOL    HW219827   4.271   5.838   4.561
 6560SOL     OW19828   3.919   5.859   5.222
 6560SOL    HW119829   3.834   5.903   5.232
 6560SOL    HW219830   3.915   5.785   5.282
 6561SOL     OW19831   5.133   5.693   4.162
 6561SOL    HW119832   5.128   5.660   4.073
 6561SOL    HW219833   5.227   5.699   4.181
 6562SOL     OW19834   5.267   5.807   5.450
 6562SOL    HW119835   5.270   5.836   5.542
 6562SOL    HW219836   5.205   5.734   5.451
 6563SOL     OW19837   4.377   5.715   3.827
 6563SOL    HW119838   4.436   5.639   3.832
 6563SOL    HW219839   4.310   5.689   3.765
 6564SOL     OW19840   4.492   5.843   5.463
 6564SOL    HW119841   4.566   5.787   5.485
 6564SOL    HW219842   4.443   5.850   5.545
 6565SOL     OW19843   5.131   0.179   5.138
 6565SOL    HW119844   5.054   0.152   5.189
 6565SOL    HW219845   5.106   0.264   5.101
 6566SOL     OW19846   4.267   5.658   4.222
 6566SOL    HW119847   4.189   5.660   4.278
 6566SOL    HW219848   4.255   5.731   4.161
 6567SOL     OW19849   4.012   5.638   3.908
 6567SOL    HW119850   4.075   5.690   3.859
 6567SOL    HW219851   4.066   5.572   3.953
 6568SOL     OW19852   4.677   5.795   4.169
 6568SOL    HW119853   4.631   5.871   4.205
 6568SOL    HW219854   4.769   5.822   4.169
 6569SOL     OW19855   4.281   5.796   4.878
 6569SOL    HW119856   4.324   5.745   4.947
 6569SOL    HW219857   4.193   5.812   4.912
 6570SOL     OW19858   4.740   5.631   4.465
 6570SOL    HW119859   4.682   5.627   4.389
 6570SOL    HW219860   4.715   5.556   4.518
 6571SOL     OW19861   4.226   5.853   4.020
 6571SOL    HW119862   4.291   5.821   3.957
 6571SOL    HW219863   4.270   5.923   4.068
 6572SOL     OW19864   4.643   5.677   5.121
 6572SOL    HW119865   4.666   5.660   5.030
 6572SOL    HW219866   4.719   5.723   5.157
 6573SOL     OW19867   4.726   5.697   5.483
 6573SOL    HW119868   4.748   5.749   5.405
 6573SOL    HW219869   4.778   5.617   5.473
 6574SOL     OW19870   4.220   5.621   5.471
 6574SOL    HW119871   4.177   5.567   5.405
 6574SOL    HW219872   4.160   5.693   5.487
 6575SOL     OW19873   4.017   5.785   4.972
 6575SOL    HW119874   3.979   5.817   5.053
 6575SOL    HW219875   4.003   5.690   4.974
 6576SOL     OW19876   4.531   0.245   4.772
 6576SOL    HW119877   4.495   0.217   4.688
 6576SOL    HW219878   4.453   0.265   4.825
 6577SOL     OW19879   4.022   5.655   4.351
 6577SOL    HW119880   3.988   5.743   4.366
 6577SOL    HW219881   4.029   5.617   4.439
 6578SOL     OW19882   5.236   5.860   3.878
 6578SOL    HW119883   5.194   5.776   3.897
 6578SOL    HW219884   5.308   5.866   3.941
 6579SOL     OW19885   4.084   0.070   4.738
 6579SOL    HW119886   4.042   5.988   4.711
 6579SOL    HW219887   4.141   0.093   4.665
 6580SOL     OW19888   4.872   5.810   5.206
 6580SOL    HW119889   4.911   5.872   5.267
 6580SOL    HW219890   4.890   5.846   5.119
 6581SOL     OW19891   4.550   0.175   4.042
 6581SOL    HW119892   4.566   0.087   4.007
 6581SOL    HW219893   4.457   0.190   4.028
 6582SOL     OW19894   5.442   5.726   4.230
 6582SOL    HW119895   5.516   5.718   4.170
 6582SOL    HW219896   5.433   5.639   4.269
 6583SOL     OW19897   5.561   5.764   4.703
 6583SOL    HW119898   5.598   5.681   4.674
 6583SOL    HW219899   5.477   5.770   4.657
 6584SOL     OW19900   4.741   5.807   4.676
 6584SOL    HW119901   4.742   5.751   4.598
 6584SOL    HW219902   4.734   5.747   4.749
 6585SOL     OW19903   4.395   5.777   5.212
 6585SOL    HW119904   4.481   5.762   5.172
 6585SOL    HW219905   4.415   5.809   5.300
 6586SOL     OW19906   3.765   5.946   3.780
 6586SOL    HW119907   3.725   5.929   3.695
 6586SOL    HW219908   3.825   0.019   3.764
 6587SOL     OW19909   3.792   5.750   4.029
 6587SOL    HW119910   3.781   5.829   3.978
 6587SOL    HW219911   3.877   5.715   4.001
 6588SOL     OW19912   4.940   5.895   4.183
 6588SOL    HW119913   5.006   5.826   4.177
 6588SOL    HW219914   4.978   5.959   4.243
 6589SOL     OW19915   5.513   5.914   5.367
 6589SOL    HW119916   5.481   5.982   5.308
 6589SOL    HW219917   5.434   5.871   5.399
 6590SOL     OW19918   5.511   5.775   4.977
 6590SOL    HW119919   5.560   5.694   4.994
 6590SOL    HW219920   5.528   5.793   4.884
 6591SOL     OW19921   5.150   5.804   4.848
 6591SOL    HW119922   5.194   5.721   4.868
 6591SOL    HW219923   5.147   5.849   4.932
 6592SOL     OW19924   4.733   5.600   4.867
 6592SOL    HW119925   4.678   5.534   4.825
 6592SOL    HW219926   4.821   5.562   4.866
 6593SOL     OW19927   5.083   5.631   3.892
 6593SOL    HW119928   5.109   5.558   3.835
 6593SOL    HW219929   4.994   5.609   3.919
 6594SOL     OW19930   5.037   0.042   4.422
 6594SOL    HW119931   4.967   0.105   4.412
 6594SOL    HW219932   5.023   0.004   4.509
 6595SOL     OW19933   5.305   5.785   4.603
 6595SOL    HW119934   5.242   5.813   4.669
 6595SOL    HW219935   5.303   5.854   4.536
 6596SOL     OW19936   5.443   0.192   5.796
 6596SOL    HW119937   5.477   0.114   5.752
 6596SOL    HW219938   5.440   0.168   5.888
 6597SOL     OW19939   4.751   0.212   0.044
 6597SOL    HW119940   4.819   0.275   0.021
 6597SOL    HW219941   4.678   0.233   5.986
 6598SOL     OW19942   4.590   5.953   5.738
 6598SOL    HW119943   4.659   5.990   5.683
 6598SOL    HW219944   4.620   5.863   5.757
 6599SOL     OW19945   4.051   0.255   0.084
 6599SOL    HW119946   4.119   0.277   0.020
 6599SOL    HW219947   3.974   0.236   0.032
 6600SOL     OW19948   4.364   5.707   5.689
 6600SOL    HW119949   4.435   5.643   5.694
 6600SOL    HW219950   4.312   5.679   5.613
 6601SOL     OW19951   4.018   5.634   5.765
 6601SOL    HW119952   4.072   5.695   5.717
 6601SOL    HW219953   4.080   5.581   5.815
 6602SOL     OW19954   4.247   5.853   5.890
 6602SOL    HW119955   4.286   5.805   5.817
 6602SOL    HW219956   4.294   5.936   5.892
 6603SOL     OW19957   4.023   5.652   0.229
 6603SOL    HW119958   4.077   5.731   0.236
 6603SOL    HW219959   4.077   5.582   0.267
 6604SOL     OW19960   5.241   5.859   5.725
 6604SOL    HW119961   5.189   5.780   5.739
 6604SOL    HW219962   5.301   5.862   5.800
 6605SOL     OW19963   4.526   0.162   5.908
 6605SOL    HW119964   4.533   0.080   5.859
 6605SOL    HW219965   4.438   0.195   5.888
 6606SOL     OW19966   5.441   5.698   0.106
 6606SOL    HW119967   5.505   5.702   0.034
 6606SOL    HW219968   5.431   5.605   0.124
 6607SOL     OW19969   3.782   5.924   5.619
 6607SOL    HW119970   3.734   5.906   5.538
 6607SOL    HW219971   3.819   0.012   5.606
 6608SOL     OW19972   3.796   5.754   5.870
 6608SOL    HW119973   3.778   5.807   5.793
 6608SOL    HW219974   3.878   5.709   5.849
 6609SOL     OW19975   5.080   5.638   5.740
 6609SOL    HW119976   5.115   5.557   5.702
 6609SOL    HW219977   4.995   5.612   5.776
 6610SOL     OW19978   5.773   0.659   0.100
 6610SOL    HW119979   5.715   0.620   0.165
 6610SOL    HW219980   5.816   0.585   0.058
 6611SOL     OW19981   5.795   0.327   1.012
 6611SOL    HW119982   5.839   0.285   1.086
 6611SOL    HW219983   5.731   0.262   0.983
 6612SOL     OW19984   5.590   0.390   0.635
 6612SOL    HW119985   5.503   0.401   0.672
 6612SOL    HW219986   5.585   0.308   0.585
 6613SOL     OW19987   0.227   0.992   0.660
 6613SOL    HW119988   0.308   0.944   0.641
 6613SOL    HW219989   0.242   1.029   0.747
 6614SOL     OW19990   5.889   1.495   1.034
 6614SOL    HW119991   5.813   1.438   1.022
 6614SOL    HW219992   5.965   1.439   1.020
 6615SOL     OW19993   5.804   1.716   0.477
 6615SOL    HW119994   5.826   1.787   0.538
 6615SOL    HW219995   5.880   1.711   0.419
 6616SOL     OW19996   5.804   1.437   0.512
 6616SOL    HW119997   5.795   1.532   0.516
 6616SOL    HW219998   5.747   1.404   0.581
 6617SOL     OW19999   5.875   1.098   0.914
 6617SOL    HW120000   5.857   1.008   0.941
 6617SOL    HW220001   5.799   1.148   0.944
 6618SOL     OW20002   5.705   0.637   0.572
 6618SOL    HW120003   5.670   0.551   0.593
 6618SOL    HW220004   5.698   0.688   0.653
 6619SOL     OW20005   5.566   1.586   0.126
 6619SOL    HW120006   5.590   1.498   0.156
 6619SOL    HW220007   5.580   1.642   0.203
 6620SOL     OW20008   5.706   0.742   1.583
 6620SOL    HW120009   5.781   0.781   1.629
 6620SOL    HW220010   5.642   0.813   1.576
 6621SOL     OW20011   5.786   0.950   1.271
 6621SOL    HW120012   5.855   0.928   1.209
 6621SOL    HW220013   5.707   0.911   1.234
 6622SOL     OW20014   5.683   0.821   0.783
 6622SOL    HW120015   5.749   0.806   0.850
 6622SOL    HW220016   5.632   0.895   0.816
 6623SOL     OW20017   5.716   1.877   1.573
 6623SOL    HW120018   5.729   1.843   1.661
 6623SOL    HW220019   5.631   1.841   1.546
 6624SOL     OW20020   5.785   0.299   1.519
 6624SOL    HW120021   5.706   0.342   1.488
 6624SOL    HW220022   5.754   0.237   1.585
 6625SOL     OW20023   0.039   1.738   0.310
 6625SOL    HW120024   0.090   1.732   0.391
 6625SOL    HW220025   0.105   1.742   0.241
 6626SOL     OW20026   5.840   1.779   1.234
 6626SOL    HW120027   5.904   1.719   1.273
 6626SOL    HW220028   5.828   1.748   1.145
 6627SOL     OW20029   5.872   0.063   0.194
 6627SOL    HW120030   5.935   0.128   0.222
 6627SOL    HW220031   5.896   5.984   0.243
 6628SOL     OW20032   5.687   0.548   1.385
 6628SOL    HW120033   5.782   0.541   1.374
 6628SOL    HW220034   5.675   0.621   1.446
 6629SOL     OW20035   5.654   1.579   1.350
 6629SOL    HW120036   5.601   1.633   1.292
 6629SOL    HW220037   5.740   1.620   1.351
 6630SOL     OW20038   0.126   0.545   0.854
 6630SOL    HW120039   0.133   0.607   0.782
 6630SOL    HW220040   0.197   0.569   0.913
 6631SOL     OW20041   5.886   0.223   1.262
 6631SOL    HW120042   5.856   0.247   1.350
 6631SOL    HW220043   5.862   0.131   1.252
 6632SOL     OW20044   5.632   1.310   1.278
 6632SOL    HW120045   5.668   1.257   1.349
 6632SOL    HW220046   5.641   1.401   1.307
 6633SOL     OW20047   5.883   0.812   0.996
 6633SOL    HW120048   5.951   0.817   0.928
 6633SOL    HW220049   5.902   0.730   1.042
 6634SOL     OW20050   5.678   1.786   0.940
 6634SOL    HW120051   5.643   1.708   0.896
 6634SOL    HW220052   5.767   1.794   0.905
 6635SOL     OW20053   5.625   0.538   1.109
 6635SOL    HW120054   5.685   0.482   1.059
 6635SOL    HW220055   5.662   0.539   1.198
 6636SOL     OW20056   5.783   0.510   1.721
 6636SOL    HW120057   5.816   0.456   1.649
 6636SOL    HW220058   5.736   0.581   1.678
 6637SOL     OW20059   5.814   1.544   1.720
 6637SOL    HW120060   5.817   1.617   1.782
 6637SOL    HW220061   5.845   1.469   1.771
 6638SOL     OW20062   5.730   1.134   1.476
 6638SOL    HW120063   5.733   1.082   1.556
 6638SOL    HW220064   5.753   1.072   1.406
 6639SOL     OW20065   5.676   1.267   1.011
 6639SOL    HW120066   5.657   1.279   1.104
 6639SOL    HW220067   5.602   1.216   0.978
 6640SOL     OW20068   5.723   1.799   1.836
 6640SOL    HW120069   5.673   1.732   1.882
 6640SOL    HW220070   5.769   1.847   1.905
 6641SOL     OW20071   5.944   1.308   1.534
 6641SOL    HW120072   5.924   1.396   1.504
 6641SOL    HW220073   5.869   1.255   1.509
 6642SOL     OW20074   5.703   1.011   1.727
 6642SOL    HW120075   5.613   0.999   1.759
 6642SOL    HW220076   5.758   0.990   1.802
 6643SOL     OW20077   5.630   0.394   0.048
 6643SOL    HW120078   5.571   0.319   0.047
 6643SOL    HW220079   5.674   0.392   5.963
 6644SOL     OW20080   5.648   0.171   0.323
 6644SOL    HW120081   5.646   0.255   0.278
 6644SOL    HW220082   5.718   0.122   0.279
 6645SOL     OW20083   0.206   0.835   1.430
 6645SOL    HW120084   0.252   0.918   1.420
 6645SOL    HW220085   0.272   0.774   1.461
 6646SOL     OW20086   5.806   1.302   1.873
 6646SOL    HW120087   5.770   1.253   1.799
 6646SOL    HW220088   5.730   1.318   1.930
 6647SOL     OW20089   5.666   1.242   0.671
 6647SOL    HW120090   5.663   1.183   0.746
 6647SOL    HW220091   5.741   1.211   0.619
 6648SOL     OW20092   5.633   1.073   0.292
 6648SOL    HW120093   5.729   1.071   0.293
 6648SOL    HW220094   5.607   0.997   0.344
 6649SOL     OW20095   5.823   0.641   1.967
 6649SOL    HW120096   5.744   0.624   2.020
 6649SOL    HW220097   5.808   0.593   1.886
 6650SOL     OW20098   5.868   0.226   2.692
 6650SOL    HW120099   5.881   0.149   2.747
 6650SOL    HW220100   5.776   0.222   2.667
 6651SOL     OW20101   5.613   0.391   2.489
 6651SOL    HW120102   5.519   0.400   2.505
 6651SOL    HW220103   5.626   0.298   2.473
 6652SOL     OW20104   0.262   0.970   2.481
 6652SOL    HW120105   0.342   0.919   2.494
 6652SOL    HW220106   0.253   1.020   2.562
 6653SOL     OW20107   5.968   1.531   2.722
 6653SOL    HW120108   5.909   1.456   2.730
 6653SOL    HW220109   0.054   1.493   2.704
 6654SOL     OW20110   5.798   1.742   2.332
 6654SOL    HW120111   5.836   1.818   2.377
 6654SOL    HW220112   5.869   1.709   2.277
 6655SOL     OW20113   5.837   1.467   2.382
 6655SOL    HW120114   5.787   1.548   2.387
 6655SOL    HW220115   5.784   1.402   2.429
 6656SOL     OW20116   5.864   1.033   2.714
 6656SOL    HW120117   5.860   0.938   2.716
 6656SOL    HW220118   5.777   1.061   2.687
 6657SOL     OW20119   5.699   0.624   2.384
 6657SOL    HW120120   5.676   0.540   2.422
 6657SOL    HW220121   5.706   0.683   2.459
 6658SOL     OW20122   5.620   1.598   1.988
 6658SOL    HW120123   5.612   1.505   2.008
 6658SOL    HW220124   5.595   1.643   2.069
 6659SOL     OW20125   5.703   0.732   3.482
 6659SOL    HW120126   5.788   0.758   3.518
 6659SOL    HW220127   5.662   0.815   3.457
 6660SOL     OW20128   5.774   0.890   3.248
 6660SOL    HW120129   5.868   0.907   3.241
 6660SOL    HW220130   5.749   0.858   3.162
 6661SOL     OW20131   5.697   0.821   2.565
 6661SOL    HW120132   5.761   0.783   2.624
 6661SOL    HW220133   5.621   0.839   2.620
 6662SOL     OW20134   5.696   1.854   3.429
 6662SOL    HW120135   5.718   1.843   3.521
 6662SOL    HW220136   5.616   1.801   3.417
 6663SOL     OW20137   5.802   0.307   3.420
 6663SOL    HW120138   5.741   0.335   3.352
 6663SOL    HW220139   5.766   0.224   3.452
 6664SOL     OW20140   0.037   1.750   2.184
 6664SOL    HW120141   0.076   1.741   2.271
 6664SOL    HW220142   0.112   1.760   2.125
 6665SOL     OW20143   5.942   1.747   3.294
 6665SOL    HW120144   5.864   1.749   3.350
 6665SOL    HW220145   5.920   1.806   3.222
 6666SOL     OW20146   5.878   0.030   2.034
 6666SOL    HW120147   5.935   0.104   2.053
 6666SOL    HW220148   5.909   5.960   2.093
 6667SOL     OW20149   5.715   0.560   3.277
 6667SOL    HW120150   5.810   0.572   3.275
 6667SOL    HW220151   5.684   0.624   3.341
 6668SOL     OW20152   5.698   1.578   3.269
 6668SOL    HW120153   5.635   1.616   3.207
 6668SOL    HW220154   5.778   1.568   3.218
 6669SOL     OW20155   0.036   0.541   2.696
 6669SOL    HW120156   0.055   0.588   2.615
 6669SOL    HW220157   0.122   0.515   2.729
 6670SOL     OW20158   5.945   0.127   3.272
 6670SOL    HW120159   5.896   0.201   3.308
 6670SOL    HW220160   5.879   0.059   3.258
 6671SOL     OW20161   5.616   1.313   3.280
 6671SOL    HW120162   5.677   1.244   3.307
 6671SOL    HW220163   5.662   1.395   3.297
 6672SOL     OW20164   5.865   0.734   2.742
 6672SOL    HW120165   5.940   0.777   2.701
 6672SOL    HW220166   5.898   0.647   2.766
 6673SOL     OW20167   5.595   1.324   2.042
 6673SOL    HW120168   5.505   1.337   2.013
 6673SOL    HW220169   5.592   1.247   2.099
 6674SOL     OW20170   5.717   1.814   2.665
 6674SOL    HW120171   5.704   1.756   2.589
 6674SOL    HW220172   5.812   1.821   2.673
 6675SOL     OW20173   5.695   0.318   3.176
 6675SOL    HW120174   5.698   0.313   3.080
 6675SOL    HW220175   5.707   0.411   3.195
 6676SOL     OW20176   5.791   0.504   3.602
 6676SOL    HW120177   5.809   0.442   3.532
 6676SOL    HW220178   5.741   0.574   3.560
 6677SOL     OW20179   5.822   1.575   3.605
 6677SOL    HW120180   5.847   1.602   3.693
 6677SOL    HW220181   5.849   1.483   3.600
 6678SOL     OW20182   5.753   1.113   3.388
 6678SOL    HW120183   5.747   1.074   3.475
 6678SOL    HW220184   5.764   1.039   3.329
 6679SOL     OW20185   5.622   1.143   2.747
 6679SOL    HW120186   5.678   1.154   2.824
 6679SOL    HW220187   5.586   1.231   2.731
 6680SOL     OW20188   5.706   1.824   3.701
 6680SOL    HW120189   5.671   1.742   3.736
 6680SOL    HW220190   5.763   1.857   3.771
 6681SOL     OW20191   5.874   1.349   3.462
 6681SOL    HW120192   5.942   1.398   3.416
 6681SOL    HW220193   5.872   1.264   3.418
 6682SOL     OW20194   5.710   0.992   3.622
 6682SOL    HW120195   5.621   0.984   3.657
 6682SOL    HW220196   5.767   0.966   3.694
 6683SOL     OW20197   5.677   0.325   1.901
 6683SOL    HW120198   5.582   0.321   1.891
 6683SOL    HW220199   5.705   0.391   1.838
 6684SOL     OW20200   5.678   0.172   2.195
 6684SOL    HW120201   5.667   0.246   2.136
 6684SOL    HW220202   5.748   0.120   2.156
 6685SOL     OW20203   0.212   0.808   3.382
 6685SOL    HW120204   0.253   0.895   3.377
 6685SOL    HW220205   0.275   0.749   3.341
 6686SOL     OW20206   5.808   1.297   3.747
 6686SOL    HW120207   5.778   1.270   3.660
 6686SOL    HW220208   5.728   1.314   3.796
 6687SOL     OW20209   5.716   1.261   2.512
 6687SOL    HW120210   5.638   1.207   2.526
 6687SOL    HW220211   5.777   1.204   2.465
 6688SOL     OW20212   5.623   1.076   2.175
 6688SOL    HW120213   5.717   1.081   2.162
 6688SOL    HW220214   5.606   0.983   2.188
 6689SOL     OW20215   5.822   0.647   3.837
 6689SOL    HW120216   5.740   0.625   3.882
 6689SOL    HW220217   5.817   0.599   3.754
 6690SOL     OW20218   5.794   0.328   4.736
 6690SOL    HW120219   5.839   0.287   4.811
 6690SOL    HW220220   5.730   0.262   4.708
 6691SOL     OW20221   5.593   0.396   4.358
 6691SOL    HW120222   5.505   0.402   4.395
 6691SOL    HW220223   5.592   0.314   4.309
 6692SOL     OW20224   0.230   0.989   4.383
 6692SOL    HW120225   0.311   0.942   4.365
 6692SOL    HW220226   0.243   1.028   4.469
 6693SOL     OW20227   5.888   1.495   4.759
 6693SOL    HW120228   5.814   1.437   4.746
 6693SOL    HW220229   5.965   1.440   4.744
 6694SOL     OW20230   5.797   1.718   4.200
 6694SOL    HW120231   5.820   1.786   4.263
 6694SOL    HW220232   5.872   1.715   4.140
 6695SOL     OW20233   5.815   1.442   4.255
 6695SOL    HW120234   5.798   1.536   4.243
 6695SOL    HW220235   5.744   1.412   4.313
 6696SOL     OW20236   5.874   1.099   4.640
 6696SOL    HW120237   5.857   1.008   4.665
 6696SOL    HW220238   5.798   1.148   4.670
 6697SOL     OW20239   5.688   0.650   4.287
 6697SOL    HW120240   5.664   0.560   4.311
 6697SOL    HW220241   5.691   0.696   4.371
 6698SOL     OW20242   5.622   1.601   3.846
 6698SOL    HW120243   5.613   1.508   3.868
 6698SOL    HW220244   5.595   1.646   3.926
 6699SOL     OW20245   5.705   0.743   5.306
 6699SOL    HW120246   5.778   0.785   5.352
 6699SOL    HW220247   5.638   0.812   5.299
 6700SOL     OW20248   5.786   0.950   4.995
 6700SOL    HW120249   5.855   0.928   4.932
 6700SOL    HW220250   5.707   0.911   4.959
 6701SOL     OW20251   5.680   0.823   4.507
 6701SOL    HW120252   5.748   0.806   4.572
 6701SOL    HW220253   5.633   0.899   4.540
 6702SOL     OW20254   5.715   1.878   5.297
 6702SOL    HW120255   5.729   1.844   5.385
 6702SOL    HW220256   5.630   1.841   5.270
 6703SOL     OW20257   5.785   0.299   5.245
 6703SOL    HW120258   5.709   0.344   5.209
 6703SOL    HW220259   5.749   0.237   5.308
 6704SOL     OW20260   0.034   1.750   4.051
 6704SOL    HW120261   0.075   1.743   4.137
 6704SOL    HW220262   0.108   1.763   3.991
 6705SOL     OW20263   5.839   1.779   4.958
 6705SOL    HW120264   5.904   1.720   4.998
 6705SOL    HW220265   5.830   1.747   4.868
 6706SOL     OW20266   5.867   0.041   3.906
 6706SOL    HW120267   5.929   0.114   3.916
 6706SOL    HW220268   5.912   5.967   3.948
 6707SOL     OW20269   5.688   0.547   5.110
 6707SOL    HW120270   5.782   0.542   5.097
 6707SOL    HW220271   5.676   0.621   5.170
 6708SOL     OW20272   5.654   1.578   5.074
 6708SOL    HW120273   5.602   1.635   5.016
 6708SOL    HW220274   5.741   1.618   5.074
 6709SOL     OW20275   0.124   0.550   4.582
 6709SOL    HW120276   0.140   0.593   4.498
 6709SOL    HW220277   0.201   0.569   4.634
 6710SOL     OW20278   5.886   0.226   4.987
 6710SOL    HW120279   5.856   0.245   5.075
 6710SOL    HW220280   5.866   0.133   4.974
 6711SOL     OW20281   5.634   1.310   5.001
 6711SOL    HW120282   5.668   1.257   5.073
 6711SOL    HW220283   5.642   1.400   5.031
 6712SOL     OW20284   5.882   0.813   4.722
 6712SOL    HW120285   5.949   0.819   4.654
 6712SOL    HW220286   5.902   0.731   4.767
 6713SOL     OW20287   5.594   1.328   3.910
 6713SOL    HW120288   5.505   1.338   3.877
 6713SOL    HW220289   5.593   1.246   3.959
 6714SOL     OW20290   5.679   1.786   4.663
 6714SOL    HW120291   5.645   1.708   4.620
 6714SOL    HW220292   5.767   1.796   4.629
 6715SOL     OW20293   5.625   0.537   4.834
 6715SOL    HW120294   5.684   0.482   4.783
 6715SOL    HW220295   5.662   0.538   4.922
 6716SOL     OW20296   5.783   0.511   5.447
 6716SOL    HW120297   5.813   0.455   5.375
 6716SOL    HW220298   5.737   0.583   5.403
 6717SOL     OW20299   5.813   1.544   5.445
 6717SOL    HW120300   5.811   1.619   5.503
 6717SOL    HW220301   5.845   1.472   5.500
 6718SOL     OW20302   5.731   1.134   5.200
 6718SOL    HW120303   5.733   1.081   5.280
 6718SOL    HW220304   5.754   1.072   5.131
 6719SOL     OW20305   5.674   1.267   4.734
 6719SOL    HW120306   5.657   1.279   4.828
 6719SOL    HW220307   5.601   1.214   4.703
 6720SOL     OW20308   5.723   1.796   5.558
 6720SOL    HW120309   5.672   1.733   5.607
 6720SOL    HW220310   5.772   1.844   5.625
 6721SOL     OW20311   5.949   1.306   5.254
 6721SOL    HW120312   5.924   1.396   5.235
 6721SOL    HW220313   5.870   1.255   5.234
 6722SOL     OW20314   5.707   1.009   5.450
 6722SOL    HW120315   5.616   0.997   5.479
 6722SOL    HW220316   5.758   0.998   5.530
 6723SOL     OW20317   5.674   0.327   3.775
 6723SOL    HW120318   5.582   0.323   3.748
 6723SOL    HW220319   5.713   0.390   3.716
 6724SOL     OW20320   5.674   0.170   4.061
 6724SOL    HW120321   5.664   0.245   4.002
 6724SOL    HW220322   5.743   0.118   4.021
 6725SOL     OW20323   0.202   0.830   5.155
 6725SOL    HW120324   0.244   0.914   5.140
 6725SOL    HW220325   0.273   0.771   5.179
 6726SOL     OW20326   5.810   1.302   5.600
 6726SOL    HW120327   5.772   1.257   5.525
 6726SOL    HW220328   5.735   1.322   5.657
 6727SOL     OW20329   5.664   1.239   4.392
 6727SOL    HW120330   5.671   1.182   4.468
 6727SOL    HW220331   5.745   1.223   4.343
 6728SOL     OW20332   5.618   1.079   4.039
 6728SOL    HW120333   5.713   1.082   4.024
 6728SOL    HW220334   5.599   0.986   4.052
 6729SOL     OW20335   5.829   0.622   5.702
 6729SOL    HW120336   5.744   0.634   5.744
 6729SOL    HW220337   5.809   0.586   5.615
 6730SOL     OW20338   5.797   1.768   0.013
 6730SOL    HW120339   5.816   1.828   0.085
 6730SOL    HW220340   5.860   1.697   0.023
 6731SOL     OW20341   5.616   1.603   5.714
 6731SOL    HW120342   5.609   1.511   5.739
 6731SOL    HW220343   5.572   1.650   5.786
 6732SOL     OW20344   0.063   1.749   5.887
 6732SOL    HW120345   0.077   1.710   5.974
 6732SOL    HW220346   0.149   1.781   5.861
 6733SOL     OW20347   5.892   0.023   5.740
 6733SOL    HW120348   5.952   0.090   5.774
 6733SOL    HW220349   5.923   5.941   5.779
 6734SOL     OW20350   5.599   1.328   5.766
 6734SOL    HW120351   5.508   1.340   5.739
 6734SOL    HW220352   5.600   1.245   5.813
 6735SOL     OW20353   5.676   0.322   5.619
 6735SOL    HW120354   5.581   0.327   5.606
 6735SOL    HW220355   5.711   0.392   5.565
 6736SOL     OW20356   5.704   0.149   5.896
 6736SOL    HW120357   5.646   0.202   5.841
 6736SOL    HW220358   5.766   0.109   5.834
 6737SOL     OW20359   5.644   1.081   5.882
 6737SOL    HW120360   5.740   1.079   5.888
 6737SOL    HW220361   5.618   0.990   5.895
 6738SOL     OW20362   5.774   2.520   0.100
 6738SOL    HW120363   5.713   2.481   0.163
 6738SOL    HW220364   5.817   2.444   0.060
 6739SOL     OW20365   5.820   2.154   0.990
 6739SOL    HW120366   5.846   2.124   1.077
 6739SOL    HW220367   5.732   2.119   0.977
 6740SOL     OW20368   5.589   2.246   0.636
 6740SOL    HW120369   5.505   2.263   0.679
 6740SOL    HW220370   5.575   2.166   0.586
 6741SOL     OW20371   0.226   2.853   0.661
 6741SOL    HW120372   0.307   2.805   0.642
 6741SOL    HW220373   0.241   2.890   0.748
 6742SOL     OW20374   5.889   3.357   1.034
 6742SOL    HW120375   5.813   3.300   1.022
 6742SOL    HW220376   5.965   3.301   1.020
 6743SOL     OW20377   5.804   3.578   0.477
 6743SOL    HW120378   5.826   3.649   0.538
 6743SOL    HW220379   5.880   3.573   0.419
 6744SOL     OW20380   5.804   3.299   0.512
 6744SOL    HW120381   5.795   3.394   0.516
 6744SOL    HW220382   5.747   3.266   0.582
 6745SOL     OW20383   5.875   2.960   0.915
 6745SOL    HW120384   5.856   2.870   0.941
 6745SOL    HW220385   5.799   3.010   0.944
 6746SOL     OW20386   5.705   2.496   0.572
 6746SOL    HW120387   5.668   2.411   0.593
 6746SOL    HW220388   5.697   2.547   0.653
 6747SOL     OW20389   5.566   3.448   0.126
 6747SOL    HW120390   5.590   3.360   0.156
 6747SOL    HW220391   5.580   3.504   0.202
 6748SOL     OW20392   5.706   2.602   1.586
 6748SOL    HW120393   5.782   2.638   1.630
 6748SOL    HW220394   5.645   2.675   1.579
 6749SOL     OW20395   5.786   2.812   1.272
 6749SOL    HW120396   5.855   2.790   1.209
 6749SOL    HW220397   5.707   2.773   1.235
 6750SOL     OW20398   5.683   2.681   0.783
 6750SOL    HW120399   5.750   2.668   0.850
 6750SOL    HW220400   5.632   2.756   0.814
 6751SOL     OW20401   5.716   3.737   1.572
 6751SOL    HW120402   5.729   3.704   1.661
 6751SOL    HW220403   5.630   3.704   1.546
 6752SOL     OW20404   5.793   2.152   1.519
 6752SOL    HW120405   5.707   2.184   1.490
 6752SOL    HW220406   5.776   2.063   1.549
 6753SOL     OW20407   0.039   3.600   0.310
 6753SOL    HW120408   0.090   3.594   0.391
 6753SOL    HW220409   0.105   3.604   0.241
 6754SOL     OW20410   5.839   3.641   1.234
 6754SOL    HW120411   5.903   3.581   1.273
 6754SOL    HW220412   5.828   3.610   1.144
 6755SOL     OW20413   5.684   2.413   1.385
 6755SOL    HW120414   5.778   2.397   1.380
 6755SOL    HW220415   5.674   2.485   1.447
 6756SOL     OW20416   5.654   3.441   1.350
 6756SOL    HW120417   5.601   3.496   1.291
 6756SOL    HW220418   5.740   3.483   1.352
 6757SOL     OW20419   0.125   2.400   0.868
 6757SOL    HW120420   0.124   2.463   0.796
 6757SOL    HW220421   0.208   2.417   0.914
 6758SOL     OW20422   5.881   2.064   1.247
 6758SOL    HW120423   5.861   2.094   1.335
 6758SOL    HW220424   5.864   1.970   1.248
 6759SOL     OW20425   5.631   3.172   1.278
 6759SOL    HW120426   5.668   3.120   1.349
 6759SOL    HW220427   5.641   3.263   1.307
 6760SOL     OW20428   5.886   1.914   0.652
 6760SOL    HW120429   5.856   2.003   0.670
 6760SOL    HW220430   5.945   1.893   0.725
 6761SOL     OW20431   5.884   2.674   0.995
 6761SOL    HW120432   5.951   2.678   0.927
 6761SOL    HW220433   5.903   2.594   1.044
 6762SOL     OW20434   5.678   3.648   0.940
 6762SOL    HW120435   5.644   3.570   0.896
 6762SOL    HW220436   5.767   3.657   0.905
 6763SOL     OW20437   5.622   2.402   1.112
 6763SOL    HW120438   5.689   2.357   1.060
 6763SOL    HW220439   5.660   2.406   1.200
 6764SOL     OW20440   5.784   2.364   1.725
 6764SOL    HW120441   5.807   2.303   1.655
 6764SOL    HW220442   5.737   2.435   1.680
 6765SOL     OW20443   5.814   3.406   1.720
 6765SOL    HW120444   5.817   3.480   1.781
 6765SOL    HW220445   5.848   3.332   1.770
 6766SOL     OW20446   5.730   2.996   1.475
 6766SOL    HW120447   5.733   2.944   1.556
 6766SOL    HW220448   5.752   2.934   1.406
 6767SOL     OW20449   5.677   3.128   1.012
 6767SOL    HW120450   5.657   3.141   1.105
 6767SOL    HW220451   5.602   3.078   0.978
 6768SOL     OW20452   5.723   3.660   1.834
 6768SOL    HW120453   5.673   3.593   1.882
 6768SOL    HW220454   5.769   3.708   1.902
 6769SOL     OW20455   5.943   3.170   1.536
 6769SOL    HW120456   5.925   3.258   1.502
 6769SOL    HW220457   5.868   3.118   1.509
 6770SOL     OW20458   5.705   2.873   1.725
 6770SOL    HW120459   5.616   2.862   1.757
 6770SOL    HW220460   5.760   2.850   1.800
 6771SOL     OW20461   5.627   2.259   0.040
 6771SOL    HW120462   5.588   2.173   0.051
 6771SOL    HW220463   5.679   2.253   5.959
 6772SOL     OW20464   5.640   2.031   0.343
 6772SOL    HW120465   5.597   2.084   0.275
 6772SOL    HW220466   5.723   2.005   0.303
 6773SOL     OW20467   0.208   2.699   1.430
 6773SOL    HW120468   0.254   2.783   1.424
 6773SOL    HW220469   0.273   2.638   1.465
 6774SOL     OW20470   5.806   3.162   1.875
 6774SOL    HW120471   5.770   3.116   1.798
 6774SOL    HW220472   5.729   3.179   1.930
 6775SOL     OW20473   5.666   3.104   0.671
 6775SOL    HW120474   5.664   3.045   0.746
 6775SOL    HW220475   5.741   3.074   0.619
 6776SOL     OW20476   5.633   2.935   0.291
 6776SOL    HW120477   5.729   2.933   0.293
 6776SOL    HW220478   5.606   2.860   0.344
 6777SOL     OW20479   5.815   2.506   1.967
 6777SOL    HW120480   5.737   2.480   2.015
 6777SOL    HW220481   5.811   2.456   1.885
 6778SOL     OW20482   5.853   2.054   2.717
 6778SOL    HW120483   5.890   2.141   2.735
 6778SOL    HW220484   5.760   2.064   2.736
 6779SOL     OW20485   5.608   2.246   2.491
 6779SOL    HW120486   5.520   2.273   2.516
 6779SOL    HW220487   5.596   2.165   2.442
 6780SOL     OW20488   0.291   2.849   2.443
 6780SOL    HW120489   0.359   2.785   2.467
 6780SOL    HW220490   0.252   2.874   2.526
 6781SOL     OW20491   5.973   3.300   2.732
 6781SOL    HW120492   5.904   3.288   2.797
 6781SOL    HW220493   5.961   3.390   2.701
 6782SOL     OW20494   5.806   3.576   2.328
 6782SOL    HW120495   5.827   3.645   2.391
 6782SOL    HW220496   5.879   3.577   2.266
 6783SOL     OW20497   5.821   3.302   2.388
 6783SOL    HW120498   5.828   3.393   2.361
 6783SOL    HW220499   5.738   3.296   2.434
 6784SOL     OW20500   5.882   2.867   2.566
 6784SOL    HW120501   5.882   2.787   2.618
 6784SOL    HW220502   5.867   2.937   2.630
 6785SOL     OW20503   5.687   2.507   2.428
 6785SOL    HW120504   5.672   2.413   2.440
 6785SOL    HW220505   5.670   2.545   2.514
 6786SOL     OW20506   5.620   3.459   1.987
 6786SOL    HW120507   5.612   3.366   2.008
 6786SOL    HW220508   5.594   3.504   2.067
 6787SOL     OW20509   5.707   2.594   3.485
 6787SOL    HW120510   5.791   2.614   3.528
 6787SOL    HW220511   5.680   2.676   3.445
 6788SOL     OW20512   5.778   2.754   3.267
 6788SOL    HW120513   5.862   2.794   3.243
 6788SOL    HW220514   5.719   2.782   3.197
 6789SOL     OW20515   5.639   2.660   2.657
 6789SOL    HW120516   5.732   2.659   2.678
 6789SOL    HW220517   5.620   2.751   2.632
 6790SOL     OW20518   5.710   3.748   3.446
 6790SOL    HW120519   5.721   3.722   3.537
 6790SOL    HW220520   5.655   3.680   3.408
 6791SOL     OW20521   5.813   2.168   3.454
 6791SOL    HW120522   5.728   2.178   3.410
 6791SOL    HW220523   5.806   2.085   3.501
 6792SOL     OW20524   0.037   3.609   2.183
 6792SOL    HW120525   0.079   3.602   2.268
 6792SOL    HW220526   0.109   3.628   2.122
 6793SOL     OW20527   5.954   3.635   3.295
 6793SOL    HW120528   5.868   3.621   3.334
 6793SOL    HW220529   5.939   3.637   3.201
 6794SOL     OW20530   5.871   1.918   2.041
 6794SOL    HW120531   5.932   1.992   2.035
 6794SOL    HW220532   5.917   1.855   2.098
 6795SOL     OW20533   5.678   2.387   3.308
 6795SOL    HW120534   5.773   2.389   3.292
 6795SOL    HW220535   5.663   2.459   3.369
 6796SOL     OW20536   5.700   3.505   3.302
 6796SOL    HW120537   5.632   3.509   3.235
 6796SOL    HW220538   5.729   3.413   3.301
 6797SOL     OW20539   0.124   2.469   2.678
 6797SOL    HW120540   0.142   2.508   2.592
 6797SOL    HW220541   0.206   2.427   2.703
 6798SOL     OW20542   5.984   2.053   3.282
 6798SOL    HW120543   5.930   2.106   3.342
 6798SOL    HW220544   5.952   2.077   3.195
 6799SOL     OW20545   5.693   3.238   3.264
 6799SOL    HW120546   5.727   3.162   3.312
 6799SOL    HW220547   5.614   3.206   3.221
 6800SOL     OW20548   5.915   1.938   2.479
 6800SOL    HW120549   5.865   1.998   2.534
 6800SOL    HW220550   5.963   1.882   2.541
 6801SOL     OW20551   5.896   2.634   2.720
 6801SOL    HW120552   5.979   2.632   2.672
 6801SOL    HW220553   5.891   2.548   2.762
 6802SOL     OW20554   5.594   3.186   2.044
 6802SOL    HW120555   5.504   3.199   2.014
 6802SOL    HW220556   5.592   3.105   2.095
 6803SOL     OW20557   5.616   3.664   2.707
 6803SOL    HW120558   5.551   3.596   2.687
 6803SOL    HW220559   5.658   3.683   2.623
 6804SOL     OW20560   5.914   2.524   3.275
 6804SOL    HW120561   5.940   2.531   3.183
 6804SOL    HW220562   5.856   2.598   3.290
 6805SOL     OW20563   5.785   2.374   3.624
 6805SOL    HW120564   5.806   2.310   3.556
 6805SOL    HW220565   5.738   2.443   3.578
 6806SOL     OW20566   5.827   3.419   3.600
 6806SOL    HW120567   5.836   3.481   3.673
 6806SOL    HW220568   5.856   3.335   3.636
 6807SOL     OW20569   5.718   2.991   3.383
 6807SOL    HW120570   5.727   2.961   3.474
 6807SOL    HW220571   5.731   2.913   3.330
 6808SOL     OW20572   5.666   3.260   2.761
 6808SOL    HW120573   5.708   3.190   2.811
 6808SOL    HW220574   5.620   3.215   2.690
 6809SOL     OW20575   5.716   3.669   3.704
 6809SOL    HW120576   5.672   3.596   3.747
 6809SOL    HW220577   5.766   3.712   3.774
 6810SOL     OW20578   5.897   3.171   3.507
 6810SOL    HW120579   5.926   3.255   3.472
 6810SOL    HW220580   5.900   3.111   3.433
 6811SOL     OW20581   5.708   2.865   3.620
 6811SOL    HW120582   5.625   2.847   3.663
 6811SOL    HW220583   5.774   2.832   3.681
 6812SOL     OW20584   5.656   2.204   1.917
 6812SOL    HW120585   5.580   2.173   1.868
 6812SOL    HW220586   5.702   2.261   1.856
 6813SOL     OW20587   5.649   2.026   2.168
 6813SOL    HW120588   5.634   2.099   2.109
 6813SOL    HW220589   5.733   1.989   2.140
 6814SOL     OW20590   0.195   2.663   3.430
 6814SOL    HW120591   0.225   2.752   3.410
 6814SOL    HW220592   0.276   2.612   3.431
 6815SOL     OW20593   5.807   3.164   3.765
 6815SOL    HW120594   5.793   3.137   3.674
 6815SOL    HW220595   5.719   3.173   3.801
 6816SOL     OW20596   5.664   3.093   2.494
 6816SOL    HW120597   5.694   3.037   2.566
 6816SOL    HW220598   5.741   3.103   2.438
 6817SOL     OW20599   5.616   2.938   2.174
 6817SOL    HW120600   5.711   2.944   2.166
 6817SOL    HW220601   5.599   2.845   2.192
 6818SOL     OW20602   5.822   2.516   3.853
 6818SOL    HW120603   5.740   2.492   3.895
 6818SOL    HW220604   5.820   2.470   3.769
 6819SOL     OW20605   5.819   2.155   4.714
 6819SOL    HW120606   5.845   2.125   4.801
 6819SOL    HW220607   5.731   2.120   4.702
 6820SOL     OW20608   5.588   2.247   4.357
 6820SOL    HW120609   5.506   2.266   4.402
 6820SOL    HW220610   5.572   2.164   4.311
 6821SOL     OW20611   0.228   2.851   4.384
 6821SOL    HW120612   0.310   2.804   4.366
 6821SOL    HW220613   0.242   2.890   4.471
 6822SOL     OW20614   5.888   3.357   4.759
 6822SOL    HW120615   5.813   3.299   4.746
 6822SOL    HW220616   5.965   3.302   4.743
 6823SOL     OW20617   5.798   3.580   4.200
 6823SOL    HW120618   5.820   3.648   4.263
 6823SOL    HW220619   5.873   3.577   4.140
 6824SOL     OW20620   5.813   3.303   4.255
 6824SOL    HW120621   5.799   3.397   4.243
 6824SOL    HW220622   5.742   3.276   4.314
 6825SOL     OW20623   5.874   2.960   4.639
 6825SOL    HW120624   5.856   2.870   4.666
 6825SOL    HW220625   5.798   3.009   4.670
 6826SOL     OW20626   5.685   2.507   4.288
 6826SOL    HW120627   5.662   2.417   4.311
 6826SOL    HW220628   5.689   2.553   4.372
 6827SOL     OW20629   5.618   3.459   3.848
 6827SOL    HW120630   5.611   3.367   3.872
 6827SOL    HW220631   5.594   3.507   3.927
 6828SOL     OW20632   5.705   2.602   5.309
 6828SOL    HW120633   5.780   2.640   5.355
 6828SOL    HW220634   5.642   2.673   5.303
 6829SOL     OW20635   5.787   2.813   4.995
 6829SOL    HW120636   5.855   2.789   4.933
 6829SOL    HW220637   5.707   2.773   4.961
 6830SOL     OW20638   5.680   2.684   4.506
 6830SOL    HW120639   5.748   2.669   4.572
 6830SOL    HW220640   5.632   2.760   4.539
 6831SOL     OW20641   5.715   3.739   5.296
 6831SOL    HW120642   5.729   3.706   5.385
 6831SOL    HW220643   5.630   3.703   5.270
 6832SOL     OW20644   5.793   2.152   5.243
 6832SOL    HW120645   5.707   2.184   5.216
 6832SOL    HW220646   5.776   2.063   5.274
 6833SOL     OW20647   0.035   3.612   4.050
 6833SOL    HW120648   0.076   3.605   4.137
 6833SOL    HW220649   0.108   3.625   3.990
 6834SOL     OW20650   5.839   3.641   4.958
 6834SOL    HW120651   5.904   3.582   4.997
 6834SOL    HW220652   5.830   3.609   4.868
 6835SOL     OW20653   5.872   1.917   3.903
 6835SOL    HW120654   5.930   1.992   3.892
 6835SOL    HW220655   5.920   1.858   3.962
 6836SOL     OW20656   5.683   2.413   5.109
 6836SOL    HW120657   5.777   2.397   5.105
 6836SOL    HW220658   5.674   2.485   5.171
 6837SOL     OW20659   5.654   3.441   5.074
 6837SOL    HW120660   5.602   3.497   5.016
 6837SOL    HW220661   5.741   3.481   5.075
 6838SOL     OW20662   0.125   2.402   4.593
 6838SOL    HW120663   0.132   2.454   4.513
 6838SOL    HW220664   0.208   2.417   4.638
 6839SOL     OW20665   5.880   2.065   4.970
 6839SOL    HW120666   5.861   2.094   5.060
 6839SOL    HW220667   5.864   1.970   4.972
 6840SOL     OW20668   5.635   3.172   5.001
 6840SOL    HW120669   5.668   3.119   5.073
 6840SOL    HW220670   5.642   3.263   5.031
 6841SOL     OW20671   5.883   1.911   4.380
 6841SOL    HW120672   5.859   2.002   4.395
 6841SOL    HW220673   5.946   1.890   4.449
 6842SOL     OW20674   5.882   2.674   4.720
 6842SOL    HW120675   5.950   2.679   4.652
 6842SOL    HW220676   5.903   2.594   4.768
 6843SOL     OW20677   5.586   3.190   3.914
 6843SOL    HW120678   5.497   3.198   3.880
 6843SOL    HW220679   5.585   3.107   3.962
 6844SOL     OW20680   5.678   3.648   4.663
 6844SOL    HW120681   5.645   3.569   4.620
 6844SOL    HW220682   5.767   3.659   4.629
 6845SOL     OW20683   5.622   2.401   4.836
 6845SOL    HW120684   5.690   2.357   4.784
 6845SOL    HW220685   5.659   2.406   4.924
 6846SOL     OW20686   5.781   2.365   5.451
 6846SOL    HW120687   5.804   2.303   5.382
 6846SOL    HW220688   5.735   2.435   5.406
 6847SOL     OW20689   5.814   3.405   5.445
 6847SOL    HW120690   5.811   3.482   5.502
 6847SOL    HW220691   5.844   3.334   5.501
 6848SOL     OW20692   5.731   2.996   5.201
 6848SOL    HW120693   5.732   2.943   5.281
 6848SOL    HW220694   5.753   2.935   5.131
 6849SOL     OW20695   5.675   3.128   4.735
 6849SOL    HW120696   5.658   3.141   4.828
 6849SOL    HW220697   5.601   3.076   4.704
 6850SOL     OW20698   5.724   3.658   5.558
 6850SOL    HW120699   5.672   3.594   5.607
 6850SOL    HW220700   5.773   3.706   5.624
 6851SOL     OW20701   5.951   3.167   5.249
 6851SOL    HW120702   5.924   3.258   5.240
 6851SOL    HW220703   5.871   3.117   5.234
 6852SOL     OW20704   5.706   2.872   5.451
 6852SOL    HW120705   5.615   2.860   5.479
 6852SOL    HW220706   5.758   2.857   5.530
 6853SOL     OW20707   5.657   2.196   3.791
 6853SOL    HW120708   5.588   2.177   3.729
 6853SOL    HW220709   5.709   2.266   3.750
 6854SOL     OW20710   5.649   2.024   4.030
 6854SOL    HW120711   5.632   2.098   3.972
 6854SOL    HW220712   5.733   1.989   4.000
 6855SOL     OW20713   0.204   2.695   5.153
 6855SOL    HW120714   0.245   2.782   5.148
 6855SOL    HW220715   0.275   2.637   5.183
 6856SOL     OW20716   5.810   3.164   5.600
 6856SOL    HW120717   5.771   3.116   5.526
 6856SOL    HW220718   5.736   3.184   5.657
 6857SOL     OW20719   5.663   3.100   4.391
 6857SOL    HW120720   5.672   3.044   4.468
 6857SOL    HW220721   5.745   3.087   4.342
 6858SOL     OW20722   5.616   2.940   4.038
 6858SOL    HW120723   5.711   2.945   4.024
 6858SOL    HW220724   5.599   2.847   4.053
 6859SOL     OW20725   5.830   2.489   5.700
 6859SOL    HW120726   5.744   2.498   5.741
 6859SOL    HW220727   5.811   2.448   5.615
 6860SOL     OW20728   5.797   3.630   0.013
 6860SOL    HW120729   5.816   3.690   0.085
 6860SOL    HW220730   5.860   3.559   0.023
 6861SOL     OW20731   5.615   3.465   5.714
 6861SOL    HW120732   5.609   3.373   5.739
 6861SOL    HW220733   5.572   3.512   5.786
 6862SOL     OW20734   0.063   3.611   5.887
 6862SOL    HW120735   0.077   3.572   5.974
 6862SOL    HW220736   0.149   3.644   5.861
 6863SOL     OW20737   5.877   1.912   5.758
 6863SOL    HW120738   5.941   1.981   5.773
 6863SOL    HW220739   5.906   1.840   5.815
 6864SOL     OW20740   5.869   1.935   0.225
 6864SOL    HW120741   5.924   2.010   0.248
 6864SOL    HW220742   5.916   1.860   0.261
 6865SOL     OW20743   5.599   3.190   5.766
 6865SOL    HW120744   5.508   3.202   5.739
 6865SOL    HW220745   5.599   3.108   5.814
 6866SOL     OW20746   5.653   2.197   5.640
 6866SOL    HW120747   5.578   2.171   5.586
 6866SOL    HW220748   5.701   2.260   5.587
 6867SOL     OW20749   5.655   2.029   5.870
 6867SOL    HW120750   5.646   2.085   5.792
 6867SOL    HW220751   5.735   1.979   5.853
 6868SOL     OW20752   5.644   2.944   5.882
 6868SOL    HW120753   5.740   2.942   5.887
 6868SOL    HW220754   5.618   2.853   5.896
 6869SOL     OW20755   5.774   4.382   0.100
 6869SOL    HW120756   5.714   4.343   0.164
 6869SOL    HW220757   5.817   4.306   0.059
 6870SOL     OW20758   5.821   4.015   0.989
 6870SOL    HW120759   5.846   3.986   1.076
 6870SOL    HW220760   5.732   3.981   0.977
 6871SOL     OW20761   5.589   4.108   0.636
 6871SOL    HW120762   5.505   4.125   0.679
 6871SOL    HW220763   5.575   4.028   0.586
 6872SOL     OW20764   0.227   4.714   0.661
 6872SOL    HW120765   0.308   4.667   0.642
 6872SOL    HW220766   0.240   4.752   0.748
 6873SOL     OW20767   5.886   5.217   1.036
 6873SOL    HW120768   5.812   5.158   1.022
 6873SOL    HW220769   5.964   5.163   1.021
 6874SOL     OW20770   5.804   5.442   0.478
 6874SOL    HW120771   5.824   5.511   0.541
 6874SOL    HW220772   5.881   5.436   0.423
 6875SOL     OW20773   5.803   5.162   0.511
 6875SOL    HW120774   5.795   5.257   0.516
 6875SOL    HW220775   5.747   5.129   0.581
 6876SOL     OW20776   5.875   4.821   0.914
 6876SOL    HW120777   5.856   4.732   0.942
 6876SOL    HW220778   5.799   4.872   0.944
 6877SOL     OW20779   5.705   4.358   0.572
 6877SOL    HW120780   5.668   4.272   0.593
 6877SOL    HW220781   5.696   4.409   0.653
 6878SOL     OW20782   5.563   5.307   0.130
 6878SOL    HW120783   5.598   5.223   0.157
 6878SOL    HW220784   5.579   5.365   0.205
 6879SOL     OW20785   5.706   4.464   1.586
 6879SOL    HW120786   5.782   4.500   1.632
 6879SOL    HW220787   5.645   4.537   1.579
 6880SOL     OW20788   5.786   4.675   1.272
 6880SOL    HW120789   5.856   4.652   1.209
 6880SOL    HW220790   5.707   4.635   1.235
 6881SOL     OW20791   5.683   4.543   0.783
 6881SOL    HW120792   5.750   4.530   0.850
 6881SOL    HW220793   5.632   4.618   0.814
 6882SOL     OW20794   5.721   5.589   1.571
 6882SOL    HW120795   5.731   5.559   1.661
 6882SOL    HW220796   5.631   5.567   1.548
 6883SOL     OW20797   5.793   4.015   1.517
 6883SOL    HW120798   5.707   4.047   1.491
 6883SOL    HW220799   5.776   3.926   1.549
 6884SOL     OW20800   0.041   5.462   0.314
 6884SOL    HW120801   0.092   5.455   0.395
 6884SOL    HW220802   0.106   5.466   0.244
 6885SOL     OW20803   5.835   5.504   1.234
 6885SOL    HW120804   5.902   5.448   1.272
 6885SOL    HW220805   5.829   5.476   1.142
 6886SOL     OW20806   5.684   4.275   1.385
 6886SOL    HW120807   5.778   4.259   1.381
 6886SOL    HW220808   5.674   4.347   1.447
 6887SOL     OW20809   5.653   5.303   1.349
 6887SOL    HW120810   5.602   5.358   1.290
 6887SOL    HW220811   5.740   5.344   1.352
 6888SOL     OW20812   0.126   4.261   0.868
 6888SOL    HW120813   0.123   4.326   0.798
 6888SOL    HW220814   0.208   4.280   0.914
 6889SOL     OW20815   5.881   3.927   1.246
 6889SOL    HW120816   5.861   3.957   1.335
 6889SOL    HW220817   5.864   3.832   1.249
 6890SOL     OW20818   5.629   5.035   1.278
 6890SOL    HW120819   5.667   4.982   1.349
 6890SOL    HW220820   5.641   5.125   1.306
 6891SOL     OW20821   5.886   3.776   0.652
 6891SOL    HW120822   5.856   3.865   0.670
 6891SOL    HW220823   5.945   3.755   0.725
 6892SOL     OW20824   5.884   4.535   0.995
 6892SOL    HW120825   5.952   4.539   0.927
 6892SOL    HW220826   5.904   4.456   1.044
 6893SOL     OW20827   5.675   5.514   0.942
 6893SOL    HW120828   5.645   5.435   0.897
 6893SOL    HW220829   5.763   5.529   0.907
 6894SOL     OW20830   5.622   4.263   1.112
 6894SOL    HW120831   5.690   4.220   1.060
 6894SOL    HW220832   5.660   4.268   1.200
 6895SOL     OW20833   5.783   4.226   1.724
 6895SOL    HW120834   5.808   4.165   1.654
 6895SOL    HW220835   5.737   4.297   1.680
 6896SOL     OW20836   5.814   5.266   1.722
 6896SOL    HW120837   5.820   5.340   1.782
 6896SOL    HW220838   5.846   5.192   1.772
 6897SOL     OW20839   5.730   4.859   1.476
 6897SOL    HW120840   5.733   4.807   1.556
 6897SOL    HW220841   5.752   4.797   1.406
 6898SOL     OW20842   5.677   4.989   1.012
 6898SOL    HW120843   5.657   5.003   1.105
 6898SOL    HW220844   5.602   4.940   0.978
 6899SOL     OW20845   5.721   5.524   1.836
 6899SOL    HW120846   5.672   5.455   1.882
 6899SOL    HW220847   5.767   5.571   1.905
 6900SOL     OW20848   5.946   5.031   1.534
 6900SOL    HW120849   5.926   5.120   1.505
 6900SOL    HW220850   5.869   4.980   1.508
 6901SOL     OW20851   5.705   4.735   1.726
 6901SOL    HW120852   5.615   4.724   1.757
 6901SOL    HW220853   5.760   4.711   1.801
 6902SOL     OW20854   5.627   4.121   0.040
 6902SOL    HW120855   5.588   4.034   0.050
 6902SOL    HW220856   5.679   4.115   5.959
 6903SOL     OW20857   5.640   3.893   0.343
 6903SOL    HW120858   5.597   3.946   0.275
 6903SOL    HW220859   5.723   3.867   0.303
 6904SOL     OW20860   0.208   4.561   1.429
 6904SOL    HW120861   0.252   4.646   1.427
 6904SOL    HW220862   0.273   4.501   1.464
 6905SOL     OW20863   5.805   5.023   1.875
 6905SOL    HW120864   5.769   4.976   1.800
 6905SOL    HW220865   5.729   5.041   1.931
 6906SOL     OW20866   5.666   4.965   0.670
 6906SOL    HW120867   5.665   4.907   0.746
 6906SOL    HW220868   5.742   4.937   0.619
 6907SOL     OW20869   5.634   4.796   0.291
 6907SOL    HW120870   5.729   4.795   0.294
 6907SOL    HW220871   5.607   4.721   0.344
 6908SOL     OW20872   5.816   4.370   1.964
 6908SOL    HW120873   5.740   4.345   2.017
 6908SOL    HW220874   5.808   4.317   1.885
 6909SOL     OW20875   5.838   4.108   2.716
 6909SOL    HW120876   5.903   4.043   2.744
 6909SOL    HW220877   5.761   4.057   2.694
 6910SOL     OW20878   5.610   4.099   2.494
 6910SOL    HW120879   5.534   4.146   2.527
 6910SOL    HW220880   5.574   4.023   2.449
 6911SOL     OW20881   0.253   4.711   2.484
 6911SOL    HW120882   0.337   4.666   2.479
 6911SOL    HW220883   0.251   4.749   2.571
 6912SOL     OW20884   5.953   5.283   2.725
 6912SOL    HW120885   5.879   5.223   2.714
 6912SOL    HW220886   0.030   5.232   2.699
 6913SOL     OW20887   5.797   5.453   2.335
 6913SOL    HW120888   5.817   5.520   2.400
 6913SOL    HW220889   5.874   5.450   2.279
 6914SOL     OW20890   5.847   5.192   2.397
 6914SOL    HW120891   5.818   5.281   2.378
 6914SOL    HW220892   5.766   5.145   2.419
 6915SOL     OW20893   5.839   4.837   2.678
 6915SOL    HW120894   5.858   4.744   2.693
 6915SOL    HW220895   5.744   4.844   2.687
 6916SOL     OW20896   5.685   4.358   2.418
 6916SOL    HW120897   5.674   4.266   2.441
 6916SOL    HW220898   5.672   4.405   2.501
 6917SOL     OW20899   5.619   5.320   1.983
 6917SOL    HW120900   5.611   5.228   2.008
 6917SOL    HW220901   5.596   5.368   2.063
 6918SOL     OW20902   5.717   4.466   3.509
 6918SOL    HW120903   5.804   4.499   3.490
 6918SOL    HW220904   5.659   4.542   3.495
 6919SOL     OW20905   5.778   4.616   3.282
 6919SOL    HW120906   5.864   4.652   3.264
 6919SOL    HW220907   5.731   4.622   3.198
 6920SOL     OW20908   5.635   4.543   2.610
 6920SOL    HW120909   5.717   4.539   2.660
 6920SOL    HW220910   5.633   4.632   2.576
 6921SOL     OW20911   5.696   5.552   3.436
 6921SOL    HW120912   5.726   5.538   3.526
 6921SOL    HW220913   5.601   5.543   3.441
 6922SOL     OW20914   5.749   4.012   3.391
 6922SOL    HW120915   5.709   4.078   3.448
 6922SOL    HW220916   5.725   3.928   3.431
 6923SOL     OW20917   0.038   5.476   2.187
 6923SOL    HW120918   0.079   5.462   2.273
 6923SOL    HW220919   0.111   5.492   2.128
 6924SOL     OW20920   5.935   5.573   3.268
 6924SOL    HW120921   5.926   5.482   3.294
 6924SOL    HW220922   5.857   5.592   3.216
 6925SOL     OW20923   5.874   3.776   2.036
 6925SOL    HW120924   5.932   3.852   2.031
 6925SOL    HW220925   5.919   3.716   2.094
 6926SOL     OW20926   5.725   4.289   3.305
 6926SOL    HW120927   5.815   4.263   3.285
 6926SOL    HW220928   5.735   4.362   3.367
 6927SOL     OW20929   5.737   5.308   3.277
 6927SOL    HW120930   5.702   5.396   3.263
 6927SOL    HW220931   5.815   5.321   3.329
 6928SOL     OW20932   0.139   4.269   2.589
 6928SOL    HW120933   0.099   4.354   2.605
 6928SOL    HW220934   0.218   4.269   2.643
 6929SOL     OW20935   5.971   3.906   3.288
 6929SOL    HW120936   5.891   3.943   3.325
 6929SOL    HW220937   5.965   3.812   3.307
 6930SOL     OW20938   5.634   5.060   3.233
 6930SOL    HW120939   5.677   4.991   3.285
 6930SOL    HW220940   5.686   5.138   3.249
 6931SOL     OW20941   5.886   3.769   2.495
 6931SOL    HW120942   5.869   3.862   2.508
 6931SOL    HW220943   5.938   3.744   2.572
 6932SOL     OW20944   5.865   4.585   2.737
 6932SOL    HW120945   5.944   4.580   2.682
 6932SOL    HW220946   5.860   4.500   2.780
 6933SOL     OW20947   5.594   5.048   2.045
 6933SOL    HW120948   5.504   5.061   2.014
 6933SOL    HW220949   5.591   4.967   2.095
 6934SOL     OW20950   5.687   5.521   2.698
 6934SOL    HW120951   5.643   5.436   2.695
 6934SOL    HW220952   5.780   5.499   2.699
 6935SOL     OW20953   5.654   4.304   2.747
 6935SOL    HW120954   5.730   4.249   2.724
 6935SOL    HW220955   5.665   4.320   2.841
 6936SOL     OW20956   5.784   4.222   3.598
 6936SOL    HW120957   5.850   4.210   3.530
 6936SOL    HW220958   5.743   4.306   3.577
 6937SOL     OW20959   5.821   5.284   3.595
 6937SOL    HW120960   5.840   5.329   3.677
 6937SOL    HW220961   5.859   5.196   3.606
 6938SOL     OW20962   5.734   4.861   3.388
 6938SOL    HW120963   5.729   4.818   3.473
 6938SOL    HW220964   5.764   4.792   3.328
 6939SOL     OW20965   5.741   5.103   2.738
 6939SOL    HW120966   5.748   5.078   2.830
 6939SOL    HW220967   5.704   5.025   2.696
 6940SOL     OW20968   5.710   5.536   3.706
 6940SOL    HW120969   5.670   5.460   3.748
 6940SOL    HW220970   5.764   5.576   3.774
 6941SOL     OW20971   5.908   5.041   3.488
 6941SOL    HW120972   5.956   5.081   3.416
 6941SOL    HW220973   5.856   4.971   3.447
 6942SOL     OW20974   5.715   4.738   3.624
 6942SOL    HW120975   5.629   4.720   3.662
 6942SOL    HW220976   5.777   4.707   3.690
 6943SOL     OW20977   5.659   4.062   1.915
 6943SOL    HW120978   5.579   4.036   1.869
 6943SOL    HW220979   5.703   4.122   1.855
 6944SOL     OW20980   5.657   3.883   2.167
 6944SOL    HW120981   5.638   3.959   2.114
 6944SOL    HW220982   5.739   3.848   2.132
 6945SOL     OW20983   0.173   4.582   3.393
 6945SOL    HW120984   0.201   4.673   3.404
 6945SOL    HW220985   0.253   4.535   3.371
 6946SOL     OW20986   5.807   5.021   3.758
 6946SOL    HW120987   5.784   4.991   3.670
 6946SOL    HW220988   5.724   5.036   3.801
 6947SOL     OW20989   5.683   4.992   2.473
 6947SOL    HW120990   5.648   4.903   2.467
 6947SOL    HW220991   5.778   4.982   2.461
 6948SOL     OW20992   5.618   4.800   2.175
 6948SOL    HW120993   5.713   4.806   2.165
 6948SOL    HW220994   5.601   4.707   2.191
 6949SOL     OW20995   5.819   4.361   3.844
 6949SOL    HW120996   5.734   4.348   3.885
 6949SOL    HW220997   5.811   4.319   3.758
 6950SOL     OW20998   5.820   4.015   4.712
 6950SOL    HW120999   5.846   3.986   4.800
 6950SOL    HW221000   5.731   3.981   4.702
 6951SOL     OW21001   5.588   4.108   4.357
 6951SOL    HW121002   5.507   4.128   4.403
 6951SOL    HW221003   5.571   4.025   4.312
 6952SOL     OW21004   0.229   4.710   4.384
 6952SOL    HW121005   0.312   4.666   4.366
 6952SOL    HW221006   0.241   4.751   4.470
 6953SOL     OW21007   5.885   5.216   4.763
 6953SOL    HW121008   5.812   5.157   4.746
 6953SOL    HW221009   5.963   5.165   4.743
 6954SOL     OW21010   5.800   5.444   4.201
 6954SOL    HW121011   5.821   5.512   4.265
 6954SOL    HW221012   5.875   5.442   4.142
 6955SOL     OW21013   5.812   5.166   4.256
 6955SOL    HW121014   5.800   5.260   4.243
 6955SOL    HW221015   5.741   5.140   4.314
 6956SOL     OW21016   5.873   4.821   4.640
 6956SOL    HW121017   5.855   4.731   4.667
 6956SOL    HW221018   5.798   4.871   4.670
 6957SOL     OW21019   5.686   4.369   4.288
 6957SOL    HW121020   5.662   4.279   4.312
 6957SOL    HW221021   5.689   4.415   4.371
 6958SOL     OW21022   5.616   5.322   3.847
 6958SOL    HW121023   5.612   5.229   3.871
 6958SOL    HW221024   5.595   5.369   3.928
 6959SOL     OW21025   5.705   4.464   5.310
 6959SOL    HW121026   5.780   4.503   5.354
 6959SOL    HW221027   5.641   4.535   5.303
 6960SOL     OW21028   5.787   4.675   4.996
 6960SOL    HW121029   5.855   4.653   4.933
 6960SOL    HW221030   5.707   4.636   4.959
 6961SOL     OW21031   5.679   4.545   4.507
 6961SOL    HW121032   5.748   4.531   4.572
 6961SOL    HW221033   5.631   4.621   4.538
 6962SOL     OW21034   5.719   5.592   5.294
 6962SOL    HW121035   5.729   5.560   5.384
 6962SOL    HW221036   5.630   5.567   5.269
 6963SOL     OW21037   5.793   4.014   5.243
 6963SOL    HW121038   5.707   4.047   5.216
 6963SOL    HW221039   5.776   3.925   5.274
 6964SOL     OW21040   0.039   5.476   4.048
 6964SOL    HW121041   0.081   5.463   4.133
 6964SOL    HW221042   0.112   5.498   3.989
 6965SOL     OW21043   5.835   5.503   4.958
 6965SOL    HW121044   5.903   5.448   4.995
 6965SOL    HW221045   5.830   5.477   4.866
 6966SOL     OW21046   5.873   3.778   3.903
 6966SOL    HW121047   5.930   3.855   3.895
 6966SOL    HW221048   5.920   3.719   3.961
 6967SOL     OW21049   5.683   4.275   5.109
 6967SOL    HW121050   5.778   4.260   5.104
 6967SOL    HW221051   5.674   4.347   5.171
 6968SOL     OW21052   5.653   5.303   5.073
 6968SOL    HW121053   5.602   5.359   5.015
 6968SOL    HW221054   5.740   5.343   5.074
 6969SOL     OW21055   0.125   4.263   4.593
 6969SOL    HW121056   0.129   4.318   4.515
 6969SOL    HW221057   0.208   4.281   4.638
 6970SOL     OW21058   5.880   3.927   4.970
 6970SOL    HW121059   5.861   3.956   5.060
 6970SOL    HW221060   5.864   3.832   4.972
 6971SOL     OW21061   5.631   5.034   5.002
 6971SOL    HW121062   5.668   4.983   5.073
 6971SOL    HW221063   5.642   5.125   5.030
 6972SOL     OW21064   5.883   3.772   4.380
 6972SOL    HW121065   5.859   3.864   4.395
 6972SOL    HW221066   5.945   3.752   4.449
 6973SOL     OW21067   5.882   4.536   4.720
 6973SOL    HW121068   5.950   4.541   4.653
 6973SOL    HW221069   5.904   4.456   4.769
 6974SOL     OW21070   5.589   5.052   3.912
 6974SOL    HW121071   5.500   5.060   3.878
 6974SOL    HW221072   5.588   4.970   3.961
 6975SOL     OW21073   5.675   5.514   4.665
 6975SOL    HW121074   5.647   5.434   4.620
 6975SOL    HW221075   5.762   5.531   4.629
 6976SOL     OW21076   5.622   4.262   4.836
 6976SOL    HW121077   5.690   4.221   4.784
 6976SOL    HW221078   5.659   4.268   4.924
 6977SOL     OW21079   5.781   4.227   5.451
 6977SOL    HW121080   5.805   4.166   5.382
 6977SOL    HW221081   5.735   4.298   5.406
 6978SOL     OW21082   5.814   5.265   5.445
 6978SOL    HW121083   5.812   5.343   5.501
 6978SOL    HW221084   5.844   5.195   5.503
 6979SOL     OW21085   5.731   4.858   5.201
 6979SOL    HW121086   5.732   4.805   5.281
 6979SOL    HW221087   5.753   4.797   5.131
 6980SOL     OW21088   5.676   4.988   4.736
 6980SOL    HW121089   5.657   5.003   4.829
 6980SOL    HW221090   5.600   4.939   4.704
 6981SOL     OW21091   5.718   5.518   5.556
 6981SOL    HW121092   5.668   5.453   5.605
 6981SOL    HW221093   5.768   5.565   5.622
 6982SOL     OW21094   5.952   5.027   5.248
 6982SOL    HW121095   5.927   5.120   5.240
 6982SOL    HW221096   5.871   4.979   5.234
 6983SOL     OW21097   5.706   4.733   5.450
 6983SOL    HW121098   5.615   4.722   5.478
 6983SOL    HW221099   5.758   4.720   5.530
 6984SOL     OW21100   5.664   4.059   3.791
 6984SOL    HW121101   5.592   4.031   3.734
 6984SOL    HW221102   5.712   4.123   3.739
 6985SOL     OW21103   5.649   3.885   4.030
 6985SOL    HW121104   5.633   3.962   3.974
 6985SOL    HW221105   5.733   3.851   3.999
 6986SOL     OW21106   0.204   4.556   5.153
 6986SOL    HW121107   0.240   4.644   5.150
 6986SOL    HW221108   0.276   4.501   5.183
 6987SOL     OW21109   5.810   5.025   5.600
 6987SOL    HW121110   5.772   4.979   5.525
 6987SOL    HW221111   5.736   5.045   5.657
 6988SOL     OW21112   5.664   4.961   4.390
 6988SOL    HW121113   5.676   4.906   4.468
 6988SOL    HW221114   5.745   4.952   4.341
 6989SOL     OW21115   5.617   4.803   4.039
 6989SOL    HW121116   5.711   4.808   4.023
 6989SOL    HW221117   5.599   4.710   4.053
 6990SOL     OW21118   5.830   4.350   5.701
 6990SOL    HW121119   5.744   4.361   5.741
 6990SOL    HW221120   5.812   4.310   5.615
 6991SOL     OW21121   5.794   5.488   0.017
 6991SOL    HW121122   5.815   5.549   0.087
 6991SOL    HW221123   5.861   5.420   0.022
 6992SOL     OW21124   5.615   5.326   5.715
 6992SOL    HW121125   5.608   5.233   5.739
 6992SOL    HW221126   5.572   5.372   5.786
 6993SOL     OW21127   0.060   5.474   5.889
 6993SOL    HW121128   0.076   5.432   5.973
 6993SOL    HW221129   0.146   5.506   5.862
 6994SOL     OW21130   5.877   3.773   5.757
 6994SOL    HW121131   5.941   3.843   5.772
 6994SOL    HW221132   5.906   3.702   5.815
 6995SOL     OW21133   5.869   3.797   0.225
 6995SOL    HW121134   5.924   3.872   0.247
 6995SOL    HW221135   5.916   3.722   0.261
 6996SOL     OW21136   5.599   5.052   5.766
 6996SOL    HW121137   5.507   5.064   5.740
 6996SOL    HW221138   5.599   4.969   5.814
 6997SOL     OW21139   5.653   4.058   5.640
 6997SOL    HW121140   5.578   4.033   5.585
 6997SOL    HW221141   5.701   4.122   5.587
 6998SOL     OW21142   5.655   3.891   5.870
 6998SOL    HW121143   5.646   3.947   5.792
 6998SOL    HW221144   5.735   3.841   5.853
 6999SOL     OW21145   5.644   4.805   5.883
 6999SOL    HW121146   5.740   4.804   5.886
 6999SOL    HW221147   5.618   4.714   5.896
 7000SOL     OW21148   5.829   5.849   0.973
 7000SOL    HW121149   5.857   5.846   1.064
 7000SOL    HW221150   5.735   5.833   0.976
 7001SOL     OW21151   5.578   5.948   0.650
 7001SOL    HW121152   5.494   5.959   0.693
 7001SOL    HW221153   5.568   5.869   0.597
 7002SOL     OW21154   5.787   5.865   1.502
 7002SOL    HW121155   5.700   5.904   1.515
 7002SOL    HW221156   5.781   5.780   1.544
 7003SOL     OW21157   5.873   5.791   1.245
 7003SOL    HW121158   5.850   5.820   1.334
 7003SOL    HW221159   5.862   5.696   1.247
 7004SOL     OW21160   5.891   5.639   0.652
 7004SOL    HW121161   5.888   5.734   0.656
 7004SOL    HW221162   5.939   5.613   0.731
 7005SOL     OW21163   5.645   5.927   0.081
 7005SOL    HW121164   5.642   5.864   0.008
 7005SOL    HW221165   5.707   5.994   0.051
 7006SOL     OW21166   5.640   5.758   0.327
 7006SOL    HW121167   5.613   5.823   0.262
 7006SOL    HW221168   5.724   5.725   0.295
 7007SOL     OW21169   5.798   5.860   2.654
 7007SOL    HW121170   5.828   5.911   2.729
 7007SOL    HW221171   5.710   5.832   2.677
 7008SOL     OW21172   5.591   5.951   2.467
 7008SOL    HW121173   5.562   5.961   2.558
 7008SOL    HW221174   5.561   5.863   2.442
 7009SOL     OW21175   5.777   5.872   3.431
 7009SOL    HW121176   5.696   5.919   3.408
 7009SOL    HW221177   5.748   5.784   3.454
 7010SOL     OW21178   5.872   5.642   2.041
 7010SOL    HW121179   5.937   5.712   2.035
 7010SOL    HW221180   5.913   5.575   2.095
 7011SOL     OW21181   5.968   5.844   3.253
 7011SOL    HW121182   5.895   5.863   3.312
 7011SOL    HW221183   5.969   5.748   3.246
 7012SOL     OW21184   5.897   5.643   2.503
 7012SOL    HW121185   5.873   5.732   2.529
 7012SOL    HW221186   5.953   5.611   2.574
 7013SOL     OW21187   5.609   5.948   1.913
 7013SOL    HW121188   5.588   5.924   1.823
 7013SOL    HW221189   5.697   5.985   1.908
 7014SOL     OW21190   5.645   5.747   2.163
 7014SOL    HW121191   5.631   5.825   2.110
 7014SOL    HW221192   5.730   5.713   2.134
 7015SOL     OW21193   5.828   5.852   4.699
 7015SOL    HW121194   5.856   5.847   4.790
 7015SOL    HW221195   5.734   5.833   4.703
 7016SOL     OW21196   5.580   5.945   4.375
 7016SOL    HW121197   5.494   5.960   4.415
 7016SOL    HW221198   5.569   5.866   4.323
 7017SOL     OW21199   5.786   5.864   5.226
 7017SOL    HW121200   5.700   5.903   5.239
 7017SOL    HW221201   5.780   5.778   5.267
 7018SOL     OW21202   5.874   5.643   3.902
 7018SOL    HW121203   5.937   5.713   3.886
 7018SOL    HW221204   5.919   5.582   3.961
 7019SOL     OW21205   5.873   5.791   4.970
 7019SOL    HW121206   5.850   5.819   5.058
 7019SOL    HW221207   5.862   5.696   4.972
 7020SOL     OW21208   5.886   5.639   4.379
 7020SOL    HW121209   5.894   5.734   4.376
 7020SOL    HW221210   5.938   5.614   4.456
 7021SOL     OW21211   5.612   5.946   3.783
 7021SOL    HW121212   5.586   5.926   3.693
 7021SOL    HW221213   5.698   5.986   3.775
 7022SOL     OW21214   5.647   5.747   4.025
 7022SOL    HW121215   5.630   5.822   3.969
 7022SOL    HW221216   5.732   5.715   3.996
 7023SOL     OW21217   5.868   5.631   5.757
 7023SOL    HW121218   5.940   5.693   5.759
 7023SOL    HW221219   5.896   5.560   5.815
 7024SOL     OW21220   5.873   5.658   0.224
 7024SOL    HW121221   5.931   5.731   0.244
 7024SOL    HW221222   5.917   5.581   0.262
 7025SOL     OW21223   5.612   5.933   5.639
 7025SOL    HW121224   5.583   5.911   5.551
 7025SOL    HW221225   5.692   5.984   5.626
 7026SOL     OW21226   5.650   5.756   5.865
 7026SOL    HW121227   5.629   5.809   5.788
 7026SOL    HW221228   5.726   5.705   5.839
   6.00000   6.00000   6.00000
