UNNAMED in water
 2647
    1GLU      N    1   1.278   1.479   1.568
    1GLU     H1    2   1.221   1.477   1.481
    1GLU     H2    3   1.247   1.404   1.633
    1GLU     H3    4   1.268   1.569   1.619
    1GLU     CA    5   1.423   1.456   1.544
    1GLU     HA    6   1.436   1.359   1.500
    1GLU     CB    7   1.477   1.560   1.441
    1GLU    HB1    8   1.406   1.565   1.355
    1GLU    HB2    9   1.479   1.661   1.487
    1GLU     CG   10   1.616   1.525   1.381
    1GLU    HG1   11   1.690   1.519   1.463
    1GLU    HG2   12   1.614   1.426   1.332
    1GLU     CD   13   1.666   1.628   1.280
    1GLU    OE1   14   1.651   1.605   1.158
    1GLU    OE2   15   1.727   1.730   1.325
    1GLU      C   16   1.496   1.452   1.681
    1GLU    OT1   17   1.431   1.471   1.786
    1GLU    OT2   18   1.619   1.423   1.684
    2SOL     OW   19   0.240   0.663   0.109
    2SOL    HW1   20   0.171   0.616   0.156
    2SOL    HW2   21   0.253   0.613   0.028
    3SOL     OW   22   0.203   0.271   1.002
    3SOL    HW1   23   0.240   0.247   1.087
    3SOL    HW2   24   0.109   0.258   1.012
    4SOL     OW   25   0.008   0.389   0.659
    4SOL    HW1   26   2.924   0.429   0.684
    4SOL    HW2   27   2.983   0.316   0.603
    5SOL     OW   28   0.569   1.286   1.174
    5SOL    HW1   29   0.479   1.283   1.142
    5SOL    HW2   30   0.580   1.374   1.208
    6SOL     OW   31   1.561   1.512   0.703
    6SOL    HW1   32   1.519   1.493   0.787
    6SOL    HW2   33   1.488   1.516   0.640
    7SOL     OW   34   1.131   0.699   0.700
    7SOL    HW1   35   1.180   0.780   0.689
    7SOL    HW2   36   1.082   0.711   0.781
    8SOL     OW   37   1.769   0.591   0.232
    8SOL    HW1   38   1.743   0.582   0.140
    8SOL    HW2   39   1.728   0.517   0.277
    9SOL     OW   40   0.760   1.145   1.040
    9SOL    HW1   41   0.690   1.177   1.096
    9SOL    HW2   42   0.792   1.222   0.994
   10SOL     OW   43   0.862   0.780   1.820
   10SOL    HW1   44   0.858   0.851   1.884
   10SOL    HW2   45   0.888   0.822   1.739
   11SOL     OW   46   0.685   1.004   0.650
   11SOL    HW1   47   0.750   0.992   0.719
   11SOL    HW2   48   0.615   1.055   0.690
   12SOL     OW   49   0.708   1.152   1.811
   12SOL    HW1   50   0.754   1.232   1.835
   12SOL    HW2   51   0.624   1.183   1.777
   13SOL     OW   52   0.332   1.427   1.072
   13SOL    HW1   53   0.266   1.378   1.023
   13SOL    HW2   54   0.382   1.474   1.005
   14SOL     OW   55   0.453   0.403   1.491
   14SOL    HW1   56   0.526   0.342   1.495
   14SOL    HW2   57   0.375   0.349   1.505
   15SOL     OW   58   1.611   0.458   0.736
   15SOL    HW1   59   1.536   0.480   0.682
   15SOL    HW2   60   1.623   0.534   0.793
   16SOL     OW   61   0.217   1.716   0.479
   16SOL    HW1   62   0.238   1.798   0.524
   16SOL    HW2   63   0.289   1.704   0.417
   17SOL     OW   64   0.251   1.451   0.528
   17SOL    HW1   65   0.213   1.538   0.524
   17SOL    HW2   66   0.191   1.401   0.585
   18SOL     OW   67   0.262   1.082   0.895
   18SOL    HW1   68   0.255   0.994   0.933
   18SOL    HW2   69   0.199   1.135   0.944
   19SOL     OW   70   0.622   1.788   1.438
   19SOL    HW1   71   0.536   1.769   1.476
   19SOL    HW2   72   0.637   1.880   1.457
   20SOL     OW   73   0.588   0.976   0.151
   20SOL    HW1   74   0.602   1.048   0.090
   20SOL    HW2   75   0.628   1.005   0.233
   21SOL     OW   76   1.553   0.147   1.456
   21SOL    HW1   77   1.590   0.224   1.414
   21SOL    HW2   78   1.623   0.114   1.512
   22SOL     OW   79   0.122   0.628   0.570
   22SOL    HW1   80   0.085   0.550   0.612
   22SOL    HW2   81   0.119   0.696   0.637
   23SOL     OW   82   1.844   1.783   0.338
   23SOL    HW1   83   1.881   1.741   0.416
   23SOL    HW2   84   1.921   1.803   0.284
   24SOL     OW   85   0.021   1.601   0.118
   24SOL    HW1   86   0.022   1.506   0.127
   24SOL    HW2   87   2.988   1.633   0.202
   25SOL     OW   88   1.687   0.916   0.638
   25SOL    HW1   89   1.773   0.879   0.621
   25SOL    HW2   90   1.667   0.968   0.561
   26SOL     OW   91   1.647   1.108   0.431
   26SOL    HW1   92   1.734   1.112   0.390
   26SOL    HW2   93   1.653   1.169   0.505
   27SOL     OW   94   0.132   0.748   1.588
   27SOL    HW1   95   0.227   0.760   1.589
   27SOL    HW2   96   0.096   0.836   1.591
   28SOL     OW   97   0.612   1.384   0.735
   28SOL    HW1   98   0.566   1.301   0.744
   28SOL    HW2   99   0.595   1.412   0.645
   29SOL     OW  100   1.272   1.198   1.435
   29SOL    HW1  101   1.300   1.142   1.362
   29SOL    HW2  102   1.331   1.174   1.507
   30SOL     OW  103   0.820   0.013   0.515
   30SOL    HW1  104   0.851   0.102   0.500
   30SOL    HW2  105   0.725   0.017   0.500
   31SOL     OW  106   0.186   0.954   1.276
   31SOL    HW1  107   0.271   0.916   1.254
   31SOL    HW2  108   0.124   0.912   1.218
   32SOL     OW  109   1.507   1.007   0.212
   32SOL    HW1  110   1.441   0.949   0.251
   32SOL    HW2  111   1.560   1.036   0.286
   33SOL     OW  112   1.192   1.796   1.603
   33SOL    HW1  113   1.211   1.877   1.555
   33SOL    HW2  114   1.127   1.751   1.548
   34SOL     OW  115   0.334   0.253   1.797
   34SOL    HW1  116   0.384   0.330   1.824
   34SOL    HW2  117   0.250   0.261   1.841
   35SOL     OW  118   1.437   1.427   0.922
   35SOL    HW1  119   1.407   1.447   1.011
   35SOL    HW2  120   1.439   1.331   0.919
   36SOL     OW  121   1.657   1.733   0.575
   36SOL    HW1  122   1.627   1.701   0.490
   36SOL    HW2  123   1.635   1.663   0.637
   37SOL     OW  124   0.592   0.719   0.268
   37SOL    HW1  125   0.599   0.802   0.221
   37SOL    HW2  126   0.529   0.736   0.338
   38SOL     OW  127   1.286   0.343   0.930
   38SOL    HW1  128   1.194   0.319   0.938
   38SOL    HW2  129   1.330   0.292   0.998
   39SOL     OW  130   1.581   1.671   0.310
   39SOL    HW1  131   1.668   1.711   0.299
   39SOL    HW2  132   1.554   1.647   0.221
   40SOL     OW  133   0.792   0.618   1.454
   40SOL    HW1  134   0.764   0.595   1.542
   40SOL    HW2  135   0.751   0.552   1.398
   41SOL     OW  136   1.396   0.479   1.677
   41SOL    HW1  137   1.399   0.523   1.762
   41SOL    HW2  138   1.453   0.403   1.688
   42SOL     OW  139   0.957   0.888   1.583
   42SOL    HW1  140   1.012   0.818   1.548
   42SOL    HW2  141   0.908   0.921   1.507
   43SOL     OW  142   0.996   0.423   1.228
   43SOL    HW1  143   0.917   0.436   1.281
   43SOL    HW2  144   0.965   0.375   1.151
   44SOL     OW  145   1.050   0.706   0.424
   44SOL    HW1  146   1.066   0.695   0.518
   44SOL    HW2  147   0.969   0.657   0.409
   45SOL     OW  148   0.104   0.817   0.762
   45SOL    HW1  149   0.181   0.815   0.818
   45SOL    HW2  150   0.037   0.863   0.813
   46SOL     OW  151   0.139   1.838   1.571
   46SOL    HW1  152   0.125   1.817   1.664
   46SOL    HW2  153   0.053   1.866   1.539
   47SOL     OW  154   0.929   0.339   0.220
   47SOL    HW1  155   0.937   0.399   0.146
   47SOL    HW2  156   0.878   0.265   0.185
   48SOL     OW  157   1.711   0.576   1.829
   48SOL    HW1  158   1.673   0.652   1.785
   48SOL    HW2  159   1.737   0.518   1.757
   49SOL     OW  160   1.376   1.140   0.540
   49SOL    HW1  161   1.456   1.131   0.489
   49SOL    HW2  162   1.323   1.204   0.492
   50SOL     OW  163   0.512   0.200   0.914
   50SOL    HW1  164   0.536   0.211   1.006
   50SOL    HW2  165   0.548   0.277   0.870
   51SOL     OW  166   1.006   1.447   0.473
   51SOL    HW1  167   0.967   1.518   0.423
   51SOL    HW2  168   0.987   1.468   0.565
   52SOL     OW  169   0.354   1.808   0.857
   52SOL    HW1  170   0.399   1.724   0.868
   52SOL    HW2  171   0.421   1.874   0.877
   53SOL     OW  172   1.799   1.055   0.866
   53SOL    HW1  173   1.741   1.041   0.790
   53SOL    HW2  174   1.739   1.060   0.940
   54SOL     OW  175   0.318   0.947   0.234
   54SOL    HW1  176   0.409   0.955   0.206
   54SOL    HW2  177   0.292   0.860   0.205
   55SOL     OW  178   1.477   0.741   0.727
   55SOL    HW1  179   1.468   0.698   0.813
   55SOL    HW2  180   1.554   0.797   0.737
   56SOL     OW  181   0.467   1.262   1.734
   56SOL    HW1  182   0.439   1.268   1.643
   56SOL    HW2  183   0.386   1.268   1.784
   57SOL     OW  184   1.113   1.776   0.224
   57SOL    HW1  185   1.052   1.729   0.281
   57SOL    HW2  186   1.143   1.710   0.161
   58SOL     OW  187   0.202   0.298   1.495
   58SOL    HW1  188   0.118   0.343   1.492
   58SOL    HW2  189   0.186   0.220   1.548
   59SOL     OW  190   1.625   1.364   0.087
   59SOL    HW1  191   1.597   1.454   0.075
   59SOL    HW2  192   1.545   1.312   0.081
   60SOL     OW  193   0.465   1.722   0.335
   60SOL    HW1  194   0.499   1.791   0.391
   60SOL    HW2  195   0.532   1.711   0.267
   61SOL     OW  196   1.410   0.107   0.438
   61SOL    HW1  197   1.394   0.083   0.346
   61SOL    HW2  198   1.504   0.127   0.441
   62SOL     OW  199   0.268   1.797   1.233
   62SOL    HW1  200   0.304   1.722   1.280
   62SOL    HW2  201   0.225   1.759   1.157
   63SOL     OW  202   0.938   1.698   0.900
   63SOL    HW1  203   1.020   1.650   0.916
   63SOL    HW2  204   0.894   1.648   0.831
   64SOL     OW  205   0.394   0.690   0.473
   64SOL    HW1  206   0.423   0.601   0.493
   64SOL    HW2  207   0.301   0.690   0.497
   65SOL     OW  208   1.537   0.252   1.735
   65SOL    HW1  209   1.539   0.258   1.831
   65SOL    HW2  210   1.485   0.174   1.718
   66SOL     OW  211   0.608   0.110   0.105
   66SOL    HW1  212   0.703   0.108   0.117
   66SOL    HW2  213   0.595   0.150   0.019
   67SOL     OW  214   0.764   0.270   1.749
   67SOL    HW1  215   0.842   0.216   1.762
   67SOL    HW2  216   0.727   0.280   1.836
   68SOL     OW  217   0.877   1.521   1.196
   68SOL    HW1  218   0.862   1.487   1.108
   68SOL    HW2  219   0.951   1.470   1.229
   69SOL     OW  220   1.341   0.588   1.432
   69SOL    HW1  221   1.371   0.557   1.518
   69SOL    HW2  222   1.377   0.676   1.425
   70SOL     OW  223   0.815   1.396   0.938
   70SOL    HW1  224   0.898   1.386   0.893
   70SOL    HW2  225   0.750   1.396   0.867
   71SOL     OW  226   0.928   0.511   0.903
   71SOL    HW1  227   0.906   0.504   0.810
   71SOL    HW2  228   0.959   0.423   0.926
   72SOL     OW  229   0.541   0.046   0.497
   72SOL    HW1  230   0.455   0.038   0.538
   72SOL    HW2  231   0.534   0.122   0.440
   73SOL     OW  232   1.411   1.209   0.050
   73SOL    HW1  233   1.429   1.133   0.105
   73SOL    HW2  234   1.322   1.236   0.076
   74SOL     OW  235   0.298   0.083   0.199
   74SOL    HW1  236   0.382   0.127   0.198
   74SOL    HW2  237   0.319   2.990   0.192
   75SOL     OW  238   0.948   0.252   0.474
   75SOL    HW1  239   0.926   0.289   0.388
   75SOL    HW2  240   1.043   0.264   0.481
   76SOL     OW  241   1.080   0.680   1.458
   76SOL    HW1  242   1.011   0.614   1.465
   76SOL    HW2  243   1.161   0.630   1.452
   77SOL     OW  244   1.216   1.573   0.797
   77SOL    HW1  245   1.242   1.640   0.734
   77SOL    HW2  246   1.292   1.561   0.853
   78SOL     OW  247   0.468   1.149   0.736
   78SOL    HW1  248   0.398   1.128   0.798
   78SOL    HW2  249   0.429   1.136   0.650
   79SOL     OW  250   1.269   1.794   0.602
   79SOL    HW1  251   1.313   1.860   0.548
   79SOL    HW2  252   1.205   1.844   0.653
   80SOL     OW  253   1.048   0.497   0.032
   80SOL    HW1  254   1.005   0.582   0.025
   80SOL    HW2  255   1.114   0.509   0.099
   81SOL     OW  256   0.081   0.567   1.389
   81SOL    HW1  257   0.171   0.561   1.356
   81SOL    HW2  258   0.086   0.631   1.460
   82SOL     OW  259   0.581   0.209   1.180
   82SOL    HW1  260   0.618   0.173   1.261
   82SOL    HW2  261   0.488   0.217   1.198
   83SOL     OW  262   0.876   0.472   0.639
   83SOL    HW1  263   0.821   0.517   0.575
   83SOL    HW2  264   0.885   0.383   0.604
   84SOL     OW  265   0.997   0.058   0.765
   84SOL    HW1  266   0.961   0.066   0.677
   84SOL    HW2  267   0.973   2.969   0.792
   85SOL     OW  268   1.439   1.156   0.863
   85SOL    HW1  269   1.370   1.090   0.856
   85SOL    HW2  270   1.463   1.175   0.772
   86SOL     OW  271   1.468   0.603   0.977
   86SOL    HW1  272   1.415   0.523   0.985
   86SOL    HW2  273   1.528   0.599   1.052
   87SOL     OW  274   1.845   0.816   0.382
   87SOL    HW1  275   1.901   0.761   0.437
   87SOL    HW2  276   1.821   0.759   0.309
   88SOL     OW  277   0.489   1.408   0.151
   88SOL    HW1  278   0.426   1.374   0.214
   88SOL    HW2  279   0.440   1.417   0.070
   89SOL     OW  280   1.670   1.266   0.648
   89SOL    HW1  281   1.765   1.269   0.662
   89SOL    HW2  282   1.639   1.353   0.670
   90SOL     OW  283   1.414   0.574   0.098
   90SOL    HW1  284   1.344   0.568   0.162
   90SOL    HW2  285   1.458   0.489   0.102
   91SOL     OW  286   0.526   0.261   0.324
   91SOL    HW1  287   0.570   0.214   0.253
   91SOL    HW2  288   0.499   0.344   0.285
   92SOL     OW  289   1.749   1.210   1.577
   92SOL    HW1  290   1.844   1.215   1.565
   92SOL    HW2  291   1.725   1.294   1.616
   93SOL     OW  292   1.066   1.357   1.356
   93SOL    HW1  293   0.983   1.325   1.391
   93SOL    HW2  294   1.130   1.291   1.383
   94SOL     OW  295   1.665   1.703   1.673
   94SOL    HW1  296   1.659   1.717   1.578
   94SOL    HW2  297   1.685   1.610   1.682
   95SOL     OW  298   1.129   1.213   1.107
   95SOL    HW1  299   1.056   1.234   1.165
   95SOL    HW2  300   1.098   1.236   1.019
   96SOL     OW  301   1.631   1.098   1.076
   96SOL    HW1  302   1.640   1.171   1.137
   96SOL    HW2  303   1.552   1.117   1.026
   97SOL     OW  304   0.899   0.112   1.383
   97SOL    HW1  305   0.940   0.093   1.299
   97SOL    HW2  306   0.963   0.165   1.430
   98SOL     OW  307   0.984   1.119   1.723
   98SOL    HW1  308   0.891   1.131   1.742
   98SOL    HW2  309   0.987   1.041   1.667
   99SOL     OW  310   0.704   1.064   0.379
   99SOL    HW1  311   0.690   1.048   0.473
   99SOL    HW2  312   0.784   1.015   0.360
  100SOL     OW  313   0.421   0.813   1.248
  100SOL    HW1  314   0.488   0.824   1.316
  100SOL    HW2  315   0.385   0.726   1.264
  101SOL     OW  316   1.272   0.388   1.259
  101SOL    HW1  317   1.300   0.460   1.316
  101SOL    HW2  318   1.177   0.401   1.250
  102SOL     OW  319   0.067   1.573   1.310
  102SOL    HW1  320   0.025   1.651   1.347
  102SOL    HW2  321   0.155   1.574   1.347
  103SOL     OW  322   0.358   1.112   0.488
  103SOL    HW1  323   0.346   1.185   0.427
  103SOL    HW2  324   0.353   1.034   0.434
  104SOL     OW  325   0.552   0.540   0.862
  104SOL    HW1  326   0.569   0.595   0.785
  104SOL    HW2  327   0.617   0.566   0.926
  105SOL     OW  328   1.247   1.345   0.397
  105SOL    HW1  329   1.302   1.419   0.425
  105SOL    HW2  330   1.159   1.368   0.428
  106SOL     OW  331   1.278   1.452   1.150
  106SOL    HW1  332   1.333   1.430   1.225
  106SOL    HW2  333   1.221   1.376   1.138
  107SOL     OW  334   1.583   0.625   0.478
  107SOL    HW1  335   1.537   0.679   0.543
  107SOL    HW2  336   1.629   0.688   0.423
  108SOL     OW  337   0.349   1.530   1.320
  108SOL    HW1  338   0.331   1.488   1.236
  108SOL    HW2  339   0.444   1.540   1.322
  109SOL     OW  340   0.413   0.740   1.602
  109SOL    HW1  341   0.470   0.790   1.543
  109SOL    HW2  342   0.461   0.659   1.618
  110SOL     OW  343   1.601   0.775   1.680
  110SOL    HW1  344   1.513   0.811   1.673
  110SOL    HW2  345   1.651   0.821   1.613
  111SOL     OW  346   1.006   0.113   1.761
  111SOL    HW1  347   1.050   0.195   1.738
  111SOL    HW2  348   1.024   0.054   1.688
  112SOL     OW  349   0.505   0.050   1.750
  112SOL    HW1  350   0.471   2.988   1.686
  112SOL    HW2  351   0.437   0.117   1.757
  113SOL     OW  352   0.585   0.872   1.031
  113SOL    HW1  353   0.610   0.964   1.029
  113SOL    HW2  354   0.527   0.865   1.107
  114SOL     OW  355   1.358   0.857   1.029
  114SOL    HW1  356   1.275   0.846   0.983
  114SOL    HW2  357   1.398   0.771   1.028
  115SOL     OW  358   1.205   0.530   0.271
  115SOL    HW1  359   1.214   0.450   0.323
  115SOL    HW2  360   1.161   0.592   0.329
  116SOL     OW  361   0.326   0.207   1.250
  116SOL    HW1  362   0.292   0.253   1.326
  116SOL    HW2  363   0.274   0.126   1.245
  117SOL     OW  364   0.031   1.305   1.278
  117SOL    HW1  365   0.065   1.259   1.355
  117SOL    HW2  366   0.042   1.398   1.299
  118SOL     OW  367   0.725   0.631   1.058
  118SOL    HW1  368   0.799   0.615   1.000
  118SOL    HW2  369   0.697   0.720   1.037
  119SOL     OW  370   1.739   0.956   1.857
  119SOL    HW1  371   1.689   0.907   1.791
  119SOL    HW2  372   1.676   0.972   1.927
  120SOL     OW  373   0.309   0.073   0.642
  120SOL    HW1  374   0.304   0.158   0.686
  120SOL    HW2  375   0.282   0.010   0.709
  121SOL     OW  376   1.617   0.375   0.366
  121SOL    HW1  377   1.646   0.311   0.430
  121SOL    HW2  378   1.591   0.451   0.418
  122SOL     OW  379   1.028   0.759   0.962
  122SOL    HW1  380   1.026   0.777   1.056
  122SOL    HW2  381   1.001   0.668   0.953
  123SOL     OW  382   1.014   1.542   1.689
  123SOL    HW1  383   0.977   1.599   1.622
  123SOL    HW2  384   0.962   1.462   1.685
  124SOL     OW  385   1.897   1.504   1.614
  124SOL    HW1  386   1.901   1.524   1.521
  124SOL    HW2  387   1.979   1.537   1.650
  125SOL     OW  388   0.357   0.915   1.808
  125SOL    HW1  389   0.438   0.935   1.855
  125SOL    HW2  390   0.382   0.851   1.742
  126SOL     OW  391   1.497   0.304   0.126
  126SOL    HW1  392   1.461   0.216   0.141
  126SOL    HW2  393   1.555   0.319   0.200
  127SOL     OW  394   1.292   0.822   0.033
  127SOL    HW1  395   1.335   0.737   0.048
  127SOL    HW2  396   1.322   0.849   2.947
  128SOL     OW  397   1.066   1.333   0.855
  128SOL    HW1  398   1.069   1.263   0.790
  128SOL    HW2  399   1.126   1.400   0.820
  129SOL     OW  400   0.310   0.807   0.948
  129SOL    HW1  401   0.404   0.827   0.943
  129SOL    HW2  402   0.307   0.719   0.986
  130SOL     OW  403   0.334   0.514   1.017
  130SOL    HW1  404   0.294   0.431   0.993
  130SOL    HW2  405   0.408   0.524   0.957
  131SOL     OW  406   1.140   0.380   1.704
  131SOL    HW1  407   1.095   0.436   1.767
  131SOL    HW2  408   1.227   0.420   1.694
  132SOL     OW  409   1.098   0.255   1.473
  132SOL    HW1  410   1.119   0.307   1.551
  132SOL    HW2  411   1.184   0.231   1.437
  133SOL     OW  412   0.010   1.315   0.171
  133SOL    HW1  413   2.918   1.330   0.149
  133SOL    HW2  414   0.008   1.241   0.231
  134SOL     OW  415   0.099   1.807   0.971
  134SOL    HW1  416   0.059   1.741   0.914
  134SOL    HW2  417   0.185   1.823   0.932
  135SOL     OW  418   0.494   1.573   0.902
  135SOL    HW1  419   0.563   1.634   0.929
  135SOL    HW2  420   0.540   1.508   0.848
  136SOL     OW  421   0.985   0.795   1.227
  136SOL    HW1  422   1.040   0.770   1.301
  136SOL    HW2  423   0.899   0.756   1.247
  137SOL     OW  424   0.044   0.557   1.106
  137SOL    HW1  425   0.135   0.538   1.083
  137SOL    HW2  426   0.040   0.544   1.201
  138SOL     OW  427   0.191   0.519   1.720
  138SOL    HW1  428   0.265   0.492   1.665
  138SOL    HW2  429   0.160   0.600   1.680
  139SOL     OW  430   1.364   0.911   1.656
  139SOL    HW1  431   1.395   1.001   1.661
  139SOL    HW2  432   1.365   0.890   1.563
  140SOL     OW  433   0.819   0.578   0.349
  140SOL    HW1  434   0.821   0.498   0.296
  140SOL    HW2  435   0.738   0.621   0.323
  141SOL     OW  436   1.642   0.602   1.185
  141SOL    HW1  437   1.630   0.545   1.262
  141SOL    HW2  438   1.730   0.579   1.153
  142SOL     OW  439   0.284   1.560   1.746
  142SOL    HW1  440   0.222   1.617   1.792
  142SOL    HW2  441   0.255   1.471   1.768
  143SOL     OW  442   0.697   0.455   1.262
  143SOL    HW1  443   0.650   0.379   1.229
  143SOL    HW2  444   0.697   0.517   1.189
  144SOL     OW  445   0.946   1.687   1.465
  144SOL    HW1  446   0.913   1.644   1.386
  144SOL    HW2  447   0.923   1.780   1.453
  145SOL     OW  448   0.452   0.495   0.200
  145SOL    HW1  449   0.511   0.566   0.222
  145SOL    HW2  450   0.367   0.538   0.186
  146SOL     OW  451   0.160   1.145   1.464
  146SOL    HW1  452   0.143   1.098   1.546
  146SOL    HW2  453   0.167   1.076   1.398
  147SOL     OW  454   1.329   1.051   1.215
  147SOL    HW1  455   1.353   0.985   1.150
  147SOL    HW2  456   1.258   1.100   1.174
  148SOL     OW  457   1.307   0.852   0.312
  148SOL    HW1  458   1.232   0.820   0.361
  148SOL    HW2  459   1.283   0.839   0.220
  149SOL     OW  460   1.240   1.730   1.116
  149SOL    HW1  461   1.323   1.755   1.075
  149SOL    HW2  462   1.247   1.636   1.129
  150SOL     OW  463   0.093   1.247   1.025
  150SOL    HW1  464   0.076   1.260   1.118
  150SOL    HW2  465   0.010   1.266   0.982
  151SOL     OW  466   0.685   1.670   1.724
  151SOL    HW1  467   0.622   1.741   1.731
  151SOL    HW2  468   0.728   1.684   1.639
  152SOL     OW  469   0.875   0.080   0.147
  152SOL    HW1  470   0.939   0.066   0.076
  152SOL    HW2  471   0.907   0.026   0.219
  153SOL     OW  472   1.712   0.142   0.504
  153SOL    HW1  473   1.782   0.143   0.440
  153SOL    HW2  474   1.730   0.064   0.558
  154SOL     OW  475   1.387   1.568   0.483
  154SOL    HW1  476   1.448   1.602   0.417
  154SOL    HW2  477   1.341   1.645   0.514
  155SOL     OW  478   0.121   1.798   1.843
  155SOL    HW1  479   0.080   1.729   1.894
  155SOL    HW2  480   0.179   1.842   1.905
  156SOL     OW  481   1.277   0.925   0.671
  156SOL    HW1  482   1.351   0.864   0.677
  156SOL    HW2  483   1.311   0.998   0.619
  157SOL     OW  484   0.815   1.274   1.426
  157SOL    HW1  485   0.786   1.310   1.510
  157SOL    HW2  486   0.744   1.294   1.365
  158SOL     OW  487   0.670   1.611   0.161
  158SOL    HW1  488   0.673   1.630   0.067
  158SOL    HW2  489   0.616   1.532   0.168
  159SOL     OW  490   1.850   0.155   0.966
  159SOL    HW1  491   1.854   0.072   0.918
  159SOL    HW2  492   1.768   0.195   0.938
  160SOL     OW  493   0.266   0.332   0.741
  160SOL    HW1  494   0.176   0.361   0.728
  160SOL    HW2  495   0.269   0.302   0.832
  161SOL     OW  496   1.207   1.602   0.034
  161SOL    HW1  497   1.198   1.512   0.066
  161SOL    HW2  498   1.156   1.604   2.953
  162SOL     OW  499   0.823   1.005   1.373
  162SOL    HW1  500   0.866   1.000   1.288
  162SOL    HW2  501   0.824   1.099   1.394
  163SOL     OW  502   0.922   0.928   0.304
  163SOL    HW1  503   0.987   0.966   0.246
  163SOL    HW2  504   0.970   0.864   0.356
  164SOL     OW  505   1.487   1.603   0.051
  164SOL    HW1  506   1.391   1.607   0.056
  164SOL    HW2  507   1.508   1.641   2.965
  165SOL     OW  508   0.375   1.305   1.489
  165SOL    HW1  509   0.357   1.384   1.439
  165SOL    HW2  510   0.298   1.249   1.475
  166SOL     OW  511   1.051   1.106   0.705
  166SOL    HW1  512   0.980   1.055   0.745
  166SOL    HW2  513   1.113   1.040   0.675
  167SOL     OW  514   1.020   0.244   0.965
  167SOL    HW1  515   1.012   0.193   0.885
  167SOL    HW2  516   1.023   0.179   1.035
  168SOL     OW  517   0.603   1.492   0.483
  168SOL    HW1  518   0.643   1.441   0.413
  168SOL    HW2  519   0.536   1.545   0.441
  169SOL     OW  520   1.720   0.391   1.379
  169SOL    HW1  521   1.793   0.454   1.376
  169SOL    HW2  522   1.747   0.321   1.319
  170SOL     OW  523   0.268   1.331   0.293
  170SOL    HW1  524   0.179   1.336   0.258
  170SOL    HW2  525   0.264   1.378   0.376
  171SOL     OW  526   0.126   1.011   1.706
  171SOL    HW1  527   0.053   0.972   1.754
  171SOL    HW2  528   0.204   0.978   1.751
  172SOL     OW  529   0.663   0.212   1.492
  172SOL    HW1  530   0.745   0.180   1.453
  172SOL    HW2  531   0.685   0.228   1.583
  173SOL     OW  532   0.068   0.311   0.052
  173SOL    HW1  533   2.977   0.329   0.031
  173SOL    HW2  534   0.115   0.392   0.032
  174SOL     OW  535   1.429   0.856   1.396
  174SOL    HW1  536   1.384   0.917   1.339
  174SOL    HW2  537   1.521   0.861   1.369
  175SOL     OW  538   0.036   0.179   0.289
  175SOL    HW1  539   0.038   0.235   0.211
  175SOL    HW2  540   0.127   0.151   0.300
  176SOL     OW  541   1.183   1.347   0.125
  176SOL    HW1  542   1.088   1.338   0.114
  176SOL    HW2  543   1.197   1.337   0.219
  177SOL     OW  544   0.617   0.831   1.434
  177SOL    HW1  545   0.673   0.907   1.420
  177SOL    HW2  546   0.679   0.758   1.443
  178SOL     OW  547   1.485   1.768   0.988
  178SOL    HW1  548   1.534   1.824   0.927
  178SOL    HW2  549   1.553   1.722   1.037
  179SOL     OW  550   0.715   0.567   1.707
  179SOL    HW1  551   0.756   0.632   1.764
  179SOL    HW2  552   0.753   0.483   1.736
  180SOL     OW  553   1.470   1.154   1.633
  180SOL    HW1  554   1.455   1.177   1.725
  180SOL    HW2  555   1.560   1.181   1.617
  181SOL     OW  556   0.388   1.737   1.564
  181SOL    HW1  557   0.302   1.776   1.548
  181SOL    HW2  558   0.369   1.657   1.613
  182SOL     OW  559   1.670   0.882   1.255
  182SOL    HW1  560   1.663   0.796   1.212
  182SOL    HW2  561   1.662   0.945   1.183
  183SOL     OW  562   1.226   0.317   0.454
  183SOL    HW1  563   1.287   0.243   0.455
  183SOL    HW2  564   1.250   0.368   0.532
  184SOL     OW  565   0.592   0.739   0.667
  184SOL    HW1  566   0.630   0.826   0.655
  184SOL    HW2  567   0.522   0.735   0.602
  185SOL     OW  568   1.765   0.353   1.646
  185SOL    HW1  569   1.745   0.377   1.555
  185SOL    HW2  570   1.683   0.320   1.681
  186SOL     OW  571   1.742   0.933   1.515
  186SOL    HW1  572   1.747   1.027   1.534
  186SOL    HW2  573   1.731   0.929   1.420
  187SOL     OW  574   0.909   1.389   0.062
  187SOL    HW1  575   0.837   1.386   0.125
  187SOL    HW2  576   0.867   1.410   2.979
  188SOL     OW  577   0.659   1.791   0.946
  188SOL    HW1  578   0.638   1.882   0.922
  188SOL    HW2  579   0.754   1.786   0.938
  189SOL     OW  580   0.867   0.966   0.856
  189SOL    HW1  581   0.916   0.895   0.896
  189SOL    HW2  582   0.833   1.016   0.930
  190SOL     OW  583   1.099   1.017   0.102
  190SOL    HW1  584   1.065   1.057   0.022
  190SOL    HW2  585   1.166   0.955   0.072
  191SOL     OW  586   1.859   1.552   0.843
  191SOL    HW1  587   1.771   1.550   0.806
  191SOL    HW2  588   1.852   1.501   0.924
  192SOL     OW  589   0.225   1.302   1.854
  192SOL    HW1  590   0.178   1.222   1.831
  192SOL    HW2  591   0.211   1.311   1.948
  193SOL     OW  592   0.130   1.252   0.664
  193SOL    HW1  593   0.078   1.186   0.711
  193SOL    HW2  594   0.180   1.201   0.600
  194SOL     OW  595   0.683   1.405   1.624
  194SOL    HW1  596   0.605   1.357   1.651
  194SOL    HW2  597   0.675   1.490   1.667
  195SOL     OW  598   1.796   0.176   1.235
  195SOL    HW1  599   1.843   0.101   1.272
  195SOL    HW2  600   1.822   0.177   1.143
  196SOL     OW  601   0.463   0.432   0.548
  196SOL    HW1  602   0.453   0.369   0.476
  196SOL    HW2  603   0.405   0.399   0.617
  197SOL     OW  604   0.333   0.556   1.291
  197SOL    HW1  605   0.390   0.501   1.346
  197SOL    HW2  606   0.352   0.526   1.202
  198SOL     OW  607   0.827   1.577   0.678
  198SOL    HW1  608   0.815   1.631   0.599
  198SOL    HW2  609   0.749   1.521   0.681
  199SOL     OW  610   1.428   0.214   1.128
  199SOL    HW1  611   1.450   0.145   1.191
  199SOL    HW2  612   1.379   0.278   1.180
  200SOL     OW  613   1.013   0.026   1.146
  200SOL    HW1  614   0.931   2.997   1.106
  200SOL    HW2  615   1.073   2.952   1.135
  201SOL     OW  616   0.767   1.329   0.313
  201SOL    HW1  617   0.734   1.240   0.331
  201SOL    HW2  618   0.851   1.333   0.357
  202SOL     OW  619   0.621   1.557   1.284
  202SOL    HW1  620   0.624   1.639   1.335
  202SOL    HW2  621   0.708   1.550   1.246
  203SOL     OW  622   1.362   0.055   0.169
  203SOL    HW1  623   1.414   2.979   0.145
  203SOL    HW2  624   1.271   0.030   0.150
  204SOL     OW  625   1.296   0.460   0.680
  204SOL    HW1  626   1.242   0.538   0.688
  204SOL    HW2  627   1.294   0.420   0.767
  205SOL     OW  628   1.604   0.229   0.886
  205SOL    HW1  629   1.528   0.232   0.944
  205SOL    HW2  630   1.595   0.306   0.830
  206SOL     OW  631   0.073   1.092   0.341
  206SOL    HW1  632   0.150   1.048   0.305
  206SOL    HW2  633   0.004   1.025   0.338
  207SOL     OW  634   0.884   1.654   0.343
  207SOL    HW1  635   0.812   1.632   0.283
  207SOL    HW2  636   0.850   1.727   0.395
  208SOL     OW  637   0.243   0.645   1.975
  208SOL    HW1  638   0.173   0.609   2.030
  208SOL    HW2  639   0.226   0.609   1.888
  209SOL     OW  640   0.237   0.249   2.850
  209SOL    HW1  641   0.251   0.230   2.943
  209SOL    HW2  642   0.142   0.240   2.839
  210SOL     OW  643   0.007   0.389   2.524
  210SOL    HW1  644   2.921   0.426   2.545
  210SOL    HW2  645   2.988   0.315   2.466
  211SOL     OW  646   1.559   1.510   2.568
  211SOL    HW1  647   1.511   1.491   2.649
  211SOL    HW2  648   1.491   1.516   2.501
  212SOL     OW  649   1.134   0.697   2.563
  212SOL    HW1  650   1.183   0.778   2.549
  212SOL    HW2  651   1.085   0.713   2.644
  213SOL     OW  652   1.766   0.605   2.093
  213SOL    HW1  653   1.746   0.600   1.999
  213SOL    HW2  654   1.733   0.524   2.129
  214SOL     OW  655   0.747   1.144   2.898
  214SOL    HW1  656   0.680   1.192   2.946
  214SOL    HW2  657   0.799   1.212   2.856
  215SOL     OW  658   0.684   1.006   2.508
  215SOL    HW1  659   0.749   0.993   2.577
  215SOL    HW2  660   0.614   1.056   2.551
  216SOL     OW  661   0.329   1.451   2.933
  216SOL    HW1  662   0.281   1.384   2.885
  216SOL    HW2  663   0.386   1.491   2.867
  217SOL     OW  664   1.615   0.457   2.595
  217SOL    HW1  665   1.544   0.479   2.536
  217SOL    HW2  666   1.609   0.521   2.666
  218SOL     OW  667   0.219   1.711   2.347
  218SOL    HW1  668   0.239   1.795   2.388
  218SOL    HW2  669   0.279   1.706   2.273
  219SOL     OW  670   0.254   1.446   2.387
  219SOL    HW1  671   0.221   1.536   2.386
  219SOL    HW2  672   0.193   1.399   2.443
  220SOL     OW  673   0.240   1.084   2.750
  220SOL    HW1  674   0.259   1.002   2.795
  220SOL    HW2  675   0.193   1.137   2.815
  221SOL     OW  676   0.585   0.982   1.996
  221SOL    HW1  677   0.630   1.031   1.927
  221SOL    HW2  678   0.626   1.012   2.077
  222SOL     OW  679   0.130   0.623   2.435
  222SOL    HW1  680   0.088   0.548   2.476
  222SOL    HW2  681   0.124   0.692   2.501
  223SOL     OW  682   1.842   1.762   2.202
  223SOL    HW1  683   1.908   1.733   2.264
  223SOL    HW2  684   1.868   1.851   2.179
  224SOL     OW  685   0.030   1.598   2.001
  224SOL    HW1  686   0.021   1.503   2.007
  224SOL    HW2  687   2.974   1.631   2.071
  225SOL     OW  688   1.690   0.917   2.500
  225SOL    HW1  689   1.773   0.877   2.477
  225SOL    HW2  690   1.666   0.969   2.423
  226SOL     OW  691   1.645   1.105   2.294
  226SOL    HW1  692   1.728   1.115   2.247
  226SOL    HW2  693   1.650   1.168   2.366
  227SOL     OW  694   0.609   1.382   2.593
  227SOL    HW1  695   0.562   1.299   2.602
  227SOL    HW2  696   0.594   1.408   2.502
  228SOL     OW  697   0.821   0.015   2.382
  228SOL    HW1  698   0.855   0.100   2.354
  228SOL    HW2  699   0.727   0.018   2.360
  229SOL     OW  700   1.534   0.987   2.066
  229SOL    HW1  701   1.463   0.932   2.097
  229SOL    HW2  702   1.573   1.024   2.145
  230SOL     OW  703   1.431   1.421   2.800
  230SOL    HW1  704   1.412   1.417   2.893
  230SOL    HW2  705   1.440   1.329   2.773
  231SOL     OW  706   1.658   1.739   2.444
  231SOL    HW1  707   1.639   1.712   2.354
  231SOL    HW2  708   1.633   1.663   2.497
  232SOL     OW  709   0.597   0.722   2.126
  232SOL    HW1  710   0.604   0.803   2.075
  232SOL    HW2  711   0.532   0.741   2.193
  233SOL     OW  712   1.295   0.338   2.811
  233SOL    HW1  713   1.201   0.325   2.800
  233SOL    HW2  714   1.314   0.302   2.897
  234SOL     OW  715   1.583   1.672   2.180
  234SOL    HW1  716   1.674   1.702   2.171
  234SOL    HW2  717   1.551   1.667   2.090
  235SOL     OW  718   1.049   0.698   2.290
  235SOL    HW1  719   1.065   0.691   2.384
  235SOL    HW2  720   0.967   0.651   2.275
  236SOL     OW  721   0.106   0.815   2.623
  236SOL    HW1  722   0.183   0.814   2.679
  236SOL    HW2  723   0.046   0.876   2.667
  237SOL     OW  724   0.872   0.354   2.043
  237SOL    HW1  725   0.926   0.419   1.997
  237SOL    HW2  726   0.921   0.272   2.036
  238SOL     OW  727   1.377   1.143   2.404
  238SOL    HW1  728   1.455   1.129   2.349
  238SOL    HW2  729   1.324   1.205   2.354
  239SOL     OW  730   0.562   0.202   2.843
  239SOL    HW1  731   0.503   0.274   2.865
  239SOL    HW2  732   0.584   0.216   2.751
  240SOL     OW  733   1.006   1.444   2.336
  240SOL    HW1  734   0.968   1.517   2.287
  240SOL    HW2  735   0.989   1.466   2.428
  241SOL     OW  736   0.354   1.803   2.716
  241SOL    HW1  737   0.399   1.720   2.729
  241SOL    HW2  738   0.417   1.870   2.742
  242SOL     OW  739   1.808   1.058   2.719
  242SOL    HW1  740   1.749   1.039   2.645
  242SOL    HW2  741   1.751   1.060   2.795
  243SOL     OW  742   0.315   0.948   2.109
  243SOL    HW1  743   0.397   0.975   2.067
  243SOL    HW2  744   0.295   0.864   2.070
  244SOL     OW  745   1.476   0.747   2.588
  244SOL    HW1  746   1.474   0.695   2.668
  244SOL    HW2  747   1.558   0.796   2.593
  245SOL     OW  748   1.119   1.780   2.096
  245SOL    HW1  749   1.049   1.735   2.142
  245SOL    HW2  750   1.144   1.721   2.025
  246SOL     OW  751   1.619   1.374   1.974
  246SOL    HW1  752   1.609   1.445   1.910
  246SOL    HW2  753   1.561   1.305   1.942
  247SOL     OW  754   0.466   1.739   2.182
  247SOL    HW1  755   0.507   1.794   2.247
  247SOL    HW2  756   0.538   1.708   2.127
  248SOL     OW  757   1.409   0.111   2.297
  248SOL    HW1  758   1.392   0.079   2.208
  248SOL    HW2  759   1.503   0.129   2.299
  249SOL     OW  760   0.264   1.799   0.100
  249SOL    HW1  761   0.302   1.729   0.154
  249SOL    HW2  762   0.200   1.754   0.044
  250SOL     OW  763   0.943   1.690   2.754
  250SOL    HW1  764   1.024   1.640   2.755
  250SOL    HW2  765   0.888   1.647   2.689
  251SOL     OW  766   0.395   0.692   2.337
  251SOL    HW1  767   0.426   0.602   2.353
  251SOL    HW2  768   0.302   0.689   2.359
  252SOL     OW  769   0.628   0.116   1.976
  252SOL    HW1  770   0.719   0.090   1.965
  252SOL    HW2  771   0.588   0.102   1.890
  253SOL     OW  772   0.805   1.396   2.794
  253SOL    HW1  773   0.892   1.390   2.755
  253SOL    HW2  774   0.745   1.393   2.720
  254SOL     OW  775   0.920   0.519   2.758
  254SOL    HW1  776   0.902   0.500   2.666
  254SOL    HW2  777   0.951   0.436   2.794
  255SOL     OW  778   0.546   0.061   2.370
  255SOL    HW1  779   0.458   0.044   2.403
  255SOL    HW2  780   0.533   0.129   2.303
  256SOL     OW  781   1.422   1.177   1.897
  256SOL    HW1  782   1.448   1.114   1.964
  256SOL    HW2  783   1.352   1.227   1.938
  257SOL     OW  784   0.287   0.033   2.056
  257SOL    HW1  785   0.338   0.108   2.023
  257SOL    HW2  786   0.353   2.970   2.085
  258SOL     OW  787   0.939   0.256   2.321
  258SOL    HW1  788   0.912   0.301   2.241
  258SOL    HW2  789   1.035   0.267   2.323
  259SOL     OW  790   1.217   1.587   2.673
  259SOL    HW1  791   1.242   1.644   2.599
  259SOL    HW2  792   1.300   1.566   2.715
  260SOL     OW  793   0.462   1.146   2.600
  260SOL    HW1  794   0.390   1.129   2.661
  260SOL    HW2  795   0.425   1.131   2.513
  261SOL     OW  796   1.271   1.795   2.470
  261SOL    HW1  797   1.315   1.855   2.409
  261SOL    HW2  798   1.203   1.849   2.511
  262SOL     OW  799   1.021   0.548   1.888
  262SOL    HW1  800   0.982   0.633   1.868
  262SOL    HW2  801   1.088   0.568   1.953
  263SOL     OW  802   0.870   0.466   2.497
  263SOL    HW1  803   0.824   0.516   2.429
  263SOL    HW2  804   0.888   0.382   2.456
  264SOL     OW  805   0.997   0.050   2.622
  264SOL    HW1  806   0.964   0.059   2.533
  264SOL    HW2  807   0.973   2.962   2.649
  265SOL     OW  808   1.439   1.160   2.710
  265SOL    HW1  809   1.363   1.102   2.702
  265SOL    HW2  810   1.469   1.173   2.620
  266SOL     OW  811   1.487   0.585   2.818
  266SOL    HW1  812   1.423   0.514   2.821
  266SOL    HW2  813   1.504   0.606   2.910
  267SOL     OW  814   1.849   0.816   2.247
  267SOL    HW1  815   1.906   0.762   2.301
  267SOL    HW2  816   1.818   0.756   2.179
  268SOL     OW  817   0.491   1.415   2.024
  268SOL    HW1  818   0.414   1.386   2.072
  268SOL    HW2  819   0.471   1.395   1.932
  269SOL     OW  820   1.669   1.264   2.511
  269SOL    HW1  821   1.764   1.269   2.521
  269SOL    HW2  822   1.638   1.352   2.529
  270SOL     OW  823   1.394   0.570   1.934
  270SOL    HW1  824   1.333   0.552   2.006
  270SOL    HW2  825   1.478   0.538   1.966
  271SOL     OW  826   0.525   0.262   2.182
  271SOL    HW1  827   0.567   0.212   2.113
  271SOL    HW2  828   0.504   0.346   2.142
  272SOL     OW  829   1.649   1.106   2.929
  272SOL    HW1  830   1.646   1.170   0.000
  272SOL    HW2  831   1.564   1.113   2.886
  273SOL     OW  832   0.708   1.061   2.234
  273SOL    HW1  833   0.695   1.045   2.327
  273SOL    HW2  834   0.784   1.008   2.211
  274SOL     OW  835   0.347   1.110   2.353
  274SOL    HW1  836   0.355   1.182   2.290
  274SOL    HW2  837   0.353   1.031   2.300
  275SOL     OW  838   0.542   0.547   2.731
  275SOL    HW1  839   0.563   0.596   2.652
  275SOL    HW2  840   0.616   0.565   2.790
  276SOL     OW  841   1.247   1.345   2.258
  276SOL    HW1  842   1.303   1.418   2.283
  276SOL    HW2  843   1.160   1.370   2.289
  277SOL     OW  844   1.584   0.625   2.341
  277SOL    HW1  845   1.536   0.682   2.401
  277SOL    HW2  846   1.625   0.684   2.279
  278SOL     OW  847   0.578   0.873   2.880
  278SOL    HW1  848   0.617   0.957   2.853
  278SOL    HW2  849   0.557   0.886   2.973
  279SOL     OW  850   1.208   0.533   2.132
  279SOL    HW1  851   1.213   0.452   2.183
  279SOL    HW2  852   1.164   0.595   2.189
  280SOL     OW  853   0.730   0.641   2.917
  280SOL    HW1  854   0.799   0.615   2.855
  280SOL    HW2  855   0.697   0.724   2.884
  281SOL     OW  856   0.307   0.071   2.505
  281SOL    HW1  857   0.303   0.156   2.548
  281SOL    HW2  858   0.280   0.008   2.572
  282SOL     OW  859   1.607   0.374   2.232
  282SOL    HW1  860   1.649   0.315   2.294
  282SOL    HW2  861   1.590   0.454   2.283
  283SOL     OW  862   1.019   0.763   2.818
  283SOL    HW1  863   1.022   0.769   2.913
  283SOL    HW2  864   0.993   0.673   2.801
  284SOL     OW  865   1.528   0.272   1.997
  284SOL    HW1  866   1.464   0.206   2.026
  284SOL    HW2  867   1.562   0.310   2.078
  285SOL     OW  868   1.291   0.823   1.900
  285SOL    HW1  869   1.334   0.738   1.904
  285SOL    HW2  870   1.316   0.859   1.815
  286SOL     OW  871   1.050   1.350   2.696
  286SOL    HW1  872   1.062   1.268   2.648
  286SOL    HW2  873   1.127   1.402   2.673
  287SOL     OW  874   0.311   0.811   2.811
  287SOL    HW1  875   0.405   0.829   2.810
  287SOL    HW2  876   0.304   0.721   2.844
  288SOL     OW  877   0.317   0.521   2.875
  288SOL    HW1  878   0.287   0.433   2.852
  288SOL    HW2  879   0.396   0.534   2.823
  289SOL     OW  880   2.993   1.319   2.040
  289SOL    HW1  881   2.901   1.322   2.012
  289SOL    HW2  882   0.000   1.238   2.090
  290SOL     OW  883   0.093   1.824   2.810
  290SOL    HW1  884   0.058   1.743   2.772
  290SOL    HW2  885   0.185   1.825   2.783
  291SOL     OW  886   0.502   1.575   2.761
  291SOL    HW1  887   0.573   1.635   2.785
  291SOL    HW2  888   0.546   1.509   2.706
  292SOL     OW  889   0.974   0.748   0.087
  292SOL    HW1  890   1.025   0.753   0.167
  292SOL    HW2  891   0.886   0.775   0.113
  293SOL     OW  892   0.814   0.568   2.219
  293SOL    HW1  893   0.816   0.495   2.157
  293SOL    HW2  894   0.742   0.623   2.190
  294SOL     OW  895   0.696   0.434   0.087
  294SOL    HW1  896   0.602   0.438   0.105
  294SOL    HW2  897   0.713   0.509   0.031
  295SOL     OW  898   0.466   0.494   2.049
  295SOL    HW1  899   0.528   0.564   2.068
  295SOL    HW2  900   0.382   0.539   2.037
  296SOL     OW  901   1.310   0.856   2.172
  296SOL    HW1  902   1.232   0.826   2.219
  296SOL    HW2  903   1.289   0.844   2.079
  297SOL     OW  904   1.742   1.776   2.978
  297SOL    HW1  905   1.814   1.789   2.916
  297SOL    HW2  906   1.765   1.696   0.025
  298SOL     OW  907   0.072   1.248   2.904
  298SOL    HW1  908   0.046   1.277   2.991
  298SOL    HW2  909   0.004   1.282   2.846
  299SOL     OW  910   1.723   0.147   2.366
  299SOL    HW1  911   1.782   0.143   2.291
  299SOL    HW2  912   1.736   0.063   2.411
  300SOL     OW  913   1.391   1.566   2.350
  300SOL    HW1  914   1.452   1.594   2.281
  300SOL    HW2  915   1.343   1.646   2.373
  301SOL     OW  916   1.277   0.927   2.532
  301SOL    HW1  917   1.350   0.866   2.540
  301SOL    HW2  918   1.311   0.999   2.479
  302SOL     OW  919   0.671   1.619   2.018
  302SOL    HW1  920   0.682   1.629   1.924
  302SOL    HW2  921   0.618   1.540   2.028
  303SOL     OW  922   1.853   0.160   2.814
  303SOL    HW1  923   1.852   0.075   2.771
  303SOL    HW2  924   1.768   0.199   2.792
  304SOL     OW  925   0.269   0.333   2.597
  304SOL    HW1  926   0.179   0.364   2.589
  304SOL    HW2  927   0.276   0.302   2.688
  305SOL     OW  928   1.181   1.608   1.902
  305SOL    HW1  929   1.211   1.519   1.919
  305SOL    HW2  930   1.127   1.601   1.823
  306SOL     OW  931   0.915   0.910   2.153
  306SOL    HW1  932   0.975   0.941   2.085
  306SOL    HW2  933   0.963   0.840   2.197
  307SOL     OW  934   1.494   1.691   1.918
  307SOL    HW1  935   1.436   1.617   1.897
  307SOL    HW2  936   1.557   1.694   1.846
  308SOL     OW  937   1.053   1.106   2.572
  308SOL    HW1  938   0.980   1.054   2.606
  308SOL    HW2  939   1.114   1.041   2.537
  309SOL     OW  940   1.023   0.250   2.807
  309SOL    HW1  941   1.014   0.182   2.740
  309SOL    HW2  942   1.044   0.202   2.887
  310SOL     OW  943   0.603   1.489   2.341
  310SOL    HW1  944   0.644   1.440   2.270
  310SOL    HW2  945   0.531   1.535   2.301
  311SOL     OW  946   0.254   1.343   2.143
  311SOL    HW1  947   0.159   1.342   2.128
  311SOL    HW2  948   0.264   1.383   2.230
  312SOL     OW  949   0.100   0.324   1.910
  312SOL    HW1  950   0.016   0.295   1.874
  312SOL    HW2  951   0.113   0.412   1.873
  313SOL     OW  952   0.012   0.216   2.141
  313SOL    HW1  953   0.061   0.262   2.073
  313SOL    HW2  954   0.066   0.140   2.163
  314SOL     OW  955   1.185   1.340   1.986
  314SOL    HW1  956   1.099   1.299   1.983
  314SOL    HW2  957   1.208   1.339   2.079
  315SOL     OW  958   1.507   1.780   2.833
  315SOL    HW1  959   1.518   1.828   2.751
  315SOL    HW2  960   1.590   1.794   2.879
  316SOL     OW  961   1.714   0.847   0.059
  316SOL    HW1  962   1.636   0.819   0.107
  316SOL    HW2  963   1.697   0.939   0.038
  317SOL     OW  964   1.222   0.317   2.319
  317SOL    HW1  965   1.283   0.244   2.317
  317SOL    HW2  966   1.247   0.368   2.396
  318SOL     OW  967   0.591   0.740   2.530
  318SOL    HW1  968   0.631   0.826   2.514
  318SOL    HW2  969   0.522   0.733   2.464
  319SOL     OW  970   0.846   1.378   1.892
  319SOL    HW1  971   0.820   1.379   1.984
  319SOL    HW2  972   0.888   1.463   1.879
  320SOL     OW  973   0.664   1.794   2.822
  320SOL    HW1  974   0.641   1.882   2.792
  320SOL    HW2  975   0.757   1.787   2.804
  321SOL     OW  976   0.862   0.966   2.715
  321SOL    HW1  977   0.913   0.894   2.752
  321SOL    HW2  978   0.832   1.016   2.791
  322SOL     OW  979   1.074   0.985   1.948
  322SOL    HW1  980   1.060   1.042   1.873
  322SOL    HW2  981   1.153   0.936   1.926
  323SOL     OW  982   1.851   1.558   2.717
  323SOL    HW1  983   1.779   1.544   2.656
  323SOL    HW2  984   1.864   1.473   2.759
  324SOL     OW  985   0.130   1.249   2.522
  324SOL    HW1  986   0.091   1.184   2.581
  324SOL    HW2  987   0.189   1.199   2.466
  325SOL     OW  988   1.809   0.186   0.082
  325SOL    HW1  989   1.833   0.101   0.118
  325SOL    HW2  990   1.828   0.179   2.989
  326SOL     OW  991   0.462   0.435   2.404
  326SOL    HW1  992   0.456   0.370   2.335
  326SOL    HW2  993   0.411   0.398   2.476
  327SOL     OW  994   0.819   1.584   2.537
  327SOL    HW1  995   0.814   1.630   2.453
  327SOL    HW2  996   0.744   1.524   2.536
  328SOL     OW  997   0.777   1.330   2.168
  328SOL    HW1  998   0.742   1.242   2.179
  328SOL    HW2  999   0.855   1.332   2.223
  329SOL     OW 1000   1.346   0.046   2.030
  329SOL    HW1 1001   1.413   2.984   2.001
  329SOL    HW2 1002   1.265   2.995   2.032
  330SOL     OW 1003   1.297   0.457   2.547
  330SOL    HW1 1004   1.243   0.535   2.554
  330SOL    HW2 1005   1.293   0.418   2.635
  331SOL     OW 1006   1.598   0.234   2.749
  331SOL    HW1 1007   1.508   0.235   2.780
  331SOL    HW2 1008   1.604   0.308   2.689
  332SOL     OW 1009   0.064   1.078   2.155
  332SOL    HW1 1010   0.153   1.043   2.161
  332SOL    HW2 1011   0.010   1.016   2.203
  333SOL     OW 1012   0.881   1.650   2.208
  333SOL    HW1 1013   0.810   1.634   2.146
  333SOL    HW2 1014   0.853   1.728   2.257
  334SOL     OW 1015   0.239   2.518   0.100
  334SOL    HW1 1016   0.170   2.473   0.149
  334SOL    HW2 1017   0.250   2.465   0.021
  335SOL     OW 1018   0.211   2.137   0.990
  335SOL    HW1 1019   0.244   2.106   1.075
  335SOL    HW2 1020   0.123   2.098   0.984
  336SOL     OW 1021   0.015   2.249   0.647
  336SOL    HW1 1022   2.929   2.285   0.668
  336SOL    HW2 1023   2.996   2.166   0.604
  337SOL     OW 1024   1.135   2.568   0.700
  337SOL    HW1 1025   1.180   2.653   0.694
  337SOL    HW2 1026   1.082   2.575   0.780
  338SOL     OW 1027   1.787   2.430   0.216
  338SOL    HW1 1028   1.736   2.458   0.140
  338SOL    HW2 1029   1.724   2.386   0.273
  339SOL     OW 1030   0.758   0.012   1.032
  339SOL    HW1 1031   0.679   0.049   1.072
  339SOL    HW2 1032   0.779   0.073   0.961
  340SOL     OW 1033   0.869   2.634   1.824
  340SOL    HW1 1034   0.846   2.698   1.891
  340SOL    HW2 1035   0.892   2.688   1.748
  341SOL     OW 1036   0.649   2.852   0.712
  341SOL    HW1 1037   0.744   2.856   0.724
  341SOL    HW2 1038   0.629   2.928   0.658
  342SOL     OW 1039   0.475   2.273   1.487
  342SOL    HW1 1040   0.545   2.208   1.490
  342SOL    HW2 1041   0.395   2.223   1.502
  343SOL     OW 1042   1.614   2.314   0.737
  343SOL    HW1 1043   1.531   2.335   0.693
  343SOL    HW2 1044   1.625   2.384   0.802
  344SOL     OW 1045   0.213   0.319   0.459
  344SOL    HW1 1046   0.215   0.387   0.527
  344SOL    HW2 1047   0.206   0.237   0.507
  345SOL     OW 1048   0.229   2.942   0.876
  345SOL    HW1 1049   0.259   2.861   0.919
  345SOL    HW2 1050   0.208   0.001   0.948
  346SOL     OW 1051   0.617   2.833   0.150
  346SOL    HW1 1052   0.599   2.925   0.132
  346SOL    HW2 1053   0.686   2.834   0.216
  347SOL     OW 1054   1.544   2.002   1.466
  347SOL    HW1 1055   1.604   2.049   1.408
  347SOL    HW2 1056   1.577   2.018   1.554
  348SOL     OW 1057   0.116   2.497   0.563
  348SOL    HW1 1058   0.095   2.411   0.601
  348SOL    HW2 1059   0.115   2.557   0.637
  349SOL     OW 1060   1.701   2.805   0.623
  349SOL    HW1 1061   1.779   2.751   0.636
  349SOL    HW2 1062   1.696   2.816   0.528
  350SOL     OW 1063   0.131   2.609   1.587
  350SOL    HW1 1064   0.226   2.623   1.590
  350SOL    HW2 1065   0.094   2.694   1.610
  351SOL     OW 1066   0.663   0.243   0.684
  351SOL    HW1 1067   0.597   0.179   0.712
  351SOL    HW2 1068   0.615   0.303   0.627
  352SOL     OW 1069   1.306   0.052   1.450
  352SOL    HW1 1070   1.321   2.992   1.376
  352SOL    HW2 1071   1.390   0.096   1.461
  353SOL     OW 1072   0.814   1.862   0.508
  353SOL    HW1 1073   0.853   1.948   0.493
  353SOL    HW2 1074   0.720   1.879   0.516
  354SOL     OW 1075   0.189   2.835   1.257
  354SOL    HW1 1076   0.273   2.789   1.249
  354SOL    HW2 1077   0.124   2.771   1.230
  355SOL     OW 1078   1.523   2.834   0.208
  355SOL    HW1 1079   1.452   2.796   0.259
  355SOL    HW2 1080   1.585   2.866   0.273
  356SOL     OW 1081   0.339   2.111   1.810
  356SOL    HW1 1082   0.384   2.193   1.830
  356SOL    HW2 1083   0.252   2.122   1.848
  357SOL     OW 1084   0.592   2.581   0.271
  357SOL    HW1 1085   0.594   2.662   0.220
  357SOL    HW2 1086   0.526   2.597   0.338
  358SOL     OW 1087   1.280   2.211   0.932
  358SOL    HW1 1088   1.191   2.178   0.942
  358SOL    HW2 1089   1.332   2.160   0.994
  359SOL     OW 1090   0.791   2.479   1.453
  359SOL    HW1 1091   0.765   2.456   1.542
  359SOL    HW2 1092   0.751   2.412   1.397
  360SOL     OW 1093   1.393   2.335   1.678
  360SOL    HW1 1094   1.398   2.378   1.763
  360SOL    HW2 1095   1.452   2.260   1.685
  361SOL     OW 1096   0.960   2.759   1.594
  361SOL    HW1 1097   1.012   2.688   1.555
  361SOL    HW2 1098   0.906   2.791   1.522
  362SOL     OW 1099   0.992   2.279   1.237
  362SOL    HW1 1100   0.906   2.297   1.277
  362SOL    HW2 1101   0.971   2.227   1.159
  363SOL     OW 1102   1.051   2.567   0.422
  363SOL    HW1 1103   1.065   2.560   0.517
  363SOL    HW2 1104   0.969   2.521   0.406
  364SOL     OW 1105   0.103   2.668   0.768
  364SOL    HW1 1106   0.179   2.675   0.826
  364SOL    HW2 1107   0.048   2.742   0.793
  365SOL     OW 1108   0.931   2.192   0.222
  365SOL    HW1 1109   0.936   2.255   0.150
  365SOL    HW2 1110   0.896   2.112   0.182
  366SOL     OW 1111   1.712   2.438   1.827
  366SOL    HW1 1112   1.672   2.511   1.779
  366SOL    HW2 1113   1.735   2.374   1.760
  367SOL     OW 1114   0.548   2.044   0.893
  367SOL    HW1 1115   0.552   2.073   0.984
  367SOL    HW2 1116   0.550   2.125   0.842
  368SOL     OW 1117   1.795   2.904   0.867
  368SOL    HW1 1118   1.738   2.890   0.790
  368SOL    HW2 1119   1.734   2.913   0.940
  369SOL     OW 1120   1.487   2.597   0.724
  369SOL    HW1 1121   1.464   2.551   0.804
  369SOL    HW2 1122   1.555   2.660   0.751
  370SOL     OW 1123   0.236   2.161   1.505
  370SOL    HW1 1124   0.156   2.208   1.480
  370SOL    HW2 1125   0.204   2.084   1.553
  371SOL     OW 1126   1.403   1.972   0.428
  371SOL    HW1 1127   1.387   1.949   0.337
  371SOL    HW2 1128   1.498   1.965   0.439
  372SOL     OW 1129   0.390   2.555   0.473
  372SOL    HW1 1130   0.411   2.463   0.485
  372SOL    HW2 1131   0.296   2.561   0.493
  373SOL     OW 1132   1.541   2.095   1.732
  373SOL    HW1 1133   1.542   2.112   1.826
  373SOL    HW2 1134   1.489   2.015   1.723
  374SOL     OW 1135   0.627   1.981   0.119
  374SOL    HW1 1136   0.721   1.963   0.118
  374SOL    HW2 1137   0.593   1.935   0.042
  375SOL     OW 1138   0.766   2.139   1.753
  375SOL    HW1 1139   0.841   2.080   1.756
  375SOL    HW2 1140   0.718   2.120   1.833
  376SOL     OW 1141   1.338   2.451   1.433
  376SOL    HW1 1142   1.370   2.415   1.516
  376SOL    HW2 1143   1.378   2.538   1.427
  377SOL     OW 1144   0.929   2.371   0.901
  377SOL    HW1 1145   0.905   2.361   0.809
  377SOL    HW2 1146   0.959   2.284   0.928
  378SOL     OW 1147   0.549   1.924   0.503
  378SOL    HW1 1148   0.468   1.926   0.554
  378SOL    HW2 1149   0.543   2.001   0.447
  379SOL     OW 1150   0.943   2.105   0.474
  379SOL    HW1 1151   0.921   2.141   0.388
  379SOL    HW2 1152   1.038   2.117   0.482
  380SOL     OW 1153   1.078   2.548   1.458
  380SOL    HW1 1154   1.009   2.482   1.467
  380SOL    HW2 1155   1.159   2.497   1.454
  381SOL     OW 1156   1.055   2.355   0.027
  381SOL    HW1 1157   1.005   2.436   0.020
  381SOL    HW2 1158   1.113   2.369   0.102
  382SOL     OW 1159   0.090   2.413   1.402
  382SOL    HW1 1160   0.174   2.420   1.358
  382SOL    HW2 1161   0.089   2.486   1.464
  383SOL     OW 1162   0.560   2.089   1.164
  383SOL    HW1 1163   0.599   2.010   1.202
  383SOL    HW2 1164   0.469   2.087   1.192
  384SOL     OW 1165   0.871   2.323   0.639
  384SOL    HW1 1166   0.819   2.376   0.578
  384SOL    HW2 1167   0.889   2.243   0.591
  385SOL     OW 1168   1.016   1.915   0.751
  385SOL    HW1 1169   0.955   1.908   0.677
  385SOL    HW2 1170   0.994   1.839   0.806
  386SOL     OW 1171   1.427   2.988   0.874
  386SOL    HW1 1172   1.361   2.934   0.830
  386SOL    HW2 1173   1.447   0.057   0.810
  387SOL     OW 1174   1.468   2.462   0.977
  387SOL    HW1 1175   1.416   2.382   0.985
  387SOL    HW2 1176   1.528   2.460   1.052
  388SOL     OW 1177   1.825   2.658   0.389
  388SOL    HW1 1178   1.889   2.615   0.445
  388SOL    HW2 1179   1.824   2.606   0.309
  389SOL     OW 1180   1.418   2.434   0.099
  389SOL    HW1 1181   1.346   2.429   0.162
  389SOL    HW2 1182   1.458   2.347   0.102
  390SOL     OW 1183   0.518   2.124   0.324
  390SOL    HW1 1184   0.558   2.074   0.252
  390SOL    HW2 1185   0.498   2.210   0.286
  391SOL     OW 1186   1.779   0.076   1.588
  391SOL    HW1 1187   1.868   0.043   1.574
  391SOL    HW2 1188   1.791   0.158   1.635
  392SOL     OW 1189   1.623   2.954   1.073
  392SOL    HW1 1190   1.637   0.038   1.117
  392SOL    HW2 1191   1.548   2.970   1.016
  393SOL     OW 1192   0.918   1.958   1.397
  393SOL    HW1 1193   0.940   1.940   1.306
  393SOL    HW2 1194   0.996   2.000   1.433
  394SOL     OW 1195   0.416   2.680   1.252
  394SOL    HW1 1196   0.485   2.686   1.318
  394SOL    HW2 1197   0.381   2.591   1.262
  395SOL     OW 1198   1.265   2.240   1.272
  395SOL    HW1 1199   1.298   2.316   1.321
  395SOL    HW2 1200   1.174   2.263   1.252
  396SOL     OW 1201   0.554   2.396   0.861
  396SOL    HW1 1202   0.570   2.451   0.784
  396SOL    HW2 1203   0.619   2.426   0.925
  397SOL     OW 1204   1.583   2.492   0.465
  397SOL    HW1 1205   1.538   2.530   0.540
  397SOL    HW2 1206   1.643   2.561   0.436
  398SOL     OW 1207   0.414   2.597   1.604
  398SOL    HW1 1208   0.471   2.646   1.545
  398SOL    HW2 1209   0.460   2.515   1.620
  399SOL     OW 1210   1.598   2.637   1.681
  399SOL    HW1 1211   1.511   2.677   1.674
  399SOL    HW2 1212   1.650   2.680   1.614
  400SOL     OW 1213   0.996   1.985   1.754
  400SOL    HW1 1214   1.051   2.058   1.727
  400SOL    HW2 1215   1.050   1.907   1.738
  401SOL     OW 1216   0.500   1.901   1.747
  401SOL    HW1 1217   0.458   1.846   1.681
  401SOL    HW2 1218   0.441   1.975   1.759
  402SOL     OW 1219   0.593   2.729   1.038
  402SOL    HW1 1220   0.596   2.821   1.011
  402SOL    HW2 1221   0.528   2.726   1.108
  403SOL     OW 1222   1.349   2.712   1.033
  403SOL    HW1 1223   1.277   2.704   0.969
  403SOL    HW2 1224   1.393   2.627   1.030
  404SOL     OW 1225   1.206   2.394   0.270
  404SOL    HW1 1226   1.209   2.311   0.317
  404SOL    HW2 1227   1.158   2.453   0.329
  405SOL     OW 1228   0.300   2.065   1.243
  405SOL    HW1 1229   0.280   2.094   1.332
  405SOL    HW2 1230   0.285   1.970   1.245
  406SOL     OW 1231   0.054   0.171   1.265
  406SOL    HW1 1232   0.080   0.137   1.351
  406SOL    HW2 1233   0.006   0.251   1.285
  407SOL     OW 1234   0.728   2.491   1.059
  407SOL    HW1 1235   0.799   2.477   0.997
  407SOL    HW2 1236   0.697   2.580   1.040
  408SOL     OW 1237   1.737   2.819   1.846
  408SOL    HW1 1238   1.690   2.757   1.789
  408SOL    HW2 1239   1.678   2.831   1.920
  409SOL     OW 1240   0.302   1.931   0.622
  409SOL    HW1 1241   0.286   2.021   0.648
  409SOL    HW2 1242   0.311   1.883   0.704
  410SOL     OW 1243   1.628   2.235   0.371
  410SOL    HW1 1244   1.642   2.172   0.442
  410SOL    HW2 1245   1.595   2.313   0.415
  411SOL     OW 1246   1.029   2.616   0.966
  411SOL    HW1 1247   1.027   2.632   1.060
  411SOL    HW2 1248   1.002   2.525   0.956
  412SOL     OW 1249   0.358   2.786   1.797
  412SOL    HW1 1250   0.419   2.782   1.870
  412SOL    HW2 1251   0.383   2.713   1.741
  413SOL     OW 1252   1.507   2.168   0.130
  413SOL    HW1 1253   1.465   2.082   0.139
  413SOL    HW2 1254   1.555   2.180   0.212
  414SOL     OW 1255   1.295   2.683   0.037
  414SOL    HW1 1256   1.336   2.597   0.048
  414SOL    HW2 1257   1.323   2.713   2.951
  415SOL     OW 1258   0.314   2.677   0.950
  415SOL    HW1 1259   0.407   2.684   0.934
  415SOL    HW2 1260   0.302   2.589   0.986
  416SOL     OW 1261   0.334   2.380   1.015
  416SOL    HW1 1262   0.294   2.295   0.994
  416SOL    HW2 1263   0.409   2.386   0.956
  417SOL     OW 1264   1.134   2.239   1.682
  417SOL    HW1 1265   1.088   2.295   1.745
  417SOL    HW2 1266   1.223   2.274   1.678
  418SOL     OW 1267   1.157   2.064   1.472
  418SOL    HW1 1268   1.150   2.129   1.542
  418SOL    HW2 1269   1.205   2.108   1.402
  419SOL     OW 1270   0.980   2.668   1.232
  419SOL    HW1 1271   1.036   2.639   1.304
  419SOL    HW2 1272   0.899   2.617   1.242
  420SOL     OW 1273   0.046   2.444   1.118
  420SOL    HW1 1274   0.120   2.399   1.078
  420SOL    HW2 1275   0.032   2.398   1.201
  421SOL     OW 1276   0.195   2.382   1.722
  421SOL    HW1 1277   0.265   2.351   1.664
  421SOL    HW2 1278   0.164   2.462   1.681
  422SOL     OW 1279   1.378   2.806   1.661
  422SOL    HW1 1280   1.397   2.900   1.655
  422SOL    HW2 1281   1.372   2.777   1.570
  423SOL     OW 1282   0.820   2.439   0.349
  423SOL    HW1 1283   0.817   2.361   0.293
  423SOL    HW2 1284   0.740   2.487   0.327
  424SOL     OW 1285   1.642   2.465   1.188
  424SOL    HW1 1286   1.631   2.404   1.261
  424SOL    HW2 1287   1.729   2.445   1.153
  425SOL     OW 1288   0.703   2.311   1.260
  425SOL    HW1 1289   0.648   2.238   1.230
  425SOL    HW2 1290   0.699   2.374   1.188
  426SOL     OW 1291   0.443   2.358   0.206
  426SOL    HW1 1292   0.512   2.422   0.224
  426SOL    HW2 1293   0.366   2.411   0.185
  427SOL     OW 1294   0.157   0.010   1.468
  427SOL    HW1 1295   0.145   2.958   1.548
  427SOL    HW2 1296   0.171   2.946   1.399
  428SOL     OW 1297   1.345   2.907   1.220
  428SOL    HW1 1298   1.363   2.844   1.151
  428SOL    HW2 1299   1.282   2.968   1.182
  429SOL     OW 1300   1.298   2.722   0.316
  429SOL    HW1 1301   1.227   2.676   0.360
  429SOL    HW2 1302   1.287   2.701   0.223
  430SOL     OW 1303   0.899   1.936   0.122
  430SOL    HW1 1304   0.955   1.914   0.047
  430SOL    HW2 1305   0.943   1.897   0.197
  431SOL     OW 1306   1.735   1.995   0.511
  431SOL    HW1 1307   1.772   1.927   0.455
  431SOL    HW2 1308   1.693   1.948   0.583
  432SOL     OW 1309   1.296   2.795   0.684
  432SOL    HW1 1310   1.364   2.728   0.678
  432SOL    HW2 1311   1.305   2.845   0.603
  433SOL     OW 1312   1.840   2.035   0.968
  433SOL    HW1 1313   1.871   1.947   0.947
  433SOL    HW2 1314   1.752   2.040   0.930
  434SOL     OW 1315   0.267   2.179   0.723
  434SOL    HW1 1316   0.183   2.217   0.696
  434SOL    HW2 1317   0.259   2.167   0.817
  435SOL     OW 1318   0.814   2.858   1.376
  435SOL    HW1 1319   0.869   2.831   1.303
  435SOL    HW2 1320   0.834   2.950   1.389
  436SOL     OW 1321   0.899   2.793   0.282
  436SOL    HW1 1322   0.981   2.823   0.242
  436SOL    HW2 1323   0.926   2.747   0.362
  437SOL     OW 1324   1.020   2.102   0.965
  437SOL    HW1 1325   1.016   2.054   0.883
  437SOL    HW2 1326   1.016   2.035   1.033
  438SOL     OW 1327   1.723   2.255   1.378
  438SOL    HW1 1328   1.797   2.315   1.377
  438SOL    HW2 1329   1.751   2.181   1.324
  439SOL     OW 1330   0.119   2.865   1.693
  439SOL    HW1 1331   0.050   2.847   1.757
  439SOL    HW2 1332   0.200   2.851   1.741
  440SOL     OW 1333   0.675   2.058   1.498
  440SOL    HW1 1334   0.759   2.038   1.458
  440SOL    HW2 1335   0.697   2.087   1.587
  441SOL     OW 1336   0.049   2.163   0.056
  441SOL    HW1 1337   2.967   2.205   0.029
  441SOL    HW2 1338   0.118   2.221   0.023
  442SOL     OW 1339   1.434   2.718   1.404
  442SOL    HW1 1340   1.391   2.777   1.342
  442SOL    HW2 1341   1.526   2.718   1.378
  443SOL     OW 1342   0.059   2.061   0.320
  443SOL    HW1 1343   0.048   2.098   0.232
  443SOL    HW2 1344   0.122   1.990   0.309
  444SOL     OW 1345   1.139   0.209   0.093
  444SOL    HW1 1346   1.071   0.258   0.139
  444SOL    HW2 1347   1.218   0.221   0.147
  445SOL     OW 1348   0.613   2.689   1.436
  445SOL    HW1 1349   0.670   2.763   1.420
  445SOL    HW2 1350   0.672   2.614   1.445
  446SOL     OW 1351   0.717   2.427   1.706
  446SOL    HW1 1352   0.758   2.489   1.765
  446SOL    HW2 1353   0.747   2.341   1.736
  447SOL     OW 1354   1.676   2.745   1.254
  447SOL    HW1 1355   1.667   2.658   1.215
  447SOL    HW2 1356   1.657   2.805   1.181
  448SOL     OW 1357   1.221   2.182   0.460
  448SOL    HW1 1358   1.284   2.111   0.451
  448SOL    HW2 1359   1.251   2.230   0.538
  449SOL     OW 1360   0.592   2.587   0.666
  449SOL    HW1 1361   0.614   2.679   0.677
  449SOL    HW2 1362   0.524   2.586   0.598
  450SOL     OW 1363   1.763   2.227   1.649
  450SOL    HW1 1364   1.743   2.239   1.556
  450SOL    HW2 1365   1.692   2.171   1.681
  451SOL     OW 1366   1.733   2.796   1.515
  451SOL    HW1 1367   1.748   2.889   1.534
  451SOL    HW2 1368   1.727   2.792   1.420
  452SOL     OW 1369   0.891   2.830   0.862
  452SOL    HW1 1370   0.928   2.750   0.898
  452SOL    HW2 1371   0.827   2.858   0.928
  453SOL     OW 1372   1.110   2.885   0.087
  453SOL    HW1 1373   1.062   2.888   0.004
  453SOL    HW2 1374   1.172   2.813   0.076
  454SOL     OW 1375   1.808   2.037   1.245
  454SOL    HW1 1376   1.796   1.944   1.266
  454SOL    HW2 1377   1.823   2.038   1.151
  455SOL     OW 1378   0.429   2.296   0.528
  455SOL    HW1 1379   0.460   2.225   0.471
  455SOL    HW2 1380   0.384   2.251   0.600
  456SOL     OW 1381   0.337   2.419   1.290
  456SOL    HW1 1382   0.396   2.366   1.342
  456SOL    HW2 1383   0.350   2.390   1.200
  457SOL     OW 1384   1.435   2.085   1.117
  457SOL    HW1 1385   1.467   2.007   1.162
  457SOL    HW2 1386   1.385   2.132   1.183
  458SOL     OW 1387   1.009   1.881   1.143
  458SOL    HW1 1388   0.956   1.813   1.101
  458SOL    HW2 1389   1.097   1.845   1.146
  459SOL     OW 1390   1.355   1.914   0.162
  459SOL    HW1 1391   1.380   1.863   0.085
  459SOL    HW2 1392   1.268   1.881   0.187
  460SOL     OW 1393   1.303   2.325   0.685
  460SOL    HW1 1394   1.245   2.401   0.690
  460SOL    HW2 1395   1.295   2.282   0.770
  461SOL     OW 1396   1.586   2.065   0.872
  461SOL    HW1 1397   1.528   2.076   0.947
  461SOL    HW2 1398   1.583   2.149   0.826
  462SOL     OW 1399   2.997   2.880   0.285
  462SOL    HW1 1400   0.077   2.919   0.250
  462SOL    HW2 1401   0.020   2.852   0.374
  463SOL     OW 1402   0.234   2.500   1.973
  463SOL    HW1 1403   0.166   2.458   2.024
  463SOL    HW2 1404   0.223   2.467   1.884
  464SOL     OW 1405   0.234   2.126   2.838
  464SOL    HW1 1406   0.272   2.100   2.921
  464SOL    HW2 1407   0.149   2.082   2.835
  465SOL     OW 1408   0.014   2.248   2.507
  465SOL    HW1 1409   2.928   2.284   2.529
  465SOL    HW2 1410   2.996   2.162   2.468
  466SOL     OW 1411   1.138   2.568   2.564
  466SOL    HW1 1412   1.183   2.652   2.555
  466SOL    HW2 1413   1.085   2.578   2.643
  467SOL     OW 1414   1.761   2.465   2.091
  467SOL    HW1 1415   1.745   2.458   1.997
  467SOL    HW2 1416   1.730   2.381   2.127
  468SOL     OW 1417   0.775   0.011   2.872
  468SOL    HW1 1418   0.685   0.031   2.895
  468SOL    HW2 1419   0.804   0.087   2.821
  469SOL     OW 1420   0.647   2.849   2.573
  469SOL    HW1 1421   0.741   2.848   2.592
  469SOL    HW2 1422   0.634   2.928   2.520
  470SOL     OW 1423   1.617   2.310   2.595
  470SOL    HW1 1424   1.543   2.333   2.538
  470SOL    HW2 1425   1.615   2.377   2.664
  471SOL     OW 1426   0.209   0.316   2.321
  471SOL    HW1 1427   0.222   0.385   2.386
  471SOL    HW2 1428   0.210   0.235   2.372
  472SOL     OW 1429   0.231   2.944   2.743
  472SOL    HW1 1430   0.258   2.859   2.777
  472SOL    HW2 1431   0.216   2.997   2.821
  473SOL     OW 1432   0.604   2.823   1.995
  473SOL    HW1 1433   0.593   2.907   1.951
  473SOL    HW2 1434   0.671   2.838   2.061
  474SOL     OW 1435   0.120   2.495   2.424
  474SOL    HW1 1436   0.097   2.411   2.463
  474SOL    HW2 1437   0.120   2.557   2.496
  475SOL     OW 1438   1.702   2.804   2.484
  475SOL    HW1 1439   1.781   2.751   2.497
  475SOL    HW2 1440   1.695   2.814   2.389
  476SOL     OW 1441   0.618   0.237   2.577
  476SOL    HW1 1442   0.596   0.159   2.527
  476SOL    HW2 1443   0.618   0.308   2.512
  477SOL     OW 1444   0.814   1.863   2.370
  477SOL    HW1 1445   0.854   1.947   2.350
  477SOL    HW2 1446   0.721   1.882   2.379
  478SOL     OW 1447   0.217   2.805   0.104
  478SOL    HW1 1448   0.274   2.728   0.099
  478SOL    HW2 1449   0.129   2.770   0.092
  479SOL     OW 1450   1.537   2.844   2.047
  479SOL    HW1 1451   1.470   2.788   2.088
  479SOL    HW2 1452   1.597   2.866   2.119
  480SOL     OW 1453   0.597   2.578   2.129
  480SOL    HW1 1454   0.599   2.657   2.075
  480SOL    HW2 1455   0.532   2.596   2.197
  481SOL     OW 1456   1.300   2.200   2.810
  481SOL    HW1 1457   1.207   2.182   2.800
  481SOL    HW2 1458   1.321   2.167   2.898
  482SOL     OW 1459   1.052   2.563   2.288
  482SOL    HW1 1460   1.065   2.557   2.383
  482SOL    HW2 1461   0.970   2.517   2.272
  483SOL     OW 1462   0.107   2.670   2.625
  483SOL    HW1 1463   0.183   2.673   2.684
  483SOL    HW2 1464   0.046   2.734   2.660
  484SOL     OW 1465   0.891   2.209   2.056
  484SOL    HW1 1466   0.932   2.271   1.995
  484SOL    HW2 1467   0.909   2.123   2.018
  485SOL     OW 1468   0.551   2.046   2.769
  485SOL    HW1 1469   0.515   2.084   2.849
  485SOL    HW2 1470   0.561   2.120   2.709
  486SOL     OW 1471   1.797   2.906   2.729
  486SOL    HW1 1472   1.740   2.889   2.653
  486SOL    HW2 1473   1.736   2.913   2.803
  487SOL     OW 1474   1.484   2.605   2.584
  487SOL    HW1 1475   1.469   2.551   2.662
  487SOL    HW2 1476   1.560   2.659   2.607
  488SOL     OW 1477   1.400   1.970   2.292
  488SOL    HW1 1478   1.387   1.945   2.201
  488SOL    HW2 1479   1.495   1.974   2.303
  489SOL     OW 1480   0.397   2.555   2.334
  489SOL    HW1 1481   0.412   2.462   2.349
  489SOL    HW2 1482   0.304   2.568   2.354
  490SOL     OW 1483   0.633   1.987   1.967
  490SOL    HW1 1484   0.704   1.923   1.980
  490SOL    HW2 1485   0.585   1.953   1.892
  491SOL     OW 1486   0.923   2.381   2.756
  491SOL    HW1 1487   0.902   2.359   2.665
  491SOL    HW2 1488   0.959   2.301   2.793
  492SOL     OW 1489   0.550   1.926   2.366
  492SOL    HW1 1490   0.468   1.926   2.415
  492SOL    HW2 1491   0.544   2.003   2.310
  493SOL     OW 1492   0.289   1.905   2.043
  493SOL    HW1 1493   0.348   1.974   2.012
  493SOL    HW2 1494   0.346   1.842   2.086
  494SOL     OW 1495   0.938   2.107   2.322
  494SOL    HW1 1496   0.910   2.149   2.240
  494SOL    HW2 1497   1.032   2.121   2.325
  495SOL     OW 1498   1.024   2.404   1.884
  495SOL    HW1 1499   0.980   2.487   1.864
  495SOL    HW2 1500   1.089   2.427   1.951
  496SOL     OW 1501   0.868   2.318   2.498
  496SOL    HW1 1502   0.821   2.375   2.437
  496SOL    HW2 1503   0.888   2.239   2.447
  497SOL     OW 1504   1.011   1.911   2.611
  497SOL    HW1 1505   0.955   1.904   2.534
  497SOL    HW2 1506   0.992   1.833   2.662
  498SOL     OW 1507   1.422   2.992   2.737
  498SOL    HW1 1508   1.355   2.938   2.694
  498SOL    HW2 1509   1.449   0.054   2.669
  499SOL     OW 1510   1.484   2.448   2.818
  499SOL    HW1 1511   1.421   2.376   2.820
  499SOL    HW2 1512   1.500   2.468   2.910
  500SOL     OW 1513   1.835   2.665   2.253
  500SOL    HW1 1514   1.897   2.617   2.308
  500SOL    HW2 1515   1.813   2.604   2.183
  501SOL     OW 1516   1.395   2.435   1.935
  501SOL    HW1 1517   1.335   2.413   2.006
  501SOL    HW2 1518   1.478   2.395   1.961
  502SOL     OW 1519   0.527   2.124   2.180
  502SOL    HW1 1520   0.569   2.076   2.109
  502SOL    HW2 1521   0.505   2.209   2.142
  503SOL     OW 1522   1.625   2.966   2.933
  503SOL    HW1 1523   1.630   0.045   2.987
  503SOL    HW2 1524   1.550   2.980   2.876
  504SOL     OW 1525   0.551   2.393   2.726
  504SOL    HW1 1526   0.566   2.449   2.650
  504SOL    HW2 1527   0.614   2.425   2.791
  505SOL     OW 1528   1.579   2.483   2.339
  505SOL    HW1 1529   1.538   2.541   2.403
  505SOL    HW2 1530   1.632   2.541   2.285
  506SOL     OW 1531   0.576   2.727   2.886
  506SOL    HW1 1532   0.611   2.806   2.844
  506SOL    HW2 1533   0.569   2.751   2.979
  507SOL     OW 1534   1.205   2.392   2.131
  507SOL    HW1 1535   1.214   2.313   2.184
  507SOL    HW2 1536   1.160   2.454   2.187
  508SOL     OW 1537   0.328   2.061   0.078
  508SOL    HW1 1538   0.326   2.101   0.165
  508SOL    HW2 1539   0.307   1.969   0.092
  509SOL     OW 1540   0.728   2.499   2.913
  509SOL    HW1 1541   0.797   2.481   2.849
  509SOL    HW2 1542   0.693   2.584   2.887
  510SOL     OW 1543   0.303   1.930   2.482
  510SOL    HW1 1544   0.285   2.021   2.508
  510SOL    HW2 1545   0.309   1.883   2.565
  511SOL     OW 1546   1.616   2.233   2.232
  511SOL    HW1 1547   1.644   2.171   2.299
  511SOL    HW2 1548   1.593   2.312   2.281
  512SOL     OW 1549   1.026   2.619   2.823
  512SOL    HW1 1550   1.026   2.623   2.919
  512SOL    HW2 1551   0.996   2.531   2.802
  513SOL     OW 1552   1.524   2.141   1.993
  513SOL    HW1 1553   1.465   2.069   2.015
  513SOL    HW2 1554   1.559   2.170   2.077
  514SOL     OW 1555   1.292   2.686   1.895
  514SOL    HW1 1556   1.333   2.600   1.899
  514SOL    HW2 1557   1.324   2.724   1.813
  515SOL     OW 1558   0.312   2.675   2.809
  515SOL    HW1 1559   0.406   2.691   2.813
  515SOL    HW2 1560   0.301   2.586   2.842
  516SOL     OW 1561   0.318   2.387   2.868
  516SOL    HW1 1562   0.287   2.298   2.852
  516SOL    HW2 1563   0.399   2.394   2.816
  517SOL     OW 1564   0.979   2.610   0.089
  517SOL    HW1 1565   1.023   2.605   0.174
  517SOL    HW2 1566   0.891   2.639   0.109
  518SOL     OW 1567   0.818   2.432   2.220
  518SOL    HW1 1568   0.819   2.357   2.160
  518SOL    HW2 1569   0.743   2.484   2.191
  519SOL     OW 1570   0.706   2.308   0.100
  519SOL    HW1 1571   0.616   2.275   0.094
  519SOL    HW2 1572   0.708   2.381   0.037
  520SOL     OW 1573   0.463   2.355   2.048
  520SOL    HW1 1574   0.526   2.423   2.070
  520SOL    HW2 1575   0.380   2.401   2.038
  521SOL     OW 1576   1.304   2.725   2.171
  521SOL    HW1 1577   1.232   2.684   2.218
  521SOL    HW2 1578   1.288   2.703   2.079
  522SOL     OW 1579   1.721   2.007   2.376
  522SOL    HW1 1580   1.792   1.993   2.312
  522SOL    HW2 1581   1.705   1.920   2.412
  523SOL     OW 1582   1.296   2.800   2.545
  523SOL    HW1 1583   1.362   2.731   2.545
  523SOL    HW2 1584   1.304   2.842   2.460
  524SOL     OW 1585   1.841   2.044   2.835
  524SOL    HW1 1586   1.869   1.957   2.805
  524SOL    HW2 1587   1.752   2.054   2.799
  525SOL     OW 1588   0.269   2.180   2.576
  525SOL    HW1 1589   0.184   2.218   2.554
  525SOL    HW2 1590   0.266   2.167   2.671
  526SOL     OW 1591   0.902   2.763   2.109
  526SOL    HW1 1592   0.979   2.810   2.079
  526SOL    HW2 1593   0.933   2.713   2.185
  527SOL     OW 1594   1.039   2.108   2.802
  527SOL    HW1 1595   1.026   2.050   2.727
  527SOL    HW2 1596   0.999   2.061   2.875
  528SOL     OW 1597   0.093   2.177   1.919
  528SOL    HW1 1598   0.012   2.147   1.879
  528SOL    HW2 1599   0.104   2.267   1.885
  529SOL     OW 1600   0.063   2.062   2.176
  529SOL    HW1 1601   0.071   2.107   2.092
  529SOL    HW2 1602   0.129   1.992   2.172
  530SOL     OW 1603   1.119   0.232   2.011
  530SOL    HW1 1604   1.108   0.157   1.952
  530SOL    HW2 1605   1.208   0.223   2.045
  531SOL     OW 1606   1.725   2.701   0.058
  531SOL    HW1 1607   1.641   2.679   0.099
  531SOL    HW2 1608   1.717   2.793   0.034
  532SOL     OW 1609   1.217   2.182   2.320
  532SOL    HW1 1610   1.280   2.110   2.309
  532SOL    HW2 1611   1.248   2.229   2.398
  533SOL     OW 1612   0.594   2.583   2.529
  533SOL    HW1 1613   0.615   2.676   2.541
  533SOL    HW2 1614   0.527   2.583   2.461
  534SOL     OW 1615   0.886   2.823   2.713
  534SOL    HW1 1616   0.930   2.749   2.755
  534SOL    HW2 1617   0.846   2.872   2.785
  535SOL     OW 1618   1.107   2.878   1.954
  535SOL    HW1 1619   1.062   2.902   1.872
  535SOL    HW2 1620   1.162   2.803   1.930
  536SOL     OW 1621   1.828   2.021   0.109
  536SOL    HW1 1622   1.781   1.937   0.103
  536SOL    HW2 1623   1.833   2.052   0.018
  537SOL     OW 1624   0.426   2.294   2.382
  537SOL    HW1 1625   0.459   2.221   2.329
  537SOL    HW2 1626   0.382   2.252   2.456
  538SOL     OW 1627   1.357   1.913   2.027
  538SOL    HW1 1628   1.399   1.842   1.978
  538SOL    HW2 1629   1.269   1.882   2.044
  539SOL     OW 1630   1.299   2.321   2.548
  539SOL    HW1 1631   1.244   2.399   2.555
  539SOL    HW2 1632   1.295   2.281   2.636
  540SOL     OW 1633   1.585   2.079   2.743
  540SOL    HW1 1634   1.494   2.093   2.772
  540SOL    HW2 1635   1.600   2.149   2.679
  541SOL     OW 1636   0.017   2.932   2.156
  541SOL    HW1 1637   0.111   2.927   2.138
  541SOL    HW2 1638   0.004   2.875   2.232
  542SOL     OW 1639   2.093   0.636   0.123
  542SOL    HW1 1640   1.998   0.630   0.136
  542SOL    HW2 1641   2.106   0.607   0.032
  543SOL     OW 1642   2.080   0.286   1.009
  543SOL    HW1 1643   2.110   0.250   1.092
  543SOL    HW2 1644   1.995   0.243   0.994
  544SOL     OW 1645   1.865   0.382   0.642
  544SOL    HW1 1646   1.784   0.409   0.684
  544SOL    HW2 1647   1.840   0.307   0.588
  545SOL     OW 1648   2.427   1.284   1.172
  545SOL    HW1 1649   2.339   1.291   1.136
  545SOL    HW2 1650   2.445   1.371   1.209
  546SOL     OW 1651   2.615   1.142   1.037
  546SOL    HW1 1652   2.547   1.177   1.095
  546SOL    HW2 1653   2.655   1.220   0.998
  547SOL     OW 1654   2.721   0.774   1.817
  547SOL    HW1 1655   2.713   0.844   1.882
  547SOL    HW2 1656   2.747   0.820   1.736
  548SOL     OW 1657   2.546   1.005   0.649
  548SOL    HW1 1658   2.608   0.990   0.720
  548SOL    HW2 1659   2.476   1.057   0.689
  549SOL     OW 1660   2.570   1.153   1.812
  549SOL    HW1 1661   2.617   1.233   1.837
  549SOL    HW2 1662   2.487   1.184   1.776
  550SOL     OW 1663   2.196   1.422   1.068
  550SOL    HW1 1664   2.119   1.390   1.021
  550SOL    HW2 1665   2.242   1.476   1.004
  551SOL     OW 1666   2.315   0.402   1.485
  551SOL    HW1 1667   2.389   0.341   1.492
  551SOL    HW2 1668   2.238   0.348   1.502
  552SOL     OW 1669   2.083   1.723   0.463
  552SOL    HW1 1670   2.106   1.793   0.523
  552SOL    HW2 1671   2.164   1.706   0.413
  553SOL     OW 1672   2.980   1.348   1.688
  553SOL    HW1 1673   0.034   1.346   1.767
  553SOL    HW2 1674   2.935   1.263   1.689
  554SOL     OW 1675   2.077   1.444   0.533
  554SOL    HW1 1676   2.066   1.538   0.552
  554SOL    HW2 1677   2.027   1.399   0.600
  555SOL     OW 1678   2.116   1.089   0.888
  555SOL    HW1 1679   2.115   1.005   0.933
  555SOL    HW2 1680   2.062   1.146   0.943
  556SOL     OW 1681   2.478   1.788   1.435
  556SOL    HW1 1682   2.393   1.770   1.475
  556SOL    HW2 1683   2.495   1.880   1.456
  557SOL     OW 1684   2.452   0.979   0.148
  557SOL    HW1 1685   2.482   1.047   0.088
  557SOL    HW2 1686   2.486   1.005   0.234
  558SOL     OW 1687   1.980   0.646   0.563
  558SOL    HW1 1688   1.936   0.565   0.588
  558SOL    HW2 1689   1.973   0.702   0.640
  559SOL     OW 1690   1.876   1.588   0.126
  559SOL    HW1 1691   1.890   1.494   0.137
  559SOL    HW2 1692   1.872   1.622   0.216
  560SOL     OW 1693   1.984   0.743   1.585
  560SOL    HW1 1694   2.076   0.769   1.595
  560SOL    HW2 1695   1.935   0.824   1.596
  561SOL     OW 1696   2.476   1.384   0.735
  561SOL    HW1 1697   2.429   1.301   0.745
  561SOL    HW2 1698   2.459   1.411   0.645
  562SOL     OW 1699   2.682   0.015   0.520
  562SOL    HW1 1700   2.710   0.105   0.502
  562SOL    HW2 1701   2.588   0.015   0.502
  563SOL     OW 1702   2.053   0.967   1.269
  563SOL    HW1 1703   2.138   0.924   1.254
  563SOL    HW2 1704   1.989   0.909   1.228
  564SOL     OW 1705   2.188   0.253   1.804
  564SOL    HW1 1706   2.236   0.333   1.826
  564SOL    HW2 1707   2.101   0.266   1.842
  565SOL     OW 1708   2.452   0.721   0.267
  565SOL    HW1 1709   2.456   0.804   0.220
  565SOL    HW2 1710   2.389   0.737   0.338
  566SOL     OW 1711   2.655   0.628   1.452
  566SOL    HW1 1712   2.630   0.601   1.540
  566SOL    HW2 1713   2.618   0.561   1.394
  567SOL     OW 1714   2.828   0.881   1.574
  567SOL    HW1 1715   2.852   0.794   1.540
  567SOL    HW2 1716   2.781   0.923   1.502
  568SOL     OW 1717   2.846   0.371   1.261
  568SOL    HW1 1718   2.770   0.422   1.288
  568SOL    HW2 1719   2.846   0.377   1.165
  569SOL     OW 1720   2.892   0.717   0.406
  569SOL    HW1 1721   2.932   0.699   0.492
  569SOL    HW2 1722   2.816   0.658   0.403
  570SOL     OW 1723   1.952   0.821   0.773
  570SOL    HW1 1724   2.032   0.813   0.825
  570SOL    HW2 1725   1.908   0.899   0.808
  571SOL     OW 1726   1.988   1.853   1.576
  571SOL    HW1 1727   1.982   1.830   1.668
  571SOL    HW2 1728   1.905   1.823   1.538
  572SOL     OW 1729   2.778   0.344   0.220
  572SOL    HW1 1730   2.759   0.395   0.141
  572SOL    HW2 1731   2.772   0.253   0.192
  573SOL     OW 1732   2.383   0.202   0.908
  573SOL    HW1 1733   2.397   0.212   1.002
  573SOL    HW2 1734   2.401   0.289   0.872
  574SOL     OW 1735   2.856   1.438   0.467
  574SOL    HW1 1736   2.827   1.517   0.421
  574SOL    HW2 1737   2.859   1.464   0.559
  575SOL     OW 1738   2.222   1.804   0.849
  575SOL    HW1 1739   2.263   1.719   0.865
  575SOL    HW2 1740   2.286   1.868   0.879
  576SOL     OW 1741   2.179   0.953   0.244
  576SOL    HW1 1742   2.263   0.968   0.200
  576SOL    HW2 1743   2.151   0.867   0.213
  577SOL     OW 1744   2.327   1.260   1.736
  577SOL    HW1 1745   2.299   1.267   1.644
  577SOL    HW2 1746   2.245   1.262   1.786
  578SOL     OW 1747   2.064   0.295   1.498
  578SOL    HW1 1748   1.981   0.343   1.501
  578SOL    HW2 1749   2.051   0.222   1.559
  579SOL     OW 1750   2.328   1.725   0.329
  579SOL    HW1 1751   2.365   1.791   0.388
  579SOL    HW2 1752   2.398   1.705   0.267
  580SOL     OW 1753   2.134   1.796   1.230
  580SOL    HW1 1754   2.177   1.723   1.274
  580SOL    HW2 1755   2.087   1.756   1.157
  581SOL     OW 1756   2.800   1.696   0.899
  581SOL    HW1 1757   2.861   1.628   0.929
  581SOL    HW2 1758   2.752   1.655   0.827
  582SOL     OW 1759   2.258   0.689   0.476
  582SOL    HW1 1760   2.287   0.600   0.495
  582SOL    HW2 1761   2.164   0.688   0.495
  583SOL     OW 1762   2.478   0.109   0.104
  583SOL    HW1 1763   2.573   0.114   0.117
  583SOL    HW2 1764   2.463   0.154   0.021
  584SOL     OW 1765   2.631   0.278   1.753
  584SOL    HW1 1766   2.702   0.215   1.765
  584SOL    HW2 1767   2.581   0.273   1.834
  585SOL     OW 1768   2.743   1.517   1.193
  585SOL    HW1 1769   2.719   1.482   1.107
  585SOL    HW2 1770   2.805   1.454   1.229
  586SOL     OW 1771   2.670   1.402   0.941
  586SOL    HW1 1772   2.753   1.388   0.896
  586SOL    HW2 1773   2.604   1.397   0.872
  587SOL     OW 1774   2.785   0.504   0.906
  587SOL    HW1 1775   2.758   0.494   0.814
  587SOL    HW2 1776   2.824   0.420   0.929
  588SOL     OW 1777   2.401   0.043   0.494
  588SOL    HW1 1778   2.316   0.037   0.538
  588SOL    HW2 1779   2.395   0.124   0.443
  589SOL     OW 1780   0.322   1.151   0.043
  589SOL    HW1 1781   0.309   1.096   0.121
  589SOL    HW2 1782   0.257   1.221   0.052
  590SOL     OW 1783   2.158   0.092   0.185
  590SOL    HW1 1784   2.241   0.135   0.204
  590SOL    HW2 1785   2.176   2.999   0.194
  591SOL     OW 1786   2.831   0.246   0.466
  591SOL    HW1 1787   2.789   0.298   0.397
  591SOL    HW2 1788   2.906   0.205   0.424
  592SOL     OW 1789   0.085   1.583   0.797
  592SOL    HW1 1790   0.110   1.621   0.713
  592SOL    HW2 1791   0.167   1.549   0.833
  593SOL     OW 1792   2.329   1.149   0.733
  593SOL    HW1 1793   2.260   1.130   0.797
  593SOL    HW2 1794   2.288   1.133   0.648
  594SOL     OW 1795   2.895   0.508   0.024
  594SOL    HW1 1796   2.844   0.589   0.012
  594SOL    HW2 1797   2.942   0.521   0.106
  595SOL     OW 1798   1.938   0.556   1.392
  595SOL    HW1 1799   2.030   0.553   1.365
  595SOL    HW2 1800   1.933   0.626   1.456
  596SOL     OW 1801   2.427   0.212   1.182
  596SOL    HW1 1802   2.465   0.173   1.261
  596SOL    HW2 1803   2.333   0.220   1.202
  597SOL     OW 1804   2.743   0.469   0.636
  597SOL    HW1 1805   2.677   0.520   0.589
  597SOL    HW2 1806   2.732   0.379   0.604
  598SOL     OW 1807   2.860   0.060   0.760
  598SOL    HW1 1808   2.821   0.063   0.672
  598SOL    HW2 1809   2.835   2.974   0.794
  599SOL     OW 1810   2.353   1.403   0.150
  599SOL    HW1 1811   2.288   1.372   0.214
  599SOL    HW2 1812   2.303   1.411   0.068
  600SOL     OW 1813   2.390   0.259   0.321
  600SOL    HW1 1814   2.437   0.214   0.251
  600SOL    HW2 1815   2.362   0.342   0.283
  601SOL     OW 1816   2.778   0.115   1.400
  601SOL    HW1 1817   2.804   0.100   1.309
  601SOL    HW2 1818   2.836   0.184   1.431
  602SOL     OW 1819   2.840   1.109   1.731
  602SOL    HW1 1820   2.747   1.131   1.742
  602SOL    HW2 1821   2.840   1.042   1.662
  603SOL     OW 1822   2.563   1.064   0.380
  603SOL    HW1 1823   2.549   1.048   0.473
  603SOL    HW2 1824   2.648   1.023   0.361
  604SOL     OW 1825   2.280   0.813   1.250
  604SOL    HW1 1826   2.347   0.825   1.317
  604SOL    HW2 1827   2.244   0.726   1.268
  605SOL     OW 1828   1.944   1.559   1.355
  605SOL    HW1 1829   1.887   1.629   1.324
  605SOL    HW2 1830   2.033   1.592   1.338
  606SOL     OW 1831   2.212   1.110   0.488
  606SOL    HW1 1832   2.212   1.184   0.427
  606SOL    HW2 1833   2.209   1.033   0.432
  607SOL     OW 1834   2.417   0.540   0.863
  607SOL    HW1 1835   2.433   0.595   0.786
  607SOL    HW2 1836   2.483   0.568   0.927
  608SOL     OW 1837   2.219   1.534   1.312
  608SOL    HW1 1838   2.201   1.485   1.232
  608SOL    HW2 1839   2.315   1.540   1.316
  609SOL     OW 1840   2.276   0.745   1.602
  609SOL    HW1 1841   2.336   0.792   1.544
  609SOL    HW2 1842   2.317   0.660   1.616
  610SOL     OW 1843   2.865   0.119   1.761
  610SOL    HW1 1844   2.902   0.193   1.713
  610SOL    HW2 1845   2.899   0.042   1.716
  611SOL     OW 1846   2.367   0.055   1.748
  611SOL    HW1 1847   2.330   2.986   1.694
  611SOL    HW2 1848   2.296   0.119   1.757
  612SOL     OW 1849   2.442   0.875   1.030
  612SOL    HW1 1850   2.475   0.964   1.031
  612SOL    HW2 1851   2.388   0.868   1.109
  613SOL     OW 1852   0.063   0.531   0.267
  613SOL    HW1 1853   0.087   0.449   0.311
  613SOL    HW2 1854   0.035   0.589   0.338
  614SOL     OW 1855   2.159   0.195   1.254
  614SOL    HW1 1856   2.128   0.239   1.333
  614SOL    HW2 1857   2.138   0.103   1.268
  615SOL     OW 1858   1.902   1.303   1.273
  615SOL    HW1 1859   1.934   1.253   1.348
  615SOL    HW2 1860   1.904   1.394   1.301
  616SOL     OW 1861   2.588   0.634   1.059
  616SOL    HW1 1862   2.666   0.619   1.005
  616SOL    HW2 1863   2.561   0.723   1.037
  617SOL     OW 1864   2.168   0.065   0.642
  617SOL    HW1 1865   2.172   0.155   0.673
  617SOL    HW2 1866   2.152   0.013   0.720
  618SOL     OW 1867   2.868   0.770   0.971
  618SOL    HW1 1868   2.894   0.775   1.063
  618SOL    HW2 1869   2.874   0.677   0.950
  619SOL     OW 1870   2.830   1.570   1.704
  619SOL    HW1 1871   2.826   1.610   1.617
  619SOL    HW2 1872   2.886   1.493   1.692
  620SOL     OW 1873   2.217   0.910   1.815
  620SOL    HW1 1874   2.301   0.935   1.852
  620SOL    HW2 1875   2.239   0.852   1.742
  621SOL     OW 1876   2.906   1.345   0.832
  621SOL    HW1 1877   2.910   1.265   0.779
  621SOL    HW2 1878   2.979   1.398   0.801
  622SOL     OW 1879   2.172   0.808   0.946
  622SOL    HW1 1880   2.264   0.832   0.943
  622SOL    HW2 1881   2.172   0.719   0.981
  623SOL     OW 1882   2.196   0.527   1.015
  623SOL    HW1 1883   2.159   0.440   1.000
  623SOL    HW2 1884   2.271   0.532   0.955
  624SOL     OW 1885   2.964   0.365   1.665
  624SOL    HW1 1886   2.903   0.427   1.705
  624SOL    HW2 1887   0.050   0.408   1.671
  625SOL     OW 1888   1.874   1.317   0.181
  625SOL    HW1 1889   1.782   1.331   0.158
  625SOL    HW2 1890   1.874   1.233   0.227
  626SOL     OW 1891   1.955   1.800   0.914
  626SOL    HW1 1892   1.921   1.714   0.891
  626SOL    HW2 1893   2.047   1.796   0.891
  627SOL     OW 1894   2.360   1.573   0.905
  627SOL    HW1 1895   2.428   1.635   0.931
  627SOL    HW2 1896   2.405   1.508   0.851
  628SOL     OW 1897   2.864   0.789   1.251
  628SOL    HW1 1898   2.911   0.723   1.303
  628SOL    HW2 1899   2.773   0.760   1.252
  629SOL     OW 1900   1.898   0.539   1.117
  629SOL    HW1 1901   1.979   0.529   1.068
  629SOL    HW2 1902   1.925   0.550   1.208
  630SOL     OW 1903   2.049   0.520   1.726
  630SOL    HW1 1904   2.108   0.483   1.660
  630SOL    HW2 1905   2.009   0.595   1.683
  631SOL     OW 1906   2.673   0.573   0.350
  631SOL    HW1 1907   2.678   0.493   0.299
  631SOL    HW2 1908   2.591   0.614   0.322
  632SOL     OW 1909   2.134   1.558   1.743
  632SOL    HW1 1910   2.090   1.619   1.802
  632SOL    HW2 1911   2.116   1.472   1.779
  633SOL     OW 1912   2.561   0.459   1.263
  633SOL    HW1 1913   2.513   0.382   1.231
  633SOL    HW2 1914   2.559   0.519   1.189
  634SOL     OW 1915   2.804   1.689   1.458
  634SOL    HW1 1916   2.773   1.637   1.384
  634SOL    HW2 1917   2.771   1.777   1.441
  635SOL     OW 1918   2.317   0.494   0.199
  635SOL    HW1 1919   2.370   0.569   0.224
  635SOL    HW2 1920   2.230   0.530   0.182
  636SOL     OW 1921   2.016   1.140   1.473
  636SOL    HW1 1922   2.010   1.086   1.552
  636SOL    HW2 1923   2.030   1.078   1.402
  637SOL     OW 1924   1.949   1.268   1.011
  637SOL    HW1 1925   1.935   1.281   1.105
  637SOL    HW2 1926   1.874   1.216   0.983
  638SOL     OW 1927   2.537   1.666   1.734
  638SOL    HW1 1928   2.482   1.742   1.719
  638SOL    HW2 1929   2.604   1.672   1.666
  639SOL     OW 1930   2.765   0.086   0.144
  639SOL    HW1 1931   2.797   0.035   0.069
  639SOL    HW2 1932   2.812   0.049   0.219
  640SOL     OW 1933   2.002   1.796   1.842
  640SOL    HW1 1934   1.948   1.731   1.887
  640SOL    HW2 1935   2.046   1.843   1.913
  641SOL     OW 1936   2.675   1.270   1.425
  641SOL    HW1 1937   2.662   1.315   1.509
  641SOL    HW2 1938   2.602   1.300   1.371
  642SOL     OW 1939   2.525   1.614   0.162
  642SOL    HW1 1940   2.538   1.630   0.069
  642SOL    HW2 1941   2.475   1.532   0.166
  643SOL     OW 1942   2.136   0.345   0.752
  643SOL    HW1 1943   2.046   0.367   0.728
  643SOL    HW2 1944   2.130   0.314   0.842
  644SOL     OW 1945   2.689   1.007   1.375
  644SOL    HW1 1946   2.735   1.002   1.291
  644SOL    HW2 1947   2.687   1.100   1.396
  645SOL     OW 1948   2.793   0.949   0.309
  645SOL    HW1 1949   2.840   0.959   0.227
  645SOL    HW2 1950   2.826   0.868   0.347
  646SOL     OW 1951   2.234   1.305   1.490
  646SOL    HW1 1952   2.216   1.384   1.438
  646SOL    HW2 1953   2.157   1.251   1.477
  647SOL     OW 1954   2.916   1.085   0.721
  647SOL    HW1 1955   2.842   1.044   0.765
  647SOL    HW2 1956   2.930   1.032   0.643
  648SOL     OW 1957   2.880   0.239   0.970
  648SOL    HW1 1958   2.877   0.189   0.889
  648SOL    HW2 1959   2.869   0.174   1.039
  649SOL     OW 1960   2.462   1.488   0.482
  649SOL    HW1 1961   2.507   1.438   0.414
  649SOL    HW2 1962   2.400   1.543   0.434
  650SOL     OW 1963   2.133   1.333   0.298
  650SOL    HW1 1964   2.048   1.335   0.253
  650SOL    HW2 1965   2.117   1.377   0.382
  651SOL     OW 1966   1.977   1.010   1.715
  651SOL    HW1 1967   1.900   0.996   1.770
  651SOL    HW2 1968   2.050   0.979   1.769
  652SOL     OW 1969   2.528   0.211   1.490
  652SOL    HW1 1970   2.611   0.180   1.453
  652SOL    HW2 1971   2.547   0.226   1.583
  653SOL     OW 1972   1.913   0.197   0.332
  653SOL    HW1 1973   1.878   0.231   0.249
  653SOL    HW2 1974   2.000   0.166   0.311
  654SOL     OW 1975   2.479   0.835   1.432
  654SOL    HW1 1976   2.534   0.912   1.418
  654SOL    HW2 1977   2.540   0.762   1.440
  655SOL     OW 1978   2.579   0.563   1.702
  655SOL    HW1 1979   2.615   0.627   1.764
  655SOL    HW2 1980   2.609   0.478   1.735
  656SOL     OW 1981   2.242   1.743   1.565
  656SOL    HW1 1982   2.157   1.783   1.550
  656SOL    HW2 1983   2.223   1.661   1.611
  657SOL     OW 1984   2.458   0.738   0.665
  657SOL    HW1 1985   2.493   0.827   0.655
  657SOL    HW2 1986   2.387   0.733   0.602
  658SOL     OW 1987   2.766   1.378   0.064
  658SOL    HW1 1988   2.696   1.383   0.129
  658SOL    HW2 1989   2.728   1.416   2.985
  659SOL     OW 1990   2.522   1.795   0.946
  659SOL    HW1 1991   2.502   1.885   0.922
  659SOL    HW2 1992   2.617   1.788   0.937
  660SOL     OW 1993   2.718   0.963   0.857
  660SOL    HW1 1994   2.765   0.891   0.898
  660SOL    HW2 1995   2.685   1.015   0.930
  661SOL     OW 1996   2.954   1.013   0.078
  661SOL    HW1 1997   2.933   1.060   2.997
  661SOL    HW2 1998   0.014   0.944   0.050
  662SOL     OW 1999   2.087   1.304   1.855
  662SOL    HW1 2000   2.013   1.257   1.816
  662SOL    HW2 2001   2.061   1.318   1.946
  663SOL     OW 2002   1.947   1.231   0.663
  663SOL    HW1 2003   1.952   1.187   0.748
  663SOL    HW2 2004   2.016   1.191   0.611
  664SOL     OW 2005   2.544   1.403   1.630
  664SOL    HW1 2006   2.462   1.359   1.652
  664SOL    HW2 2007   2.535   1.490   1.668
  665SOL     OW 2008   2.342   0.432   0.554
  665SOL    HW1 2009   2.325   0.376   0.479
  665SOL    HW2 2010   2.273   0.410   0.617
  666SOL     OW 2011   2.189   0.554   1.292
  666SOL    HW1 2012   2.247   0.501   1.347
  666SOL    HW2 2013   2.211   0.529   1.202
  667SOL     OW 2014   2.684   1.583   0.679
  667SOL    HW1 2015   2.677   1.620   0.591
  667SOL    HW2 2016   2.610   1.523   0.686
  668SOL     OW 2017   2.852   0.017   1.147
  668SOL    HW1 2018   2.824   2.941   1.095
  668SOL    HW2 2019   2.944   3.000   1.166
  669SOL     OW 2020   2.629   1.331   0.315
  669SOL    HW1 2021   2.602   1.241   0.334
  669SOL    HW2 2022   2.712   1.341   0.362
  670SOL     OW 2023   2.488   1.557   1.284
  670SOL    HW1 2024   2.489   1.638   1.335
  670SOL    HW2 2025   2.576   1.550   1.247
  671SOL     OW 2026   1.903   1.073   0.305
  671SOL    HW1 2027   1.997   1.065   0.287
  671SOL    HW2 2028   1.876   0.984   0.327
  672SOL     OW 2029   2.739   1.652   0.345
  672SOL    HW1 2030   2.668   1.635   0.284
  672SOL    HW2 2031   2.711   1.728   0.395
  673SOL     OW 2032   2.092   0.620   1.985
  673SOL    HW1 2033   2.002   0.623   2.018
  673SOL    HW2 2034   2.083   0.598   1.893
  674SOL     OW 2035   2.088   0.277   2.884
  674SOL    HW1 2036   2.105   0.237   2.969
  674SOL    HW2 2037   2.003   0.242   2.856
  675SOL     OW 2038   1.865   0.381   2.502
  675SOL    HW1 2039   1.785   0.413   2.544
  675SOL    HW2 2040   1.837   0.304   2.452
  676SOL     OW 2041   2.608   1.147   2.899
  676SOL    HW1 2042   2.547   1.195   2.954
  676SOL    HW2 2043   2.659   1.214   2.854
  677SOL     OW 2044   2.547   1.006   2.506
  677SOL    HW1 2045   2.607   0.990   2.580
  677SOL    HW2 2046   2.475   1.056   2.544
  678SOL     OW 2047   2.199   1.436   2.931
  678SOL    HW1 2048   2.126   1.396   2.885
  678SOL    HW2 2049   2.247   1.484   2.863
  679SOL     OW 2050   2.081   1.713   2.336
  679SOL    HW1 2051   2.104   1.790   2.387
  679SOL    HW2 2052   2.150   1.706   2.270
  680SOL     OW 2053   2.095   1.442   2.399
  680SOL    HW1 2054   2.076   1.535   2.400
  680SOL    HW2 2055   2.031   1.404   2.459
  681SOL     OW 2056   2.120   1.093   2.757
  681SOL    HW1 2057   2.112   1.004   2.792
  681SOL    HW2 2058   2.058   1.145   2.808
  682SOL     OW 2059   2.453   0.979   1.995
  682SOL    HW1 2060   2.494   1.033   1.927
  682SOL    HW2 2061   2.489   1.013   2.077
  683SOL     OW 2062   1.981   0.645   2.425
  683SOL    HW1 2063   1.935   0.564   2.450
  683SOL    HW2 2064   1.974   0.701   2.502
  684SOL     OW 2065   1.901   1.596   1.990
  684SOL    HW1 2066   1.875   1.504   2.002
  684SOL    HW2 2067   1.867   1.640   2.068
  685SOL     OW 2068   2.470   1.383   2.593
  685SOL    HW1 2069   2.423   1.300   2.601
  685SOL    HW2 2070   2.455   1.411   2.502
  686SOL     OW 2071   2.683   0.017   2.386
  686SOL    HW1 2072   2.714   0.102   2.357
  686SOL    HW2 2073   2.590   0.016   2.363
  687SOL     OW 2074   2.458   0.725   2.127
  687SOL    HW1 2075   2.460   0.804   2.074
  687SOL    HW2 2076   2.391   0.742   2.194
  688SOL     OW 2077   2.890   0.707   2.282
  688SOL    HW1 2078   2.920   0.690   2.371
  688SOL    HW2 2079   2.813   0.651   2.270
  689SOL     OW 2080   1.953   0.819   2.635
  689SOL    HW1 2081   2.032   0.812   2.689
  689SOL    HW2 2082   1.907   0.895   2.670
  690SOL     OW 2083   2.740   0.345   2.049
  690SOL    HW1 2084   2.790   0.408   1.997
  690SOL    HW2 2085   2.788   0.263   2.040
  691SOL     OW 2086   2.422   0.205   2.840
  691SOL    HW1 2087   2.357   0.271   2.866
  691SOL    HW2 2088   2.442   0.227   2.749
  692SOL     OW 2089   2.860   1.437   2.331
  692SOL    HW1 2090   2.827   1.513   2.283
  692SOL    HW2 2091   2.861   1.465   2.423
  693SOL     OW 2092   2.217   1.807   2.721
  693SOL    HW1 2093   2.259   1.722   2.731
  693SOL    HW2 2094   2.286   1.871   2.738
  694SOL     OW 2095   2.185   0.953   2.114
  694SOL    HW1 2096   2.263   0.977   2.064
  694SOL    HW2 2097   2.150   0.876   2.069
  695SOL     OW 2098   2.329   1.738   2.183
  695SOL    HW1 2099   2.372   1.794   2.248
  695SOL    HW2 2100   2.400   1.706   2.127
  696SOL     OW 2101   2.120   1.801   0.106
  696SOL    HW1 2102   2.173   1.738   0.154
  696SOL    HW2 2103   2.080   1.751   0.035
  697SOL     OW 2104   2.790   1.699   2.758
  697SOL    HW1 2105   2.856   1.641   2.796
  697SOL    HW2 2106   2.754   1.651   2.684
  698SOL     OW 2107   2.259   0.689   2.341
  698SOL    HW1 2108   2.286   0.598   2.356
  698SOL    HW2 2109   2.165   0.688   2.358
  699SOL     OW 2110   2.491   0.120   1.973
  699SOL    HW1 2111   2.580   0.086   1.964
  699SOL    HW2 2112   2.450   0.101   1.888
  700SOL     OW 2113   2.662   1.400   2.794
  700SOL    HW1 2114   2.748   1.392   2.752
  700SOL    HW2 2115   2.600   1.397   2.721
  701SOL     OW 2116   2.782   0.522   2.755
  701SOL    HW1 2117   2.757   0.497   2.666
  701SOL    HW2 2118   2.813   0.441   2.795
  702SOL     OW 2119   2.407   0.060   2.367
  702SOL    HW1 2120   2.320   0.044   2.402
  702SOL    HW2 2121   2.395   0.131   2.304
  703SOL     OW 2122   2.146   0.033   2.062
  703SOL    HW1 2123   2.188   0.109   2.020
  703SOL    HW2 2124   2.219   2.976   2.085
  704SOL     OW 2125   2.810   0.252   2.318
  704SOL    HW1 2126   2.761   0.299   2.251
  704SOL    HW2 2127   2.891   0.225   2.273
  705SOL     OW 2128   0.084   1.578   2.661
  705SOL    HW1 2129   0.111   1.621   2.580
  705SOL    HW2 2130   0.165   1.553   2.703
  706SOL     OW 2131   2.330   1.146   2.596
  706SOL    HW1 2132   2.260   1.129   2.659
  706SOL    HW2 2133   2.289   1.131   2.511
  707SOL     OW 2134   2.884   0.549   1.881
  707SOL    HW1 2135   2.839   0.630   1.860
  707SOL    HW2 2136   2.937   0.570   1.958
  708SOL     OW 2137   2.741   0.466   2.494
  708SOL    HW1 2138   2.678   0.518   2.444
  708SOL    HW2 2139   2.739   0.380   2.452
  709SOL     OW 2140   2.857   0.056   2.614
  709SOL    HW1 2141   2.818   0.056   2.527
  709SOL    HW2 2142   2.836   2.971   2.651
  710SOL     OW 2143   2.353   1.416   2.021
  710SOL    HW1 2144   2.278   1.386   2.073
  710SOL    HW2 2145   2.333   1.388   1.932
  711SOL     OW 2146   2.395   0.264   2.182
  711SOL    HW1 2147   2.431   0.213   2.110
  711SOL    HW2 2148   2.368   0.347   2.141
  712SOL     OW 2149   2.570   1.063   2.233
  712SOL    HW1 2150   2.554   1.046   2.325
  712SOL    HW2 2151   2.649   1.011   2.212
  713SOL     OW 2152   2.215   1.108   2.351
  713SOL    HW1 2153   2.215   1.182   2.291
  713SOL    HW2 2154   2.211   1.031   2.295
  714SOL     OW 2155   2.410   0.544   2.730
  714SOL    HW1 2156   2.429   0.594   2.651
  714SOL    HW2 2157   2.480   0.567   2.791
  715SOL     OW 2158   2.439   0.872   2.880
  715SOL    HW1 2159   2.479   0.954   2.852
  715SOL    HW2 2160   2.421   0.885   2.973
  716SOL     OW 2161   0.054   0.533   2.131
  716SOL    HW1 2162   0.084   0.456   2.180
  716SOL    HW2 2163   0.022   0.593   2.198
  717SOL     OW 2164   2.598   0.647   2.918
  717SOL    HW1 2165   2.663   0.622   2.852
  717SOL    HW2 2166   2.559   0.727   2.884
  718SOL     OW 2167   2.173   0.064   2.508
  718SOL    HW1 2168   2.165   0.155   2.536
  718SOL    HW2 2169   2.153   0.012   2.586
  719SOL     OW 2170   2.874   0.779   2.831
  719SOL    HW1 2171   2.880   0.770   2.926
  719SOL    HW2 2172   2.867   0.689   2.799
  720SOL     OW 2173   2.907   1.344   2.697
  720SOL    HW1 2174   2.914   1.268   2.640
  720SOL    HW2 2175   2.975   1.404   2.665
  721SOL     OW 2176   2.170   0.811   2.811
  721SOL    HW1 2177   2.264   0.831   2.810
  721SOL    HW2 2178   2.165   0.719   2.837
  722SOL     OW 2179   2.180   0.538   2.870
  722SOL    HW1 2180   2.147   0.448   2.869
  722SOL    HW2 2181   2.259   0.535   2.816
  723SOL     OW 2182   1.868   1.321   2.057
  723SOL    HW1 2183   1.778   1.337   2.028
  723SOL    HW2 2184   1.866   1.230   2.089
  724SOL     OW 2185   1.951   1.796   2.797
  724SOL    HW1 2186   1.919   1.713   2.761
  724SOL    HW2 2187   2.042   1.801   2.769
  725SOL     OW 2188   2.365   1.578   2.763
  725SOL    HW1 2189   2.437   1.637   2.787
  725SOL    HW2 2190   2.405   1.511   2.708
  726SOL     OW 2191   2.843   0.754   0.106
  726SOL    HW1 2192   2.882   0.737   0.192
  726SOL    HW2 2193   2.750   0.770   0.126
  727SOL     OW 2194   2.669   0.564   2.216
  727SOL    HW1 2195   2.668   0.489   2.156
  727SOL    HW2 2196   2.596   0.618   2.188
  728SOL     OW 2197   2.556   0.435   0.079
  728SOL    HW1 2198   2.465   0.441   0.107
  728SOL    HW2 2199   2.571   0.513   0.025
  729SOL     OW 2200   2.329   0.494   2.049
  729SOL    HW1 2201   2.384   0.569   2.070
  729SOL    HW2 2202   2.241   0.531   2.037
  730SOL     OW 2203   1.941   1.270   2.885
  730SOL    HW1 2204   1.927   1.277   2.980
  730SOL    HW2 2205   1.870   1.214   2.855
  731SOL     OW 2206   2.532   1.620   2.017
  731SOL    HW1 2207   2.541   1.632   1.922
  731SOL    HW2 2208   2.477   1.541   2.025
  732SOL     OW 2209   2.133   0.329   2.616
  732SOL    HW1 2210   2.047   0.362   2.592
  732SOL    HW2 2211   2.126   0.311   2.710
  733SOL     OW 2212   2.788   0.923   2.156
  733SOL    HW1 2213   2.836   0.927   2.073
  733SOL    HW2 2214   2.820   0.843   2.198
  734SOL     OW 2215   2.915   1.079   2.585
  734SOL    HW1 2216   2.836   1.039   2.623
  734SOL    HW2 2217   2.928   1.032   2.503
  735SOL     OW 2218   2.883   0.238   2.817
  735SOL    HW1 2219   2.876   0.188   2.735
  735SOL    HW2 2220   2.875   0.171   2.885
  736SOL     OW 2221   2.463   1.489   2.342
  736SOL    HW1 2222   2.507   1.439   2.273
  736SOL    HW2 2223   2.394   1.537   2.296
  737SOL     OW 2224   2.122   1.343   2.153
  737SOL    HW1 2225   2.030   1.343   2.128
  737SOL    HW2 2226   2.123   1.382   2.241
  738SOL     OW 2227   1.939   0.335   1.899
  738SOL    HW1 2228   1.849   0.318   1.871
  738SOL    HW2 2229   1.967   0.410   1.845
  739SOL     OW 2230   1.899   0.210   2.159
  739SOL    HW1 2231   1.918   0.266   2.084
  739SOL    HW2 2232   1.965   0.141   2.155
  740SOL     OW 2233   2.458   0.739   2.529
  740SOL    HW1 2234   2.493   0.827   2.513
  740SOL    HW2 2235   2.387   0.729   2.466
  741SOL     OW 2236   2.734   1.369   1.902
  741SOL    HW1 2237   2.681   1.403   1.974
  741SOL    HW2 2238   2.747   1.445   1.844
  742SOL     OW 2239   2.529   1.799   2.828
  742SOL    HW1 2240   2.508   1.884   2.790
  742SOL    HW2 2241   2.620   1.784   2.806
  743SOL     OW 2242   2.711   0.963   2.720
  743SOL    HW1 2243   2.765   0.893   2.758
  743SOL    HW2 2244   2.685   1.016   2.795
  744SOL     OW 2245   2.940   0.949   1.928
  744SOL    HW1 2246   2.906   1.023   1.877
  744SOL    HW2 2247   0.022   0.982   1.966
  745SOL     OW 2248   1.946   1.239   2.529
  745SOL    HW1 2249   1.943   1.181   2.605
  745SOL    HW2 2250   2.011   1.199   2.471
  746SOL     OW 2251   2.336   0.429   2.413
  746SOL    HW1 2252   2.323   0.374   2.335
  746SOL    HW2 2253   2.268   0.402   2.474
  747SOL     OW 2254   2.683   1.581   2.536
  747SOL    HW1 2255   2.681   1.624   2.450
  747SOL    HW2 2256   2.607   1.524   2.536
  748SOL     OW 2257   2.633   1.334   2.177
  748SOL    HW1 2258   2.605   1.243   2.185
  748SOL    HW2 2259   2.714   1.338   2.227
  749SOL     OW 2260   1.906   1.072   2.171
  749SOL    HW1 2261   1.999   1.063   2.150
  749SOL    HW2 2262   1.877   0.983   2.192
  750SOL     OW 2263   2.739   1.647   2.210
  750SOL    HW1 2264   2.669   1.633   2.145
  750SOL    HW2 2265   2.715   1.728   2.254
  751SOL     OW 2266   2.082   2.489   0.116
  751SOL    HW1 2267   1.986   2.485   0.122
  751SOL    HW2 2268   2.101   2.464   0.025
  752SOL     OW 2269   2.086   2.143   0.992
  752SOL    HW1 2270   2.116   2.109   1.077
  752SOL    HW2 2271   1.997   2.108   0.982
  753SOL     OW 2272   1.863   2.238   0.630
  753SOL    HW1 2273   1.786   2.273   0.675
  753SOL    HW2 2274   1.836   2.149   0.605
  754SOL     OW 2275   2.589   2.999   1.022
  754SOL    HW1 2276   2.522   0.051   1.067
  754SOL    HW2 2277   2.640   0.063   0.971
  755SOL     OW 2278   2.725   2.634   1.821
  755SOL    HW1 2279   2.723   2.695   1.895
  755SOL    HW2 2280   2.755   2.688   1.747
  756SOL     OW 2281   2.513   2.846   0.708
  756SOL    HW1 2282   2.607   2.855   0.723
  756SOL    HW2 2283   2.488   2.927   0.663
  757SOL     OW 2284   2.309   2.261   1.487
  757SOL    HW1 2285   2.383   2.200   1.492
  757SOL    HW2 2286   2.232   2.206   1.502
  758SOL     OW 2287   2.112   0.313   0.474
  758SOL    HW1 2288   2.058   0.387   0.498
  758SOL    HW2 2289   2.058   0.236   0.492
  759SOL     OW 2290   2.107   2.947   0.882
  759SOL    HW1 2291   2.127   2.860   0.916
  759SOL    HW2 2292   2.063   2.991   0.955
  760SOL     OW 2293   2.480   2.832   0.149
  760SOL    HW1 2294   2.463   2.925   0.135
  760SOL    HW2 2295   2.552   2.830   0.212
  761SOL     OW 2296   1.975   2.510   0.561
  761SOL    HW1 2297   1.948   2.422   0.587
  761SOL    HW2 2298   1.970   2.561   0.642
  762SOL     OW 2299   1.986   2.604   1.583
  762SOL    HW1 2300   2.079   2.622   1.596
  762SOL    HW2 2301   1.942   2.686   1.606
  763SOL     OW 2302   2.529   0.248   0.671
  763SOL    HW1 2303   2.472   0.189   0.721
  763SOL    HW2 2304   2.469   0.308   0.628
  764SOL     OW 2305   2.675   1.864   0.504
  764SOL    HW1 2306   2.713   1.951   0.492
  764SOL    HW2 2307   2.581   1.881   0.517
  765SOL     OW 2308   2.056   2.842   1.255
  765SOL    HW1 2309   2.138   2.792   1.248
  765SOL    HW2 2310   1.988   2.779   1.232
  766SOL     OW 2311   2.197   2.113   1.818
  766SOL    HW1 2312   2.236   2.200   1.828
  766SOL    HW2 2313   2.105   2.125   1.843
  767SOL     OW 2314   2.451   2.578   0.269
  767SOL    HW1 2315   2.460   2.659   0.220
  767SOL    HW2 2316   2.387   2.599   0.338
  768SOL     OW 2317   2.653   2.489   1.450
  768SOL    HW1 2318   2.630   2.462   1.539
  768SOL    HW2 2319   2.617   2.420   1.394
  769SOL     OW 2320   2.825   2.744   1.583
  769SOL    HW1 2321   2.852   2.661   1.545
  769SOL    HW2 2322   2.773   2.786   1.514
  770SOL     OW 2323   2.849   2.236   1.257
  770SOL    HW1 2324   2.768   2.279   1.286
  770SOL    HW2 2325   2.839   2.229   1.162
  771SOL     OW 2326   2.887   2.581   0.409
  771SOL    HW1 2327   2.931   2.563   0.492
  771SOL    HW2 2328   2.814   2.519   0.406
  772SOL     OW 2329   1.948   2.683   0.775
  772SOL    HW1 2330   2.030   2.672   0.822
  772SOL    HW2 2331   1.910   2.764   0.809
  773SOL     OW 2332   2.785   2.193   0.220
  773SOL    HW1 2333   2.786   2.260   0.152
  773SOL    HW2 2334   2.763   2.112   0.174
  774SOL     OW 2335   2.412   2.048   0.892
  774SOL    HW1 2336   2.413   2.071   0.985
  774SOL    HW2 2337   2.415   2.132   0.847
  775SOL     OW 2338   2.062   2.144   1.506
  775SOL    HW1 2339   1.976   2.186   1.497
  775SOL    HW2 2340   2.044   2.063   1.555
  776SOL     OW 2341   2.250   2.556   0.473
  776SOL    HW1 2342   2.270   2.463   0.483
  776SOL    HW2 2343   2.157   2.563   0.495
  777SOL     OW 2344   2.483   1.983   0.103
  777SOL    HW1 2345   2.577   1.973   0.117
  777SOL    HW2 2346   2.464   1.925   0.030
  778SOL     OW 2347   2.629   2.145   1.758
  778SOL    HW1 2348   2.702   2.083   1.765
  778SOL    HW2 2349   2.569   2.119   1.828
  779SOL     OW 2350   2.788   2.365   0.902
  779SOL    HW1 2351   2.761   2.353   0.811
  779SOL    HW2 2352   2.825   2.280   0.927
  780SOL     OW 2353   2.409   1.923   0.504
  780SOL    HW1 2354   2.331   1.925   0.560
  780SOL    HW2 2355   2.400   1.999   0.447
  781SOL     OW 2356   2.813   2.100   0.465
  781SOL    HW1 2357   2.781   2.148   0.389
  781SOL    HW2 2358   2.900   2.070   0.440
  782SOL     OW 2359   2.883   2.375   0.039
  782SOL    HW1 2360   2.843   2.459   0.019
  782SOL    HW2 2361   2.942   2.394   0.112
  783SOL     OW 2362   1.940   2.419   1.388
  783SOL    HW1 2363   2.032   2.416   1.363
  783SOL    HW2 2364   1.935   2.488   1.454
  784SOL     OW 2365   2.422   2.088   1.165
  784SOL    HW1 2366   2.461   2.010   1.203
  784SOL    HW2 2367   2.331   2.087   1.195
  785SOL     OW 2368   2.742   2.319   0.634
  785SOL    HW1 2369   2.687   2.378   0.584
  785SOL    HW2 2370   2.745   2.239   0.582
  786SOL     OW 2371   2.856   1.924   0.756
  786SOL    HW1 2372   2.811   1.903   0.675
  786SOL    HW2 2373   2.849   1.845   0.809
  787SOL     OW 2374   2.376   2.118   0.319
  787SOL    HW1 2375   2.426   2.074   0.250
  787SOL    HW2 2376   2.364   2.207   0.287
  788SOL     OW 2377   2.751   1.950   1.386
  788SOL    HW1 2378   2.778   1.934   1.295
  788SOL    HW2 2379   2.828   1.991   1.426
  789SOL     OW 2380   2.275   2.679   1.253
  789SOL    HW1 2381   2.345   2.686   1.318
  789SOL    HW2 2382   2.242   2.590   1.264
  790SOL     OW 2383   2.418   2.395   0.859
  790SOL    HW1 2384   2.432   2.454   0.785
  790SOL    HW2 2385   2.481   2.423   0.925
  791SOL     OW 2386   2.275   2.603   1.604
  791SOL    HW1 2387   2.337   2.646   1.546
  791SOL    HW2 2388   2.312   2.516   1.619
  792SOL     OW 2389   2.856   1.991   1.773
  792SOL    HW1 2390   2.901   2.042   1.706
  792SOL    HW2 2391   2.898   1.905   1.771
  793SOL     OW 2392   2.360   1.906   1.747
  793SOL    HW1 2393   2.317   1.851   1.682
  793SOL    HW2 2394   2.299   1.979   1.760
  794SOL     OW 2395   2.449   2.730   1.034
  794SOL    HW1 2396   2.469   2.822   1.018
  794SOL    HW2 2397   2.389   2.731   1.109
  795SOL     OW 2398   0.061   2.398   0.268
  795SOL    HW1 2399   0.077   2.318   0.318
  795SOL    HW2 2400   0.035   2.463   0.334
  796SOL     OW 2401   2.163   2.065   1.246
  796SOL    HW1 2402   2.123   2.094   1.329
  796SOL    HW2 2403   2.148   1.970   1.245
  797SOL     OW 2404   2.586   2.491   1.057
  797SOL    HW1 2405   2.666   2.481   1.005
  797SOL    HW2 2406   2.558   2.581   1.041
  798SOL     OW 2407   2.160   1.931   0.621
  798SOL    HW1 2408   2.144   2.021   0.652
  798SOL    HW2 2409   2.171   1.880   0.701
  799SOL     OW 2410   2.857   2.622   0.982
  799SOL    HW1 2411   2.911   2.617   1.061
  799SOL    HW2 2412   2.861   2.535   0.944
  800SOL     OW 2413   2.226   2.788   1.801
  800SOL    HW1 2414   2.290   2.776   1.872
  800SOL    HW2 2415   2.244   2.717   1.740
  801SOL     OW 2416   2.173   2.673   0.944
  801SOL    HW1 2417   2.267   2.691   0.935
  801SOL    HW2 2418   2.169   2.585   0.982
  802SOL     OW 2419   2.194   2.388   1.010
  802SOL    HW1 2420   2.159   2.299   0.997
  802SOL    HW2 2421   2.271   2.392   0.954
  803SOL     OW 2422   2.966   2.242   1.668
  803SOL    HW1 2423   2.907   2.300   1.717
  803SOL    HW2 2424   0.052   2.284   1.675
  804SOL     OW 2425   2.973   2.068   1.467
  804SOL    HW1 2426   2.961   2.138   1.532
  804SOL    HW2 2427   2.969   2.114   1.383
  805SOL     OW 2428   2.859   2.666   1.268
  805SOL    HW1 2429   2.911   2.595   1.305
  805SOL    HW2 2430   2.777   2.624   1.242
  806SOL     OW 2431   1.898   2.411   1.115
  806SOL    HW1 2432   1.979   2.389   1.068
  806SOL    HW2 2433   1.922   2.412   1.207
  807SOL     OW 2434   2.053   2.380   1.725
  807SOL    HW1 2435   2.101   2.335   1.656
  807SOL    HW2 2436   2.007   2.451   1.681
  808SOL     OW 2437   2.667   2.426   0.360
  808SOL    HW1 2438   2.672   2.357   0.293
  808SOL    HW2 2439   2.594   2.481   0.332
  809SOL     OW 2440   2.563   2.315   1.262
  809SOL    HW1 2441   2.510   2.240   1.233
  809SOL    HW2 2442   2.559   2.376   1.189
  810SOL     OW 2443   2.301   2.352   0.204
  810SOL    HW1 2444   2.369   2.417   0.221
  810SOL    HW2 2445   2.223   2.404   0.184
  811SOL     OW 2446   2.021   2.996   1.475
  811SOL    HW1 2447   2.022   2.939   1.552
  811SOL    HW2 2448   2.035   2.937   1.401
  812SOL     OW 2449   2.759   1.934   0.126
  812SOL    HW1 2450   2.813   1.905   0.053
  812SOL    HW2 2451   2.800   1.895   0.203
  813SOL     OW 2452   2.124   2.179   0.721
  813SOL    HW1 2453   2.038   2.215   0.699
  813SOL    HW2 2454   2.122   2.168   0.816
  814SOL     OW 2455   2.674   2.866   1.377
  814SOL    HW1 2456   2.731   2.838   1.306
  814SOL    HW2 2457   2.700   2.956   1.395
  815SOL     OW 2458   2.739   2.787   0.284
  815SOL    HW1 2459   2.820   2.838   0.275
  815SOL    HW2 2460   2.759   2.722   0.351
  816SOL     OW 2461   2.880   2.104   0.968
  816SOL    HW1 2462   2.875   2.055   0.886
  816SOL    HW2 2463   2.869   2.037   1.036
  817SOL     OW 2464   1.975   2.864   1.708
  817SOL    HW1 2465   1.899   2.856   1.766
  817SOL    HW2 2466   2.050   2.845   1.764
  818SOL     OW 2467   2.526   2.063   1.501
  818SOL    HW1 2468   2.607   2.039   1.455
  818SOL    HW2 2469   2.556   2.093   1.587
  819SOL     OW 2470   2.475   2.693   1.435
  819SOL    HW1 2471   2.532   2.768   1.419
  819SOL    HW2 2472   2.534   2.618   1.442
  820SOL     OW 2473   2.579   2.425   1.701
  820SOL    HW1 2474   2.616   2.489   1.762
  820SOL    HW2 2475   2.605   2.340   1.737
  821SOL     OW 2476   2.454   2.584   0.663
  821SOL    HW1 2477   2.479   2.676   0.677
  821SOL    HW2 2478   2.386   2.588   0.596
  822SOL     OW 2479   2.753   2.838   0.864
  822SOL    HW1 2480   2.783   2.754   0.899
  822SOL    HW2 2481   2.680   2.863   0.921
  823SOL     OW 2482   2.279   2.293   0.521
  823SOL    HW1 2483   2.322   2.221   0.474
  823SOL    HW2 2484   2.244   2.253   0.600
  824SOL     OW 2485   2.193   2.417   1.291
  824SOL    HW1 2486   2.246   2.362   1.348
  824SOL    HW2 2487   2.212   2.387   1.202
  825SOL     OW 2488   2.868   1.879   1.141
  825SOL    HW1 2489   2.815   1.808   1.103
  825SOL    HW2 2490   2.958   1.858   1.116
  826SOL     OW 2491   1.864   2.912   0.300
  826SOL    HW1 2492   1.950   2.917   0.258
  826SOL    HW2 2493   1.860   2.824   0.335
  827SOL     OW 2494   2.094   2.472   1.983
  827SOL    HW1 2495   2.006   2.487   2.016
  827SOL    HW2 2496   2.082   2.451   1.890
  828SOL     OW 2497   2.091   2.143   2.857
  828SOL    HW1 2498   2.111   2.112   2.946
  828SOL    HW2 2499   2.002   2.111   2.841
  829SOL     OW 2500   1.869   2.244   2.500
  829SOL    HW1 2501   1.785   2.271   2.537
  829SOL    HW2 2502   1.849   2.165   2.450
  830SOL     OW 2503   2.639   0.017   2.876
  830SOL    HW1 2504   2.549   0.027   2.908
  830SOL    HW2 2505   2.652   0.091   2.817
  831SOL     OW 2506   2.508   2.846   2.571
  831SOL    HW1 2507   2.601   2.847   2.593
  831SOL    HW2 2508   2.494   2.927   2.522
  832SOL     OW 2509   2.103   0.305   2.332
  832SOL    HW1 2510   2.050   0.382   2.353
  832SOL    HW2 2511   2.051   0.230   2.362
  833SOL     OW 2512   2.111   2.950   2.750
  833SOL    HW1 2513   2.128   2.861   2.780
  833SOL    HW2 2514   2.057   2.989   2.818
  834SOL     OW 2515   2.463   2.823   1.998
  834SOL    HW1 2516   2.457   2.906   1.951
  834SOL    HW2 2517   2.535   2.836   2.060
  835SOL     OW 2518   1.979   2.510   2.425
  835SOL    HW1 2519   1.949   2.421   2.446
  835SOL    HW2 2520   1.969   2.559   2.507
  836SOL     OW 2521   2.495   0.244   2.570
  836SOL    HW1 2522   2.462   0.163   2.532
  836SOL    HW2 2523   2.466   0.313   2.510
  837SOL     OW 2524   2.676   1.864   2.368
  837SOL    HW1 2525   2.715   1.950   2.352
  837SOL    HW2 2526   2.582   1.882   2.379
  838SOL     OW 2527   2.061   2.805   0.120
  838SOL    HW1 2528   2.130   2.740   0.107
  838SOL    HW2 2529   1.982   2.762   0.088
  839SOL     OW 2530   2.458   2.579   2.130
  839SOL    HW1 2531   2.461   2.657   2.075
  839SOL    HW2 2532   2.391   2.599   2.196
  840SOL     OW 2533   2.893   2.580   2.273
  840SOL    HW1 2534   2.925   2.568   2.362
  840SOL    HW2 2535   2.815   2.524   2.268
  841SOL     OW 2536   1.946   2.682   2.640
  841SOL    HW1 2537   2.029   2.673   2.686
  841SOL    HW2 2538   1.908   2.763   2.674
  842SOL     OW 2539   2.751   2.207   2.059
  842SOL    HW1 2540   2.789   2.269   1.997
  842SOL    HW2 2541   2.751   2.124   2.012
  843SOL     OW 2542   2.410   2.047   2.763
  843SOL    HW1 2543   2.392   2.090   2.846
  843SOL    HW2 2544   2.420   2.119   2.700
  844SOL     OW 2545   2.252   2.555   2.336
  844SOL    HW1 2546   2.274   2.462   2.347
  844SOL    HW2 2547   2.159   2.560   2.355
  845SOL     OW 2548   2.500   1.986   1.964
  845SOL    HW1 2549   2.561   1.914   1.981
  845SOL    HW2 2550   2.446   1.956   1.891
  846SOL     OW 2551   2.786   2.376   2.756
  846SOL    HW1 2552   2.762   2.354   2.666
  846SOL    HW2 2553   2.815   2.292   2.794
  847SOL     OW 2554   2.411   1.927   2.366
  847SOL    HW1 2555   2.329   1.926   2.415
  847SOL    HW2 2556   2.405   2.004   2.310
  848SOL     OW 2557   2.152   1.911   2.050
  848SOL    HW1 2558   2.208   1.973   2.003
  848SOL    HW2 2559   2.213   1.847   2.087
  849SOL     OW 2560   2.807   2.103   2.312
  849SOL    HW1 2561   2.771   2.150   2.238
  849SOL    HW2 2562   2.895   2.077   2.284
  850SOL     OW 2563   2.884   2.412   1.882
  850SOL    HW1 2564   2.837   2.492   1.858
  850SOL    HW2 2565   2.933   2.435   1.961
  851SOL     OW 2566   2.741   2.316   2.494
  851SOL    HW1 2567   2.684   2.377   2.446
  851SOL    HW2 2568   2.743   2.237   2.439
  852SOL     OW 2569   2.852   1.925   2.609
  852SOL    HW1 2570   2.806   1.897   2.530
  852SOL    HW2 2571   2.849   1.849   2.667
  853SOL     OW 2572   2.391   2.124   2.181
  853SOL    HW1 2573   2.432   2.076   2.109
  853SOL    HW2 2574   2.367   2.209   2.143
  854SOL     OW 2575   2.414   2.392   2.726
  854SOL    HW1 2576   2.427   2.447   2.648
  854SOL    HW2 2577   2.478   2.425   2.789
  855SOL     OW 2578   2.434   2.730   2.888
  855SOL    HW1 2579   2.475   2.804   2.844
  855SOL    HW2 2580   2.435   2.753   2.981
  856SOL     OW 2581   0.053   2.392   2.136
  856SOL    HW1 2582   0.084   2.318   2.189
  856SOL    HW2 2583   0.012   2.451   2.200
  857SOL     OW 2584   2.135   2.071   0.138
  857SOL    HW1 2585   2.224   2.096   0.165
  857SOL    HW2 2586   2.142   1.977   0.120
  858SOL     OW 2587   2.590   2.497   2.911
  858SOL    HW1 2588   2.664   2.482   2.852
  858SOL    HW2 2589   2.560   2.585   2.888
  859SOL     OW 2590   2.165   1.927   2.484
  859SOL    HW1 2591   2.145   2.017   2.507
  859SOL    HW2 2592   2.169   1.880   2.567
  860SOL     OW 2593   2.872   2.632   2.825
  860SOL    HW1 2594   2.893   2.631   2.918
  860SOL    HW2 2595   2.868   2.539   2.801
  861SOL     OW 2596   2.170   2.673   2.811
  861SOL    HW1 2597   2.263   2.696   2.816
  861SOL    HW2 2598   2.167   2.580   2.833
  862SOL     OW 2599   2.181   2.399   2.866
  862SOL    HW1 2600   2.147   2.310   2.857
  862SOL    HW2 2601   2.263   2.399   2.816
  863SOL     OW 2602   2.878   2.641   0.097
  863SOL    HW1 2603   2.922   2.636   0.182
  863SOL    HW2 2604   2.792   2.679   0.117
  864SOL     OW 2605   2.673   2.428   2.221
  864SOL    HW1 2606   2.674   2.353   2.162
  864SOL    HW2 2607   2.599   2.481   2.192
  865SOL     OW 2608   2.564   2.311   0.101
  865SOL    HW1 2609   2.477   2.275   0.082
  865SOL    HW2 2610   2.574   2.383   0.039
  866SOL     OW 2611   2.330   2.352   2.051
  866SOL    HW1 2612   2.384   2.427   2.073
  866SOL    HW2 2613   2.243   2.389   2.035
  867SOL     OW 2614   0.163   2.700   2.159
  867SOL    HW1 2615   0.110   2.643   2.214
  867SOL    HW2 2616   0.202   2.641   2.094
  868SOL     OW 2617   2.126   2.177   2.579
  868SOL    HW1 2618   2.040   2.213   2.554
  868SOL    HW2 2619   2.123   2.173   2.674
  869SOL     OW 2620   2.755   2.766   2.109
  869SOL    HW1 2621   2.833   2.819   2.089
  869SOL    HW2 2622   2.784   2.706   2.177
  870SOL     OW 2623   2.874   2.102   2.817
  870SOL    HW1 2624   2.868   2.055   2.734
  870SOL    HW2 2625   2.907   2.036   2.879
  871SOL     OW 2626   1.938   2.195   1.898
  871SOL    HW1 2627   1.854   2.171   1.859
  871SOL    HW2 2628   1.968   2.271   1.847
  872SOL     OW 2629   1.931   2.021   2.174
  872SOL    HW1 2630   1.916   2.099   2.120
  872SOL    HW2 2631   2.015   1.987   2.143
  873SOL     OW 2632   2.455   2.581   2.526
  873SOL    HW1 2633   2.478   2.673   2.539
  873SOL    HW2 2634   2.386   2.582   2.460
  874SOL     OW 2635   2.744   2.832   2.711
  874SOL    HW1 2636   2.787   2.756   2.749
  874SOL    HW2 2637   2.709   2.880   2.786
  875SOL     OW 2638   2.952   2.838   1.900
  875SOL    HW1 2639   2.916   2.926   1.912
  875SOL    HW2 2640   0.009   2.825   1.976
  876SOL     OW 2641   2.294   2.294   2.389
  876SOL    HW1 2642   2.320   2.224   2.329
  876SOL    HW2 2643   2.244   2.251   2.457
  877SOL     OW 2644   1.885   2.921   2.180
  877SOL    HW1 2645   1.968   2.931   2.132
  877SOL    HW2 2646   1.880   2.827   2.198
  878NA      NA 2647   1.953   2.130   0.259
   3.00000   3.00000   3.00000
